FOO
138240
    1MOL0     O    1   5.927   7.104   4.398  0.0111 -0.9095 -0.1646
    1MOL0     C    2   5.830   7.166   4.428  0.0488  0.9756  0.4198
    1MOL0     O    3   5.709   7.109   4.459  0.3792 -0.1536  0.1179
    1MOL0     C    4   5.684   6.975   4.452 -0.5466  0.1657 -0.1074
    1MOL0     C    5   5.606   6.921   4.554  0.1360  0.1362  0.2173
    1MOL0     C    6   5.561   6.790   4.548 -0.4637 -0.4425 -0.8147
    1MOL0     C    7   5.593   6.712   4.433 -0.0816  0.3160 -0.7524
    1MOL0     O    8   5.549   6.583   4.436 -0.5237 -0.3466 -0.6580
    1MOL0     C    9   5.478   6.556   4.310  0.2667  0.6872  0.1469
    1MOL0     C   10   5.431   6.409   4.309 -0.0764 -0.6016 -0.2776
    1MOL0     C   11   5.328   6.366   4.423  0.6739  0.5107  0.1041
    1MOL0     C   12   5.194   6.441   4.399  0.4644  0.7369 -0.0103
    1MOL0     C   13   5.087   6.406   4.504 -0.1313 -0.3149  0.5312
    1MOL0     C   14   4.960   6.468   4.478  0.5239  0.4568 -0.7382
    1MOL0     C   15   4.856   6.488   4.593 -0.8866 -0.1608 -0.0415
    1MOL0     C   16   4.913   6.583   4.710  0.4958  0.0972 -0.7906
    1MOL0     N   17   4.937   6.726   4.666  0.3409 -0.3259 -0.4709
    1MOL0     C   18   4.865   6.827   4.718  0.0210 -0.2947 -0.8001
    1MOL0     C   19   4.927   6.933   4.659 -0.3281 -0.7521 -0.1813
    1MOL0     C   20   4.903   7.084   4.668 -0.0309  0.3362  0.1516
    1MOL0     C   21   4.766   7.122   4.734  0.1987  0.4561 -0.4074
    1MOL0     C   22   4.733   7.268   4.711 -0.8562  1.1496  1.1016
    1MOL0     C   23   4.591   7.284   4.648 -0.3883  0.7389 -0.1314
    1MOL0     O   24   4.586   7.413   4.589  0.0543 -0.1708 -0.4350
    1MOL0     C   25   4.573   7.530   4.664  0.4650  0.2391  0.1204
    1MOL0     C   26   4.597   7.647   4.596 -0.6072  0.7242 -0.3317
    1MOL0     C   27   4.568   7.772   4.637  0.6396 -0.9997 -0.0759
    1MOL0     C   28   4.594   7.882   4.540 -0.6795  0.3273  0.1034
    1MOL0     C   29   4.507   7.785   4.763 -0.0770 -0.4805 -0.6428
    1MOL0     C   30   4.470   7.912   4.824 -0.4818  0.3059  0.7314
    1MOL0     O   31   4.484   7.915   4.953  0.4436 -0.6039 -0.6120
    1MOL0     C   32   4.450   8.029   5.026 -0.3294  0.0769 -0.1467
    1MOL0     C   33   4.517   8.155   5.002 -0.4364  0.3085 -0.4874
    1MOL0     C   34   4.479   8.269   5.072  0.1976 -0.6854 -0.4336
    1MOL0     C   35   4.391   8.258   5.184  0.8971  0.6059 -0.1891
    1MOL0     O   36   4.367   8.363   5.267 -0.3569  0.1273  0.4388
    1MOL0     C   37   4.322   8.349   5.407  0.8683 -0.3015  0.6260
    1MOL0     C   38   4.360   8.483   5.472  0.3174  0.1844 -1.0801
    1MOL0     C   39   4.446   8.458   5.598 -0.4320  0.0931  1.2626
    1MOL0     C   40   4.587   8.409   5.572  0.6086 -0.4981  0.6219
    1MOL0     C   41   4.652   8.358   5.700  0.7318 -0.5672  0.1803
    1MOL0     C   42   4.808   8.337   5.690  0.3261 -1.1452 -0.2909
    1MOL0     C   43   4.864   8.288   5.557 -0.0714 -0.9354  0.6019
    1MOL0     C   44   5.014   8.313   5.553 -0.1693  0.3759  0.0326
    1MOL0    Cl   45   5.039   8.488   5.517 -0.0121  0.4285  0.1239
    1MOL0     C   46   4.329   8.140   5.208 -0.2891  0.4542  0.1538
    1MOL0     C   47   4.363   8.023   5.133  0.3308  0.3066  0.4334
    1MOL0     O   48   4.406   7.997   4.760 -0.6867 -0.3565 -0.1979
    1MOL0     C   49   4.490   7.669   4.839 -1.1176  0.4922  0.5067
    1MOL0     C   50   4.524   7.542   4.793 -0.4697  0.3617  0.4812
    1MOL0     N   51   5.035   6.899   4.589  0.1023  1.1220  0.2598
    1MOL0     N   52   5.042   6.767   4.599  0.0072 -0.0690  1.4418
    1MOL0     C   53   5.673   6.765   4.332  0.8731  0.7136 -0.6225
    1MOL0     C   54   5.717   6.895   4.340  0.3183 -0.4608 -0.1093
    1MOL0     C   55   5.825   7.313   4.411 -0.0409 -0.2245 -0.3229
    1MOL0     C   56   5.953   7.385   4.385  0.5357  0.6480  0.0121
    1MOL0     C   57   5.956   7.519   4.395 -0.2388 -0.4899  0.9249
    1MOL0     C   58   5.839   7.602   4.419 -0.0964  0.9734  1.6436
    1MOL0     O   59   5.831   7.738   4.403  0.4926 -0.1856  0.0377
    1MOL0     C   60   5.948   7.815   4.436  0.7078  0.1569  0.1866
    1MOL0     C   61   6.012   7.870   4.305 -1.4891  0.9797  0.0470
    1MOL0     C   62   5.940   7.994   4.265 -0.2363  0.1110 -0.0915
    1MOL0     C   63   5.998   8.077   4.154  0.6146 -0.2041 -0.2585
    1MOL0     C   64   6.134   8.122   4.184 -0.1579 -0.5421  0.1428
    1MOL0     C   65   6.250   8.156   4.209 -0.6527 -0.6455 -0.0465
    1MOL0     C   66   5.720   7.527   4.446  0.6112  0.6030 -0.5274
    1MOL0     C   67   5.712   7.383   4.444  0.9937 -0.2227  0.8189
    1MOL0     H   68   5.587   6.986   4.638 -0.7841  0.3934 -0.1677
    1MOL0     H   69   5.516   6.748   4.637  0.2712  2.2578  0.9754
    1MOL0     H   70   5.394   6.620   4.284  0.5700  0.1725 -2.3355
    1MOL0     H   71   5.546   6.568   4.225  1.0152 -3.6224 -0.1075
    1MOL0     H   72   5.383   6.392   4.212 -1.1769  1.6525 -0.2176
    1MOL0     H   73   5.522   6.350   4.322  0.7142  0.6288 -0.0278
    1MOL0     H   74   5.313   6.257   4.427 -0.0651  0.6570  2.3510
    1MOL0     H   75   5.371   6.409   4.513 -1.2866 -0.6029  1.6604
    1MOL0     H   76   5.203   6.550   4.406 -3.4814  1.1709  0.4228
    1MOL0     H   77   5.149   6.432   4.300 -2.3636  2.1024  1.0346
    1MOL0     H   78   5.059   6.301   4.494 -0.0037 -0.1810 -1.5975
    1MOL0     H   79   5.125   6.440   4.601 -0.1054 -1.4733  0.9312
    1MOL0     H   80   4.975   6.565   4.431  1.0144  1.6471  1.7004
    1MOL0     H   81   4.917   6.422   4.389  1.2373 -1.7608 -0.0054
    1MOL0     H   82   4.771   6.539   4.547 -1.4560 -0.3483  0.7870
    1MOL0     H   83   4.822   6.389   4.625 -1.1313  0.2038  0.8530
    1MOL0     H   84   5.005   6.543   4.753 -0.7949 -1.3902  0.7368
    1MOL0     H   85   4.837   6.578   4.788 -0.0264 -0.1586 -1.3022
    1MOL0     H   86   4.781   6.820   4.787 -0.6184 -1.5278 -1.6709
    1MOL0     H   87   4.988   7.140   4.708  1.6958 -2.9135  1.4767
    1MOL0     H   88   4.877   7.116   4.567 -0.9553  2.7221  1.0789
    1MOL0     H   89   4.775   7.103   4.841  2.4381  1.9468 -0.2811
    1MOL0     H   90   4.683   7.062   4.694 -1.8871  1.5506  2.0326
    1MOL0     H   91   4.800   7.310   4.636 -2.5598 -0.0979 -1.2365
    1MOL0     H   92   4.730   7.330   4.801 -2.4110  3.8283 -0.6779
    1MOL0     H   93   4.512   7.271   4.722 -1.0697 -0.1011 -0.9665
    1MOL0     H   94   4.574   7.206   4.572  0.2175  1.3145 -0.8726
    1MOL0     H   95   4.639   7.632   4.497  4.9065  0.0148  1.7497
    1MOL0     H   96   4.597   7.844   4.438  0.0606  2.5660 -0.7709
    1MOL0     H   97   4.511   7.953   4.529 -0.1968  0.7534 -0.9025
    1MOL0     H   98   4.686   7.934   4.568  0.3734  0.1184 -2.7180
    1MOL0     H   99   4.596   8.168   4.929  2.1492 -0.2824  2.0150
    1MOL0     H  100   4.527   8.364   5.050 -3.0134  1.0404 -0.5390
    1MOL0     H  101   4.216   8.323   5.413  1.0403 -1.8906 -1.9540
    1MOL0     H  102   4.380   8.267   5.449 -1.6751 -2.5751 -0.0511
    1MOL0     H  103   4.416   8.540   5.398  0.2464  0.5496 -0.8553
    1MOL0     H  104   4.266   8.526   5.506  0.6950  1.2386 -1.3383
    1MOL0     H  105   4.391   8.390   5.664 -0.7162 -1.2561 -0.3194
    1MOL0     H  106   4.451   8.556   5.647 -1.2430  0.5969  0.3946
    1MOL0     H  107   4.577   8.326   5.501  0.4985  0.7594 -0.8983
    1MOL0     H  108   4.643   8.496   5.535 -2.0161  1.0519  0.0052
    1MOL0     H  109   4.607   8.266   5.738 -1.5017 -0.0967 -1.1499
    1MOL0     H  110   4.634   8.431   5.779 -0.8504  0.9250 -1.4810
    1MOL0     H  111   4.857   8.434   5.704  3.3578 -2.4766 -0.7373
    1MOL0     H  112   4.844   8.275   5.772  1.3180  1.5412  1.4557
    1MOL0     H  113   4.820   8.340   5.472  2.1711  1.6897  0.9084
    1MOL0     H  114   4.834   8.184   5.550 -0.5587 -0.7723  0.2474
    1MOL0     H  115   5.050   8.248   5.473 -1.3504  1.3113 -1.3100
    1MOL0     H  116   5.052   8.286   5.652  0.9951  0.6016 -0.3503
    1MOL0     H  117   4.253   8.141   5.285  0.6012  1.9121  1.0489
    1MOL0     H  118   4.299   7.938   5.158 -0.8641  1.5664  1.8419
    1MOL0     H  119   4.445   7.667   4.938 -2.7659 -2.9059 -0.1547
    1MOL0     H  120   4.493   7.456   4.851  0.0488  0.4483  0.8898
    1MOL0     H  121   5.717   6.700   4.257  2.1242  1.3801 -0.4992
    1MOL0     H  122   5.783   6.944   4.269  0.5845  0.4047  0.7189
    1MOL0     H  123   6.051   7.339   4.378  0.8234  1.3513 -0.6720
    1MOL0     H  124   6.047   7.566   4.360  0.9157 -1.9470  1.8694
    1MOL0     H  125   5.912   7.896   4.500  0.8339  0.6652 -0.3821
    1MOL0     H  126   6.023   7.763   4.496  1.6760  0.6189 -0.6043
    1MOL0     H  127   6.002   7.804   4.219  3.9448  3.5789 -3.1162
    1MOL0     H  128   6.120   7.887   4.306 -0.9683 -1.6402 -1.9071
    1MOL0     H  129   5.939   8.057   4.355 -0.2864 -0.3391  0.2288
    1MOL0     H  130   5.836   7.965   4.245 -0.6913  0.4575  1.6004
    1MOL0     H  131   5.935   8.161   4.125  0.7602 -0.6404 -1.9149
    1MOL0     H  132   5.991   8.013   4.066  0.8022 -2.5125  1.3059
    1MOL0     H  133   6.353   8.180   4.220 -1.1958  1.3220  1.4352
    1MOL0     H  134   5.629   7.581   4.467  2.1026  2.9122  0.3386
    1MOL0     H  135   5.616   7.336   4.462  0.0316  1.3476  0.0056
    2MOL0     O  136   3.718   5.968   4.489 -0.6095  0.0234 -0.8042
    2MOL0     C  137   3.610   6.010   4.536 -0.4590  0.7784  0.6039
    2MOL0     O  138   3.588   6.135   4.577  0.7248 -0.4171 -0.7124
    2MOL0     C  139   3.663   6.241   4.536 -0.0898  0.0988 -0.4710
    2MOL0     C  140   3.713   6.245   4.404  1.1765 -0.0287  0.0617
    2MOL0     C  141   3.818   6.323   4.367 -0.5311 -0.3395 -0.6295
    2MOL0     C  142   3.859   6.425   4.449  0.4185  0.3307  0.3176
    2MOL0     O  143   3.954   6.527   4.413  0.2052  0.1003 -0.0142
    2MOL0     C  144   3.947   6.572   4.273  0.2535  0.5459 -0.7407
    2MOL0     C  145   4.053   6.683   4.248  0.3173  1.1986 -0.3461
    2MOL0     C  146   4.074   6.740   4.108  0.1104  0.7046 -0.2906
    2MOL0     C  147   3.940   6.797   4.057  0.5418 -0.6013 -0.4944
    2MOL0     C  148   3.946   6.879   3.926 -0.5888 -0.2526  0.6549
    2MOL0     C  149   4.069   6.974   3.901 -0.4633 -0.2003  0.3271
    2MOL0     C  150   4.101   7.006   3.749  0.5893  0.5783  1.0704
    2MOL0     C  151   4.004   7.103   3.674  0.7526 -0.2468  0.8518
    2MOL0     N  152   3.993   7.234   3.738  0.3133 -0.4200  0.2206
    2MOL0     C  153   3.879   7.276   3.806 -1.1082  0.3682 -0.1897
    2MOL0     C  154   3.909   7.398   3.854 -0.3553  0.6551  0.0713
    2MOL0     C  155   3.824   7.470   3.953 -0.6456  0.2737 -0.3497
    2MOL0     C  156   3.835   7.396   4.096 -0.3200  0.0921 -0.3916
    2MOL0     C  157   3.773   7.478   4.213  0.4684 -0.2175 -0.8157
    2MOL0     C  158   3.800   7.407   4.342 -0.0963 -0.1415 -0.1741
    2MOL0     O  159   3.708   7.297   4.352 -0.6771 -0.4098 -0.0222
    2MOL0     C  160   3.743   7.218   4.463  0.2956  0.3578 -0.2899
    2MOL0     C  161   3.712   7.255   4.598  0.4907  0.0584  0.4164
    2MOL0     C  162   3.738   7.175   4.712  0.6224 -0.3794  0.5702
    2MOL0     C  163   3.713   7.236   4.851  0.7491 -0.6304 -0.1515
    2MOL0     C  164   3.806   7.055   4.680 -0.2420 -0.0193  1.2896
    2MOL0     C  165   3.850   6.959   4.779  0.3290  0.1659  0.4406
    2MOL0     O  166   3.874   6.836   4.731  0.9434 -0.2548  0.3578
    2MOL0     C  167   3.926   6.738   4.809 -1.0652 -1.2611 -0.9056
    2MOL0     C  168   3.859   6.688   4.920 -0.2744 -0.0221 -0.0473
    2MOL0     C  169   3.922   6.583   4.991 -0.4703  0.1978 -0.8661
    2MOL0     C  170   4.047   6.529   4.960  0.7075 -0.4272  0.2836
    2MOL0     O  171   4.108   6.435   5.040 -0.1941 -0.0822 -0.2994
    2MOL0     C  172   4.258   6.443   5.050  0.3146  0.2711  0.5691
    2MOL0     C  173   4.305   6.324   5.140 -1.0249 -0.6108 -0.1712
    2MOL0     C  174   4.276   6.351   5.292 -0.0843 -0.5952 -0.6174
    2MOL0     C  175   4.311   6.243   5.393  0.5689  0.2013 -0.3328
    2MOL0     C  176   4.238   6.249   5.537  0.0248  1.0428 -1.0487
    2MOL0     C  177   4.105   6.180   5.533 -0.6542 -0.2492  0.4331
    2MOL0     C  178   4.021   6.208   5.659 -0.9143 -0.4450 -0.8954
    2MOL0     C  179   3.913   6.099   5.688 -0.7022  0.3313  1.0493
    2MOL0    Cl  180   3.795   6.151   5.814  0.0770  0.2338 -0.0378
    2MOL0     C  181   4.098   6.570   4.833 -0.3358  0.7233  0.8421
    2MOL0     C  182   4.047   6.680   4.764 -0.4113  0.2574 -0.0829
    2MOL0     O  183   3.865   6.996   4.895  0.2221 -0.1236 -0.0008
    2MOL0     C  184   3.829   7.016   4.548 -0.5051 -0.1553 -0.9517
    2MOL0     C  185   3.795   7.099   4.446  0.1777  0.6154  0.2009
    2MOL0     N  186   4.045   7.414   3.822 -0.0707 -0.8109  0.2944
    2MOL0     N  187   4.100   7.317   3.757 -0.4139  0.7340 -0.2093
    2MOL0     C  188   3.821   6.429   4.578  0.3131  1.0891 -0.1842
    2MOL0     C  189   3.716   6.339   4.625  0.2227  0.1953  0.5120
    2MOL0     C  190   3.508   5.915   4.546 -0.6057  0.5362 -0.2194
    2MOL0     C  191   3.377   5.954   4.526 -0.1275  0.6403 -0.8364
    2MOL0     C  192   3.279   5.858   4.531  0.6517  0.2883  0.5431
    2MOL0     C  193   3.298   5.716   4.542  0.0657  0.0250  0.7702
    2MOL0     O  194   3.189   5.627   4.549  0.5988  0.1582  0.5441
    2MOL0     C  195   3.081   5.655   4.450  0.0534 -0.1644 -0.2562
    2MOL0     C  196   2.982   5.534   4.461  0.2170 -0.7431 -0.3633
    2MOL0     C  197   3.033   5.419   4.370 -0.2971 -0.0396 -0.2735
    2MOL0     C  198   2.929   5.313   4.346 -0.4125 -0.0189 -0.2179
    2MOL0     C  199   2.899   5.236   4.468 -0.0607  0.9331 -0.9629
    2MOL0     C  200   2.880   5.178   4.580 -0.2425 -0.8333  0.4332
    2MOL0     C  201   3.429   5.679   4.548 -0.4046  0.0964  0.5612
    2MOL0     C  202   3.532   5.776   4.567 -0.0420 -0.4609 -0.0414
    2MOL0     H  203   3.689   6.158   4.343  1.3168  0.4476 -0.6852
    2MOL0     H  204   3.865   6.299   4.272 -2.2267  0.2494 -1.6607
    2MOL0     H  205   3.962   6.489   4.204  0.5911 -0.5958  0.6618
    2MOL0     H  206   3.847   6.612   4.252 -0.7000 -1.3147  0.0648
    2MOL0     H  207   4.014   6.755   4.320  0.5338  1.1018 -0.1298
    2MOL0     H  208   4.149   6.646   4.287 -0.1999 -1.8138 -1.6549
    2MOL0     H  209   4.151   6.818   4.105  1.5644 -0.6293 -4.6527
    2MOL0     H  210   4.111   6.666   4.036 -1.0754  0.5178 -0.7284
    2MOL0     H  211   3.869   6.715   4.048  0.7653 -0.8165 -0.3212
    2MOL0     H  212   3.894   6.869   4.126  0.4186  0.4056 -1.6062
    2MOL0     H  213   3.945   6.810   3.841 -0.1295  0.6209 -0.0766
    2MOL0     H  214   3.858   6.943   3.920 -0.9232 -0.7272  0.3570
    2MOL0     H  215   4.059   7.071   3.951  2.6438 -1.0724  3.0221
    2MOL0     H  216   4.159   6.928   3.944  0.1460  1.3440  0.7841
    2MOL0     H  217   4.203   7.043   3.736  0.0182  1.8246 -0.1598
    2MOL0     H  218   4.092   6.907   3.704 -0.7280 -0.4287  3.4030
    2MOL0     H  219   3.900   7.067   3.674  0.5240  0.1332 -2.2656
    2MOL0     H  220   4.012   7.121   3.566 -1.4422 -6.3314 -0.7619
    2MOL0     H  221   3.798   7.208   3.830  0.2553 -2.3166 -2.5834
    2MOL0     H  222   3.849   7.576   3.968 -2.9789  0.8350 -0.0311
    2MOL0     H  223   3.718   7.466   3.924 -0.6738 -3.7349 -0.1558
    2MOL0     H  224   3.941   7.372   4.107 -0.4231 -0.2749 -0.2202
    2MOL0     H  225   3.793   7.298   4.075  2.8485 -1.4426 -0.0610
    2MOL0     H  226   3.670   7.510   4.196  0.9232  4.0025  2.6820
    2MOL0     H  227   3.827   7.573   4.215  3.1003 -1.5831 -1.8166
    2MOL0     H  228   3.785   7.477   4.425 -1.4011 -0.6710  0.0568
    2MOL0     H  229   3.903   7.375   4.360 -0.1823  0.7380  2.2144
    2MOL0     H  230   3.670   7.350   4.627  1.5468 -0.6181  4.7835
    2MOL0     H  231   3.652   7.174   4.917 -0.4144 -0.5935 -1.1385
    2MOL0     H  232   3.812   7.263   4.888  1.6053 -1.1622 -1.9087
    2MOL0     H  233   3.662   7.333   4.848  3.4961  0.8887 -1.2909
    2MOL0     H  234   3.766   6.732   4.955 -1.2417 -1.5566 -0.5635
    2MOL0     H  235   3.888   6.539   5.085  3.8880 -0.3555  0.6529
    2MOL0     H  236   4.291   6.424   4.947 -3.6324 -2.2578 -0.4778
    2MOL0     H  237   4.290   6.537   5.095 -0.7495  0.4847  0.9079
    2MOL0     H  238   4.251   6.235   5.105 -0.0064 -0.8562 -1.1551
    2MOL0     H  239   4.411   6.309   5.121 -1.0574  1.9986 -3.1655
    2MOL0     H  240   4.171   6.380   5.303  1.2214  4.0406  5.9655
    2MOL0     H  241   4.346   6.431   5.317  2.3363 -3.1556  1.4815
    2MOL0     H  242   4.288   6.145   5.352 -1.7883  0.0167  1.2370
    2MOL0     H  243   4.420   6.234   5.387  0.8881  2.7275  0.2334
    2MOL0     H  244   4.217   6.353   5.563 -0.7250  0.3552  1.3190
    2MOL0     H  245   4.299   6.196   5.611 -2.3658 -0.2062  0.1396
    2MOL0     H  246   4.048   6.210   5.445  0.8639 -0.9064 -0.8138
    2MOL0     H  247   4.115   6.071   5.524 -1.0361 -0.3047  0.6474
    2MOL0     H  248   3.968   6.303   5.647 -0.2598  0.2544  1.3556
    2MOL0     H  249   4.083   6.217   5.748  2.8400 -2.7483 -3.0059
    2MOL0     H  250   3.946   6.000   5.722  1.1599  0.5794  0.1076
    2MOL0     H  251   3.852   6.077   5.599 -3.2137  1.5264  2.3768
    2MOL0     H  252   4.174   6.510   4.784 -2.1400 -0.3273 -0.7862
    2MOL0     H  253   4.078   6.702   4.662  2.9636  0.3407  0.8229
    2MOL0     H  254   3.863   6.915   4.524 -0.0691  0.2754 -2.2524
    2MOL0     H  255   3.819   7.077   4.343 -0.2965 -2.0740  0.6085
    2MOL0     H  256   3.838   6.513   4.644 -6.2215  0.2892  3.3508
    2MOL0     H  257   3.689   6.350   4.730 -2.2105 -1.0277  0.1005
    2MOL0     H  258   3.346   6.055   4.503  1.1988  1.1682 -0.3836
    2MOL0     H  259   3.177   5.887   4.510  0.2585 -2.3877 -1.7690
    2MOL0     H  260   3.032   5.750   4.475  0.7939 -0.5438  3.2302
    2MOL0     H  261   3.119   5.661   4.348 -1.7153 -3.3345 -1.2073
    2MOL0     H  262   2.881   5.561   4.430 -1.2299 -1.8241  2.8904
    2MOL0     H  263   2.959   5.509   4.565  0.3785  1.7067  0.3292
    2MOL0     H  264   3.124   5.377   4.413 -1.9394 -0.2659  3.4401
    2MOL0     H  265   3.054   5.464   4.273 -3.1436  0.3764 -0.7997
    2MOL0     H  266   2.961   5.243   4.267  0.6354 -0.7902  0.8578
    2MOL0     H  267   2.829   5.346   4.317 -1.4003 -2.2681  0.4130
    2MOL0     H  268   2.867   5.115   4.666 -0.8568 -3.1269 -1.2298
    2MOL0     H  269   3.457   5.575   4.562  0.9121  0.4762  0.8897
    2MOL0     H  270   3.631   5.741   4.595  0.5554  2.5056  1.9991
    3MOL0     O  271   6.342   4.067   5.768 -0.1834  0.0790 -0.3025
    3MOL0     C  272   6.408   4.075   5.873 -0.3887 -0.8532  0.4073
    3MOL0     O  273   6.360   4.103   5.999 -0.2469 -0.0470  1.0315
    3MOL0     C  274   6.238   4.168   6.008  1.0051  0.3552 -0.1745
    3MOL0     C  275   6.163   4.146   6.124  0.2664 -0.8857  1.1393
    3MOL0     C  276   6.047   4.218   6.159  0.1567  0.4606 -0.8472
    3MOL0     C  277   5.996   4.311   6.068 -0.7541 -0.0697  0.4869
    3MOL0     O  278   5.886   4.383   6.087  0.1936 -0.2742  0.7155
    3MOL0     C  279   5.783   4.346   6.171 -0.3816  0.3105  0.9204
    3MOL0     C  280   5.662   4.432   6.138 -0.4142  0.5391  0.5923
    3MOL0     C  281   5.621   4.421   5.990 -0.4781  0.1673 -0.2256
    3MOL0     C  282   5.548   4.538   5.930  0.7566 -0.0225  0.0787
    3MOL0     C  283   5.491   4.505   5.787 -0.3845  0.2775  0.3755
    3MOL0     C  284   5.414   4.627   5.737  0.1826 -0.7911 -1.1495
    3MOL0     C  285   5.313   4.598   5.637  0.2506  0.2303  0.5647
    3MOL0     C  286   5.184   4.528   5.680  0.3257  0.1240  0.6934
    3MOL0     N  287   5.098   4.536   5.564  0.6560 -0.1063  0.0725
    3MOL0     C  288   5.016   4.645   5.537  0.0016  0.3152  0.5317
    3MOL0     C  289   4.924   4.596   5.449  0.0819 -0.1266 -0.4124
    3MOL0     C  290   4.825   4.683   5.383  0.5882  0.5410  0.6044
    3MOL0     C  291   4.687   4.611   5.376  0.7585  0.1444  0.1657
    3MOL0     C  292   4.600   4.705   5.286 -0.4067  0.2971 -1.3021
    3MOL0     C  293   4.466   4.647   5.256  0.0276 -0.4569  0.8631
    3MOL0     O  294   4.393   4.737   5.176  0.0668  0.3119  0.1848
    3MOL0     C  295   4.264   4.696   5.135 -1.3631 -0.9614 -0.6269
    3MOL0     C  296   4.226   4.578   5.090  0.6710  0.4451 -0.1209
    3MOL0     C  297   4.087   4.547   5.054  0.3993  0.9946 -0.8809
    3MOL0     C  298   4.059   4.403   5.013  0.4494 -0.0665  0.6521
    3MOL0     C  299   3.987   4.640   5.073  0.3628  0.7213  0.3280
    3MOL0     C  300   3.843   4.618   5.046  0.8470 -0.9703 -0.0767
    3MOL0     O  301   3.794   4.492   5.028  0.3026  0.1379  0.6896
    3MOL0     C  302   3.675   4.495   4.967  0.9172  0.1089 -0.8627
    3MOL0     C  303   3.561   4.504   5.052 -0.9378 -0.0413 -0.1886
    3MOL0     C  304   3.434   4.480   5.004 -0.5181 -0.4458  0.6204
    3MOL0     C  305   3.414   4.450   4.869  0.3776  0.0729  0.1443
    3MOL0     O  306   3.283   4.431   4.827  0.5354  0.1693  1.0058
    3MOL0     C  307   3.258   4.406   4.685  0.1570 -0.5134  0.1957
    3MOL0     C  308   3.118   4.432   4.674 -1.0551  0.7694 -0.6429
    3MOL0     C  309   3.065   4.403   4.534  0.4204  0.0311  0.6245
    3MOL0     C  310   2.925   4.447   4.545  0.1879 -0.2952  0.5071
    3MOL0     C  311   2.843   4.390   4.429  0.1756 -0.8580 -0.6546
    3MOL0     C  312   2.847   4.237   4.423 -0.5118 -0.9371  0.1840
    3MOL0     C  313   2.809   4.194   4.275  0.2786  0.3581  1.0646
    3MOL0     C  314   2.662   4.185   4.240  0.3054 -0.2995  0.1425
    3MOL0    Cl  315   2.570   4.350   4.243  0.0632  0.3865 -0.1049
    3MOL0     C  316   3.526   4.441   4.779 -0.3874 -0.0960 -0.0922
    3MOL0     C  317   3.658   4.461   4.839  1.4029 -0.4444  0.5043
    3MOL0     O  318   3.772   4.717   5.042  0.8540 -1.2271  0.7134
    3MOL0     C  319   4.025   4.764   5.122 -0.4540 -0.3448  0.6563
    3MOL0     C  320   4.166   4.794   5.146 -0.4123 -1.0412  0.0675
    3MOL0     N  321   4.963   4.463   5.421  0.1048  0.4548  0.4165
    3MOL0     N  322   5.061   4.436   5.491  0.7802 -0.8813 -0.0312
    3MOL0     C  323   6.069   4.338   5.960  0.1753  1.1551  1.4011
    3MOL0     C  324   6.184   4.271   5.927 -0.6548 -0.1889 -0.0637
    3MOL0     C  325   6.554   4.054   5.867  0.9577 -0.5270  0.6095
    3MOL0     C  326   6.629   4.036   5.989  0.0158  0.2774  0.5750
    3MOL0     C  327   6.762   3.999   5.990  0.5982  1.0382 -0.0436
    3MOL0     C  328   6.830   3.990   5.862  0.1932  0.7123 -0.6129
    3MOL0     O  329   6.966   3.977   5.872  0.0237  0.1114 -0.3933
    3MOL0     C  330   7.045   3.951   5.753 -0.1454 -0.9721  0.7649
    3MOL0     C  331   7.006   3.812   5.690 -0.2288 -0.1386  0.7745
    3MOL0     C  332   7.043   3.693   5.771  1.3137  0.1658 -0.3059
    3MOL0     C  333   7.184   3.684   5.822  0.0740 -0.1087 -0.2623
    3MOL0     C  334   7.214   3.543   5.847 -0.4746 -0.3839  0.1987
    3MOL0     C  335   7.215   3.423   5.854 -0.5874  0.0962  0.7663
    3MOL0     C  336   6.760   4.024   5.745  0.7604 -0.5557 -0.0510
    3MOL0     C  337   6.624   4.041   5.747  0.3413 -0.2103 -0.3968
    3MOL0     H  338   6.202   4.072   6.193  0.1816 -0.1843  1.9521
    3MOL0     H  339   5.993   4.196   6.251  0.6479  2.2671 -0.1001
    3MOL0     H  340   5.758   4.240   6.171 -1.9820  0.6589  0.1831
    3MOL0     H  341   5.802   4.371   6.276  0.5509 -1.6870  1.2649
    3MOL0     H  342   5.581   4.388   6.197  1.5683 -0.3654  2.8060
    3MOL0     H  343   5.686   4.534   6.168  1.4158 -0.1848  1.7022
    3MOL0     H  344   5.706   4.406   5.923 -1.5165 -1.4656 -1.2371
    3MOL0     H  345   5.562   4.329   5.983 -0.3437 -0.4783  4.1838
    3MOL0     H  346   5.467   4.565   5.999  0.4034 -2.7173  0.8182
    3MOL0     H  347   5.617   4.624   5.935 -0.8339  1.3681 -0.9883
    3MOL0     H  348   5.578   4.477   5.727 -1.4794  0.6586 -1.4844
    3MOL0     H  349   5.424   4.419   5.794  0.4978 -0.3392  1.6241
    3MOL0     H  350   5.351   4.667   5.817 -2.3528 -2.9172 -1.9346
    3MOL0     H  351   5.471   4.713   5.700 -0.1518  0.4473  1.0476
    3MOL0     H  352   5.286   4.695   5.594  0.5148  0.5211  1.0442
    3MOL0     H  353   5.349   4.534   5.556 -2.4069  0.0752 -0.5760
    3MOL0     H  354   5.138   4.574   5.768 -1.3342  1.3421 -0.7364
    3MOL0     H  355   5.192   4.421   5.702 -0.9996 -0.9047 -3.0770
    3MOL0     H  356   5.011   4.747   5.577 -0.0035  0.1662  0.9197
    3MOL0     H  357   4.811   4.776   5.441 -0.5726  0.7189  0.0592
    3MOL0     H  358   4.860   4.702   5.281 -0.0306  4.1838  0.9249
    3MOL0     H  359   4.645   4.589   5.475 -1.0051  1.1669 -0.3132
    3MOL0     H  360   4.678   4.511   5.333 -0.6491  0.0884  0.5249
    3MOL0     H  361   4.652   4.724   5.192  1.4916 -1.9318 -0.8038
    3MOL0     H  362   4.568   4.784   5.355  1.2863 -1.4472  1.7390
    3MOL0     H  363   4.415   4.624   5.350  0.1674 -2.4833  0.4933
    3MOL0     H  364   4.486   4.557   5.197 -1.7494 -0.9396  0.9467
    3MOL0     H  365   4.297   4.495   5.087 -1.0938 -1.1331  0.4438
    3MOL0     H  366   4.012   4.344   5.093  0.4751 -0.4352  0.3977
    3MOL0     H  367   3.986   4.392   4.932  0.8513  0.2257  0.2478
    3MOL0     H  368   4.152   4.359   4.976 -0.5274 -1.8566  0.1923
    3MOL0     H  369   3.572   4.523   5.159  1.7221  0.4474 -0.4888
    3MOL0     H  370   3.345   4.489   5.066 -1.7296  1.1415 -1.2170
    3MOL0     H  371   3.321   4.475   4.629  1.0315 -0.9248  0.6628
    3MOL0     H  372   3.290   4.306   4.655 -0.6893 -1.2470  1.6281
    3MOL0     H  373   3.085   4.355   4.744  1.8083 -0.4305 -0.5116
    3MOL0     H  374   3.096   4.532   4.714 -0.7175  0.0335  1.4965
    3MOL0     H  375   3.079   4.295   4.527 -2.8419 -0.5940  2.0934
    3MOL0     H  376   3.116   4.463   4.457 -0.1224  0.2457  0.4287
    3MOL0     H  377   2.883   4.431   4.645 -4.6700  5.8432  0.0543
    3MOL0     H  378   2.931   4.556   4.541  2.9611 -0.3878  0.2308
    3MOL0     H  379   2.884   4.413   4.330 -0.3480 -2.4052 -1.2651
    3MOL0     H  380   2.743   4.433   4.434  0.0067 -1.4145  2.1304
    3MOL0     H  381   2.949   4.199   4.438  0.1573  1.0401  0.9574
    3MOL0     H  382   2.778   4.198   4.497 -0.2620 -1.8078 -0.0274
    3MOL0     H  383   2.844   4.091   4.261  3.4609  1.4422  0.1956
    3MOL0     H  384   2.866   4.247   4.198 -0.9413 -0.1948 -0.2464
    3MOL0     H  385   2.630   4.118   4.320 -0.3766 -1.0577 -0.7505
    3MOL0     H  386   2.647   4.140   4.141  0.2235  2.1485 -1.0379
    3MOL0     H  387   3.510   4.414   4.675  2.8474 -0.2743 -0.6468
    3MOL0     H  388   3.746   4.446   4.777  1.8794 -1.4987  1.4006
    3MOL0     H  389   3.952   4.844   5.117 -0.2549 -0.2416 -1.7089
    3MOL0     H  390   4.176   4.895   5.185 -1.7356 -1.7544  2.5119
    3MOL0     H  391   6.029   4.407   5.886 -1.7032  0.0966  1.3776
    3MOL0     H  392   6.237   4.308   5.840  1.8087  1.0841  1.8672
    3MOL0     H  393   6.577   4.040   6.084 -0.6730 -0.3643  0.2382
    3MOL0     H  394   6.800   3.981   6.090 -4.3519  0.6364  2.0207
    3MOL0     H  395   7.027   4.034   5.684  2.1346  1.2209  2.6160
    3MOL0     H  396   7.150   3.966   5.779  0.1849 -2.3169  0.2385
    3MOL0     H  397   7.048   3.817   5.589 -0.3312  1.9487  0.7920
    3MOL0     H  398   6.900   3.809   5.667  0.6661 -1.5538 -4.6437
    3MOL0     H  399   7.019   3.615   5.698 -2.2478  0.3374  0.4691
    3MOL0     H  400   6.980   3.699   5.861  2.3240 -0.6198  0.4780
    3MOL0     H  401   7.195   3.744   5.913 -3.1503 -1.3001  1.0544
    3MOL0     H  402   7.251   3.718   5.742  0.0023 -0.5302 -0.5044
    3MOL0     H  403   7.226   3.319   5.876  2.9763  0.0255 -0.7306
    3MOL0     H  404   6.812   4.039   5.651  0.2826 -1.0258 -0.3956
    3MOL0     H  405   6.579   4.052   5.649  0.9019  0.1738 -0.6213
    4MOL0     O  406   7.140   6.406   8.629  0.0134  0.6109 -0.4019
    4MOL0     C  407   7.162   6.512   8.686  0.2284 -0.4361 -0.4771
    4MOL0     O  408   7.270   6.586   8.678 -0.8933 -0.2431 -0.4767
    4MOL0     C  409   7.380   6.570   8.603 -0.6120  0.5970  0.8874
    4MOL0     C  410   7.413   6.480   8.500  0.6861  1.5908 -0.3624
    4MOL0     C  411   7.538   6.482   8.437  0.6972 -0.2062 -0.5224
    4MOL0     C  412   7.632   6.572   8.473  0.1856 -1.0756 -0.4279
    4MOL0     O  413   7.751   6.581   8.421  0.1735 -0.2555  0.0752
    4MOL0     C  414   7.801   6.491   8.322 -0.2890 -0.8485  0.2253
    4MOL0     C  415   7.867   6.370   8.384  0.2780 -0.2598  0.3210
    4MOL0     C  416   7.981   6.394   8.481  0.3988  0.4487 -0.2099
    4MOL0     C  417   8.059   6.264   8.501  0.0047 -0.7697  0.6401
    4MOL0     C  418   8.137   6.288   8.630  1.3030  0.3351  0.0320
    4MOL0     C  419   8.219   6.171   8.684  0.8702 -0.7294  0.6799
    4MOL0     C  420   8.236   6.179   8.834  0.1094  0.6356  0.3497
    4MOL0     C  421   8.344   6.084   8.888 -0.5592  1.1124 -0.2485
    4MOL0     N  422   8.328   5.942   8.842 -0.2319 -0.4871  0.3838
    4MOL0     C  423   8.383   5.892   8.731 -0.7633 -0.0092  0.2724
    4MOL0     C  424   8.352   5.760   8.732  1.3516  0.1562 -0.6137
    4MOL0     C  425   8.394   5.671   8.626 -0.3430  0.7792  0.5009
    4MOL0     C  426   8.423   5.532   8.680 -0.0882 -0.0587 -0.4184
    4MOL0     C  427   8.503   5.452   8.579  0.1302 -0.3334 -0.7107
    4MOL0     C  428   8.450   5.310   8.573  0.1637 -0.3220  0.9905
    4MOL0     O  429   8.533   5.221   8.488 -0.3536 -0.6332 -0.4987
    4MOL0     C  430   8.486   5.107   8.450 -1.2736  1.1527  0.1068
    4MOL0     C  431   8.560   5.039   8.352  0.0420 -0.2132  1.2177
    4MOL0     C  432   8.502   4.923   8.294 -0.4505 -0.1373  1.0693
    4MOL0     C  433   8.557   4.890   8.157 -0.2343 -1.2073  1.0563
    4MOL0     C  434   8.392   4.854   8.350 -0.0079  0.7761  0.2871
    4MOL0     C  435   8.343   4.721   8.302 -0.4677 -0.9680 -0.0886
    4MOL0     O  436   8.434   4.646   8.244  0.0571  0.4510  0.0443
    4MOL0     C  437   8.409   4.534   8.154  0.5861  0.3413 -0.2184
    4MOL0     C  438   8.519   4.465   8.126 -0.7079 -0.3238 -0.7813
    4MOL0     C  439   8.519   4.361   8.040  1.0510 -0.7690  0.6602
    4MOL0     C  440   8.395   4.325   7.978  0.3311 -0.0940 -0.0447
    4MOL0     O  441   8.376   4.212   7.900  0.2565  0.3445  0.0120
    4MOL0     C  442   8.445   4.089   7.947  1.2179 -0.6768  1.1711
    4MOL0     C  443   8.343   3.971   7.921 -0.6609  0.5122 -0.3603
    4MOL0     C  444   8.387   3.838   7.991 -0.5424  0.5771 -0.7136
    4MOL0     C  445   8.287   3.725   7.982  0.0792 -0.2519  0.3388
    4MOL0     C  446   8.144   3.750   8.040 -0.7001  0.4641 -0.2296
    4MOL0     C  447   8.084   3.611   8.082  0.2228  0.4911  0.9188
    4MOL0     C  448   7.932   3.629   8.109 -0.4126 -0.6807  0.5168
    4MOL0     C  449   7.845   3.514   8.154 -0.4134  0.0331 -0.1813
    4MOL0    Cl  450   7.789   3.407   8.021  0.1413  0.3331  0.7269
    4MOL0     C  451   8.282   4.403   8.012 -0.3162  0.6571  0.0885
    4MOL0     C  452   8.285   4.509   8.101 -0.7541  0.3625  0.5791
    4MOL0     O  453   8.230   4.680   8.339 -0.5446  0.5393 -0.9536
    4MOL0     C  454   8.325   4.913   8.458  0.2237 -0.4175 -0.0495
    4MOL0     C  455   8.366   5.050   8.498 -0.1045  0.7584 -0.6195
    4MOL0     N  456   8.290   5.739   8.859  0.3271  0.5246 -0.4410
    4MOL0     N  457   8.281   5.840   8.924 -0.1918 -0.7661 -0.3350
    4MOL0     C  458   7.596   6.675   8.559  0.8862 -0.1849  0.3731
    4MOL0     C  459   7.470   6.675   8.617  0.1730  1.2208 -0.0178
    4MOL0     C  460   7.046   6.579   8.759  0.2291  0.2891 -0.5844
    4MOL0     C  461   6.911   6.528   8.749 -0.3755  0.2472 -0.4402
    4MOL0     C  462   6.812   6.580   8.831  0.6673  0.6460 -0.2382
    4MOL0     C  463   6.836   6.679   8.921  0.0587  0.0547 -0.0112
    4MOL0     O  464   6.731   6.725   8.997 -0.3997  0.0325 -0.2267
    4MOL0     C  465   6.749   6.735   9.143  0.1157 -0.2604  0.9202
    4MOL0     C  466   6.615   6.750   9.205  0.2724 -0.4807  0.8449
    4MOL0     C  467   6.514   6.661   9.146 -0.5175  0.5696  0.8798
    4MOL0     C  468   6.538   6.500   9.149 -1.2998 -0.7008 -0.6728
    4MOL0     C  469   6.516   6.456   9.288 -0.0203  0.7205 -0.2161
    4MOL0     C  470   6.511   6.405   9.394 -0.1278 -0.0996  0.2003
    4MOL0     C  471   6.964   6.738   8.919  0.6799 -0.2159 -0.5201
    4MOL0     C  472   7.075   6.679   8.850  0.8823 -0.6062  0.1946
    4MOL0     H  473   7.340   6.402   8.481 -3.0257  3.8980  2.7720
    4MOL0     H  474   7.563   6.398   8.372  0.5141  0.3808 -1.3554
    4MOL0     H  475   7.723   6.459   8.252 -0.0487 -1.2925  0.1576
    4MOL0     H  476   7.876   6.548   8.267 -1.3073 -1.0050 -1.3893
    4MOL0     H  477   7.792   6.305   8.429  1.0497 -0.5279  1.2594
    4MOL0     H  478   7.905   6.304   8.305  2.2488 -1.6612  2.3087
    4MOL0     H  479   8.045   6.476   8.448  0.7901  0.0923 -0.3355
    4MOL0     H  480   7.935   6.424   8.576 -1.9281 -0.0693 -1.0964
    4MOL0     H  481   7.984   6.185   8.508 -0.3080 -0.5029  0.3235
    4MOL0     H  482   8.123   6.238   8.417  2.4176  1.8759  1.4749
    4MOL0     H  483   8.194   6.379   8.616 -1.0688  1.6419 -1.8682
    4MOL0     H  484   8.057   6.309   8.702  1.7167  0.7074  0.3839
    4MOL0     H  485   8.169   6.077   8.659 -0.6942  0.4313 -0.8562
    4MOL0     H  486   8.319   6.174   8.640  1.0194 -0.9283  0.9989
    4MOL0     H  487   8.268   6.280   8.861  2.1503  0.0481  0.2784
    4MOL0     H  488   8.139   6.147   8.873 -0.3184 -3.0621 -3.0868
    4MOL0     H  489   8.334   6.087   8.997  0.7749 -0.0233 -0.0765
    4MOL0     H  490   8.446   6.118   8.870  0.4159 -1.3342  0.2094
    4MOL0     H  491   8.418   5.945   8.643 -0.5355  4.1821  2.6079
    4MOL0     H  492   8.325   5.662   8.541  0.6959 -0.6586 -0.2413
    4MOL0     H  493   8.484   5.712   8.580 -0.4149 -2.3326 -2.8981
    4MOL0     H  494   8.319   5.499   8.690 -1.2038  2.7038 -1.7380
    4MOL0     H  495   8.486   5.537   8.769  1.1960  1.6736 -1.3581
    4MOL0     H  496   8.611   5.442   8.595 -0.4503 -2.5075  2.9092
    4MOL0     H  497   8.485   5.502   8.483  0.9460  0.3736 -0.5117
    4MOL0     H  498   8.348   5.308   8.534  0.1919  1.2195  0.7876
    4MOL0     H  499   8.441   5.267   8.673 -2.6984 -1.6860  0.2370
    4MOL0     H  500   8.653   5.076   8.310 -1.5049  4.7748  1.5163
    4MOL0     H  501   8.482   4.838   8.095 -2.4779  2.2767  0.5410
    4MOL0     H  502   8.591   4.980   8.106 -1.5832 -0.0865  2.0698
    4MOL0     H  503   8.643   4.824   8.170 -0.0843 -1.4649 -0.8479
    4MOL0     H  504   8.617   4.490   8.167 -1.2466 -0.4326  0.6201
    4MOL0     H  505   8.613   4.309   8.021  0.5903 -1.7445  0.9587
    4MOL0     H  506   8.547   4.081   7.909  0.9606  1.4289 -0.1202
    4MOL0     H  507   8.458   4.106   8.054 -1.5502 -2.1902  1.8594
    4MOL0     H  508   8.239   4.000   7.939 -1.4359 -0.3226 -2.9406
    4MOL0     H  509   8.341   3.943   7.815  1.3057 -1.2699  0.0007
    4MOL0     H  510   8.401   3.857   8.098 -1.0048  0.2400 -0.5894
    4MOL0     H  511   8.485   3.809   7.953  0.0035  0.7105  0.5457
    4MOL0     H  512   8.286   3.696   7.877  0.8334  2.0977 -0.3844
    4MOL0     H  513   8.323   3.645   8.047 -3.3168 -1.9037  0.4053
    4MOL0     H  514   8.088   3.809   7.967  0.0169  4.9990  2.4622
    4MOL0     H  515   8.157   3.798   8.138 -3.6563 -1.4199  1.2197
    4MOL0     H  516   8.108   3.540   8.003 -1.5570  0.6221  0.2315
    4MOL0     H  517   8.134   3.588   8.176  3.4173  0.1146 -0.7198
    4MOL0     H  518   7.894   3.665   8.012 -0.6760  0.3025  0.9660
    4MOL0     H  519   7.917   3.709   8.182 -4.2326 -0.8204  0.1127
    4MOL0     H  520   7.752   3.563   8.185 -1.1502 -1.1165 -0.5327
    4MOL0     H  521   7.894   3.450   8.227 -0.0775 -2.2728 -2.3296
    4MOL0     H  522   8.184   4.371   7.978 -0.7795 -1.5184  3.0034
    4MOL0     H  523   8.194   4.566   8.116 -0.4444  0.3602  2.8259
    4MOL0     H  524   8.241   4.857   8.498 -0.7921 -1.1381 -2.9325
    4MOL0     H  525   8.332   5.102   8.587  0.0649  0.9108 -0.6423
    4MOL0     H  526   7.662   6.761   8.573 -1.3391  1.8150 -0.6338
    4MOL0     H  527   7.432   6.762   8.671  0.9830  3.8548 -3.3411
    4MOL0     H  528   6.892   6.447   8.679 -0.9963 -1.7605  1.9246
    4MOL0     H  529   6.714   6.534   8.832  2.2913 -3.2800  1.5736
    4MOL0     H  530   6.798   6.644   9.177  4.0515  0.2034 -2.7284
    4MOL0     H  531   6.818   6.817   9.168 -0.8662  0.2970  1.9359
    4MOL0     H  532   6.584   6.854   9.190  0.8518 -0.5245 -0.9639
    4MOL0     H  533   6.628   6.739   9.313  1.5054 -1.5000  0.6129
    4MOL0     H  534   6.499   6.712   9.050  1.5570 -0.5253 -0.1169
    4MOL0     H  535   6.419   6.681   9.195 -1.0995 -0.6058  0.2967
    4MOL0     H  536   6.642   6.478   9.121 -0.3909  1.2673  0.9279
    4MOL0     H  537   6.475   6.457   9.071  0.4202 -0.9374 -1.9900
    4MOL0     H  538   6.496   6.350   9.485 -2.0293 -0.7702 -0.4794
    4MOL0     H  539   6.987   6.829   8.973 -1.8390  1.7962 -2.5636
    4MOL0     H  540   7.175   6.715   8.870  0.8911 -1.7431  2.6671
    5MOL0     O  541   7.025  10.771   3.305  0.0416  0.5073  0.4359
    5MOL0     C  542   7.008  10.759   3.182 -0.8369  0.0637  0.6708
    5MOL0     O  543   7.101  10.688   3.104 -0.5414 -0.5603 -0.0972
    5MOL0     C  544   7.211  10.623   3.159  0.8478  0.4159 -0.9526
    5MOL0     C  545   7.194  10.550   3.281 -0.3769 -1.1516 -0.9709
    5MOL0     C  546   7.302  10.468   3.312 -0.8090  0.2630  0.6320
    5MOL0     C  547   7.425  10.456   3.236 -0.2851 -0.0391 -0.0933
    5MOL0     O  548   7.518  10.362   3.276  0.4691  0.2088 -0.3974
    5MOL0     C  549   7.652  10.389   3.235 -0.7385 -0.3870  0.6320
    5MOL0     C  550   7.741  10.276   3.297 -1.6599  0.1309 -0.4593
    5MOL0     C  551   7.783  10.298   3.437 -0.0274 -0.0547 -0.6855
    5MOL0     C  552   7.669  10.283   3.534  0.4224  0.2144 -0.0321
    5MOL0     C  553   7.727  10.256   3.676  0.5193 -0.7162 -0.6300
    5MOL0     C  554   7.624  10.232   3.785  0.1296 -0.1663 -0.6104
    5MOL0     C  555   7.684  10.190   3.924  0.5994 -0.0242  0.2726
    5MOL0     C  556   7.581  10.184   4.043  0.0172 -0.2734 -0.3707
    5MOL0     N  557   7.532  10.040   4.079  0.3704 -0.6360  0.0736
    5MOL0     C  558   7.608   9.935   4.133 -0.3107 -0.0642  0.4385
    5MOL0     C  559   7.517   9.834   4.129 -0.3241  0.3125  0.4314
    5MOL0     C  560   7.531   9.704   4.208 -0.9013  0.2004 -0.4460
    5MOL0     C  561   7.662   9.623   4.164 -0.2525  0.3073 -0.1062
    5MOL0     C  562   7.773   9.656   4.266 -0.2654 -0.0204  0.0118
    5MOL0     C  563   7.899   9.577   4.250 -0.2392 -0.4287 -0.5967
    5MOL0     O  564   7.893   9.446   4.288 -1.0859 -0.2312  0.6212
    5MOL0     C  565   8.008   9.371   4.253  0.4472  0.1181 -0.0915
    5MOL0     C  566   7.991   9.234   4.277 -0.7218  0.6951 -1.0390
    5MOL0     C  567   8.083   9.132   4.241  0.4539  0.2622 -0.2056
    5MOL0     C  568   8.062   8.986   4.279 -0.4943 -0.1448 -0.0304
    5MOL0     C  569   8.211   9.180   4.181  0.6148  0.8359 -0.3318
    5MOL0     C  570   8.320   9.083   4.131 -0.2658  0.2055  0.1708
    5MOL0     O  571   8.374   9.126   4.019  0.6231  0.2129  0.7374
    5MOL0     C  572   8.486   9.057   3.969 -0.6091 -0.8836 -0.8308
    5MOL0     C  573   8.592   8.991   4.039  0.6083  0.1712 -0.1693
    5MOL0     C  574   8.696   8.921   3.974 -0.2107  0.4649  0.4497
    5MOL0     C  575   8.692   8.913   3.833  0.4744  0.2706  0.5750
    5MOL0     O  576   8.772   8.826   3.760  0.2857  0.3507 -0.2858
    5MOL0     C  577   8.852   8.723   3.821  0.8296 -0.7216 -0.2774
    5MOL0     C  578   8.906   8.621   3.720  0.0984  0.1644  0.0135
    5MOL0     C  579   8.997   8.518   3.789 -0.5859  0.7633 -0.8070
    5MOL0     C  580   9.144   8.566   3.797  0.2612  0.2723 -0.5044
    5MOL0     C  581   9.239   8.459   3.838  0.2777 -0.0241 -0.5839
    5MOL0     C  582   9.285   8.375   3.719 -0.3044 -0.2691 -0.7289
    5MOL0     C  583   9.389   8.271   3.764  0.1320  0.8345 -0.1996
    5MOL0     C  584   9.458   8.208   3.653  0.0821  0.3373  0.5511
    5MOL0    Cl  585   9.594   8.095   3.687 -0.0442  0.2167 -0.1271
    5MOL0     C  586   8.592   8.980   3.772  0.6502  1.1569  0.2870
    5MOL0     C  587   8.496   9.057   3.835  0.1728 -0.0411 -0.2428
    5MOL0     O  588   8.356   8.980   4.190  1.0051 -0.0898  0.3156
    5MOL0     C  589   8.226   9.315   4.159 -0.5398 -0.0562 -0.2931
    5MOL0     C  590   8.127   9.406   4.185  0.1851  0.3960  0.3684
    5MOL0     N  591   7.404   9.874   4.062  0.0289 -0.5640  0.3053
    5MOL0     N  592   7.408  10.001   4.036 -0.0546 -0.6348  0.3273
    5MOL0     C  593   7.430  10.526   3.120  0.4378  0.7417  0.6858
    5MOL0     C  594   7.316  10.595   3.070 -0.0139 -0.2214 -0.3485
    5MOL0     C  595   6.904  10.837   3.111  0.9314 -0.1740 -0.8984
    5MOL0     C  596   6.905  10.849   2.973 -0.6311  1.1630  0.3025
    5MOL0     C  597   6.802  10.925   2.905  0.4828  0.4473  0.0209
    5MOL0     C  598   6.703  10.996   2.978  0.0897  0.5611  0.8083
    5MOL0     O  599   6.610  11.076   2.916 -0.0579  0.1530  0.3422
    5MOL0     C  600   6.483  11.093   2.968  0.1735 -0.3072  0.1839
    5MOL0     C  601   6.380  11.121   2.848 -0.4586  0.1657 -0.4191
    5MOL0     C  602   6.422  11.071   2.707  0.1091 -0.1856 -0.4221
    5MOL0     C  603   6.349  11.128   2.586 -0.3557  0.5428 -0.0608
    5MOL0     C  604   6.396  11.264   2.562  0.2201  0.0917  0.4320
    5MOL0     C  605   6.437  11.374   2.546 -0.0541  0.6471  0.5931
    5MOL0     C  606   6.717  10.990   3.115 -0.7888  0.5104 -0.5897
    5MOL0     C  607   6.807  10.906   3.183  0.0016 -0.6499 -1.2308
    5MOL0     H  608   7.102  10.536   3.337  1.8667  0.6531  3.6428
    5MOL0     H  609   7.282  10.402   3.397 -4.0002  0.1981 -0.0438
    5MOL0     H  610   7.655  10.384   3.125 -3.3317 -3.5664  0.5636
    5MOL0     H  611   7.686  10.484   3.278 -0.6994 -1.0011  1.9839
    5MOL0     H  612   7.699  10.177   3.278 -1.1869 -0.5950  1.8835
    5MOL0     H  613   7.836  10.279   3.242 -0.2386 -4.3863  1.2769
    5MOL0     H  614   7.860  10.223   3.458 -0.3745 -0.6220 -1.4063
    5MOL0     H  615   7.828  10.396   3.454  1.5802 -1.1752  2.3551
    5MOL0     H  616   7.605  10.371   3.531 -0.2098 -0.2620 -2.9008
    5MOL0     H  617   7.608  10.196   3.509  0.7421  0.5565 -2.1619
    5MOL0     H  618   7.793  10.169   3.663  0.2165 -1.4276  1.9204
    5MOL0     H  619   7.782  10.347   3.701 -2.2835  0.4436  1.8817
    5MOL0     H  620   7.569  10.326   3.803 -0.9674  0.7169 -6.4226
    5MOL0     H  621   7.554  10.153   3.757  2.9108 -1.8425 -3.4683
    5MOL0     H  622   7.729  10.090   3.918  1.0647  0.2618 -1.6415
    5MOL0     H  623   7.770  10.254   3.943  1.1114 -0.2603 -1.1227
    5MOL0     H  624   7.492  10.238   4.011 -0.7827 -0.2456  1.7578
    5MOL0     H  625   7.629  10.224   4.133  1.5274 -0.0162 -1.2423
    5MOL0     H  626   7.712   9.924   4.163 -0.3679 -3.0610 -0.1566
    5MOL0     H  627   7.527   9.707   4.317 -1.4023  0.0903 -0.4556
    5MOL0     H  628   7.446   9.643   4.176 -0.8611  0.1485 -0.4536
    5MOL0     H  629   7.702   9.647   4.065  1.5933 -1.7039  0.0868
    5MOL0     H  630   7.642   9.515   4.165 -1.2424  0.3679  3.9433
    5MOL0     H  631   7.746   9.631   4.369 -0.0559 -0.6727 -0.0886
    5MOL0     H  632   7.806   9.760   4.262 -1.4271  0.3805  0.4528
    5MOL0     H  633   7.975   9.630   4.308 -2.2150 -0.7601  2.5428
    5MOL0     H  634   7.912   9.589   4.142  0.5683 -2.9026 -0.8442
    5MOL0     H  635   7.903   9.196   4.327 -1.1853  2.0692 -0.7540
    5MOL0     H  636   7.954   8.969   4.291 -0.6175 -0.2910 -1.2155
    5MOL0     H  637   8.077   8.938   4.182 -2.2927 -0.2353 -0.2950
    5MOL0     H  638   8.129   8.947   4.356 -1.1846  2.3662  1.9989
    5MOL0     H  639   8.600   8.981   4.146  4.4021 -2.1016 -0.4757
    5MOL0     H  640   8.776   8.868   4.024  1.0265  2.0262  0.2173
    5MOL0     H  641   8.928   8.778   3.878 -0.5915  2.0194 -0.8759
    5MOL0     H  642   8.784   8.660   3.879  0.0965 -1.6082 -2.0122
    5MOL0     H  643   8.828   8.559   3.673 -3.1622 -0.1619  5.0740
    5MOL0     H  644   8.965   8.674   3.645  4.0793 -1.0672  2.0238
    5MOL0     H  645   8.989   8.419   3.744  0.3889  0.6632 -0.7804
    5MOL0     H  646   8.967   8.501   3.893  0.2002 -0.4348 -0.7589
    5MOL0     H  647   9.173   8.604   3.698 -0.2796  0.8031 -0.4613
    5MOL0     H  648   9.158   8.649   3.866 -2.4384  0.3888  0.0084
    5MOL0     H  649   9.185   8.400   3.912 -1.4799 -1.0535 -2.5695
    5MOL0     H  650   9.328   8.510   3.877 -0.1522  0.5033 -0.2723
    5MOL0     H  651   9.198   8.336   3.665 -1.2541  1.1142 -0.2436
    5MOL0     H  652   9.342   8.437   3.649 -1.9429  1.7671 -0.3329
    5MOL0     H  653   9.340   8.189   3.817 -0.2953 -0.1545 -2.0343
    5MOL0     H  654   9.461   8.321   3.829  0.7873  2.3378 -1.9991
    5MOL0     H  655   9.489   8.285   3.582  0.4434  1.1834  1.6048
    5MOL0     H  656   9.390   8.143   3.598  0.2315  1.8653 -1.5404
    5MOL0     H  657   8.571   8.967   3.666 -1.7874 -0.4725  0.8822
    5MOL0     H  658   8.429   9.108   3.767  2.2979  3.0526 -0.2142
    5MOL0     H  659   8.321   9.337   4.110  1.7100 -0.6471  3.3881
    5MOL0     H  660   8.160   9.507   4.166  2.8879 -0.4545  0.2382
    5MOL0     H  661   7.504  10.510   3.043  0.4232 -0.0205  0.8212
    5MOL0     H  662   7.314  10.641   2.972 -3.2073  4.3563  1.4749
    5MOL0     H  663   6.972  10.779   2.923  1.1416  0.9682  2.7249
    5MOL0     H  664   6.812  10.927   2.797  3.9087  3.2308  0.2046
    5MOL0     H  665   6.457  11.000   3.018  0.0043  0.1817  1.0183
    5MOL0     H  666   6.483  11.178   3.037  5.0178 -0.1056  0.3002
    5MOL0     H  667   6.384  11.230   2.846 -0.6152  0.1917  0.3963
    5MOL0     H  668   6.275  11.098   2.873 -0.7811  1.3053 -0.6914
    5MOL0     H  669   6.427  10.962   2.716  0.6293  0.0012  2.5792
    5MOL0     H  670   6.525  11.103   2.685  0.3706 -1.5261 -1.2360
    5MOL0     H  671   6.241  11.112   2.598 -0.7829  1.9774 -1.5077
    5MOL0     H  672   6.373  11.064   2.500  0.2940 -0.5765  0.9387
    5MOL0     H  673   6.462  11.477   2.530 -2.8061  1.3580  0.2934
    5MOL0     H  674   6.643  11.046   3.172 -2.3756 -1.2030 -0.8621
    5MOL0     H  675   6.807  10.907   3.291  1.4188  1.2954 -1.2103
    6MOL0     O  676   1.187   1.848   3.429 -1.2772 -0.4305 -0.2445
    6MOL0     C  677   1.110   1.870   3.339 -0.0387  0.1945 -0.3060
    6MOL0     O  678   1.090   1.786   3.238  0.2355 -0.1763 -0.0082
    6MOL0     C  679   1.176   1.680   3.219  0.6957  0.5431  0.3450
    6MOL0     C  680   1.240   1.672   3.092 -0.5246 -0.4938 -0.2490
    6MOL0     C  681   1.306   1.558   3.048 -0.9667  0.6925  0.3627
    6MOL0     C  682   1.321   1.448   3.136  0.5223  0.8364  0.0200
    6MOL0     O  683   1.382   1.340   3.084  0.3547  0.3854 -0.2157
    6MOL0     C  684   1.398   1.221   3.175  0.3534 -0.0656 -0.2004
    6MOL0     C  685   1.507   1.227   3.288  0.1798  0.2997 -0.0298
    6MOL0     C  686   1.643   1.185   3.257  0.4753 -0.4334  0.3270
    6MOL0     C  687   1.660   1.039   3.240  0.5013  0.5649  1.3487
    6MOL0     C  688   1.642   0.943   3.353 -0.4743  0.0248 -0.5359
    6MOL0     C  689   1.663   0.794   3.296 -0.3912 -0.6999  0.1554
    6MOL0     C  690   1.669   0.666   3.380  0.7344 -0.2614 -0.3710
    6MOL0     C  691   1.791   0.585   3.351  0.4389  0.3450 -0.4996
    6MOL0     N  692   1.804   0.474   3.442  0.3889  0.3167  0.2665
    6MOL0     C  693   1.715   0.373   3.463 -0.0282 -0.1976 -0.1044
    6MOL0     C  694   1.762   0.286   3.547 -0.3047  0.5921  0.3525
    6MOL0     C  695   1.690   0.168   3.605 -0.1267  0.1899 -0.8611
    6MOL0     C  696   1.681   0.178   3.766 -0.6125  0.7618  0.0539
    6MOL0     C  697   1.620   0.044   3.830 -1.7874  0.2166  0.7203
    6MOL0     C  698   1.597   0.082   3.976  0.1728  0.3075 -0.3384
    6MOL0     O  699   1.574  -0.050   4.039 -0.3391  0.2140 -0.6642
    6MOL0     C  700   1.581  -0.045   4.179  0.1655 -0.3360  0.2342
    6MOL0     C  701   1.559   0.061   4.266 -0.3550 -1.1716  0.2578
    6MOL0     C  702   1.540   0.032   4.401 -0.4452  0.0915 -0.0949
    6MOL0     C  703   1.484   0.151   4.473 -0.0261  0.3783 -0.1713
    6MOL0     C  704   1.558  -0.095   4.458  0.1229  0.2532 -0.2580
    6MOL0     C  705   1.540  -0.126   4.604  0.6503  0.8905 -0.3685
    6MOL0     O  706   1.479  -0.032   4.685  0.1468  0.1995 -0.4440
    6MOL0     C  707   1.484  -0.064   4.816  0.7958 -0.0777 -0.5621
    6MOL0     C  708   1.583   0.008   4.886  0.6145  0.1058 -0.2058
    6MOL0     C  709   1.603  -0.024   5.018 -0.3598 -0.1821  0.5287
    6MOL0     C  710   1.513  -0.110   5.076 -0.2556 -0.0682 -0.3955
    6MOL0     O  711   1.516  -0.136   5.214  0.0389 -0.3463  0.3326
    6MOL0     C  712   1.581  -0.263   5.243  0.4976  0.3018  0.6202
    6MOL0     C  713   1.542  -0.285   5.384  0.3255  0.4369  0.8423
    6MOL0     C  714   1.620  -0.186   5.486  1.0661 -0.5483  0.6452
    6MOL0     C  715   1.758  -0.243   5.537  0.6767 -0.2515  0.1243
    6MOL0     C  716   1.817  -0.167   5.648  0.2033 -0.2894  0.2774
    6MOL0     C  717   1.740  -0.168   5.786 -0.0121  0.9106  0.4087
    6MOL0     C  718   1.749  -0.306   5.856  0.0178 -0.2266  0.2782
    6MOL0     C  719   1.881  -0.342   5.926  0.8120 -0.4131  0.4380
    6MOL0    Cl  720   1.894  -0.525   5.930  0.2716  0.4737  0.8733
    6MOL0     C  721   1.408  -0.161   5.011 -0.1046  1.1007  0.3740
    6MOL0     C  722   1.386  -0.133   4.876  0.9648  0.0048 -0.0521
    6MOL0     O  723   1.577  -0.241   4.640 -0.0267 -0.4667 -0.5127
    6MOL0     C  724   1.601  -0.208   4.368 -0.5089 -0.4292 -0.0518
    6MOL0     C  725   1.613  -0.176   4.226  0.9349  0.0703  0.1839
    6MOL0     N  726   1.886   0.331   3.585  0.5593  0.0865  0.1201
    6MOL0     N  727   1.913   0.438   3.516  0.2402 -0.4628  0.1091
    6MOL0     C  728   1.259   1.461   3.261 -0.2031 -0.0008  1.5083
    6MOL0     C  729   1.179   1.568   3.297  0.1232  1.2656 -1.5150
    6MOL0     C  730   1.035   1.995   3.355  0.0644  0.2471 -0.5937
    6MOL0     C  731   0.946   2.041   3.258  0.7237  0.3292 -0.0231
    6MOL0     C  732   0.863   2.155   3.287  0.2113  0.7046  0.0614
    6MOL0     C  733   0.886   2.240   3.399 -0.0403  0.6324 -0.2458
    6MOL0     O  734   0.812   2.363   3.401 -0.5573  0.1455  0.0516
    6MOL0     C  735   0.839   2.439   3.528  0.6967  0.5898  0.0710
    6MOL0     C  736   0.753   2.556   3.521  0.7598 -0.5388  0.2330
    6MOL0     C  737   0.764   2.653   3.633 -0.7724  0.4966  0.8046
    6MOL0     C  738   0.882   2.749   3.612  0.3917  0.5704 -0.5425
    6MOL0     C  739   0.919   2.800   3.743 -0.0039  0.3977 -0.6009
    6MOL0     C  740   0.937   2.841   3.856  0.0952 -0.0424 -0.4183
    6MOL0     C  741   0.994   2.203   3.483  1.1518  0.4966 -0.6622
    6MOL0     C  742   1.059   2.082   3.469  0.1075 -0.9529 -0.1488
    6MOL0     H  743   1.232   1.756   3.023  0.9282 -1.6847 -1.9641
    6MOL0     H  744   1.347   1.567   2.948 -0.3307  0.9314  0.6363
    6MOL0     H  745   1.305   1.199   3.228  0.5563  3.7082  2.0720
    6MOL0     H  746   1.423   1.142   3.104  2.2000 -1.7589  2.1541
    6MOL0     H  747   1.507   1.319   3.347 -2.8040 -0.9373  2.1757
    6MOL0     H  748   1.472   1.154   3.362 -1.6079  0.1467 -0.9859
    6MOL0     H  749   1.672   1.240   3.167 -3.0456 -0.6635 -1.1084
    6MOL0     H  750   1.707   1.205   3.343 -2.0724  2.6455  1.6858
    6MOL0     H  751   1.586   1.017   3.163  0.3003  0.6268  1.5226
    6MOL0     H  752   1.757   1.017   3.196 -0.2110 -2.3215  1.0595
    6MOL0     H  753   1.725   0.966   3.420  0.2722 -2.1396 -0.6291
    6MOL0     H  754   1.545   0.948   3.404  0.0752 -0.1737  0.5588
    6MOL0     H  755   1.573   0.777   3.236  0.7314 -2.2217 -1.1848
    6MOL0     H  756   1.741   0.788   3.220 -1.9690 -1.4628 -1.4843
    6MOL0     H  757   1.681   0.696   3.484 -1.5106  2.3560 -0.7349
    6MOL0     H  758   1.581   0.603   3.364 -0.0340  0.2494  1.5883
    6MOL0     H  759   1.875   0.655   3.361  1.8619 -1.4758  1.0142
    6MOL0     H  760   1.782   0.554   3.247  0.1306  3.3935 -1.4899
    6MOL0     H  761   1.619   0.367   3.413  0.6034 -2.5394 -1.1855
    6MOL0     H  762   1.586   0.173   3.572 -0.3827 -3.3376 -1.0022
    6MOL0     H  763   1.734   0.076   3.565  1.0878 -0.8913  2.5895
    6MOL0     H  764   1.625   0.265   3.800 -1.1064  0.7762 -0.7598
    6MOL0     H  765   1.784   0.197   3.797  0.9527  0.4552 -4.2445
    6MOL0     H  766   1.706  -0.023   3.820 -1.7987 -0.0861  2.2895
    6MOL0     H  767   1.532   0.013   3.773  1.1547 -4.2835 -2.0667
    6MOL0     H  768   1.501   0.135   3.984 -1.8285 -3.2586  3.7555
    6MOL0     H  769   1.680   0.139   4.017  0.2257  0.5363 -0.7645
    6MOL0     H  770   1.545   0.165   4.238  0.1438  0.4618  5.1305
    6MOL0     H  771   1.503   0.246   4.422  0.2891  1.2677  1.5246
    6MOL0     H  772   1.381   0.136   4.506  1.4920 -0.5913  5.2642
    6MOL0     H  773   1.545   0.167   4.563  1.4676 -2.2296 -0.6205
    6MOL0     H  774   1.644   0.078   4.831 -0.5426 -1.6003 -4.0221
    6MOL0     H  775   1.684   0.011   5.081 -1.5021  1.1490  1.3151
    6MOL0     H  776   1.542  -0.350   5.189 -0.1543  1.3912 -0.7324
    6MOL0     H  777   1.689  -0.257   5.224  0.3973 -2.8284 -1.8063
    6MOL0     H  778   1.438  -0.257   5.400  0.3216  1.0379 -0.1394
    6MOL0     H  779   1.565  -0.387   5.414 -0.0491  0.0249 -0.2291
    6MOL0     H  780   1.550  -0.176   5.570  2.8428 -1.3974  2.3060
    6MOL0     H  781   1.638  -0.084   5.449 -0.9353 -0.0375  0.9611
    6MOL0     H  782   1.750  -0.344   5.580  1.5556 -0.0946  0.6854
    6MOL0     H  783   1.826  -0.249   5.451 -2.0572 -0.1047 -2.1720
    6MOL0     H  784   1.837  -0.065   5.616  1.3029 -0.3703  0.6522
    6MOL0     H  785   1.918  -0.204   5.669  0.9896  1.3988 -0.4192
    6MOL0     H  786   1.775  -0.094   5.859  1.0361  0.2093  0.6351
    6MOL0     H  787   1.632  -0.161   5.776 -0.1973 -2.7088 -2.7380
    6MOL0     H  788   1.730  -0.379   5.777  1.5546 -0.4058  0.0402
    6MOL0     H  789   1.670  -0.323   5.930 -0.2564 -1.6863 -0.3210
    6MOL0     H  790   1.877  -0.299   6.027  1.4880  0.9441 -0.0903
    6MOL0     H  791   1.962  -0.288   5.876 -0.1105  1.5286  0.9463
    6MOL0     H  792   1.333  -0.218   5.065 -0.2585  1.5820  0.6825
    6MOL0     H  793   1.305  -0.171   4.815  2.1324  0.3591 -1.9028
    6MOL0     H  794   1.631  -0.298   4.421 -0.4091 -1.2263 -1.4258
    6MOL0     H  795   1.649  -0.237   4.143  0.3837  0.6937 -0.5323
    6MOL0     H  796   1.258   1.382   3.335 -0.2778 -2.5073 -1.0256
    6MOL0     H  797   1.134   1.582   3.395 -1.7896  1.1882 -2.3476
    6MOL0     H  798   0.917   1.975   3.177 -1.4942  2.6160 -1.2475
    6MOL0     H  799   0.792   2.192   3.213  0.1907  2.7018  0.9934
    6MOL0     H  800   0.810   2.374   3.611  1.5228  1.7724  1.3248
    6MOL0     H  801   0.940   2.477   3.540  1.1901 -0.9130  0.8523
    6MOL0     H  802   0.648   2.524   3.512  1.1104 -2.6558  2.6313
    6MOL0     H  803   0.797   2.601   3.432  0.4193 -1.2694 -0.3164
    6MOL0     H  804   0.789   2.597   3.724  2.4276  0.7215  0.1803
    6MOL0     H  805   0.670   2.704   3.656  0.1343  1.8192  1.7406
    6MOL0     H  806   0.845   2.829   3.548 -3.9076  0.0198  0.9278
    6MOL0     H  807   0.972   2.709   3.565  1.5022  0.0044  1.8579
    6MOL0     H  808   0.950   2.873   3.957  1.3552 -0.0461 -0.5636
    6MOL0     H  809   1.000   2.255   3.577 -2.7571 -1.3605  0.8427
    6MOL0     H  810   1.127   2.067   3.553 -1.8492 -6.0408  0.8461
    7MOL0     O  811  11.316   1.590  11.117  0.5072  0.2302 -0.4760
    7MOL0     C  812  11.349   1.480  11.090  0.2314 -0.3759  0.1577
    7MOL0     O  813  11.319   1.369  11.159 -0.7597 -0.0416  0.9184
    7MOL0     C  814  11.274   1.382  11.283  1.1573 -0.1320  0.5937
    7MOL0     C  815  11.145   1.406  11.311 -0.5929 -0.0993 -0.4085
    7MOL0     C  816  11.102   1.391  11.446 -0.2287 -0.4262 -0.5809
    7MOL0     C  817  11.185   1.355  11.550 -0.8818  0.4470 -0.4495
    7MOL0     O  818  11.153   1.348  11.678  0.6643 -0.4481 -0.3297
    7MOL0     C  819  11.105   1.218  11.714  0.1089 -1.1108  0.5952
    7MOL0     C  820  11.102   1.220  11.868 -0.0173 -0.1470  0.7384
    7MOL0     C  821  10.963   1.187  11.913  0.5397 -1.0944 -0.0013
    7MOL0     C  822  10.951   1.245  12.060 -0.3961 -0.4536  0.0712
    7MOL0     C  823  10.806   1.245  12.108  0.1210  0.4101 -0.4603
    7MOL0     C  824  10.795   1.300  12.243  0.8652 -0.1683  0.2134
    7MOL0     C  825  10.652   1.325  12.279  0.2181 -0.3479 -1.1477
    7MOL0     C  826  10.568   1.200  12.301  0.1343  0.3732 -0.2256
    7MOL0     N  827  10.431   1.246  12.366  1.1343  0.7164  0.0690
    7MOL0     C  828  10.407   1.309  12.482  0.0703  0.2060  0.2161
    7MOL0     C  829  10.272   1.335  12.476  0.2727 -0.0397  0.2299
    7MOL0     C  830  10.183   1.412  12.567  0.3509 -0.0264 -0.7756
    7MOL0     C  831  10.231   1.399  12.716  0.1850  1.0290 -0.3947
    7MOL0     C  832  10.218   1.248  12.753  0.5552 -0.7697  0.4010
    7MOL0     C  833  10.242   1.211  12.904  0.3743 -0.7798 -0.3581
    7MOL0     O  834  10.377   1.224  12.947  0.0862  0.1228 -0.6041
    7MOL0     C  835  10.466   1.144  12.875  0.4217 -0.4158  0.2407
    7MOL0     C  836  10.583   1.182  12.798 -0.1894 -0.3854  0.7116
    7MOL0     C  837  10.665   1.087  12.737  0.4298  0.7500  0.6803
    7MOL0     C  838  10.777   1.126  12.659 -0.3739 -0.5083 -0.1117
    7MOL0     C  839  10.641   0.943  12.748  0.7911  0.8356 -0.7198
    7MOL0     C  840  10.723   0.838  12.695 -0.6447  0.6728  0.2740
    7MOL0     O  841  10.716   0.724  12.757 -0.4958  0.0350  1.3204
    7MOL0     C  842  10.783   0.613  12.720 -0.5600  0.8691 -0.0380
    7MOL0     C  843  10.920   0.597  12.726 -1.0283  0.1043  0.8500
    7MOL0     C  844  10.987   0.479  12.709  0.3303  0.3256 -0.0231
    7MOL0     C  845  10.914   0.367  12.655  0.2526 -0.4207 -0.0907
    7MOL0     O  846  10.980   0.261  12.606 -0.4072  0.2992 -0.0318
    7MOL0     C  847  10.915   0.137  12.603  0.4142 -0.2172  0.0555
    7MOL0     C  848  10.998   0.029  12.540 -0.1374 -0.3075 -0.4683
    7MOL0     C  849  11.122   0.000  12.627  0.3079  1.3887 -0.0415
    7MOL0     C  850  11.186  -0.134  12.590 -0.0841 -0.0506 -0.8755
    7MOL0     C  851  11.283  -0.168  12.700 -0.1001  0.2220  0.4094
    7MOL0     C  852  11.325  -0.308  12.689 -0.1047  0.9749  0.2120
    7MOL0     C  853  11.408  -0.349  12.795  0.0169  0.4745  0.4254
    7MOL0     C  854  11.461  -0.495  12.783 -1.2232 -0.9371 -0.0908
    7MOL0    Cl  855  11.590  -0.517  12.909 -0.0561 -0.0599 -0.5743
    7MOL0     C  856  10.776   0.388  12.628 -0.3229  0.1984 -0.2838
    7MOL0     C  857  10.706   0.513  12.663  0.2477 -0.0496  0.2495
    7MOL0     O  858  10.794   0.854  12.597  0.4435 -0.1120  0.0433
    7MOL0     C  859  10.534   0.909  12.823  0.9660  0.4604 -0.6082
    7MOL0     C  860  10.448   1.003  12.895 -0.1769  0.1642  0.4197
    7MOL0     N  861  10.221   1.286  12.351 -0.3050  0.0097 -0.0059
    7MOL0     N  862  10.321   1.237  12.288 -0.4929 -0.9239  0.3407
    7MOL0     C  863  11.322   1.335  11.514  1.4433  1.0679 -0.3305
    7MOL0     C  864  11.363   1.344  11.381  0.6527 -0.0317 -0.0244
    7MOL0     C  865  11.434   1.472  10.964 -0.2081 -1.0355  0.4501
    7MOL0     C  866  11.423   1.564  10.860  0.1719 -0.2426  0.8932
    7MOL0     C  867  11.492   1.532  10.751  0.1527 -0.1169  0.5771
    7MOL0     C  868  11.577   1.426  10.727 -0.3243  0.5294  0.3769
    7MOL0     O  869  11.637   1.388  10.604 -0.8799 -0.4644  0.0638
    7MOL0     C  870  11.655   1.501  10.514 -0.4376  1.4398  0.5994
    7MOL0     C  871  11.700   1.432  10.380  0.2790  0.0866 -0.5283
    7MOL0     C  872  11.676   1.534  10.262 -0.1777 -0.6196  0.2932
    7MOL0     C  873  11.664   1.469  10.114  0.3036  0.1593 -1.1531
    7MOL0     C  874  11.554   1.359  10.123 -0.8299  0.6903  0.5438
    7MOL0     C  875  11.475   1.259  10.130 -0.5348  0.3403  0.3097
    7MOL0     C  876  11.591   1.338  10.823  0.5788 -1.4589 -0.5735
    7MOL0     C  877  11.514   1.357  10.942  0.2915  0.0575 -0.1878
    7MOL0     H  878  11.066   1.414  11.236 -2.8315  2.4699  2.0209
    7MOL0     H  879  11.006   1.436  11.470  1.1191  1.6953  1.2144
    7MOL0     H  880  11.002   1.200  11.682 -1.1553  3.1213  1.6164
    7MOL0     H  881  11.181   1.146  11.683  2.5189  2.0881 -1.5543
    7MOL0     H  882  11.173   1.142  11.898  1.5868  0.2555 -1.7197
    7MOL0     H  883  11.144   1.316  11.900 -0.8218  0.0483  1.2474
    7MOL0     H  884  10.893   1.240  11.848  0.3911  0.9250  1.6988
    7MOL0     H  885  10.943   1.080  11.902 -0.5926 -0.8528 -0.4505
    7MOL0     H  886  11.024   1.196  12.124  2.9983  0.3982 -2.8402
    7MOL0     H  887  10.984   1.350  12.065 -2.3805  0.5879 -4.1445
    7MOL0     H  888  10.746   1.303  12.037  0.8964 -1.0683 -2.4229
    7MOL0     H  889  10.761   1.145  12.108 -2.0305  1.3033  0.1247
    7MOL0     H  890  10.851   1.232  12.308 -1.7202 -4.6231 -1.7192
    7MOL0     H  891  10.836   1.401  12.236  0.7160 -0.1332 -0.1995
    7MOL0     H  892  10.651   1.389  12.368  3.0018  2.3856 -2.8905
    7MOL0     H  893  10.602   1.375  12.196 -1.1616  3.8517  1.8935
    7MOL0     H  894  10.629   1.141  12.371  2.7576 -1.9167 -4.0152
    7MOL0     H  895  10.556   1.139  12.212  2.7000 -4.1539  2.1548
    7MOL0     H  896  10.480   1.341  12.555 -0.2138  2.8283 -0.5418
    7MOL0     H  897  10.180   1.521  12.553  1.3680  0.1121 -0.0689
    7MOL0     H  898  10.081   1.373  12.561  1.1769 -2.9850  1.6918
    7MOL0     H  899  10.167   1.461  12.779  0.5513  1.2436 -0.2293
    7MOL0     H  900  10.329   1.446  12.726  0.6402  1.1474 -4.0687
    7MOL0     H  901  10.276   1.178  12.694  0.5123  0.0788 -0.6776
    7MOL0     H  902  10.112   1.222  12.740  0.1400  1.2173 -0.6934
    7MOL0     H  903  10.198   1.113  12.924 -1.6232  0.1400  0.0212
    7MOL0     H  904  10.179   1.273  12.967  2.1488  0.9918 -0.2300
    7MOL0     H  905  10.613   1.286  12.792 -0.8052 -0.2237  0.3663
    7MOL0     H  906  10.868   1.102  12.714 -1.6210 -1.9311  1.4209
    7MOL0     H  907  10.787   1.084  12.558  2.3833 -1.7696  0.5841
    7MOL0     H  908  10.770   1.235  12.646 -1.1952  0.0280  3.6947
    7MOL0     H  909  10.969   0.682  12.773 -0.3998 -0.4970  1.2966
    7MOL0     H  910  11.090   0.466  12.739 -0.5316 -0.2932  3.0248
    7MOL0     H  911  10.881   0.102  12.701 -3.2109 -2.4707 -1.7710
    7MOL0     H  912  10.822   0.135  12.544  2.3347  0.6385 -3.2346
    7MOL0     H  913  10.929  -0.056  12.540 -0.1213 -0.3739  1.6586
    7MOL0     H  914  11.040   0.054  12.442  1.8338 -0.9723  0.1683
    7MOL0     H  915  11.101   0.015  12.733 -1.0686  0.2163 -0.1078
    7MOL0     H  916  11.189   0.084  12.609  3.2778 -1.0844 -1.4794
    7MOL0     H  917  11.102  -0.205  12.583 -0.2561  0.2111 -1.5840
    7MOL0     H  918  11.228  -0.118  12.490 -0.3117  0.1779 -0.9356
    7MOL0     H  919  11.234  -0.159  12.797  1.0671  2.5171  0.8470
    7MOL0     H  920  11.366  -0.097  12.694  0.6962 -0.8165 -2.0130
    7MOL0     H  921  11.246  -0.379  12.667 -0.1092  1.7043 -2.5165
    7MOL0     H  922  11.396  -0.311  12.605  2.3309  3.7667  1.9668
    7MOL0     H  923  11.359  -0.343  12.893  4.8002 -1.8018  3.3286
    7MOL0     H  924  11.492  -0.280  12.804  1.6622 -0.8911 -2.9408
    7MOL0     H  925  11.504  -0.517  12.685  1.0407  3.7496 -0.4090
    7MOL0     H  926  11.382  -0.569  12.793 -2.6952  0.5644 -0.1289
    7MOL0     H  927  10.705   0.328  12.571  0.0596  1.4496 -2.1830
    7MOL0     H  928  10.600   0.536  12.658  0.6090  1.7146 -0.0073
    7MOL0     H  929  10.506   0.804  12.824 -1.4160  0.9289 -3.4528
    7MOL0     H  930  10.372   0.971  12.965 -4.6912  1.0872 -3.5051
    7MOL0     H  931  11.397   1.295  11.581  0.1964  0.0790  0.5113
    7MOL0     H  932  11.466   1.319  11.359  1.7130  1.2963  2.9086
    7MOL0     H  933  11.372   1.656  10.883 -0.8815  0.4687 -3.5081
    7MOL0     H  934  11.481   1.609  10.674  1.5926 -0.4225  0.0392
    7MOL0     H  935  11.565   1.557  10.487  0.4023  2.9030  0.7467
    7MOL0     H  936  11.730   1.575  10.544  2.9870 -0.1562 -3.0001
    7MOL0     H  937  11.635   1.344  10.374 -1.2241  0.8948  2.2104
    7MOL0     H  938  11.806   1.407  10.386 -0.0956 -1.3492  2.9217
    7MOL0     H  939  11.760   1.603  10.263 -1.1364  0.6089  1.9732
    7MOL0     H  940  11.581   1.586  10.281  0.9310  1.7529 -0.2558
    7MOL0     H  941  11.759   1.424  10.082  2.9958  2.8440  2.3130
    7MOL0     H  942  11.651   1.549  10.041  1.6190  0.8881 -0.6348
    7MOL0     H  943  11.425   1.165  10.139  3.2713 -2.2723 -2.3299
    7MOL0     H  944  11.657   1.252  10.808 -0.5923 -2.2532 -1.3816
    7MOL0     H  945  11.505   1.278  11.016 -1.4064 -2.5761 -2.9585
    8MOL0     O  946   7.978   8.659   9.156 -0.3997  0.6608  0.2254
    8MOL0     C  947   7.945   8.605   9.058 -0.0099  0.3611  0.1172
    8MOL0     O  948   7.840   8.511   9.051  0.2563 -0.4890 -0.2606
    8MOL0     C  949   7.763   8.493   9.166 -0.2365 -0.3170 -0.2211
    8MOL0     C  950   7.626   8.466   9.141  0.2100  0.0094 -0.2431
    8MOL0     C  951   7.531   8.442   9.239  0.7333  0.4989 -0.0148
    8MOL0     C  952   7.582   8.425   9.378  0.9975  0.3726 -0.5005
    8MOL0     O  953   7.483   8.398   9.470 -0.2297 -0.0518 -0.4492
    8MOL0     C  954   7.516   8.298   9.565 -0.1464 -0.3757 -0.5356
    8MOL0     C  955   7.401   8.280   9.655  0.4917 -0.2341 -0.4922
    8MOL0     C  956   7.273   8.225   9.589  0.4483 -0.1790 -0.3752
    8MOL0     C  957   7.175   8.203   9.699 -0.2825  0.7681 -0.6341
    8MOL0     C  958   7.046   8.136   9.670  0.2940  0.7187 -0.8878
    8MOL0     C  959   7.059   8.012   9.579  0.0440  0.4357 -1.3918
    8MOL0     C  960   7.038   8.036   9.435  0.0734  0.6797 -0.5051
    8MOL0     C  961   7.043   7.904   9.360 -0.7006  0.4310 -0.3702
    8MOL0     N  962   7.005   7.949   9.223  0.0483  0.6094  0.0066
    8MOL0     C  963   6.877   7.959   9.176  0.4348 -0.2167  0.7794
    8MOL0     C  964   6.895   7.983   9.046  0.4518 -0.6835  0.0511
    8MOL0     C  965   6.780   8.010   8.950  0.4056 -0.7688  0.3087
    8MOL0     C  966   6.741   8.161   8.962 -0.2955  0.2249  0.1011
    8MOL0     C  967   6.625   8.198   8.870 -0.3183 -0.5771  0.0397
    8MOL0     C  968   6.604   8.349   8.859  0.9516  0.3959 -0.3590
    8MOL0     O  969   6.538   8.409   8.971 -0.0057  1.2178  0.5730
    8MOL0     C  970   6.406   8.436   8.958  0.2335 -0.8108 -0.2627
    8MOL0     C  971   6.310   8.372   9.031  0.2198 -0.1839  0.0343
    8MOL0     C  972   6.178   8.413   9.028  1.0902  0.0313  0.0856
    8MOL0     C  973   6.072   8.333   9.110 -0.3767 -0.3726  0.9964
    8MOL0     C  974   6.139   8.535   8.959  0.3087  0.0063 -0.6532
    8MOL0     C  975   6.005   8.589   8.948 -1.4580 -0.2942  0.4401
    8MOL0     O  976   5.992   8.719   8.890  0.0354  0.6675 -0.0178
    8MOL0     C  977   5.871   8.776   8.875  0.4505  0.0167 -0.3981
    8MOL0     C  978   5.814   8.840   8.989  0.7730 -0.3294 -0.3900
    8MOL0     C  979   5.688   8.916   8.971  0.0142  0.3177 -0.5471
    8MOL0     C  980   5.623   8.915   8.847  0.4099 -0.8470 -0.2464
    8MOL0     O  981   5.499   8.962   8.821  0.2308  0.2286 -0.2397
    8MOL0     C  982   5.434   9.055   8.914 -0.6067  0.4045 -0.3108
    8MOL0     C  983   5.434   9.194   8.849  0.2992  0.6242 -0.2664
    8MOL0     C  984   5.328   9.194   8.741  0.3971  0.3839 -0.8588
    8MOL0     C  985   5.316   9.338   8.700  0.5349 -0.1131  0.7095
    8MOL0     C  986   5.182   9.341   8.616  1.5082  0.8249  0.8413
    8MOL0     C  987   5.129   9.479   8.570  0.1933  0.0124  0.0191
    8MOL0     C  988   5.089   9.574   8.690 -0.0117  0.1958  1.0607
    8MOL0     C  989   4.995   9.681   8.652 -0.4255 -0.1326 -0.7402
    8MOL0    Cl  990   4.968   9.780   8.788  0.0532 -0.0694 -0.0783
    8MOL0     C  991   5.691   8.861   8.734  0.1289  0.0243 -0.6455
    8MOL0     C  992   5.814   8.803   8.754 -0.1749 -0.4288  1.3905
    8MOL0     O  993   5.908   8.521   8.965 -0.3563  0.3690  0.1090
    8MOL0     C  994   6.238   8.594   8.879  0.4242  0.1553  0.3859
    8MOL0     C  995   6.367   8.547   8.884 -0.7852 -0.7738  0.6342
    8MOL0     N  996   7.036   7.973   9.024  0.0207 -0.4554  0.9148
    8MOL0     N  997   7.100   7.957   9.128 -0.2882  0.3374  0.1795
    8MOL0     C  998   7.725   8.442   9.398 -0.9719 -0.3076  0.7848
    8MOL0     C  999   7.808   8.466   9.294 -0.9627  0.1808 -0.5155
    8MOL0     C 1000   8.017   8.626   8.932 -0.3894  0.2748  0.0562
    8MOL0     C 1001   7.986   8.570   8.812  0.2670 -0.2989 -0.8052
    8MOL0     C 1002   8.054   8.606   8.693  0.5482 -0.4983 -0.5361
    8MOL0     C 1003   8.164   8.692   8.695  0.1870  0.1926  0.9874
    8MOL0     O 1004   8.234   8.720   8.573  0.3449 -0.0929 -0.3444
    8MOL0     C 1005   8.319   8.835   8.568  0.1636  0.1636  0.5251
    8MOL0     C 1006   8.381   8.833   8.432  0.1483 -1.0222  0.0078
    8MOL0     C 1007   8.286   8.874   8.313  0.3648  0.3401 -0.6425
    8MOL0     C 1008   8.195   8.762   8.285  0.2775  0.2999 -0.5496
    8MOL0     C 1009   8.113   8.787   8.161 -0.7339 -0.2490 -0.3505
    8MOL0     C 1010   8.055   8.804   8.062 -0.4424  0.4919  0.0096
    8MOL0     C 1011   8.202   8.734   8.818 -0.8655  0.2992 -0.7866
    8MOL0     C 1012   8.132   8.704   8.939  0.2621  1.2403  0.8384
    8MOL0     H 1013   7.601   8.475   9.036  4.2681 -0.2642 -1.4281
    8MOL0     H 1014   7.427   8.430   9.210  1.5371 -3.2412 -2.0339
    8MOL0     H 1015   7.549   8.200   9.529 -1.0577 -0.0631 -2.3592
    8MOL0     H 1016   7.597   8.330   9.632  1.0628 -0.1408 -2.0368
    8MOL0     H 1017   7.440   8.221   9.739  3.6350  2.3494  0.0957
    8MOL0     H 1018   7.370   8.381   9.684  0.1558  0.8451 -4.1377
    8MOL0     H 1019   7.226   8.292   9.516 -1.7836 -0.0664  1.0807
    8MOL0     H 1020   7.298   8.136   9.532 -2.4718 -0.0169 -2.1283
    8MOL0     H 1021   7.204   8.118   9.761 -3.6255 -0.4998 -0.5798
    8MOL0     H 1022   7.155   8.293   9.757  1.2130  2.5948 -2.7657
    8MOL0     H 1023   7.017   8.093   9.767 -0.2514 -1.2364 -1.8607
    8MOL0     H 1024   6.962   8.196   9.635 -0.6009 -1.1959 -2.2132
    8MOL0     H 1025   7.156   7.964   9.595 -0.2502  0.0972 -0.4966
    8MOL0     H 1026   6.980   7.939   9.602 -0.2492  0.3493 -2.6381
    8MOL0     H 1027   6.936   8.073   9.420 -0.4958 -1.2978 -1.9847
    8MOL0     H 1028   7.111   8.114   9.418 -0.2401  0.8995 -0.8551
    8MOL0     H 1029   6.980   7.830   9.409  0.1180  0.4504  0.7506
    8MOL0     H 1030   7.147   7.868   9.363 -1.0230 -0.4691  1.1416
    8MOL0     H 1031   6.783   7.939   9.227 -1.4235  1.9584 -1.4587
    8MOL0     H 1032   6.817   7.988   8.850 -0.9764  1.5297 -0.7900
    8MOL0     H 1033   6.697   7.940   8.964  1.5285 -1.7699  2.3919
    8MOL0     H 1034   6.831   8.212   8.925 -0.2613  0.2089  0.1611
    8MOL0     H 1035   6.714   8.187   9.065 -2.4537 -0.1598 -0.3365
    8MOL0     H 1036   6.531   8.149   8.899  1.5239 -2.3023  3.8822
    8MOL0     H 1037   6.657   8.162   8.771  0.3420  0.0952 -0.0024
    8MOL0     H 1038   6.539   8.363   8.772  0.7008 -0.9967 -0.4238
    8MOL0     H 1039   6.701   8.400   8.850  0.8044  1.2602  2.2526
    8MOL0     H 1040   6.331   8.287   9.094 -0.6165 -0.6718 -0.3155
    8MOL0     H 1041   6.012   8.258   9.058 -0.0199 -0.3426  0.5381
    8MOL0     H 1042   6.117   8.287   9.199  1.5437 -0.1556  0.1845
    8MOL0     H 1043   6.009   8.413   9.150 -2.4730  0.3012 -3.0961
    8MOL0     H 1044   5.845   8.844   9.093 -1.6659  0.4149  0.3884
    8MOL0     H 1045   5.634   8.952   9.058 -1.6265 -2.6638 -0.1963
    8MOL0     H 1046   5.330   9.030   8.936 -1.1055  2.3512 -0.2335
    8MOL0     H 1047   5.487   9.071   9.008 -1.3824 -4.7138  1.2807
    8MOL0     H 1048   5.403   9.248   8.939  0.2157 -0.1312  0.1632
    8MOL0     H 1049   5.531   9.233   8.818  1.9648  1.1934  4.8061
    8MOL0     H 1050   5.237   9.144   8.773  1.1178  0.3406  1.2537
    8MOL0     H 1051   5.364   9.139   8.653  2.3658 -0.1617  0.2254
    8MOL0     H 1052   5.308   9.417   8.775  1.2732  1.5571 -0.8995
    8MOL0     H 1053   5.402   9.351   8.633  0.9681 -1.1869  1.0374
    8MOL0     H 1054   5.110   9.281   8.671  0.5983  0.3029 -0.8486
    8MOL0     H 1055   5.194   9.289   8.520 -3.0491  1.1790 -0.1302
    8MOL0     H 1056   5.198   9.535   8.506  0.5190  0.4324  0.7292
    8MOL0     H 1057   5.049   9.455   8.499  0.6151 -2.7740  0.3942
    8MOL0     H 1058   5.182   9.616   8.730  1.0041 -1.8333  0.9561
    8MOL0     H 1059   5.047   9.514   8.771 -1.5966 -0.6699 -0.3629
    8MOL0     H 1060   4.898   9.638   8.625 -1.3164  2.7576 -2.6484
    8MOL0     H 1061   5.035   9.729   8.562  1.2277  0.0539  0.0641
    8MOL0     H 1062   5.639   8.855   8.639 -0.7806 -0.7460 -0.1201
    8MOL0     H 1063   5.852   8.756   8.664 -3.7507  1.1593 -1.1831
    8MOL0     H 1064   6.218   8.688   8.830 -0.2047  0.6052  1.4823
    8MOL0     H 1065   6.436   8.588   8.811  1.0614 -1.7813  1.7326
    8MOL0     H 1066   7.780   8.409   9.486  0.0214 -0.2277  0.2091
    8MOL0     H 1067   7.915   8.481   9.308 -0.8493  2.2880 -2.9085
    8MOL0     H 1068   7.891   8.522   8.795  0.2581  0.0250 -1.6985
    8MOL0     H 1069   8.006   8.589   8.597 -1.3187 -2.5812  0.6713
    8MOL0     H 1070   8.283   8.929   8.613  0.0273  0.8015 -0.8646
    8MOL0     H 1071   8.406   8.829   8.634  2.8587  0.6585 -2.7349
    8MOL0     H 1072   8.408   8.729   8.412 -0.8126 -0.9679 -1.8346
    8MOL0     H 1073   8.460   8.909   8.437  1.0321 -1.8267 -1.1365
    8MOL0     H 1074   8.360   8.892   8.234  4.5879 -1.1560  2.5496
    8MOL0     H 1075   8.234   8.966   8.341 -0.6148  0.8134 -3.6358
    8MOL0     H 1076   8.126   8.755   8.369 -0.5356  2.0144 -1.0091
    8MOL0     H 1077   8.245   8.666   8.270 -3.6287 -2.0965  0.3506
    8MOL0     H 1078   7.993   8.827   7.978  1.7827  1.3603 -1.4771
    8MOL0     H 1079   8.288   8.799   8.827 -1.8324  2.1991 -3.8128
    8MOL0     H 1080   8.162   8.740   9.037 -1.0286  0.7916  1.4181
    9MOL0     O 1081   3.125   6.135   4.201  0.1206  0.0005 -0.3271
    9MOL0     C 1082   3.131   6.233   4.274 -0.4062 -0.1415 -0.5523
    9MOL0     O 1083   3.216   6.342   4.267 -0.4437 -0.8556  0.3999
    9MOL0     C 1084   3.300   6.335   4.162 -0.3727 -0.7993 -0.5307
    9MOL0     C 1085   3.404   6.250   4.157  0.6204  0.6692 -0.7656
    9MOL0     C 1086   3.475   6.223   4.042 -0.0336 -0.0996  1.2266
    9MOL0     C 1087   3.448   6.296   3.928  0.2307 -0.9272 -0.3280
    9MOL0     O 1088   3.532   6.285   3.812 -0.1141 -0.2832  0.5167
    9MOL0     C 1089   3.645   6.201   3.815  1.3163 -0.2439 -0.8151
    9MOL0     C 1090   3.765   6.275   3.888  0.5254 -0.2275 -0.0201
    9MOL0     C 1091   3.806   6.425   3.834  0.4147  0.3716 -0.4508
    9MOL0     C 1092   3.834   6.424   3.682 -0.7592 -0.7934  0.3351
    9MOL0     C 1093   3.910   6.562   3.645  0.0898  0.3941 -0.2388
    9MOL0     C 1094   3.962   6.555   3.499  0.2100 -0.6927 -0.1127
    9MOL0     C 1095   3.848   6.576   3.401  0.0715 -0.1110 -1.2411
    9MOL0     C 1096   3.884   6.660   3.281  0.5292 -0.9842  0.0613
    9MOL0     N 1097   3.830   6.799   3.294 -0.5694  0.9770 -0.1720
    9MOL0     C 1098   3.726   6.837   3.209 -0.4384 -0.3511  0.0464
    9MOL0     C 1099   3.693   6.960   3.255  0.1087  0.8729 -0.3508
    9MOL0     C 1100   3.590   7.041   3.192 -0.4244  0.7179 -0.1288
    9MOL0     C 1101   3.476   7.055   3.297 -0.4546  0.1033  0.3722
    9MOL0     C 1102   3.357   7.126   3.233 -0.1939  0.0146 -0.0336
    9MOL0     C 1103   3.231   7.124   3.326  0.3542 -0.7679 -0.5398
    9MOL0     O 1104   3.109   7.184   3.277  0.0606  0.3489 -0.3388
    9MOL0     C 1105   2.997   7.185   3.359 -0.4152  0.0365  0.2824
    9MOL0     C 1106   3.005   7.133   3.489  0.5864 -0.9206  0.5006
    9MOL0     C 1107   2.893   7.139   3.570 -0.4426  1.7362 -0.2329
    9MOL0     C 1108   2.915   7.100   3.712 -0.3107  0.4674  0.0440
    9MOL0     C 1109   2.770   7.182   3.519  0.7362 -0.4466  0.2677
    9MOL0     C 1110   2.642   7.171   3.595  0.1071 -0.2921 -0.5910
    9MOL0     O 1111   2.561   7.286   3.604 -0.3816 -0.2423  0.4499
    9MOL0     C 1112   2.438   7.279   3.653 -0.1643  0.5982 -1.6352
    9MOL0     C 1113   2.327   7.334   3.581  0.0388  0.7313 -0.0727
    9MOL0     C 1114   2.202   7.339   3.643 -0.0549 -0.5768  0.0082
    9MOL0     C 1115   2.168   7.283   3.765 -0.5069  0.1546 -0.0691
    9MOL0     O 1116   2.038   7.305   3.805  0.0688  0.2491  0.1135
    9MOL0     C 1117   1.954   7.203   3.861 -0.1380  0.8440 -0.3916
    9MOL0     C 1118   1.802   7.249   3.875 -0.3357  0.4494  0.1486
    9MOL0     C 1119   1.747   7.284   3.733 -1.3961  0.3548 -0.0313
    9MOL0     C 1120   1.603   7.315   3.740  0.0895 -0.9023 -1.0236
    9MOL0     C 1121   1.547   7.415   3.850  0.2428  0.2936 -0.4774
    9MOL0     C 1122   1.600   7.555   3.835 -0.2244  0.3479  0.2394
    9MOL0     C 1123   1.518   7.664   3.903 -0.8328  0.3128 -0.6254
    9MOL0     C 1124   1.556   7.685   4.052  0.3052 -0.1199  0.1254
    9MOL0    Cl 1125   1.506   7.545   4.158 -0.3568 -0.5055 -0.0496
    9MOL0     C 1126   2.268   7.214   3.830 -0.0370  0.4409  0.2689
    9MOL0     C 1127   2.404   7.219   3.780  0.6891  0.5530  0.2804
    9MOL0     O 1128   2.617   7.059   3.646  0.6949 -0.6608 -0.4951
    9MOL0     C 1129   2.760   7.241   3.394  0.2401  0.9509 -0.3139
    9MOL0     C 1130   2.874   7.239   3.310 -0.6007 -0.4459 -0.3420
    9MOL0     N 1131   3.771   6.996   3.360 -0.7936 -0.2474 -0.1136
    9MOL0     N 1132   3.858   6.899   3.375 -0.4391  0.4915 -0.1851
    9MOL0     C 1133   3.342   6.384   3.925  0.7933 -0.4735  0.0616
    9MOL0     C 1134   3.273   6.412   4.044 -1.9448 -0.1222  0.8009
    9MOL0     C 1135   3.048   6.220   4.396 -0.5172 -0.6594  0.2896
    9MOL0     C 1136   3.016   6.336   4.477  0.0179 -0.0156 -0.5724
    9MOL0     C 1137   2.939   6.327   4.599 -0.2013 -0.9209  0.5968
    9MOL0     C 1138   2.909   6.200   4.657 -0.8513 -0.0421  0.6884
    9MOL0     O 1139   2.828   6.184   4.765 -0.4158  0.2229 -0.7264
    9MOL0     C 1140   2.837   6.282   4.878  0.2013  0.7972 -0.8841
    9MOL0     C 1141   2.782   6.221   5.000  1.1247 -1.1846  0.8545
    9MOL0     C 1142   2.853   6.092   5.044 -0.0111 -0.2141 -0.2498
    9MOL0     C 1143   2.824   6.059   5.198  0.0936  0.6000  0.2455
    9MOL0     C 1144   2.901   5.943   5.230 -0.4750 -0.8410 -0.0683
    9MOL0     C 1145   2.979   5.848   5.251 -0.1585  0.5989  0.1813
    9MOL0     C 1146   2.934   6.089   4.574  0.1409  0.5000  0.6515
    9MOL0     C 1147   3.002   6.097   4.446  0.5765 -0.6250 -0.6717
    9MOL0     H 1148   3.414   6.179   4.239  0.1464  0.2416 -1.0732
    9MOL0     H 1149   3.546   6.141   4.047  0.4785  0.3925  2.5358
    9MOL0     H 1150   3.615   6.110   3.869 -2.0808  1.6208  0.7397
    9MOL0     H 1151   3.674   6.182   3.712 -0.0900 -1.8030 -0.9716
    9MOL0     H 1152   3.743   6.289   3.994  0.5766  4.5657 -0.4213
    9MOL0     H 1153   3.850   6.208   3.867  0.1514  0.0495 -2.8246
    9MOL0     H 1154   3.722   6.490   3.861 -0.2136 -1.5502  2.8081
    9MOL0     H 1155   3.902   6.456   3.878 -0.4987  4.5094 -0.9276
    9MOL0     H 1156   3.909   6.350   3.655  1.2337  0.9992  0.6248
    9MOL0     H 1157   3.751   6.403   3.615 -1.6886  2.8506  0.1066
    9MOL0     H 1158   3.849   6.650   3.667 -1.7684 -1.0264  0.6443
    9MOL0     H 1159   3.999   6.562   3.708  1.7927  0.1922 -2.5191
    9MOL0     H 1160   4.032   6.638   3.488  0.5444 -0.3515  3.2561
    9MOL0     H 1161   4.025   6.469   3.476 -0.8064 -0.8289 -2.6317
    9MOL0     H 1162   3.803   6.480   3.375  0.8297 -0.9277  0.3141
    9MOL0     H 1163   3.772   6.632   3.456  0.2171  0.1830 -1.3342
    9MOL0     H 1164   3.839   6.630   3.186  2.6272 -0.6883 -1.0907
    9MOL0     H 1165   3.992   6.664   3.265  0.0663  0.4367 -3.7159
    9MOL0     H 1166   3.678   6.793   3.122 -0.5360  1.5094 -0.8918
    9MOL0     H 1167   3.629   7.142   3.177 -0.5588  0.7312 -0.3950
    9MOL0     H 1168   3.555   6.987   3.104  0.2052 -2.9441  1.6946
    9MOL0     H 1169   3.498   7.103   3.393  0.8062 -0.0849  0.1964
    9MOL0     H 1170   3.446   6.954   3.325  0.6465 -1.3837 -3.2218
    9MOL0     H 1171   3.346   7.079   3.135 -0.0238 -1.7415  0.7382
    9MOL0     H 1172   3.381   7.232   3.233  0.7083 -0.1635  1.1812
    9MOL0     H 1173   3.257   7.186   3.412  5.6856 -0.6342 -1.8984
    9MOL0     H 1174   3.217   7.020   3.359 -1.3379 -0.1896  0.7200
    9MOL0     H 1175   3.098   7.094   3.529  0.5458 -1.1995  0.3261
    9MOL0     H 1176   2.865   7.007   3.740  1.3834  0.7018  4.5750
    9MOL0     H 1177   3.019   7.085   3.743  0.1853  1.6857 -0.9371
    9MOL0     H 1178   2.880   7.172   3.786 -2.1698 -0.7380  0.4188
    9MOL0     H 1179   2.349   7.366   3.480  2.5899  1.2999  0.5625
    9MOL0     H 1180   2.114   7.378   3.593  0.7448  0.6134 -0.4954
    9MOL0     H 1181   1.954   7.115   3.796 -0.4472  0.1524  0.5250
    9MOL0     H 1182   1.985   7.164   3.958 -3.2854 -1.2402 -0.0833
    9MOL0     H 1183   1.749   7.163   3.918  1.2182 -0.1342  0.9998
    9MOL0     H 1184   1.798   7.330   3.948  0.3555 -1.3253  2.2471
    9MOL0     H 1185   1.760   7.208   3.655 -1.9781 -0.4438  0.6221
    9MOL0     H 1186   1.803   7.368   3.694  2.9293 -2.0971  0.2859
    9MOL0     H 1187   1.563   7.359   3.648 -1.3868  0.4343  0.1835
    9MOL0     H 1188   1.548   7.224   3.765  0.8113 -1.1972 -0.4920
    9MOL0     H 1189   1.573   7.375   3.948  1.8854 -1.0585 -1.4173
    9MOL0     H 1190   1.439   7.424   3.837 -0.6157  2.0842  5.0595
    9MOL0     H 1191   1.705   7.570   3.860 -0.0261  4.6145 -2.1951
    9MOL0     H 1192   1.596   7.555   3.726 -0.8303 -2.6884  0.1581
    9MOL0     H 1193   1.409   7.653   3.893 -0.8573  1.3021 -1.6352
    9MOL0     H 1194   1.540   7.760   3.856  2.1897 -0.9437 -2.0374
    9MOL0     H 1195   1.500   7.768   4.096  2.3862  0.9974  0.7887
    9MOL0     H 1196   1.663   7.706   4.060  0.2055 -0.1028  1.8933
    9MOL0     H 1197   2.258   7.146   3.914  0.3699 -1.7069 -1.3419
    9MOL0     H 1198   2.489   7.174   3.831 -0.3734 -1.8062  0.1077
    9MOL0     H 1199   2.665   7.285   3.365  1.0332  2.3026 -0.9942
    9MOL0     H 1200   2.880   7.268   3.205  1.6010  0.8401  0.0814
    9MOL0     H 1201   3.332   6.440   3.832 -2.7880 -0.8985  0.0608
    9MOL0     H 1202   3.203   6.494   4.056 -1.2146  0.6647 -0.1962
    9MOL0     H 1203   3.066   6.432   4.465 -0.1688 -0.0232 -1.4190
    9MOL0     H 1204   2.915   6.422   4.647 -2.0554  1.0630 -3.6933
    9MOL0     H 1205   2.941   6.313   4.892 -0.6894  3.2553  0.9372
    9MOL0     H 1206   2.786   6.374   4.847 -1.0786  0.3399 -0.1966
    9MOL0     H 1207   2.676   6.199   4.988  0.6848 -0.2082  2.6265
    9MOL0     H 1208   2.803   6.291   5.081  1.7141 -1.1587  0.6882
    9MOL0     H 1209   2.961   6.099   5.032 -0.2046 -0.0295 -2.2552
    9MOL0     H 1210   2.808   6.015   4.980 -1.1060  2.4733 -2.9843
    9MOL0     H 1211   2.716   6.045   5.204  0.1937  0.5982  4.0200
    9MOL0     H 1212   2.846   6.132   5.275  0.6675 -1.5499  2.2497
    9MOL0     H 1213   3.050   5.770   5.269  1.1220  1.4239 -1.0772
    9MOL0     H 1214   2.922   5.993   4.623 -0.3742 -0.9184 -2.0696
    9MOL0     H 1215   3.036   6.005   4.399 -1.4959 -3.2578  2.5847
   10MOL0     O 1216   2.901   7.025   1.310  0.8725 -0.2052 -1.3649
   10MOL0     C 1217   2.909   7.022   1.433  0.5057  0.1018  0.5739
   10MOL0     O 1218   2.834   6.946   1.513  0.4624  0.0778  0.4516
   10MOL0     C 1219   2.727   6.877   1.456 -0.1779 -0.5539  0.4832
   10MOL0     C 1220   2.607   6.931   1.447  0.1073  0.3378  0.5127
   10MOL0     C 1221   2.506   6.851   1.389 -0.5619  0.1260  0.0811
   10MOL0     C 1222   2.519   6.723   1.344 -0.5519  0.3935  0.2760
   10MOL0     O 1223   2.429   6.636   1.299  0.1339  0.0456  0.2661
   10MOL0     C 1224   2.334   6.690   1.192 -1.1510  0.6347  0.3529
   10MOL0     C 1225   2.189   6.635   1.199  0.7486 -0.3286 -0.1606
   10MOL0     C 1226   2.174   6.499   1.133  0.2002 -0.2290  0.5682
   10MOL0     C 1227   2.143   6.501   0.979  0.9698 -0.4627 -0.4159
   10MOL0     C 1228   2.118   6.358   0.929 -0.3362 -0.3381  0.7788
   10MOL0     C 1229   1.982   6.303   0.974  0.2194  0.8802  0.1656
   10MOL0     C 1230   1.971   6.159   0.933 -0.0893 -1.0292  0.1159
   10MOL0     C 1231   1.847   6.091   0.987  0.0419 -0.1441  0.4021
   10MOL0     N 1232   1.835   5.956   0.940 -0.7455  0.5781  0.0376
   10MOL0     C 1233   1.864   5.833   1.004 -0.4982  1.3048  1.0010
   10MOL0     C 1234   1.852   5.735   0.906 -0.0270  0.0034  0.5369
   10MOL0     C 1235   1.864   5.584   0.924  0.2774 -0.3837  0.1168
   10MOL0     C 1236   2.020   5.547   0.928  0.0663  0.3910  0.7815
   10MOL0     C 1237   2.035   5.403   0.880  0.4670  0.1836 -0.1127
   10MOL0     C 1238   1.956   5.289   0.955  0.0253 -0.6202 -0.2546
   10MOL0     O 1239   1.986   5.317   1.096 -0.2637 -0.2142  0.2414
   10MOL0     C 1240   1.903   5.278   1.196  0.7590 -0.3894 -0.1764
   10MOL0     C 1241   1.922   5.329   1.325 -0.3687 -0.7643 -0.6261
   10MOL0     C 1242   1.822   5.311   1.427 -0.3748  0.8609 -0.4303
   10MOL0     C 1243   1.849   5.385   1.559  0.3679 -0.7381 -0.6252
   10MOL0     C 1244   1.718   5.214   1.407 -0.1019 -0.4363 -0.3928
   10MOL0     C 1245   1.622   5.172   1.516 -0.0724 -1.1695  0.4320
   10MOL0     O 1246   1.496   5.151   1.477 -1.0073 -0.5082 -0.1303
   10MOL0     C 1247   1.410   5.090   1.566 -0.1827 -0.4022  0.4357
   10MOL0     C 1248   1.376   4.950   1.563  0.3647 -0.2413  0.7125
   10MOL0     C 1249   1.285   4.909   1.658 -0.6691  0.9799  0.1203
   10MOL0     C 1250   1.228   4.987   1.760  0.3634  0.5978  0.2798
   10MOL0     O 1251   1.131   4.937   1.845 -0.2792 -0.4234  0.0473
   10MOL0     C 1252   1.057   5.019   1.933 -0.3594 -0.0343  0.0270
   10MOL0     C 1253   0.948   4.943   2.009 -0.6538  0.0366  0.5951
   10MOL0     C 1254   0.839   5.030   2.067 -0.4523  0.4869 -0.2328
   10MOL0     C 1255   0.901   5.156   2.147 -0.3383  0.3295 -0.4092
   10MOL0     C 1256   0.812   5.277   2.165  0.0779  0.3013  0.3043
   10MOL0     C 1257   0.658   5.245   2.157 -0.1107  0.8073  0.4159
   10MOL0     C 1258   0.579   5.371   2.122 -0.0830  0.3594 -0.3208
   10MOL0     C 1259   0.549   5.456   2.245 -0.6835  1.4966 -1.0552
   10MOL0    Cl 1260   0.458   5.588   2.193  0.6790  0.4411 -0.3304
   10MOL0     C 1261   1.264   5.118   1.762  0.2408 -0.1036  0.3655
   10MOL0     C 1262   1.356   5.171   1.664  0.4776  0.0002  0.5358
   10MOL0     O 1263   1.663   5.152   1.631  0.3248  0.1376  0.0145
   10MOL0     C 1264   1.710   5.159   1.284  0.2491 -0.1702 -0.9107
   10MOL0     C 1265   1.790   5.197   1.175  0.1063 -0.4262 -0.2567
   10MOL0     N 1266   1.810   5.800   0.789  0.3042  0.3083 -0.5923
   10MOL0     N 1267   1.798   5.929   0.809 -0.4162  1.1473  0.6351
   10MOL0     C 1268   2.650   6.667   1.357  0.2291 -0.4476  0.1902
   10MOL0     C 1269   2.747   6.744   1.403 -1.1615  0.4644 -0.2344
   10MOL0     C 1270   3.009   7.125   1.482 -0.0304  0.4388 -0.1732
   10MOL0     C 1271   3.053   7.121   1.614  0.0403  0.2922 -0.2754
   10MOL0     C 1272   3.146   7.215   1.660  0.2259  0.1423  0.5369
   10MOL0     C 1273   3.200   7.309   1.572 -0.0278 -0.9092  0.9733
   10MOL0     O 1274   3.292   7.387   1.627 -0.0657  0.9810 -0.0934
   10MOL0     C 1275   3.377   7.473   1.541  0.3622  0.6282  0.4370
   10MOL0     C 1276   3.484   7.533   1.640 -1.1378  0.4505 -0.4014
   10MOL0     C 1277   3.578   7.615   1.551 -0.1268  0.4969 -0.2821
   10MOL0     C 1278   3.708   7.643   1.635 -0.2051 -0.1667  0.3336
   10MOL0     C 1279   3.794   7.734   1.552  0.4690 -0.2813 -0.0671
   10MOL0     C 1280   3.877   7.805   1.497 -0.1544 -0.2177 -0.1239
   10MOL0     C 1281   3.159   7.323   1.439 -0.2576 -0.5933  0.2742
   10MOL0     C 1282   3.056   7.230   1.399 -0.1912 -0.2629 -0.5397
   10MOL0     H 1283   2.588   7.034   1.473 -2.1479  0.0143  0.3463
   10MOL0     H 1284   2.415   6.905   1.366  0.7573  2.4768  0.1280
   10MOL0     H 1285   2.325   6.798   1.209  1.9624  0.7743  1.7524
   10MOL0     H 1286   2.371   6.664   1.093  0.1571  2.2022  0.3972
   10MOL0     H 1287   2.165   6.633   1.306 -1.1587  0.8405 -0.5230
   10MOL0     H 1288   2.118   6.699   1.145 -0.9253 -3.9947 -2.7803
   10MOL0     H 1289   2.260   6.433   1.150  0.0992 -0.1514  1.4786
   10MOL0     H 1290   2.095   6.450   1.191  0.3049  1.1682  1.9548
   10MOL0     H 1291   2.054   6.563   0.965  0.9885  0.0984  1.6044
   10MOL0     H 1292   2.226   6.543   0.921  0.2856 -0.2509 -1.2701
   10MOL0     H 1293   2.116   6.350   0.820 -2.4098 -1.4574  0.8491
   10MOL0     H 1294   2.198   6.294   0.967 -1.4141 -2.8138 -0.9132
   10MOL0     H 1295   1.969   6.327   1.080 -0.0712  2.5755 -0.2223
   10MOL0     H 1296   1.903   6.362   0.927 -2.6554 -0.2720  3.1658
   10MOL0     H 1297   1.967   6.148   0.824 -0.1042 -1.3248  0.1460
   10MOL0     H 1298   2.054   6.098   0.969  1.6070 -1.4296 -3.9410
   10MOL0     H 1299   1.759   6.142   0.948  1.4053  1.0703 -1.2478
   10MOL0     H 1300   1.859   6.097   1.096  1.4156 -0.4043  0.2853
   10MOL0     H 1301   1.886   5.813   1.109 -0.4846  4.0814  1.5947
   10MOL0     H 1302   1.809   5.553   1.013 -0.5114 -0.7103 -0.4690
   10MOL0     H 1303   1.809   5.532   0.845 -2.4281  1.7392  0.4267
   10MOL0     H 1304   2.063   5.554   1.029  0.6713  0.7722  0.5005
   10MOL0     H 1305   2.073   5.625   0.874 -1.5711  2.5019  2.0677
   10MOL0     H 1306   2.141   5.381   0.874  0.8046  1.9856 -1.6073
   10MOL0     H 1307   1.992   5.397   0.780  0.6127 -2.1873 -0.0965
   10MOL0     H 1308   2.003   5.192   0.934 -0.6350 -0.3107 -3.7658
   10MOL0     H 1309   1.848   5.292   0.941 -0.1363  1.3325  1.0938
   10MOL0     H 1310   2.007   5.395   1.336 -1.6233  0.5595  1.8113
   10MOL0     H 1311   1.760   5.398   1.622 -1.0091 -3.7321 -1.7997
   10MOL0     H 1312   1.923   5.321   1.609  0.7102 -1.8372 -2.4834
   10MOL0     H 1313   1.900   5.479   1.535  1.1926 -1.5574 -2.2375
   10MOL0     H 1314   1.401   4.893   1.475  3.2651  1.0304  0.5893
   10MOL0     H 1315   1.243   4.809   1.651  1.5553 -0.1271  1.2981
   10MOL0     H 1316   1.124   5.079   1.995  1.6666  0.9129 -2.8636
   10MOL0     H 1317   1.006   5.086   1.863 -0.5347 -0.5822 -0.3790
   10MOL0     H 1318   0.900   4.869   1.945  0.3182 -0.9268  0.9493
   10MOL0     H 1319   1.005   4.873   2.070  1.3081  0.9967 -0.0387
   10MOL0     H 1320   0.777   4.973   2.137 -1.1576  0.6457 -0.7064
   10MOL0     H 1321   0.787   5.058   1.974  1.0528 -0.1694 -1.3082
   10MOL0     H 1322   0.917   5.112   2.246  0.2362 -1.4692 -1.2755
   10MOL0     H 1323   0.996   5.193   2.107  0.2389 -2.3769 -1.7490
   10MOL0     H 1324   0.846   5.338   2.080  1.2020  2.3408  2.1071
   10MOL0     H 1325   0.835   5.338   2.252 -2.2180  0.8225  0.6141
   10MOL0     H 1326   0.625   5.180   2.076  0.8522  3.0298 -1.8598
   10MOL0     H 1327   0.633   5.191   2.249 -1.0469 -1.0117 -0.8362
   10MOL0     H 1328   0.482   5.331   2.089 -0.2237  0.4221  0.0160
   10MOL0     H 1329   0.632   5.431   2.048 -0.6438  0.4132 -0.6835
   10MOL0     H 1330   0.648   5.480   2.286 -0.9905 -1.2212  1.6848
   10MOL0     H 1331   0.501   5.401   2.327  0.2760  1.3936 -0.5454
   10MOL0     H 1332   1.233   5.184   1.843  0.0035  1.2125 -0.7412
   10MOL0     H 1333   1.403   5.268   1.679 -2.3111  1.5295  0.0209
   10MOL0     H 1334   1.646   5.071   1.278  2.3909 -1.8661 -0.3152
   10MOL0     H 1335   1.766   5.143   1.084 -0.2822  1.6014 -1.4028
   10MOL0     H 1336   2.664   6.562   1.333 -0.9178 -0.9201  1.4501
   10MOL0     H 1337   2.844   6.697   1.410 -0.6645  1.5914  0.6642
   10MOL0     H 1338   3.018   7.036   1.672 -1.7337  2.5885  2.2422
   10MOL0     H 1339   3.179   7.211   1.763 -3.4443 -1.9115  1.8251
   10MOL0     H 1340   3.439   7.415   1.472  1.2067  1.7720  0.2011
   10MOL0     H 1341   3.311   7.548   1.496 -0.5661 -0.7224 -0.4905
   10MOL0     H 1342   3.530   7.453   1.699 -1.6662 -1.1787 -2.0837
   10MOL0     H 1343   3.431   7.598   1.710 -1.8356  0.4034 -0.8738
   10MOL0     H 1344   3.541   7.707   1.504 -1.0563  1.6801  2.5420
   10MOL0     H 1345   3.606   7.554   1.465  0.1403 -0.8001  0.6949
   10MOL0     H 1346   3.760   7.547   1.639  4.3083  2.0101 -0.0894
   10MOL0     H 1347   3.698   7.681   1.737 -1.8617  2.7622 -0.7895
   10MOL0     H 1348   3.933   7.875   1.440  0.4970 -2.7359 -2.8044
   10MOL0     H 1349   3.201   7.394   1.368 -1.4168  0.9290  1.0416
   10MOL0     H 1350   3.013   7.239   1.300  2.3416  1.5786 -1.5858
   11MOL0     O 1351  10.630   0.690   3.351 -0.2135  0.4921 -0.2929
   11MOL0     C 1352  10.616   0.812   3.380 -0.1370 -0.8775  0.4357
   11MOL0     O 1353  10.502   0.871   3.366 -0.4567  0.1202 -0.4146
   11MOL0     C 1354  10.383   0.795   3.365  0.2614 -0.4520  0.2855
   11MOL0     C 1355  10.311   0.779   3.481 -0.2874 -0.1233  0.2238
   11MOL0     C 1356  10.176   0.741   3.478 -0.3624 -0.1559 -0.2057
   11MOL0     C 1357  10.116   0.706   3.358 -0.6314 -0.2191  0.2780
   11MOL0     O 1358   9.998   0.645   3.366  0.0639 -0.7984  0.0136
   11MOL0     C 1359   9.957   0.542   3.274 -0.0500 -0.0519 -0.3226
   11MOL0     C 1360   9.808   0.532   3.280  0.0563 -1.3264  0.3644
   11MOL0     C 1361   9.763   0.468   3.409  0.2844 -0.5363  0.0871
   11MOL0     C 1362   9.615   0.455   3.435  1.0787  0.9236  0.1194
   11MOL0     C 1363   9.519   0.573   3.413  0.0357 -1.1437 -0.6524
   11MOL0     C 1364   9.559   0.691   3.509 -0.1397  1.0175  1.2888
   11MOL0     C 1365   9.461   0.813   3.507 -0.1536 -0.0858  1.1117
   11MOL0     C 1366   9.451   0.880   3.366 -0.7993 -0.8638 -1.0624
   11MOL0     N 1367   9.354   0.992   3.359 -0.2935  0.1602 -0.0459
   11MOL0     C 1368   9.218   0.980   3.395  0.1793  0.1769 -0.0761
   11MOL0     C 1369   9.160   1.090   3.330  1.0436 -0.3097  0.5582
   11MOL0     C 1370   9.012   1.123   3.327  0.1389 -0.4960  0.1910
   11MOL0     C 1371   8.934   1.045   3.211  0.1432 -0.9534  0.1259
   11MOL0     C 1372   8.778   1.080   3.222 -0.0528  0.1035  1.2869
   11MOL0     C 1373   8.706   0.987   3.312  0.0406  0.2310 -0.4753
   11MOL0     O 1374   8.566   1.013   3.320 -0.4899  0.2178  1.3250
   11MOL0     C 1375   8.511   1.112   3.391 -0.5131  0.4063 -0.8435
   11MOL0     C 1376   8.587   1.209   3.460  0.8948 -0.4997 -0.3735
   11MOL0     C 1377   8.529   1.318   3.530 -1.1240 -0.6230 -0.5793
   11MOL0     C 1378   8.616   1.393   3.620 -0.4933  0.0574 -0.1695
   11MOL0     C 1379   8.386   1.330   3.542 -0.0254  1.1509  0.0515
   11MOL0     C 1380   8.296   1.424   3.632  0.6993  0.4259 -0.6022
   11MOL0     O 1381   8.162   1.389   3.651 -0.1661 -0.1022 -0.2222
   11MOL0     C 1382   8.070   1.477   3.696  0.5188 -0.2749 -0.4523
   11MOL0     C 1383   8.018   1.453   3.826 -0.8123  0.0567 -0.1170
   11MOL0     C 1384   7.928   1.548   3.874 -0.0980  0.6062  0.1943
   11MOL0     C 1385   7.884   1.649   3.798 -0.7161  0.0671  0.5190
   11MOL0     O 1386   7.815   1.748   3.863  0.4434  0.1307  0.6529
   11MOL0     C 1387   7.708   1.819   3.795  0.8542  0.2763 -0.2548
   11MOL0     C 1388   7.570   1.767   3.852  0.4487 -0.2643  0.5954
   11MOL0     C 1389   7.557   1.615   3.822  0.0194 -0.4665 -0.1983
   11MOL0     C 1390   7.417   1.567   3.800 -0.4395  0.3349 -0.4090
   11MOL0     C 1391   7.404   1.410   3.783 -0.4236 -0.1301 -0.6497
   11MOL0     C 1392   7.519   1.358   3.691  0.1997 -0.3273  0.4496
   11MOL0     C 1393   7.500   1.220   3.629 -0.2375 -1.0358 -0.2554
   11MOL0     C 1394   7.375   1.196   3.566  0.5928  0.3614 -0.1741
   11MOL0    Cl 1395   7.362   1.050   3.471  0.5580 -0.1029  0.0976
   11MOL0     C 1396   7.937   1.671   3.667 -0.4314  0.0573 -0.0539
   11MOL0     C 1397   8.018   1.583   3.624 -0.3807  0.6770 -0.1461
   11MOL0     O 1398   8.347   1.524   3.677 -0.3349  0.6998  0.1282
   11MOL0     C 1399   8.315   1.235   3.467  0.0652 -0.9433  0.6933
   11MOL0     C 1400   8.380   1.123   3.401  0.1772 -0.3552 -0.6439
   11MOL0     N 1401   9.260   1.176   3.289  0.1029 -0.0562  0.3140
   11MOL0     N 1402   9.379   1.117   3.288 -0.0211 -0.2272 -0.3103
   11MOL0     C 1403  10.189   0.719   3.237  0.2176 -0.1913  0.3360
   11MOL0     C 1404  10.327   0.756   3.247 -0.0993 -1.2131  0.1275
   11MOL0     C 1405  10.736   0.894   3.417 -0.4426  0.6857 -0.4876
   11MOL0     C 1406  10.865   0.853   3.377 -0.1738 -0.0389  0.6580
   11MOL0     C 1407  10.982   0.920   3.415  0.0522 -0.4442  0.0966
   11MOL0     C 1408  10.969   1.032   3.494  0.2250  0.3383  0.6884
   11MOL0     O 1409  11.090   1.093   3.537 -0.9605 -0.4545 -0.6501
   11MOL0     C 1410  11.189   1.118   3.433  0.7055  0.2527 -0.4407
   11MOL0     C 1411  11.313   1.179   3.492 -0.4581  0.8035  0.0151
   11MOL0     C 1412  11.446   1.146   3.423 -0.5103  0.1457  0.3667
   11MOL0     C 1413  11.559   1.234   3.480 -0.0300  0.7982 -0.3344
   11MOL0     C 1414  11.607   1.199   3.611 -0.0485  0.1149 -0.6244
   11MOL0     C 1415  11.632   1.195   3.727 -0.1161  0.7150 -0.4538
   11MOL0     C 1416  10.841   1.082   3.528  0.4593  0.4378 -0.0943
   11MOL0     C 1417  10.725   1.016   3.481  0.7728  0.4996 -0.6405
   11MOL0     H 1418  10.360   0.802   3.575 -2.0791 -2.6447  1.8840
   11MOL0     H 1419  10.128   0.724   3.574  0.2803 -3.5900 -0.3578
   11MOL0     H 1420   9.984   0.563   3.170  1.9208  1.2045  0.3845
   11MOL0     H 1421   9.997   0.444   3.304  2.6089  0.5774 -1.5479
   11MOL0     H 1422   9.757   0.628   3.268  1.2590 -0.4697  1.8253
   11MOL0     H 1423   9.777   0.481   3.188 -3.4641  2.4993 -0.8439
   11MOL0     H 1424   9.801   0.366   3.405  0.1007 -0.6390  0.7297
   11MOL0     H 1425   9.804   0.522   3.495  0.0092 -2.3114  1.3741
   11MOL0     H 1426   9.577   0.370   3.378  0.2010  0.8970  0.7162
   11MOL0     H 1427   9.597   0.423   3.539  0.4255  1.4501  0.1810
   11MOL0     H 1428   9.523   0.601   3.307  1.3989 -0.4765 -0.4484
   11MOL0     H 1429   9.419   0.530   3.424 -0.2979 -0.2861 -0.2644
   11MOL0     H 1430   9.573   0.644   3.607 -1.5106  0.6618  1.3364
   11MOL0     H 1431   9.661   0.717   3.481 -0.1167  0.0936  0.4744
   11MOL0     H 1432   9.359   0.786   3.534 -0.9205  2.7760  1.3772
   11MOL0     H 1433   9.497   0.886   3.581 -0.7166  0.4985  0.8146
   11MOL0     H 1434   9.412   0.801   3.300  0.6384 -2.7588  0.2302
   11MOL0     H 1435   9.545   0.912   3.320 -1.5595  2.0545 -0.7564
   11MOL0     H 1436   9.172   0.904   3.458  0.9209  2.2374  3.1574
   11MOL0     H 1437   8.967   1.081   3.418 -1.6429  0.5884 -0.1589
   11MOL0     H 1438   9.000   1.231   3.327 -0.6346 -0.4387  4.0795
   11MOL0     H 1439   8.956   0.938   3.213  1.7218 -0.6914 -1.5301
   11MOL0     H 1440   8.967   1.085   3.115 -2.1815  0.0316 -0.3405
   11MOL0     H 1441   8.731   1.058   3.125 -2.6086  0.8489  2.2868
   11MOL0     H 1442   8.765   1.188   3.234  1.3334  0.4772 -0.1633
   11MOL0     H 1443   8.747   0.999   3.413 -0.0085 -0.1316 -0.4126
   11MOL0     H 1444   8.712   0.885   3.275 -1.3704  0.1225 -0.4414
   11MOL0     H 1445   8.693   1.189   3.446  0.4140 -1.4769 -3.1770
   11MOL0     H 1446   8.571   1.390   3.720 -2.6044 -0.3064 -1.0625
   11MOL0     H 1447   8.720   1.359   3.621 -0.0205  1.3429  2.0978
   11MOL0     H 1448   8.629   1.496   3.586 -0.3229 -0.4409 -1.7074
   11MOL0     H 1449   8.049   1.371   3.890  0.4656 -0.5077 -1.4004
   11MOL0     H 1450   7.894   1.540   3.977  0.2823 -0.9263  0.2213
   11MOL0     H 1451   7.715   1.923   3.829 -2.1009  0.1723  0.9738
   11MOL0     H 1452   7.698   1.811   3.686  0.0381 -2.6024 -0.0314
   11MOL0     H 1453   7.579   1.775   3.961 -0.6779 -1.0754  0.7628
   11MOL0     H 1454   7.491   1.828   3.809  1.5372 -0.5726 -2.0235
   11MOL0     H 1455   7.606   1.556   3.899 -1.3670 -1.0512  0.2713
   11MOL0     H 1456   7.599   1.600   3.722 -0.4127  2.0322 -0.8245
   11MOL0     H 1457   7.358   1.598   3.886  0.0276  1.7963 -0.5849
   11MOL0     H 1458   7.374   1.617   3.712  1.5135  1.7037 -0.6483
   11MOL0     H 1459   7.309   1.372   3.745 -1.3121  1.0610  0.2979
   11MOL0     H 1460   7.430   1.367   3.880 -0.2219  0.8659 -0.2501
   11MOL0     H 1461   7.527   1.421   3.601 -2.0294 -2.3312 -1.2973
   11MOL0     H 1462   7.613   1.362   3.746  1.0463  1.8213 -1.0077
   11MOL0     H 1463   7.513   1.141   3.703  1.1648  1.3971  2.2952
   11MOL0     H 1464   7.584   1.202   3.561  3.1463  1.4901  2.8608
   11MOL0     H 1465   7.353   1.274   3.492  1.1799 -0.1250 -0.8866
   11MOL0     H 1466   7.293   1.191   3.638 -0.9015  2.5354 -1.6185
   11MOL0     H 1467   7.915   1.764   3.616  1.1385  0.2282 -0.4531
   11MOL0     H 1468   8.047   1.587   3.519 -2.9317 -0.2771 -0.9626
   11MOL0     H 1469   8.208   1.254   3.471  0.4346  1.2909  2.4131
   11MOL0     H 1470   8.320   1.057   3.338 -1.9962  2.4745 -1.7458
   11MOL0     H 1471  10.149   0.699   3.139 -1.1754  0.8973  0.6535
   11MOL0     H 1472  10.379   0.765   3.152  0.7582  1.8368  0.7856
   11MOL0     H 1473  10.862   0.763   3.316 -1.1186  0.5876 -0.2638
   11MOL0     H 1474  11.081   0.889   3.381  0.7286 -1.5410  2.8090
   11MOL0     H 1475  11.215   1.024   3.384 -0.9199 -0.0300 -0.8006
   11MOL0     H 1476  11.146   1.177   3.352  0.8085 -0.4023 -0.9862
   11MOL0     H 1477  11.314   1.150   3.598  0.5423  0.6251 -0.0329
   11MOL0     H 1478  11.315   1.286   3.472  0.0962  0.2455 -3.6827
   11MOL0     H 1479  11.430   1.166   3.316  2.0106 -0.9156 -0.2727
   11MOL0     H 1480  11.461   1.038   3.429 -0.7998  0.1126  0.5162
   11MOL0     H 1481  11.519   1.335   3.484  0.5410  0.9975  1.9779
   11MOL0     H 1482  11.641   1.209   3.412  0.0495 -2.3380  0.7437
   11MOL0     H 1483  11.645   1.203   3.833 -2.2364 -1.9473  0.1256
   11MOL0     H 1484  10.813   1.163   3.594 -4.7128 -1.4452  0.4656
   11MOL0     H 1485  10.625   1.052   3.507  1.0197  0.6917  0.0745
   12MOL0     O 1486  10.390   4.395  10.812 -0.1108 -0.0093 -0.4444
   12MOL0     C 1487  10.273   4.358  10.817  0.0352 -0.4400 -0.1819
   12MOL0     O 1488  10.197   4.314  10.710 -0.6302 -0.1703 -0.1275
   12MOL0     C 1489  10.253   4.319  10.585  0.4374 -0.4320 -0.9010
   12MOL0     C 1490  10.224   4.424  10.502  0.0672  0.3154 -0.1925
   12MOL0     C 1491  10.269   4.428  10.374 -1.1397  0.1767  0.2224
   12MOL0     C 1492  10.353   4.331  10.322  0.2241 -0.0765 -0.5868
   12MOL0     O 1493  10.395   4.311  10.199  0.4273  0.0937  0.5477
   12MOL0     C 1494  10.424   4.429  10.119 -0.2331 -0.7231  0.5653
   12MOL0     C 1495  10.552   4.496  10.169 -0.7316 -0.2515 -0.0549
   12MOL0     C 1496  10.576   4.638  10.121 -0.4441  0.0672  0.2210
   12MOL0     C 1497  10.628   4.719  10.238 -0.3473  0.1557  0.4152
   12MOL0     C 1498  10.662   4.869  10.199 -0.3587  0.4074  0.8735
   12MOL0     C 1499  10.768   4.932  10.293 -0.2191  0.3617  0.2911
   12MOL0     C 1500  10.845   5.058  10.226 -0.9686  0.7323 -0.1173
   12MOL0     C 1501  10.760   5.186  10.239 -0.4171 -0.5741 -0.4743
   12MOL0     N 1502  10.833   5.312  10.192  1.2173  0.2744 -0.9634
   12MOL0     C 1503  10.819   5.435  10.254  0.1471  0.3052 -0.6787
   12MOL0     C 1504  10.895   5.517  10.188  0.2171 -0.7952  0.1155
   12MOL0     C 1505  10.904   5.661  10.223  0.2306 -0.1939  0.1975
   12MOL0     C 1506  11.049   5.707  10.274  0.3201  0.0162 -0.4876
   12MOL0     C 1507  11.056   5.861  10.254 -0.3704  0.5577  0.6416
   12MOL0     C 1508  10.975   5.936  10.352  0.2175 -0.1576  0.8827
   12MOL0     O 1509  10.837   5.978  10.321  0.3672 -0.7342  0.4106
   12MOL0     C 1510  10.811   6.047  10.209 -1.1859 -0.1854  0.3157
   12MOL0     C 1511  10.901   6.102  10.114  0.0254 -0.6315  0.4106
   12MOL0     C 1512  10.854   6.151   9.984  0.7193  0.2245 -0.1855
   12MOL0     C 1513  10.956   6.225   9.893  0.1476 -0.1837 -0.0545
   12MOL0     C 1514  10.719   6.136   9.944  1.1687  0.1111  0.0833
   12MOL0     C 1515  10.662   6.198   9.815  0.3965  1.7353 -0.5166
   12MOL0     O 1516  10.533   6.238   9.814 -0.0156 -0.5151  0.4157
   12MOL0     C 1517  10.489   6.330   9.906 -0.3972  0.1303  0.0507
   12MOL0     C 1518  10.352   6.327   9.926 -0.2822 -0.3490 -0.2350
   12MOL0     C 1519  10.285   6.410  10.011 -0.0686 -0.1767  0.2573
   12MOL0     C 1520  10.363   6.516  10.070 -0.5606 -0.3333  0.8572
   12MOL0     O 1521  10.307   6.611  10.148  0.2847  0.0970  0.9077
   12MOL0     C 1522  10.176   6.594  10.204  0.0450 -0.3675 -0.3110
   12MOL0     C 1523  10.159   6.707  10.300  0.3394 -0.3978  0.1851
   12MOL0     C 1524  10.144   6.842  10.229  0.0305  0.4822  0.3297
   12MOL0     C 1525  10.129   6.938  10.337 -0.0865  0.8019  0.8112
   12MOL0     C 1526  10.071   7.069  10.281 -1.2266  0.0858 -0.2924
   12MOL0     C 1527  10.087   7.180  10.397 -0.8473  1.4144 -0.4630
   12MOL0     C 1528  10.010   7.147  10.524 -0.0751  0.1014  0.3877
   12MOL0     C 1529  10.002   7.274  10.602 -0.0469 -0.6292  0.9731
   12MOL0    Cl 1530   9.895   7.253  10.737  0.3273 -0.9132  0.2593
   12MOL0     C 1531  10.502   6.521  10.056  0.3029 -0.0193  0.6696
   12MOL0     C 1532  10.567   6.430   9.971  0.3894 -0.0585 -0.9900
   12MOL0     O 1533  10.730   6.185   9.715  0.0566 -0.4005  0.5881
   12MOL0     C 1534  10.628   6.083  10.035 -0.2211 -0.2112 -0.6801
   12MOL0     C 1535  10.671   6.039  10.167 -0.2884  0.2645  1.2703
   12MOL0     N 1536  10.929   5.447  10.071 -0.1873  1.0801  0.2403
   12MOL0     N 1537  10.892   5.317  10.071 -0.4264 -0.6058 -0.1202
   12MOL0     C 1538  10.388   4.227  10.412 -0.1383 -1.1204  0.5761
   12MOL0     C 1539  10.335   4.217  10.542 -0.7066  0.1955 -0.0901
   12MOL0     C 1540  10.206   4.351  10.948  0.0784  0.1377  0.2138
   12MOL0     C 1541  10.092   4.281  10.979  0.0718  0.4649 -0.4823
   12MOL0     C 1542  10.035   4.271  11.106 -0.2835  0.0994 -0.5629
   12MOL0     C 1543  10.115   4.309  11.219 -0.8494 -1.0281 -0.7519
   12MOL0     O 1544  10.061   4.278  11.344  0.6145  0.4180 -0.7082
   12MOL0     C 1545  10.127   4.307  11.468  0.8648 -0.5423 -0.1359
   12MOL0     C 1546  10.053   4.255  11.583  0.1519 -0.1270 -0.1187
   12MOL0     C 1547   9.923   4.339  11.602  0.6924 -0.1104 -0.1297
   12MOL0     C 1548   9.883   4.357  11.746  1.0791 -0.5794  0.5947
   12MOL0     C 1549   9.747   4.402  11.743  0.1387 -0.6565 -0.2014
   12MOL0     C 1550   9.629   4.438  11.733  0.4050  0.3511 -0.0091
   12MOL0     C 1551  10.231   4.376  11.198 -0.5324  0.6815  0.8567
   12MOL0     C 1552  10.272   4.402  11.063 -0.1231 -0.4747  0.1247
   12MOL0     H 1553  10.166   4.508  10.541  3.0825  1.8854  1.2243
   12MOL0     H 1554  10.234   4.515  10.319  0.7562  1.2870  0.7040
   12MOL0     H 1555  10.448   4.387  10.021  1.8229  3.0151 -0.7504
   12MOL0     H 1556  10.346   4.503  10.103  0.3120 -0.7110 -2.7517
   12MOL0     H 1557  10.556   4.494  10.279  1.8938  3.7951  0.1343
   12MOL0     H 1558  10.638   4.443  10.128 -0.3437  0.7503 -0.5433
   12MOL0     H 1559  10.647   4.645  10.037  0.8485 -1.7905  1.0884
   12MOL0     H 1560  10.479   4.683  10.100 -2.0989 -2.8022  1.1966
   12MOL0     H 1561  10.551   4.718  10.315  0.8100  1.3874  1.6602
   12MOL0     H 1562  10.717   4.672  10.282 -0.2384 -3.2643 -2.9188
   12MOL0     H 1563  10.703   4.855  10.099 -0.0787 -2.4894  1.3207
   12MOL0     H 1564  10.572   4.931  10.195  0.4382  1.7701  2.5387
   12MOL0     H 1565  10.707   4.965  10.377  0.6800 -1.3939  1.6848
   12MOL0     H 1566  10.839   4.855  10.324 -0.1687  0.8305  1.3878
   12MOL0     H 1567  10.933   5.074  10.290 -1.1373  2.7029 -0.2992
   12MOL0     H 1568  10.890   5.032  10.130 -0.5633 -2.1067  0.7452
   12MOL0     H 1569  10.701   5.199  10.330 -1.4492 -1.3742 -1.0072
   12MOL0     H 1570  10.681   5.167  10.166  0.0725  1.5096 -1.6528
   12MOL0     H 1571  10.774   5.441  10.353  0.5643 -0.0328 -0.4674
   12MOL0     H 1572  10.885   5.715  10.130  0.9651  0.8735  0.6528
   12MOL0     H 1573  10.827   5.678  10.300 -1.8566  2.8504 -2.3120
   12MOL0     H 1574  11.118   5.641  10.222  0.4208  0.2205 -0.6168
   12MOL0     H 1575  11.060   5.692  10.382 -2.2119  0.4919 -0.0941
   12MOL0     H 1576  11.026   5.880  10.151  0.5584 -2.2966 -0.2413
   12MOL0     H 1577  11.161   5.885  10.274 -0.7966  0.7828  2.9394
   12MOL0     H 1578  11.036   6.023  10.379  1.6713  0.0327 -2.5203
   12MOL0     H 1579  10.975   5.875  10.443 -1.3391  1.2828  1.9120
   12MOL0     H 1580  11.006   6.111  10.140  0.2372 -1.7272 -0.0006
   12MOL0     H 1581  11.052   6.213   9.946 -0.1241  0.9353  0.7417
   12MOL0     H 1582  10.956   6.172   9.798  1.0300 -1.3333  0.5529
   12MOL0     H 1583  10.937   6.330   9.870 -2.4991 -0.3216  1.0943
   12MOL0     H 1584  10.296   6.264   9.858 -0.5846 -1.0220  0.6304
   12MOL0     H 1585  10.179   6.411  10.036  0.4429  3.0477  3.2068
   12MOL0     H 1586  10.092   6.600  10.134 -1.3401  0.7071  1.3549
   12MOL0     H 1587  10.155   6.504  10.262  0.3327  1.0948  2.2071
   12MOL0     H 1588  10.069   6.689  10.361  0.6460  1.3383  1.1964
   12MOL0     H 1589  10.248   6.713  10.362  1.4255  3.0471 -1.4360
   12MOL0     H 1590  10.054   6.836  10.168  1.5081 -0.7972 -1.8856
   12MOL0     H 1591  10.234   6.854  10.167 -0.6993 -0.1828 -0.8855
   12MOL0     H 1592  10.063   6.898  10.415 -0.0698 -0.1820  0.3438
   12MOL0     H 1593  10.225   6.956  10.386 -0.5562 -1.2582  2.6602
   12MOL0     H 1594   9.965   7.063  10.256 -1.2809 -1.4536  0.1669
   12MOL0     H 1595  10.129   7.095  10.192 -0.9370 -1.5493 -0.6133
   12MOL0     H 1596  10.194   7.181  10.421 -0.9383  3.1547  0.0037
   12MOL0     H 1597  10.043   7.267  10.347 -1.2278 -0.2130 -3.1546
   12MOL0     H 1598  10.061   7.079  10.593 -2.7337  0.3364  2.7210
   12MOL0     H 1599   9.912   7.111  10.491  0.3457 -0.1304 -0.6571
   12MOL0     H 1600   9.952   7.357  10.550 -1.2238 -1.2387  1.1025
   12MOL0     H 1601  10.098   7.314  10.637 -0.6098  0.7807  0.9567
   12MOL0     H 1602  10.547   6.604  10.110 -2.0486  4.4064 -3.3055
   12MOL0     H 1603  10.675   6.439   9.967  0.5971 -1.8736 -0.4061
   12MOL0     H 1604  10.525   6.063  10.006 -0.1910  1.7931 -2.3698
   12MOL0     H 1605  10.612   5.996  10.247  0.0721 -1.5923  0.6037
   12MOL0     H 1606  10.463   4.157  10.378 -1.8521 -1.5176 -2.8569
   12MOL0     H 1607  10.362   4.132  10.604  0.2320  2.6267  3.1110
   12MOL0     H 1608  10.046   4.245  10.887  0.9138 -0.7330 -0.4511
   12MOL0     H 1609   9.936   4.229  11.124  0.0194  0.5000  2.4404
   12MOL0     H 1610  10.226   4.262  11.458  1.9224  2.0512 -2.5796
   12MOL0     H 1611  10.129   4.415  11.487 -3.0108 -0.1891 -0.8255
   12MOL0     H 1612  10.116   4.258  11.672  0.5621 -0.4369 -0.3970
   12MOL0     H 1613  10.009   4.157  11.566 -2.4377  1.0974 -0.9402
   12MOL0     H 1614   9.851   4.280  11.544 -0.7412  1.3766  0.0480
   12MOL0     H 1615   9.927   4.440  11.562  1.2091 -0.3966 -0.8046
   12MOL0     H 1616   9.944   4.439  11.786 -1.2686  1.6440 -0.1040
   12MOL0     H 1617   9.894   4.266  11.806 -0.9489 -1.5165 -0.3515
   12MOL0     H 1618   9.525   4.465  11.729 -1.2814 -4.7263  1.4701
   12MOL0     H 1619  10.311   4.401  11.268 -0.7199  0.2074  1.2457
   12MOL0     H 1620  10.363   4.459  11.054 -0.8824  0.4050 -3.9124
   13MOL0     O 1621   7.075   3.793   4.776  0.1842  0.7576  0.4300
   13MOL0     C 1622   7.129   3.681   4.763  0.1109 -0.0080  0.0972
   13MOL0     O 1623   7.082   3.574   4.686 -0.6441  0.1047 -0.4168
   13MOL0     C 1624   6.986   3.597   4.595  0.7159  0.1993  0.9366
   13MOL0     C 1625   7.023   3.569   4.460 -0.0715 -0.3204  0.2918
   13MOL0     C 1626   6.930   3.570   4.360 -1.1516 -0.4718 -0.2304
   13MOL0     C 1627   6.794   3.596   4.389  0.2176  0.7120 -0.3201
   13MOL0     O 1628   6.704   3.608   4.285  0.3003  0.2019 -0.4482
   13MOL0     C 1629   6.666   3.749   4.261  0.1938  0.6663  0.2773
   13MOL0     C 1630   6.516   3.771   4.286 -0.1450 -0.1868  0.5991
   13MOL0     C 1631   6.487   3.910   4.341  0.9053  0.2717  1.1530
   13MOL0     C 1632   6.343   3.907   4.379 -0.4409 -0.2292 -0.0409
   13MOL0     C 1633   6.312   4.047   4.438  0.5183  0.5719  0.0106
   13MOL0     C 1634   6.170   4.074   4.484  0.1290 -0.2145  0.7723
   13MOL0     C 1635   6.075   4.079   4.366  0.3581  0.7709 -0.7453
   13MOL0     C 1636   5.928   4.098   4.406  0.2027  0.8840  0.0485
   13MOL0     N 1637   5.836   4.093   4.284 -1.0972  0.4576  0.2653
   13MOL0     C 1638   5.851   4.013   4.167  0.3136 -0.0805  0.0495
   13MOL0     C 1639   5.740   4.036   4.101  0.2691 -1.0635  0.0776
   13MOL0     C 1640   5.695   3.963   3.980  0.4066 -0.7818  0.8080
   13MOL0     C 1641   5.601   4.033   3.876 -0.0532  0.0882  0.1992
   13MOL0     C 1642   5.663   4.150   3.811  0.7631  0.5387  0.1598
   13MOL0     C 1643   5.588   4.238   3.718 -0.1405 -0.7486 -0.1149
   13MOL0     O 1644   5.571   4.199   3.584 -0.0972  0.2183 -0.1672
   13MOL0     C 1645   5.443   4.235   3.539 -0.5019  0.2233  1.2639
   13MOL0     C 1646   5.317   4.221   3.613 -0.9594 -0.0818  0.0718
   13MOL0     C 1647   5.196   4.253   3.551  0.1581 -0.5049 -0.1202
   13MOL0     C 1648   5.071   4.253   3.639  0.1432 -0.7577  0.2287
   13MOL0     C 1649   5.207   4.305   3.416  0.8164  0.9145 -0.0010
   13MOL0     C 1650   5.087   4.351   3.355  1.0008 -0.7126  0.4512
   13MOL0     O 1651   4.987   4.263   3.346 -0.0859  0.5261 -0.1768
   13MOL0     C 1652   4.871   4.292   3.269  0.1510  0.1626  1.2528
   13MOL0     C 1653   4.742   4.289   3.322  0.1092  1.4599 -0.1118
   13MOL0     C 1654   4.628   4.333   3.243  0.2955 -0.6180 -0.0782
   13MOL0     C 1655   4.642   4.384   3.116  0.4894 -0.9486  0.1130
   13MOL0     O 1656   4.527   4.419   3.053  0.0109 -0.3186  0.6046
   13MOL0     C 1657   4.421   4.325   3.048  0.5172 -0.5672 -0.4846
   13MOL0     C 1658   4.393   4.310   2.904  0.1244 -1.3423  1.0628
   13MOL0     C 1659   4.291   4.203   2.867 -0.3279 -0.6438  0.8711
   13MOL0     C 1660   4.159   4.242   2.916  0.5817  0.4125  0.4502
   13MOL0     C 1661   4.102   4.379   2.871  0.2422  0.1035  0.2278
   13MOL0     C 1662   3.982   4.421   2.951  0.7232 -0.2062 -0.4873
   13MOL0     C 1663   3.940   4.564   2.921  0.0753  0.9191  0.5939
   13MOL0     C 1664   4.017   4.662   3.012 -0.6065 -0.5201  0.1794
   13MOL0    Cl 1665   3.936   4.686   3.172 -0.3124 -0.0892  0.1060
   13MOL0     C 1666   4.777   4.392   3.061 -0.2047  1.2433  0.0462
   13MOL0     C 1667   4.881   4.336   3.134  1.1999  0.1665  0.2850
   13MOL0     O 1668   5.091   4.454   3.295 -0.3149 -0.4114  0.0778
   13MOL0     C 1669   5.331   4.319   3.351  0.1524  0.6789 -0.2580
   13MOL0     C 1670   5.446   4.288   3.415  0.1613 -0.3182  0.4350
   13MOL0     N 1671   5.657   4.131   4.164  0.8183  0.1910 -0.8609
   13MOL0     N 1672   5.733   4.165   4.263 -1.0024 -0.3478 -0.1419
   13MOL0     C 1673   6.760   3.626   4.521  0.2209 -0.0206  0.1369
   13MOL0     C 1674   6.853   3.632   4.626 -0.0253  0.4240  0.4605
   13MOL0     C 1675   7.247   3.647   4.832  0.1305 -0.3747  0.2979
   13MOL0     C 1676   7.291   3.725   4.942 -1.0336 -0.6326 -0.0351
   13MOL0     C 1677   7.402   3.686   5.019  0.5059  0.4158  0.8585
   13MOL0     C 1678   7.477   3.577   4.997  0.4564 -0.3860  0.7637
   13MOL0     O 1679   7.594   3.562   5.069 -0.5357 -0.7311  0.5395
   13MOL0     C 1680   7.641   3.427   5.094 -0.2333 -0.3154 -0.4549
   13MOL0     C 1681   7.744   3.438   5.199 -1.2114 -0.1973 -0.5042
   13MOL0     C 1682   7.809   3.295   5.222 -0.1975 -0.1591  0.7663
   13MOL0     C 1683   7.946   3.301   5.288  0.4387 -0.0408 -0.0531
   13MOL0     C 1684   7.924   3.269   5.426 -0.9810 -0.1118  0.2332
   13MOL0     C 1685   7.919   3.223   5.536  0.6430  0.1555  0.0558
   13MOL0     C 1686   7.435   3.497   4.891 -0.6875 -0.4314 -1.0228
   13MOL0     C 1687   7.330   3.534   4.806 -0.8505  0.3061  0.6065
   13MOL0     H 1688   7.124   3.535   4.438  0.5955  0.0788  2.5047
   13MOL0     H 1689   6.971   3.556   4.261  1.5059  2.3724  0.3062
   13MOL0     H 1690   6.730   3.818   4.316  2.3577  1.5492 -2.9985
   13MOL0     H 1691   6.677   3.773   4.154 -0.3682  3.2327  0.7222
   13MOL0     H 1692   6.454   3.759   4.197 -0.4753 -2.9611  1.1066
   13MOL0     H 1693   6.482   3.696   4.358 -0.8740 -3.6321 -3.0141
   13MOL0     H 1694   6.557   3.942   4.418  0.9529 -2.2846  2.2804
   13MOL0     H 1695   6.491   3.965   4.247 -3.3089  0.3802  0.8200
   13MOL0     H 1696   6.275   3.878   4.298  1.3585 -1.9957 -1.0392
   13MOL0     H 1697   6.320   3.830   4.453  2.3920  0.5630  1.8363
   13MOL0     H 1698   6.383   4.061   4.521  2.8418 -0.3394 -1.7262
   13MOL0     H 1699   6.332   4.123   4.361  1.8060  0.0651 -0.1713
   13MOL0     H 1700   6.149   3.984   4.543  1.4802  0.2553  2.0114
   13MOL0     H 1701   6.179   4.168   4.538  0.9880 -0.1406  0.5129
   13MOL0     H 1702   6.099   4.170   4.310 -1.1206  0.1296 -2.5271
   13MOL0     H 1703   6.086   3.988   4.307 -3.9462  0.0023 -0.7266
   13MOL0     H 1704   5.918   4.198   4.447  1.0875  1.6914 -1.5898
   13MOL0     H 1705   5.900   4.021   4.479 -0.8772  1.0842 -0.1352
   13MOL0     H 1706   5.923   3.933   4.153  1.1700  0.2279  2.2397
   13MOL0     H 1707   5.786   3.931   3.930  1.2176  1.8906  0.3962
   13MOL0     H 1708   5.636   3.876   4.010 -0.2777 -0.3729  0.6851
   13MOL0     H 1709   5.515   4.060   3.939 -0.5005 -1.1368  0.1468
   13MOL0     H 1710   5.561   3.967   3.799 -1.4398  0.8153  0.2606
   13MOL0     H 1711   5.740   4.109   3.745  0.1341  1.1902 -1.0216
   13MOL0     H 1712   5.726   4.208   3.880  4.0014  0.1232 -2.2147
   13MOL0     H 1713   5.644   4.324   3.679 -1.3109 -0.5773 -1.5236
   13MOL0     H 1714   5.498   4.269   3.772 -0.3928 -1.0855 -0.3395
   13MOL0     H 1715   5.318   4.179   3.713  2.3581  2.3210  1.2306
   13MOL0     H 1716   5.109   4.248   3.742  0.2633 -1.8832  0.1394
   13MOL0     H 1717   5.017   4.349   3.634  3.1079  1.1159  1.4343
   13MOL0     H 1718   4.995   4.176   3.624 -0.6408 -0.5360  2.5857
   13MOL0     H 1719   4.724   4.263   3.426  1.6194  2.8394  0.5530
   13MOL0     H 1720   4.526   4.316   3.275  0.2138 -2.5261 -1.2618
   13MOL0     H 1721   4.446   4.227   3.089  1.3384 -1.1208 -2.2030
   13MOL0     H 1722   4.339   4.375   3.102  0.2279  0.7027 -2.0261
   13MOL0     H 1723   4.370   4.405   2.853 -1.1164 -0.4698  3.1223
   13MOL0     H 1724   4.493   4.287   2.867  0.7294  1.1871  0.8966
   13MOL0     H 1725   4.317   4.114   2.926  1.9986 -0.1164  0.7225
   13MOL0     H 1726   4.300   4.169   2.764 -1.0040 -0.1411  0.6443
   13MOL0     H 1727   4.089   4.162   2.891  2.1585 -0.7160 -0.4784
   13MOL0     H 1728   4.160   4.247   3.026  0.0064 -2.7607  0.6770
   13MOL0     H 1729   4.064   4.376   2.769 -0.5345  0.7412  0.4781
   13MOL0     H 1730   4.172   4.463   2.880 -0.9603  1.1086  0.5851
   13MOL0     H 1731   3.896   4.353   2.944  0.5732 -0.2529  1.2491
   13MOL0     H 1732   3.993   4.421   3.060 -1.6620  1.0386 -0.1818
   13MOL0     H 1733   3.836   4.563   2.954 -0.2696 -0.5656 -0.4421
   13MOL0     H 1734   3.949   4.604   2.819 -0.9452  0.0465  0.1397
   13MOL0     H 1735   4.027   4.758   2.961 -1.8664  0.1500  1.1321
   13MOL0     H 1736   4.119   4.623   3.017 -0.0005  0.8711 -0.5609
   13MOL0     H 1737   4.789   4.429   2.960 -3.1683  4.2838  0.6241
   13MOL0     H 1738   4.968   4.316   3.073  0.2208  1.3615 -1.6029
   13MOL0     H 1739   5.339   4.336   3.244 -3.6205 -2.3906 -1.2512
   13MOL0     H 1740   5.527   4.311   3.346 -2.6721 -0.2582 -3.1454
   13MOL0     H 1741   6.664   3.669   4.545  1.1252  1.4469  1.3307
   13MOL0     H 1742   6.829   3.683   4.720 -0.8595  0.6547  0.1286
   13MOL0     H 1743   7.245   3.820   4.967 -0.3371 -0.8610  2.3543
   13MOL0     H 1744   7.433   3.756   5.096  2.6505 -1.2947  1.6743
   13MOL0     H 1745   7.557   3.364   5.126 -1.0563  1.3586  0.8588
   13MOL0     H 1746   7.689   3.386   5.005  1.5657  0.2338  0.2080
   13MOL0     H 1747   7.713   3.486   5.292  2.4105  2.3618 -0.4048
   13MOL0     H 1748   7.828   3.501   5.167 -0.2850  1.3293  4.1284
   13MOL0     H 1749   7.832   3.260   5.121 -1.5255  1.9026 -0.3133
   13MOL0     H 1750   7.752   3.213   5.267  3.4116 -0.9796  4.3777
   13MOL0     H 1751   7.986   3.403   5.300  0.4909  0.0354 -0.7846
   13MOL0     H 1752   8.018   3.231   5.245 -1.9921 -3.0456  0.4442
   13MOL0     H 1753   7.908   3.178   5.633  1.7694  3.3601  1.7919
   13MOL0     H 1754   7.486   3.402   4.879  0.0554 -0.9566  4.0247
   13MOL0     H 1755   7.309   3.467   4.723 -3.7789  0.3483  1.2036
   14MOL0     O 1756   2.831   8.340   7.110 -0.5718 -0.0261 -0.1136
   14MOL0     C 1757   2.891   8.333   7.220  0.0121  0.6829 -0.5333
   14MOL0     O 1758   2.886   8.225   7.304 -0.2915  0.8662 -0.0447
   14MOL0     C 1759   2.807   8.118   7.273 -0.1891 -0.9891 -0.7962
   14MOL0     C 1760   2.682   8.124   7.227  0.3685 -0.7868  0.8354
   14MOL0     C 1761   2.614   8.005   7.204 -0.2898  0.5374 -0.0483
   14MOL0     C 1762   2.660   7.881   7.240  0.5541 -0.1084 -0.3714
   14MOL0     O 1763   2.575   7.777   7.221 -0.0205 -0.3089 -0.1782
   14MOL0     C 1764   2.629   7.642   7.234  1.0030 -0.2562  0.5984
   14MOL0     C 1765   2.530   7.551   7.163 -0.0039  0.2773 -0.7771
   14MOL0     C 1766   2.376   7.565   7.211  0.1938  0.5990 -0.5498
   14MOL0     C 1767   2.297   7.435   7.198  0.8923 -0.6669  0.9430
   14MOL0     C 1768   2.144   7.438   7.252  0.1256  0.2844  0.3708
   14MOL0     C 1769   2.072   7.299   7.252 -0.3256  0.0531 -0.2188
   14MOL0     C 1770   2.072   7.228   7.114 -0.1954  0.5065 -0.5111
   14MOL0     C 1771   1.985   7.105   7.113 -0.2792 -0.2435 -0.1986
   14MOL0     N 1772   1.841   7.134   7.121  0.4305 -0.0435 -0.2395
   14MOL0     C 1773   1.743   7.055   7.188 -1.0615  0.0671  0.2315
   14MOL0     C 1774   1.621   7.100   7.148  0.8281  0.2822 -0.6044
   14MOL0     C 1775   1.476   7.055   7.163 -0.3137  0.4169  0.0636
   14MOL0     C 1776   1.448   6.950   7.277 -0.5423 -0.7307 -0.5920
   14MOL0     C 1777   1.512   6.968   7.415  0.4904  0.2061  0.8319
   14MOL0     C 1778   1.468   7.094   7.492 -0.4840 -0.5047 -0.8394
   14MOL0     O 1779   1.548   7.099   7.612  0.6067 -0.0050  0.2163
   14MOL0     C 1780   1.568   7.225   7.662  0.5752  1.0471  0.0864
   14MOL0     C 1781   1.530   7.243   7.799 -0.3516  0.7340  0.0560
   14MOL0     C 1782   1.562   7.355   7.877 -0.7680 -0.7790 -0.1861
   14MOL0     C 1783   1.534   7.353   8.028 -0.4210  0.0357 -1.1123
   14MOL0     C 1784   1.621   7.462   7.804  0.4573  0.5399  0.2455
   14MOL0     C 1785   1.664   7.588   7.869  0.3156  0.1444 -0.5387
   14MOL0     O 1786   1.690   7.690   7.785 -0.0698 -0.1108 -0.6272
   14MOL0     C 1787   1.753   7.803   7.838  1.0847  0.6767 -0.6055
   14MOL0     C 1788   1.692   7.924   7.811  0.5868 -1.2210 -0.3914
   14MOL0     C 1789   1.763   8.041   7.834  0.3956 -0.3908  0.1180
   14MOL0     C 1790   1.901   8.047   7.866  0.5756  0.4240 -0.3062
   14MOL0     O 1791   1.968   8.168   7.858 -0.1098  0.1734  0.2055
   14MOL0     C 1792   2.103   8.180   7.911  0.2304  0.4243  0.5115
   14MOL0     C 1793   2.126   8.336   7.931  0.5423  1.7913  0.2133
   14MOL0     C 1794   2.054   8.393   8.045 -0.2815  0.7191  0.3278
   14MOL0     C 1795   1.997   8.530   8.039  0.3975 -0.0155 -1.0051
   14MOL0     C 1796   1.904   8.551   8.159 -0.1824  0.1691 -0.8551
   14MOL0     C 1797   1.880   8.703   8.181 -0.1273 -0.2005 -0.1534
   14MOL0     C 1798   1.765   8.735   8.276  0.0554  1.1816  0.0245
   14MOL0     C 1799   1.635   8.677   8.226 -0.2162 -0.2329 -0.3781
   14MOL0    Cl 1800   1.493   8.752   8.320 -0.2936 -0.4285 -0.1597
   14MOL0     C 1801   1.961   7.926   7.885 -0.1972 -0.0090  0.1696
   14MOL0     C 1802   1.887   7.806   7.874  0.2400 -0.4515  0.1753
   14MOL0     O 1803   1.679   7.596   7.991  0.2937  0.3273  1.4127
   14MOL0     C 1804   1.638   7.450   7.670  0.4613 -0.2719  0.7913
   14MOL0     C 1805   1.626   7.329   7.595  0.6156  0.4396  0.3596
   14MOL0     N 1806   1.653   7.210   7.070 -0.6409  0.3650  1.2889
   14MOL0     N 1807   1.782   7.228   7.048 -0.6073 -0.3916  0.2822
   14MOL0     C 1808   2.792   7.876   7.289 -1.0221  1.3538  0.5963
   14MOL0     C 1809   2.871   7.993   7.307  0.6484  1.1686 -0.1896
   14MOL0     C 1810   2.943   8.460   7.275  0.6032 -1.4426  0.2359
   14MOL0     C 1811   2.957   8.482   7.414  0.0429  0.6316 -0.0993
   14MOL0     C 1812   3.020   8.598   7.460 -0.7339 -0.0642  0.0568
   14MOL0     C 1813   3.068   8.697   7.379 -0.0640  0.5423 -0.1311
   14MOL0     O 1814   3.145   8.797   7.440  0.3739  0.2285 -0.5034
   14MOL0     C 1815   3.285   8.765   7.447 -0.5597 -0.2987  0.6209
   14MOL0     C 1816   3.356   8.855   7.543 -0.1150  0.3228 -0.0892
   14MOL0     C 1817   3.281   8.855   7.686 -0.4099 -0.1548  0.9907
   14MOL0     C 1818   3.339   8.740   7.776  0.1214 -0.7143  0.2675
   14MOL0     C 1819   3.301   8.597   7.740  0.1991 -0.9235 -0.1664
   14MOL0     C 1820   3.261   8.492   7.699  0.4452 -0.5150  0.0294
   14MOL0     C 1821   3.047   8.690   7.243  0.0735  0.2536  0.2231
   14MOL0     C 1822   2.980   8.575   7.187 -0.3296 -1.2574 -1.0349
   14MOL0     H 1823   2.628   8.217   7.208  4.7460  1.3739 -3.5595
   14MOL0     H 1824   2.519   8.011   7.152  0.9128  0.6252 -2.3608
   14MOL0     H 1825   2.726   7.634   7.186  1.2080 -1.5693  1.1786
   14MOL0     H 1826   2.632   7.610   7.339 -1.5281 -0.6888  0.6096
   14MOL0     H 1827   2.548   7.572   7.057 -1.3402  0.1379 -1.0457
   14MOL0     H 1828   2.561   7.449   7.188 -1.5139  0.2089  1.0271
   14MOL0     H 1829   2.373   7.586   7.318  2.1217 -2.7907  0.3053
   14MOL0     H 1830   2.325   7.650   7.164  2.1135  1.8643 -0.4440
   14MOL0     H 1831   2.292   7.417   7.090  2.2310  2.2101  0.3133
   14MOL0     H 1832   2.354   7.355   7.246  0.8803 -1.8926 -0.9579
   14MOL0     H 1833   2.138   7.487   7.350  0.6934  1.7808 -0.3177
   14MOL0     H 1834   2.090   7.505   7.185 -2.0341 -1.3333  0.3984
   14MOL0     H 1835   2.129   7.236   7.321 -0.9504  1.2459  1.4353
   14MOL0     H 1836   1.968   7.315   7.283 -1.4930 -1.3556 -3.0115
   14MOL0     H 1837   2.039   7.301   7.040 -0.8195 -0.4268 -1.1842
   14MOL0     H 1838   2.170   7.187   7.087 -1.6352 -2.8293 -1.2917
   14MOL0     H 1839   1.997   7.033   7.195  0.3983  0.8052  0.6437
   14MOL0     H 1840   1.997   7.043   7.024  0.5865  1.9989 -1.7240
   14MOL0     H 1841   1.772   6.967   7.244  2.1543  1.9888  1.8832
   14MOL0     H 1842   1.418   7.142   7.193 -0.0537  1.5979 -2.5515
   14MOL0     H 1843   1.436   7.023   7.066  0.0806  2.5460 -0.8544
   14MOL0     H 1844   1.477   6.850   7.244 -1.5812 -1.0397 -0.6116
   14MOL0     H 1845   1.339   6.947   7.286 -0.5012  0.6012  0.8594
   14MOL0     H 1846   1.620   6.973   7.400  0.3334 -0.8414 -0.8349
   14MOL0     H 1847   1.478   6.878   7.468 -2.9829 -0.7154 -2.5290
   14MOL0     H 1848   1.361   7.093   7.512 -0.0766 -0.8412  1.7808
   14MOL0     H 1849   1.486   7.186   7.435  1.2413 -0.0419  0.3483
   14MOL0     H 1850   1.495   7.155   7.851 -0.0327  1.1553  1.0107
   14MOL0     H 1851   1.486   7.256   8.041 -1.0227  0.5492  0.7492
   14MOL0     H 1852   1.631   7.348   8.077 -1.0495 -1.7949  0.0220
   14MOL0     H 1853   1.481   7.437   8.076  1.1874 -0.0002  0.8363
   14MOL0     H 1854   1.599   7.929   7.756  1.5536 -1.3899 -2.1224
   14MOL0     H 1855   1.707   8.132   7.818 -0.9768 -1.1965  0.1046
   14MOL0     H 1856   2.115   8.135   8.010 -3.1186  0.4997  1.0572
   14MOL0     H 1857   2.176   8.129   7.848  0.0551  0.3565  0.3620
   14MOL0     H 1858   2.235   8.351   7.935  1.0364 -1.1630  0.3312
   14MOL0     H 1859   2.087   8.370   7.835 -1.9539  0.1260  0.5650
   14MOL0     H 1860   2.130   8.408   8.122 -0.9391  0.7945  0.9775
   14MOL0     H 1861   1.975   8.327   8.084  1.4941 -0.2448  2.5636
   14MOL0     H 1862   2.070   8.612   8.034  0.9172 -0.4724 -0.9630
   14MOL0     H 1863   1.939   8.541   7.947  1.5247 -1.0246 -1.8740
   14MOL0     H 1864   1.953   8.517   8.250 -0.5743 -0.1077 -0.7461
   14MOL0     H 1865   1.817   8.488   8.140  0.4774 -0.9654 -0.2241
   14MOL0     H 1866   1.969   8.753   8.221 -1.6016 -0.3445  3.7761
   14MOL0     H 1867   1.862   8.754   8.087 -0.8777 -1.9961 -1.0429
   14MOL0     H 1868   1.756   8.844   8.284 -2.5645  1.0105  0.1151
   14MOL0     H 1869   1.770   8.690   8.375  0.3822  0.4436 -0.3151
   14MOL0     H 1870   1.622   8.569   8.231  1.2509 -0.3803  0.9867
   14MOL0     H 1871   1.623   8.696   8.119  1.0562  1.9210 -0.1987
   14MOL0     H 1872   2.067   7.917   7.902  0.0431  0.6888 -0.8739
   14MOL0     H 1873   1.928   7.707   7.894  1.4805 -0.8319 -3.4195
   14MOL0     H 1874   1.678   7.536   7.616 -2.6578  1.5343  1.1344
   14MOL0     H 1875   1.654   7.322   7.491  0.7744 -2.2071  0.5174
   14MOL0     H 1876   2.828   7.781   7.327 -5.8247 -0.8423  0.4464
   14MOL0     H 1877   2.972   7.981   7.343  0.4993 -1.7731 -0.5547
   14MOL0     H 1878   2.907   8.412   7.481 -0.4941 -1.5327 -2.6230
   14MOL0     H 1879   3.045   8.616   7.564 -1.6094  0.1697  0.2316
   14MOL0     H 1880   3.295   8.660   7.477 -3.0176 -0.8144 -0.1355
   14MOL0     H 1881   3.324   8.778   7.346  1.0927  1.8881  1.4522
   14MOL0     H 1882   3.359   8.950   7.490  1.6161 -0.0410 -0.6926
   14MOL0     H 1883   3.460   8.823   7.551 -0.5583 -1.3140 -0.4184
   14MOL0     H 1884   3.171   8.858   7.686 -0.4405 -0.9627  1.4033
   14MOL0     H 1885   3.309   8.948   7.736 -1.3909  0.6121  0.1647
   14MOL0     H 1886   3.292   8.771   7.870  2.6772  6.8520 -0.3012
   14MOL0     H 1887   3.447   8.743   7.792  0.6516 -3.2354 -2.0786
   14MOL0     H 1888   3.242   8.397   7.652  0.5428  0.7457 -2.8031
   14MOL0     H 1889   3.065   8.769   7.172 -2.0435  0.8736  0.3094
   14MOL0     H 1890   2.966   8.572   7.079  1.0700 -1.5350 -1.2345
   15MOL0     O 1891   3.808   1.001  10.457  0.6168  0.0546 -0.2745
   15MOL0     C 1892   3.740   0.925  10.388 -0.5632 -0.9994  0.4530
   15MOL0     O 1893   3.760   0.798  10.384 -0.7593  0.2758 -0.0271
   15MOL0     C 1894   3.852   0.738  10.472  0.9601  0.0246 -0.1904
   15MOL0     C 1895   3.988   0.764  10.477  1.2475 -1.0140 -0.1924
   15MOL0     C 1896   4.075   0.698  10.563 -0.7608 -0.3357 -0.6074
   15MOL0     C 1897   4.036   0.590  10.641  1.3229  0.4804  0.0511
   15MOL0     O 1898   4.114   0.505  10.709  0.5939  0.2233 -0.4437
   15MOL0     C 1899   4.254   0.531  10.723  0.3427 -0.7576 -0.1204
   15MOL0     C 1900   4.331   0.443  10.811 -0.1684  0.0639 -0.9730
   15MOL0     C 1901   4.475   0.507  10.824  0.1995 -0.0161  0.4726
   15MOL0     C 1902   4.557   0.413  10.919  0.1142 -0.8687  0.1652
   15MOL0     C 1903   4.682   0.495  10.957 -0.1854  1.1738  0.7283
   15MOL0     C 1904   4.755   0.396  11.052  1.0197  0.0449 -0.5041
   15MOL0     C 1905   4.893   0.444  11.112  0.6008  0.4069  0.0405
   15MOL0     C 1906   4.970   0.337  11.178  0.6220  0.1607 -0.8891
   15MOL0     N 1907   4.890   0.276  11.283  0.7385  0.2901 -0.2122
   15MOL0     C 1908   4.811   0.329  11.389 -0.1060  0.4876  0.9935
   15MOL0     C 1909   4.777   0.227  11.467 -0.3844 -1.2049  0.1257
   15MOL0     C 1910   4.695   0.239  11.590 -0.1952 -0.3086  0.4813
   15MOL0     C 1911   4.590   0.135  11.586  0.3885 -0.7260 -0.3419
   15MOL0     C 1912   4.492   0.171  11.709 -0.1529  0.0909  0.1575
   15MOL0     C 1913   4.424   0.055  11.782  0.9338  0.1216  0.7070
   15MOL0     O 1914   4.342  -0.014  11.691 -0.7328 -0.1151  0.2166
   15MOL0     C 1915   4.216   0.039  11.661  0.3836 -0.7230  0.5237
   15MOL0     C 1916   4.151  -0.024  11.556 -0.0408  0.1398  0.5821
   15MOL0     C 1917   4.024   0.014  11.513 -1.2227 -0.1242 -0.7730
   15MOL0     C 1918   3.968  -0.043  11.380  0.0563  0.2474  0.6408
   15MOL0     C 1919   3.953   0.120  11.589  0.3752  0.5291 -0.4745
   15MOL0     C 1920   3.818   0.164  11.564 -0.2840 -0.9598  0.1418
   15MOL0     O 1921   3.795   0.297  11.595  0.6329  0.1154  0.1965
   15MOL0     C 1922   3.693   0.366  11.530 -0.8139  0.8137  0.2950
   15MOL0     C 1923   3.670   0.373  11.393 -0.0488 -0.3295  0.0618
   15MOL0     C 1924   3.585   0.472  11.345  0.6394  0.4129  0.2441
   15MOL0     C 1925   3.532   0.574  11.421  0.0665  1.5701 -0.0592
   15MOL0     O 1926   3.456   0.678  11.379  0.1208 -0.2036  0.1671
   15MOL0     C 1927   3.449   0.707  11.239  0.4858 -0.3848  0.3277
   15MOL0     C 1928   3.327   0.791  11.214 -1.4393  0.2614  0.9047
   15MOL0     C 1929   3.204   0.697  11.222  0.2248 -0.2105  1.0871
   15MOL0     C 1930   3.072   0.768  11.219  0.7474 -0.0426  0.6381
   15MOL0     C 1931   2.949   0.674  11.243 -1.3520 -1.2349  0.4087
   15MOL0     C 1932   2.926   0.578  11.129 -0.3862  1.0447  0.7133
   15MOL0     C 1933   2.773   0.551  11.115  1.0008 -0.0162 -0.1048
   15MOL0     C 1934   2.700   0.606  10.990 -0.8432  0.8253  0.1712
   15MOL0    Cl 1935   2.791   0.574  10.834  0.5914 -0.3602 -0.4759
   15MOL0     C 1936   3.553   0.562  11.556  0.2479  0.3391 -0.9469
   15MOL0     C 1937   3.628   0.455  11.610 -0.2879 -0.0677 -0.2647
   15MOL0     O 1938   3.734   0.089  11.514  0.0242 -0.0974  0.1046
   15MOL0     C 1939   4.021   0.171  11.701 -0.6904  0.1758  0.9195
   15MOL0     C 1940   4.151   0.130  11.742  0.5719 -0.2872  0.5806
   15MOL0     N 1941   4.847   0.118  11.414  0.0947  0.5268 -0.2831
   15MOL0     N 1942   4.915   0.147  11.304  0.1016 -1.1471 -0.0765
   15MOL0     C 1943   3.897   0.551  10.635 -0.7569  0.1655  0.2227
   15MOL0     C 1944   3.813   0.629  10.554  0.3199 -0.3385  0.8401
   15MOL0     C 1945   3.605   0.973  10.335 -0.5825  0.4617  0.3708
   15MOL0     C 1946   3.572   1.110  10.313 -0.8396  0.2227 -0.7974
   15MOL0     C 1947   3.451   1.153  10.259  0.0658  0.3674 -1.2450
   15MOL0     C 1948   3.347   1.053  10.245  0.8892 -1.1966  0.1148
   15MOL0     O 1949   3.218   1.084  10.218 -0.1620 -0.5792 -0.3805
   15MOL0     C 1950   3.177   1.066  10.083 -0.6889  0.2312  0.3757
   15MOL0     C 1951   3.137   1.202  10.022 -0.1289  0.0426 -0.5665
   15MOL0     C 1952   3.242   1.236   9.905  0.6514 -0.5023  0.1900
   15MOL0     C 1953   3.161   1.332   9.802  0.2836 -0.1902 -0.2490
   15MOL0     C 1954   3.057   1.420   9.855 -0.6128  1.2161  0.7236
   15MOL0     C 1955   2.960   1.481   9.890 -0.3743 -0.4685  0.7008
   15MOL0     C 1956   3.378   0.920  10.260  0.3265 -0.2854  0.4615
   15MOL0     C 1957   3.501   0.878  10.313 -0.0922 -0.0420  0.1322
   15MOL0     H 1958   4.031   0.842  10.415 -0.4209  0.5802  0.5448
   15MOL0     H 1959   4.181   0.717  10.554 -0.8528  0.4291 -0.1931
   15MOL0     H 1960   4.302   0.531  10.625  2.0734  2.4547  0.6043
   15MOL0     H 1961   4.253   0.636  10.753 -2.4864 -0.7882  0.1290
   15MOL0     H 1962   4.279   0.439  10.907  1.1937  2.7451 -0.0075
   15MOL0     H 1963   4.346   0.344  10.766  4.0670 -0.4415  1.0152
   15MOL0     H 1964   4.517   0.497  10.723  0.3694 -3.1456  0.7610
   15MOL0     H 1965   4.474   0.611  10.858  0.7636  1.2431 -2.9251
   15MOL0     H 1966   4.509   0.382  11.012  1.1972 -0.5943  0.8218
   15MOL0     H 1967   4.585   0.319  10.871 -1.3108 -0.9364 -0.5955
   15MOL0     H 1968   4.739   0.509  10.865  0.6884 -0.4005  0.9997
   15MOL0     H 1969   4.660   0.594  10.997 -1.2804  0.6024  1.6038
   15MOL0     H 1970   4.679   0.385  11.129 -0.2380  5.4004 -0.5870
   15MOL0     H 1971   4.766   0.304  10.994  1.5259 -0.4469  0.3517
   15MOL0     H 1972   4.954   0.470  11.025  1.1589 -0.9592 -0.0052
   15MOL0     H 1973   4.883   0.535  11.171 -1.8389 -1.2918  2.4888
   15MOL0     H 1974   5.066   0.371  11.218  1.5356 -2.6142 -0.4966
   15MOL0     H 1975   4.995   0.265  11.099 -2.0961 -0.9169 -0.8499
   15MOL0     H 1976   4.779   0.432  11.402 -1.6340  0.0516  0.8551
   15MOL0     H 1977   4.762   0.230  11.676 -1.5946  1.3040  1.8156
   15MOL0     H 1978   4.637   0.331  11.601 -3.8364 -2.3683 -0.0013
   15MOL0     H 1979   4.636   0.038  11.608  0.3880 -0.9377 -1.2409
   15MOL0     H 1980   4.520   0.129  11.502 -1.7649 -2.6906  1.4598
   15MOL0     H 1981   4.419   0.246  11.676  1.4642  1.6761  0.0079
   15MOL0     H 1982   4.548   0.220  11.790 -0.0529  0.8935 -0.3842
   15MOL0     H 1983   4.369   0.088  11.871  1.6387  0.2284  1.1123
   15MOL0     H 1984   4.501  -0.011  11.822 -0.9775 -3.9478 -1.7678
   15MOL0     H 1985   4.214  -0.093  11.502  5.3515  4.1991  0.9217
   15MOL0     H 1986   3.896  -0.115  11.419 -0.2496  0.2674  0.1186
   15MOL0     H 1987   3.914   0.024  11.314  0.9423  0.9426  0.5993
   15MOL0     H 1988   4.040  -0.100  11.320 -2.5367 -0.7175 -1.7467
   15MOL0     H 1989   3.719   0.306  11.323 -0.9685 -0.3759 -0.5469
   15MOL0     H 1990   3.570   0.479  11.238 -1.2561 -0.4269  0.4190
   15MOL0     H 1991   3.534   0.768  11.208  0.4552  0.7900  2.3605
   15MOL0     H 1992   3.437   0.611  11.188  1.8273 -1.2844  1.5815
   15MOL0     H 1993   3.323   0.863  11.295  0.5772  1.8665 -0.3559
   15MOL0     H 1994   3.321   0.821  11.109 -1.5569 -2.7931 -0.0782
   15MOL0     H 1995   3.214   0.638  11.314 -0.1149 -1.0042  0.6317
   15MOL0     H 1996   3.210   0.623  11.141 -1.7506 -1.1814  1.7541
   15MOL0     H 1997   3.059   0.839  11.301 -1.2708 -0.9794  1.1916
   15MOL0     H 1998   3.069   0.829  11.128  3.9198  1.0200  1.1132
   15MOL0     H 1999   2.869   0.747  11.254 -0.3751 -0.0228 -0.2019
   15MOL0     H 2000   2.943   0.616  11.335 -1.7221 -1.2099  0.4011
   15MOL0     H 2001   2.957   0.618  11.032 -3.7800 -0.5226 -1.2310
   15MOL0     H 2002   2.982   0.485  11.144 -3.4839 -0.7740  1.8896
   15MOL0     H 2003   2.720   0.596  11.199 -0.2858 -2.5136  0.5182
   15MOL0     H 2004   2.745   0.445  11.120  0.9438  0.0473  2.6013
   15MOL0     H 2005   2.692   0.714  11.001  2.2811  1.4773 -2.1599
   15MOL0     H 2006   2.601   0.562  10.986  0.0634 -1.2732 -1.6733
   15MOL0     H 2007   3.514   0.640  11.621  0.1765 -1.1893  0.9473
   15MOL0     H 2008   3.666   0.448  11.712  1.7292 -1.5287 -1.0698
   15MOL0     H 2009   3.984   0.255  11.760  0.3998  0.5455  1.1091
   15MOL0     H 2010   4.179   0.177  11.837  2.2549 -1.5270  0.7546
   15MOL0     H 2011   3.866   0.468  10.698 -1.3696  0.3895  0.2163
   15MOL0     H 2012   3.707   0.605  10.556 -0.5556  2.8650 -0.5733
   15MOL0     H 2013   3.654   1.181  10.315 -0.7143  0.0756  0.9302
   15MOL0     H 2014   3.413   1.249  10.226  1.2705  0.0725 -3.6438
   15MOL0     H 2015   3.264   1.026  10.029  1.0672  3.3596  0.6385
   15MOL0     H 2016   3.101   0.989  10.076  0.0851 -0.6361  1.3061
   15MOL0     H 2017   3.134   1.278  10.101 -3.5995 -0.6820  0.1661
   15MOL0     H 2018   3.035   1.186   9.986 -0.1149  0.6348 -0.8810
   15MOL0     H 2019   3.264   1.145   9.848  1.1927 -0.1624 -0.1472
   15MOL0     H 2020   3.336   1.275   9.942 -0.2421  1.2515  0.7140
   15MOL0     H 2021   3.102   1.267   9.737  1.0720 -0.7835 -0.3878
   15MOL0     H 2022   3.226   1.386   9.732  2.2519 -0.4932  1.2365
   15MOL0     H 2023   2.882   1.549   9.917  0.0087  0.3645 -0.1969
   15MOL0     H 2024   3.290   0.858  10.245 -0.8669  1.1579  1.1173
   15MOL0     H 2025   3.522   0.773  10.332 -2.3660 -0.3807  1.1235
   16MOL0     O 2026   7.709   2.365   3.234 -0.6591  0.5069 -0.6273
   16MOL0     C 2027   7.741   2.478   3.209 -0.6340  0.0791  0.1084
   16MOL0     O 2028   7.675   2.556   3.118  0.2954 -0.3774 -0.0172
   16MOL0     C 2029   7.612   2.507   3.004 -0.2793  0.5373  0.3727
   16MOL0     C 2030   7.517   2.586   2.949 -0.0718 -0.5635  0.3961
   16MOL0     C 2031   7.467   2.563   2.820  0.3771  0.3797  0.3565
   16MOL0     C 2032   7.492   2.439   2.756 -0.6156 -0.1964  0.3617
   16MOL0     O 2033   7.437   2.411   2.633  0.1711  0.2619  0.7521
   16MOL0     C 2034   7.296   2.407   2.626 -0.7601  0.8006 -0.2013
   16MOL0     C 2035   7.251   2.267   2.614  0.2884 -0.1924  0.0344
   16MOL0     C 2036   7.108   2.280   2.572  0.2882 -0.4497  0.2452
   16MOL0     C 2037   7.036   2.145   2.605 -0.2037 -0.2504 -1.0539
   16MOL0     C 2038   7.021   2.042   2.491 -0.6165 -0.7124 -0.4437
   16MOL0     C 2039   6.872   2.032   2.434  0.0851  0.8433 -0.6917
   16MOL0     C 2040   6.771   1.998   2.544 -1.4833 -0.5593 -1.0814
   16MOL0     C 2041   6.657   1.908   2.511  0.0431  0.7655 -0.5303
   16MOL0     N 2042   6.543   1.920   2.605 -0.1301 -0.1400  1.7224
   16MOL0     C 2043   6.517   1.843   2.716  0.3776 -0.5572 -0.3991
   16MOL0     C 2044   6.426   1.917   2.781 -0.1593  0.1963  0.3590
   16MOL0     C 2045   6.352   1.879   2.904 -1.1819 -0.4115 -0.7889
   16MOL0     C 2046   6.206   1.877   2.864  0.5064 -0.3469  0.1020
   16MOL0     C 2047   6.113   1.838   2.978 -0.2308  0.3788  0.0368
   16MOL0     C 2048   5.972   1.829   2.927  0.0401  0.6767  0.9474
   16MOL0     O 2049   5.902   1.759   3.028  0.2876  0.5301  0.7412
   16MOL0     C 2050   5.840   1.849   3.109  0.1734 -0.1389 -0.7407
   16MOL0     C 2051   5.745   1.941   3.064 -0.6905 -0.5287 -0.1347
   16MOL0     C 2052   5.669   2.022   3.136  0.0338 -0.3533 -1.6968
   16MOL0     C 2053   5.560   2.097   3.065 -0.7363 -0.2203 -0.4287
   16MOL0     C 2054   5.694   2.013   3.278  0.8371  0.6547 -0.2783
   16MOL0     C 2055   5.613   2.090   3.380 -0.5007 -0.4243 -0.3779
   16MOL0     O 2056   5.569   2.214   3.340 -1.1454 -0.2490 -0.2989
   16MOL0     C 2057   5.488   2.294   3.409  0.5443  0.5092 -0.5609
   16MOL0     C 2058   5.478   2.300   3.546 -0.3033  0.2838  0.7667
   16MOL0     C 2059   5.376   2.368   3.615 -0.0850  0.2586 -0.3774
   16MOL0     C 2060   5.292   2.459   3.548 -0.3611 -0.2110 -0.1585
   16MOL0     O 2061   5.205   2.528   3.622  0.9161 -0.2350 -0.0029
   16MOL0     C 2062   5.122   2.630   3.558  0.8726 -0.0405 -0.2852
   16MOL0     C 2063   5.019   2.574   3.457  0.5845 -0.1075  0.9678
   16MOL0     C 2064   4.874   2.613   3.503  1.0486 -0.2045  0.3543
   16MOL0     C 2065   4.782   2.538   3.412 -0.1709 -0.4875  0.6481
   16MOL0     C 2066   4.635   2.571   3.442 -0.1088 -0.4845 -0.0653
   16MOL0     C 2067   4.541   2.462   3.391  0.2602  0.0431 -2.1360
   16MOL0     C 2068   4.554   2.433   3.244  0.2438  0.7985  0.3299
   16MOL0     C 2069   4.452   2.345   3.180 -0.0928 -0.2101  0.4073
   16MOL0    Cl 2070   4.443   2.196   3.286 -0.1010 -0.4149 -0.2515
   16MOL0     C 2071   5.307   2.460   3.404  0.4567 -0.4387 -0.0248
   16MOL0     C 2072   5.398   2.375   3.341 -0.4510 -0.5071 -0.3625
   16MOL0     O 2073   5.575   2.030   3.483 -0.2571  0.2433 -0.1353
   16MOL0     C 2074   5.802   1.932   3.327 -0.1715  0.0567 -0.0241
   16MOL0     C 2075   5.870   1.842   3.245 -0.6461  0.0717  0.5226
   16MOL0     N 2076   6.387   2.022   2.711  0.4184 -0.1461  0.4526
   16MOL0     N 2077   6.462   2.028   2.597  0.4604 -0.4374 -0.1359
   16MOL0     C 2078   7.575   2.348   2.829  0.9737 -0.9545 -0.3574
   16MOL0     C 2079   7.637   2.383   2.953  0.2419  0.4758  0.6046
   16MOL0     C 2080   7.867   2.543   3.259 -0.4352 -0.6625  0.1482
   16MOL0     C 2081   7.942   2.470   3.359  0.2011  0.0847 -0.4921
   16MOL0     C 2082   8.055   2.526   3.418  0.1867  0.5494  0.1183
   16MOL0     C 2083   8.117   2.644   3.374  0.4140 -0.0189  0.0552
   16MOL0     O 2084   8.221   2.690   3.441  0.2037  0.0831  0.3604
   16MOL0     C 2085   8.335   2.706   3.362  0.2071 -0.9187 -0.3179
   16MOL0     C 2086   8.445   2.726   3.469  1.2275  0.3906 -0.1722
   16MOL0     C 2087   8.579   2.682   3.405 -0.6579  0.0594  0.0087
   16MOL0     C 2088   8.685   2.761   3.475  0.7731 -0.0811 -0.8636
   16MOL0     C 2089   8.820   2.743   3.438  0.3076 -0.1730  1.1448
   16MOL0     C 2090   8.927   2.704   3.394 -0.7777 -0.9548 -0.6500
   16MOL0     C 2091   8.035   2.718   3.281 -0.7923  0.0832 -0.8053
   16MOL0     C 2092   7.921   2.666   3.216 -0.1408 -0.6883  0.6236
   16MOL0     H 2093   7.498   2.668   3.018  0.2212 -3.2508  3.9625
   16MOL0     H 2094   7.406   2.638   2.769  0.2325 -0.4236 -0.6828
   16MOL0     H 2095   7.251   2.459   2.711 -0.5139  1.0210 -0.2005
   16MOL0     H 2096   7.266   2.460   2.535 -1.0204 -0.9668 -1.1803
   16MOL0     H 2097   7.305   2.218   2.533 -1.7436  1.7062 -2.6441
   16MOL0     H 2098   7.262   2.216   2.710 -0.7474 -3.7448 -1.5902
   16MOL0     H 2099   7.060   2.370   2.611  0.5950  1.1684 -2.8230
   16MOL0     H 2100   7.097   2.293   2.464  1.9726 -1.6435 -0.1222
   16MOL0     H 2101   7.089   2.097   2.689 -0.3892  3.2161  1.2483
   16MOL0     H 2102   6.941   2.158   2.658  0.7111  1.3078  0.2943
   16MOL0     H 2103   7.071   2.073   2.398 -0.5896 -0.5990 -0.3916
   16MOL0     H 2104   7.065   1.948   2.524  1.6236  0.3399 -0.2567
   16MOL0     H 2105   6.838   2.117   2.375  3.4377  1.1644 -2.4051
   16MOL0     H 2106   6.878   1.950   2.362  3.3537 -0.2085  0.6250
   16MOL0     H 2107   6.827   1.944   2.621  2.1013  1.6134 -1.8959
   16MOL0     H 2108   6.747   2.090   2.598 -1.2858 -0.9614 -0.2967
   16MOL0     H 2109   6.698   1.807   2.517  3.9358  2.1845  0.0289
   16MOL0     H 2110   6.621   1.930   2.410  0.3402 -1.8390 -1.2931
   16MOL0     H 2111   6.564   1.754   2.757 -1.7534 -3.0013 -2.9049
   16MOL0     H 2112   6.388   1.785   2.947 -0.9900  0.4968  1.1706
   16MOL0     H 2113   6.363   1.958   2.979 -4.3968  0.0593 -0.6828
   16MOL0     H 2114   6.197   1.795   2.792  1.3037 -2.8897  2.7148
   16MOL0     H 2115   6.170   1.972   2.824 -0.0384 -1.0517 -1.1423
   16MOL0     H 2116   6.134   1.911   3.057  0.5744  0.3784 -0.1640
   16MOL0     H 2117   6.141   1.740   3.016 -2.8181 -0.5024 -0.1671
   16MOL0     H 2118   5.982   1.767   2.838  1.9755  1.1708  0.7824
   16MOL0     H 2119   5.937   1.929   2.900 -0.3339  0.3706  0.2718
   16MOL0     H 2120   5.731   1.951   2.957  2.9875 -2.2979 -0.9716
   16MOL0     H 2121   5.561   2.207   3.061 -0.4226 -0.0656  2.0460
   16MOL0     H 2122   5.559   2.061   2.962 -0.8869 -0.5858 -0.2980
   16MOL0     H 2123   5.467   2.057   3.106 -0.6665 -1.2760 -1.2700
   16MOL0     H 2124   5.550   2.247   3.608  0.5703 -2.2055 -2.1740
   16MOL0     H 2125   5.376   2.363   3.724  2.1057 -1.3071 -0.3805
   16MOL0     H 2126   5.066   2.688   3.633  0.8337 -0.5182  0.0626
   16MOL0     H 2127   5.187   2.704   3.511 -1.3486  1.1681 -1.6140
   16MOL0     H 2128   5.040   2.610   3.356  0.8647  1.1364  1.4398
   16MOL0     H 2129   5.024   2.465   3.461  0.5607 -0.1182  0.7003
   16MOL0     H 2130   4.854   2.717   3.478  2.7126  0.3546  1.1916
   16MOL0     H 2131   4.855   2.592   3.609  0.6804  0.7635  0.4848
   16MOL0     H 2132   4.809   2.554   3.307 -1.5730 -4.1922 -0.4386
   16MOL0     H 2133   4.803   2.434   3.439  1.9218  0.5538  3.5980
   16MOL0     H 2134   4.603   2.664   3.395 -2.2662  0.0867  2.2959
   16MOL0     H 2135   4.625   2.578   3.551  3.3221  0.8639  0.2878
   16MOL0     H 2136   4.564   2.372   3.448  2.2862  2.1343  0.6135
   16MOL0     H 2137   4.434   2.478   3.409 -0.1721 -3.3420 -0.8886
   16MOL0     H 2138   4.648   2.378   3.230 -0.7969 -0.4982 -2.3349
   16MOL0     H 2139   4.569   2.516   3.174  0.0450 -0.6020 -1.4427
   16MOL0     H 2140   4.465   2.314   3.076 -0.8731  1.9298 -0.3888
   16MOL0     H 2141   4.354   2.393   3.177  0.6004  1.4565  2.1688
   16MOL0     H 2142   5.242   2.531   3.353  1.5569  0.0436 -0.7894
   16MOL0     H 2143   5.400   2.391   3.233  0.8170  0.7307 -0.1850
   16MOL0     H 2144   5.847   1.931   3.426  0.6325 -1.2644 -0.3671
   16MOL0     H 2145   5.949   1.770   3.267  2.3942  1.3723 -4.3591
   16MOL0     H 2146   7.600   2.257   2.776  2.4396 -0.4684 -0.5621
   16MOL0     H 2147   7.699   2.312   3.007 -0.4190  0.7277  1.7255
   16MOL0     H 2148   7.898   2.379   3.397  0.4581 -0.0718 -0.5651
   16MOL0     H 2149   8.104   2.475   3.501 -1.6623 -0.6485  0.5502
   16MOL0     H 2150   8.351   2.616   3.303 -2.3234 -0.5314 -1.7542
   16MOL0     H 2151   8.340   2.793   3.296 -0.1034 -0.0983  0.7204
   16MOL0     H 2152   8.422   2.657   3.551 -1.8265  2.9151  1.3155
   16MOL0     H 2153   8.449   2.826   3.515  0.1805 -0.3339  1.5717
   16MOL0     H 2154   8.582   2.709   3.299 -1.9060 -0.8847 -0.3029
   16MOL0     H 2155   8.603   2.577   3.425 -2.1251 -0.2864  0.0757
   16MOL0     H 2156   8.684   2.729   3.580 -0.2153 -0.1667 -0.8921
   16MOL0     H 2157   8.663   2.867   3.490  2.4729 -0.0789  2.9811
   16MOL0     H 2158   9.031   2.689   3.369 -0.5987 -1.7522  0.4941
   16MOL0     H 2159   8.081   2.808   3.242  0.7813 -0.2215  0.2448
   16MOL0     H 2160   7.858   2.723   3.149  0.6612 -2.1469 -1.4569
   17MOL0     O 2161   0.739  10.149   2.871 -1.1857 -0.5937  0.5590
   17MOL0     C 2162   0.659  10.240   2.896  0.2710  0.0697 -0.0288
   17MOL0     O 2163   0.656  10.318   3.001 -0.5230 -0.6393 -0.4503
   17MOL0     C 2164   0.763  10.329   3.088  0.3072 -0.9355 -0.5022
   17MOL0     C 2165   0.746  10.297   3.224 -0.1704  0.7260  0.5308
   17MOL0     C 2166   0.847  10.306   3.321 -0.1556  0.4609  0.4223
   17MOL0     C 2167   0.980  10.348   3.282  0.5442 -0.6520  0.6797
   17MOL0     O 2168   1.092  10.358   3.359  0.3420  0.1695  0.9976
   17MOL0     C 2169   1.098  10.293   3.485  1.3080  0.3033  0.3997
   17MOL0     C 2170   1.245  10.311   3.536 -0.2273 -0.7364  0.5571
   17MOL0     C 2171   1.287  10.466   3.536 -0.4698  0.3656 -0.4589
   17MOL0     C 2172   1.429  10.485   3.605 -0.2034  0.6365  0.6454
   17MOL0     C 2173   1.444  10.627   3.664 -1.0223 -0.0883 -0.3195
   17MOL0     C 2174   1.419  10.739   3.561  0.3166  0.3049 -1.6444
   17MOL0     C 2175   1.522  10.838   3.593 -0.0847  0.3885 -0.2277
   17MOL0     C 2176   1.526  10.966   3.508 -0.0674  0.1890 -0.4533
   17MOL0     N 2177   1.419  11.071   3.548 -0.3111  0.5842 -0.3910
   17MOL0     C 2178   1.286  11.089   3.513  0.2742 -0.2246  0.3183
   17MOL0     C 2179   1.244  11.198   3.575 -0.9910 -0.5385 -0.2761
   17MOL0     C 2180   1.110  11.263   3.554  0.8996 -0.5064  0.6075
   17MOL0     C 2181   1.014  11.199   3.659 -0.4812  0.6367 -0.3800
   17MOL0     C 2182   1.072  11.171   3.799  1.2436  0.0884  0.5789
   17MOL0     C 2183   0.971  11.117   3.902 -0.0674  0.2395 -0.4126
   17MOL0     O 2184   0.828  11.142   3.875  1.3454 -0.4731 -0.7818
   17MOL0     C 2185   0.777  11.274   3.887  0.2852 -0.6882 -0.5487
   17MOL0     C 2186   0.654  11.307   3.829  0.1360  0.7506 -0.0013
   17MOL0     C 2187   0.593  11.432   3.823 -0.1443  0.5547 -0.2302
   17MOL0     C 2188   0.453  11.446   3.750  0.5404 -0.4926 -0.8727
   17MOL0     C 2189   0.662  11.543   3.885  0.3296 -0.8643 -0.6349
   17MOL0     C 2190   0.601  11.667   3.906 -0.2387  0.6398  0.0633
   17MOL0     O 2191   0.685  11.771   3.881 -0.2544 -0.7281  0.7330
   17MOL0     C 2192   0.679  11.912   3.902 -0.3300  0.5903  0.2846
   17MOL0     C 2193   0.727  12.001   3.804 -0.1545  0.5071  0.0465
   17MOL0     C 2194   0.740  12.138   3.836 -0.5554 -0.5590 -0.1520
   17MOL0     C 2195   0.689  12.186   3.960  0.3299  0.7138 -1.3274
   17MOL0     O 2196   0.681  12.322   3.991 -0.0914 -0.2076  0.5595
   17MOL0     C 2197   0.759  12.414   3.920  0.3333  0.2863  0.6630
   17MOL0     C 2198   0.746  12.546   3.984 -0.7972  0.7881  0.1386
   17MOL0     C 2199   0.606  12.609   3.989 -0.4319  0.0318  0.4640
   17MOL0     C 2200   0.628  12.758   4.009  0.5661  0.5636 -0.5139
   17MOL0     C 2201   0.482  12.824   4.016  0.1015 -0.3255  0.1403
   17MOL0     C 2202   0.508  12.982   4.043  0.0196 -0.2930 -0.1743
   17MOL0     C 2203   0.572  13.055   3.922 -0.3652 -0.0711  0.1321
   17MOL0     C 2204   0.524  13.200   3.921  0.2384  0.5310  0.0685
   17MOL0    Cl 2205   0.508  13.251   4.093  0.0610  0.7209 -0.0585
   17MOL0     C 2206   0.632  12.091   4.052  0.5500 -0.7659 -0.1491
   17MOL0     C 2207   0.621  11.960   4.017 -0.5689 -0.1048  0.0054
   17MOL0     O 2208   0.485  11.676   3.935 -0.0308 -0.4673  0.5956
   17MOL0     C 2209   0.789  11.516   3.936  0.3066 -0.4019 -0.1420
   17MOL0     C 2210   0.835  11.381   3.947 -0.5412  0.1759 -0.4456
   17MOL0     N 2211   1.354  11.248   3.646  0.6831  0.7452 -0.1227
   17MOL0     N 2212   1.452  11.168   3.633 -0.6566  0.4100  0.5801
   17MOL0     C 2213   0.995  10.388   3.147 -0.7986 -0.4265 -0.3165
   17MOL0     C 2214   0.888  10.382   3.057 -0.1664 -0.2167  0.4067
   17MOL0     C 2215   0.557  10.246   2.792  0.2028 -0.4018 -0.4059
   17MOL0     C 2216   0.458  10.348   2.798  0.0559 -0.1824  0.6860
   17MOL0     C 2217   0.346  10.350   2.716 -0.0837  0.5281  0.5626
   17MOL0     C 2218   0.338  10.257   2.610  0.1056  0.9020  0.6293
   17MOL0     O 2219   0.238  10.269   2.518  0.4024 -0.2741 -0.3952
   17MOL0     C 2220   0.295  10.290   2.387 -0.0102 -0.2022  0.4609
   17MOL0     C 2221   0.233  10.185   2.302 -0.3955  0.2913  0.0689
   17MOL0     C 2222   0.093  10.229   2.255 -0.4059  1.0455 -0.0363
   17MOL0     C 2223   0.007  10.091   2.252 -0.3407 -0.6522 -0.0145
   17MOL0     C 2224  -0.123  10.129   2.193  0.7746  0.3511  0.5608
   17MOL0     C 2225  -0.226  10.153   2.136  0.6003 -0.1903 -0.2515
   17MOL0     C 2226   0.425  10.150   2.612  0.8826  0.1241 -0.0056
   17MOL0     C 2227   0.540  10.151   2.692  0.7524  0.2414 -0.3292
   17MOL0     H 2228   0.648  10.261   3.253 -0.2458  0.5226  0.0361
   17MOL0     H 2229   0.828  10.282   3.425 -0.0679  0.1701  0.3723
   17MOL0     H 2230   1.033  10.347   3.554  1.2259  0.2949  0.3294
   17MOL0     H 2231   1.069  10.188   3.473 -2.5644  1.1937  0.7968
   17MOL0     H 2232   1.253  10.288   3.642 -0.8252  5.1225  2.2238
   17MOL0     H 2233   1.310  10.251   3.472 -0.9284  0.7215 -1.6428
   17MOL0     H 2234   1.289  10.509   3.435 -1.6298  0.1590 -0.5786
   17MOL0     H 2235   1.211  10.526   3.589 -0.4425  0.2708 -0.3110
   17MOL0     H 2236   1.453  10.407   3.677 -1.1579 -0.6943 -0.4283
   17MOL0     H 2237   1.504  10.496   3.526 -0.0394  1.7783  0.9306
   17MOL0     H 2238   1.393  10.640   3.760  2.3155  0.7832  1.4632
   17MOL0     H 2239   1.547  10.637   3.699 -0.4216 -2.1491 -1.2929
   17MOL0     H 2240   1.448  10.705   3.461  0.1123 -0.5228 -1.4366
   17MOL0     H 2241   1.318  10.781   3.569  0.5071  0.8722 -2.1361
   17MOL0     H 2242   1.495  10.855   3.698  0.5990  0.3157 -0.0362
   17MOL0     H 2243   1.620  10.792   3.580  0.4764  1.4746  0.0578
   17MOL0     H 2244   1.507  10.935   3.405  1.1945  2.9985 -1.6487
   17MOL0     H 2245   1.624  11.014   3.510  1.1122 -2.1522  0.3364
   17MOL0     H 2246   1.239  11.030   3.435 -1.4394 -1.4366  2.1803
   17MOL0     H 2247   1.113  11.372   3.566 -1.3148 -0.3113 -0.2444
   17MOL0     H 2248   1.084  11.244   3.450 -2.2226 -3.4552  1.7542
   17MOL0     H 2249   0.992  11.099   3.621 -0.2899  0.6227 -0.4621
   17MOL0     H 2250   0.922  11.255   3.643  0.2253  1.4153 -2.0111
   17MOL0     H 2251   1.110  11.266   3.837  1.4972  0.4832 -0.6247
   17MOL0     H 2252   1.159  11.107   3.783  0.4711 -0.9733  0.4974
   17MOL0     H 2253   0.995  11.143   4.006 -1.1523 -1.8939  0.4157
   17MOL0     H 2254   0.995  11.011   3.896  0.2891  0.3840 -2.3500
   17MOL0     H 2255   0.607  11.227   3.773  1.5534 -1.2330  1.4503
   17MOL0     H 2256   0.374  11.474   3.820 -0.1949  0.3987 -2.0173
   17MOL0     H 2257   0.462  11.528   3.679  1.6270 -0.6807 -0.9791
   17MOL0     H 2258   0.431  11.361   3.685  1.3520 -0.7711 -0.8018
   17MOL0     H 2259   0.752  11.961   3.706 -0.7891 -0.1855  0.1543
   17MOL0     H 2260   0.780  12.210   3.765  1.2788 -1.7348 -0.3699
   17MOL0     H 2261   0.865  12.389   3.925  0.6146  1.6383  3.1278
   17MOL0     H 2262   0.725  12.438   3.819  1.0726 -0.7607  0.1341
   17MOL0     H 2263   0.788  12.542   4.085  0.2096  1.8548 -0.2103
   17MOL0     H 2264   0.818  12.612   3.935  0.3988 -0.5580  0.0056
   17MOL0     H 2265   0.557  12.568   4.077  1.9014 -2.4260  0.7616
   17MOL0     H 2266   0.546  12.591   3.899 -0.4056 -3.4470  0.9994
   17MOL0     H 2267   0.689  12.777   4.098 -0.7873  1.3661  0.2854
   17MOL0     H 2268   0.683  12.786   3.920  3.2519  2.3492  1.5402
   17MOL0     H 2269   0.432  12.776   4.100  2.1288  2.0708  2.9197
   17MOL0     H 2270   0.420  12.816   3.926 -2.0153  0.3362  1.4795
   17MOL0     H 2271   0.416  13.023   4.086  0.8201 -0.9375  2.2976
   17MOL0     H 2272   0.579  12.987   4.125 -0.4909 -0.6744  0.3014
   17MOL0     H 2273   0.545  13.000   3.831 -1.2571  1.1080 -0.3398
   17MOL0     H 2274   0.680  13.060   3.935 -0.4832 -2.2514  2.9791
   17MOL0     H 2275   0.428  13.200   3.869  1.3884 -1.7555 -2.2647
   17MOL0     H 2276   0.592  13.269   3.870  2.6268 -2.6607 -1.4356
   17MOL0     H 2277   0.566  12.116   4.135 -1.6593  0.4112 -2.1526
   17MOL0     H 2278   0.570  11.890   4.083 -1.3732 -1.0695 -1.5771
   17MOL0     H 2279   0.838  11.597   3.989 -0.9922 -0.5344  1.3209
   17MOL0     H 2280   0.935  11.366   3.986 -0.2315 -0.3057 -1.3748
   17MOL0     H 2281   1.091  10.430   3.121 -0.3545 -1.1086  0.2071
   17MOL0     H 2282   0.905  10.409   2.953  1.5898 -0.8055  0.5106
   17MOL0     H 2283   0.450  10.419   2.880 -0.6102 -2.1175  2.4068
   17MOL0     H 2284   0.255  10.409   2.728  1.1103  2.3627  1.0068
   17MOL0     H 2285   0.276  10.392   2.351 -1.4205 -0.9339 -1.0095
   17MOL0     H 2286   0.403  10.274   2.389 -0.0929 -1.4808 -1.6715
   17MOL0     H 2287   0.243  10.090   2.354  2.3658  0.5690  0.1781
   17MOL0     H 2288   0.298  10.185   2.214  0.6242  0.0904  0.8076
   17MOL0     H 2289   0.111  10.275   2.158  0.1585  0.5413 -0.1783
   17MOL0     H 2290   0.053  10.303   2.325 -0.1317 -0.1650  1.4636
   17MOL0     H 2291  -0.000  10.064   2.358  0.5253  0.3644  0.3167
   17MOL0     H 2292   0.053  10.012   2.192 -1.6943 -1.9711  0.5961
   17MOL0     H 2293  -0.315  10.174   2.081 -1.0916  3.0790  3.2725
   17MOL0     H 2294   0.412  10.065   2.545  0.7735 -2.0007  2.5336
   17MOL0     H 2295   0.602  10.063   2.690 -4.1500 -3.8635  2.7203
   18MOL0     O 2296   6.409   9.996   5.706 -0.0021  0.0193  0.4940
   18MOL0     C 2297   6.506   9.936   5.651 -0.8443 -1.2465  0.4516
   18MOL0     O 2298   6.645   9.949   5.678 -0.2703  0.0805 -0.9308
   18MOL0     C 2299   6.665  10.046   5.768  0.3224 -0.0851  0.6973
   18MOL0     C 2300   6.716  10.007   5.895  0.0503 -0.5518 -0.0820
   18MOL0     C 2301   6.739  10.113   5.990 -0.3232 -0.4586 -1.1206
   18MOL0     C 2302   6.699  10.243   5.971 -0.1332 -0.6697 -0.5788
   18MOL0     O 2303   6.710  10.331   6.079 -0.4836  0.2224  0.6763
   18MOL0     C 2304   6.626  10.445   6.084 -0.4133 -0.1179 -0.9732
   18MOL0     C 2305   6.642  10.513   6.217  0.2705  0.6915 -0.2685
   18MOL0     C 2306   6.534  10.613   6.253 -0.2170  0.7349  0.4518
   18MOL0     C 2307   6.530  10.733   6.161 -0.7038 -0.0814  0.6187
   18MOL0     C 2308   6.486  10.859   6.248 -0.2884 -0.3475 -0.0343
   18MOL0     C 2309   6.515  10.986   6.163  0.9066  0.5564 -0.1123
   18MOL0     C 2310   6.442  11.115   6.211 -0.5625 -0.2214 -0.1203
   18MOL0     C 2311   6.483  11.249   6.133  0.0551 -0.0781  1.1139
   18MOL0     N 2312   6.603  11.320   6.170 -0.4148 -0.3432 -0.1571
   18MOL0     C 2313   6.727  11.261   6.150  0.3150  0.0879  0.1548
   18MOL0     C 2314   6.816  11.352   6.193 -0.4428 -0.4039  0.1643
   18MOL0     C 2315   6.959  11.357   6.164 -0.0567 -0.7792  0.3136
   18MOL0     C 2316   7.029  11.227   6.214 -0.0429 -1.1549  0.0397
   18MOL0     C 2317   7.163  11.254   6.300  0.8498  0.8647 -0.8767
   18MOL0     C 2318   7.262  11.326   6.199  0.0492  0.4373 -0.5943
   18MOL0     O 2319   7.250  11.470   6.208 -0.1367 -0.4956  0.2616
   18MOL0     C 2320   7.338  11.523   6.123  0.2336  0.2287  0.9747
   18MOL0     C 2321   7.301  11.564   5.999 -0.5015  0.0903  0.9970
   18MOL0     C 2322   7.393  11.639   5.930 -1.0400  0.2965 -0.0177
   18MOL0     C 2323   7.337  11.685   5.812  0.3897 -1.0750  0.2369
   18MOL0     C 2324   7.527  11.658   5.964  0.0158  0.3723 -0.3150
   18MOL0     C 2325   7.623  11.745   5.892 -1.4004  0.0860 -0.5290
   18MOL0     O 2326   7.754  11.735   5.944  0.2470 -0.1463  0.3867
   18MOL0     C 2327   7.857  11.810   5.897 -0.0058 -0.2707  0.2414
   18MOL0     C 2328   7.946  11.756   5.802 -0.2835  1.2765  0.5155
   18MOL0     C 2329   8.034  11.834   5.731  0.3417 -0.2770  0.6957
   18MOL0     C 2330   8.043  11.971   5.750  0.0866  0.1632 -0.3353
   18MOL0     O 2331   8.124  12.045   5.667  0.1838 -0.2769  0.2661
   18MOL0     C 2332   8.264  12.032   5.710  0.3710  0.2876 -0.6978
   18MOL0     C 2333   8.315  12.158   5.777  0.1904 -0.7620 -0.9495
   18MOL0     C 2334   8.460  12.157   5.797  0.6588 -0.3595 -0.7122
   18MOL0     C 2335   8.507  12.299   5.834 -1.5813  0.5049 -0.3663
   18MOL0     C 2336   8.642  12.320   5.901  0.5460 -0.5649 -0.2087
   18MOL0     C 2337   8.685  12.460   5.939 -0.4545  0.7501  0.4542
   18MOL0     C 2338   8.609  12.510   6.056 -0.4712  0.3976  0.2496
   18MOL0     C 2339   8.648  12.653   6.098 -0.4687  0.3684 -0.0520
   18MOL0    Cl 2340   8.819  12.656   6.151  0.1810 -0.0745 -0.0651
   18MOL0     C 2341   7.951  12.028   5.834  1.0163  0.1646 -0.9230
   18MOL0     C 2342   7.863  11.950   5.913  0.1136 -0.8630 -0.4483
   18MOL0     O 2343   7.601  11.797   5.779  0.6129  0.7637 -0.5028
   18MOL0     C 2344   7.562  11.619   6.093 -1.0402 -0.9378 -0.7193
   18MOL0     C 2345   7.466  11.556   6.173 -0.1539 -0.9003 -0.4196
   18MOL0     N 2346   6.746  11.454   6.265  0.7845 -0.2319 -1.0121
   18MOL0     N 2347   6.612  11.437   6.251 -0.1322  0.1673  0.2650
   18MOL0     C 2348   6.645  10.276   5.847  1.1830 -0.4129  0.4851
   18MOL0     C 2349   6.636  10.179   5.746  0.0133  0.1380  0.5432
   18MOL0     C 2350   6.464   9.849   5.546 -0.4334 -0.6940  0.5525
   18MOL0     C 2351   6.346   9.777   5.546 -0.5061  0.9813  0.4880
   18MOL0     C 2352   6.317   9.686   5.445  0.6345  0.1438 -0.6439
   18MOL0     C 2353   6.392   9.687   5.331  0.6880 -1.2355  1.6500
   18MOL0     O 2354   6.367   9.618   5.210 -0.3300  0.0313  0.1186
   18MOL0     C 2355   6.245   9.548   5.197  0.4244 -0.4320 -0.6577
   18MOL0     C 2356   6.195   9.544   5.057  0.0143  0.3021  0.2682
   18MOL0     C 2357   6.302   9.522   4.953 -0.1499 -1.0066 -0.3972
   18MOL0     C 2358   6.374   9.392   4.998 -0.7548  1.0898  0.2426
   18MOL0     C 2359   6.483   9.352   4.904  0.2036 -0.2043  0.3209
   18MOL0     C 2360   6.575   9.333   4.830  1.0322 -0.7523 -0.8886
   18MOL0     C 2361   6.501   9.772   5.322 -0.1855 -0.5237  0.7819
   18MOL0     C 2362   6.541   9.846   5.429 -0.5023 -0.3704  0.1639
   18MOL0     H 2363   6.728   9.900   5.912  0.1706 -0.5177  0.0504
   18MOL0     H 2364   6.780  10.080   6.085  1.8891  2.8427 -0.7606
   18MOL0     H 2365   6.651  10.513   6.003  0.0281  1.8148  0.7010
   18MOL0     H 2366   6.523  10.415   6.066 -0.7133  0.0307  0.3739
   18MOL0     H 2367   6.649  10.431   6.288  0.5143  1.2526  0.3725
   18MOL0     H 2368   6.737  10.568   6.226  1.2191 -0.8973 -0.3120
   18MOL0     H 2369   6.440  10.557   6.245  0.2251 -0.0548  0.6186
   18MOL0     H 2370   6.543  10.643   6.357  0.6247  3.0573 -0.2317
   18MOL0     H 2371   6.636  10.744   6.136 -0.5955 -2.9298 -0.5138
   18MOL0     H 2372   6.463  10.714   6.077 -1.1679  0.2197  0.9172
   18MOL0     H 2373   6.380  10.858   6.275 -0.6308  0.6246 -1.2615
   18MOL0     H 2374   6.532  10.870   6.347 -1.4807  1.7578  0.3523
   18MOL0     H 2375   6.623  11.002   6.158  1.6298 -1.2099  4.5490
   18MOL0     H 2376   6.477  10.965   6.063 -2.5849 -2.5542  1.6067
   18MOL0     H 2377   6.334  11.101   6.219 -1.0803  3.0253 -0.2386
   18MOL0     H 2378   6.472  11.135   6.314 -1.1895 -1.4811  0.3266
   18MOL0     H 2379   6.389  11.301   6.155 -1.6559 -2.3340 -0.4525
   18MOL0     H 2380   6.481  11.234   6.025  0.7401 -1.6091  1.2804
   18MOL0     H 2381   6.749  11.168   6.098  0.3439  1.1923 -1.8880
   18MOL0     H 2382   6.974  11.382   6.058  0.0041 -1.6864  0.1023
   18MOL0     H 2383   6.985  11.446   6.222 -2.1647  0.8301 -1.0775
   18MOL0     H 2384   7.057  11.157   6.135 -1.1243 -2.4817  0.7835
   18MOL0     H 2385   6.955  11.172   6.274  2.1376 -2.9289  1.2702
   18MOL0     H 2386   7.206  11.158   6.330 -1.6513 -0.2589 -0.6416
   18MOL0     H 2387   7.142  11.307   6.393 -1.6257 -0.8949 -0.3181
   18MOL0     H 2388   7.235  11.298   6.097 -1.9099  0.2325 -0.0588
   18MOL0     H 2389   7.364  11.302   6.229  0.2956 -1.0198 -2.4156
   18MOL0     H 2390   7.197  11.547   5.974  0.0141 -2.3892  0.2314
   18MOL0     H 2391   7.363  11.788   5.785  0.9500 -0.9468  1.2161
   18MOL0     H 2392   7.368  11.616   5.732 -2.5750 -2.5530  0.2152
   18MOL0     H 2393   7.228  11.679   5.801  0.1746  2.2486 -0.5926
   18MOL0     H 2394   7.940  11.648   5.798 -0.4207  1.2909  0.3322
   18MOL0     H 2395   8.098  11.785   5.659  0.1217 -0.3766  0.5662
   18MOL0     H 2396   8.288  11.942   5.767  0.3930  0.6308 -0.1514
   18MOL0     H 2397   8.322  12.031   5.618  3.2640  2.6648  0.9302
   18MOL0     H 2398   8.269  12.249   5.737  2.3218 -0.0834 -1.9618
   18MOL0     H 2399   8.275  12.168   5.879 -3.4394  2.7492 -2.4398
   18MOL0     H 2400   8.508  12.125   5.704  3.6098 -3.8608  1.7257
   18MOL0     H 2401   8.488  12.083   5.872 -1.5647 -2.1007 -1.5165
   18MOL0     H 2402   8.500  12.369   5.750 -0.3378  0.9802 -0.0910
   18MOL0     H 2403   8.432  12.346   5.899  1.6630  5.4498  0.2899
   18MOL0     H 2404   8.714  12.279   5.829  0.1049  1.2621 -1.7681
   18MOL0     H 2405   8.647  12.251   5.986 -3.3978 -0.6976  0.1194
   18MOL0     H 2406   8.794  12.463   5.943 -0.2126  0.5326 -2.9561
   18MOL0     H 2407   8.653  12.531   5.863 -0.6206 -1.8075 -2.0284
   18MOL0     H 2408   8.624  12.440   6.139  0.9261  3.2373  2.5554
   18MOL0     H 2409   8.504  12.517   6.027 -0.9373 -1.8588  1.1481
   18MOL0     H 2410   8.595  12.690   6.186  0.9440  5.0878 -0.9203
   18MOL0     H 2411   8.639  12.722   6.014 -0.5857  2.0761  1.3122
   18MOL0     H 2412   7.953  12.136   5.836 -0.3995  0.3706 -4.1640
   18MOL0     H 2413   7.784  11.995   5.973  1.4851  2.1022 -0.6636
   18MOL0     H 2414   7.654  11.645   6.144 -1.6334  1.8014 -0.8697
   18MOL0     H 2415   7.485  11.522   6.274  0.0670 -0.8459 -0.4416
   18MOL0     H 2416   6.603  10.376   5.837  0.9088  0.0518  4.5107
   18MOL0     H 2417   6.594  10.207   5.650  1.1876 -1.8182 -0.6195
   18MOL0     H 2418   6.285   9.792   5.635 -1.3768 -0.8654  0.2620
   18MOL0     H 2419   6.220   9.638   5.442 -0.3765  2.0667  0.0435
   18MOL0     H 2420   6.260   9.445   5.232  1.2366  0.9301  3.4895
   18MOL0     H 2421   6.160   9.592   5.250 -0.1597  2.6489 -3.8022
   18MOL0     H 2422   6.151   9.643   5.038  0.6070  0.7667  1.2150
   18MOL0     H 2423   6.109   9.479   5.044 -2.0756  3.3121 -3.1093
   18MOL0     H 2424   6.376   9.602   4.947 -2.1127  0.9848  0.4088
   18MOL0     H 2425   6.264   9.518   4.850 -3.1919  2.1427  0.3909
   18MOL0     H 2426   6.304   9.308   5.000 -1.0786  1.3742  2.0670
   18MOL0     H 2427   6.417   9.418   5.095 -0.9743  0.3199  0.5522
   18MOL0     H 2428   6.661   9.305   4.773  1.2334 -0.8705 -0.5307
   18MOL0     H 2429   6.567   9.776   5.235  1.8838  1.4838  2.3343
   18MOL0     H 2430   6.631   9.906   5.427 -1.1376  0.8519  3.0308
   19MOL0     O 2431  10.433   5.272  10.991 -0.5391 -0.6218  0.4506
   19MOL0     C 2432  10.485   5.279  10.880 -0.0965  1.0998 -0.2292
   19MOL0     O 2433  10.434   5.342  10.768  0.3807  0.3163 -0.3086
   19MOL0     C 2434  10.307   5.383  10.780 -0.5686  0.0328 -0.6393
   19MOL0     C 2435  10.276   5.521  10.808 -0.9148  0.3199  0.6748
   19MOL0     C 2436  10.148   5.569  10.803  0.2081  0.6177  0.7039
   19MOL0     C 2437  10.046   5.480  10.784  0.4766 -0.5118  0.6914
   19MOL0     O 2438   9.921   5.535  10.788  0.0080  0.4848 -0.0149
   19MOL0     C 2439   9.808   5.474  10.733  0.1655 -0.3556  0.6875
   19MOL0     C 2440   9.688   5.570  10.765  0.2121  0.5277 -0.4702
   19MOL0     C 2441   9.561   5.506  10.702 -0.7894  0.1166  0.1435
   19MOL0     C 2442   9.458   5.624  10.685  0.1729  0.8840  0.0424
   19MOL0     C 2443   9.323   5.554  10.696  0.7329 -0.3375  0.3729
   19MOL0     C 2444   9.220   5.646  10.627  0.5271  0.6645 -0.5666
   19MOL0     C 2445   9.222   5.654  10.468 -0.4669 -0.2488  0.2135
   19MOL0     C 2446   9.212   5.514  10.399  0.6282  0.4285 -1.2010
   19MOL0     N 2447   9.177   5.516  10.262  1.1433 -0.9298  0.3103
   19MOL0     C 2448   9.153   5.621  10.178 -0.3971 -0.4246  0.5967
   19MOL0     C 2449   9.136   5.559  10.061 -0.4717 -0.8506  0.1618
   19MOL0     C 2450   9.100   5.650   9.948  0.2055 -0.9047  0.3894
   19MOL0     C 2451   8.954   5.636   9.916  1.2407 -0.2684  0.4966
   19MOL0     C 2452   8.851   5.680  10.017 -0.2207  0.3642 -0.2860
   19MOL0     C 2453   8.792   5.560  10.088  0.1720 -0.5225 -0.5197
   19MOL0     O 2454   8.834   5.527  10.229  0.1383  0.0650  0.2134
   19MOL0     C 2455   8.763   5.450  10.312 -0.5711  0.3053 -1.4256
   19MOL0     C 2456   8.642   5.376  10.280 -0.2943 -0.4947 -0.0431
   19MOL0     C 2457   8.567   5.308  10.378 -0.1630 -0.0688 -0.4040
   19MOL0     C 2458   8.443   5.243  10.324  0.3320 -0.6467  0.1242
   19MOL0     C 2459   8.633   5.294  10.507 -0.2168 -0.7958  0.1854
   19MOL0     C 2460   8.574   5.216  10.611  0.2037  0.0056  0.3572
   19MOL0     O 2461   8.657   5.122  10.662  0.6250 -0.4041 -0.4009
   19MOL0     C 2462   8.603   5.040  10.763  0.4582  0.4856  0.4441
   19MOL0     C 2463   8.508   5.082  10.868  0.0108 -0.0871  0.7549
   19MOL0     C 2464   8.481   4.991  10.969  0.3384  0.1440  0.9224
   19MOL0     C 2465   8.531   4.863  10.968 -0.3847 -0.3582 -0.9112
   19MOL0     O 2466   8.488   4.765  11.058  0.4634  0.0278  0.3408
   19MOL0     C 2467   8.351   4.766  11.101  0.0966  0.4806  0.1452
   19MOL0     C 2468   8.330   4.666  11.218  0.2522  0.5794 -0.1083
   19MOL0     C 2469   8.339   4.521  11.156 -0.0547 -0.6975 -0.0773
   19MOL0     C 2470   8.273   4.413  11.237  0.0100 -0.0765 -0.4062
   19MOL0     C 2471   8.354   4.387  11.369  0.0988 -0.0369 -0.0495
   19MOL0     C 2472   8.330   4.252  11.415 -0.2308 -0.6285  0.7550
   19MOL0     C 2473   8.422   4.221  11.536  0.3774 -0.4683 -0.3394
   19MOL0     C 2474   8.368   4.107  11.615  0.4698  0.2965  1.0965
   19MOL0    Cl 2475   8.227   4.144  11.719 -0.3770 -0.5332  0.0492
   19MOL0     C 2476   8.626   4.824  10.880  0.2939 -0.6082 -1.0642
   19MOL0     C 2477   8.666   4.915  10.775  0.1191 -0.0728 -0.6760
   19MOL0     O 2478   8.458   5.227  10.621  0.4083  0.2328 -0.2906
   19MOL0     C 2479   8.746   5.369  10.538 -0.3451 -0.1733  0.3523
   19MOL0     C 2480   8.813   5.442  10.441 -0.2422  0.1444  0.0968
   19MOL0     N 2481   9.165   5.423  10.071  0.1347 -0.1880  0.2285
   19MOL0     N 2482   9.198   5.399  10.189  1.3523 -0.1520  0.3507
   19MOL0     C 2483  10.073   5.337  10.783  0.5657 -0.3436 -0.3652
   19MOL0     C 2484  10.198   5.296  10.778  0.4686  0.7226 -0.0204
   19MOL0     C 2485  10.607   5.209  10.855 -0.7259 -0.1900 -0.4907
   19MOL0     C 2486  10.699   5.171  10.958 -0.2399 -0.9552  0.2039
   19MOL0     C 2487  10.822   5.110  10.926  1.2305  0.4676 -0.8747
   19MOL0     C 2488  10.845   5.075  10.800  0.7726  0.3058  0.2741
   19MOL0     O 2489  10.966   5.018  10.776 -0.3968 -0.0276 -1.0111
   19MOL0     C 2490  11.001   4.952  10.650  0.1283 -0.0075  0.3931
   19MOL0     C 2491  11.137   4.871  10.665 -0.2019 -0.5678  0.0105
   19MOL0     C 2492  11.245   4.933  10.766  0.2357  0.4050  0.3070
   19MOL0     C 2493  11.296   5.070  10.705  0.9210 -0.4980 -0.1844
   19MOL0     C 2494  11.407   5.128  10.778 -0.1539 -0.3957 -0.4785
   19MOL0     C 2495  11.504   5.176  10.829 -0.3725  0.2254 -0.5933
   19MOL0     C 2496  10.753   5.092  10.701  0.4382 -0.6917 -0.1463
   19MOL0     C 2497  10.632   5.164  10.722  0.2168  0.2748  0.0838
   19MOL0     H 2498  10.351   5.599  10.803 -0.1715 -0.4083 -0.0712
   19MOL0     H 2499  10.115   5.668  10.834 -1.8936  0.3356 -0.4196
   19MOL0     H 2500   9.822   5.462  10.626  1.4494  1.1718  0.6474
   19MOL0     H 2501   9.793   5.375  10.777 -1.1283 -1.2086 -1.5519
   19MOL0     H 2502   9.684   5.559  10.874  1.5429 -2.0117 -0.5964
   19MOL0     H 2503   9.702   5.673  10.730  1.0532 -0.2541 -2.6161
   19MOL0     H 2504   9.574   5.469  10.600 -0.2258 -1.5311  0.7812
   19MOL0     H 2505   9.519   5.425  10.763  3.0324  0.3019  3.3894
   19MOL0     H 2506   9.487   5.707  10.749  3.0843  4.0653 -4.7553
   19MOL0     H 2507   9.460   5.673  10.587 -0.5604 -0.5969 -0.7564
   19MOL0     H 2508   9.314   5.456  10.648 -3.8095  0.7297 -1.4600
   19MOL0     H 2509   9.294   5.553  10.802  0.4059  0.3350  0.2908
   19MOL0     H 2510   9.118   5.622  10.657 -0.3222  1.2327 -2.7844
   19MOL0     H 2511   9.246   5.745  10.664  2.5067 -0.5088  1.4207
   19MOL0     H 2512   9.132   5.710  10.441 -0.2922 -0.3768 -0.6793
   19MOL0     H 2513   9.313   5.704  10.434  0.9227 -1.8719  1.3982
   19MOL0     H 2514   9.148   5.440  10.448 -0.1339  1.3958 -0.7130
   19MOL0     H 2515   9.306   5.459  10.403 -0.1954 -1.0978 -2.0793
   19MOL0     H 2516   9.171   5.728  10.188  2.4780 -0.6193 -1.1812
   19MOL0     H 2517   9.120   5.756   9.965 -0.5738 -0.6030 -0.4833
   19MOL0     H 2518   9.164   5.631   9.861 -1.2555  2.0329 -1.4704
   19MOL0     H 2519   8.937   5.533   9.883 -5.2545  0.8164 -0.9273
   19MOL0     H 2520   8.926   5.692   9.826 -2.1137 -2.1731  0.1861
   19MOL0     H 2521   8.775   5.743   9.970 -0.2528 -0.7880 -1.8695
   19MOL0     H 2522   8.905   5.740  10.091  2.2022 -1.4785 -0.4418
   19MOL0     H 2523   8.811   5.469  10.031 -0.2339 -0.5836 -0.5587
   19MOL0     H 2524   8.687   5.587  10.095  0.5758  1.4711 -1.5354
   19MOL0     H 2525   8.599   5.395  10.182  0.6770  1.4291 -0.1572
   19MOL0     H 2526   8.344   5.273  10.359  0.1059  1.2304 -1.9390
   19MOL0     H 2527   8.432   5.253  10.216 -0.6805  0.7182  0.3189
   19MOL0     H 2528   8.455   5.135  10.335 -0.6393 -1.0699 -2.3912
   19MOL0     H 2529   8.453   5.173  10.886 -1.3430 -0.8848  0.7985
   19MOL0     H 2530   8.442   5.039  11.058  3.6297  3.9531  0.5960
   19MOL0     H 2531   8.334   4.859  11.158  1.4713 -1.1955  3.6042
   19MOL0     H 2532   8.282   4.758  11.016 -1.4216  1.1269  1.2545
   19MOL0     H 2533   8.417   4.674  11.284 -1.0707 -1.1321  2.0077
   19MOL0     H 2534   8.234   4.682  11.269 -0.8030 -2.6799 -0.8412
   19MOL0     H 2535   8.443   4.492  11.138  0.0121 -1.4045  1.3024
   19MOL0     H 2536   8.287   4.513  11.060 -1.9764 -0.4832  0.9028
   19MOL0     H 2537   8.177   4.445  11.279 -0.1421 -1.2441  0.1814
   19MOL0     H 2538   8.269   4.326  11.172 -3.0063  0.3782 -0.9519
   19MOL0     H 2539   8.326   4.454  11.451 -1.7925  0.8733 -1.3800
   19MOL0     H 2540   8.462   4.402  11.357  0.6173 -0.7084  2.8598
   19MOL0     H 2541   8.226   4.254  11.448 -0.7920 -2.8938 -0.6540
   19MOL0     H 2542   8.336   4.180  11.333 -1.4388  2.7840 -2.6025
   19MOL0     H 2543   8.423   4.304  11.607  2.5124  0.4222 -1.3270
   19MOL0     H 2544   8.525   4.204  11.504  0.6911 -1.0947  0.9397
   19MOL0     H 2545   8.451   4.074  11.678  0.2391 -3.7095 -0.3564
   19MOL0     H 2546   8.330   4.030  11.547 -0.8705  1.1693  0.8316
   19MOL0     H 2547   8.671   4.725  10.876  2.3886  0.2606 -0.6203
   19MOL0     H 2548   8.744   4.879  10.709  1.5662  1.2249  0.2411
   19MOL0     H 2549   8.775   5.384  10.641 -1.8151  0.5414  0.6780
   19MOL0     H 2550   8.897   5.497  10.482 -1.2631 -0.7139  3.6885
   19MOL0     H 2551   9.991   5.267  10.788  1.0224 -1.0604 -2.1142
   19MOL0     H 2552  10.228   5.192  10.765 -1.4086  0.4248 -2.6645
   19MOL0     H 2553  10.690   5.200  11.062  0.5464  2.0865 -0.4866
   19MOL0     H 2554  10.888   5.076  11.005 -0.1576  0.7686  0.4654
   19MOL0     H 2555  10.919   4.892  10.611 -0.7859  0.8283  0.9743
   19MOL0     H 2556  11.016   5.034  10.578  2.1198 -0.1633  0.5654
   19MOL0     H 2557  11.173   4.867  10.562 -1.6865  0.4373 -0.5740
   19MOL0     H 2558  11.112   4.773  10.707 -0.5584 -0.2751  0.4944
   19MOL0     H 2559  11.329   4.863  10.770 -0.5875 -0.9302 -2.4678
   19MOL0     H 2560  11.196   4.942  10.863 -0.6399 -1.3536  0.0738
   19MOL0     H 2561  11.214   5.137  10.678  0.0410 -0.6199  2.0298
   19MOL0     H 2562  11.343   5.047  10.609 -0.6257 -0.8907 -0.8817
   19MOL0     H 2563  11.593   5.214  10.876  0.1447 -1.1218 -0.4137
   19MOL0     H 2564  10.769   5.052  10.601  1.0184 -1.6472  0.3114
   19MOL0     H 2565  10.561   5.182  10.641  0.3530 -0.6292 -0.2434
   20MOL0     O 2566   0.882   4.641   4.444 -0.6465 -0.4007  0.4100
   20MOL0     C 2567   1.004   4.655   4.470  0.2540 -0.3101 -0.9774
   20MOL0     O 2568   1.062   4.737   4.564 -0.2460  0.3477 -0.0082
   20MOL0     C 2569   0.983   4.768   4.667  0.1611  0.4169  0.4044
   20MOL0     C 2570   0.911   4.665   4.745 -0.1474  0.4135 -0.9018
   20MOL0     C 2571   0.823   4.702   4.844  0.7717 -0.5436  0.8185
   20MOL0     C 2572   0.800   4.835   4.868  0.2428  0.0324  0.6576
   20MOL0     O 2573   0.682   4.847   4.939 -0.0669  0.0892  0.0751
   20MOL0     C 2574   0.605   4.960   4.909 -0.0129  1.7631  0.1113
   20MOL0     C 2575   0.462   4.921   4.945 -0.0943 -0.4386  0.3908
   20MOL0     C 2576   0.428   4.901   5.097 -0.6180 -0.3036 -0.4076
   20MOL0     C 2577   0.275   4.919   5.122  0.0546 -0.4957  0.4916
   20MOL0     C 2578   0.235   4.894   5.268 -0.3138  0.0912  0.5797
   20MOL0     C 2579   0.244   4.745   5.292 -0.1544 -0.0826  0.3579
   20MOL0     C 2580   0.266   4.721   5.441  0.7012 -0.1861 -0.2085
   20MOL0     C 2581   0.285   4.567   5.462 -0.1477 -0.0520  0.6479
   20MOL0     N 2582   0.229   4.516   5.581  0.7884 -0.3826 -0.0461
   20MOL0     C 2583   0.090   4.520   5.609 -0.6675  0.2996  0.7532
   20MOL0     C 2584   0.083   4.469   5.735  1.3403 -0.1190 -0.0690
   20MOL0     C 2585  -0.046   4.458   5.817 -0.2047  0.1575 -0.3723
   20MOL0     C 2586  -0.107   4.319   5.786 -0.3954 -0.7611 -0.0116
   20MOL0     C 2587  -0.158   4.299   5.642  0.3242 -0.5234 -0.2172
   20MOL0     C 2588  -0.274   4.400   5.623 -0.3953 -0.0363  0.1650
   20MOL0     O 2589  -0.364   4.354   5.538  0.4033  0.4122  1.0792
   20MOL0     C 2590  -0.458   4.433   5.472 -0.3832  0.6488  0.2401
   20MOL0     C 2591  -0.540   4.366   5.372 -0.8831  0.0726 -0.0596
   20MOL0     C 2592  -0.644   4.427   5.309  0.2135  0.1977  0.1641
   20MOL0     C 2593  -0.715   4.347   5.205  0.4371  0.0038  0.3118
   20MOL0     C 2594  -0.653   4.568   5.325 -0.2603  0.0932 -1.0380
   20MOL0     C 2595  -0.738   4.659   5.242  0.1301  0.4144  0.6132
   20MOL0     O 2596  -0.734   4.796   5.273  0.3779 -0.4764 -0.5254
   20MOL0     C 2597  -0.810   4.882   5.202 -0.3907 -0.0026 -0.4392
   20MOL0     C 2598  -0.940   4.902   5.234 -0.6657  0.3368 -0.0516
   20MOL0     C 2599  -1.017   4.990   5.163  0.6311 -0.7743  0.1707
   20MOL0     C 2600  -0.959   5.066   5.055  0.2558 -0.0516 -1.0967
   20MOL0     O 2601  -1.033   5.161   4.991  0.0835 -0.1562  0.1979
   20MOL0     C 2602  -0.993   5.187   4.850  0.6106  0.8780 -0.4739
   20MOL0     C 2603  -1.107   5.234   4.761  0.2326  1.2131 -0.0606
   20MOL0     C 2604  -1.078   5.179   4.613 -0.2013  0.4687  0.5977
   20MOL0     C 2605  -1.133   5.038   4.591 -0.1154 -0.2640  0.0266
   20MOL0     C 2606  -1.121   4.969   4.458  0.2678 -0.1906 -0.1375
   20MOL0     C 2607  -1.163   4.828   4.448 -0.7484  0.2374 -0.0443
   20MOL0     C 2608  -1.129   4.775   4.313 -0.2096 -0.3253  0.6155
   20MOL0     C 2609  -1.136   4.621   4.300  0.1349  0.0480 -0.2163
   20MOL0    Cl 2610  -1.304   4.567   4.321  0.2917 -0.8332  0.2085
   20MOL0     C 2611  -0.819   5.039   5.022 -0.0784 -0.3198 -0.4445
   20MOL0     C 2612  -0.755   4.938   5.086  0.5508 -0.0241  0.8496
   20MOL0     O 2613  -0.787   4.616   5.131 -0.4299 -0.4039  0.1728
   20MOL0     C 2614  -0.567   4.632   5.413  0.1387 -0.3904 -0.5109
   20MOL0     C 2615  -0.470   4.567   5.487 -0.6249 -0.8980  0.2216
   20MOL0     N 2616   0.211   4.431   5.768  0.1805 -0.7363 -0.0326
   20MOL0     N 2617   0.298   4.484   5.690 -0.2026  0.6096 -1.0740
   20MOL0     C 2618   0.861   4.934   4.799 -0.6341  0.3622  0.2493
   20MOL0     C 2619   0.965   4.900   4.704  0.3130 -0.8553 -0.9391
   20MOL0     C 2620   1.096   4.563   4.394  0.0652 -0.4744  0.3497
   20MOL0     C 2621   1.227   4.602   4.375  0.1641  0.4084 -0.4588
   20MOL0     C 2622   1.322   4.511   4.337  0.1358 -0.5397  1.3612
   20MOL0     C 2623   1.292   4.376   4.311  0.5508 -0.3468  0.5659
   20MOL0     O 2624   1.382   4.284   4.258  0.5200 -0.5554 -0.0035
   20MOL0     C 2625   1.336   4.208   4.151 -0.0214  0.6610  1.1552
   20MOL0     C 2626   1.386   4.265   4.018  0.8652 -0.2423  0.5508
   20MOL0     C 2627   1.359   4.158   3.900  0.0598  0.1681  0.1785
   20MOL0     C 2628   1.451   4.035   3.900 -0.4721  0.4307 -0.1755
   20MOL0     C 2629   1.425   3.934   3.800  0.0663 -0.8552  0.2860
   20MOL0     C 2630   1.386   3.864   3.713  0.0663  0.4459 -0.8773
   20MOL0     C 2631   1.157   4.344   4.316 -0.6054 -1.0132 -0.0506
   20MOL0     C 2632   1.057   4.431   4.371  0.2056 -0.2033 -0.2157
   20MOL0     H 2633   0.923   4.559   4.726  0.1309  0.5345 -1.4037
   20MOL0     H 2634   0.762   4.629   4.896 -1.0690  2.2274  2.8333
   20MOL0     H 2635   0.638   5.041   4.975  4.3351 -1.1820  1.9682
   20MOL0     H 2636   0.612   4.982   4.802  2.3640 -4.2192 -1.3397
   20MOL0     H 2637   0.401   5.000   4.898 -1.0363 -0.1064  2.0980
   20MOL0     H 2638   0.422   4.830   4.900 -0.0407  0.5255 -1.7595
   20MOL0     H 2639   0.468   4.803   5.124  2.1196  1.1104  1.0717
   20MOL0     H 2640   0.491   4.973   5.150  2.5350 -1.7932 -1.9197
   20MOL0     H 2641   0.240   5.016   5.086  0.1182 -1.2024 -1.6203
   20MOL0     H 2642   0.228   4.839   5.065  1.0533 -2.7057  2.5672
   20MOL0     H 2643   0.292   4.955   5.339 -1.4801  1.0755  0.7141
   20MOL0     H 2644   0.132   4.919   5.296  0.6257  2.1944  2.4809
   20MOL0     H 2645   0.155   4.693   5.256  0.4369 -0.2176 -0.9665
   20MOL0     H 2646   0.333   4.701   5.246  0.9759  1.4118  1.0462
   20MOL0     H 2647   0.355   4.761   5.491 -0.2904 -1.3668  2.7746
   20MOL0     H 2648   0.186   4.751   5.509  0.1065 -1.4150 -0.3420
   20MOL0     H 2649   0.392   4.545   5.455 -0.4588 -1.5379 -0.0971
   20MOL0     H 2650   0.239   4.508   5.382  0.3818 -1.3027  1.2327
   20MOL0     H 2651   0.011   4.540   5.537  0.9879 -0.3556 -1.3287
   20MOL0     H 2652  -0.016   4.459   5.922 -2.2654 -2.6553  0.3614
   20MOL0     H 2653  -0.111   4.542   5.791 -1.6820  0.5894  3.8457
   20MOL0     H 2654  -0.191   4.310   5.856  0.6100 -0.5012  1.2609
   20MOL0     H 2655  -0.027   4.246   5.803 -0.2434 -0.5452  0.2063
   20MOL0     H 2656  -0.198   4.199   5.660 -0.0682 -0.2525  0.4490
   20MOL0     H 2657  -0.079   4.317   5.568  0.2322 -1.7686 -0.6447
   20MOL0     H 2658  -0.239   4.503   5.607  1.2908 -0.0671  2.9843
   20MOL0     H 2659  -0.314   4.429   5.720  4.8574  1.3310  2.2711
   20MOL0     H 2660  -0.506   4.264   5.361 -0.5621  0.4483 -3.8029
   20MOL0     H 2661  -0.654   4.353   5.115 -0.3666 -0.4057 -0.2794
   20MOL0     H 2662  -0.717   4.246   5.248 -2.6507  0.0317  0.4996
   20MOL0     H 2663  -0.817   4.376   5.176  0.7020 -0.5640 -1.2512
   20MOL0     H 2664  -1.000   4.865   5.316  2.1638  0.8167  2.3846
   20MOL0     H 2665  -1.116   5.018   5.197  1.3224  0.3646  1.3768
   20MOL0     H 2666  -0.914   5.260   4.868  0.9393  0.2504  0.7864
   20MOL0     H 2667  -0.949   5.099   4.803  1.9142 -0.0352  2.2357
   20MOL0     H 2668  -1.206   5.198   4.790  0.1454  0.5587 -1.1183
   20MOL0     H 2669  -1.115   5.343   4.761 -1.8001  1.1414 -2.1249
   20MOL0     H 2670  -0.971   5.183   4.593 -0.9459  1.6322 -4.5274
   20MOL0     H 2671  -1.131   5.252   4.551 -0.7166  1.8149  2.5167
   20MOL0     H 2672  -1.083   4.978   4.668  1.4266 -2.0299 -2.2064
   20MOL0     H 2673  -1.238   5.031   4.621  0.7198 -2.1306  3.0135
   20MOL0     H 2674  -1.017   4.981   4.426  0.0163 -0.2684 -1.0021
   20MOL0     H 2675  -1.177   5.026   4.384 -1.9747 -1.9328  0.1068
   20MOL0     H 2676  -1.127   4.770   4.534 -1.2713 -0.0963 -0.0435
   20MOL0     H 2677  -1.271   4.840   4.458 -1.5399 -3.8752 -1.5741
   20MOL0     H 2678  -1.033   4.812   4.275 -1.2387  0.0578 -1.7510
   20MOL0     H 2679  -1.194   4.828   4.243  0.4227  0.5060  0.6476
   20MOL0     H 2680  -1.077   4.576   4.381 -1.5807 -0.9891  0.5118
   20MOL0     H 2681  -1.095   4.590   4.203 -0.1060 -2.1753  0.3258
   20MOL0     H 2682  -0.774   5.098   4.942  1.5998 -0.0372  0.6628
   20MOL0     H 2683  -0.652   4.911   5.064  1.0885  1.1292  1.8186
   20MOL0     H 2684  -0.557   4.739   5.429  1.9927 -0.5891 -0.0078
   20MOL0     H 2685  -0.399   4.617   5.551  0.4356 -0.7778 -1.0213
   20MOL0     H 2686   0.843   5.039   4.820  2.5969  1.3326 -1.2643
   20MOL0     H 2687   1.008   4.982   4.648  3.3213  1.3024  3.8494
   20MOL0     H 2688   1.269   4.702   4.376  1.4141 -0.0959 -0.2272
   20MOL0     H 2689   1.419   4.553   4.310 -0.2267 -1.1664 -1.2047
   20MOL0     H 2690   1.378   4.110   4.175 -1.9871 -0.3654  0.6496
   20MOL0     H 2691   1.230   4.178   4.145  0.1218  0.3200  0.2195
   20MOL0     H 2692   1.490   4.297   4.014  0.6925  0.2366 -2.7944
   20MOL0     H 2693   1.330   4.357   4.001  3.1037  0.9408 -1.0460
   20MOL0     H 2694   1.365   4.211   3.804  3.5967  2.1849  1.3069
   20MOL0     H 2695   1.255   4.127   3.906 -0.2479  0.2427 -2.9671
   20MOL0     H 2696   1.432   3.980   3.993  1.8130  1.6343  1.0984
   20MOL0     H 2697   1.556   4.064   3.903  0.2891 -2.1323  1.3612
   20MOL0     H 2698   1.357   3.798   3.633  0.7056  1.7126 -2.1984
   20MOL0     H 2699   1.132   4.239   4.300 -2.5886 -0.2369 -2.7298
   20MOL0     H 2700   0.958   4.401   4.405  0.4103  0.1498  0.7246
   21MOL0     O 2701   4.774   3.840   4.761 -0.0313 -0.2495 -1.0712
   21MOL0     C 2702   4.697   3.749   4.722 -0.6278  0.5350  0.3954
   21MOL0     O 2703   4.736   3.616   4.705 -0.2615  0.3573  0.5624
   21MOL0     C 2704   4.866   3.575   4.728 -0.2907  0.3635  0.0647
   21MOL0     C 2705   4.892   3.470   4.823 -0.1186  0.0695  0.3130
   21MOL0     C 2706   5.023   3.422   4.851  0.8771  0.0958 -0.0019
   21MOL0     C 2707   5.130   3.469   4.778 -1.0456  0.6385  0.1024
   21MOL0     O 2708   5.246   3.391   4.781  0.1107 -0.1478 -0.8137
   21MOL0     C 2709   5.338   3.394   4.664 -0.0869 -0.7831  0.5865
   21MOL0     C 2710   5.481   3.467   4.679  0.0571  0.3026  0.8741
   21MOL0     C 2711   5.594   3.383   4.727 -0.0212 -0.3738  0.4809
   21MOL0     C 2712   5.723   3.458   4.726  0.8978 -0.8263 -0.2870
   21MOL0     C 2713   5.833   3.355   4.764 -1.0162 -0.2621 -0.5939
   21MOL0     C 2714   5.966   3.423   4.746 -0.2874  0.4460  0.0055
   21MOL0     C 2715   6.089   3.336   4.789  1.3020  0.5612  0.5009
   21MOL0     C 2716   6.087   3.314   4.940 -0.3187  0.1590  0.0254
   21MOL0     N 2717   6.222   3.279   5.004 -0.1175  0.7817 -0.0677
   21MOL0     C 2718   6.274   3.153   5.015 -0.7728  0.0292  1.1078
   21MOL0     C 2719   6.399   3.170   5.075  0.6686  1.2265 -0.7260
   21MOL0     C 2720   6.511   3.075   5.104  0.3569  0.6582  0.6257
   21MOL0     C 2721   6.482   3.011   5.236 -0.1499 -0.0752  0.0818
   21MOL0     C 2722   6.560   2.878   5.237 -0.3157  0.2521  0.0019
   21MOL0     C 2723   6.555   2.817   5.379 -0.1389 -0.4133  0.4399
   21MOL0     O 2724   6.650   2.858   5.480 -0.0636 -0.2299  0.2744
   21MOL0     C 2725   6.773   2.793   5.472  0.6392 -0.6582  1.2605
   21MOL0     C 2726   6.873   2.863   5.407 -0.6411 -0.8244 -0.4471
   21MOL0     C 2727   7.011   2.833   5.416 -0.1583 -0.1560 -0.3007
   21MOL0     C 2728   7.112   2.918   5.342  0.3151  0.6675 -0.5408
   21MOL0     C 2729   7.049   2.714   5.487  0.5033 -0.2049 -0.6785
   21MOL0     C 2730   7.192   2.673   5.509  0.0354 -1.4754 -0.1863
   21MOL0     O 2731   7.209   2.544   5.551 -0.1806  0.6019 -0.6911
   21MOL0     C 2732   7.338   2.504   5.548 -0.0952  0.2585 -0.7404
   21MOL0     C 2733   7.418   2.549   5.654 -0.0525 -0.2749  0.4676
   21MOL0     C 2734   7.559   2.530   5.647  0.4984 -0.3559  0.7808
   21MOL0     C 2735   7.618   2.470   5.532 -0.8592  0.3530  0.1441
   21MOL0     O 2736   7.758   2.461   5.521  0.2845  0.0401  0.2064
   21MOL0     C 2737   7.846   2.490   5.632  0.0845 -0.4284  1.1103
   21MOL0     C 2738   7.989   2.452   5.595 -0.4603 -0.1799 -0.4735
   21MOL0     C 2739   8.042   2.512   5.471  1.4196  1.1901  0.3864
   21MOL0     C 2740   8.162   2.439   5.414 -0.8694  0.2320 -0.5455
   21MOL0     C 2741   8.198   2.503   5.275  0.7891  0.1304 -0.1012
   21MOL0     C 2742   8.331   2.441   5.230 -0.5643  0.0103  0.1986
   21MOL0     C 2743   8.335   2.473   5.086  0.1700 -0.0255  0.1481
   21MOL0     C 2744   8.389   2.366   4.997 -0.2498  0.4289 -0.2616
   21MOL0    Cl 2745   8.563   2.349   5.022 -0.1379 -0.0870 -0.4605
   21MOL0     C 2746   7.532   2.435   5.434 -0.8711 -0.0108  0.7595
   21MOL0     C 2747   7.390   2.447   5.440  0.6195 -0.4721  0.5606
   21MOL0     O 2748   7.281   2.753   5.496  0.1523  0.2338  0.6617
   21MOL0     C 2749   6.947   2.637   5.547  0.0774  0.1312 -0.1131
   21MOL0     C 2750   6.810   2.679   5.536 -0.6235  0.1764  0.0271
   21MOL0     N 2751   6.406   3.304   5.112  0.1811 -0.0162 -0.1807
   21MOL0     N 2752   6.293   3.362   5.080 -0.8289 -0.2154 -0.4350
   21MOL0     C 2753   5.113   3.589   4.703 -0.5054  0.5590 -0.7711
   21MOL0     C 2754   4.983   3.633   4.672  0.7979 -0.7120  0.0858
   21MOL0     C 2755   4.556   3.789   4.709  0.3352  0.6750 -0.1630
   21MOL0     C 2756   4.460   3.683   4.687  0.0136 -1.3377 -0.0111
   21MOL0     C 2757   4.328   3.716   4.663 -0.1651  0.1130  0.6237
   21MOL0     C 2758   4.271   3.847   4.686 -0.7690  0.5141  0.4695
   21MOL0     O 2759   4.143   3.888   4.654  0.5200  0.0312  0.1248
   21MOL0     C 2760   4.085   4.016   4.704  0.3351  0.0560 -0.4778
   21MOL0     C 2761   4.105   4.125   4.602  0.3651  0.4110  0.6348
   21MOL0     C 2762   4.057   4.261   4.660 -0.8762  0.2168  0.3240
   21MOL0     C 2763   4.055   4.385   4.567  1.2615  0.0135  0.4086
   21MOL0     C 2764   4.026   4.517   4.629  0.4998  0.3332 -0.3690
   21MOL0     C 2765   4.016   4.618   4.693 -1.1842 -0.8292  0.2056
   21MOL0     C 2766   4.369   3.940   4.733 -0.1301  1.3087  1.3644
   21MOL0     C 2767   4.507   3.910   4.741  0.7180 -0.6483  0.7036
   21MOL0     H 2768   4.804   3.417   4.859 -0.1258  0.9789  1.6778
   21MOL0     H 2769   5.028   3.336   4.918  0.1655 -0.2282 -0.3547
   21MOL0     H 2770   5.361   3.294   4.627  0.4352  0.1103 -1.6589
   21MOL0     H 2771   5.290   3.443   4.579  0.9218 -0.8643 -0.0472
   21MOL0     H 2772   5.498   3.523   4.587 -0.0246 -3.8370 -1.8923
   21MOL0     H 2773   5.483   3.549   4.752  2.9933  1.5351 -0.4145
   21MOL0     H 2774   5.570   3.359   4.831 -1.9648  1.4467  0.5059
   21MOL0     H 2775   5.608   3.291   4.669 -1.3285  0.4953 -1.2969
   21MOL0     H 2776   5.743   3.491   4.624  0.1120 -0.1817 -0.2443
   21MOL0     H 2777   5.721   3.547   4.789 -0.4696 -1.5994  0.8205
   21MOL0     H 2778   5.820   3.334   4.871 -2.7905  0.6716 -0.5848
   21MOL0     H 2779   5.833   3.259   4.711 -0.7066 -0.7436  0.2560
   21MOL0     H 2780   5.974   3.443   4.639 -0.8855  0.8809  0.0328
   21MOL0     H 2781   5.967   3.518   4.800  1.1851  0.1952  0.4697
   21MOL0     H 2782   6.084   3.233   4.753 -2.6526 -0.5495  3.5161
   21MOL0     H 2783   6.173   3.399   4.760 -0.4295  1.7310 -2.4237
   21MOL0     H 2784   6.007   3.242   4.961 -0.9905  0.8511 -0.1116
   21MOL0     H 2785   6.067   3.415   4.978  1.4483  1.2841 -1.8600
   21MOL0     H 2786   6.235   3.062   4.973 -1.1400  0.5834  0.2331
   21MOL0     H 2787   6.521   2.998   5.027 -2.8179 -1.5316  2.1918
   21MOL0     H 2788   6.604   3.132   5.099  1.9938 -1.8199  0.7126
   21MOL0     H 2789   6.375   2.993   5.250  0.3600 -1.5798  2.6995
   21MOL0     H 2790   6.509   3.081   5.316 -0.3130  2.4574 -1.9474
   21MOL0     H 2791   6.663   2.893   5.204  0.0626 -1.6085  0.1992
   21MOL0     H 2792   6.518   2.800   5.172  1.3467 -1.6936  1.1238
   21MOL0     H 2793   6.567   2.708   5.374 -4.0450 -0.9989  0.4073
   21MOL0     H 2794   6.464   2.844   5.433  1.2413  3.5037  1.1127
   21MOL0     H 2795   6.855   2.951   5.347  0.7099  1.1593  1.8736
   21MOL0     H 2796   7.158   2.979   5.421 -0.1226 -2.3006  2.1883
   21MOL0     H 2797   7.178   2.845   5.294 -2.4294 -1.6157 -1.0863
   21MOL0     H 2798   7.070   2.981   5.263  1.3808 -3.0017 -4.4010
   21MOL0     H 2799   7.377   2.613   5.731 -0.2306 -0.2306  0.3348
   21MOL0     H 2800   7.620   2.574   5.725  0.1504 -1.3329  1.6358
   21MOL0     H 2801   7.858   2.596   5.654  1.3337 -0.2649 -0.2044
   21MOL0     H 2802   7.798   2.454   5.724 -3.1571  1.4439  0.2969
   21MOL0     H 2803   8.058   2.479   5.676 -2.1002  1.2431  0.4974
   21MOL0     H 2804   7.986   2.343   5.591  1.4227 -0.2457 -1.4088
   21MOL0     H 2805   8.066   2.614   5.501  0.3331  0.6048  3.6235
   21MOL0     H 2806   7.964   2.507   5.395  0.0798 -1.0452  1.7938
   21MOL0     H 2807   8.256   2.449   5.470 -0.6795  3.9801 -1.2667
   21MOL0     H 2808   8.128   2.336   5.400 -2.9332  1.0515 -1.9313
   21MOL0     H 2809   8.205   2.610   5.294  1.0518  0.4814 -1.9575
   21MOL0     H 2810   8.112   2.493   5.208 -1.1614 -2.2434  2.5253
   21MOL0     H 2811   8.417   2.478   5.286 -1.0208 -0.6125  1.3540
   21MOL0     H 2812   8.330   2.332   5.239  3.0541 -0.3222 -1.7967
   21MOL0     H 2813   8.385   2.567   5.062  3.6347 -1.6401  0.4581
   21MOL0     H 2814   8.234   2.483   5.044 -0.3362  1.6022  1.6198
   21MOL0     H 2815   8.356   2.394   4.896 -2.1426  2.9642  0.9526
   21MOL0     H 2816   8.339   2.270   5.015 -1.7897  1.3162  0.3545
   21MOL0     H 2817   7.579   2.403   5.342 -0.0034 -0.7158  1.4302
   21MOL0     H 2818   7.322   2.424   5.358 -0.2737 -2.8479  1.8832
   21MOL0     H 2819   6.967   2.545   5.601  3.2762  1.1936  0.7436
   21MOL0     H 2820   6.744   2.631   5.607  3.0128 -0.5703  3.2474
   21MOL0     H 2821   5.200   3.630   4.653  0.4803 -2.6112 -1.9074
   21MOL0     H 2822   4.977   3.706   4.592  0.9083 -4.2167 -3.4028
   21MOL0     H 2823   4.488   3.589   4.641  0.7783  0.5547 -3.8605
   21MOL0     H 2824   4.255   3.640   4.639 -0.1544  0.5781 -0.9924
   21MOL0     H 2825   3.978   4.013   4.728  1.2257  0.2139  4.9380
   21MOL0     H 2826   4.129   4.041   4.802 -0.6191 -1.4628  0.3813
   21MOL0     H 2827   4.041   4.101   4.517  0.1608  0.6365  0.7247
   21MOL0     H 2828   4.212   4.124   4.576  0.0613 -2.3307 -0.8719
   21MOL0     H 2829   4.131   4.275   4.740 -0.7880 -1.4134  0.5629
   21MOL0     H 2830   3.962   4.244   4.710 -0.4770 -3.9700 -0.0186
   21MOL0     H 2831   3.963   4.372   4.510  2.0510 -2.1392 -0.4700
   21MOL0     H 2832   4.145   4.388   4.504  0.7520  2.0272 -0.2806
   21MOL0     H 2833   4.006   4.707   4.751  0.7169 -2.2793  3.0709
   21MOL0     H 2834   4.340   4.042   4.754  0.5404  1.8067 -0.0521
   21MOL0     H 2835   4.575   3.994   4.748  0.0075  0.2057 -1.5501
   22MOL0     O 2836   7.083   0.780   8.607 -0.1381 -0.4137 -0.1367
   22MOL0     C 2837   7.108   0.691   8.520 -0.6002 -0.7219 -0.1436
   22MOL0     O 2838   7.029   0.639   8.425  0.1943  0.4980  0.1351
   22MOL0     C 2839   6.894   0.644   8.435 -0.2142  0.5242 -0.4478
   22MOL0     C 2840   6.830   0.618   8.556 -0.6191 -0.0531 -0.0534
   22MOL0     C 2841   6.694   0.609   8.559 -0.9754 -0.6493 -1.1827
   22MOL0     C 2842   6.616   0.635   8.445  0.9940 -0.6559 -0.0710
   22MOL0     O 2843   6.472   0.627   8.444 -0.0143 -0.2300 -0.7939
   22MOL0     C 2844   6.405   0.549   8.345 -0.1987  0.2227 -0.4615
   22MOL0     C 2845   6.259   0.515   8.381 -0.3119 -0.5118 -0.0712
   22MOL0     C 2846   6.163   0.491   8.263  0.3823  0.5073  0.2270
   22MOL0     C 2847   6.189   0.370   8.172  0.2898  0.2263  0.2293
   22MOL0     C 2848   6.188   0.231   8.240 -0.7542 -0.2782  0.4522
   22MOL0     C 2849   6.058   0.193   8.319 -0.2343  0.0756 -0.2732
   22MOL0     C 2850   6.066   0.044   8.359 -0.0616  0.2209 -0.8958
   22MOL0     C 2851   5.934   0.001   8.447 -0.4017  0.1909  0.0843
   22MOL0     N 2852   5.814  -0.001   8.357 -0.8750 -0.1488 -0.5915
   22MOL0     C 2853   5.718   0.100   8.357  0.3617  0.4078 -0.1042
   22MOL0     C 2854   5.645   0.073   8.249  0.7758  0.1096  0.0395
   22MOL0     C 2855   5.535   0.157   8.188 -0.0825 -1.2843 -1.0284
   22MOL0     C 2856   5.410   0.165   8.271  0.2964  0.0523 -1.0398
   22MOL0     C 2857   5.332   0.030   8.289 -1.1173 -0.0541 -0.1582
   22MOL0     C 2858   5.272  -0.018   8.154 -0.0016 -0.3116 -0.1827
   22MOL0     O 2859   5.223  -0.157   8.158 -0.1813  0.3143 -0.3856
   22MOL0     C 2860   5.256  -0.236   8.058  0.0150  0.9684  0.2346
   22MOL0     C 2861   5.385  -0.246   7.998 -0.2015 -0.6726 -0.4218
   22MOL0     C 2862   5.396  -0.300   7.874 -0.3279  0.1255  1.1477
   22MOL0     C 2863   5.540  -0.281   7.809 -0.2132 -0.2252 -1.1905
   22MOL0     C 2864   5.288  -0.356   7.812  0.8268 -0.1027  0.4330
   22MOL0     C 2865   5.300  -0.419   7.674 -0.1203  0.0528 -1.1889
   22MOL0     O 2866   5.417  -0.483   7.642 -0.4978  0.4531 -0.7320
   22MOL0     C 2867   5.445  -0.540   7.519 -0.3675  0.1138 -0.4271
   22MOL0     C 2868   5.447  -0.684   7.499  0.0329  0.1227 -1.4095
   22MOL0     C 2869   5.484  -0.741   7.371 -0.1205 -0.1472  0.0887
   22MOL0     C 2870   5.539  -0.655   7.274  0.0751  0.1131 -0.4897
   22MOL0     O 2871   5.588  -0.696   7.150  0.8901 -0.3101 -0.3140
   22MOL0     C 2872   5.489  -0.655   7.057  0.5054  1.2854  0.4749
   22MOL0     C 2873   5.528  -0.664   6.911 -0.3751 -0.1931 -0.5938
   22MOL0     C 2874   5.657  -0.575   6.858 -0.1839  0.8301  0.4069
   22MOL0     C 2875   5.779  -0.595   6.942  0.4461 -0.3559 -0.0946
   22MOL0     C 2876   5.904  -0.578   6.863  0.5018  1.1737  0.1225
   22MOL0     C 2877   6.022  -0.618   6.953 -0.6669  0.6440 -0.0423
   22MOL0     C 2878   6.158  -0.619   6.886 -0.6648  0.5646  0.0224
   22MOL0     C 2879   6.200  -0.487   6.834 -0.3418 -0.0734  0.1990
   22MOL0    Cl 2880   6.272  -0.393   6.966 -0.0965 -0.3635  0.2197
   22MOL0     C 2881   5.553  -0.517   7.304 -0.0302 -0.2054 -0.1328
   22MOL0     C 2882   5.501  -0.461   7.423 -0.7495  0.9490  0.5041
   22MOL0     O 2883   5.198  -0.403   7.597  0.7611 -1.0242 -0.7923
   22MOL0     C 2884   5.157  -0.350   7.877  0.8436 -0.4309  0.4799
   22MOL0     C 2885   5.144  -0.288   7.995 -0.1986  0.6543  0.1516
   22MOL0     N 2886   5.688  -0.039   8.185  0.4724 -0.2983  0.4417
   22MOL0     N 2887   5.786  -0.086   8.257 -0.4317 -0.5801  0.2769
   22MOL0     C 2888   6.684   0.670   8.329  0.1024 -0.7185 -0.1815
   22MOL0     C 2889   6.819   0.673   8.324  1.2699 -0.3416  0.6891
   22MOL0     C 2890   7.245   0.624   8.519  0.0348  0.6944 -1.6768
   22MOL0     C 2891   7.281   0.529   8.423 -0.5881  1.1436  0.0532
   22MOL0     C 2892   7.411   0.477   8.421 -0.1488 -0.3796  0.5156
   22MOL0     C 2893   7.508   0.516   8.511 -0.0807 -0.5159 -0.0095
   22MOL0     O 2894   7.635   0.453   8.507 -0.0610 -0.2747  0.3271
   22MOL0     C 2895   7.690   0.405   8.628 -0.2095  0.6109 -0.1638
   22MOL0     C 2896   7.630   0.276   8.686  0.1968  0.1143  0.0054
   22MOL0     C 2897   7.618   0.164   8.577 -0.6301  0.1040 -0.0664
   22MOL0     C 2898   7.754   0.108   8.520 -0.1889  0.2285 -0.1525
   22MOL0     C 2899   7.835   0.040   8.624 -0.5791  0.3160  0.1577
   22MOL0     C 2900   7.904  -0.013   8.713  0.5150 -0.0151  0.8069
   22MOL0     C 2901   7.473   0.617   8.601  1.1561  0.2311  0.7127
   22MOL0     C 2902   7.342   0.670   8.613  0.1442 -0.0341  0.1986
   22MOL0     H 2903   6.892   0.591   8.641  2.3821  1.3121 -1.6708
   22MOL0     H 2904   6.631   0.592   8.645  1.2191 -0.7484  0.4897
   22MOL0     H 2905   6.393   0.610   8.255 -1.7317  1.7163  0.6829
   22MOL0     H 2906   6.456   0.455   8.321 -0.9376 -1.2537  3.0792
   22MOL0     H 2907   6.251   0.430   8.450 -4.6325 -1.2919 -1.2112
   22MOL0     H 2908   6.227   0.605   8.434  1.3876  2.4115 -3.6209
   22MOL0     H 2909   6.063   0.465   8.298  0.2964 -0.5028 -0.6953
   22MOL0     H 2910   6.147   0.583   8.206 -1.6600  0.1402  0.1245
   22MOL0     H 2911   6.109   0.369   8.097 -0.8764  5.0917  1.0911
   22MOL0     H 2912   6.283   0.379   8.118  0.3008 -0.5963  0.1022
   22MOL0     H 2913   6.203   0.158   8.159  2.4896 -0.0127  0.6514
   22MOL0     H 2914   6.279   0.224   8.301  0.0665 -0.2881 -0.7237
   22MOL0     H 2915   6.064   0.248   8.413  0.2329 -1.6824  0.7807
   22MOL0     H 2916   5.962   0.221   8.275  0.0586 -0.5215 -1.3359
   22MOL0     H 2917   6.064  -0.011   8.264  3.1392 -0.1654 -0.8730
   22MOL0     H 2918   6.153   0.006   8.413 -1.9880 -1.5888  1.1263
   22MOL0     H 2919   5.899   0.062   8.531  2.6545  2.2578  0.0318
   22MOL0     H 2920   5.946  -0.100   8.488 -0.2894  0.7672  1.5183
   22MOL0     H 2921   5.695   0.175   8.432 -1.7812  0.5801 -0.8809
   22MOL0     H 2922   5.569   0.261   8.180 -0.0376 -1.3768 -2.3545
   22MOL0     H 2923   5.509   0.124   8.087 -3.0785  1.8148 -1.4692
   22MOL0     H 2924   5.334   0.230   8.226 -0.4852  1.1189  1.6156
   22MOL0     H 2925   5.429   0.210   8.369  2.3130  0.6150 -1.6223
   22MOL0     H 2926   5.251   0.035   8.362 -0.7498 -0.1627  0.2642
   22MOL0     H 2927   5.406  -0.043   8.324  1.3045  0.9773 -2.6877
   22MOL0     H 2928   5.345  -0.009   8.074  0.5296 -0.7971  0.2408
   22MOL0     H 2929   5.189   0.052   8.136 -2.3993 -3.0382 -0.5660
   22MOL0     H 2930   5.463  -0.193   8.052 -0.6168 -0.1392 -0.3433
   22MOL0     H 2931   5.599  -0.225   7.882  1.3009  1.7679 -3.7465
   22MOL0     H 2932   5.595  -0.375   7.797  1.2999  0.9599 -6.2310
   22MOL0     H 2933   5.531  -0.228   7.713 -1.5965  0.1883 -0.8549
   22MOL0     H 2934   5.432  -0.739   7.591 -0.8945  1.1733 -0.9138
   22MOL0     H 2935   5.475  -0.847   7.351  0.5140 -0.3276  0.7247
   22MOL0     H 2936   5.404  -0.720   7.083  2.5688 -1.2895  1.2562
   22MOL0     H 2937   5.452  -0.553   7.067 -0.6626  0.7338  2.4848
   22MOL0     H 2938   5.544  -0.770   6.888  1.2859 -0.0586 -0.1656
   22MOL0     H 2939   5.439  -0.631   6.857 -2.3836 -0.9421  2.0471
   22MOL0     H 2940   5.626  -0.470   6.859  0.3431  1.0573 -1.7204
   22MOL0     H 2941   5.680  -0.600   6.754  0.9799  0.8399  0.6431
   22MOL0     H 2942   5.765  -0.525   7.025 -1.5102  0.5056 -1.0945
   22MOL0     H 2943   5.772  -0.694   6.988 -1.9558 -0.6578 -0.9759
   22MOL0     H 2944   5.929  -0.477   6.830  2.2007  0.7863  0.1256
   22MOL0     H 2945   5.891  -0.644   6.776  1.6505 -0.0735  0.8620
   22MOL0     H 2946   6.028  -0.549   7.037  0.5896  2.4277 -1.5106
   22MOL0     H 2947   6.005  -0.713   7.004 -2.3402  0.2870 -1.1896
   22MOL0     H 2948   6.165  -0.682   6.797 -4.5132 -0.9217  0.5769
   22MOL0     H 2949   6.219  -0.657   6.969  1.5142  2.1608 -0.7683
   22MOL0     H 2950   6.118  -0.438   6.781 -0.1806 -1.4137 -1.3496
   22MOL0     H 2951   6.282  -0.503   6.764 -0.1325  2.2822 -0.1685
   22MOL0     H 2952   5.600  -0.451   7.232  5.6609 -2.3648  1.0935
   22MOL0     H 2953   5.514  -0.356   7.447  0.2490  0.6786  1.2222
   22MOL0     H 2954   5.071  -0.386   7.821  1.4264 -1.7550  0.4184
   22MOL0     H 2955   5.039  -0.277   8.020 -0.1227 -0.0261  0.8153
   22MOL0     H 2956   6.617   0.691   8.246  0.2325 -1.4764 -0.4831
   22MOL0     H 2957   6.873   0.688   8.230 -2.1841 -2.4416 -1.8510
   22MOL0     H 2958   7.209   0.490   8.352 -1.0524 -0.2327  1.2263
   22MOL0     H 2959   7.441   0.411   8.340  2.5161  2.5047 -1.0584
   22MOL0     H 2960   7.797   0.392   8.615 -0.5638 -3.4328 -0.3863
   22MOL0     H 2961   7.682   0.483   8.705 -1.7877  2.3104 -1.9303
   22MOL0     H 2962   7.527   0.300   8.713  1.3160  4.2024  1.2575
   22MOL0     H 2963   7.688   0.246   8.773  0.6305  1.2708  0.1277
   22MOL0     H 2964   7.570   0.216   8.493 -1.7600 -1.3555 -0.3626
   22MOL0     H 2965   7.552   0.083   8.610  0.9078 -0.6597  1.2739
   22MOL0     H 2966   7.826   0.185   8.493  2.0923 -0.3620  3.5321
   22MOL0     H 2967   7.731   0.043   8.435 -0.1669  0.1425 -0.0939
   22MOL0     H 2968   7.965  -0.057   8.788 -0.0668 -1.5941  0.3862
   22MOL0     H 2969   7.550   0.657   8.666  0.6457  1.2627  0.6983
   22MOL0     H 2970   7.307   0.746   8.683  0.7274  0.1202  0.3223
   23MOL0     O 2971   2.229   7.572   9.011  0.9402  0.2902  0.3458
   23MOL0     C 2972   2.333   7.506   9.000  0.7485  0.2165  0.7194
   23MOL0     O 2973   2.409   7.496   8.884  0.6141 -0.1338  0.4331
   23MOL0     C 2974   2.349   7.547   8.772  0.2390  0.7803  0.2105
   23MOL0     C 2975   2.239   7.490   8.711 -0.7458  0.4595  0.7121
   23MOL0     C 2976   2.163   7.551   8.605 -0.6858  0.1365 -0.5758
   23MOL0     C 2977   2.210   7.681   8.560 -0.6926  0.4395 -0.0808
   23MOL0     O 2978   2.158   7.734   8.443 -0.6183 -0.9961 -0.3181
   23MOL0     C 2979   2.018   7.745   8.441  0.1749  0.2279 -0.1816
   23MOL0     C 2980   1.958   7.850   8.351  0.0812 -0.0123  0.5427
   23MOL0     C 2981   1.810   7.833   8.313 -0.3802  0.7283 -0.8327
   23MOL0     C 2982   1.760   7.955   8.227 -0.4217 -0.2739  0.2790
   23MOL0     C 2983   1.800   8.096   8.260 -0.5848 -0.9784 -0.6229
   23MOL0     C 2984   1.729   8.137   8.383  0.1197  0.1298  0.1702
   23MOL0     C 2985   1.775   8.280   8.422 -0.0166 -1.0270 -0.2003
   23MOL0     C 2986   1.780   8.312   8.571  0.3851 -0.1687  0.0511
   23MOL0     N 2987   1.861   8.218   8.650 -0.3171  0.0795  0.0609
   23MOL0     C 2988   1.998   8.204   8.630 -0.7087 -0.0965  0.2145
   23MOL0     C 2989   2.043   8.115   8.722 -0.1986  0.5448  0.3916
   23MOL0     C 2990   2.176   8.066   8.758  0.5595  0.8068 -0.1104
   23MOL0     C 2991   2.284   8.176   8.751 -0.1795  0.1389 -0.3400
   23MOL0     C 2992   2.285   8.283   8.866  0.4023  0.6748 -0.4662
   23MOL0     C 2993   2.367   8.412   8.839 -0.3224  1.0456 -0.5553
   23MOL0     O 2994   2.293   8.493   8.752  0.3963  0.3097 -0.2521
   23MOL0     C 2995   2.348   8.618   8.740  0.9908 -0.7506 -0.0915
   23MOL0     C 2996   2.278   8.693   8.642 -0.1889  0.2961  0.8893
   23MOL0     C 2997   2.329   8.822   8.597  0.7373  0.4211 -0.4239
   23MOL0     C 2998   2.256   8.889   8.481  0.4138  0.0517  0.1409
   23MOL0     C 2999   2.432   8.880   8.666 -0.6411  0.1337  0.4584
   23MOL0     C 3000   2.488   9.024   8.640  0.0450  0.8929  0.5871
   23MOL0     O 3001   2.592   9.049   8.717  0.1282  0.6679  0.0787
   23MOL0     C 3002   2.639   9.180   8.733 -1.1966 -0.1826 -0.1727
   23MOL0     C 3003   2.556   9.282   8.781 -0.5213 -0.3348  0.0974
   23MOL0     C 3004   2.604   9.415   8.799 -0.5292 -0.2545  1.1324
   23MOL0     C 3005   2.739   9.442   8.785  0.4960 -0.7891  0.3989
   23MOL0     O 3006   2.782   9.567   8.813 -0.2459  0.4361  0.0762
   23MOL0     C 3007   2.916   9.587   8.858 -0.2852 -0.5471  0.3752
   23MOL0     C 3008   2.937   9.722   8.907 -0.3829  0.3933  0.7361
   23MOL0     C 3009   2.842   9.748   9.019 -0.7408  0.4378 -0.0052
   23MOL0     C 3010   2.868   9.661   9.136  0.0075  0.0160  0.9322
   23MOL0     C 3011   2.819   9.723   9.270  0.5390 -0.0277 -0.4410
   23MOL0     C 3012   2.813   9.628   9.395 -0.1901  0.3720 -0.3111
   23MOL0     C 3013   2.761   9.696   9.520  0.8792 -0.3030  0.0696
   23MOL0     C 3014   2.697   9.600   9.616 -0.1205  0.7205 -0.3970
   23MOL0    Cl 3015   2.546   9.525   9.548 -0.1118 -0.0239 -0.0831
   23MOL0     C 3016   2.815   9.343   8.724  0.1686 -0.5415 -0.3563
   23MOL0     C 3017   2.776   9.213   8.705 -0.0965  0.0184  0.2350
   23MOL0     O 3018   2.444   9.100   8.554  0.2424 -0.3027  0.5587
   23MOL0     C 3019   2.488   8.811   8.772 -0.0497  0.2921 -0.0782
   23MOL0     C 3020   2.442   8.683   8.816 -0.4386 -0.8137 -0.3590
   23MOL0     N 3021   1.931   8.067   8.782  0.9090 -0.3285  0.1239
   23MOL0     N 3022   1.822   8.130   8.750 -0.3953  0.0269  0.1558
   23MOL0     C 3023   2.331   7.732   8.618  0.0122 -0.1139  0.6895
   23MOL0     C 3024   2.390   7.670   8.727 -0.7600  0.2251  0.6898
   23MOL0     C 3025   2.391   7.471   9.124 -0.7249 -0.4031  0.4021
   23MOL0     C 3026   2.330   7.485   9.246 -0.8310  0.5946 -0.6306
   23MOL0     C 3027   2.391   7.426   9.360 -0.3373  0.1592 -0.6712
   23MOL0     C 3028   2.523   7.380   9.346  0.4711  0.6675 -0.6781
   23MOL0     O 3029   2.586   7.337   9.456  0.2050 -0.1397 -0.9618
   23MOL0     C 3030   2.551   7.203   9.506  0.2206 -0.1722  0.0948
   23MOL0     C 3031   2.439   7.188   9.618  0.3111  0.0736  0.1808
   23MOL0     C 3032   2.462   7.062   9.696 -0.1532 -0.0555 -0.8950
   23MOL0     C 3033   2.357   7.016   9.804 -0.4908  0.1591 -0.2630
   23MOL0     C 3034   2.311   7.117   9.898  0.0429 -0.8276  0.2111
   23MOL0     C 3035   2.294   7.224   9.963 -0.0141  0.0792  0.9591
   23MOL0     C 3036   2.580   7.381   9.219 -0.5106 -0.0765 -0.6485
   23MOL0     C 3037   2.527   7.447   9.116  0.3307  0.4036 -0.0621
   23MOL0     H 3038   2.203   7.398   8.756  0.1693  0.5620  1.7091
   23MOL0     H 3039   2.079   7.493   8.567  1.4917 -4.1158  0.5423
   23MOL0     H 3040   1.984   7.649   8.399 -0.5174  0.1967  0.4173
   23MOL0     H 3041   1.984   7.751   8.545 -1.1913 -0.4440 -0.5570
   23MOL0     H 3042   1.977   7.943   8.406  3.7915 -1.7580  2.5856
   23MOL0     H 3043   2.009   7.840   8.255  1.7596 -1.2882  1.5255
   23MOL0     H 3044   1.811   7.742   8.252 -0.6967 -0.6902  1.1904
   23MOL0     H 3045   1.752   7.814   8.403  1.0733 -1.6418 -0.3289
   23MOL0     H 3046   1.806   7.932   8.130  1.2578  1.4286  0.6231
   23MOL0     H 3047   1.651   7.946   8.222 -0.4330  0.2326 -0.6825
   23MOL0     H 3048   1.909   8.083   8.267 -0.3059  1.7853  2.5954
   23MOL0     H 3049   1.770   8.160   8.177  0.1400 -1.4558 -1.2731
   23MOL0     H 3050   1.621   8.146   8.371 -0.4439 -0.8281  3.5621
   23MOL0     H 3051   1.746   8.067   8.465 -0.5787 -0.9936 -0.6322
   23MOL0     H 3052   1.875   8.287   8.379  0.5415 -2.4756  0.7876
   23MOL0     H 3053   1.705   8.351   8.377  0.6826  0.2250  0.5947
   23MOL0     H 3054   1.675   8.305   8.600 -0.6502  1.1695 -2.9351
   23MOL0     H 3055   1.830   8.406   8.592  1.4201 -1.2158  2.6413
   23MOL0     H 3056   2.059   8.260   8.559  0.1247  1.4094  2.0299
   23MOL0     H 3057   2.181   8.012   8.853 -1.5739 -1.6553 -1.2545
   23MOL0     H 3058   2.212   8.001   8.677  2.3130  2.2300 -0.5559
   23MOL0     H 3059   2.270   8.239   8.663  4.1291 -0.5675 -1.7293
   23MOL0     H 3060   2.383   8.133   8.737 -1.6853 -2.9852 -2.6494
   23MOL0     H 3061   2.319   8.242   8.961 -2.5423 -4.1822 -1.1722
   23MOL0     H 3062   2.178   8.304   8.875  0.0054 -1.5423  0.8212
   23MOL0     H 3063   2.460   8.381   8.791 -0.4005  1.0484 -0.7124
   23MOL0     H 3064   2.388   8.445   8.941 -0.1695  0.5307 -0.4192
   23MOL0     H 3065   2.199   8.634   8.596 -1.0964  1.6561  0.6613
   23MOL0     H 3066   2.191   8.813   8.437 -0.1611  0.3488  0.4765
   23MOL0     H 3067   2.212   8.987   8.500  1.6216  0.6729 -0.1748
   23MOL0     H 3068   2.331   8.906   8.403  1.6880 -3.9321  0.2548
   23MOL0     H 3069   2.457   9.259   8.819 -0.6733  0.3873  0.1386
   23MOL0     H 3070   2.535   9.492   8.832 -1.7834 -1.2615  0.9430
   23MOL0     H 3071   2.943   9.513   8.934 -2.0932 -0.9213  0.6982
   23MOL0     H 3072   2.984   9.571   8.774  1.1080  1.4367  1.0434
   23MOL0     H 3073   3.042   9.744   8.927  0.4519 -2.4874  0.0035
   23MOL0     H 3074   2.910   9.791   8.827  2.8803  0.8771 -0.0915
   23MOL0     H 3075   2.737   9.751   8.989 -1.3457 -4.6955  0.8299
   23MOL0     H 3076   2.877   9.842   9.063  1.5318  0.9108 -2.5860
   23MOL0     H 3077   2.812   9.567   9.127 -0.8079  0.6916 -1.6540
   23MOL0     H 3078   2.976   9.651   9.149  0.1781  3.4165  3.4094
   23MOL0     H 3079   2.730   9.785   9.254  0.9841  0.6902 -0.1990
   23MOL0     H 3080   2.892   9.803   9.290 -1.6530  1.7320  0.9753
   23MOL0     H 3081   2.740   9.552   9.366  1.7362 -1.8052  0.3106
   23MOL0     H 3082   2.903   9.572   9.423 -1.2929 -2.4273 -2.0212
   23MOL0     H 3083   2.683   9.770   9.499  3.5233  2.6714  0.0182
   23MOL0     H 3084   2.840   9.749   9.575 -0.8006  2.3709  0.1094
   23MOL0     H 3085   2.665   9.645   9.710 -1.0880  1.0804 -0.8777
   23MOL0     H 3086   2.758   9.512   9.636 -1.0171 -0.2211 -1.6187
   23MOL0     H 3087   2.919   9.347   8.692 -0.4913  1.8769 -2.5405
   23MOL0     H 3088   2.839   9.145   8.649 -2.3328 -0.9543 -1.2544
   23MOL0     H 3089   2.565   8.856   8.835  0.6719  0.6442 -1.1879
   23MOL0     H 3090   2.492   8.644   8.904 -2.3244  0.8920  1.5761
   23MOL0     H 3091   2.377   7.822   8.577 -1.6805  0.6648  0.4317
   23MOL0     H 3092   2.476   7.714   8.775 -1.5694  3.4942 -0.6066
   23MOL0     H 3093   2.228   7.523   9.249 -1.7250 -1.6913  0.7845
   23MOL0     H 3094   2.354   7.414   9.461  2.1629 -1.5566  0.1640
   23MOL0     H 3095   2.520   7.141   9.422  1.5133 -1.2402  0.3628
   23MOL0     H 3096   2.650   7.166   9.535  2.0975 -0.3643 -5.3354
   23MOL0     H 3097   2.338   7.186   9.575  0.5310 -0.3333 -0.3220
   23MOL0     H 3098   2.433   7.282   9.673 -0.0940  0.9090 -1.2417
   23MOL0     H 3099   2.561   7.071   9.743  0.0216  4.1071 -1.7186
   23MOL0     H 3100   2.471   6.976   9.629  1.3071  1.3456 -2.5635
   23MOL0     H 3101   2.412   6.947   9.869 -0.1524  0.5062 -0.1808
   23MOL0     H 3102   2.267   6.970   9.763 -0.2643 -2.3790  1.8025
   23MOL0     H 3103   2.294   7.310  10.026  0.8825 -0.0024  1.0884
   23MOL0     H 3104   2.681   7.344   9.215 -0.2255  0.6589 -0.4777
   23MOL0     H 3105   2.587   7.460   9.027 -0.9395 -1.2187 -1.2114
   24MOL0     O 3106   6.482   0.360   9.327  0.4785 -0.0572  0.5084
   24MOL0     C 3107   6.435   0.335   9.213 -0.2024  0.3979 -0.4538
   24MOL0     O 3108   6.470   0.401   9.096  0.1973  0.4375  0.3864
   24MOL0     C 3109   6.567   0.497   9.110  0.2294  0.3586 -0.2935
   24MOL0     C 3110   6.560   0.615   9.040  0.6924 -0.1108  0.2024
   24MOL0     C 3111   6.668   0.707   9.039 -0.3299  0.5600  0.5880
   24MOL0     C 3112   6.787   0.682   9.117  0.9587 -0.0297 -0.3675
   24MOL0     O 3113   6.898   0.762   9.099  0.1281  0.1703  0.2052
   24MOL0     C 3114   6.887   0.885   9.024  0.3501 -0.1364  1.0182
   24MOL0     C 3115   7.024   0.953   9.026 -1.2787  0.4230  0.5960
   24MOL0     C 3116   7.128   0.907   8.918  0.5011  0.5383  1.0276
   24MOL0     C 3117   7.283   0.935   8.928 -0.1284  0.3906  0.2221
   24MOL0     C 3118   7.313   1.089   8.945 -0.8382  0.5868  0.6163
   24MOL0     C 3119   7.260   1.172   8.823 -0.4550 -0.0052  0.1517
   24MOL0     C 3120   7.285   1.320   8.839  0.1818  0.6407  0.7548
   24MOL0     C 3121   7.432   1.360   8.815 -0.1358 -0.8946  0.2578
   24MOL0     N 3122   7.462   1.495   8.883  0.1405 -0.0277 -0.6034
   24MOL0     C 3123   7.579   1.552   8.881 -0.3444 -0.8009 -1.2474
   24MOL0     C 3124   7.578   1.643   8.986  0.1198  0.4060 -1.0558
   24MOL0     C 3125   7.688   1.720   9.047 -0.5767 -0.5400 -0.1160
   24MOL0     C 3126   7.762   1.640   9.155  1.6005 -0.3398 -0.7104
   24MOL0     C 3127   7.833   1.710   9.277  0.1489  0.6257  0.3852
   24MOL0     C 3128   7.741   1.809   9.360  0.1109  0.1836  0.2723
   24MOL0     O 3129   7.816   1.846   9.485 -0.7780  0.8354  0.7511
   24MOL0     C 3130   7.760   1.918   9.577  0.0223  0.5319 -0.5238
   24MOL0     C 3131   7.828   1.919   9.706 -0.3622  0.1686  0.2968
   24MOL0     C 3132   7.763   1.970   9.822 -1.2898 -0.3833  0.4938
   24MOL0     C 3133   7.860   1.957   9.938 -1.0438 -0.9932 -0.5596
   24MOL0     C 3134   7.635   2.027   9.809 -0.1297 -0.0165 -0.0945
   24MOL0     C 3135   7.561   2.108   9.909 -0.2977  0.8437 -0.1313
   24MOL0     O 3136   7.638   2.149  10.016 -0.1164  0.6728  0.4623
   24MOL0     C 3137   7.571   2.236  10.102  0.1608 -0.1964  0.4044
   24MOL0     C 3138   7.530   2.172  10.211  0.1216  1.1634  0.7140
   24MOL0     C 3139   7.467   2.234  10.326  0.0045  0.5816  0.2807
   24MOL0     C 3140   7.426   2.363  10.304  0.4709  0.4779 -0.6140
   24MOL0     O 3141   7.352   2.420  10.403 -0.2613 -0.4385  0.7962
   24MOL0     C 3142   7.278   2.542  10.379  0.7646  0.4915 -0.1186
   24MOL0     C 3143   7.207   2.574  10.502  0.7274 -0.2936  0.5938
   24MOL0     C 3144   7.301   2.583  10.626  0.3028  1.4960 -0.0806
   24MOL0     C 3145   7.241   2.665  10.750 -0.1510 -0.1607 -0.3733
   24MOL0     C 3146   7.335   2.689  10.862  0.3606  1.0213  0.5282
   24MOL0     C 3147   7.461   2.764  10.834  0.1401  0.1231  0.6947
   24MOL0     C 3148   7.532   2.799  10.966  0.2531 -0.8258  0.2203
   24MOL0     C 3149   7.674   2.839  10.946  0.6449  0.4127 -0.6985
   24MOL0    Cl 3150   7.749   2.697  10.890  0.3703  0.3733  0.0634
   24MOL0     C 3151   7.461   2.432  10.196 -0.1721 -0.5122 -0.3207
   24MOL0     C 3152   7.545   2.371  10.100  0.6345  0.1053 -0.3642
   24MOL0     O 3153   7.439   2.128   9.890  0.6413  0.2492 -0.4907
   24MOL0     C 3154   7.559   2.008   9.690 -0.1050  1.1242 -0.4595
   24MOL0     C 3155   7.619   1.951   9.576 -0.2096 -0.4103 -0.1584
   24MOL0     N 3156   7.449   1.638   9.045  0.0503 -0.7281  0.1755
   24MOL0     N 3157   7.373   1.551   8.988 -0.7632  0.1259 -0.2227
   24MOL0     C 3158   6.795   0.565   9.189  0.0902 -0.1685  0.4978
   24MOL0     C 3159   6.688   0.473   9.188 -0.9905  0.5013  0.4109
   24MOL0     C 3160   6.323   0.240   9.205  0.2108  0.1051 -0.1626
   24MOL0     C 3161   6.278   0.186   9.081 -0.0380 -0.0035  0.2339
   24MOL0     C 3162   6.171   0.101   9.078 -0.2394 -0.3452 -0.2886
   24MOL0     C 3163   6.114   0.042   9.185  0.3609  0.0506 -0.5983
   24MOL0     O 3164   6.013  -0.052   9.167  0.5047 -0.1969 -0.7277
   24MOL0     C 3165   6.036  -0.170   9.093  0.1168  0.5291  1.0058
   24MOL0     C 3166   5.911  -0.267   9.080 -0.0971  0.4364  0.3132
   24MOL0     C 3167   5.868  -0.349   9.208  0.0716  0.3602  0.8256
   24MOL0     C 3168   5.766  -0.445   9.179 -0.1077 -0.0114 -0.4412
   24MOL0     C 3169   5.841  -0.564   9.119  0.3198 -0.7732 -0.4372
   24MOL0     C 3170   5.882  -0.672   9.081 -0.3901 -0.2522 -0.1656
   24MOL0     C 3171   6.161   0.089   9.311  1.4322 -0.6331  0.4353
   24MOL0     C 3172   6.255   0.193   9.321 -0.2896  0.2595  0.8659
   24MOL0     H 3173   6.466   0.638   8.991  0.2221  1.6214  1.8245
   24MOL0     H 3174   6.665   0.806   8.995  0.9207  0.5889  0.5235
   24MOL0     H 3175   6.859   0.884   8.919  5.6907  3.3292 -0.8350
   24MOL0     H 3176   6.813   0.948   9.074 -1.0121  0.2521 -1.3570
   24MOL0     H 3177   7.007   1.061   9.034  1.9011  1.0204  0.2421
   24MOL0     H 3178   7.072   0.937   9.123 -1.8277 -1.2140  0.6307
   24MOL0     H 3179   7.132   0.798   8.916 -0.5187  0.4781 -1.6580
   24MOL0     H 3180   7.089   0.950   8.825  1.2332 -0.6720  0.1292
   24MOL0     H 3181   7.330   0.887   9.014 -0.9497 -0.0206  0.4543
   24MOL0     H 3182   7.336   0.895   8.841 -1.1790 -2.2383  0.7146
   24MOL0     H 3183   7.266   1.119   9.039  3.4786 -0.9829  3.5584
   24MOL0     H 3184   7.421   1.093   8.958 -0.2241 -2.9444 -1.8110
   24MOL0     H 3185   7.318   1.140   8.736 -2.6017 -0.5500 -1.1510
   24MOL0     H 3186   7.153   1.153   8.808 -0.6130  1.2936 -0.4433
   24MOL0     H 3187   7.209   1.370   8.779  0.0260 -1.3697 -0.8263
   24MOL0     H 3188   7.261   1.337   8.945  0.5368  2.3022  0.5991
   24MOL0     H 3189   7.441   1.374   8.707  0.6063 -1.1238  0.2827
   24MOL0     H 3190   7.512   1.292   8.848  0.5951 -0.8525 -1.3082
   24MOL0     H 3191   7.661   1.535   8.811  1.2755 -1.5430  0.7419
   24MOL0     H 3192   7.768   1.738   8.974  0.8618  0.9602  1.7050
   24MOL0     H 3193   7.653   1.817   9.085  0.9693  0.6033 -1.4564
   24MOL0     H 3194   7.838   1.575   9.110  2.5104  0.0912  0.1577
   24MOL0     H 3195   7.691   1.575   9.207  2.6077  1.0375  2.6666
   24MOL0     H 3196   7.926   1.762   9.251 -0.1216  0.9210 -0.0044
   24MOL0     H 3197   7.868   1.634   9.347  2.0527  2.7578  1.8942
   24MOL0     H 3198   7.643   1.769   9.386 -1.2744  2.2808 -1.3300
   24MOL0     H 3199   7.726   1.902   9.303  0.8976  0.1897  0.0564
   24MOL0     H 3200   7.929   1.881   9.716 -1.8481 -4.1822  1.0343
   24MOL0     H 3201   7.913   2.050   9.961  2.0756 -2.9906  1.1322
   24MOL0     H 3202   7.806   1.941  10.032 -0.0968  3.0099  0.8863
   24MOL0     H 3203   7.938   1.881   9.932  0.9184  1.0020 -1.8553
   24MOL0     H 3204   7.526   2.063  10.209  1.0966  1.1049  1.1654
   24MOL0     H 3205   7.454   2.190  10.424  2.3549 -1.4124 -0.1843
   24MOL0     H 3206   7.333   2.629  10.343  3.7804 -0.1791  2.4365
   24MOL0     H 3207   7.202   2.511  10.307  3.1292 -0.5344 -2.3342
   24MOL0     H 3208   7.167   2.674  10.487  4.2715  1.0264 -1.3554
   24MOL0     H 3209   7.125   2.507  10.526 -0.5287  0.9524 -0.0841
   24MOL0     H 3210   7.386   2.646  10.602  1.0653  1.6985  2.7374
   24MOL0     H 3211   7.336   2.481  10.643  0.4085  1.3954 -0.8667
   24MOL0     H 3212   7.210   2.765  10.718  2.5858  1.7193  2.2749
   24MOL0     H 3213   7.157   2.610  10.792 -0.4922  0.9155  0.4030
   24MOL0     H 3214   7.361   2.591  10.902  5.0412  1.1791 -1.5443
   24MOL0     H 3215   7.280   2.744  10.938  1.3192  4.2916 -0.9646
   24MOL0     H 3216   7.534   2.705  10.777  1.2165  2.0908 -0.0759
   24MOL0     H 3217   7.453   2.851  10.768 -2.3372  1.8292  3.0183
   24MOL0     H 3218   7.538   2.702  11.017  2.1513 -1.1781 -0.5818
   24MOL0     H 3219   7.478   2.880  11.015 -0.5565  0.1625 -2.1388
   24MOL0     H 3220   7.714   2.862  11.045  1.9399  0.0373 -1.1191
   24MOL0     H 3221   7.687   2.924  10.878  1.0831  0.9286  0.0173
   24MOL0     H 3222   7.441   2.538  10.186 -0.1278 -0.2440  2.0016
   24MOL0     H 3223   7.585   2.431  10.019  1.0913  1.1637  0.6104
   24MOL0     H 3224   7.461   2.051   9.675 -1.7286 -2.6323 -1.7696
   24MOL0     H 3225   7.553   1.954   9.490 -0.5904 -1.2950  0.0933
   24MOL0     H 3226   6.885   0.530   9.240 -0.5638 -1.6762  0.6444
   24MOL0     H 3227   6.708   0.377   9.236  0.7868 -1.6649 -4.0720
   24MOL0     H 3228   6.311   0.227   8.986 -1.9140  3.1378  0.7738
   24MOL0     H 3229   6.153   0.073   8.975  0.2890 -0.8428 -0.2486
   24MOL0     H 3230   6.069  -0.140   8.993  4.8421  1.7305  2.6143
   24MOL0     H 3231   6.122  -0.219   9.141  1.5565  0.0566 -1.8520
   24MOL0     H 3232   5.955  -0.338   9.009 -0.3202 -0.0837  0.6936
   24MOL0     H 3233   5.824  -0.225   9.027 -0.5594 -2.1450 -1.1275
   24MOL0     H 3234   5.799  -0.292   9.271  0.5298  0.0320  1.6385
   24MOL0     H 3235   5.957  -0.382   9.264 -1.1643  2.1214  4.1386
   24MOL0     H 3236   5.686  -0.410   9.113  0.9984 -0.4154 -2.0534
   24MOL0     H 3237   5.717  -0.472   9.273  1.0220 -0.3094  0.0843
   24MOL0     H 3238   5.925  -0.766   9.054  6.0324  2.1679 -0.3666
   24MOL0     H 3239   6.110   0.048   9.397 -0.5612 -0.4373 -0.6015
   24MOL0     H 3240   6.281   0.240   9.416  1.8342  0.8380  0.0522
   25MOL0     O 3241   1.546   9.430   9.877  0.6989 -0.2392  0.1389
   25MOL0     C 3242   1.621   9.530   9.884 -0.2698  0.1412  0.1593
   25MOL0     O 3243   1.756   9.526   9.889  0.6961  0.7339  0.4622
   25MOL0     C 3244   1.800   9.398   9.923 -0.1346  0.2552  0.1567
   25MOL0     C 3245   1.892   9.338   9.839 -0.3600  0.7358  0.2197
   25MOL0     C 3246   1.952   9.219   9.882 -0.2578  0.1084 -0.0169
   25MOL0     C 3247   1.929   9.165  10.011 -0.0930  0.0370 -0.4445
   25MOL0     O 3248   1.957   9.033  10.041  0.0902  0.0103 -0.9080
   25MOL0     C 3249   2.074   8.969   9.984  1.0062  0.8149  0.1031
   25MOL0     C 3250   2.060   8.817   9.997 -0.4388  0.1155 -0.8832
   25MOL0     C 3251   2.034   8.759  10.137 -0.3457 -0.5295 -0.8772
   25MOL0     C 3252   2.160   8.788  10.214 -0.1021  0.0358 -0.9886
   25MOL0     C 3253   2.127   8.733  10.356 -0.1273  0.0486 -0.0223
   25MOL0     C 3254   2.246   8.725  10.443 -0.1491 -0.2439 -0.3681
   25MOL0     C 3255   2.191   8.663  10.573 -0.0171 -0.4010 -0.8209
   25MOL0     C 3256   2.119   8.761  10.667  0.0664 -0.2550  1.2119
   25MOL0     N 3257   2.185   8.892  10.681 -0.4342  0.8988  0.6385
   25MOL0     C 3258   2.137   9.007  10.622  0.2000  0.8506 -0.3431
   25MOL0     C 3259   2.229   9.108  10.656 -0.2668  0.9465  0.4981
   25MOL0     C 3260   2.221   9.254  10.626 -0.5450  0.4067  1.0654
   25MOL0     C 3261   2.078   9.308  10.678 -1.2109 -0.1862 -1.2374
   25MOL0     C 3262   2.047   9.294  10.830 -0.9041  0.3816 -0.4200
   25MOL0     C 3263   1.902   9.334  10.863  0.0461  0.0888  0.5729
   25MOL0     O 3264   1.890   9.370  10.994  0.1646  0.2274 -0.6108
   25MOL0     C 3265   1.910   9.264  11.085 -1.2779  0.0636  0.1306
   25MOL0     C 3266   2.006   9.276  11.185 -0.1702  1.0177  0.0661
   25MOL0     C 3267   2.001   9.174  11.287  1.0170 -0.0301  0.0279
   25MOL0     C 3268   2.077   9.193  11.412  0.7279 -0.2309 -0.5013
   25MOL0     C 3269   1.924   9.059  11.269 -0.0013 -0.9862 -0.1698
   25MOL0     C 3270   1.910   8.956  11.369 -0.3200 -0.6876  0.4502
   25MOL0     O 3271   1.948   8.835  11.319 -0.3545  0.3028 -0.9505
   25MOL0     C 3272   1.930   8.722  11.394  0.6349  0.6126  0.6389
   25MOL0     C 3273   2.046   8.636  11.409 -0.2287  0.9626 -0.5946
   25MOL0     C 3274   2.031   8.504  11.460  0.7813  0.4106 -0.1856
   25MOL0     C 3275   1.913   8.464  11.523  0.1517 -0.5611 -0.3061
   25MOL0     O 3276   1.880   8.346  11.587 -0.2040 -0.7714  0.4427
   25MOL0     C 3277   1.964   8.242  11.560 -0.7571  0.8740 -0.1078
   25MOL0     C 3278   1.896   8.115  11.617  0.5694  0.0278 -0.8640
   25MOL0     C 3279   1.760   8.086  11.554  0.5646  0.1604  0.3227
   25MOL0     C 3280   1.694   7.967  11.622  0.7164  0.3416 -0.0711
   25MOL0     C 3281   1.552   7.942  11.575 -0.3391 -0.7014 -0.8821
   25MOL0     C 3282   1.491   7.810  11.629 -0.1487 -0.4933 -0.0778
   25MOL0     C 3283   1.338   7.803  11.612 -0.2680 -0.1634  0.0537
   25MOL0     C 3284   1.260   7.892  11.708  0.5748  0.4901 -0.4051
   25MOL0    Cl 3285   1.086   7.864  11.720 -0.0098  0.4032  0.0956
   25MOL0     C 3286   1.802   8.555  11.516 -0.0687  1.1535 -1.0960
   25MOL0     C 3287   1.813   8.676  11.454  0.5040  0.6486 -0.6994
   25MOL0     O 3288   1.863   8.983  11.474 -0.1196 -0.3243 -0.2518
   25MOL0     C 3289   1.840   9.049  11.160 -0.1914  0.4303 -0.1285
   25MOL0     C 3290   1.829   9.150  11.066 -0.5655 -1.3226 -0.8683
   25MOL0     N 3291   2.320   9.047  10.747  0.3200  0.2904  0.6079
   25MOL0     N 3292   2.300   8.925  10.750  0.1418  0.1939  0.2537
   25MOL0     C 3293   1.848   9.227  10.098  0.9376  0.4722 -0.1107
   25MOL0     C 3294   1.782   9.347  10.053  0.0261  0.0342  0.0777
   25MOL0     C 3295   1.547   9.663   9.863 -0.6439  0.8436  0.1541
   25MOL0     C 3296   1.605   9.784   9.903 -0.0182 -0.0288  0.1858
   25MOL0     C 3297   1.529   9.904   9.895 -0.0411 -0.8863 -0.1568
   25MOL0     C 3298   1.397   9.912   9.842  0.2158  0.5303 -0.6022
   25MOL0     O 3299   1.331  10.035   9.844 -0.4141  0.4597 -0.2587
   25MOL0     C 3300   1.192  10.034   9.801 -0.7128  0.0264 -0.5958
   25MOL0     C 3301   1.144  10.172   9.806  0.6332 -0.1656 -0.3161
   25MOL0     C 3302   1.001  10.164   9.753  0.4851 -0.0014  0.1510
   25MOL0     C 3303   0.935  10.297   9.730 -0.1288 -1.2106  0.0127
   25MOL0     C 3304   0.799  10.278   9.674  0.2221 -0.0120  0.0890
   25MOL0     C 3305   0.688  10.267   9.633  0.1042 -0.8726 -0.3858
   25MOL0     C 3306   1.350   9.792   9.803  0.3000  0.0402  0.1570
   25MOL0     C 3307   1.411   9.666   9.821 -0.1957  0.2048  0.5106
   25MOL0     H 3308   1.892   9.379   9.738 -1.4099 -0.4189 -0.2814
   25MOL0     H 3309   2.016   9.165   9.812  2.5521  1.1497  1.5560
   25MOL0     H 3310   2.102   8.992   9.881 -0.2362 -0.4747 -0.5575
   25MOL0     H 3311   2.151   9.013  10.048  1.4095 -0.1875  0.3111
   25MOL0     H 3312   1.971   8.795   9.937  0.4177  0.4676 -2.2981
   25MOL0     H 3313   2.143   8.766   9.948  1.2741  0.9881  0.9446
   25MOL0     H 3314   1.947   8.801  10.188  0.9755 -0.0835  1.0993
   25MOL0     H 3315   2.015   8.652  10.129 -2.2691 -0.1767 -1.5648
   25MOL0     H 3316   2.242   8.732  10.169  0.7223  1.7155 -1.6548
   25MOL0     H 3317   2.201   8.889  10.226  4.4274 -1.6997  0.2808
   25MOL0     H 3318   2.054   8.799  10.403 -0.9376 -2.9666  3.4456
   25MOL0     H 3319   2.078   8.635  10.346 -0.4287  0.2191 -0.2540
   25MOL0     H 3320   2.321   8.652  10.411  2.1178  1.4921  0.6382
   25MOL0     H 3321   2.297   8.821  10.459 -1.4686  0.3701  0.3570
   25MOL0     H 3322   2.142   8.570  10.543  1.7502 -0.6432 -3.2594
   25MOL0     H 3323   2.276   8.627  10.633  0.1971 -3.9462 -2.9692
   25MOL0     H 3324   2.114   8.715  10.766 -1.3180 -0.0144  1.2786
   25MOL0     H 3325   2.023   8.787  10.621  1.1968  1.6352 -0.2472
   25MOL0     H 3326   2.049   9.023  10.560 -1.8197  1.8492  2.5490
   25MOL0     H 3327   2.305   9.304  10.675 -0.8978  2.4642 -0.3100
   25MOL0     H 3328   2.220   9.261  10.517 -1.0535  3.6970  1.1775
   25MOL0     H 3329   1.997   9.266  10.617  0.4196 -1.0953 -2.8870
   25MOL0     H 3330   2.082   9.415  10.657  1.4715 -0.1880 -1.0455
   25MOL0     H 3331   2.118   9.355  10.887  0.1370 -1.5429  0.4259
   25MOL0     H 3332   2.070   9.191  10.857  0.0677  1.0694  1.5464
   25MOL0     H 3333   1.834   9.253  10.837 -0.6562  0.4797  1.1679
   25MOL0     H 3334   1.875   9.414  10.793 -1.7854 -2.2504 -1.5498
   25MOL0     H 3335   2.073   9.362  11.188  0.7822  0.2746  3.1105
   25MOL0     H 3336   2.118   9.294  11.404  0.1374 -0.0363 -1.1633
   25MOL0     H 3337   2.019   9.190  11.504  1.0297  0.1318 -0.2964
   25MOL0     H 3338   2.154   9.114  11.413 -0.6118 -1.6139  1.4712
   25MOL0     H 3339   2.144   8.671  11.380  1.0208  0.8586  3.0100
   25MOL0     H 3340   2.113   8.434  11.476 -0.4186 -0.4631  2.6126
   25MOL0     H 3341   1.971   8.223  11.452 -0.9901  2.1744 -0.3590
   25MOL0     H 3342   2.062   8.265  11.604 -1.1073  5.0635 -1.0985
   25MOL0     H 3343   1.952   8.020  11.611 -2.3007 -2.0117  1.4533
   25MOL0     H 3344   1.881   8.140  11.722 -0.6464 -2.3365 -0.4018
   25MOL0     H 3345   1.780   8.072  11.447 -0.3679  0.9904  0.0260
   25MOL0     H 3346   1.694   8.171  11.574 -0.5240 -0.6638  0.3328
   25MOL0     H 3347   1.743   7.873  11.595 -1.5075 -0.3543 -2.1144
   25MOL0     H 3348   1.693   7.991  11.729 -1.5006  1.1180 -0.2208
   25MOL0     H 3349   1.547   7.924  11.468 -2.1688 -0.7336 -0.8254
   25MOL0     H 3350   1.494   8.028  11.611  1.1822 -0.6482  1.7223
   25MOL0     H 3351   1.543   7.728  11.579 -0.8343 -0.2127 -1.3135
   25MOL0     H 3352   1.495   7.807  11.738 -3.4969  1.0103  0.2172
   25MOL0     H 3353   1.315   7.697  11.622 -1.2573  0.1382  1.3024
   25MOL0     H 3354   1.317   7.832  11.509 -0.4062  0.2980  0.2077
   25MOL0     H 3355   1.267   7.996  11.675  0.0296 -0.0047 -2.1981
   25MOL0     H 3356   1.294   7.873  11.810 -1.7611 -0.3411  0.3004
   25MOL0     H 3357   1.708   8.517  11.554  0.9898 -2.9383 -2.1207
   25MOL0     H 3358   1.731   8.745  11.438  0.9426  1.6317  1.0411
   25MOL0     H 3359   1.758   8.977  11.164 -0.0592  0.3285  1.7875
   25MOL0     H 3360   1.746   9.148  10.996 -1.8025 -0.0502  0.4619
   25MOL0     H 3361   1.842   9.177  10.194  1.2150 -0.8081 -0.7507
   25MOL0     H 3362   1.722   9.402  10.125  1.6703  0.5417  1.1118
   25MOL0     H 3363   1.705   9.780   9.943  0.8120 -0.2778 -1.7900
   25MOL0     H 3364   1.572   9.997   9.932  1.4238 -1.3502 -0.6296
   25MOL0     H 3365   1.175   9.986   9.704 -1.7499 -0.1846 -0.3199
   25MOL0     H 3366   1.126   9.986   9.874 -0.3582 -0.0703 -0.3358
   25MOL0     H 3367   1.201  10.227   9.730  0.3905 -0.7686 -0.9371
   25MOL0     H 3368   1.152  10.219   9.904  4.3801  1.3741 -1.1842
   25MOL0     H 3369   0.937  10.120   9.830 -1.0629  0.1508 -0.9990
   25MOL0     H 3370   0.987  10.096   9.668 -2.9223 -1.5212  1.7380
   25MOL0     H 3371   0.985  10.359   9.656  0.3525  2.5959  3.1744
   25MOL0     H 3372   0.928  10.346   9.828  1.6168  0.9013 -0.8429
   25MOL0     H 3373   0.587  10.259   9.599 -0.3478 -2.8453  1.1880
   25MOL0     H 3374   1.250   9.791   9.761  0.8480 -0.7793 -1.1913
   25MOL0     H 3375   1.362   9.572   9.802 -1.0368  0.5397  0.9769
   26MOL0     O 3376   0.367  10.910   7.398 -0.2994  0.1051  1.0047
   26MOL0     C 3377   0.379  10.847   7.506  0.6838 -0.5700  0.3910
   26MOL0     O 3378   0.501  10.818   7.560  0.7355  0.2143 -0.0807
   26MOL0     C 3379   0.619  10.881   7.520  0.2959 -0.4347 -0.2261
   26MOL0     C 3380   0.667  10.909   7.389  0.3757  0.3804 -1.3428
   26MOL0     C 3381   0.789  10.983   7.371 -0.7612 -0.6180  0.4085
   26MOL0     C 3382   0.851  11.046   7.476 -1.6438  0.4213  0.6056
   26MOL0     O 3383   0.962  11.119   7.441 -0.0883  0.0479 -0.4012
   26MOL0     C 3384   1.084  11.043   7.432  0.1072 -0.1818  0.2440
   26MOL0     C 3385   1.177  11.104   7.327 -0.1021  0.0808 -0.2678
   26MOL0     C 3386   1.088  11.158   7.209 -0.0539  0.1195  0.0484
   26MOL0     C 3387   1.159  11.211   7.086 -0.1208  0.7843 -0.4884
   26MOL0     C 3388   1.233  11.087   7.011  0.0295 -0.6497 -0.5263
   26MOL0     C 3389   1.354  11.139   6.929  0.3467  0.5936  0.2762
   26MOL0     C 3390   1.483  11.123   7.023 -0.2420  0.0550 -0.4622
   26MOL0     C 3391   1.599  11.200   6.972 -0.1470  0.1518 -0.0749
   26MOL0     N 3392   1.727  11.167   7.047 -0.0203 -0.4361  1.0069
   26MOL0     C 3393   1.782  11.240   7.151 -0.7887 -0.1609  0.0036
   26MOL0     C 3394   1.903  11.175   7.167  0.2092  0.9838  0.2916
   26MOL0     C 3395   2.016  11.227   7.249  0.1803 -0.0078  0.4017
   26MOL0     C 3396   2.024  11.146   7.384 -0.2893  0.1087 -0.0124
   26MOL0     C 3397   2.072  10.997   7.372  0.4117 -0.5640 -0.4148
   26MOL0     C 3398   1.990  10.911   7.471  0.2454  0.1802  0.0331
   26MOL0     O 3399   2.034  10.776   7.458  0.1078  0.3439  0.1116
   26MOL0     C 3400   1.940  10.671   7.452 -0.1067  0.0116  0.6358
   26MOL0     C 3401   1.977  10.548   7.400  0.6865 -0.3319 -0.0808
   26MOL0     C 3402   1.886  10.434   7.402 -0.2264 -0.5363  0.6232
   26MOL0     C 3403   1.933  10.298   7.346 -0.4542  0.8053  0.0708
   26MOL0     C 3404   1.765  10.455   7.469 -0.5957  0.3518 -0.2286
   26MOL0     C 3405   1.666  10.339   7.489 -0.5043 -0.5697  0.7254
   26MOL0     O 3406   1.531  10.379   7.492 -0.3821 -0.1358  0.6508
   26MOL0     C 3407   1.445  10.315   7.574 -0.1941  0.0652  0.5181
   26MOL0     C 3408   1.451  10.303   7.712  0.1508 -0.9255  0.5018
   26MOL0     C 3409   1.350  10.246   7.790 -0.0886 -0.7924 -1.0512
   26MOL0     C 3410   1.235  10.199   7.732 -0.4078 -0.2350 -0.4609
   26MOL0     O 3411   1.140  10.153   7.820 -0.5800 -0.2024  0.3344
   26MOL0     C 3412   1.060  10.046   7.774 -0.1457 -0.2520  0.4898
   26MOL0     C 3413   1.006   9.951   7.875  0.4210 -0.0229 -0.1317
   26MOL0     C 3414   1.109   9.895   7.964  0.3502 -0.5128  0.1887
   26MOL0     C 3415   1.042   9.792   8.054  0.4149 -0.1779 -0.9659
   26MOL0     C 3416   1.066   9.825   8.200 -0.0403  0.0716  0.0752
   26MOL0     C 3417   0.986   9.742   8.292  0.1297  0.4299  0.1050
   26MOL0     C 3418   1.025   9.747   8.442  0.4215 -0.5607 -0.3923
   26MOL0     C 3419   1.003   9.880   8.514  0.6165  0.2792  0.4510
   26MOL0    Cl 3420   0.823   9.895   8.536 -0.1870  0.3366 -0.2930
   26MOL0     C 3421   1.217  10.208   7.597  0.1730  0.7879  0.3093
   26MOL0     C 3422   1.324  10.264   7.521  0.0229 -0.6938  0.1322
   26MOL0     O 3423   1.717  10.244   7.540  0.6148  0.1894 -0.2800
   26MOL0     C 3424   1.719  10.581   7.517 -0.4041  0.5710 -0.6602
   26MOL0     C 3425   1.807  10.684   7.506 -1.2686  0.5577 -0.9468
   26MOL0     N 3426   1.923  11.076   7.071  0.2826 -0.5575  0.4307
   26MOL0     N 3427   1.811  11.072   7.008  0.5630  0.7854  1.0222
   26MOL0     C 3428   0.803  11.026   7.609  0.2048 -0.1483  0.7524
   26MOL0     C 3429   0.689  10.945   7.622 -0.0090 -1.0842 -0.1607
   26MOL0     C 3430   0.258  10.805   7.579  0.9552 -0.3300 -0.6792
   26MOL0     C 3431   0.276  10.739   7.706  0.2212  0.5001 -0.5210
   26MOL0     C 3432   0.166  10.681   7.762  1.0066  0.3296  0.5141
   26MOL0     C 3433   0.040  10.691   7.704 -0.1404  0.6556 -0.7468
   26MOL0     O 3434  -0.062  10.614   7.769 -0.4346  0.2288 -0.1308
   26MOL0     C 3435  -0.198  10.600   7.713 -0.1901  0.2080 -0.1529
   26MOL0     C 3436  -0.198  10.487   7.609 -0.0850 -0.5573  0.4011
   26MOL0     C 3437  -0.344  10.429   7.581 -0.6693 -0.4436 -0.6958
   26MOL0     C 3438  -0.329  10.336   7.468 -0.1204 -0.1454 -0.3907
   26MOL0     C 3439  -0.438  10.237   7.463 -0.3493 -0.6759  0.6755
   26MOL0     C 3440  -0.523  10.157   7.445 -0.3960 -0.6178  0.0953
   26MOL0     C 3441   0.024  10.764   7.586  0.4324 -0.2815  0.0849
   26MOL0     C 3442   0.128  10.816   7.525 -0.3162 -0.5229 -0.3966
   26MOL0     H 3443   0.614  10.875   7.301  1.4642 -2.5421 -0.9705
   26MOL0     H 3444   0.815  10.984   7.266 -0.0278 -1.4968  0.5737
   26MOL0     H 3445   1.133  11.041   7.530  0.0974  2.4797  0.3880
   26MOL0     H 3446   1.068  10.941   7.396  0.6715  0.2647 -1.3552
   26MOL0     H 3447   1.233  11.188   7.368 -2.2025  3.9972 -4.4694
   26MOL0     H 3448   1.248  11.026   7.295  2.3384  2.0283  0.0980
   26MOL0     H 3449   1.024  11.077   7.174 -0.6731 -0.0430  1.5003
   26MOL0     H 3450   1.020  11.233   7.251 -1.0166 -1.4631  1.4289
   26MOL0     H 3451   1.088  11.259   7.018 -1.9601  0.0285  0.8154
   26MOL0     H 3452   1.244  11.276   7.107  1.1991 -0.2653 -2.2584
   26MOL0     H 3453   1.276  11.001   7.063  0.0482  0.2956  1.1142
   26MOL0     H 3454   1.156  11.045   6.947 -1.5222 -1.5298  1.7855
   26MOL0     H 3455   1.361  11.069   6.845  1.2908 -0.8599  1.5225
   26MOL0     H 3456   1.338  11.243   6.898 -2.5543  1.2754  3.4483
   26MOL0     H 3457   1.459  11.178   7.115 -0.3603  2.7944 -2.0461
   26MOL0     H 3458   1.510  11.018   7.041  0.5060  0.0924 -1.3332
   26MOL0     H 3459   1.578  11.307   6.988  2.2973  1.2591 -3.3388
   26MOL0     H 3460   1.617  11.185   6.865 -1.2022  0.9776 -0.3903
   26MOL0     H 3461   1.750  11.330   7.202 -1.8428 -1.3492  1.5238
   26MOL0     H 3462   2.109  11.225   7.192  0.0646 -1.9455  0.2143
   26MOL0     H 3463   1.992  11.330   7.278 -1.2290  0.1361 -1.1602
   26MOL0     H 3464   1.929  11.144   7.437 -0.8301  1.0814 -0.9090
   26MOL0     H 3465   2.097  11.197   7.447 -1.2664  1.8123 -0.1858
   26MOL0     H 3466   2.179  10.988   7.389  0.1253 -0.7580  1.4342
   26MOL0     H 3467   2.067  10.951   7.272 -0.4352  0.3418 -0.8068
   26MOL0     H 3468   1.885  10.925   7.444  0.0068 -1.4777  0.0174
   26MOL0     H 3469   2.006  10.933   7.578  3.0369  0.1384 -0.2888
   26MOL0     H 3470   2.082  10.534   7.374  2.9424  2.7664  5.4519
   26MOL0     H 3471   1.854  10.234   7.305  1.9165 -1.1110 -1.8477
   26MOL0     H 3472   2.011  10.317   7.270  0.4955  0.5282  0.9507
   26MOL0     H 3473   1.974  10.241   7.430 -0.2497  1.2616  0.2839
   26MOL0     H 3474   1.536  10.346   7.765  1.5140 -1.0357 -1.4736
   26MOL0     H 3475   1.343  10.239   7.898  2.1853 -1.1497 -0.8760
   26MOL0     H 3476   0.967  10.076   7.726 -0.9196 -2.2781  0.6430
   26MOL0     H 3477   1.115   9.993   7.696  1.3473  0.7774  0.7899
   26MOL0     H 3478   0.944  10.015   7.939  1.8654  2.4252 -1.0105
   26MOL0     H 3479   0.941   9.879   7.826 -1.2651  0.3493  1.4614
   26MOL0     H 3480   1.159   9.979   8.014 -1.3489  0.6636 -0.0178
   26MOL0     H 3481   1.186   9.846   7.904 -0.3519 -1.9341  0.4286
   26MOL0     H 3482   0.933   9.793   8.051  0.1665 -0.9245  2.6075
   26MOL0     H 3483   1.085   9.699   8.017  1.0909  1.3858 -4.5532
   26MOL0     H 3484   1.051   9.930   8.226  1.3056  0.6255 -1.1811
   26MOL0     H 3485   1.170   9.801   8.224  0.2704  1.5596  0.3279
   26MOL0     H 3486   0.877   9.752   8.281  0.0376  0.5690  1.0490
   26MOL0     H 3487   1.004   9.637   8.268  1.4495  0.9450 -1.2881
   26MOL0     H 3488   1.130   9.716   8.451 -0.6732 -4.3485  1.9215
   26MOL0     H 3489   0.980   9.661   8.493 -0.3022 -0.3445 -0.6663
   26MOL0     H 3490   1.050   9.969   8.471  1.0593 -0.4082 -0.5289
   26MOL0     H 3491   1.050   9.873   8.613  1.8341  0.5252 -0.0867
   26MOL0     H 3492   1.127  10.171   7.547  0.6678  1.5439 -1.1888
   26MOL0     H 3493   1.300  10.275   7.415 -0.8467  1.1402  0.4662
   26MOL0     H 3494   1.618  10.601   7.554 -0.3600 -1.5638  0.8161
   26MOL0     H 3495   1.790  10.780   7.555  0.3447  0.2727  0.2736
   26MOL0     H 3496   0.848  11.091   7.683  4.6027 -0.7986 -1.0634
   26MOL0     H 3497   0.651  10.935   7.723  0.3318  3.8312  0.6938
   26MOL0     H 3498   0.368  10.728   7.763 -0.8938  2.3921  1.8131
   26MOL0     H 3499   0.177  10.624   7.854  0.8457  1.1459  1.0611
   26MOL0     H 3500  -0.268  10.568   7.792 -0.4129  4.7823  1.8170
   26MOL0     H 3501  -0.230  10.698   7.676  2.0018  1.3165  0.7406
   26MOL0     H 3502  -0.129  10.407   7.638 -0.0694 -1.2085 -1.3033
   26MOL0     H 3503  -0.159  10.530   7.516 -1.5512 -1.0172 -0.4731
   26MOL0     H 3504  -0.411  10.512   7.554  0.8200  0.1923 -2.6569
   26MOL0     H 3505  -0.361  10.382   7.678  0.6180 -0.4011 -0.4388
   26MOL0     H 3506  -0.230  10.289   7.479  0.6494  1.4699 -0.0771
   26MOL0     H 3507  -0.327  10.399   7.379  0.7727  0.7336  0.2263
   26MOL0     H 3508  -0.605  10.088   7.442  0.1466 -1.3904  1.7451
   26MOL0     H 3509  -0.070  10.785   7.536  2.2303  2.5308 -2.4737
   26MOL0     H 3510   0.106  10.862   7.429 -1.8271  0.0422  0.1898
   27MOL0     O 3511   4.886  11.284  10.216  0.1390 -0.2981 -0.1326
   27MOL0     C 3512   4.966  11.290  10.304 -0.3200 -0.0410  0.8724
   27MOL0     O 3513   4.979  11.208  10.408 -0.7504  0.1067  0.3573
   27MOL0     C 3514   4.936  11.081  10.405  0.0740  0.3911  0.1507
   27MOL0     C 3515   4.924  11.009  10.285  0.9958 -0.1860 -0.8030
   27MOL0     C 3516   4.870  10.883  10.290 -0.0289  0.1755 -0.3962
   27MOL0     C 3517   4.839  10.817  10.404 -0.6176  0.3809 -0.5663
   27MOL0     O 3518   4.773  10.697  10.391 -0.4638  0.3316  0.4056
   27MOL0     C 3519   4.870  10.586  10.397  0.2999 -0.6671  0.4487
   27MOL0     C 3520   4.818  10.478  10.488 -0.0818  0.9138 -0.4523
   27MOL0     C 3521   4.931  10.373  10.502 -0.4939  0.2153 -0.1745
   27MOL0     C 3522   4.891  10.237  10.557  0.1075  0.0446  0.4078
   27MOL0     C 3523   5.008  10.141  10.580 -0.7141  0.0230  0.6919
   27MOL0     C 3524   4.959  10.013  10.627  0.3913  1.2092 -0.4990
   27MOL0     C 3525   5.075   9.914  10.665  1.2940  0.7704 -0.1986
   27MOL0     C 3526   5.164   9.858  10.547 -0.2730  0.5433  0.4106
   27MOL0     N 3527   5.269   9.951  10.504  0.7308 -0.0694  0.1861
   27MOL0     C 3528   5.275   9.994  10.374 -0.9791 -0.2874 -0.0512
   27MOL0     C 3529   5.361  10.110  10.375  0.2304  0.6785  0.8783
   27MOL0     C 3530   5.401  10.192  10.260 -1.2855  0.7082  0.0206
   27MOL0     C 3531   5.344  10.334  10.258 -0.3436 -0.0087  0.1561
   27MOL0     C 3532   5.410  10.435  10.348  0.0354 -0.3570 -0.2654
   27MOL0     C 3533   5.325  10.538  10.422 -0.1456  0.4178  0.3434
   27MOL0     O 3534   5.247  10.619  10.336 -0.2708  0.3304 -0.9551
   27MOL0     C 3535   5.285  10.749  10.320 -0.1791 -0.5967 -0.0200
   27MOL0     C 3536   5.393  10.779  10.243  0.1128  0.0184 -0.0998
   27MOL0     C 3537   5.440  10.916  10.234 -0.0020 -0.3835  0.9024
   27MOL0     C 3538   5.550  10.942  10.129 -0.2248  0.8426  0.6868
   27MOL0     C 3539   5.368  11.021  10.298 -0.4426 -0.8977  0.0950
   27MOL0     C 3540   5.418  11.157  10.311  0.3378  0.3380  0.1857
   27MOL0     O 3541   5.551  11.170  10.329 -0.3230 -0.4730  1.0021
   27MOL0     C 3542   5.600  11.300  10.330  0.5472  0.2219  0.8974
   27MOL0     C 3543   5.692  11.355  10.237 -0.5079 -0.8156 -0.5670
   27MOL0     C 3544   5.734  11.489  10.240 -1.3493  0.4018 -0.0492
   27MOL0     C 3545   5.697  11.566  10.343 -1.4783 -0.6161  0.6412
   27MOL0     O 3546   5.756  11.692  10.350  0.4838 -0.4700 -0.3784
   27MOL0     C 3547   5.758  11.774  10.470 -0.1838  0.6996  0.2706
   27MOL0     C 3548   5.865  11.886  10.431  0.0603  0.5891 -0.3307
   27MOL0     C 3549   5.798  11.995  10.351  0.3669  0.0851  0.1613
   27MOL0     C 3550   5.889  12.074  10.266 -0.4468 -0.3446 -0.1448
   27MOL0     C 3551   5.812  12.168  10.169  0.3127 -0.0449 -0.1335
   27MOL0     C 3552   5.891  12.258  10.079  1.0634  0.1743  1.1886
   27MOL0     C 3553   5.788  12.329   9.972 -0.0723  0.2108 -0.9981
   27MOL0     C 3554   5.858  12.364   9.839  0.1310  0.0091  0.2166
   27MOL0    Cl 3555   5.947  12.520   9.838 -0.4154 -0.0184  0.0886
   27MOL0     C 3556   5.608  11.524  10.432 -0.4887  0.6588  0.3223
   27MOL0     C 3557   5.559  11.391  10.423  0.5239 -0.3506 -0.9568
   27MOL0     O 3558   5.333  11.240  10.279 -0.1594  0.2215  0.4564
   27MOL0     C 3559   5.251  10.985  10.363  0.0566  0.1010 -0.3692
   27MOL0     C 3560   5.204  10.853  10.379 -0.0561  0.1419 -0.1958
   27MOL0     N 3561   5.401  10.129  10.506  0.0631  0.4740  1.2908
   27MOL0     N 3562   5.345  10.033  10.572 -0.4869  0.4477  0.0706
   27MOL0     C 3563   4.843  10.890  10.528  0.4530 -0.5541  0.1819
   27MOL0     C 3564   4.903  11.022  10.524 -0.4744 -0.3605 -0.7876
   27MOL0     C 3565   5.044  11.416  10.289 -0.4951 -1.0473 -0.5829
   27MOL0     C 3566   5.117  11.452  10.404  0.9003 -0.9566 -0.9573
   27MOL0     C 3567   5.173  11.577  10.415 -0.3943  0.8065 -0.4756
   27MOL0     C 3568   5.167  11.671  10.311  0.4552 -0.0430  0.0575
   27MOL0     O 3569   5.207  11.801  10.322  0.1919  0.9579 -0.8608
   27MOL0     C 3570   5.332  11.806  10.395 -0.2064  0.2288 -0.3309
   27MOL0     C 3571   5.409  11.911  10.324 -0.7262 -0.7804  0.1211
   27MOL0     C 3572   5.358  12.051  10.368  0.4299  0.2121  0.2677
   27MOL0     C 3573   5.426  12.166  10.304 -0.1819  0.5473  0.9974
   27MOL0     C 3574   5.382  12.194  10.167 -0.0381  0.5618  0.3219
   27MOL0     C 3575   5.345  12.241  10.062 -0.6557 -0.9022 -0.1874
   27MOL0     C 3576   5.099  11.634  10.195 -0.2601  0.8313  0.6838
   27MOL0     C 3577   5.033  11.507  10.182  1.2138 -0.1762  0.4749
   27MOL0     H 3578   4.938  11.054  10.188 -2.5006  0.3332 -1.2077
   27MOL0     H 3579   4.860  10.831  10.196 -2.5449  0.3707 -0.3139
   27MOL0     H 3580   4.892  10.540  10.300  1.0739  1.4274 -0.4127
   27MOL0     H 3581   4.966  10.620  10.435  0.4803 -0.2457 -0.3690
   27MOL0     H 3582   4.775  10.514  10.582 -0.7111  0.2972 -0.4967
   27MOL0     H 3583   4.732  10.436  10.434 -0.5368  2.2595 -0.8024
   27MOL0     H 3584   4.981  10.360  10.405  2.5472  0.9481  1.1882
   27MOL0     H 3585   5.002  10.418  10.571 -1.8158 -3.7719  4.2994
   27MOL0     H 3586   4.840  10.252  10.652 -0.8331  0.2234 -0.1109
   27MOL0     H 3587   4.831  10.188  10.480  2.1201 -1.9798  0.0418
   27MOL0     H 3588   5.066  10.128  10.488 -2.6341 -2.0361 -0.3433
   27MOL0     H 3589   5.086  10.194  10.635  1.3156 -0.8718 -1.1583
   27MOL0     H 3590   4.894  10.013  10.714 -1.4821 -2.9905 -1.6654
   27MOL0     H 3591   4.900   9.966  10.547 -0.6989  1.0798  0.3625
   27MOL0     H 3592   5.140   9.959  10.740 -0.5378  2.5622  0.3950
   27MOL0     H 3593   5.031   9.825  10.712  1.2347  0.5639 -0.6331
   27MOL0     H 3594   5.096   9.827  10.468  0.2830  0.2025  0.0659
   27MOL0     H 3595   5.217   9.772  10.588 -4.6896 -2.7663 -0.0468
   27MOL0     H 3596   5.231   9.964  10.280  3.3433  1.6616 -3.0155
   27MOL0     H 3597   5.510  10.201  10.263 -1.1713 -0.7547  0.8812
   27MOL0     H 3598   5.381  10.128  10.174  0.6270 -0.6537  0.5165
   27MOL0     H 3599   5.240  10.327  10.291 -0.9010  2.7864 -0.7572
   27MOL0     H 3600   5.347  10.371  10.155 -0.0487  1.2639  0.6097
   27MOL0     H 3601   5.473  10.492  10.279 -0.9892 -0.1857 -1.0879
   27MOL0     H 3602   5.457  10.387  10.434 -0.2245  2.0153  1.2891
   27MOL0     H 3603   5.379  10.604  10.490  3.0272 -1.0833 -0.5439
   27MOL0     H 3604   5.251  10.478  10.475 -1.5475  0.3128 -1.6122
   27MOL0     H 3605   5.445  10.701  10.189  2.1505  0.9512  0.3829
   27MOL0     H 3606   5.543  10.875  10.043 -3.6414  2.0078 -0.0914
   27MOL0     H 3607   5.545  11.046  10.093  2.0419 -0.0135 -2.5449
   27MOL0     H 3608   5.648  10.930  10.176  0.1310  1.3988  0.1039
   27MOL0     H 3609   5.749  11.291  10.170  1.1915 -0.4121  0.4202
   27MOL0     H 3610   5.814  11.515  10.170 -0.1665 -0.6301  0.8570
   27MOL0     H 3611   5.655  11.795  10.501 -1.0331 -4.0913  1.5280
   27MOL0     H 3612   5.797  11.709  10.549  1.2449  1.0471 -0.1259
   27MOL0     H 3613   5.918  11.924  10.519  2.4284 -0.4283 -1.2342
   27MOL0     H 3614   5.942  11.838  10.369  1.7720  3.9884 -1.0614
   27MOL0     H 3615   5.729  12.063  10.402 -2.9128 -0.5015 -3.1001
   27MOL0     H 3616   5.724  11.953  10.282 -1.5807  3.7426 -0.2360
   27MOL0     H 3617   5.946  12.142  10.330 -1.4820 -1.3133  1.9193
   27MOL0     H 3618   5.963  12.010  10.217  1.6776  3.4934 -2.4482
   27MOL0     H 3619   5.752  12.227  10.238  3.1149  0.1669  2.2882
   27MOL0     H 3620   5.743  12.107  10.109 -1.6759  2.1976 -0.3221
   27MOL0     H 3621   5.948  12.335  10.132  2.6167 -1.5166  2.0622
   27MOL0     H 3622   5.953  12.187  10.025 -1.2477 -0.7061 -0.4636
   27MOL0     H 3623   5.740  12.415  10.019 -0.6000 -0.7925  0.3806
   27MOL0     H 3624   5.702  12.264   9.956 -0.1342 -0.0045  0.1047
   27MOL0     H 3625   5.777  12.395   9.772  1.6631  3.2788 -0.3070
   27MOL0     H 3626   5.904  12.274   9.797 -1.1408 -0.6379  0.1671
   27MOL0     H 3627   5.554  11.589  10.501  0.5635  3.4756 -1.3550
   27MOL0     H 3628   5.479  11.358  10.488 -0.7634  0.0672 -2.2804
   27MOL0     H 3629   5.197  11.052  10.429 -1.7262 -1.1750 -0.4863
   27MOL0     H 3630   5.116  10.828  10.437  0.7493 -0.9890  0.5855
   27MOL0     H 3631   4.810  10.842  10.619 -1.0427  0.0745  0.0118
   27MOL0     H 3632   4.911  11.079  10.616 -0.0053 -1.4384 -0.1418
   27MOL0     H 3633   5.119  11.377  10.483 -3.9313 -1.8307 -1.3274
   27MOL0     H 3634   5.214  11.604  10.512 -2.6518 -2.5482  1.6149
   27MOL0     H 3635   5.315  11.829  10.500  0.1070 -0.9164 -0.0239
   27MOL0     H 3636   5.398  11.719  10.388  0.4750  0.7261 -0.2668
   27MOL0     H 3637   5.409  11.896  10.216  1.4915 -0.2541  0.0024
   27MOL0     H 3638   5.512  11.905  10.363 -0.7516 -1.6670  0.0749
   27MOL0     H 3639   5.362  12.060  10.477  0.3906  0.8845  0.2237
   27MOL0     H 3640   5.252  12.061  10.344  0.1107  1.3180  1.9642
   27MOL0     H 3641   5.533  12.147  10.298 -0.1963  0.8395 -2.5370
   27MOL0     H 3642   5.414  12.254  10.367 -2.1122  0.2981  1.0488
   27MOL0     H 3643   5.296  12.281   9.976 -0.8201  0.6634  0.5800
   27MOL0     H 3644   5.079  11.707  10.118  0.5424  1.9893  1.5392
   27MOL0     H 3645   4.972  11.481  10.096 -0.9955 -2.0014  2.4324
   28MOL0     O 3646   7.195  10.162  11.157  0.1371 -0.0839 -0.5022
   28MOL0     C 3647   7.158  10.064  11.095  0.4415  0.0061  0.0103
   28MOL0     O 3648   7.076   9.963  11.146 -0.0730  0.2276  0.4555
   28MOL0     C 3649   7.015   9.962  11.272  0.1638  0.2557  0.5295
   28MOL0     C 3650   6.951  10.080  11.318 -0.3491  0.1379  0.0140
   28MOL0     C 3651   6.867  10.065  11.431  0.1133  0.0646 -0.0171
   28MOL0     C 3652   6.863   9.950  11.501  0.3341  0.0906 -0.5128
   28MOL0     O 3653   6.796   9.957  11.622 -0.6939 -0.2756  0.2088
   28MOL0     C 3654   6.782   9.829  11.697  0.2400  0.0650  0.0451
   28MOL0     C 3655   6.749   9.858  11.848  0.9482 -0.3452 -0.2534
   28MOL0     C 3656   6.602   9.905  11.882 -0.2718 -0.4433  0.6202
   28MOL0     C 3657   6.580   9.907  12.035 -0.7501  0.0374 -0.4417
   28MOL0     C 3658   6.435   9.952  12.078 -0.1739  1.0466 -0.4251
   28MOL0     C 3659   6.331   9.843  12.032 -0.3502 -0.1448 -0.2934
   28MOL0     C 3660   6.204   9.849  12.114 -1.2953  0.7179  0.4230
   28MOL0     C 3661   6.115   9.729  12.088  0.6542 -0.4206  0.7270
   28MOL0     N 3662   5.974   9.757  12.124  0.3230  0.2662 -0.3491
   28MOL0     C 3663   5.917   9.827  12.230  0.3892  0.0655  0.0814
   28MOL0     C 3664   5.784   9.789  12.236  0.3348 -0.0391 -0.3734
   28MOL0     C 3665   5.681   9.835  12.327  0.9330  1.0181  0.1127
   28MOL0     C 3666   5.689   9.814  12.475 -0.6431 -0.4324 -0.5663
   28MOL0     C 3667   5.750   9.944  12.547 -1.1607  0.3564 -0.4776
   28MOL0     C 3668   5.823   9.895  12.674  0.9418  0.3460 -0.0584
   28MOL0     O 3669   5.730   9.828  12.763 -0.1017  0.2000 -0.1578
   28MOL0     C 3670   5.736   9.874  12.892  0.0751 -0.7741 -0.0657
   28MOL0     C 3671   5.860   9.897  12.962 -0.3517  0.3646 -0.0397
   28MOL0     C 3672   5.881   9.947  13.095 -0.3044  0.3911  0.1847
   28MOL0     C 3673   6.026   9.965  13.133  0.0584  0.0886 -0.1281
   28MOL0     C 3674   5.761   9.955  13.172 -0.1271 -1.7889 -0.6214
   28MOL0     C 3675   5.756   9.978  13.321 -0.8259  0.0151  1.0975
   28MOL0     O 3676   5.637   9.981  13.396  0.2790  0.5021  0.2264
   28MOL0     C 3677   5.628  10.077  13.488 -0.3342 -0.2457  0.1333
   28MOL0     C 3678   5.692  10.068  13.613 -0.2206 -0.4231  0.0519
   28MOL0     C 3679   5.682  10.169  13.715 -0.2616 -0.0666  0.1134
   28MOL0     C 3680   5.608  10.280  13.682 -0.2440  1.3201  0.5956
   28MOL0     O 3681   5.566  10.381  13.772  0.1286 -0.1935 -0.4716
   28MOL0     C 3682   5.653  10.421  13.870  0.2651  0.9402  0.2403
   28MOL0     C 3683   5.662  10.571  13.881  0.3851  0.9221 -0.0543
   28MOL0     C 3684   5.678  10.650  13.742  0.0114  0.3570 -0.3297
   28MOL0     C 3685   5.830  10.644  13.710 -0.0712 -0.9596 -0.8083
   28MOL0     C 3686   5.855  10.697  13.560 -0.2996  0.2334  0.2370
   28MOL0     C 3687   5.832  10.843  13.554 -0.3202  0.0796  0.8860
   28MOL0     C 3688   5.878  10.896  13.422  0.9476 -0.3269  0.3374
   28MOL0     C 3689   5.833  11.049  13.413 -0.8576  0.4397  0.2223
   28MOL0    Cl 3690   5.649  11.062  13.397 -0.0887 -1.1782  0.2299
   28MOL0     C 3691   5.546  10.287  13.553  0.2274  0.4240 -0.9166
   28MOL0     C 3692   5.562  10.193  13.455 -0.9263 -0.2956  0.9882
   28MOL0     O 3693   5.866   9.991  13.375 -0.2138  0.6480  0.2418
   28MOL0     C 3694   5.641   9.945  13.109  0.8890  0.7224 -0.2322
   28MOL0     C 3695   5.629   9.900  12.976  0.5144 -0.8615  0.2698
   28MOL0     N 3696   5.763   9.693  12.140 -0.1426  0.2953 -0.1322
   28MOL0     N 3697   5.874   9.687  12.070  0.5679  0.3286  0.1776
   28MOL0     C 3698   6.920   9.834  11.457 -1.2397 -0.3233 -0.1321
   28MOL0     C 3699   7.000   9.843  11.342 -0.7515  0.4298 -0.0607
   28MOL0     C 3700   7.206  10.049  10.953 -0.2541  0.3564 -0.7214
   28MOL0     C 3701   7.279  10.150  10.888 -0.1959  0.1255  0.7254
   28MOL0     C 3702   7.334  10.138  10.761  0.2417 -0.6500  0.5316
   28MOL0     C 3703   7.313  10.020  10.693 -0.5677  0.1536 -1.2107
   28MOL0     O 3704   7.392  10.001  10.581 -0.4434 -0.0115 -0.0510
   28MOL0     C 3705   7.439   9.874  10.538 -0.4045  0.6376  0.6232
   28MOL0     C 3706   7.580   9.891  10.471  0.4140 -0.0785  0.1579
   28MOL0     C 3707   7.662   9.753  10.452  0.3922 -0.5206 -0.0100
   28MOL0     C 3708   7.787   9.780  10.369  0.8973  0.1308  0.4419
   28MOL0     C 3709   7.744   9.804  10.228  0.2311  0.5590  0.0643
   28MOL0     C 3710   7.728   9.821  10.105  0.1781 -0.6666 -0.9696
   28MOL0     C 3711   7.237   9.918  10.754  0.0304 -0.4026  0.9865
   28MOL0     C 3712   7.176   9.936  10.877 -0.1636 -0.1134 -0.7561
   28MOL0     H 3713   6.948  10.171  11.259 -2.2965 -0.5075 -0.9754
   28MOL0     H 3714   6.811  10.152  11.464  0.2724  1.2486 -2.6514
   28MOL0     H 3715   6.699   9.770  11.658  1.8741 -0.2624 -3.2792
   28MOL0     H 3716   6.876   9.773  11.707 -1.8277 -3.8301 -0.6426
   28MOL0     H 3717   6.758   9.765  11.905  2.3353  0.7685  1.4623
   28MOL0     H 3718   6.819   9.931  11.891  1.6759  1.4474 -4.1004
   28MOL0     H 3719   6.591  10.007  11.845  0.9048 -0.3482  0.5101
   28MOL0     H 3720   6.532   9.835  11.834 -1.1079 -0.3366  1.6586
   28MOL0     H 3721   6.604   9.812  12.084 -0.3134 -0.1525 -1.0068
   28MOL0     H 3722   6.648   9.979  12.082  0.8060  0.2767 -2.9146
   28MOL0     H 3723   6.422   9.949  12.186 -0.9924 -3.1837 -0.4568
   28MOL0     H 3724   6.408  10.054  12.049 -4.7353  0.1122 -0.2112
   28MOL0     H 3725   6.298   9.858  11.929 -1.8466  0.6691  0.2718
   28MOL0     H 3726   6.375   9.742  12.037 -1.2564 -0.6245 -1.4763
   28MOL0     H 3727   6.236   9.847  12.219  2.5547  2.3164 -0.5572
   28MOL0     H 3728   6.154   9.940  12.079  2.7474  2.1997 -2.0981
   28MOL0     H 3729   6.150   9.640  12.141  0.3205 -0.3597  1.0589
   28MOL0     H 3730   6.102   9.722  11.980 -1.3824 -0.9129  0.9502
   28MOL0     H 3731   5.975   9.896  12.290  2.8696 -0.5050 -1.4962
   28MOL0     H 3732   5.666   9.942  12.311  2.9743  1.0455 -2.1831
   28MOL0     H 3733   5.590   9.789  12.287 -1.0386  3.3604  1.6186
   28MOL0     H 3734   5.758   9.732  12.497  1.9359  1.8185  0.2481
   28MOL0     H 3735   5.588   9.797  12.513 -0.3771 -0.2517  0.2338
   28MOL0     H 3736   5.662  10.004  12.571 -0.9013  0.8417 -0.7075
   28MOL0     H 3737   5.820  10.002  12.485  1.3505  0.1949  2.0156
   28MOL0     H 3738   5.862   9.984  12.723 -2.1946  1.7337  0.2010
   28MOL0     H 3739   5.900   9.821  12.651 -0.8133 -2.0473  1.2655
   28MOL0     H 3740   5.952   9.884  12.906  0.7767  0.8626  1.6412
   28MOL0     H 3741   6.038  10.055  13.193 -1.2558 -0.9037  1.7221
   28MOL0     H 3742   6.057   9.884  13.200  0.4117  1.5380  1.5410
   28MOL0     H 3743   6.090   9.963  13.044  0.5810 -5.8353 -0.0303
   28MOL0     H 3744   5.740   9.971  13.626 -2.5667 -1.7849 -0.7017
   28MOL0     H 3745   5.725  10.155  13.813 -1.3567 -0.4882  0.5425
   28MOL0     H 3746   5.625  10.388  13.970  0.8781  1.1231  0.4745
   28MOL0     H 3747   5.750  10.378  13.843  0.5396  0.7789  1.4463
   28MOL0     H 3748   5.562  10.592  13.918 -0.1826  2.6520 -2.3076
   28MOL0     H 3749   5.735  10.604  13.956 -3.4677  2.1175  3.5375
   28MOL0     H 3750   5.642  10.752  13.754 -0.9900  0.4140 -3.1083
   28MOL0     H 3751   5.631  10.597  13.658  0.1275 -4.1331  2.0918
   28MOL0     H 3752   5.890  10.703  13.779 -0.0865 -2.5234  0.5993
   28MOL0     H 3753   5.870  10.543  13.714  1.4088 -0.3889 -0.6848
   28MOL0     H 3754   5.810  10.631  13.485  2.8666  1.1110 -2.6964
   28MOL0     H 3755   5.963  10.683  13.550 -0.6822 -2.2156 -1.1375
   28MOL0     H 3756   5.724  10.853  13.564 -0.4043 -1.3372  1.6562
   28MOL0     H 3757   5.870  10.894  13.643 -3.5260 -0.0100  2.4559
   28MOL0     H 3758   5.835  10.835  13.342 -1.1745  0.5835  0.7082
   28MOL0     H 3759   5.988  10.900  13.425  0.9153  3.7157  2.1714
   28MOL0     H 3760   5.871  11.084  13.317 -1.4259 -0.6094 -0.4002
   28MOL0     H 3761   5.870  11.112  13.495 -1.3539  1.0058  0.0182
   28MOL0     H 3762   5.497  10.384  13.549  0.7832  0.9961  2.9245
   28MOL0     H 3763   5.520  10.211  13.357  0.4638 -2.9156 -0.1971
   28MOL0     H 3764   5.547   9.931  13.161 -0.6196  1.2253 -2.7007
   28MOL0     H 3765   5.534   9.882  12.925 -0.3006  0.8466  1.1391
   28MOL0     H 3766   6.923   9.738  11.507 -1.5550 -1.5108 -2.2655
   28MOL0     H 3767   7.065   9.761  11.311 -0.9696  0.1281  0.2680
   28MOL0     H 3768   7.299  10.244  10.938 -1.9320  1.5996 -1.1820
   28MOL0     H 3769   7.400  10.220  10.732 -1.8550  1.4441  1.3379
   28MOL0     H 3770   7.453   9.799  10.616 -0.8759 -0.5736 -0.4280
   28MOL0     H 3771   7.364   9.830  10.472 -0.7942 -1.1424  2.1596
   28MOL0     H 3772   7.640   9.952  10.538 -1.2270  0.3778  1.2739
   28MOL0     H 3773   7.565   9.944  10.377  1.5415  0.5969  0.3473
   28MOL0     H 3774   7.595   9.683  10.403 -1.4230  1.8104 -1.0296
   28MOL0     H 3775   7.697   9.698  10.539  0.0880 -3.0862 -1.4216
   28MOL0     H 3776   7.844   9.687  10.360 -1.3106 -1.1855 -0.8596
   28MOL0     H 3777   7.840   9.863  10.416 -1.6247  1.0397  1.8769
   28MOL0     H 3778   7.719   9.816   9.998 -0.2690 -2.3963 -0.8731
   28MOL0     H 3779   7.228   9.819  10.711 -0.7844 -0.7719  1.9731
   28MOL0     H 3780   7.126   9.851  10.922 -0.2413  1.4970  2.4834
   29MOL0     O 3781   3.643   9.603  10.441  0.0063 -0.8680  0.3745
   29MOL0     C 3782   3.560   9.602  10.346  0.2527 -0.1089 -0.5998
   29MOL0     O 3783   3.578   9.586  10.211  0.2821  0.3831 -1.1402
   29MOL0     C 3784   3.703   9.600  10.154  1.3141  0.0036  0.8073
   29MOL0     C 3785   3.823   9.653  10.207  1.1223  0.3772 -0.3222
   29MOL0     C 3786   3.940   9.675  10.135  0.4062 -0.3071  0.3379
   29MOL0     C 3787   3.937   9.641   9.998  0.5095  0.5102  0.2627
   29MOL0     O 3788   4.046   9.658   9.915 -0.7198 -0.6199 -0.4176
   29MOL0     C 3789   4.087   9.793   9.879 -0.1682  0.9415 -0.2064
   29MOL0     C 3790   4.229   9.799   9.826 -0.0030  0.3745 -0.4957
   29MOL0     C 3791   4.332   9.724   9.913 -0.3505 -0.7399 -0.9169
   29MOL0     C 3792   4.415   9.824  10.009  0.5480 -0.0127 -0.0953
   29MOL0     C 3793   4.553   9.854   9.948 -0.3651  0.3803  0.7131
   29MOL0     C 3794   4.652   9.922  10.046 -0.4540 -0.7444 -0.0025
   29MOL0     C 3795   4.603  10.054  10.119 -0.4311  0.9085 -0.1405
   29MOL0     C 3796   4.687  10.083  10.244 -0.5231  0.6695 -0.2376
   29MOL0     N 3797   4.823  10.126  10.217  0.0942  0.5754 -0.2290
   29MOL0     C 3798   4.856  10.228  10.140  0.2488 -0.1845  0.9040
   29MOL0     C 3799   4.981  10.202  10.093 -0.1905 -0.1928  0.3343
   29MOL0     C 3800   5.060  10.296  10.008 -0.3780  0.4325  0.4287
   29MOL0     C 3801   5.022  10.446  10.025 -0.0635 -0.3708  0.2107
   29MOL0     C 3802   5.141  10.538  10.032 -0.7256  0.5394  0.2264
   29MOL0     C 3803   5.238  10.543   9.927 -0.3121  0.0145  0.0606
   29MOL0     O 3804   5.352  10.612   9.960  0.4023 -0.3263  0.5400
   29MOL0     C 3805   5.445  10.645   9.870 -0.4126 -0.2451  0.4735
   29MOL0     C 3806   5.573  10.647   9.911  0.0614  0.5340  0.2250
   29MOL0     C 3807   5.677  10.681   9.824 -0.0313 -0.7740  0.2598
   29MOL0     C 3808   5.816  10.658   9.875 -0.6692 -0.1722 -0.1542
   29MOL0     C 3809   5.645  10.726   9.696 -0.0286 -0.3082  0.0332
   29MOL0     C 3810   5.750  10.765   9.606  0.1684  0.2419 -0.3380
   29MOL0     O 3811   5.845  10.847   9.655 -0.2464 -0.0934  0.5848
   29MOL0     C 3812   5.964  10.846   9.585 -0.7408 -0.3480  0.7152
   29MOL0     C 3813   5.981  10.910   9.463 -0.4577 -0.7295 -0.3325
   29MOL0     C 3814   6.102  10.914   9.389 -0.2030  0.7439 -0.2109
   29MOL0     C 3815   6.210  10.843   9.438  0.0133 -0.4161  0.2259
   29MOL0     O 3816   6.327  10.837   9.377 -0.6835 -0.2795  0.6570
   29MOL0     C 3817   6.424  10.923   9.440  0.0234  0.0568 -0.6418
   29MOL0     C 3818   6.521  10.982   9.343  0.0077  0.2800 -0.5951
   29MOL0     C 3819   6.560  10.875   9.243  0.6067  0.1712 -0.0075
   29MOL0     C 3820   6.688  10.907   9.159 -0.0553  0.9561 -0.8201
   29MOL0     C 3821   6.746  10.781   9.087  0.4169 -0.1856  0.0090
   29MOL0     C 3822   6.678  10.725   8.972  0.4402  0.5540  0.7001
   29MOL0     C 3823   6.731  10.588   8.920 -0.7441  0.5301 -0.7073
   29MOL0     C 3824   6.741  10.481   9.027 -0.3618 -0.5266 -0.5277
   29MOL0    Cl 3825   6.736  10.309   8.989  0.5960 -0.1108 -0.3355
   29MOL0     C 3826   6.189  10.781   9.566 -1.3472  0.0436 -0.1287
   29MOL0     C 3827   6.073  10.779   9.633 -0.4906  0.0979 -0.0436
   29MOL0     O 3828   5.730  10.731   9.492  0.5490  0.7196  0.3916
   29MOL0     C 3829   5.517  10.719   9.644  0.1763 -0.1173 -0.0486
   29MOL0     C 3830   5.418  10.688   9.737  0.9645  0.2173 -0.1541
   29MOL0     N 3831   5.027  10.088  10.153 -0.4604  0.3442 -0.3825
   29MOL0     N 3832   4.929  10.037  10.223  0.0921 -0.2861  0.6914
   29MOL0     C 3833   3.819   9.592   9.945  0.5030  0.9288 -0.1443
   29MOL0     C 3834   3.705   9.563  10.018  0.4936  0.1363  0.1292
   29MOL0     C 3835   3.423   9.630  10.395 -0.5937 -0.4917  0.1978
   29MOL0     C 3836   3.374   9.594  10.522 -0.7409  0.4087  0.2086
   29MOL0     C 3837   3.254   9.628  10.568  0.7654 -0.2394  0.1415
   29MOL0     C 3838   3.160   9.701  10.486 -0.0791 -0.2597 -0.0697
   29MOL0     O 3839   3.040   9.747  10.529 -0.0873 -0.2297  0.3961
   29MOL0     C 3840   2.977   9.686  10.643 -1.2226  0.3055 -0.9682
   29MOL0     C 3841   2.964   9.804  10.741  0.3355 -0.0487 -0.1544
   29MOL0     C 3842   2.946   9.754  10.887 -1.3797 -0.6658 -0.3889
   29MOL0     C 3843   2.930   9.872  10.982 -0.1350  0.1375  1.3923
   29MOL0     C 3844   2.802   9.943  10.975  1.0006 -0.0535 -0.2418
   29MOL0     C 3845   2.691   9.995  10.969 -0.3069 -0.1205  0.6980
   29MOL0     C 3846   3.194   9.735  10.354  1.5343  0.9810  0.1946
   29MOL0     C 3847   3.323   9.695  10.310  0.4011  0.0570 -0.1770
   29MOL0     H 3848   3.826   9.683  10.311  3.8899 -0.7245 -0.0015
   29MOL0     H 3849   4.025   9.732  10.172  0.5088  1.5091 -2.4182
   29MOL0     H 3850   4.013   9.827   9.806 -1.2011 -0.4415  0.1711
   29MOL0     H 3851   4.080   9.864   9.963  4.8415 -0.6121  1.8838
   29MOL0     H 3852   4.227   9.746   9.731  1.8446  2.5104 -1.8363
   29MOL0     H 3853   4.262   9.902   9.810 -1.3295  0.9647  0.3123
   29MOL0     H 3854   4.280   9.650   9.974  1.1038  0.4721  1.9896
   29MOL0     H 3855   4.402   9.670   9.848 -2.0942 -3.7883 -0.4736
   29MOL0     H 3856   4.359   9.914  10.036  0.6118  0.1360 -0.4543
   29MOL0     H 3857   4.421   9.776  10.107  0.0207  0.7181  0.3040
   29MOL0     H 3858   4.591   9.752   9.934 -2.0480 -0.5398  2.3541
   29MOL0     H 3859   4.543   9.909   9.854 -1.9304  0.4194  0.8785
   29MOL0     H 3860   4.655   9.846  10.124 -3.4888  2.0163  3.1847
   29MOL0     H 3861   4.748   9.941   9.998 -1.1874  0.2755 -1.1492
   29MOL0     H 3862   4.607  10.143  10.056 -0.1845  1.6881  0.9446
   29MOL0     H 3863   4.498  10.045  10.148 -0.2682 -0.2725  0.1490
   29MOL0     H 3864   4.679  10.001  10.315 -3.2461  2.3086  1.5785
   29MOL0     H 3865   4.642  10.162  10.306  2.1530  0.4284  2.2002
   29MOL0     H 3866   4.792  10.311  10.113 -0.1940  0.1162  2.7746
   29MOL0     H 3867   5.167  10.285  10.028 -0.0125  0.0613 -1.5046
   29MOL0     H 3868   5.048  10.271   9.902 -0.7286  1.7595  0.1457
   29MOL0     H 3869   4.964  10.464  10.116 -3.6015 -2.6765 -1.3346
   29MOL0     H 3870   4.960  10.488   9.944  1.2103  2.6997  0.6962
   29MOL0     H 3871   5.201  10.512  10.120 -0.4414  1.5465  0.3388
   29MOL0     H 3872   5.102  10.640  10.039 -2.7597 -0.0370 -1.5097
   29MOL0     H 3873   5.191  10.592   9.842  0.3560  1.5618  0.5520
   29MOL0     H 3874   5.263  10.438   9.906 -0.1935  0.1548 -0.5175
   29MOL0     H 3875   5.583  10.631  10.017 -0.3457 -2.0357 -0.0676
   29MOL0     H 3876   5.873  10.617   9.792 -2.0950 -4.2767  0.6878
   29MOL0     H 3877   5.849  10.757   9.908 -3.4229  0.6336  0.4682
   29MOL0     H 3878   5.826  10.589   9.960 -1.2480 -0.6487 -0.4703
   29MOL0     H 3879   5.886  10.951   9.430  2.3123  5.4230 -2.2125
   29MOL0     H 3880   6.123  10.970   9.299 -1.5799  2.3858  0.4397
   29MOL0     H 3881   6.371  11.003   9.492  2.0943  0.4995  0.9472
   29MOL0     H 3882   6.487  10.871   9.513 -2.2891  0.4615  1.7980
   29MOL0     H 3883   6.468  11.064   9.293 -1.2947 -0.0455  0.2116
   29MOL0     H 3884   6.607  11.015   9.402  1.3660 -0.2333 -2.2016
   29MOL0     H 3885   6.483  10.841   9.174  1.5525  0.1009 -1.0552
   29MOL0     H 3886   6.583  10.794   9.314  2.3201  2.1948  1.8891
   29MOL0     H 3887   6.682  10.996   9.095  3.1082  1.1896 -0.9784
   29MOL0     H 3888   6.772  10.910   9.229  1.8241 -3.8676 -2.4427
   29MOL0     H 3889   6.751  10.703   9.163  0.6180  0.8268  1.0809
   29MOL0     H 3890   6.844  10.813   9.049  0.1122 -3.0856 -3.8537
   29MOL0     H 3891   6.573  10.713   9.000 -0.2902  0.7517 -1.6904
   29MOL0     H 3892   6.676  10.794   8.887  0.6887  2.3581  2.1041
   29MOL0     H 3893   6.834  10.593   8.884  1.0116  1.2759  3.7635
   29MOL0     H 3894   6.671  10.554   8.835  0.2596 -2.3634 -0.3798
   29MOL0     H 3895   6.663  10.506   9.100 -1.4507 -1.4469 -1.3356
   29MOL0     H 3896   6.837  10.498   9.076  1.0895 -2.4701 -2.5233
   29MOL0     H 3897   6.271  10.716   9.598 -0.9800 -0.5713 -2.1811
   29MOL0     H 3898   6.061  10.733   9.731 -1.0361  2.0271  0.8496
   29MOL0     H 3899   5.476  10.743   9.547 -1.5999  0.9509  0.9128
   29MOL0     H 3900   5.316  10.683   9.701 -0.0643 -0.2958  2.5518
   29MOL0     H 3901   3.824   9.580   9.837  1.3873  1.6535 -0.1939
   29MOL0     H 3902   3.612   9.532   9.972 -2.1365 -2.0413  5.8696
   29MOL0     H 3903   3.440   9.538  10.587  0.6011  3.1874  1.4413
   29MOL0     H 3904   3.216   9.602  10.666 -3.4356  3.6415 -0.1322
   29MOL0     H 3905   2.872   9.662  10.623 -0.8481 -0.6574 -1.8492
   29MOL0     H 3906   3.028   9.595  10.675  1.3150  2.2848  1.0036
   29MOL0     H 3907   2.879   9.868  10.717  2.5943  4.6839  3.0271
   29MOL0     H 3908   3.054   9.866  10.748 -1.6448  2.8212  2.4134
   29MOL0     H 3909   3.025   9.689  10.924  0.2792  2.0557  1.2269
   29MOL0     H 3910   2.857   9.690  10.891  0.6925 -3.7105 -0.1661
   29MOL0     H 3911   3.014   9.936  10.955  0.0498 -0.6082  0.1056
   29MOL0     H 3912   2.930   9.831  11.083  0.2936 -1.6825  0.7034
   29MOL0     H 3913   2.594  10.040  10.959 -0.5305 -0.3433  1.6955
   29MOL0     H 3914   3.128   9.789  10.286 -0.0509 -1.2455 -0.1180
   29MOL0     H 3915   3.369   9.737  10.221  4.0998 -0.8562  1.1367
   30MOL0     O 3916   0.130   8.966   1.332 -0.0727 -0.4895  0.0172
   30MOL0     C 3917   0.128   8.956   1.457  0.1064  0.0916  0.2496
   30MOL0     O 3918   0.091   9.054   1.550  0.3908  0.3591 -0.1494
   30MOL0     C 3919   0.033   9.168   1.487 -0.6281 -0.3802 -0.0463
   30MOL0     C 3920   0.101   9.244   1.387 -0.7931 -0.2545 -0.6193
   30MOL0     C 3921   0.032   9.355   1.322 -0.1111 -0.0412  0.6380
   30MOL0     C 3922  -0.099   9.393   1.373 -0.7476 -0.3704 -0.0627
   30MOL0     O 3923  -0.161   9.500   1.319 -0.1949 -0.7297  0.8310
   30MOL0     C 3924  -0.286   9.467   1.281  0.2155  0.6332  0.0035
   30MOL0     C 3925  -0.368   9.574   1.219  0.0359 -0.5372  0.1959
   30MOL0     C 3926  -0.378   9.698   1.314 -0.4729 -1.4975 -0.7047
   30MOL0     C 3927  -0.481   9.799   1.253  0.0624  0.3394 -0.9139
   30MOL0     C 3928  -0.477   9.942   1.314  0.1469  0.2630 -0.0978
   30MOL0     C 3929  -0.340  10.019   1.288  0.5277 -0.1813  0.1807
   30MOL0     C 3930  -0.336  10.087   1.154 -0.4427  0.4097  0.2261
   30MOL0     C 3931  -0.220  10.181   1.158  0.6793  0.6071 -0.4676
   30MOL0     N 3932  -0.212  10.254   1.027  0.1704 -0.4651  0.4172
   30MOL0     C 3933  -0.118  10.226   0.929 -0.2055  0.1850  0.1835
   30MOL0     C 3934  -0.157  10.307   0.830  0.6125 -0.2793 -0.2160
   30MOL0     C 3935  -0.081  10.302   0.702  0.1115 -0.4845  0.1331
   30MOL0     C 3936  -0.157  10.350   0.576  0.4899  0.0311 -0.0818
   30MOL0     C 3937  -0.053  10.371   0.465 -0.8730 -0.2304 -0.3116
   30MOL0     C 3938  -0.095  10.447   0.331 -0.3017  0.8108 -0.9353
   30MOL0     O 3939  -0.158  10.575   0.366 -0.2311 -0.6861  0.4488
   30MOL0     C 3940  -0.161  10.673   0.262  0.3318 -0.4257 -0.1731
   30MOL0     C 3941  -0.180  10.651   0.127 -0.6817  0.8943  0.1658
   30MOL0     C 3942  -0.199  10.749   0.022 -1.3572 -0.0227 -0.1404
   30MOL0     C 3943  -0.217  10.704  -0.122  0.2403  0.3645  0.2009
   30MOL0     C 3944  -0.186  10.890   0.066 -0.2157  0.2078  0.9309
   30MOL0     C 3945  -0.173  11.006  -0.027  0.5646 -0.6275  0.4968
   30MOL0     O 3946  -0.179  10.991  -0.164  0.4230  0.0773  0.6791
   30MOL0     C 3947  -0.121  11.078  -0.246  0.7145  0.1437 -0.4583
   30MOL0     C 3948  -0.166  11.078  -0.378 -0.7380 -0.0545 -0.2706
   30MOL0     C 3949  -0.104  11.170  -0.468  0.0863  0.5474  0.1987
   30MOL0     C 3950  -0.003  11.256  -0.432  0.2065  0.7234  0.5127
   30MOL0     O 3951   0.049  11.341  -0.527  0.1089  0.0250  0.7623
   30MOL0     C 3952  -0.035  11.414  -0.613 -0.1772 -0.3402 -0.2801
   30MOL0     C 3953   0.051  11.468  -0.716 -0.2396 -0.3466 -0.3013
   30MOL0     C 3954   0.150  11.586  -0.668 -0.1327  0.2544 -0.4609
   30MOL0     C 3955   0.217  11.655  -0.784  0.4325  0.0067  0.7000
   30MOL0     C 3956   0.323  11.755  -0.749  0.0166 -0.1510 -0.3382
   30MOL0     C 3957   0.259  11.888  -0.697 -0.5663  0.2359 -0.2339
   30MOL0     C 3958   0.374  11.996  -0.676  0.0005  0.0652 -0.3189
   30MOL0     C 3959   0.321  12.138  -0.631 -0.6513  0.8987 -0.1592
   30MOL0    Cl 3960   0.307  12.229  -0.787  0.3152 -0.0968 -0.2386
   30MOL0     C 3961   0.039  11.254  -0.301  0.3182  0.3279  0.2510
   30MOL0     C 3962  -0.018  11.162  -0.212 -0.5249 -0.8641  1.0518
   30MOL0     O 3963  -0.168  11.114   0.027  0.0548  0.4355  0.2141
   30MOL0     C 3964  -0.183  10.906   0.205  0.8020 -0.8855 -0.6088
   30MOL0     C 3965  -0.170  10.802   0.293 -0.2010  0.5717 -0.6226
   30MOL0     N 3966  -0.271  10.385   0.869  0.0383 -0.5629  0.5253
   30MOL0     N 3967  -0.302  10.346   0.987  0.3937 -0.7536 -0.3190
   30MOL0     C 3968  -0.146   9.325   1.485 -0.3257 -0.4816  0.1436
   30MOL0     C 3969  -0.088   9.214   1.529  1.1935 -0.5053 -0.0790
   30MOL0     C 3970   0.161   8.820   1.513 -0.3862  0.0582  0.7367
   30MOL0     C 3971   0.119   8.793   1.648 -0.5265  0.8752 -0.7117
   30MOL0     C 3972   0.153   8.672   1.714  0.1274  0.8475 -0.6272
   30MOL0     C 3973   0.231   8.570   1.642 -0.0520 -0.7281  0.0584
   30MOL0     O 3974   0.280   8.451   1.690  0.5053  0.0410  0.1738
   30MOL0     C 3975   0.258   8.415   1.825  0.6045  0.1065 -0.3043
   30MOL0     C 3976   0.384   8.342   1.872  1.4944 -0.4802  1.1254
   30MOL0     C 3977   0.410   8.225   1.777  0.3973 -0.4593  0.8675
   30MOL0     C 3978   0.338   8.099   1.829  0.3328 -0.7968  0.4586
   30MOL0     C 3979   0.408   7.992   1.762 -0.0870  0.1351  0.7348
   30MOL0     C 3980   0.475   7.907   1.702 -0.7443  0.2137 -0.6553
   30MOL0     C 3981   0.281   8.602   1.514  0.0326  0.1724  0.3112
   30MOL0     C 3982   0.238   8.721   1.450  0.1597  0.6108  0.2599
   30MOL0     H 3983   0.201   9.208   1.364 -0.4686  1.2815 -1.8149
   30MOL0     H 3984   0.069   9.417   1.242 -0.9114 -2.3548 -1.6561
   30MOL0     H 3985  -0.287   9.378   1.218 -0.4564  0.6130  0.0300
   30MOL0     H 3986  -0.336   9.447   1.377 -0.3604 -0.2518 -0.4575
   30MOL0     H 3987  -0.325   9.602   1.122  2.0874  1.1665  1.5095
   30MOL0     H 3988  -0.462   9.520   1.203  1.2017 -2.2783 -1.1678
   30MOL0     H 3989  -0.414   9.671   1.413 -1.2419  1.4811 -0.0646
   30MOL0     H 3990  -0.278   9.742   1.327 -0.8223 -1.0987  0.7875
   30MOL0     H 3991  -0.475   9.805   1.144 -1.1733  0.5754 -0.9869
   30MOL0     H 3992  -0.581   9.761   1.277 -0.2366  0.7784 -1.4333
   30MOL0     H 3993  -0.561   9.999   1.272  1.5529  0.6286 -2.6839
   30MOL0     H 3994  -0.493   9.922   1.420  1.9113  0.4628  0.2492
   30MOL0     H 3995  -0.336  10.092   1.369  0.5220  1.7129 -1.4509
   30MOL0     H 3996  -0.254   9.955   1.310  0.9649  0.8616  1.6406
   30MOL0     H 3997  -0.315  10.019   1.071  1.5446  1.7003 -0.4068
   30MOL0     H 3998  -0.437  10.129   1.148 -0.9555 -0.6357  1.0840
   30MOL0     H 3999  -0.125  10.139   1.190  1.1775  0.7193 -1.7756
   30MOL0     H 4000  -0.262  10.252   1.231  0.3454  0.6975 -0.7470
   30MOL0     H 4001  -0.040  10.150   0.929  1.1502  1.4956 -1.7714
   30MOL0     H 4002   0.006  10.366   0.716  0.5872 -0.9830 -0.4581
   30MOL0     H 4003  -0.045  10.199   0.688 -1.0739 -0.7191 -1.5019
   30MOL0     H 4004  -0.217  10.439   0.597  0.8212 -0.2504  2.2298
   30MOL0     H 4005  -0.230  10.276   0.541 -1.1221  0.6547  1.7763
   30MOL0     H 4006  -0.002  10.277   0.443 -1.9195 -0.1357 -3.9645
   30MOL0     H 4007   0.019  10.441   0.506 -1.5204  0.0602  0.3465
   30MOL0     H 4008  -0.171  10.378   0.291 -0.1897  0.8315 -1.1906
   30MOL0     H 4009  -0.006  10.450   0.267 -1.5537  0.9350 -2.7631
   30MOL0     H 4010  -0.179  10.546   0.101 -0.2666  0.6306  1.1831
   30MOL0     H 4011  -0.120  10.713  -0.172  1.0591 -0.8468  1.4764
   30MOL0     H 4012  -0.251  10.600  -0.125 -0.2151  0.3000  3.6469
   30MOL0     H 4013  -0.303  10.761  -0.159  0.2086  0.2497  0.1000
   30MOL0     H 4014  -0.241  11.001  -0.389 -0.3049 -0.9357  2.2100
   30MOL0     H 4015  -0.137  11.163  -0.572 -0.9555 -1.9971  0.6351
   30MOL0     H 4016  -0.105  11.345  -0.662 -1.9458 -1.1071  3.0286
   30MOL0     H 4017  -0.083  11.498  -0.563  1.2320  0.4818 -0.2726
   30MOL0     H 4018   0.104  11.382  -0.758  0.3178 -0.3888  0.4649
   30MOL0     H 4019  -0.022  11.502  -0.790  2.5205 -1.3256 -3.8088
   30MOL0     H 4020   0.224  11.546  -0.599 -0.5506  1.4167  0.7152
   30MOL0     H 4021   0.102  11.654  -0.596 -0.6989 -0.5319 -0.0817
   30MOL0     H 4022   0.275  11.587  -0.847  0.5908 -0.4501  1.3302
   30MOL0     H 4023   0.139  11.703  -0.845 -0.0524 -0.8715  0.6112
   30MOL0     H 4024   0.388  11.775  -0.835 -1.1174 -1.0655 -1.4466
   30MOL0     H 4025   0.373  11.710  -0.663 -2.0466  0.9492  1.5379
   30MOL0     H 4026   0.190  11.926  -0.774 -1.8907 -1.8292 -0.1321
   30MOL0     H 4027   0.197  11.875  -0.608 -5.3797 -3.8655 -3.5545
   30MOL0     H 4028   0.423  12.011  -0.773 -0.3607 -1.2171 -0.7173
   30MOL0     H 4029   0.443  11.970  -0.595 -1.0411 -2.3150 -0.1280
   30MOL0     H 4030   0.398  12.187  -0.570  0.9381  0.0086 -1.3641
   30MOL0     H 4031   0.242  12.140  -0.556 -1.5509 -1.9639 -0.9088
   30MOL0     H 4032   0.122  11.321  -0.279  1.8790 -1.1690 -0.7454
   30MOL0     H 4033   0.010  11.173  -0.107  1.0947  0.5703  0.5045
   30MOL0     H 4034  -0.174  11.007   0.244  1.8536 -0.5157 -1.7459
   30MOL0     H 4035  -0.157  10.832   0.397  0.3304  4.7307 -1.7251
   30MOL0     H 4036  -0.240   9.359   1.529 -0.2698  1.0263 -0.8071
   30MOL0     H 4037  -0.133   9.150   1.604  2.9572 -1.8314 -0.0878
   30MOL0     H 4038   0.049   8.857   1.698 -0.8046 -0.1326  0.2293
   30MOL0     H 4039   0.124   8.660   1.818  2.4812 -0.6417 -0.0638
   30MOL0     H 4040   0.249   8.498   1.895  1.1031 -0.3998  0.3779
   30MOL0     H 4041   0.170   8.352   1.842  0.3197  0.9387  1.4938
   30MOL0     H 4042   0.366   8.308   1.974  0.8218 -0.3654  1.0466
   30MOL0     H 4043   0.467   8.414   1.866  1.0347 -0.0647 -1.3997
   30MOL0     H 4044   0.519   8.223   1.780  0.4082  0.1591  0.9231
   30MOL0     H 4045   0.385   8.234   1.671  1.0049 -2.3649  0.5276
   30MOL0     H 4046   0.236   8.106   1.791  2.2488 -0.2103 -5.5971
   30MOL0     H 4047   0.356   8.099   1.937  0.8791  0.3800  0.3936
   30MOL0     H 4048   0.540   7.838   1.651  1.8984  1.7160  0.4671
   30MOL0     H 4049   0.344   8.521   1.481  0.5685  0.6577  0.1327
   30MOL0     H 4050   0.278   8.744   1.352  0.3347  1.9371  0.6169
   31MOL0     O 4051   9.085   2.266   1.726  0.2958  0.4128 -0.7874
   31MOL0     C 4052   9.024   2.170   1.768  0.2108  1.1383  0.4531
   31MOL0     O 4053   8.919   2.170   1.872 -0.4272  0.4407  0.7704
   31MOL0     C 4054   8.842   2.282   1.914 -0.0373 -0.1683 -0.4249
   31MOL0     C 4055   8.759   2.264   2.029 -0.3128  0.8081  0.7581
   31MOL0     C 4056   8.688   2.362   2.084  0.6886  0.0170 -0.3603
   31MOL0     C 4057   8.690   2.492   2.025 -0.0659 -0.4205 -0.0170
   31MOL0     O 4058   8.632   2.590   2.093  0.0851 -0.2960 -0.0528
   31MOL0     C 4059   8.715   2.702   2.120 -0.1377 -0.6001  0.5447
   31MOL0     C 4060   8.665   2.766   2.248  0.7355 -0.4981 -0.5840
   31MOL0     C 4061   8.512   2.785   2.236 -0.1628  0.1302  0.2624
   31MOL0     C 4062   8.460   2.856   2.354  0.4160 -0.0341  0.1683
   31MOL0     C 4063   8.317   2.907   2.328 -0.3705  0.2046 -0.0766
   31MOL0     C 4064   8.267   3.011   2.427 -0.0952  0.5564 -0.0183
   31MOL0     C 4065   8.313   2.999   2.574 -0.2314 -0.6020 -0.0864
   31MOL0     C 4066   8.290   2.859   2.644 -0.4272 -0.7731  0.4609
   31MOL0     N 4067   8.159   2.805   2.672 -0.3313 -0.7473 -0.2493
   31MOL0     C 4068   8.070   2.778   2.573  0.1127 -0.8424 -0.1019
   31MOL0     C 4069   7.965   2.724   2.636  0.3456  1.0512 -0.0229
   31MOL0     C 4070   7.831   2.698   2.582  0.7785  0.4320  0.0021
   31MOL0     C 4071   7.836   2.589   2.465  0.1476 -0.0839 -0.0779
   31MOL0     C 4072   7.697   2.534   2.425  0.7030  0.0443 -0.1734
   31MOL0     C 4073   7.698   2.428   2.323  0.1482 -0.6432  0.4840
   31MOL0     O 4074   7.722   2.492   2.199 -0.2652  0.0401 -0.2794
   31MOL0     C 4075   7.762   2.429   2.088  0.2023 -0.1750  0.3491
   31MOL0     C 4076   7.755   2.499   1.969  0.1085 -0.0077  0.2402
   31MOL0     C 4077   7.800   2.435   1.852  0.6488 -0.4426  0.0430
   31MOL0     C 4078   7.815   2.518   1.726 -1.1105  0.1290 -0.0509
   31MOL0     C 4079   7.854   2.305   1.857 -0.3660  0.4611 -0.3441
   31MOL0     C 4080   7.923   2.252   1.741  0.4631 -0.0732 -1.0060
   31MOL0     O 4081   8.048   2.301   1.731  0.5953 -0.7249 -0.0279
   31MOL0     C 4082   8.116   2.306   1.605 -0.9583  0.5796 -0.0764
   31MOL0     C 4083   8.100   2.231   1.485  0.5708  1.4256 -0.0366
   31MOL0     C 4084   8.188   2.236   1.376  0.3372 -0.1749 -0.3129
   31MOL0     C 4085   8.301   2.321   1.380 -0.6839  0.1850 -0.3741
   31MOL0     O 4086   8.404   2.308   1.289  0.1106  0.1997  0.9162
   31MOL0     C 4087   8.373   2.317   1.151  0.7036  0.2210  0.5768
   31MOL0     C 4088   8.494   2.361   1.069  0.0413 -0.8011  1.2109
   31MOL0     C 4089   8.591   2.251   1.022  0.2626 -0.8830  0.1924
   31MOL0     C 4090   8.666   2.200   1.147  0.3838  0.2756 -1.0801
   31MOL0     C 4091   8.778   2.111   1.093  1.0290  0.3081 -1.3833
   31MOL0     C 4092   8.849   2.023   1.203  0.2546 -0.2061  0.3846
   31MOL0     C 4093   8.947   1.929   1.133 -0.0869 -0.0210  0.0810
   31MOL0     C 4094   8.977   1.808   1.225  0.9705  0.6160  0.5677
   31MOL0    Cl 4095   8.830   1.711   1.261  0.3782 -0.4683  0.0097
   31MOL0     C 4096   8.323   2.396   1.502 -0.1459  0.8495 -0.7845
   31MOL0     C 4097   8.234   2.386   1.606 -0.0417  0.6769 -0.9946
   31MOL0     O 4098   7.871   2.167   1.668 -0.1965  0.4833 -0.5312
   31MOL0     C 4099   7.855   2.243   1.979 -0.4933  0.5688  0.0668
   31MOL0     C 4100   7.811   2.299   2.094  0.9904 -0.1138 -0.7381
   31MOL0     N 4101   7.991   2.715   2.772  0.0570 -0.0209 -0.2461
   31MOL0     N 4102   8.112   2.756   2.791 -0.2964 -0.3718  0.4448
   31MOL0     C 4103   8.765   2.513   1.907 -0.7736 -0.2464  0.1446
   31MOL0     C 4104   8.840   2.405   1.855 -0.1451 -0.4716 -0.5924
   31MOL0     C 4105   9.060   2.035   1.715 -0.7774 -0.2318  0.0419
   31MOL0     C 4106   8.987   1.921   1.743  0.3652 -0.3447 -0.4482
   31MOL0     C 4107   9.010   1.795   1.680 -0.6915  0.6498 -0.4196
   31MOL0     C 4108   9.122   1.785   1.596 -0.0848 -0.0003  0.4788
   31MOL0     O 4109   9.146   1.665   1.535  0.2186 -0.4188 -0.4074
   31MOL0     C 4110   9.246   1.654   1.436  0.9141  0.6064 -0.0217
   31MOL0     C 4111   9.281   1.509   1.434  0.7238 -0.1122  0.6325
   31MOL0     C 4112   9.330   1.448   1.563 -0.3331  0.8468  0.3670
   31MOL0     C 4113   9.325   1.296   1.556 -0.6540  0.0303 -0.5016
   31MOL0     C 4114   9.407   1.251   1.443 -0.1139  0.1513 -0.0339
   31MOL0     C 4115   9.503   1.223   1.370 -0.1029  0.4159  0.6231
   31MOL0     C 4116   9.184   1.900   1.552 -0.4480 -1.1366  0.0346
   31MOL0     C 4117   9.162   2.024   1.619  0.1810  0.8923  0.4091
   31MOL0     H 4118   8.764   2.168   2.079  2.3791  2.3510  3.9000
   31MOL0     H 4119   8.633   2.334   2.173 -1.2339  2.3758 -0.6976
   31MOL0     H 4120   8.817   2.666   2.134 -0.1133 -0.8757 -0.2865
   31MOL0     H 4121   8.714   2.775   2.039 -0.2051  2.1920  2.8803
   31MOL0     H 4122   8.692   2.708   2.337 -2.4882  1.3734  1.8479
   31MOL0     H 4123   8.714   2.862   2.260 -0.3338 -0.0717  0.6870
   31MOL0     H 4124   8.496   2.851   2.150  1.5497  1.9489  1.2534
   31MOL0     H 4125   8.462   2.690   2.216  1.2624 -0.1041 -2.7540
   31MOL0     H 4126   8.462   2.786   2.438  0.4382 -0.0001  0.1961
   31MOL0     H 4127   8.525   2.938   2.384  1.2024 -0.8326  0.7101
   31MOL0     H 4128   8.307   2.944   2.225  0.6989 -1.7585 -0.9379
   31MOL0     H 4129   8.246   2.824   2.328 -1.1312  0.7729  2.2470
   31MOL0     H 4130   8.294   3.107   2.384  0.9919  0.1788 -0.2186
   31MOL0     H 4131   8.158   3.014   2.419 -0.1060  3.9742 -0.0205
   31MOL0     H 4132   8.416   3.035   2.578  0.0973 -1.2131 -1.9239
   31MOL0     H 4133   8.268   3.074   2.639  3.5713 -1.9779  4.7598
   31MOL0     H 4134   8.337   2.868   2.742 -1.2451  3.8922  0.6678
   31MOL0     H 4135   8.344   2.777   2.595 -0.5245 -1.8795  2.1260
   31MOL0     H 4136   8.090   2.789   2.467  1.7374 -2.1408  0.0285
   31MOL0     H 4137   7.771   2.658   2.664 -0.9039 -1.3150 -1.9633
   31MOL0     H 4138   7.782   2.780   2.528 -1.2838  0.3129  1.5827
   31MOL0     H 4139   7.880   2.497   2.503  2.0384  1.6371  2.1841
   31MOL0     H 4140   7.897   2.631   2.385  0.6235 -1.7503 -0.6184
   31MOL0     H 4141   7.627   2.616   2.404  0.8561  0.3220  0.3852
   31MOL0     H 4142   7.657   2.495   2.518  1.4569  3.7050  1.9028
   31MOL0     H 4143   7.602   2.376   2.325  1.1019 -2.6331  3.7634
   31MOL0     H 4144   7.770   2.346   2.340  0.7421 -0.1913  0.1919
   31MOL0     H 4145   7.721   2.602   1.966  2.6951  0.9577 -4.3442
   31MOL0     H 4146   7.915   2.535   1.686 -1.1340 -2.3220 -1.3351
   31MOL0     H 4147   7.748   2.471   1.653 -2.7589 -0.8612  1.9688
   31MOL0     H 4148   7.778   2.619   1.748 -0.6524  0.5041 -0.9556
   31MOL0     H 4149   8.025   2.157   1.459  3.3362 -1.8050  0.4264
   31MOL0     H 4150   8.178   2.185   1.281  0.7635 -2.0265  0.5833
   31MOL0     H 4151   8.340   2.223   1.107 -1.4305 -0.1579  2.7901
   31MOL0     H 4152   8.291   2.389   1.143  0.2128  0.0223  3.0141
   31MOL0     H 4153   8.448   2.402   0.978 -0.0596 -2.2387  0.5865
   31MOL0     H 4154   8.552   2.439   1.120  0.0757  0.6016 -0.8424
   31MOL0     H 4155   8.662   2.286   0.947  0.3065 -1.4580 -0.0416
   31MOL0     H 4156   8.529   2.173   0.977  2.4436 -2.1665 -0.7947
   31MOL0     H 4157   8.701   2.286   1.205 -1.2565  1.6048 -1.9849
   31MOL0     H 4158   8.594   2.148   1.210  0.5808  2.8593  1.4959
   31MOL0     H 4159   8.853   2.180   1.054  3.1692 -1.5337 -0.7423
   31MOL0     H 4160   8.733   2.053   1.012 -0.3845 -0.3407 -0.1751
   31MOL0     H 4161   8.911   2.074   1.277 -0.4011  0.9752  0.1543
   31MOL0     H 4162   8.766   1.964   1.243 -0.7050 -0.3967 -1.7603
   31MOL0     H 4163   9.040   1.986   1.123  1.2533 -1.4930  3.2175
   31MOL0     H 4164   8.928   1.899   1.029  1.8242 -0.0221 -0.2928
   31MOL0     H 4165   9.021   1.845   1.318 -1.0492  0.8760  1.4734
   31MOL0     H 4166   9.053   1.747   1.175 -0.7450 -1.1748  0.0132
   31MOL0     H 4167   8.407   2.463   1.521 -0.9355  1.3542  1.2262
   31MOL0     H 4168   8.258   2.446   1.693 -2.8375  0.9194 -0.3045
   31MOL0     H 4169   7.884   2.139   1.969  0.6446  1.0888 -3.4971
   31MOL0     H 4170   7.823   2.236   2.181 -0.2714  1.8453  0.9198
   31MOL0     H 4171   8.760   2.613   1.867 -0.0489 -0.4656 -0.5202
   31MOL0     H 4172   8.897   2.427   1.766 -1.7149  1.9310 -1.0636
   31MOL0     H 4173   8.904   1.923   1.813  0.6171 -2.2649 -0.0445
   31MOL0     H 4174   8.958   1.701   1.693 -0.7665  0.5250 -1.5071
   31MOL0     H 4175   9.195   1.678   1.343  0.5144  2.7631  0.6939
   31MOL0     H 4176   9.335   1.717   1.449  1.5553 -0.4692  1.0477
   31MOL0     H 4177   9.352   1.490   1.353 -1.5971  2.8711 -2.3975
   31MOL0     H 4178   9.192   1.457   1.401  1.4835 -1.4198  0.5873
   31MOL0     H 4179   9.263   1.485   1.641 -3.9781 -0.0713 -2.0636
   31MOL0     H 4180   9.432   1.481   1.585  0.5338 -0.6596 -1.1011
   31MOL0     H 4181   9.226   1.259   1.530 -0.5257 -0.2751 -0.5656
   31MOL0     H 4182   9.367   1.248   1.645  0.2584  1.3879 -0.1728
   31MOL0     H 4183   9.566   1.188   1.290 -2.8070 -0.4948 -1.2432
   31MOL0     H 4184   9.260   1.892   1.475  0.0563  1.8261  0.0917
   31MOL0     H 4185   9.222   2.112   1.599  0.4506  0.5850 -0.1797
   32MOL0     O 4186   3.580   9.627   7.967  0.5923  0.2635  0.1118
   32MOL0     C 4187   3.578   9.725   8.046  0.6190 -0.7617  0.5326
   32MOL0     O 4188   3.613   9.721   8.173  0.2627 -0.3748  0.2448
   32MOL0     C 4189   3.626   9.610   8.252  0.9220  0.5605  0.3788
   32MOL0     C 4190   3.702   9.624   8.361 -0.2678  0.2213 -0.3549
   32MOL0     C 4191   3.709   9.520   8.454  0.4828  0.4160  0.3094
   32MOL0     C 4192   3.640   9.397   8.438 -0.3477 -0.1064  0.5490
   32MOL0     O 4193   3.637   9.293   8.524  0.1263 -0.1798 -0.1981
   32MOL0     C 4194   3.758   9.264   8.593  0.4116 -0.8104  0.7632
   32MOL0     C 4195   3.736   9.147   8.686  0.4150  0.0032 -0.2525
   32MOL0     C 4196   3.861   9.113   8.766 -0.1619 -0.8842 -0.2866
   32MOL0     C 4197   3.850   8.965   8.814 -0.3232  0.2274 -0.3466
   32MOL0     C 4198   3.970   8.936   8.910  0.2025 -0.1448  0.1640
   32MOL0     C 4199   4.104   8.903   8.835 -0.0599 -0.1724 -0.1249
   32MOL0     C 4200   4.193   8.816   8.909  0.3498  0.0635  0.7920
   32MOL0     C 4201   4.338   8.862   8.917 -1.2001 -0.2466  0.5346
   32MOL0     N 4202   4.421   8.764   8.979  0.1335 -0.4379 -0.2686
   32MOL0     C 4203   4.399   8.690   9.094  0.1746  0.0661 -0.2683
   32MOL0     C 4204   4.513   8.637   9.127  0.4670 -0.7757 -0.5488
   32MOL0     C 4205   4.547   8.557   9.247  0.8468  0.0231 -0.6237
   32MOL0     C 4206   4.694   8.574   9.270 -0.4170  0.0135 -1.0061
   32MOL0     C 4207   4.736   8.713   9.325  0.2793 -0.4032  0.0584
   32MOL0     C 4208   4.895   8.719   9.335 -0.0784  0.0144  0.0994
   32MOL0     O 4209   4.946   8.669   9.462 -0.4360 -0.1781  0.4731
   32MOL0     C 4210   4.924   8.742   9.574 -0.6711 -0.6225  0.2255
   32MOL0     C 4211   4.927   8.668   9.686  0.0715  0.1408  0.0081
   32MOL0     C 4212   4.894   8.720   9.811  0.6353 -0.4785  0.0839
   32MOL0     C 4213   4.859   8.613   9.910  0.2961 -0.3773  0.1001
   32MOL0     C 4214   4.873   8.853   9.825 -0.1638 -0.9050 -0.1264
   32MOL0     C 4215   4.851   8.923   9.952 -0.2095  0.1890 -0.7044
   32MOL0     O 4216   4.790   9.048   9.958  0.1623 -0.2105 -0.1961
   32MOL0     C 4217   4.772   9.102  10.082 -0.1981  1.2932 -0.9584
   32MOL0     C 4218   4.879   9.182  10.122 -0.1516 -0.5243  0.4134
   32MOL0     C 4219   4.870   9.242  10.246 -1.1515  0.0916 -0.6853
   32MOL0     C 4220   4.753   9.233  10.325  0.2388 -1.3741  0.1477
   32MOL0     O 4221   4.729   9.296  10.443 -0.4073  0.1121 -0.7050
   32MOL0     C 4222   4.843   9.328  10.522 -0.2100 -0.2620 -0.1324
   32MOL0     C 4223   4.902   9.221  10.622 -0.3891 -0.0705 -0.7035
   32MOL0     C 4224   4.982   9.117  10.552  0.3569  0.5778 -0.3340
   32MOL0     C 4225   5.090   9.055  10.629  0.5153  0.0228 -0.5508
   32MOL0     C 4226   5.038   8.994  10.764  0.1907 -0.1028  0.5737
   32MOL0     C 4227   5.113   8.870  10.813 -0.1071 -0.3255  0.5722
   32MOL0     C 4228   5.064   8.744  10.728 -0.2796 -0.0543 -0.7213
   32MOL0     C 4229   5.131   8.621  10.756  0.9067 -0.3716  0.7599
   32MOL0    Cl 4230   5.309   8.645  10.731 -0.3032 -0.4412 -0.1638
   32MOL0     C 4231   4.655   9.152  10.274  0.5907  1.3851  0.2470
   32MOL0     C 4232   4.657   9.081  10.160 -0.5204  0.2532 -0.5838
   32MOL0     O 4233   4.903   8.863  10.048  0.2753  0.2085 -0.6165
   32MOL0     C 4234   4.860   8.930   9.699  0.1704  0.1532  0.8249
   32MOL0     C 4235   4.878   8.873   9.577 -0.5764  0.0228 -0.1918
   32MOL0     N 4236   4.602   8.666   9.025  0.4807  0.4738  0.1130
   32MOL0     N 4237   4.541   8.723   8.927  0.0506  0.5718  0.5761
   32MOL0     C 4238   3.569   9.384   8.319 -0.5185 -0.2858  0.0185
   32MOL0     C 4239   3.555   9.490   8.223 -0.6871 -0.1139  0.9698
   32MOL0     C 4240   3.546   9.855   7.990 -0.2480 -0.6875 -0.8460
   32MOL0     C 4241   3.613   9.964   8.049 -0.6164  0.2161 -0.1799
   32MOL0     C 4242   3.597  10.095   8.006  1.0889 -0.4674  0.7290
   32MOL0     C 4243   3.528  10.115   7.884 -0.0112 -0.2245  0.3671
   32MOL0     O 4244   3.503  10.240   7.831  0.1157  0.5302  0.5144
   32MOL0     C 4245   3.617  10.331   7.814 -0.2940 -0.0374  0.2892
   32MOL0     C 4246   3.593  10.426   7.692 -0.2154 -0.9583 -0.1145
   32MOL0     C 4247   3.512  10.353   7.585 -0.3891  0.9920  0.1570
   32MOL0     C 4248   3.520  10.418   7.446  0.8589 -0.2487 -0.2002
   32MOL0     C 4249   3.653  10.416   7.391 -0.5101  0.2408 -0.2307
   32MOL0     C 4250   3.751  10.423   7.325 -0.4504  0.6300  0.3497
   32MOL0     C 4251   3.449  10.009   7.829  0.0975  0.8810 -0.5998
   32MOL0     C 4252   3.466   9.881   7.879  0.7080  0.4539  0.3384
   32MOL0     H 4253   3.775   9.703   8.374  1.6791 -1.6147  0.2753
   32MOL0     H 4254   3.751   9.539   8.552  2.2031 -0.2284 -0.2777
   32MOL0     H 4255   3.845   9.251   8.528 -0.0338  0.0469 -0.0326
   32MOL0     H 4256   3.802   9.345   8.651  2.4272 -1.2594 -0.0803
   32MOL0     H 4257   3.646   9.161   8.746  0.2999  2.8932 -0.9627
   32MOL0     H 4258   3.709   9.064   8.620 -1.8259  0.1748  0.3642
   32MOL0     H 4259   3.937   9.114   8.687 -1.2263  1.2202 -1.3814
   32MOL0     H 4260   3.870   9.183   8.849 -3.0206 -0.6920 -0.0250
   32MOL0     H 4261   3.759   8.954   8.874 -0.0133  1.2694  0.3462
   32MOL0     H 4262   3.851   8.888   8.737  0.7145  0.0548 -0.1642
   32MOL0     H 4263   3.991   9.020   8.977 -0.8706  1.7242 -1.7228
   32MOL0     H 4264   3.946   8.854   8.978  4.0192 -1.0981  0.5923
   32MOL0     H 4265   4.076   8.846   8.746 -0.1656 -0.1295 -0.1192
   32MOL0     H 4266   4.162   8.988   8.798  0.3806  0.5093  1.9765
   32MOL0     H 4267   4.153   8.808   9.011  1.5603 -5.1698  1.1598
   32MOL0     H 4268   4.204   8.710   8.882 -0.9133 -0.5531  2.5379
   32MOL0     H 4269   4.349   8.958   8.968  2.6128 -0.4888  0.4408
   32MOL0     H 4270   4.379   8.877   8.817 -0.7952 -3.2023  0.1868
   32MOL0     H 4271   4.312   8.710   9.155  0.8772  2.0367  0.1689
   32MOL0     H 4272   4.495   8.581   9.340  0.5577  1.0976 -1.0520
   32MOL0     H 4273   4.521   8.453   9.224  0.2723  0.2483 -1.0255
   32MOL0     H 4274   4.755   8.548   9.183 -1.2923 -1.3915 -1.2444
   32MOL0     H 4275   4.717   8.488   9.332 -0.3213  1.9169  1.7602
   32MOL0     H 4276   4.681   8.743   9.415 -1.5373 -2.1681 -0.3764
   32MOL0     H 4277   4.701   8.781   9.247  1.0650 -1.3698 -1.1597
   32MOL0     H 4278   4.923   8.822   9.314 -1.9724  0.3272 -1.1016
   32MOL0     H 4279   4.938   8.651   9.262 -0.8218  0.5017 -0.8064
   32MOL0     H 4280   4.973   8.571   9.670  0.6191  0.6977 -2.1391
   32MOL0     H 4281   4.949   8.597   9.969 -0.2915  1.2494  1.5434
   32MOL0     H 4282   4.773   8.651   9.967 -1.9872 -1.2886 -2.5190
   32MOL0     H 4283   4.830   8.523   9.856  0.1419  0.2222 -0.8377
   32MOL0     H 4284   4.972   9.193  10.068  0.7527 -0.1307  2.0023
   32MOL0     H 4285   4.957   9.302  10.272  2.9342 -5.4292  0.1988
   32MOL0     H 4286   4.928   9.384  10.482  0.1649  0.6474  1.7781
   32MOL0     H 4287   4.799   9.395  10.597 -0.1046 -1.0536  0.6551
   32MOL0     H 4288   4.971   9.276  10.686 -1.2380  0.6571 -0.3864
   32MOL0     H 4289   4.831   9.169  10.688  0.0715 -0.7913 -0.7657
   32MOL0     H 4290   5.020   9.163  10.460  0.6497  0.4132 -0.2965
   32MOL0     H 4291   4.920   9.030  10.528  1.8930 -1.1647  1.6299
   32MOL0     H 4292   5.149   8.985  10.569 -0.1506  0.1813 -1.4175
   32MOL0     H 4293   5.151   9.139  10.662  0.7468  0.5751 -2.2912
   32MOL0     H 4294   4.929   8.988  10.775  0.1383  0.1184  0.1913
   32MOL0     H 4295   5.063   9.065  10.843 -0.3160  2.4505 -1.4359
   32MOL0     H 4296   5.220   8.892  10.815 -0.0783 -0.4961  2.3754
   32MOL0     H 4297   5.075   8.833  10.909 -2.0940 -0.5681 -0.2479
   32MOL0     H 4298   5.076   8.771  10.623  1.5861  2.6562  0.0748
   32MOL0     H 4299   4.958   8.729  10.753  0.2641 -0.7511  1.3932
   32MOL0     H 4300   5.102   8.551  10.677  1.3006  0.7175 -0.3776
   32MOL0     H 4301   5.100   8.583  10.854 -2.3812  1.1707  0.4826
   32MOL0     H 4302   4.574   9.152  10.346 -0.1132  2.8767 -0.4993
   32MOL0     H 4303   4.587   9.007  10.123  1.9946 -2.2395 -0.6790
   32MOL0     H 4304   4.841   9.037   9.693 -3.4124 -0.3830  0.5851
   32MOL0     H 4305   4.885   8.930   9.485  2.2206  2.9723  1.6599
   32MOL0     H 4306   3.503   9.298   8.309 -1.1005  0.0400  0.9839
   32MOL0     H 4307   3.493   9.485   8.134  1.5418  2.0163 -0.8410
   32MOL0     H 4308   3.668   9.960   8.142 -1.1344  0.6627  0.1532
   32MOL0     H 4309   3.635  10.179   8.063  1.4806 -1.6440  2.2427
   32MOL0     H 4310   3.650  10.379   7.907  0.2878  2.4265 -1.1009
   32MOL0     H 4311   3.692  10.260   7.777 -1.1267  0.3899 -2.4369
   32MOL0     H 4312   3.688  10.455   7.646  1.2626 -0.2966  3.0275
   32MOL0     H 4313   3.543  10.517   7.727 -2.5003 -1.9816 -0.5461
   32MOL0     H 4314   3.407  10.362   7.617 -0.2608  2.4821  0.2296
   32MOL0     H 4315   3.544  10.249   7.573  1.4535  1.7350 -2.2068
   32MOL0     H 4316   3.468  10.514   7.437 -0.5465 -1.0466 -1.0035
   32MOL0     H 4317   3.468  10.362   7.368 -0.3163 -3.2417  2.4586
   32MOL0     H 4318   3.845  10.423   7.274 -0.0067 -0.6452  1.1103
   32MOL0     H 4319   3.385  10.025   7.743 -2.1414 -3.3077  0.0333
   32MOL0     H 4320   3.433   9.789   7.833  2.1272  0.0274  0.1229
   33MOL0     O 4321   5.745   6.254   5.527 -0.4641  0.4896 -0.0070
   33MOL0     C 4322   5.656   6.333   5.556  0.4917 -0.6226 -0.0342
   33MOL0     O 4323   5.609   6.355   5.692 -0.1953 -0.2952 -0.3576
   33MOL0     C 4324   5.648   6.251   5.784 -0.6127 -0.3478  0.2893
   33MOL0     C 4325   5.738   6.269   5.882 -0.1101  0.4672  0.9164
   33MOL0     C 4326   5.786   6.165   5.964  0.2174  0.7764  0.0259
   33MOL0     C 4327   5.732   6.034   5.949 -1.1255  0.2157  0.6613
   33MOL0     O 4328   5.789   5.941   6.037 -0.2918  0.5579  0.2087
   33MOL0     C 4329   5.817   5.806   5.996  0.7757 -0.3330 -0.8393
   33MOL0     C 4330   5.931   5.809   5.897 -0.2253  0.6596  0.1043
   33MOL0     C 4331   6.059   5.879   5.962 -0.2391 -0.0107  0.3503
   33MOL0     C 4332   6.098   5.838   6.111 -0.4000 -0.5855 -0.5726
   33MOL0     C 4333   6.243   5.889   6.148  0.5740  0.0646 -0.0538
   33MOL0     C 4334   6.285   5.848   6.292  0.5070  0.7785 -0.5421
   33MOL0     C 4335   6.223   5.715   6.337  0.7088 -0.4469 -0.2958
   33MOL0     C 4336   6.303   5.654   6.455 -0.5608  0.6671  0.9310
   33MOL0     N 4337   6.279   5.717   6.585 -0.6060  1.1759  0.2034
   33MOL0     C 4338   6.330   5.841   6.608  0.1497  0.4907  0.1385
   33MOL0     C 4339   6.305   5.851   6.747 -1.0989  0.0743  0.2982
   33MOL0     C 4340   6.358   5.955   6.851 -0.4643  0.6747 -0.8439
   33MOL0     C 4341   6.285   6.081   6.870 -0.3432  0.1785 -0.7300
   33MOL0     C 4342   6.135   6.069   6.927 -0.0373  0.0461  0.3998
   33MOL0     C 4343   6.111   6.181   7.026 -0.4867  0.5265 -0.6836
   33MOL0     O 4344   6.167   6.151   7.151 -0.9714 -0.8100 -0.3757
   33MOL0     C 4345   6.093   6.074   7.224 -0.0455 -1.4322 -0.4679
   33MOL0     C 4346   5.986   6.133   7.304  0.2803 -0.1639  0.4555
   33MOL0     C 4347   5.923   6.056   7.403 -0.7594 -0.2274  1.3061
   33MOL0     C 4348   5.880   6.139   7.520 -0.8920 -0.2610 -0.0405
   33MOL0     C 4349   5.950   5.914   7.420 -0.4944  0.1531  0.1254
   33MOL0     C 4350   5.891   5.832   7.525 -0.3874 -0.2811  0.1388
   33MOL0     O 4351   5.962   5.715   7.561 -0.5834 -0.5898  0.0636
   33MOL0     C 4352   5.907   5.629   7.651 -0.5319  1.4473  0.4364
   33MOL0     C 4353   5.791   5.561   7.627 -0.2043 -0.0567  0.0564
   33MOL0     C 4354   5.741   5.462   7.717  0.0734 -0.0987  1.1000
   33MOL0     C 4355   5.814   5.438   7.834  0.1566 -0.0961 -0.4386
   33MOL0     O 4356   5.765   5.334   7.916 -0.7123 -0.0914 -0.3134
   33MOL0     C 4357   5.713   5.367   8.048 -1.4532 -0.1370  0.7816
   33MOL0     C 4358   5.795   5.308   8.160 -0.4222 -0.2463  0.5173
   33MOL0     C 4359   5.928   5.372   8.215  0.9985 -0.5348  0.1097
   33MOL0     C 4360   5.903   5.518   8.263  0.3323  0.7002  0.1041
   33MOL0     C 4361   6.023   5.596   8.309 -0.1560 -0.4143 -0.7795
   33MOL0     C 4362   6.132   5.618   8.216 -0.4286  0.9305 -0.1038
   33MOL0     C 4363   6.203   5.755   8.242 -0.3569 -0.7503  0.2680
   33MOL0     C 4364   6.311   5.796   8.141  0.3232  0.7841  0.2261
   33MOL0    Cl 4365   6.256   5.795   7.977  0.3005 -0.4468  0.1899
   33MOL0     C 4366   5.926   5.507   7.865  0.5654  0.0978 -0.2861
   33MOL0     C 4367   5.973   5.597   7.773 -0.0988 -1.0477  0.4998
   33MOL0     O 4368   5.785   5.864   7.576 -0.4834 -0.4488 -0.6498
   33MOL0     C 4369   6.047   5.859   7.329  0.0961  1.1679  1.0368
   33MOL0     C 4370   6.119   5.937   7.237  0.2369  0.8953  0.7554
   33MOL0     N 4371   6.235   5.736   6.793  0.8822  0.3436 -0.0991
   33MOL0     N 4372   6.217   5.659   6.695  0.2214 -0.7852  0.6582
   33MOL0     C 4373   5.628   6.005   5.857  0.1299 -1.2530 -0.9914
   33MOL0     C 4374   5.582   6.121   5.782 -0.3764  0.8634 -0.3879
   33MOL0     C 4375   5.610   6.433   5.441 -0.9851  0.2379 -0.0224
   33MOL0     C 4376   5.667   6.420   5.311 -0.3071  0.6365  0.6578
   33MOL0     C 4377   5.630   6.513   5.206  0.7509 -0.0211  0.7609
   33MOL0     C 4378   5.545   6.615   5.237 -0.6208 -0.7011  0.6900
   33MOL0     O 4379   5.497   6.702   5.136  0.4167  0.8114  0.2207
   33MOL0     C 4380   5.591   6.788   5.075 -0.6751  0.6111  0.3826
   33MOL0     C 4381   5.510   6.914   5.066 -0.1119  0.3859 -0.0391
   33MOL0     C 4382   5.388   6.900   4.980  0.5018 -0.1471  0.2652
   33MOL0     C 4383   5.321   7.038   4.958 -0.4197 -0.3047  0.2944
   33MOL0     C 4384   5.385   7.126   4.861 -0.3560  1.3958  0.2805
   33MOL0     C 4385   5.444   7.188   4.767  0.4185 -0.3866 -0.4927
   33MOL0     C 4386   5.495   6.636   5.366  0.5931  0.6658  1.1491
   33MOL0     C 4387   5.527   6.547   5.466  0.0181  0.0890 -0.2142
   33MOL0     H 4388   5.786   6.366   5.894  2.0072 -0.6883  2.5658
   33MOL0     H 4389   5.856   6.193   6.042  0.4679  0.1798  0.0160
   33MOL0     H 4390   5.834   5.734   6.078  1.1129  0.7717  0.0876
   33MOL0     H 4391   5.719   5.770   5.963 -0.1214 -1.8615  2.9578
   33MOL0     H 4392   5.967   5.709   5.873  0.7612  1.4161 -1.8029
   33MOL0     H 4393   5.898   5.853   5.802 -1.2717  0.7482  0.4905
   33MOL0     H 4394   6.132   5.836   5.892 -2.2687 -1.2583 -1.1050
   33MOL0     H 4395   6.056   5.987   5.948  0.8853  0.0890  0.7607
   33MOL0     H 4396   6.038   5.885   6.189  2.4249 -0.3934  1.6729
   33MOL0     H 4397   6.092   5.729   6.107 -0.4512 -0.5636 -1.1679
   33MOL0     H 4398   6.312   5.847   6.075 -2.2404 -2.2853 -1.5960
   33MOL0     H 4399   6.246   5.998   6.134  0.5964 -0.0785 -1.3345
   33MOL0     H 4400   6.394   5.848   6.302  0.4855  1.3554 -0.2506
   33MOL0     H 4401   6.245   5.923   6.361 -1.0028 -4.4323  5.1758
   33MOL0     H 4402   6.119   5.728   6.365  2.0345  2.5596  4.4467
   33MOL0     H 4403   6.235   5.647   6.252  1.9168 -0.4193 -0.1683
   33MOL0     H 4404   6.411   5.659   6.440 -0.6458  0.5341  0.2325
   33MOL0     H 4405   6.275   5.549   6.466  0.5089  0.1248 -1.1030
   33MOL0     H 4406   6.379   5.913   6.543  2.0383 -2.1641 -1.6500
   33MOL0     H 4407   6.369   5.907   6.948 -0.5602  0.9127 -0.7147
   33MOL0     H 4408   6.461   5.979   6.821  0.0055  0.5021  0.5802
   33MOL0     H 4409   6.277   6.133   6.774 -1.0725  0.9719 -0.2566
   33MOL0     H 4410   6.340   6.157   6.927  1.0689 -0.3602 -1.3258
   33MOL0     H 4411   6.117   5.973   6.976 -0.7045 -0.0622 -0.0512
   33MOL0     H 4412   6.062   6.069   6.846  2.1957 -1.3344 -1.7411
   33MOL0     H 4413   6.004   6.197   7.032 -0.3658  1.2406 -0.3459
   33MOL0     H 4414   6.153   6.272   6.982  0.9323  1.4944  2.3766
   33MOL0     H 4415   5.968   6.240   7.296 -0.9617 -0.3534  0.5569
   33MOL0     H 4416   5.940   6.117   7.610  2.8611  1.4421 -1.8650
   33MOL0     H 4417   5.879   6.248   7.508 -0.1456 -0.3050 -0.6123
   33MOL0     H 4418   5.775   6.113   7.537 -0.3815 -1.2520  1.9874
   33MOL0     H 4419   5.743   5.558   7.530  0.1791 -1.9056 -0.1072
   33MOL0     H 4420   5.655   5.404   7.684 -0.7393 -0.1101  3.1016
   33MOL0     H 4421   5.717   5.476   8.053 -0.2521  0.0172 -1.6761
   33MOL0     H 4422   5.611   5.337   8.071 -0.9222 -2.6131  0.2764
   33MOL0     H 4423   5.736   5.284   8.248 -0.6531  0.4173  0.5454
   33MOL0     H 4424   5.839   5.219   8.112 -0.3035 -0.1435  0.4326
   33MOL0     H 4425   6.001   5.375   8.134  0.4982  6.0216 -0.6413
   33MOL0     H 4426   5.963   5.310   8.298  3.2436  2.4716  1.5950
   33MOL0     H 4427   5.850   5.571   8.183  0.3714 -1.2202 -1.2702
   33MOL0     H 4428   5.837   5.509   8.350  0.4529  2.2373  0.3830
   33MOL0     H 4429   6.066   5.546   8.396 -1.7816 -1.4690 -0.5359
   33MOL0     H 4430   5.987   5.684   8.364  0.4742 -1.2926  1.1325
   33MOL0     H 4431   6.208   5.540   8.224  1.1884  2.4763  0.3269
   33MOL0     H 4432   6.109   5.610   8.109  3.4708  2.9926 -1.2744
   33MOL0     H 4433   6.244   5.777   8.342 -3.3071 -1.2987  1.6953
   33MOL0     H 4434   6.128   5.831   8.220 -0.5921 -1.4670 -1.5636
   33MOL0     H 4435   6.376   5.710   8.157 -1.2597 -0.2176  1.6632
   33MOL0     H 4436   6.373   5.883   8.166 -0.5892  2.0609 -1.7427
   33MOL0     H 4437   5.982   5.482   7.955 -1.1139  0.5510  0.9285
   33MOL0     H 4438   6.051   5.669   7.798  0.1356 -1.3119  0.5353
   33MOL0     H 4439   6.074   5.755   7.338  0.4405  0.8896 -2.1207
   33MOL0     H 4440   6.200   5.876   7.196 -2.8874 -2.2398 -1.3491
   33MOL0     H 4441   5.566   5.917   5.851  0.0522 -1.4285  1.3304
   33MOL0     H 4442   5.501   6.091   5.717  3.1449 -1.1869 -4.3534
   33MOL0     H 4443   5.734   6.338   5.285 -0.0749 -0.0801  3.1707
   33MOL0     H 4444   5.663   6.510   5.103 -0.5284 -2.1206  0.3449
   33MOL0     H 4445   5.688   6.807   5.122  0.9600 -4.1498 -0.4886
   33MOL0     H 4446   5.613   6.743   4.977 -2.8511 -4.7165  2.0008
   33MOL0     H 4447   5.577   6.996   5.038 -0.4526  0.3128 -1.1315
   33MOL0     H 4448   5.479   6.932   5.170  0.7606  1.7025  0.0191
   33MOL0     H 4449   5.315   6.837   5.032  0.1209 -1.0029 -1.2223
   33MOL0     H 4450   5.420   6.865   4.881  3.0245 -0.5131  1.1522
   33MOL0     H 4451   5.314   7.086   5.056  1.6132  1.4594 -0.3367
   33MOL0     H 4452   5.219   7.017   4.923  0.1968 -0.2220 -1.6998
   33MOL0     H 4453   5.497   7.238   4.689  1.6283  1.2028  1.2802
   33MOL0     H 4454   5.440   6.728   5.380 -1.5894  0.8298 -5.4033
   33MOL0     H 4455   5.502   6.583   5.565 -3.3097 -1.2088 -0.4492
   34MOL0     O 4456  10.462   3.652   8.005  0.1453  0.3800  0.3536
   34MOL0     C 4457  10.561   3.678   8.073 -0.3722  0.7068  0.0694
   34MOL0     O 4458  10.560   3.729   8.199 -0.0146 -0.3069  0.1346
   34MOL0     C 4459  10.436   3.750   8.254 -0.8496 -0.5615  0.8339
   34MOL0     C 4460  10.412   3.875   8.300 -0.3897 -0.7495  0.3716
   34MOL0     C 4461  10.299   3.910   8.378 -0.5228  0.0033 -0.3419
   34MOL0     C 4462  10.212   3.810   8.408 -0.2875 -0.4558  0.5491
   34MOL0     O 4463  10.114   3.848   8.498  0.1602 -0.8788 -0.2613
   34MOL0     C 4464   9.984   3.790   8.494 -0.0176  0.0786  0.0569
   34MOL0     C 4465   9.884   3.889   8.551  0.5632  0.0559  0.3584
   34MOL0     C 4466   9.895   4.034   8.488  0.5470  1.1961 -0.3858
   34MOL0     C 4467   9.853   4.034   8.344 -0.4080  0.1159  0.0633
   34MOL0     C 4468   9.824   4.169   8.271  0.1863 -0.0914  1.0669
   34MOL0     C 4469   9.953   4.235   8.220 -0.3553 -0.2707  0.4567
   34MOL0     C 4470   9.934   4.329   8.103 -0.0384 -1.6142 -0.0538
   34MOL0     C 4471   9.868   4.468   8.151 -0.5617  0.9795 -0.2350
   34MOL0     N 4472   9.940   4.545   8.255 -0.2929 -0.2469 -0.7453
   34MOL0     C 4473   9.909   4.550   8.390 -0.6769  0.5296 -0.3536
   34MOL0     C 4474  10.019   4.609   8.457 -0.2976  0.0452 -0.2096
   34MOL0     C 4475  10.044   4.626   8.605  0.0623 -1.2258  0.3771
   34MOL0     C 4476  10.052   4.482   8.664 -0.7657 -0.3472  0.5216
   34MOL0     C 4477  10.185   4.416   8.616  0.9185 -0.6749 -0.5678
   34MOL0     C 4478  10.306   4.502   8.644 -0.3199  0.1040 -0.0719
   34MOL0     O 4479  10.317   4.540   8.788 -1.0753  0.2156  0.8294
   34MOL0     C 4480  10.394   4.651   8.814 -0.2650  1.3395 -0.0952
   34MOL0     C 4481  10.475   4.717   8.725  0.2029 -0.2098 -0.3483
   34MOL0     C 4482  10.557   4.817   8.775 -0.5577  0.1332  0.5782
   34MOL0     C 4483  10.648   4.871   8.668  0.1513  1.1548  0.5737
   34MOL0     C 4484  10.547   4.867   8.912 -0.4666  0.2399  0.0278
   34MOL0     C 4485  10.626   4.982   8.955  0.9762  0.7493  0.0824
   34MOL0     O 4486  10.566   5.039   9.060 -0.7131  0.3652  0.4460
   34MOL0     C 4487  10.609   5.161   9.114  0.8387 -0.5195  0.0083
   34MOL0     C 4488  10.628   5.174   9.250  0.4146 -0.2549 -0.2319
   34MOL0     C 4489  10.654   5.301   9.303 -1.3986  0.0643  0.0818
   34MOL0     C 4490  10.681   5.415   9.222  0.8657 -0.0639  0.2445
   34MOL0     O 4491  10.736   5.523   9.282  0.0247 -0.5232 -0.6664
   34MOL0     C 4492  10.791   5.623   9.195 -0.0732  0.1650 -0.1670
   34MOL0     C 4493  10.847   5.748   9.270 -0.9509  0.6012 -0.5239
   34MOL0     C 4494  10.740   5.818   9.364  0.1913  0.5211 -0.0357
   34MOL0     C 4495  10.798   5.933   9.449  0.7557 -0.9146 -0.2035
   34MOL0     C 4496  10.893   5.894   9.560 -0.4928  0.3030 -0.0949
   34MOL0     C 4497  10.826   5.800   9.665  0.3264 -1.3230 -0.9623
   34MOL0     C 4498  10.906   5.813   9.805 -0.5854 -0.6763  0.6990
   34MOL0     C 4499  11.054   5.770   9.785 -0.1313  0.6708 -0.8564
   34MOL0    Cl 4500  11.162   5.773   9.926 -0.1359 -0.1842 -0.0090
   34MOL0     C 4501  10.671   5.393   9.089 -0.0017 -1.2943 -0.0027
   34MOL0     C 4502  10.632   5.276   9.037 -0.4855 -0.3902 -0.0014
   34MOL0     O 4503  10.729   5.011   8.912 -0.4390 -0.1435 -0.2518
   34MOL0     C 4504  10.466   4.791   9.000 -0.9800  0.3902 -0.5668
   34MOL0     C 4505  10.399   4.680   8.955 -0.3419  0.1009 -0.6043
   34MOL0     N 4506  10.114   4.642   8.359 -0.5478 -0.5529  0.7241
   34MOL0     N 4507  10.066   4.612   8.245  0.7414  0.3913  0.3197
   34MOL0     C 4508  10.230   3.682   8.353  0.2082 -0.2808  0.1515
   34MOL0     C 4509  10.350   3.653   8.283  0.5532  0.6306 -0.6526
   34MOL0     C 4510  10.693   3.662   8.006 -0.0058  0.0237  1.1707
   34MOL0     C 4511  10.801   3.704   8.087  0.4357 -0.0692 -0.1192
   34MOL0     C 4512  10.930   3.689   8.039 -1.1244  0.4472  0.0724
   34MOL0     C 4513  10.962   3.616   7.917 -0.0722 -0.4429  0.1850
   34MOL0     O 4514  11.081   3.596   7.858 -0.0241  0.1407  0.4881
   34MOL0     C 4515  11.192   3.682   7.890 -0.5352 -0.0360 -0.1868
   34MOL0     C 4516  11.321   3.635   7.817 -0.2615 -0.0425  0.2296
   34MOL0     C 4517  11.377   3.518   7.883  0.3361 -0.1547  0.2728
   34MOL0     C 4518  11.483   3.439   7.801  0.3344 -1.0348  0.7785
   34MOL0     C 4519  11.608   3.515   7.787 -0.7717 -0.5614  0.0923
   34MOL0     C 4520  11.716   3.580   7.780 -0.4972  1.1791 -0.4223
   34MOL0     C 4521  10.852   3.570   7.848  0.8077  0.0253 -1.1124
   34MOL0     C 4522  10.719   3.593   7.886 -0.8038  0.2787 -0.0650
   34MOL0     H 4523  10.485   3.951   8.276 -2.1766  1.2770  1.0489
   34MOL0     H 4524  10.292   4.014   8.408  2.8506  0.4804 -0.7407
   34MOL0     H 4525   9.952   3.765   8.392  1.3622 -1.1274 -0.1143
   34MOL0     H 4526   9.985   3.696   8.550 -1.2000 -0.0281 -0.0834
   34MOL0     H 4527   9.786   3.841   8.550  0.3179  0.4969  1.4829
   34MOL0     H 4528   9.892   3.889   8.660 -2.7334 -1.4416  0.7295
   34MOL0     H 4529   9.822   4.085   8.551 -2.5365 -1.9121 -1.1163
   34MOL0     H 4530   9.998   4.069   8.498  0.8438  0.2695 -0.0492
   34MOL0     H 4531   9.928   3.979   8.286 -1.9787  0.0047 -1.9801
   34MOL0     H 4532   9.763   3.975   8.324 -0.4091  0.1940 -0.1662
   34MOL0     H 4533   9.763   4.147   8.183  0.0257  2.2522  0.5314
   34MOL0     H 4534   9.769   4.240   8.332  1.7009  3.2421 -1.1600
   34MOL0     H 4535  10.004   4.273   8.309 -2.7075  1.9284  0.9959
   34MOL0     H 4536  10.015   4.152   8.184 -0.0367 -0.4689  1.4377
   34MOL0     H 4537  10.032   4.356   8.064  0.2913 -1.6954  0.6971
   34MOL0     H 4538   9.872   4.284   8.025 -1.8214 -1.4968  1.2027
   34MOL0     H 4539   9.766   4.444   8.182 -1.1033 -0.1411 -2.6089
   34MOL0     H 4540   9.862   4.532   8.062  2.5415 -1.1628 -2.1831
   34MOL0     H 4541   9.821   4.502   8.433  0.2878 -1.5293 -0.5820
   34MOL0     H 4542  10.124   4.694   8.633 -0.0832 -0.6888 -0.4767
   34MOL0     H 4543   9.957   4.672   8.653  0.4803  0.0585 -0.0589
   34MOL0     H 4544   9.966   4.420   8.640  0.2820 -1.6909  0.1369
   34MOL0     H 4545  10.068   4.503   8.770  1.0375  6.1347 -0.5588
   34MOL0     H 4546  10.169   4.403   8.508 -4.2041  2.0891 -0.4370
   34MOL0     H 4547  10.189   4.320   8.668 -2.6345 -0.0954  1.0567
   34MOL0     H 4548  10.307   4.583   8.571 -1.7826  0.5236  0.3272
   34MOL0     H 4549  10.386   4.428   8.642 -0.2166  0.0428  2.3955
   34MOL0     H 4550  10.485   4.700   8.618 -0.3086  4.0675 -1.2695
   34MOL0     H 4551  10.640   4.980   8.673 -1.7834  1.0052  1.8291
   34MOL0     H 4552  10.751   4.844   8.693  0.5856 -3.1970 -4.3716
   34MOL0     H 4553  10.629   4.846   8.564  1.8317 -1.3002  0.7815
   34MOL0     H 4554  10.627   5.085   9.313 -0.4140  0.0027  0.1291
   34MOL0     H 4555  10.663   5.306   9.411 -1.2115 -2.6333  0.2513
   34MOL0     H 4556  10.874   5.585   9.134  0.2057 -3.5168  2.2065
   34MOL0     H 4557  10.711   5.654   9.127 -2.6679 -2.9448  1.2296
   34MOL0     H 4558  10.931   5.713   9.331  0.3490  3.6053 -0.4196
   34MOL0     H 4559  10.874   5.817   9.190 -1.1673  0.5171 -0.6703
   34MOL0     H 4560  10.704   5.746   9.437 -1.3457  1.4791  0.2037
   34MOL0     H 4561  10.649   5.864   9.326 -0.6685 -0.1317  1.1696
   34MOL0     H 4562  10.844   6.008   9.384  0.7028 -1.1860 -0.5552
   34MOL0     H 4563  10.718   5.999   9.486  0.8030 -1.3592  0.7108
   34MOL0     H 4564  10.922   5.994   9.593 -1.2022  0.5021 -0.0566
   34MOL0     H 4565  10.978   5.837   9.520 -1.7152 -4.3210  3.1034
   34MOL0     H 4566  10.731   5.852   9.680  0.8568  0.3353 -2.9007
   34MOL0     H 4567  10.816   5.696   9.634  0.7652 -1.1207 -1.8144
   34MOL0     H 4568  10.854   5.746   9.874 -1.4551 -1.0801 -0.3004
   34MOL0     H 4569  10.903   5.919   9.834 -0.3410  0.5335 -3.0693
   34MOL0     H 4570  11.114   5.829   9.714  0.4492 -0.4339 -1.2995
   34MOL0     H 4571  11.039   5.670   9.743 -1.0239  0.6819 -0.5966
   34MOL0     H 4572  10.707   5.463   9.014 -0.6827  0.6741  1.4093
   34MOL0     H 4573  10.622   5.258   8.931  0.9056 -3.1067  0.2351
   34MOL0     H 4574  10.472   4.803   9.108 -2.4703 -3.0574  0.0187
   34MOL0     H 4575  10.352   4.601   9.013  0.6869 -1.8087 -2.2736
   34MOL0     H 4576  10.163   3.600   8.376 -0.7992 -0.1442 -2.0523
   34MOL0     H 4577  10.379   3.550   8.265 -0.3956 -0.2131  2.1019
   34MOL0     H 4578  10.783   3.758   8.180 -0.1452  0.4531 -0.5241
   34MOL0     H 4579  11.021   3.718   8.091  0.6408 -3.5681 -0.4378
   34MOL0     H 4580  11.170   3.787   7.869 -0.4658 -0.0577 -0.3687
   34MOL0     H 4581  11.214   3.670   7.997  2.4201 -2.0529 -0.8953
   34MOL0     H 4582  11.392   3.716   7.837  0.0239  0.3048 -1.9764
   34MOL0     H 4583  11.305   3.614   7.711  1.3882 -3.0400  0.4753
   34MOL0     H 4584  11.296   3.445   7.893  0.8792 -0.5727  1.9683
   34MOL0     H 4585  11.418   3.546   7.980  2.6617 -0.9864 -0.3936
   34MOL0     H 4586  11.435   3.426   7.704 -4.0267 -0.4675  2.6164
   34MOL0     H 4587  11.503   3.344   7.850 -2.4076 -3.3805 -2.2403
   34MOL0     H 4588  11.813   3.625   7.778 -0.0313  0.1810 -1.5958
   34MOL0     H 4589  10.861   3.503   7.763  2.8442 -1.1983 -0.0150
   34MOL0     H 4590  10.648   3.529   7.833  2.8838 -1.9456 -2.7887
   35MOL0     O 4591   2.209   9.013   9.619 -0.3823 -0.0498 -0.1157
   35MOL0     C 4592   2.170   9.009   9.499  0.3495  0.3381 -0.1707
   35MOL0     O 4593   2.167   8.893   9.420  0.6882 -0.9670 -0.1556
   35MOL0     C 4594   2.173   8.771   9.478  0.3724 -0.5324 -0.1894
   35MOL0     C 4595   2.095   8.753   9.593  0.0795  0.1149 -0.2773
   35MOL0     C 4596   2.116   8.639   9.669  1.4557  0.0267 -0.0462
   35MOL0     C 4597   2.212   8.542   9.633 -0.2663  0.8221  0.5476
   35MOL0     O 4598   2.228   8.436   9.722 -0.0571  0.0812 -0.1789
   35MOL0     C 4599   2.328   8.330   9.693 -0.6735  0.3815 -0.3217
   35MOL0     C 4600   2.278   8.205   9.617  0.0933 -0.4934 -1.3440
   35MOL0     C 4601   2.393   8.100   9.588  0.1100 -1.1811  0.1161
   35MOL0     C 4602   2.342   7.974   9.530  0.3431  0.4170 -0.3089
   35MOL0     C 4603   2.278   7.982   9.384  0.5347  0.2403 -0.0174
   35MOL0     C 4604   2.287   7.858   9.298  0.0778  0.5785 -0.0310
   35MOL0     C 4605   2.438   7.827   9.269  0.4321  0.3748 -0.7594
   35MOL0     C 4606   2.501   7.933   9.169 -0.0048 -1.2168  0.2469
   35MOL0     N 4607   2.648   7.914   9.140 -0.6426  0.6091  0.1372
   35MOL0     C 4608   2.699   7.802   9.072 -0.1404 -0.1315  0.3291
   35MOL0     C 4609   2.833   7.835   9.068  0.2244  0.2047  0.8851
   35MOL0     C 4610   2.929   7.745   8.999 -0.0262 -0.1275 -0.1057
   35MOL0     C 4611   2.928   7.594   9.034  0.0892  0.1633  0.1915
   35MOL0     C 4612   3.021   7.572   9.157  0.0684  0.2540  0.6202
   35MOL0     C 4613   3.049   7.424   9.170  0.3672  0.1724  0.0237
   35MOL0     O 4614   3.112   7.401   9.297 -0.2436  0.8244  0.4764
   35MOL0     C 4615   3.054   7.406   9.422 -0.6520  0.3789  0.0594
   35MOL0     C 4616   3.138   7.372   9.524  0.0141 -0.2263 -0.5587
   35MOL0     C 4617   3.104   7.386   9.656  0.2618  0.3552 -0.6188
   35MOL0     C 4618   3.221   7.365   9.757 -0.2152  0.4076  0.1775
   35MOL0     C 4619   2.971   7.416   9.695  0.1145  0.2726 -1.2134
   35MOL0     C 4620   2.933   7.431   9.834 -0.5767 -0.3785 -0.5621
   35MOL0     O 4621   2.791   7.426   9.856 -0.9019 -0.3140 -0.7465
   35MOL0     C 4622   2.751   7.443   9.984 -0.0791  0.1491  1.0812
   35MOL0     C 4623   2.760   7.569  10.048  0.4466 -0.3474  0.4691
   35MOL0     C 4624   2.711   7.585  10.173 -0.3034  0.1803  0.3638
   35MOL0     C 4625   2.658   7.475  10.241 -0.4866  0.2162  0.1300
   35MOL0     O 4626   2.619   7.486  10.372  1.0830 -0.4093  0.6209
   35MOL0     C 4627   2.566   7.616  10.417 -0.7968 -0.5910 -0.4165
   35MOL0     C 4628   2.667   7.703  10.491  0.0739  0.4254 -0.1674
   35MOL0     C 4629   2.685   7.853  10.482  1.0822 -0.9672  0.4152
   35MOL0     C 4630   2.798   7.898  10.592 -0.1346 -0.1833  0.0478
   35MOL0     C 4631   2.841   8.042  10.550  0.1395 -0.1668  0.1958
   35MOL0     C 4632   2.918   8.125  10.655 -1.0581 -0.0132 -0.2139
   35MOL0     C 4633   2.937   8.277  10.634 -0.9372  1.6125  0.3161
   35MOL0     C 4634   2.804   8.355  10.624 -0.1777 -0.6690 -0.2583
   35MOL0    Cl 4635   2.688   8.327  10.759 -0.4099  0.0649 -0.2464
   35MOL0     C 4636   2.628   7.360  10.169 -0.2006 -0.0246 -0.7596
   35MOL0     C 4637   2.687   7.340  10.047  0.3990  0.9829 -0.0556
   35MOL0     O 4638   3.016   7.441   9.924 -0.0464  0.6633 -0.7506
   35MOL0     C 4639   2.877   7.431   9.592 -0.0746 -1.1350  0.2652
   35MOL0     C 4640   2.923   7.431   9.458 -0.3784 -0.5047 -0.5162
   35MOL0     N 4641   2.859   7.952   9.123 -0.4654 -0.3123  0.4965
   35MOL0     N 4642   2.753   7.997   9.172  0.3941  0.6940  0.4122
   35MOL0     C 4643   2.278   8.550   9.511  0.2436 -0.6611 -0.4168
   35MOL0     C 4644   2.253   8.660   9.429  0.5202  0.2316 -0.8307
   35MOL0     C 4645   2.105   9.128   9.446 -0.4687  0.0103 -0.4538
   35MOL0     C 4646   2.077   9.239   9.528 -1.1371 -1.1710  0.1035
   35MOL0     C 4647   2.001   9.351   9.476 -0.9636  0.4590 -0.9396
   35MOL0     C 4648   1.961   9.362   9.334  0.1235  0.3506 -0.2322
   35MOL0     O 4649   1.880   9.469   9.289 -0.1048  0.5105 -0.2642
   35MOL0     C 4650   1.922   9.522   9.165  0.0573 -0.2905  0.2211
   35MOL0     C 4651   1.922   9.675   9.159  1.1716  0.5312 -0.6090
   35MOL0     C 4652   1.781   9.736   9.173 -0.3044 -0.2841  0.4659
   35MOL0     C 4653   1.780   9.887   9.160  0.2079  0.9585 -0.6432
   35MOL0     C 4654   1.639   9.934   9.138 -0.7372 -0.9635 -0.0459
   35MOL0     C 4655   1.521   9.965   9.114  0.2480  0.9624 -1.0745
   35MOL0     C 4656   1.994   9.249   9.253 -0.3415  0.4407  0.1349
   35MOL0     C 4657   2.060   9.137   9.313 -0.7493 -1.1434 -0.0047
   35MOL0     H 4658   2.027   8.824   9.638  0.5718 -1.5437  3.4050
   35MOL0     H 4659   2.060   8.622   9.760  1.5394 -0.0353 -0.0051
   35MOL0     H 4660   2.418   8.369   9.646 -1.5765 -0.4947 -2.9466
   35MOL0     H 4661   2.362   8.297   9.792 -0.2033  0.2691 -0.5176
   35MOL0     H 4662   2.198   8.158   9.675  1.0571 -0.4537  0.0452
   35MOL0     H 4663   2.233   8.226   9.519 -0.9673 -1.0303 -0.9824
   35MOL0     H 4664   2.471   8.139   9.522  1.9558 -2.5663  1.3816
   35MOL0     H 4665   2.448   8.097   9.682 -0.0700 -1.0476  0.2278
   35MOL0     H 4666   2.421   7.898   9.528 -2.2709 -2.5165 -1.4336
   35MOL0     H 4667   2.259   7.935   9.590  1.9265 -0.6219  1.3346
   35MOL0     H 4668   2.174   8.014   9.392  0.7341  0.8879  0.0260
   35MOL0     H 4669   2.320   8.067   9.329 -2.0157  0.5057 -1.7275
   35MOL0     H 4670   2.226   7.781   9.345 -2.3692  1.9980 -0.6969
   35MOL0     H 4671   2.241   7.887   9.203  2.6478  2.1455 -0.8809
   35MOL0     H 4672   2.495   7.809   9.361 -1.5827  0.6802  0.6094
   35MOL0     H 4673   2.442   7.727   9.226  2.0664 -0.4316  1.0864
   35MOL0     H 4674   2.498   8.037   9.201 -1.1507 -1.9930  2.9642
   35MOL0     H 4675   2.452   7.922   9.071  2.4097  1.1062 -1.3521
   35MOL0     H 4676   2.653   7.708   9.044  1.7593 -0.3057 -2.6636
   35MOL0     H 4677   2.914   7.750   8.890 -0.1278 -0.9406 -0.1347
   35MOL0     H 4678   3.029   7.784   9.016  0.2054  0.8231 -3.0722
   35MOL0     H 4679   2.966   7.547   8.943  0.4348 -2.0731  1.4420
   35MOL0     H 4680   2.832   7.545   9.049 -0.0823  0.4473  0.0363
   35MOL0     H 4681   2.984   7.619   9.249 -0.7947  2.8719 -0.9413
   35MOL0     H 4682   3.120   7.617   9.143  0.3706 -0.6198 -0.1041
   35MOL0     H 4683   3.106   7.397   9.080  0.7852  2.7174 -0.5403
   35MOL0     H 4684   2.952   7.373   9.171  0.1033  0.6632  1.9870
   35MOL0     H 4685   3.237   7.337   9.498 -0.2383 -1.5230  0.1174
   35MOL0     H 4686   3.268   7.455   9.798  0.5810 -0.7287  1.9076
   35MOL0     H 4687   3.192   7.301   9.841 -1.3116 -0.7102 -1.0157
   35MOL0     H 4688   3.299   7.304   9.710 -1.6574 -1.2208 -0.1933
   35MOL0     H 4689   2.806   7.657  10.003  1.2913 -0.8606  0.3144
   35MOL0     H 4690   2.741   7.673  10.229 -1.5089 -0.9474  2.9472
   35MOL0     H 4691   2.550   7.670  10.323  1.3722  2.8364  0.9847
   35MOL0     H 4692   2.471   7.598  10.468 -3.1990  1.1509 -3.8613
   35MOL0     H 4693   2.654   7.681  10.598 -0.7112  0.2000 -0.2993
   35MOL0     H 4694   2.769   7.676  10.466  0.8307  3.0815 -0.2968
   35MOL0     H 4695   2.587   7.903  10.481 -1.6911 -5.7190  1.7684
   35MOL0     H 4696   2.722   7.866  10.380  0.2846  1.2818  0.3533
   35MOL0     H 4697   2.750   7.909  10.690  0.4112  4.0359 -0.0002
   35MOL0     H 4698   2.875   7.821  10.586  0.6699  0.7316 -2.3123
   35MOL0     H 4699   2.748   8.087  10.513 -0.5810 -1.9648 -0.2674
   35MOL0     H 4700   2.899   8.028  10.459  0.9945 -1.5673  0.9241
   35MOL0     H 4701   2.863   8.108  10.748 -1.5752  1.6640 -0.1707
   35MOL0     H 4702   3.021   8.093  10.669 -0.9512 -0.3254 -1.5386
   35MOL0     H 4703   3.007   8.291  10.551  1.5273 -0.0257  1.9561
   35MOL0     H 4704   2.997   8.319  10.715 -0.6263  2.4144 -0.3168
   35MOL0     H 4705   2.749   8.335  10.532  0.2040  1.2937 -0.9688
   35MOL0     H 4706   2.832   8.461  10.619  2.2382 -0.7340  5.0214
   35MOL0     H 4707   2.572   7.284  10.222  2.5948 -0.7336  1.4176
   35MOL0     H 4708   2.675   7.240  10.005  2.1648  0.9696 -0.6277
   35MOL0     H 4709   2.772   7.444   9.617  0.0616 -0.1558  0.3569
   35MOL0     H 4710   2.852   7.458   9.381 -1.0433 -1.7626 -0.3628
   35MOL0     H 4711   2.355   8.479   9.482 -1.3318 -2.3587 -0.6293
   35MOL0     H 4712   2.322   8.659   9.345  1.8574 -2.4664  0.1764
   35MOL0     H 4713   2.113   9.256   9.629  3.1615 -0.6231 -1.3206
   35MOL0     H 4714   1.954   9.417   9.548  2.5652  0.7745  1.3425
   35MOL0     H 4715   2.029   9.507   9.145 -0.2268  2.3292 -4.8119
   35MOL0     H 4716   1.861   9.485   9.083  0.9762  0.8089 -1.0024
   35MOL0     H 4717   1.955   9.702   9.058 -0.3066  3.2371 -0.4710
   35MOL0     H 4718   2.005   9.718   9.216  0.8699  0.4137 -0.0784
   35MOL0     H 4719   1.734   9.700   9.265 -3.6112 -0.3182 -1.1131
   35MOL0     H 4720   1.719   9.688   9.097 -1.0013  3.2734 -1.4412
   35MOL0     H 4721   1.837   9.919   9.072  0.6678  0.7382 -0.4261
   35MOL0     H 4722   1.820   9.936   9.249  2.2162  1.9941 -2.0333
   35MOL0     H 4723   1.418   9.967   9.085  0.1757 -2.7139 -1.5969
   35MOL0     H 4724   1.950   9.232   9.156 -1.7234 -2.1954  1.1210
   35MOL0     H 4725   2.071   9.053   9.245 -0.1723  0.6358 -2.2500
   36MOL0     O 4726   5.049   6.826   1.142  1.0767  0.0921 -0.5797
   36MOL0     C 4727   4.972   6.921   1.153  0.4561  0.3196 -1.1013
   36MOL0     O 4728   4.855   6.910   1.199 -0.2966 -0.3395 -0.6861
   36MOL0     C 4729   4.805   6.791   1.239 -0.4516  1.1224  1.3054
   36MOL0     C 4730   4.871   6.702   1.329  0.5234  0.2872  0.3077
   36MOL0     C 4731   4.825   6.571   1.351  0.0342 -0.4920 -0.7431
   36MOL0     C 4732   4.695   6.540   1.306 -0.1326  0.5539  0.9470
   36MOL0     O 4733   4.624   6.426   1.336  0.6201 -0.8714 -0.1920
   36MOL0     C 4734   4.698   6.328   1.411  0.3857  0.0002 -0.2340
   36MOL0     C 4735   4.610   6.206   1.420  0.4653  0.4022 -0.6668
   36MOL0     C 4736   4.468   6.228   1.486  0.0678 -0.0803  0.3618
   36MOL0     C 4737   4.394   6.089   1.505 -0.8573  0.3803  0.5014
   36MOL0     C 4738   4.248   6.093   1.487  0.1918  0.6146 -0.4857
   36MOL0     C 4739   4.180   6.177   1.599 -0.4516 -0.1026  0.2546
   36MOL0     C 4740   4.019   6.160   1.596  0.9637  0.4685 -0.2086
   36MOL0     C 4741   3.958   6.241   1.473  0.4598 -0.0760  0.2910
   36MOL0     N 4742   3.807   6.263   1.478 -0.5954  0.0618 -0.0519
   36MOL0     C 4743   3.728   6.295   1.593  0.0600  0.4358 -1.0126
   36MOL0     C 4744   3.594   6.298   1.540  0.9463 -0.7959  1.2629
   36MOL0     C 4745   3.469   6.349   1.605  0.3297  0.2926  0.4516
   36MOL0     C 4746   3.333   6.277   1.572  0.0725 -1.2292 -0.2409
   36MOL0     C 4747   3.225   6.319   1.679 -0.3983  1.2717 -0.0160
   36MOL0     C 4748   3.115   6.407   1.618  0.4557  0.9335  0.5335
   36MOL0     O 4749   3.156   6.545   1.604  0.1676 -0.2171  0.7827
   36MOL0     C 4750   3.115   6.632   1.703  0.8616 -1.0026  0.2305
   36MOL0     C 4751   3.206   6.674   1.795 -0.1571 -0.5546 -0.2984
   36MOL0     C 4752   3.181   6.771   1.888 -0.3674 -0.1647  0.0323
   36MOL0     C 4753   3.298   6.795   1.993  0.8234  0.3032  0.2527
   36MOL0     C 4754   3.047   6.824   1.891  1.5476 -0.8148  0.0270
   36MOL0     C 4755   2.987   6.910   1.994 -0.4880 -0.7610 -0.7654
   36MOL0     O 4756   2.896   7.007   1.955  0.3840  0.0692 -0.8135
   36MOL0     C 4757   2.803   7.047   2.058 -0.9158  0.9165 -0.0540
   36MOL0     C 4758   2.741   7.170   2.051 -0.2175 -0.6868 -0.0662
   36MOL0     C 4759   2.651   7.216   2.150  0.0252  0.4844 -0.1969
   36MOL0     C 4760   2.611   7.130   2.250 -0.2971 -0.6446 -0.8613
   36MOL0     O 4761   2.528   7.192   2.338  0.0851 -0.0391  0.3599
   36MOL0     C 4762   2.504   7.118   2.460  0.0234  0.0163 -0.2107
   36MOL0     C 4763   2.409   7.176   2.555 -0.7657  0.6663 -0.0698
   36MOL0     C 4764   2.324   7.075   2.627  0.0185 -0.7567 -0.3089
   36MOL0     C 4765   2.378   7.031   2.756  0.9605  0.0535  0.5074
   36MOL0     C 4766   2.290   6.917   2.815 -1.0235  0.4210  0.7233
   36MOL0     C 4767   2.154   6.963   2.855  0.5580  0.1818 -0.2937
   36MOL0     C 4768   2.080   6.850   2.929  0.8185 -0.4390 -0.3672
   36MOL0     C 4769   2.146   6.819   3.075 -0.2152  0.5176  0.1864
   36MOL0    Cl 4770   2.219   6.654   3.100  0.3366 -0.3011  0.3130
   36MOL0     C 4771   2.665   6.997   2.261 -0.8060  0.1422  0.2351
   36MOL0     C 4772   2.765   6.961   2.166 -0.2229  0.2100  0.0930
   36MOL0     O 4773   3.050   6.914   2.102  0.0536  0.0608  0.6491
   36MOL0     C 4774   2.963   6.797   1.791  1.4867  0.2861  0.3362
   36MOL0     C 4775   2.995   6.698   1.702 -0.3159 -0.2974  0.3865
   36MOL0     N 4776   3.595   6.255   1.411 -0.0654 -0.2841 -0.4167
   36MOL0     N 4777   3.722   6.247   1.375  0.1251  0.6793 -0.3164
   36MOL0     C 4778   4.626   6.634   1.225  0.6865 -0.3760  0.2553
   36MOL0     C 4779   4.678   6.757   1.185  0.5771 -0.7858  0.1881
   36MOL0     C 4780   5.021   7.053   1.109 -0.8567  0.2162 -0.0778
   36MOL0     C 4781   5.162   7.085   1.093 -0.0737 -0.8244 -0.7022
   36MOL0     C 4782   5.193   7.215   1.049  0.3038  0.1657 -0.4126
   36MOL0     C 4783   5.094   7.314   1.023 -0.0607 -0.0721 -0.7573
   36MOL0     O 4784   5.144   7.432   0.979 -0.6659  0.1939  0.1721
   36MOL0     C 4785   5.051   7.530   0.969 -0.8062 -0.6786 -0.1651
   36MOL0     C 4786   5.118   7.673   0.956  0.0089  0.4583 -0.2614
   36MOL0     C 4787   5.032   7.799   0.951 -0.0062 -0.2463  0.3286
   36MOL0     C 4788   5.113   7.928   0.910  0.5139 -0.3773 -1.1158
   36MOL0     C 4789   5.215   7.968   1.009  0.3806  0.4892  0.1593
   36MOL0     C 4790   5.292   8.013   1.085 -0.6267 -1.2888 -0.2701
   36MOL0     C 4791   4.955   7.277   1.036 -0.5830 -0.3082 -0.1116
   36MOL0     C 4792   4.927   7.153   1.093 -0.4955 -0.7712 -0.8822
   36MOL0     H 4793   4.964   6.723   1.382  1.4983  1.8741 -1.9246
   36MOL0     H 4794   4.885   6.502   1.409 -0.7120 -0.1371  0.5052
   36MOL0     H 4795   4.789   6.294   1.359 -1.2654  0.5482 -3.7890
   36MOL0     H 4796   4.726   6.359   1.512  0.4558 -0.0084 -0.2502
   36MOL0     H 4797   4.592   6.171   1.318 -2.1778 -4.2888  1.0601
   36MOL0     H 4798   4.658   6.126   1.478 -1.3982  0.7947  1.5848
   36MOL0     H 4799   4.467   6.291   1.576 -3.9901 -2.3677  2.2017
   36MOL0     H 4800   4.412   6.282   1.409  2.4135  1.0199 -0.6676
   36MOL0     H 4801   4.433   6.016   1.433 -0.6283  2.6304 -1.7715
   36MOL0     H 4802   4.419   6.046   1.603 -0.4544  0.6021  0.4991
   36MOL0     H 4803   4.216   6.118   1.385  0.6475  0.4885 -0.6610
   36MOL0     H 4804   4.222   5.987   1.496  4.3306 -0.4852  0.5602
   36MOL0     H 4805   4.199   6.134   1.698 -3.4724 -2.8621 -0.2059
   36MOL0     H 4806   4.205   6.284   1.595  0.9975 -0.4521 -1.8358
   36MOL0     H 4807   3.998   6.053   1.590 -0.3760  0.6428  0.9312
   36MOL0     H 4808   3.977   6.198   1.689  1.3625  3.2525 -1.0634
   36MOL0     H 4809   3.975   6.195   1.376 -4.0836 -0.4160 -0.5720
   36MOL0     H 4810   4.011   6.336   1.462  2.4879 -1.2596 -0.7866
   36MOL0     H 4811   3.771   6.313   1.690 -0.3597  2.4237 -1.1495
   36MOL0     H 4812   3.492   6.335   1.711 -1.3617 -1.0473  0.6810
   36MOL0     H 4813   3.462   6.456   1.584 -0.5766  0.6570  2.4107
   36MOL0     H 4814   3.352   6.170   1.581  0.4383 -1.3008 -1.5641
   36MOL0     H 4815   3.312   6.313   1.471 -2.9150 -2.5585 -0.2250
   36MOL0     H 4816   3.266   6.367   1.769 -1.6905  0.5205  1.0112
   36MOL0     H 4817   3.172   6.230   1.713 -2.5271  3.2630  2.2002
   36MOL0     H 4818   3.019   6.400   1.670  0.0620 -3.2101 -0.4125
   36MOL0     H 4819   3.098   6.378   1.514 -0.3011  2.9576  0.0306
   36MOL0     H 4820   3.304   6.629   1.788 -1.1891 -2.6581 -3.3375
   36MOL0     H 4821   3.279   6.753   2.092  2.2558  1.1755  0.9344
   36MOL0     H 4822   3.386   6.745   1.952 -1.0323 -2.3697 -0.7440
   36MOL0     H 4823   3.320   6.902   2.001 -0.8502  0.6549  0.4698
   36MOL0     H 4824   2.774   7.250   1.985  0.4620 -1.3630 -0.5549
   36MOL0     H 4825   2.618   7.318   2.138  0.0844  0.6283  0.7848
   36MOL0     H 4826   2.482   7.014   2.431  2.5646 -0.6937  0.1356
   36MOL0     H 4827   2.593   7.099   2.519 -2.3593  1.3506  4.2635
   36MOL0     H 4828   2.464   7.242   2.623  0.0678  0.4754 -0.5439
   36MOL0     H 4829   2.336   7.241   2.508 -0.9959  0.4294 -0.0417
   36MOL0     H 4830   2.313   6.993   2.555 -1.7159 -0.2789 -0.6166
   36MOL0     H 4831   2.222   7.110   2.643  0.2772 -1.1299  2.8680
   36MOL0     H 4832   2.478   6.987   2.744 -0.1318 -2.1730 -1.0340
   36MOL0     H 4833   2.379   7.114   2.828 -2.1520  1.8230 -1.3060
   36MOL0     H 4834   2.339   6.877   2.905  0.4747 -0.4202 -0.4240
   36MOL0     H 4835   2.281   6.835   2.743 -1.8096  2.1063 -1.1860
   36MOL0     H 4836   2.169   7.054   2.915 -0.8862  0.6292 -0.5634
   36MOL0     H 4837   2.093   6.990   2.768 -1.0549 -1.5106  0.2390
   36MOL0     H 4838   2.061   6.762   2.867 -1.7191  0.1510 -0.5336
   36MOL0     H 4839   1.982   6.892   2.953  0.3456 -1.9587  0.5285
   36MOL0     H 4840   2.068   6.830   3.151 -0.6047 -1.0750  0.0553
   36MOL0     H 4841   2.221   6.895   3.096  0.3418 -0.8233  3.6526
   36MOL0     H 4842   2.657   6.936   2.351  1.0215 -2.3291 -1.1739
   36MOL0     H 4843   2.810   6.863   2.184 -2.9815 -0.7983  2.0823
   36MOL0     H 4844   2.861   6.832   1.775  0.5946 -2.9717 -2.0341
   36MOL0     H 4845   2.922   6.686   1.622  0.2928  0.9455 -0.3864
   36MOL0     H 4846   4.536   6.599   1.177  0.9909 -2.7044  1.2606
   36MOL0     H 4847   4.628   6.810   1.104 -1.3765 -3.6457 -0.6537
   36MOL0     H 4848   5.227   7.001   1.117  1.5093  0.4851 -0.2172
   36MOL0     H 4849   5.294   7.254   1.048  0.2632  0.3415  0.9072
   36MOL0     H 4850   4.991   7.507   0.880 -1.6131 -2.3144  0.7555
   36MOL0     H 4851   4.997   7.529   1.064 -0.0082  1.5240  0.3814
   36MOL0     H 4852   5.179   7.673   0.865  1.4952  0.4671  0.6922
   36MOL0     H 4853   5.187   7.686   1.040 -0.0530 -0.1738 -0.1084
   36MOL0     H 4854   4.983   7.807   1.049  0.7391  0.7012  0.6414
   36MOL0     H 4855   4.957   7.775   0.876  0.2369 -4.7811  1.2659
   36MOL0     H 4856   5.051   8.018   0.907  0.0320 -0.7244 -1.6104
   36MOL0     H 4857   5.157   7.899   0.814 -0.7839  0.1031 -1.8834
   36MOL0     H 4858   5.357   8.062   1.155 -2.4642 -0.9149  1.2978
   36MOL0     H 4859   4.882   7.352   1.008 -1.2462 -1.1023 -0.5495
   36MOL0     H 4860   4.823   7.136   1.119 -0.5548  0.5676 -0.0962
   37MOL0     O 4861   3.913   8.164  10.870  1.3785 -0.6401  0.6969
   37MOL0     C 4862   3.835   8.142  10.965 -0.0180 -0.9293 -0.0171
   37MOL0     O 4863   3.732   8.040  10.979 -0.2776 -0.8182 -0.2407
   37MOL0     C 4864   3.730   7.940  10.888  0.8364  0.4374 -0.0109
   37MOL0     C 4865   3.756   7.807  10.928  0.3354 -0.4223  1.0313
   37MOL0     C 4866   3.706   7.700  10.852 -0.1230 -0.2036  0.6548
   37MOL0     C 4867   3.658   7.712  10.726  0.6762 -0.1310  0.3456
   37MOL0     O 4868   3.636   7.598  10.649  0.0591 -0.9284 -0.5573
   37MOL0     C 4869   3.575   7.624  10.519  0.2437 -0.7608  0.0973
   37MOL0     C 4870   3.557   7.484  10.449 -0.6016 -1.1485 -0.2403
   37MOL0     C 4871   3.510   7.376  10.555  0.5297  0.6969 -0.0897
   37MOL0     C 4872   3.456   7.256  10.473 -0.1859 -0.0396  0.9010
   37MOL0     C 4873   3.550   7.194  10.371 -0.1547  0.0465  0.2556
   37MOL0     C 4874   3.484   7.083  10.293 -0.3100 -0.4348 -0.0701
   37MOL0     C 4875   3.555   7.039  10.167  1.1698  0.3479  0.4685
   37MOL0     C 4876   3.506   6.894  10.135  0.8526  0.5470  0.7287
   37MOL0     N 4877   3.569   6.790  10.212 -0.3232  0.0386 -1.5860
   37MOL0     C 4878   3.507   6.692  10.278 -0.1818  0.3706  1.4705
   37MOL0     C 4879   3.591   6.596  10.321 -0.1737  0.1228 -0.3586
   37MOL0     C 4880   3.564   6.452  10.366 -0.1976 -0.0794  1.1897
   37MOL0     C 4881   3.632   6.363  10.263 -0.4843 -0.5078  0.5260
   37MOL0     C 4882   3.590   6.370  10.113 -0.4092 -1.3027 -0.0852
   37MOL0     C 4883   3.651   6.241  10.041 -0.2049 -0.3444  0.8124
   37MOL0     O 4884   3.611   6.111  10.088  0.2399  0.3577 -0.4307
   37MOL0     C 4885   3.661   5.989  10.041 -0.0029 -0.6446 -0.1848
   37MOL0     C 4886   3.746   5.969   9.928  0.0114  0.5255  0.0637
   37MOL0     C 4887   3.779   5.832   9.888  0.8350 -0.3807 -0.3396
   37MOL0     C 4888   3.873   5.833   9.771 -0.3567 -0.4036  0.5622
   37MOL0     C 4889   3.735   5.718   9.953  0.6884 -0.5734  0.1266
   37MOL0     C 4890   3.753   5.584   9.911 -0.2970 -1.0842 -0.1801
   37MOL0     O 4891   3.695   5.496   9.998  0.3289 -0.0074 -0.5119
   37MOL0     C 4892   3.720   5.367   9.976 -0.3993  0.4109 -0.6380
   37MOL0     C 4893   3.644   5.294   9.884  0.3965 -0.1337 -0.7490
   37MOL0     C 4894   3.652   5.159   9.867  0.7270  0.1652 -0.1557
   37MOL0     C 4895   3.738   5.085   9.948  1.0696  0.2070 -0.8681
   37MOL0     O 4896   3.744   4.954   9.927  0.4996  0.9122  0.4537
   37MOL0     C 4897   3.868   4.890   9.955 -0.0149 -0.1117 -0.6257
   37MOL0     C 4898   3.858   4.736   9.937 -0.7269  0.6026 -0.6457
   37MOL0     C 4899   3.738   4.681  10.020 -0.2520 -0.2829 -0.0105
   37MOL0     C 4900   3.732   4.530  10.019 -0.6756  0.7807  0.3578
   37MOL0     C 4901   3.623   4.481  10.110  0.9569  0.7520 -0.8526
   37MOL0     C 4902   3.595   4.328  10.094 -0.1978  0.1073  1.0778
   37MOL0     C 4903   3.511   4.283  10.213 -0.3870  0.0634 -0.1502
   37MOL0     C 4904   3.522   4.138  10.234 -0.5844  0.1256 -0.1768
   37MOL0    Cl 4905   3.503   4.039  10.088  0.0830  0.2025  0.4985
   37MOL0     C 4906   3.817   5.155  10.053  0.7272 -0.2450  0.3743
   37MOL0     C 4907   3.796   5.290  10.072  0.1098  0.0476 -0.5024
   37MOL0     O 4908   3.815   5.557   9.811 -0.0080 -0.3122  0.0365
   37MOL0     C 4909   3.653   5.753  10.065 -0.0500  0.1598  0.3735
   37MOL0     C 4910   3.604   5.874  10.102  0.4134  0.1693  0.0575
   37MOL0     N 4911   3.716   6.652  10.300  0.7924 -0.1374 -0.2565
   37MOL0     N 4912   3.701   6.762  10.237 -0.1312 -0.8046 -0.3387
   37MOL0     C 4913   3.648   7.844  10.678  0.0012  0.3940 -0.1840
   37MOL0     C 4914   3.675   7.953  10.762  1.3399 -0.3607  0.2139
   37MOL0     C 4915   3.839   8.223  11.089 -0.0498 -0.4366  0.4782
   37MOL0     C 4916   3.934   8.325  11.097  0.6422 -0.9080  0.0635
   37MOL0     C 4917   3.928   8.419  11.206  0.0144  0.0323  0.1286
   37MOL0     C 4918   3.840   8.399  11.313 -0.3192  0.6343 -0.8647
   37MOL0     O 4919   3.834   8.477  11.430 -0.1175 -0.7861  0.1614
   37MOL0     C 4920   3.942   8.552  11.466  0.4386  0.4229  0.1324
   37MOL0     C 4921   3.927   8.599  11.608  0.4817 -0.3897 -0.8479
   37MOL0     C 4922   4.063   8.640  11.679  0.1634 -0.6062  0.0657
   37MOL0     C 4923   4.129   8.764  11.621  0.5289 -0.9336  0.1212
   37MOL0     C 4924   4.061   8.888  11.670  0.0005 -0.3398 -0.5263
   37MOL0     C 4925   4.006   8.996  11.696  0.3349  0.0049 -0.3040
   37MOL0     C 4926   3.742   8.304  11.297  0.3039 -0.0391 -0.3062
   37MOL0     C 4927   3.740   8.213  11.188 -0.0372 -0.1992 -0.8039
   37MOL0     H 4928   3.805   7.791  11.024 -2.4918  1.0573  2.8334
   37MOL0     H 4929   3.717   7.595  10.879 -0.8994 -0.5233 -0.2015
   37MOL0     H 4930   3.478   7.674  10.523  0.1613 -0.6334 -1.9965
   37MOL0     H 4931   3.636   7.677  10.445 -1.2561 -0.2709 -0.8443
   37MOL0     H 4932   3.482   7.493  10.371 -2.5479  1.6063  1.7473
   37MOL0     H 4933   3.642   7.448  10.389 -1.8260 -1.3695 -1.9033
   37MOL0     H 4934   3.578   7.341  10.634 -2.4491 -1.4687  1.7433
   37MOL0     H 4935   3.416   7.423  10.585 -0.3096  1.8523 -3.9939
   37MOL0     H 4936   3.437   7.180  10.549 -1.2638 -1.1898 -0.4768
   37MOL0     H 4937   3.364   7.292  10.428 -0.4625  0.5242  1.9025
   37MOL0     H 4938   3.578   7.254  10.283 -2.0281 -2.1255 -1.9685
   37MOL0     H 4939   3.650   7.180  10.413 -1.1928 -1.3130  2.4125
   37MOL0     H 4940   3.474   6.995  10.357 -1.1924  0.0635  0.4944
   37MOL0     H 4941   3.378   7.103  10.272 -0.7135  1.1474  2.9601
   37MOL0     H 4942   3.525   7.101  10.083 -1.4748 -2.7575 -1.1276
   37MOL0     H 4943   3.662   7.026  10.186  1.2297 -2.4322 -1.2052
   37MOL0     H 4944   3.536   6.877  10.032  1.5190 -5.3419  1.5379
   37MOL0     H 4945   3.397   6.892  10.145  0.7148 -1.8799 -0.7016
   37MOL0     H 4946   3.401   6.673  10.266  0.4719 -2.7857 -0.3562
   37MOL0     H 4947   3.619   6.444  10.460 -0.1725 -1.8126  1.0562
   37MOL0     H 4948   3.457   6.430  10.368 -0.1222 -2.4166 -3.9316
   37MOL0     H 4949   3.599   6.266  10.300 -2.1889  0.4466  1.6021
   37MOL0     H 4950   3.741   6.362  10.270 -0.4793 -3.1038  0.8305
   37MOL0     H 4951   3.627   6.460  10.062 -5.1383 -1.4712 -4.7151
   37MOL0     H 4952   3.481   6.382  10.114 -0.2793  0.0825  0.3523
   37MOL0     H 4953   3.760   6.235  10.047 -0.3359 -3.8589  1.9084
   37MOL0     H 4954   3.634   6.250   9.933  2.8541  0.9998  0.3054
   37MOL0     H 4955   3.788   6.057   9.879 -2.7564  1.3484 -1.0413
   37MOL0     H 4956   3.815   5.827   9.679  0.5670 -1.0421  0.0082
   37MOL0     H 4957   3.934   5.923   9.756 -1.8579  0.7116  0.8963
   37MOL0     H 4958   3.953   5.760   9.785  0.5046  0.5065  0.4775
   37MOL0     H 4959   3.582   5.348   9.813  0.9305 -1.0651 -1.9532
   37MOL0     H 4960   3.596   5.106   9.790 -0.2073  0.8012  0.0706
   37MOL0     H 4961   3.951   4.925   9.893  1.0123 -0.9144  0.2627
   37MOL0     H 4962   3.897   4.909  10.058  1.2599 -3.0225 -0.3602
   37MOL0     H 4963   3.856   4.719   9.829 -0.6130  1.7563 -0.8502
   37MOL0     H 4964   3.946   4.682   9.974 -2.8635 -2.8631 -0.1814
   37MOL0     H 4965   3.641   4.726   9.998  0.4406  3.6915  3.6767
   37MOL0     H 4966   3.760   4.715  10.122  1.8293  0.2373 -0.5751
   37MOL0     H 4967   3.709   4.490   9.919  1.3780  0.7217 -0.1295
   37MOL0     H 4968   3.832   4.487  10.033 -0.8864 -0.6191 -1.8150
   37MOL0     H 4969   3.534   4.544  10.105  1.3117  1.5675  1.6095
   37MOL0     H 4970   3.657   4.492  10.213 -0.2533 -4.7998  0.4289
   37MOL0     H 4971   3.541   4.322   9.999 -1.1548  1.3408  1.5282
   37MOL0     H 4972   3.696   4.285  10.089 -0.6449 -0.9312 -3.2001
   37MOL0     H 4973   3.415   4.317  10.173 -0.0484 -0.6147 -1.6078
   37MOL0     H 4974   3.530   4.332  10.309  1.0534  0.7420 -0.7544
   37MOL0     H 4975   3.447   4.113  10.310  1.1912 -0.0970  1.6025
   37MOL0     H 4976   3.621   4.126  10.279  0.5619  1.7075 -2.1276
   37MOL0     H 4977   3.889   5.103  10.116  1.1902  1.6621  1.4783
   37MOL0     H 4978   3.861   5.337  10.145  2.7263 -2.6563 -0.8672
   37MOL0     H 4979   3.603   5.667  10.110 -0.5057  0.1759 -0.0920
   37MOL0     H 4980   3.523   5.884  10.173  0.9603  0.1305  0.6927
   37MOL0     H 4981   3.602   7.872  10.583 -2.5791 -1.1449  0.5250
   37MOL0     H 4982   3.649   8.054  10.732  0.2485 -1.5159 -3.1986
   37MOL0     H 4983   4.005   8.349  11.019  0.7534  2.4325  1.0338
   37MOL0     H 4984   3.998   8.502  11.208  0.1553 -0.0879  0.2455
   37MOL0     H 4985   4.029   8.486  11.462  0.8403  0.9744 -0.7167
   37MOL0     H 4986   3.963   8.635  11.397  2.4228  0.2811  0.5050
   37MOL0     H 4987   3.888   8.518  11.671 -0.6178 -0.6979 -1.8788
   37MOL0     H 4988   3.853   8.679  11.614  1.2441  0.2510  0.2200
   37MOL0     H 4989   4.134   8.557  11.669  2.5549  1.6130 -3.8584
   37MOL0     H 4990   4.036   8.666  11.782 -0.2625  1.0208 -0.4240
   37MOL0     H 4991   4.121   8.763  11.512 -1.3459  1.0834  0.1729
   37MOL0     H 4992   4.233   8.763  11.657  1.2858  0.1990 -1.8947
   37MOL0     H 4993   3.957   9.085  11.730 -2.2627 -0.2317 -3.0544
   37MOL0     H 4994   3.688   8.284  11.389 -0.1631 -1.9873 -0.9356
   37MOL0     H 4995   3.664   8.136  11.193  0.0039 -0.1560  1.0503
   38MOL0     O 4996  10.178   8.674  10.760 -0.1602 -0.9379 -0.2790
   38MOL0     C 4997  10.067   8.627  10.797 -0.3946  0.1218 -0.2294
   38MOL0     O 4998   9.964   8.695  10.845 -0.3085 -0.4420 -0.0989
   38MOL0     C 4999   9.965   8.830  10.829 -0.5979 -0.2534 -0.8109
   38MOL0     C 5000   9.891   8.891  10.727 -0.6533 -0.5772  0.0545
   38MOL0     C 5001   9.874   9.026  10.722  0.2874 -0.5286 -0.0793
   38MOL0     C 5002   9.933   9.109  10.809  0.6576 -0.5219 -0.6359
   38MOL0     O 5003   9.922   9.243  10.795 -0.4002  0.3996 -0.1546
   38MOL0     C 5004   9.797   9.295  10.841  0.7304  0.3306  0.8586
   38MOL0     C 5005   9.760   9.260  10.986 -0.5981  0.3148  0.2853
   38MOL0     C 5006   9.662   9.349  11.056  0.7357 -0.5038 -0.8378
   38MOL0     C 5007   9.655   9.307  11.204  0.7084  0.7466 -0.8962
   38MOL0     C 5008   9.520   9.358  11.271 -0.3078  0.0513  0.4449
   38MOL0     C 5009   9.519   9.516  11.264  0.1562  0.6796 -0.0739
   38MOL0     C 5010   9.412   9.574  11.358  0.0999  0.0718  0.3463
   38MOL0     C 5011   9.350   9.696  11.302 -0.1330 -0.0296  0.1078
   38MOL0     N 5012   9.280   9.762  11.412 -0.1502  0.1880  0.1518
   38MOL0     C 5013   9.184   9.696  11.481  0.2602 -0.3176 -0.3628
   38MOL0     C 5014   9.174   9.758  11.604  0.2516  0.3595 -0.7033
   38MOL0     C 5015   9.081   9.726  11.712 -1.2553 -0.7477  0.9246
   38MOL0     C 5016   9.159   9.649  11.816  1.0821 -0.7255  0.0384
   38MOL0     C 5017   9.067   9.597  11.923  0.3865 -0.0905  0.5667
   38MOL0     C 5018   9.149   9.585  12.044 -0.9865 -0.2288 -0.1698
   38MOL0     O 5019   9.082   9.493  12.133 -0.7971 -0.0747  0.4827
   38MOL0     C 5020   9.131   9.466  12.264  1.0144 -0.5156 -0.8848
   38MOL0     C 5021   9.259   9.476  12.323 -0.1123 -1.4814 -0.2899
   38MOL0     C 5022   9.293   9.429  12.448  0.0239 -0.3517 -0.4083
   38MOL0     C 5023   9.430   9.454  12.492 -0.4732 -0.3094  1.2140
   38MOL0     C 5024   9.198   9.369  12.528 -0.0213  0.3028  0.0726
   38MOL0     C 5025   9.220   9.308  12.665  0.1184 -1.0156  0.7465
   38MOL0     O 5026   9.122   9.319  12.762 -0.3292  0.4298  0.5553
   38MOL0     C 5027   9.113   9.220  12.854 -0.9205  0.4319  0.1040
   38MOL0     C 5028   9.143   9.081  12.837 -0.7981 -0.2903  0.4084
   38MOL0     C 5029   9.138   8.989  12.941 -0.1944  0.4656  0.2582
   38MOL0     C 5030   9.089   9.026  13.060 -0.0681 -0.1068 -0.3486
   38MOL0     O 5031   9.095   8.927  13.157 -0.0745 -0.3233  0.8439
   38MOL0     C 5032   9.074   8.944  13.293 -1.0287 -0.3109 -0.2142
   38MOL0     C 5033   9.031   8.814  13.356  0.6277  0.2945  0.3335
   38MOL0     C 5034   9.127   8.697  13.372  0.0147 -0.2992 -0.0133
   38MOL0     C 5035   9.243   8.728  13.469  0.3932 -0.9911 -0.1382
   38MOL0     C 5036   9.358   8.630  13.466  0.3049 -0.4217  0.1781
   38MOL0     C 5037   9.420   8.640  13.603  0.3045  0.5825 -0.1010
   38MOL0     C 5038   9.484   8.760  13.665  0.4920  0.1186 -0.8665
   38MOL0     C 5039   9.617   8.784  13.586 -0.0806 -0.1999 -0.7184
   38MOL0    Cl 5040   9.739   8.675  13.656  0.2908  0.0200 -0.4811
   38MOL0     C 5041   9.055   9.161  13.089  0.5854 -0.6051  0.1303
   38MOL0     C 5042   9.065   9.252  12.985 -0.1827  0.6814  0.9322
   38MOL0     O 5043   9.318   9.233  12.672 -0.1547 -0.3678  0.2214
   38MOL0     C 5044   9.067   9.355  12.480 -0.5591 -0.3001  0.1433
   38MOL0     C 5045   9.035   9.396  12.346 -0.7747 -0.2653  0.4704
   38MOL0     N 5046   9.267   9.851  11.604  0.0865 -0.6542 -0.7023
   38MOL0     N 5047   9.342   9.843  11.503 -0.1723  0.5537  0.4818
   38MOL0     C 5048  10.011   9.054  10.912  0.1161 -0.5843 -0.0872
   38MOL0     C 5049  10.026   8.916  10.918  1.2832 -0.0885  0.0418
   38MOL0     C 5050  10.073   8.474  10.793  0.5333 -0.2575  0.6132
   38MOL0     C 5051   9.957   8.396  10.758 -0.8991 -0.4866  0.3889
   38MOL0     C 5052   9.961   8.255  10.747 -0.0055  0.4393  0.8207
   38MOL0     C 5053  10.097   8.186  10.761 -0.2088 -0.5281 -0.1580
   38MOL0     O 5054  10.114   8.054  10.738 -0.3366 -0.1290  0.7078
   38MOL0     C 5055  10.111   7.975  10.855  0.4368 -0.1961  0.3420
   38MOL0     C 5056  10.165   7.835  10.829 -0.7784 -0.5075 -1.0059
   38MOL0     C 5057  10.073   7.765  10.737  0.1431 -0.0747  0.4146
   38MOL0     C 5058  10.102   7.615  10.726  1.5859  0.9929 -0.4239
   38MOL0     C 5059  10.226   7.601  10.648  0.2063 -0.1426 -0.6302
   38MOL0     C 5060  10.327   7.596  10.582 -0.4137 -0.2706 -0.1886
   38MOL0     C 5061  10.213   8.275  10.789  0.3743  0.2544 -0.6042
   38MOL0     C 5062  10.195   8.411  10.807 -0.2396 -0.1154 -0.2103
   38MOL0     H 5063   9.861   8.824  10.647 -3.1703  0.8104 -0.2678
   38MOL0     H 5064   9.819   9.077  10.644 -0.4965 -0.3110  0.5967
   38MOL0     H 5065   9.799   9.403  10.823  2.0206 -0.0802 -2.0677
   38MOL0     H 5066   9.717   9.248  10.783 -1.7480  1.5356  3.1083
   38MOL0     H 5067   9.720   9.158  10.986  0.0509  0.0447 -0.7471
   38MOL0     H 5068   9.855   9.258  11.041  0.5848  1.8620 -1.5751
   38MOL0     H 5069   9.689   9.455  11.049  0.1938 -0.3437 -0.5547
   38MOL0     H 5070   9.569   9.331  11.002 -0.1221  1.6032 -0.1760
   38MOL0     H 5071   9.654   9.199  11.220 -0.8177  0.6734 -1.4129
   38MOL0     H 5072   9.741   9.350  11.256  0.2478  1.2394 -0.5314
   38MOL0     H 5073   9.438   9.316  11.212 -1.0288  0.5756  1.0699
   38MOL0     H 5074   9.528   9.322  11.374  0.9120 -2.4784 -0.4386
   38MOL0     H 5075   9.617   9.555  11.291  0.2768 -1.3725  3.0701
   38MOL0     H 5076   9.500   9.547  11.161 -0.1842 -1.5055 -0.7293
   38MOL0     H 5077   9.331   9.500  11.358  1.2798 -1.2998  2.1573
   38MOL0     H 5078   9.446   9.580  11.461 -0.2933  2.7415  0.3861
   38MOL0     H 5079   9.278   9.670  11.224 -0.7742 -1.1366  1.0335
   38MOL0     H 5080   9.429   9.760  11.261  3.0835 -2.0835  2.5823
   38MOL0     H 5081   9.117   9.615  11.452 -0.6003  0.1309  0.3275
   38MOL0     H 5082   9.048   9.814  11.767  0.0914 -1.8534  3.6944
   38MOL0     H 5083   8.999   9.671  11.664 -0.4739  1.2032 -3.0659
   38MOL0     H 5084   9.238   9.708  11.861  2.9611 -3.0783  0.0202
   38MOL0     H 5085   9.223   9.572  11.772  1.1657 -0.3304 -0.5506
   38MOL0     H 5086   9.007   9.507  11.903 -2.9869  2.5388 -2.8967
   38MOL0     H 5087   8.985   9.666  11.947 -2.7975 -2.8085 -1.6309
   38MOL0     H 5088   9.169   9.684  12.087 -2.2617  0.0626 -0.1930
   38MOL0     H 5089   9.239   9.527  12.026 -1.1379 -1.1452  1.7719
   38MOL0     H 5090   9.340   9.523  12.267 -0.2662  0.3949  0.9743
   38MOL0     H 5091   9.455   9.443  12.597 -0.3718 -0.5067  1.1698
   38MOL0     H 5092   9.501   9.388  12.441  0.1361 -0.6949  2.5435
   38MOL0     H 5093   9.457   9.555  12.461 -0.3087 -0.9043 -0.7188
   38MOL0     H 5094   9.170   9.033  12.743  0.3157 -1.1631  1.1590
   38MOL0     H 5095   9.180   8.891  12.922  2.4522  1.0267  2.5079
   38MOL0     H 5096   9.148   9.002  13.348 -0.4817  1.4233 -2.6374
   38MOL0     H 5097   8.977   8.993  13.299 -1.3543 -1.1206  2.9999
   38MOL0     H 5098   8.987   8.850  13.450 -0.5441  0.9907 -0.4489
   38MOL0     H 5099   8.951   8.770  13.296  1.1211 -1.8199  1.1634
   38MOL0     H 5100   9.159   8.677  13.269 -4.5793  1.7990 -2.1390
   38MOL0     H 5101   9.077   8.606  13.405 -0.7695  1.0499  2.8131
   38MOL0     H 5102   9.278   8.824  13.431 -4.0884 -0.0530 -2.5701
   38MOL0     H 5103   9.205   8.744  13.570 -1.7983 -0.0994 -1.0407
   38MOL0     H 5104   9.434   8.653  13.391  0.4374 -0.7645  0.2047
   38MOL0     H 5105   9.332   8.526  13.443  0.6767 -0.9368  1.9324
   38MOL0     H 5106   9.349   8.593  13.672  2.6115 -0.5239  1.6771
   38MOL0     H 5107   9.497   8.562  13.608 -2.0005 -1.7632  1.8633
   38MOL0     H 5108   9.494   8.751  13.774  0.0885 -0.9475 -0.9115
   38MOL0     H 5109   9.424   8.851  13.651  1.0215  1.1090  2.2535
   38MOL0     H 5110   9.644   8.888  13.606  3.1273 -0.1468 -4.2137
   38MOL0     H 5111   9.611   8.777  13.477 -3.2362  1.9426 -0.8146
   38MOL0     H 5112   9.005   9.204  13.176 -0.6818 -3.2338  0.7878
   38MOL0     H 5113   9.022   9.347  13.016 -1.3969  0.0974  1.0644
   38MOL0     H 5114   8.997   9.287  12.528  1.5462 -3.5211 -0.9866
   38MOL0     H 5115   8.948   9.376  12.285  0.6663 -0.9238 -1.4530
   38MOL0     H 5116  10.046   9.109  10.999  0.7998 -2.5281  0.9381
   38MOL0     H 5117  10.073   8.882  11.010 -0.4045 -1.1759  0.5345
   38MOL0     H 5118   9.864   8.452  10.758 -1.4061 -1.2481  2.2029
   38MOL0     H 5119   9.867   8.213  10.715 -1.6002  1.5459  3.6971
   38MOL0     H 5120  10.163   8.022  10.938 -0.5864  0.5481  0.5711
   38MOL0     H 5121  10.014   7.970  10.905 -0.0634 -0.0601 -0.5955
   38MOL0     H 5122  10.185   7.788  10.926 -1.2580  2.4395  0.6480
   38MOL0     H 5123  10.261   7.860  10.782 -0.9724  2.2045 -0.1419
   38MOL0     H 5124  10.071   7.813  10.639  0.0959  4.1224  2.2689
   38MOL0     H 5125   9.972   7.790  10.773  0.6696  1.8743  0.6277
   38MOL0     H 5126  10.014   7.580  10.670 -0.7676  1.3559  2.7325
   38MOL0     H 5127  10.111   7.549  10.812 -0.9598  2.8618  1.4268
   38MOL0     H 5128  10.418   7.592  10.525  0.5306  1.6791  1.0460
   38MOL0     H 5129  10.304   8.216  10.800 -1.7863 -3.2353  0.0392
   38MOL0     H 5130  10.285   8.470  10.822 -0.4122 -0.4642  2.7957
   39MOL0     O 5131   4.824   2.230   8.742 -0.2186 -0.3079 -0.8063
   39MOL0     C 5132   4.897   2.273   8.830  0.0887  0.0774  0.1214
   39MOL0     O 5133   4.874   2.396   8.900  0.1649  1.1837 -0.0490
   39MOL0     C 5134   4.777   2.481   8.863 -0.9507  0.2349  0.0639
   39MOL0     C 5135   4.794   2.607   8.915 -0.2325 -0.0076  0.0033
   39MOL0     C 5136   4.709   2.706   8.884 -0.0894 -0.1395 -0.3614
   39MOL0     C 5137   4.602   2.683   8.800  0.1938 -0.7471  0.4773
   39MOL0     O 5138   4.545   2.804   8.755 -0.3697  0.1709  0.6727
   39MOL0     C 5139   4.405   2.802   8.792  0.1250 -0.2761 -1.0788
   39MOL0     C 5140   4.345   2.922   8.714  0.4314 -0.7207 -0.2620
   39MOL0     C 5141   4.207   2.973   8.741 -0.6756  0.6214 -0.1573
   39MOL0     C 5142   4.106   2.868   8.695 -0.3991  0.2603 -0.1898
   39MOL0     C 5143   3.968   2.918   8.749  0.2540  0.1941  0.1067
   39MOL0     C 5144   3.845   2.854   8.671 -0.0480  0.3057  0.9862
   39MOL0     C 5145   3.840   2.908   8.528 -0.3736 -0.4856 -0.6106
   39MOL0     C 5146   3.694   2.904   8.473  0.4323  0.1069 -0.0790
   39MOL0     N 5147   3.646   2.770   8.479  1.0670  0.3015 -0.1893
   39MOL0     C 5148   3.522   2.735   8.536 -0.6606  0.4104 -0.3402
   39MOL0     C 5149   3.500   2.603   8.505  0.1724  0.1411  0.4153
   39MOL0     C 5150   3.365   2.535   8.534 -0.2549  0.3005 -0.7298
   39MOL0     C 5151   3.379   2.405   8.599  0.2456 -0.0489  0.6050
   39MOL0     C 5152   3.445   2.302   8.503 -0.0554  0.5138 -0.3898
   39MOL0     C 5153   3.575   2.242   8.561 -0.3976 -0.4460 -0.4391
   39MOL0     O 5154   3.542   2.188   8.696  0.3006  0.1884 -0.2440
   39MOL0     C 5155   3.630   2.101   8.759  0.5338  0.5902  0.7847
   39MOL0     C 5156   3.760   2.058   8.709  0.0899 -0.4027  0.6072
   39MOL0     C 5157   3.841   1.977   8.780 -0.3359 -0.3480  0.0520
   39MOL0     C 5158   3.966   1.930   8.727  0.7130  0.0488  0.6334
   39MOL0     C 5159   3.806   1.935   8.914  0.6304 -0.2787 -0.7974
   39MOL0     C 5160   3.896   1.878   9.019  1.1073 -0.1494 -0.2486
   39MOL0     O 5161   3.831   1.828   9.128  0.0909 -0.0754  0.7037
   39MOL0     C 5162   3.886   1.729   9.200 -0.1849  0.7506  0.1222
   39MOL0     C 5163   3.892   1.603   9.157  0.8234 -0.4600  0.2334
   39MOL0     C 5164   3.931   1.506   9.250  1.5992 -0.3039  0.6568
   39MOL0     C 5165   3.968   1.541   9.380 -0.4342  0.9526  0.5906
   39MOL0     O 5166   4.015   1.457   9.473  1.1198  0.5735  0.3236
   39MOL0     C 5167   4.001   1.321   9.470  0.5159  0.5548  0.5022
   39MOL0     C 5168   4.021   1.258   9.607  0.6072 -0.2803 -0.2420
   39MOL0     C 5169   4.052   1.107   9.609  0.3012  0.3317 -0.0788
   39MOL0     C 5170   4.184   1.063   9.690  0.2324 -0.4983 -0.1349
   39MOL0     C 5171   4.263   0.966   9.604  0.1247  0.6300  1.5342
   39MOL0     C 5172   4.375   0.907   9.685  0.4447  0.8070  0.2640
   39MOL0     C 5173   4.463   0.816   9.587 -0.0585 -0.1716 -0.1274
   39MOL0     C 5174   4.569   0.738   9.662  0.7079 -0.6267 -0.7669
   39MOL0    Cl 5175   4.645   0.619   9.556 -0.4252 -0.2754 -0.6217
   39MOL0     C 5176   3.968   1.681   9.419  0.5724  0.7614  0.0173
   39MOL0     C 5177   3.916   1.770   9.327  0.7923  0.0271 -0.2981
   39MOL0     O 5178   4.016   1.874   9.003 -0.1490  0.2484 -0.1568
   39MOL0     C 5179   3.674   1.974   8.960 -0.2024  0.7785 -0.2613
   39MOL0     C 5180   3.591   2.060   8.886  0.2360 -0.0189  0.5479
   39MOL0     N 5181   3.598   2.553   8.424  0.3408 -0.0674 -0.6154
   39MOL0     N 5182   3.679   2.659   8.404 -0.0900 -0.5014  0.0406
   39MOL0     C 5183   4.590   2.554   8.754  0.5235  0.7421  0.1409
   39MOL0     C 5184   4.663   2.451   8.784 -1.0741  0.0827  0.5778
   39MOL0     C 5185   5.002   2.183   8.878 -0.4861 -0.1186 -0.3166
   39MOL0     C 5186   5.083   2.228   8.987  1.2157  1.1370  0.7859
   39MOL0     C 5187   5.169   2.135   9.056 -0.4930  0.7403  0.7188
   39MOL0     C 5188   5.181   2.002   9.009  0.3381  0.4483 -0.4131
   39MOL0     O 5189   5.271   1.907   9.053 -0.3796  0.1554 -0.6681
   39MOL0     C 5190   5.329   1.932   9.181 -0.3153 -0.6046 -0.0453
   39MOL0     C 5191   5.373   1.808   9.248 -0.2476  0.5966 -0.1063
   39MOL0     C 5192   5.444   1.834   9.378  0.1724  0.4117 -0.1405
   39MOL0     C 5193   5.428   1.714   9.478 -0.5207 -0.1014  0.1826
   39MOL0     C 5194   5.450   1.756   9.612  0.4014 -0.2882  0.0410
   39MOL0     C 5195   5.468   1.802   9.719  0.2512 -0.4173 -0.8958
   39MOL0     C 5196   5.104   1.961   8.891 -0.1031 -0.4994  0.6759
   39MOL0     C 5197   5.021   2.054   8.824 -0.6075  0.4917 -0.1898
   39MOL0     H 5198   4.880   2.631   8.978 -0.1454  0.8342 -0.4161
   39MOL0     H 5199   4.722   2.809   8.916  1.9601  0.0147 -1.5657
   39MOL0     H 5200   4.355   2.715   8.747  0.0409 -0.1029 -1.3194
   39MOL0     H 5201   4.390   2.809   8.900  0.0188 -2.5207 -0.8886
   39MOL0     H 5202   4.423   3.000   8.715 -0.8809  0.6535  1.5626
   39MOL0     H 5203   4.344   2.901   8.606  1.1227  2.3976 -0.9820
   39MOL0     H 5204   4.197   2.992   8.848  1.3504 -2.1953  0.6787
   39MOL0     H 5205   4.203   3.062   8.678  1.0408  0.5898 -0.3499
   39MOL0     H 5206   4.097   2.868   8.586 -1.1754  2.3516 -0.1734
   39MOL0     H 5207   4.122   2.766   8.731  0.5178  0.1395 -0.8977
   39MOL0     H 5208   3.961   2.908   8.858  0.5061  0.1917  0.1242
   39MOL0     H 5209   3.979   3.025   8.731  1.5651 -0.2397 -2.0339
   39MOL0     H 5210   3.858   2.746   8.680  1.6799  0.5881  2.6665
   39MOL0     H 5211   3.755   2.889   8.723 -0.7518 -0.4202  0.2930
   39MOL0     H 5212   3.870   3.012   8.515 -3.4265  0.1815 -3.8107
   39MOL0     H 5213   3.890   2.847   8.452 -1.6534 -0.4651 -1.5046
   39MOL0     H 5214   3.695   2.940   8.369  1.3160 -2.2129 -0.9438
   39MOL0     H 5215   3.626   2.972   8.525  2.3679  0.1169  2.6259
   39MOL0     H 5216   3.460   2.802   8.594 -2.3737  0.4491 -2.0829
   39MOL0     H 5217   3.321   2.604   8.605  0.7674  0.9109 -0.6638
   39MOL0     H 5218   3.305   2.539   8.442  0.7686 -2.3897 -1.6161
   39MOL0     H 5219   3.287   2.361   8.639 -0.7712  0.6943 -0.7960
   39MOL0     H 5220   3.444   2.429   8.683  0.7889 -2.6226  0.9975
   39MOL0     H 5221   3.482   2.341   8.407  1.5911  0.6329  0.2725
   39MOL0     H 5222   3.378   2.220   8.474 -0.3754  0.4591  0.5010
   39MOL0     H 5223   3.656   2.315   8.571 -0.4336 -0.4682  0.0245
   39MOL0     H 5224   3.614   2.164   8.495 -0.8548 -1.3954  0.3889
   39MOL0     H 5225   3.787   2.099   8.612 -1.5196 -0.0482  0.2934
   39MOL0     H 5226   3.994   1.834   8.772  0.9552 -1.7062 -2.9677
   39MOL0     H 5227   3.956   1.923   8.619  1.2356 -1.4076  0.6527
   39MOL0     H 5228   4.052   1.991   8.757  0.2252  1.5408 -0.8781
   39MOL0     H 5229   3.845   1.602   9.060  1.8558 -0.2712 -0.2844
   39MOL0     H 5230   3.921   1.401   9.222  0.4972  0.4487 -2.2147
   39MOL0     H 5231   3.897   1.298   9.447  0.6347  3.6692 -4.8823
   39MOL0     H 5232   4.070   1.272   9.401 -0.3024 -1.0183  0.7707
   39MOL0     H 5233   4.114   1.304   9.643  0.7324  2.2099 -3.2798
   39MOL0     H 5234   3.935   1.290   9.665  0.6285  1.9996 -1.3543
   39MOL0     H 5235   4.052   1.068   9.507  0.2669  1.7672 -0.6538
   39MOL0     H 5236   3.969   1.076   9.673  0.1927  2.1347  0.6987
   39MOL0     H 5237   4.253   1.144   9.715  1.0219 -0.7212 -1.4781
   39MOL0     H 5238   4.153   1.012   9.781 -2.4706  2.1889  0.6015
   39MOL0     H 5239   4.309   1.018   9.520  1.3967 -1.0938  1.0971
   39MOL0     H 5240   4.206   0.888   9.552 -0.0405  0.7393  1.5519
   39MOL0     H 5241   4.439   0.980   9.735  0.1020  0.3512  1.4299
   39MOL0     H 5242   4.334   0.847   9.767 -1.7399  0.8967 -0.6909
   39MOL0     H 5243   4.519   0.871   9.511  0.2193 -1.0771 -0.5975
   39MOL0     H 5244   4.402   0.749   9.525  1.4615 -0.8565 -0.9384
   39MOL0     H 5245   4.527   0.682   9.746 -2.3435  1.2865 -0.8844
   39MOL0     H 5246   4.645   0.809   9.695  1.7260 -1.1248 -1.9675
   39MOL0     H 5247   4.010   1.715   9.513  1.4026  1.0531 -0.4439
   39MOL0     H 5248   3.909   1.877   9.345  2.3017 -0.0069  0.6822
   39MOL0     H 5249   3.629   1.946   9.054  0.6456  0.8347  0.1715
   39MOL0     H 5250   3.495   2.080   8.931  0.3006  0.5961  0.4263
   39MOL0     H 5251   4.509   2.535   8.684  0.6922  1.4579 -0.2681
   39MOL0     H 5252   4.627   2.358   8.742  1.8205 -1.1521  0.6242
   39MOL0     H 5253   5.070   2.324   9.036  0.8575  2.3722 -1.5939
   39MOL0     H 5254   5.238   2.164   9.135 -0.3601  1.5762  0.3035
   39MOL0     H 5255   5.409   2.005   9.167 -1.7488  1.8871  3.2103
   39MOL0     H 5256   5.254   1.980   9.245  1.7472  2.5180  0.2052
   39MOL0     H 5257   5.452   1.761   9.188  1.0280  0.5534  1.5312
   39MOL0     H 5258   5.295   1.731   9.255 -2.2468  2.6640  2.0399
   39MOL0     H 5259   5.426   1.933   9.421  0.4237  0.9824 -1.2993
   39MOL0     H 5260   5.551   1.843   9.358  0.0233  0.6142 -0.8644
   39MOL0     H 5261   5.497   1.632   9.453  0.5484  1.4765 -2.4574
   39MOL0     H 5262   5.325   1.680   9.469 -0.9743  1.1782  0.3415
   39MOL0     H 5263   5.507   1.831   9.814 -1.7976 -1.3717  0.2872
   39MOL0     H 5264   5.125   1.860   8.857  2.4159 -0.7390  2.6201
   39MOL0     H 5265   4.950   2.017   8.750 -1.3657 -1.1905  1.3115
   40MOL0     O 5266   7.766   2.327   6.857 -0.2527  1.0837 -0.4803
   40MOL0     C 5267   7.869   2.389   6.890  0.3610 -0.8201  0.0514
   40MOL0     O 5268   7.897   2.447   7.010  0.2536  0.3877  0.3548
   40MOL0     C 5269   7.800   2.463   7.106  0.0405 -0.9051  0.3587
   40MOL0     C 5270   7.758   2.364   7.192 -0.6118 -1.3187  0.0617
   40MOL0     C 5271   7.651   2.386   7.275 -0.1770  0.1076 -0.7709
   40MOL0     C 5272   7.587   2.516   7.294  0.5134  0.5776 -0.1504
   40MOL0     O 5273   7.474   2.523   7.371 -0.1386 -0.6391 -0.2385
   40MOL0     C 5274   7.406   2.649   7.379 -0.4043  0.1042  0.1005
   40MOL0     C 5275   7.274   2.604   7.451  0.6126 -1.3245  0.6741
   40MOL0     C 5276   7.165   2.707   7.467 -0.0269 -0.0149 -0.4169
   40MOL0     C 5277   7.190   2.827   7.558 -0.1834  0.5926  0.5178
   40MOL0     C 5278   7.075   2.931   7.544 -0.3430  0.0921 -0.3697
   40MOL0     C 5279   6.947   2.911   7.637  0.7183 -0.9704 -0.9284
   40MOL0     C 5280   6.859   3.034   7.608  0.2946  0.7503 -0.1708
   40MOL0     C 5281   6.798   3.040   7.475  0.8785  0.0460 -0.5884
   40MOL0     N 5282   6.868   3.120   7.369  0.4286  0.2748  0.1427
   40MOL0     C 5283   6.899   3.252   7.363 -0.0805  0.0632  0.8374
   40MOL0     C 5284   6.928   3.278   7.231  0.4873 -0.6608 -0.1589
   40MOL0     C 5285   6.988   3.410   7.176 -0.1307 -0.1161 -0.4328
   40MOL0     C 5286   6.892   3.496   7.073  0.9062 -0.1916 -0.6602
   40MOL0     C 5287   6.947   3.630   7.033  0.0376  0.0014  0.1209
   40MOL0     C 5288   6.944   3.633   6.881  0.1689 -0.2474 -0.4025
   40MOL0     O 5289   6.814   3.601   6.826  0.4759 -0.8003 -0.1305
   40MOL0     C 5290   6.712   3.692   6.819  1.5396 -0.1302 -0.3368
   40MOL0     C 5291   6.714   3.824   6.867 -0.2843  0.3076 -0.1980
   40MOL0     C 5292   6.599   3.908   6.872 -0.4239 -0.6425  1.1359
   40MOL0     C 5293   6.628   4.055   6.903  0.2797  0.2017  0.3398
   40MOL0     C 5294   6.475   3.859   6.831  0.3803 -0.3427  0.2208
   40MOL0     C 5295   6.351   3.934   6.853 -0.0827  0.7632 -0.2888
   40MOL0     O 5296   6.245   3.864   6.889 -0.4480  0.1745 -0.3743
   40MOL0     C 5297   6.120   3.925   6.925  0.4779 -0.9308 -0.1265
   40MOL0     C 5298   6.092   4.055   6.987  0.0058  0.0988 -0.3153
   40MOL0     C 5299   5.961   4.102   6.996  0.0350  0.4666 -0.8598
   40MOL0     C 5300   5.856   4.020   6.968  0.1739 -0.0947  0.5691
   40MOL0     O 5301   5.724   4.059   7.005  0.4314 -0.0912 -0.4088
   40MOL0     C 5302   5.623   3.956   7.025  0.2612 -1.1740  0.4668
   40MOL0     C 5303   5.488   4.027   7.058 -0.6023 -0.0257  1.2161
   40MOL0     C 5304   5.439   4.083   6.920  0.3724 -0.5068  0.4653
   40MOL0     C 5305   5.292   4.131   6.946  0.3504 -0.3597  0.7276
   40MOL0     C 5306   5.223   4.172   6.816 -0.3083 -0.0397  0.4112
   40MOL0     C 5307   5.079   4.228   6.840 -0.0943 -0.5108 -0.3685
   40MOL0     C 5308   5.071   4.375   6.891 -0.0107 -0.1306 -0.2230
   40MOL0     C 5309   4.930   4.429   6.883  0.3970 -0.2089 -0.2523
   40MOL0    Cl 5310   4.920   4.578   6.993 -0.0586 -0.5672  0.1251
   40MOL0     C 5311   5.872   3.885   6.918 -0.4642  0.5560  0.2181
   40MOL0     C 5312   6.013   3.849   6.893  0.4700 -0.1036 -1.1509
   40MOL0     O 5313   6.351   4.054   6.835 -0.3160  1.0155  0.1432
   40MOL0     C 5314   6.466   3.728   6.787  0.0851  0.3619  0.6342
   40MOL0     C 5315   6.584   3.646   6.778  1.1508 -0.7757  0.1851
   40MOL0     N 5316   6.925   3.159   7.157 -0.9132  0.1544 -0.0153
   40MOL0     N 5317   6.891   3.069   7.234  0.5804  0.0424 -0.7954
   40MOL0     C 5318   7.629   2.620   7.212  0.3548 -0.2914  0.0799
   40MOL0     C 5319   7.735   2.597   7.109  0.8325 -0.5425  0.4573
   40MOL0     C 5320   7.991   2.387   6.809 -0.2297 -0.0205  0.9290
   40MOL0     C 5321   8.122   2.391   6.867  0.7578  0.8966  0.3877
   40MOL0     C 5322   8.231   2.407   6.786  0.5180 -0.1365  0.3996
   40MOL0     C 5323   8.223   2.407   6.646  0.3193  0.1050  0.7647
   40MOL0     O 5324   8.338   2.428   6.568 -0.0552 -0.4270  0.8796
   40MOL0     C 5325   8.357   2.353   6.443 -1.0773 -0.3475 -0.9175
   40MOL0     C 5326   8.508   2.324   6.425  0.5617 -0.1498  0.7043
   40MOL0     C 5327   8.604   2.444   6.422 -0.0859  0.2180 -0.3360
   40MOL0     C 5328   8.737   2.399   6.387  0.5697  0.5522 -0.5815
   40MOL0     C 5329   8.836   2.484   6.449 -1.1894  1.3246  0.4909
   40MOL0     C 5330   8.928   2.545   6.497 -0.0475 -0.2208  0.0919
   40MOL0     C 5331   8.103   2.375   6.589  0.1032  0.1830  0.4135
   40MOL0     C 5332   7.984   2.374   6.674 -0.0291 -0.3894  0.7388
   40MOL0     H 5333   7.808   2.268   7.177  0.7657 -0.4313 -1.3754
   40MOL0     H 5334   7.610   2.322   7.352 -4.4267  4.5727  1.2434
   40MOL0     H 5335   7.462   2.718   7.443  3.2982 -2.1837 -0.4495
   40MOL0     H 5336   7.390   2.696   7.281  1.5413  2.1989  0.6923
   40MOL0     H 5337   7.239   2.511   7.406 -2.4988 -0.0757  0.2444
   40MOL0     H 5338   7.309   2.584   7.553  7.6996 -0.9808 -1.1777
   40MOL0     H 5339   7.140   2.745   7.367  0.5870 -0.0963 -0.6041
   40MOL0     H 5340   7.072   2.673   7.513 -1.3941  2.9557 -0.7855
   40MOL0     H 5341   7.201   2.799   7.663  2.4163 -0.5690  0.0074
   40MOL0     H 5342   7.276   2.884   7.523  0.5508 -0.8543 -0.0894
   40MOL0     H 5343   7.117   3.031   7.558 -0.7035  0.4774 -1.8703
   40MOL0     H 5344   7.039   2.918   7.442 -0.5190  0.5340 -0.3664
   40MOL0     H 5345   6.890   2.822   7.609 -0.8653 -0.2351 -0.1466
   40MOL0     H 5346   6.969   2.901   7.744 -2.4290  2.0790  0.1714
   40MOL0     H 5347   6.776   3.012   7.675  1.4320  0.7494  1.2702
   40MOL0     H 5348   6.904   3.131   7.633 -0.7940  0.6174  2.6313
   40MOL0     H 5349   6.700   3.089   7.482 -0.6149 -2.4006 -2.4792
   40MOL0     H 5350   6.768   2.942   7.435  0.4261  0.2337 -0.7230
   40MOL0     H 5351   6.912   3.323   7.444  0.2735  0.4149  0.4822
   40MOL0     H 5352   7.007   3.461   7.271 -0.3790  0.0182 -0.4549
   40MOL0     H 5353   7.089   3.395   7.138 -0.2657  0.7812 -1.1622
   40MOL0     H 5354   6.808   3.523   7.136  0.7080  0.2565 -1.1094
   40MOL0     H 5355   6.842   3.434   6.998 -3.9735  1.4545  0.9051
   40MOL0     H 5356   7.052   3.645   7.057  0.3457  0.6552 -1.5056
   40MOL0     H 5357   6.895   3.714   7.080 -0.1741  0.5018 -0.9700
   40MOL0     H 5358   7.021   3.567   6.838 -0.5425 -2.7448  1.9096
   40MOL0     H 5359   6.980   3.731   6.848  0.7635 -1.0797 -2.3926
   40MOL0     H 5360   6.813   3.862   6.888 -0.4747  1.0961 -0.6489
   40MOL0     H 5361   6.583   4.108   6.819 -1.5559  0.6780  1.5634
   40MOL0     H 5362   6.579   4.076   6.999  0.4433 -1.1763  0.7489
   40MOL0     H 5363   6.729   4.083   6.937 -0.2418  2.7366  0.0096
   40MOL0     H 5364   6.177   4.117   7.014 -1.3260  1.4440  0.9493
   40MOL0     H 5365   5.935   4.203   7.025 -2.9001 -0.1917 -0.9560
   40MOL0     H 5366   5.604   3.900   6.933  1.4670  1.1136 -1.2852
   40MOL0     H 5367   5.658   3.896   7.110  3.7861  0.7854  0.6047
   40MOL0     H 5368   5.429   3.940   7.089 -0.2262 -1.2177 -1.1791
   40MOL0     H 5369   5.479   4.101   7.138 -3.6931  0.1870  0.7969
   40MOL0     H 5370   5.456   3.998   6.853  4.6478  0.2454  0.3153
   40MOL0     H 5371   5.500   4.163   6.878  0.8947 -0.3107  1.5374
   40MOL0     H 5372   5.223   4.069   7.004 -0.4481  1.6374  1.9987
   40MOL0     H 5373   5.290   4.214   7.017  0.7939 -2.3059  3.1287
   40MOL0     H 5374   5.212   4.079   6.759  0.8627  1.3921 -2.2924
   40MOL0     H 5375   5.288   4.245   6.770 -0.7339  0.0123 -0.1138
   40MOL0     H 5376   5.032   4.218   6.742 -0.4696  1.9843 -0.5192
   40MOL0     H 5377   5.026   4.165   6.912 -0.3526 -0.3492 -0.4133
   40MOL0     H 5378   5.147   4.437   6.841  1.4366 -0.3720  1.5599
   40MOL0     H 5379   5.097   4.367   6.997  1.0134 -1.3117 -0.5516
   40MOL0     H 5380   4.865   4.352   6.925  0.4695  0.5131  1.2129
   40MOL0     H 5381   4.898   4.448   6.780 -1.7442 -2.9059 -0.2025
   40MOL0     H 5382   5.792   3.819   6.884 -1.0489  1.4916 -0.2806
   40MOL0     H 5383   6.030   3.751   6.849 -0.6518 -1.9552  2.1850
   40MOL0     H 5384   6.374   3.684   6.750  1.6344 -0.8839 -1.9973
   40MOL0     H 5385   6.578   3.544   6.742  0.9900  0.6092 -4.4440
   40MOL0     H 5386   7.586   2.720   7.213 -1.2808 -0.9662  0.7126
   40MOL0     H 5387   7.766   2.667   7.032  3.1561 -4.1389 -2.1889
   40MOL0     H 5388   8.136   2.383   6.975 -0.0071  1.8302  0.5757
   40MOL0     H 5389   8.324   2.432   6.837 -0.0436  0.9785  0.9250
   40MOL0     H 5390   8.299   2.261   6.444  1.9343 -2.4038  0.2992
   40MOL0     H 5391   8.332   2.407   6.352  0.7281 -0.1813 -1.3687
   40MOL0     H 5392   8.510   2.267   6.331 -2.5479  2.1013 -0.8917
   40MOL0     H 5393   8.520   2.258   6.511  2.0369  0.4351  0.9835
   40MOL0     H 5394   8.610   2.466   6.529  0.1764 -0.2687 -0.2485
   40MOL0     H 5395   8.570   2.536   6.375  0.0191  0.4770  0.0836
   40MOL0     H 5396   8.748   2.406   6.278  0.9049  0.0002 -0.5889
   40MOL0     H 5397   8.757   2.297   6.419 -1.3336  0.4624  0.4724
   40MOL0     H 5398   8.993   2.608   6.556 -1.7699  3.2904 -1.4755
   40MOL0     H 5399   8.095   2.351   6.483  0.6739 -0.4133  0.4945
   40MOL0     H 5400   7.889   2.344   6.631 -0.0961 -0.8336  1.1918
   41MOL0     O 5401   6.312  10.629  10.200  0.1650  0.2349  0.2034
   41MOL0     C 5402   6.272  10.590  10.093  0.2639  0.1960  0.2844
   41MOL0     O 5403   6.139  10.570  10.059 -0.5480 -0.3593 -1.3934
   41MOL0     C 5404   6.046  10.623  10.138 -0.3081  0.0054  0.8949
   41MOL0     C 5405   5.992  10.542  10.235  0.4176  0.3792  0.1500
   41MOL0     C 5406   5.917  10.601  10.337  0.0662 -0.5005 -0.2044
   41MOL0     C 5407   5.880  10.741  10.347  1.0074 -0.4219 -0.5250
   41MOL0     O 5408   5.802  10.801  10.440 -1.0388 -0.3548 -0.4160
   41MOL0     C 5409   5.798  10.740  10.566  0.7950  0.3781 -1.2287
   41MOL0     C 5410   5.680  10.642  10.574  0.1173 -0.6216 -0.2875
   41MOL0     C 5411   5.648  10.589  10.715  0.6013 -0.2254  0.6970
   41MOL0     C 5412   5.562  10.466  10.711  0.1747 -0.4533 -0.4174
   41MOL0     C 5413   5.529  10.400  10.842  1.2801  1.5103  0.1362
   41MOL0     C 5414   5.425  10.286  10.828 -0.2506  0.4432 -0.4402
   41MOL0     C 5415   5.392  10.212  10.962  0.5615  0.0503 -0.2862
   41MOL0     C 5416   5.367  10.321  11.072  0.6610 -0.6768 -0.2501
   41MOL0     N 5417   5.305  10.275  11.197  0.3279  0.1808  0.5379
   41MOL0     C 5418   5.170  10.257  11.213 -0.1295  0.3365 -0.0926
   41MOL0     C 5419   5.166  10.228  11.343 -0.8801 -0.4924  1.0059
   41MOL0     C 5420   5.040  10.194  11.425  0.7741  0.3269  0.5763
   41MOL0     C 5421   4.973  10.326  11.453 -0.3792 -0.0835  0.4579
   41MOL0     C 5422   4.866  10.324  11.569  0.4673 -0.8984 -0.0263
   41MOL0     C 5423   4.764  10.442  11.564  0.3499  0.1807 -0.1470
   41MOL0     O 5424   4.653  10.413  11.654  1.3050 -0.8423 -0.5750
   41MOL0     C 5425   4.527  10.473  11.634  0.9302  0.3110 -0.8051
   41MOL0     C 5426   4.486  10.555  11.531  0.3306 -0.0463  0.5236
   41MOL0     C 5427   4.356  10.602  11.517  0.4099  0.4053 -0.5901
   41MOL0     C 5428   4.326  10.681  11.395  1.0598  0.2244 -0.8359
   41MOL0     C 5429   4.259  10.565  11.625  0.3044  0.3059 -0.0895
   41MOL0     C 5430   4.108  10.594  11.627 -0.5916 -0.3557  0.0366
   41MOL0     O 5431   4.037  10.548  11.728 -0.4101 -0.3342  0.2506
   41MOL0     C 5432   3.914  10.602  11.753 -0.0208 -0.5236 -1.0996
   41MOL0     C 5433   3.886  10.739  11.741  0.8780 -0.1263 -0.0351
   41MOL0     C 5434   3.758  10.773  11.782  1.0334 -0.0086 -0.1061
   41MOL0     C 5435   3.656  10.684  11.817  0.3295  0.4172 -0.8002
   41MOL0     O 5436   3.525  10.710  11.842  0.6639  0.2003 -0.6376
   41MOL0     C 5437   3.490  10.854  11.827  0.1141 -0.2291 -0.4970
   41MOL0     C 5438   3.333  10.859  11.852 -0.9383 -1.0671  0.4782
   41MOL0     C 5439   3.280  11.000  11.842  1.0199  0.7435 -0.9937
   41MOL0     C 5440   3.139  10.983  11.775 -0.0912 -1.1200 -0.1526
   41MOL0     C 5441   3.048  11.112  11.811  0.3614  0.3848  0.1446
   41MOL0     C 5442   3.105  11.237  11.747  0.7194 -0.1577 -0.2086
   41MOL0     C 5443   3.095  11.259  11.602  0.1088  0.4157 -0.4177
   41MOL0     C 5444   2.974  11.227  11.527 -0.3407 -0.2758  0.7878
   41MOL0    Cl 5445   3.011  11.241  11.353  0.4052  0.7801 -0.0228
   41MOL0     C 5446   3.691  10.548  11.805  0.3609 -0.4642 -0.7779
   41MOL0     C 5447   3.821  10.508  11.790 -0.2151 -0.0507  1.0491
   41MOL0     O 5448   4.069  10.665  11.534  0.3304 -0.8613  0.4113
   41MOL0     C 5449   4.313  10.495  11.731 -0.7495  0.0126 -0.3510
   41MOL0     C 5450   4.443  10.448  11.734  0.2034 -0.6379 -0.8026
   41MOL0     N 5451   5.297  10.233  11.401  0.0569  0.5824 -0.5658
   41MOL0     N 5452   5.371  10.265  11.309 -0.7081 -0.5927 -0.0487
   41MOL0     C 5453   5.922  10.813  10.234  0.0236 -0.0179  0.5563
   41MOL0     C 5454   6.001  10.754  10.135 -0.5433 -0.1066  0.1902
   41MOL0     C 5455   6.380  10.577   9.990 -0.0027  0.3251 -0.1562
   41MOL0     C 5456   6.372  10.502   9.874  0.1586  0.6124  0.5570
   41MOL0     C 5457   6.466  10.505   9.772 -1.3467  0.2511  0.0157
   41MOL0     C 5458   6.591  10.569   9.797  0.6284 -0.3057  0.5008
   41MOL0     O 5459   6.693  10.587   9.712 -0.4742 -0.2822  0.1056
   41MOL0     C 5460   6.660  10.573   9.571  0.6236  0.3708  0.2420
   41MOL0     C 5461   6.778  10.612   9.483  0.1975 -0.4535 -0.3879
   41MOL0     C 5462   6.910  10.580   9.555  0.9110  0.4597  0.0762
   41MOL0     C 5463   7.022  10.544   9.463  0.5381  0.5092  0.7426
   41MOL0     C 5464   7.043  10.637   9.348 -0.0466  0.2735 -0.8585
   41MOL0     C 5465   7.054  10.712   9.249 -0.2494 -0.4559 -0.5515
   41MOL0     C 5466   6.596  10.630   9.921 -0.3822  0.4753 -0.0143
   41MOL0     C 5467   6.501  10.637  10.020  0.4190 -0.6557  0.1324
   41MOL0     H 5468   6.044  10.447  10.237  0.3174  0.1706 -2.4538
   41MOL0     H 5469   5.897  10.554  10.433 -3.0643  2.6502  0.9230
   41MOL0     H 5470   5.893  10.688  10.583  0.4196 -0.6770 -2.2581
   41MOL0     H 5471   5.796  10.804  10.655  2.0145 -1.9907  0.6189
   41MOL0     H 5472   5.601  10.690  10.516  1.9750  1.2752 -1.3480
   41MOL0     H 5473   5.721  10.557  10.519  2.2223  1.5127 -2.2299
   41MOL0     H 5474   5.736  10.553  10.768 -1.2571 -1.0470  3.4393
   41MOL0     H 5475   5.601  10.668  10.775  2.8895  0.7043  1.3608
   41MOL0     H 5476   5.465  10.492  10.668 -0.4216 -0.4567  0.8517
   41MOL0     H 5477   5.609  10.396  10.642  3.3351  0.4453  0.6579
   41MOL0     H 5478   5.620  10.354  10.883 -0.7451 -0.2239  3.0780
   41MOL0     H 5479   5.477  10.467  10.911  2.6259  1.1055  1.6309
   41MOL0     H 5480   5.336  10.329  10.781 -1.4565 -2.1655 -0.7806
   41MOL0     H 5481   5.469  10.212  10.761  2.0824  0.2808  1.1751
   41MOL0     H 5482   5.310  10.140  10.948  2.3331 -2.1053 -0.1367
   41MOL0     H 5483   5.483  10.152  10.972  0.4657 -0.3869 -1.8178
   41MOL0     H 5484   5.305  10.403  11.034 -3.4671 -2.0055  2.8779
   41MOL0     H 5485   5.459  10.372  11.100 -0.4482  0.9261  0.5855
   41MOL0     H 5486   5.092  10.261  11.138 -0.4988  1.3431  0.3359
   41MOL0     H 5487   4.975  10.123  11.373  1.9402  0.3198 -0.9563
   41MOL0     H 5488   5.068  10.154  11.523 -0.6140  0.3303  0.9960
   41MOL0     H 5489   4.925  10.355  11.358  1.3306 -0.6987 -0.6434
   41MOL0     H 5490   5.051  10.403  11.460  1.8981 -1.7170 -3.4609
   41MOL0     H 5491   4.915  10.319  11.667  1.8274 -4.0143 -0.7371
   41MOL0     H 5492   4.809  10.231  11.561 -0.4097 -0.2215 -3.1917
   41MOL0     H 5493   4.717  10.443  11.465 -3.4359  1.9603  1.4380
   41MOL0     H 5494   4.806  10.542  11.578  1.6855 -0.2607 -0.8187
   41MOL0     H 5495   4.560  10.580  11.456  2.3344 -5.8381  0.0234
   41MOL0     H 5496   4.255  10.624  11.334 -3.8531  0.2122  4.0843
   41MOL0     H 5497   4.273  10.773  11.420 -3.0885 -2.0567 -0.1881
   41MOL0     H 5498   4.411  10.701  11.330  0.1012  5.0817 -0.9597
   41MOL0     H 5499   3.959  10.811  11.709  2.6643 -1.4415  0.8982
   41MOL0     H 5500   3.729  10.877  11.791 -0.3341 -0.4270  0.5228
   41MOL0     H 5501   3.522  10.924  11.904 -2.2440  0.8617 -0.4205
   41MOL0     H 5502   3.505  10.890  11.725 -0.8970 -0.9036 -0.9081
   41MOL0     H 5503   3.292  10.799  11.771  0.1493 -2.4367  0.8886
   41MOL0     H 5504   3.316  10.807  11.947 -0.8809 -2.5702 -0.3172
   41MOL0     H 5505   3.351  11.064  11.789  0.8493  0.9612 -0.9626
   41MOL0     H 5506   3.263  11.026  11.947 -0.9445 -0.0654 -1.0566
   41MOL0     H 5507   3.161  10.972  11.668 -3.3128  2.0174 -1.3229
   41MOL0     H 5508   3.091  10.894  11.815 -3.3033  0.9399  0.9341
   41MOL0     H 5509   3.047  11.127  11.919  0.3033 -3.0129  0.7267
   41MOL0     H 5510   2.943  11.092  11.789 -0.0190 -0.8836  2.7940
   41MOL0     H 5511   3.036  11.311  11.787  1.1262 -0.0485  0.3060
   41MOL0     H 5512   3.207  11.258  11.779  1.6881 -2.1188 -1.7331
   41MOL0     H 5513   3.182  11.213  11.556  0.5120  0.3266  0.4122
   41MOL0     H 5514   3.108  11.366  11.582  2.4490  0.2284 -0.2018
   41MOL0     H 5515   2.889  11.289  11.556 -0.2333  2.8133 -4.2867
   41MOL0     H 5516   2.956  11.122  11.551  2.8588 -1.1866 -0.2664
   41MOL0     H 5517   3.625  10.461  11.813 -0.8237  0.5483  1.3246
   41MOL0     H 5518   3.841  10.401  11.790 -2.2838 -0.5778 -1.7259
   41MOL0     H 5519   4.251  10.460  11.813 -0.5856 -1.0377 -0.6562
   41MOL0     H 5520   4.481  10.393  11.819 -0.6740 -0.4122 -0.2444
   41MOL0     H 5521   5.887  10.916  10.237 -0.2373 -0.1263  2.1189
   41MOL0     H 5522   6.025  10.808  10.044  1.0921 -1.4102 -0.1996
   41MOL0     H 5523   6.280  10.449   9.852 -0.2565  1.7337 -0.5359
   41MOL0     H 5524   6.433  10.463   9.677  1.3197 -3.7805  0.6319
   41MOL0     H 5525   6.632  10.468   9.560  0.2683  0.5380 -0.4956
   41MOL0     H 5526   6.582  10.645   9.544 -0.5761 -1.0043 -0.0523
   41MOL0     H 5527   6.770  10.721   9.473 -0.1843 -0.2020  1.9574
   41MOL0     H 5528   6.773  10.566   9.384  0.0542 -0.4164 -0.3976
   41MOL0     H 5529   6.901  10.506   9.636 -3.6254  2.3598  1.6399
   41MOL0     H 5530   6.930  10.671   9.612  0.1886 -1.1159  3.0669
   41MOL0     H 5531   7.001  10.447   9.417  1.1947 -0.3611  2.2004
   41MOL0     H 5532   7.119  10.548   9.513 -0.4434  0.2665  2.7611
   41MOL0     H 5533   7.065  10.783   9.169  1.4599 -1.3247 -1.1331
   41MOL0     H 5534   6.682  10.692   9.945  1.0949 -1.6694  0.4739
   41MOL0     H 5535   6.510  10.706  10.104 -0.4152  0.1414 -0.4122
   42MOL0     O 5536   6.718   6.827   4.231 -0.5554  0.1239 -0.0876
   42MOL0     C 5537   6.753   6.806   4.119  0.0079  0.3560  1.3231
   42MOL0     O 5538   6.888   6.770   4.088  0.1829  0.9223 -0.1528
   42MOL0     C 5539   6.949   6.698   4.187  0.2524  0.2285 -0.3513
   42MOL0     C 5540   6.882   6.587   4.253  0.5009 -0.3423  0.8279
   42MOL0     C 5541   6.938   6.522   4.356 -0.0187 -0.4788 -0.1092
   42MOL0     C 5542   7.066   6.554   4.398  0.0439  0.3157  0.0914
   42MOL0     O 5543   7.111   6.488   4.506 -0.3779  1.0968 -0.5825
   42MOL0     C 5544   7.205   6.546   4.594  0.3314  0.5057 -0.1633
   42MOL0     C 5545   7.302   6.441   4.647 -0.2983  0.5507  0.1412
   42MOL0     C 5546   7.418   6.395   4.557  0.2515  0.8382 -0.5464
   42MOL0     C 5547   7.479   6.511   4.469 -0.0138  0.0412 -0.0376
   42MOL0     C 5548   7.574   6.461   4.362 -0.0917  0.0616 -0.1892
   42MOL0     C 5549   7.651   6.572   4.285  0.0051 -0.4285  0.0522
   42MOL0     C 5550   7.748   6.659   4.379  0.3545  0.6008  1.2618
   42MOL0     C 5551   7.838   6.567   4.468  0.4543  0.2765 -0.5211
   42MOL0     N 5552   7.971   6.631   4.500  0.0703 -0.1769 -0.4017
   42MOL0     C 5553   8.099   6.617   4.449  0.4332 -0.7111  1.2806
   42MOL0     C 5554   8.184   6.683   4.536 -0.2936 -0.6943  0.2776
   42MOL0     C 5555   8.338   6.688   4.524  0.6221  0.1125  0.3126
   42MOL0     C 5556   8.398   6.563   4.455 -0.7471 -1.0254 -0.0705
   42MOL0     C 5557   8.552   6.572   4.464  0.0764  0.0906 -0.3807
   42MOL0     C 5558   8.615   6.435   4.419 -0.5162  0.2041  0.3603
   42MOL0     O 5559   8.566   6.336   4.507 -0.8580  0.4457 -0.1515
   42MOL0     C 5560   8.643   6.228   4.543  0.6804 -0.1068 -0.0146
   42MOL0     C 5561   8.605   6.095   4.521  0.3381 -0.4180 -0.1707
   42MOL0     C 5562   8.703   5.995   4.532 -0.1682  0.8120 -0.1022
   42MOL0     C 5563   8.642   5.866   4.488 -0.1975  0.3792 -0.3064
   42MOL0     C 5564   8.826   6.031   4.600 -0.4663  0.4939  1.1919
   42MOL0     C 5565   8.915   5.928   4.639 -0.2510 -0.6770 -0.7998
   42MOL0     O 5566   8.872   5.827   4.713  0.1376  0.6279  0.0475
   42MOL0     C 5567   8.969   5.740   4.756  0.3275  0.3771 -0.4698
   42MOL0     C 5568   9.080   5.777   4.847  0.3132 -0.1910  0.0964
   42MOL0     C 5569   9.190   5.694   4.865  0.2920  0.2607  0.6742
   42MOL0     C 5570   9.197   5.565   4.812  1.1043 -0.3941  0.1988
   42MOL0     O 5571   9.299   5.479   4.826  0.2752 -0.1295  0.0035
   42MOL0     C 5572   9.428   5.530   4.862  0.8670 -0.0297 -0.2821
   42MOL0     C 5573   9.527   5.421   4.890  0.7639  0.5373 -0.1482
   42MOL0     C 5574   9.649   5.458   4.958  0.5520 -0.1436 -0.8286
   42MOL0     C 5575   9.756   5.336   4.943 -0.4412  0.4806 -0.7089
   42MOL0     C 5576   9.877   5.346   5.036 -0.5504  0.0905 -0.5928
   42MOL0     C 5577   9.943   5.488   5.045  0.3879  0.7782  0.7728
   42MOL0     C 5578  10.048   5.493   5.153 -1.6956  0.9516  1.1805
   42MOL0     C 5579  10.184   5.425   5.117  0.4581  0.2819  0.5131
   42MOL0    Cl 5580  10.275   5.503   4.975  0.3416  0.1973  0.3444
   42MOL0     C 5581   9.077   5.522   4.739 -0.0358 -0.3023  0.1195
   42MOL0     C 5582   8.969   5.609   4.713 -0.9610 -0.6815  0.0736
   42MOL0     O 5583   9.032   5.942   4.600  0.3068  0.8729 -0.5005
   42MOL0     C 5584   8.870   6.169   4.615  0.1799 -0.9379 -0.8007
   42MOL0     C 5585   8.773   6.269   4.591  0.2033 -0.1507  0.0293
   42MOL0     N 5586   8.103   6.737   4.637 -0.1100 -0.1043  0.3507
   42MOL0     N 5587   7.985   6.700   4.624  0.4720 -0.9014  0.7329
   42MOL0     C 5588   7.136   6.651   4.333 -0.4484 -0.4622  0.7711
   42MOL0     C 5589   7.081   6.721   4.218  0.0395  1.1089 -0.4737
   42MOL0     C 5590   6.685   6.855   3.999 -0.3090  0.5126 -0.1951
   42MOL0     C 5591   6.739   6.832   3.870  0.0327  0.6694 -0.4120
   42MOL0     C 5592   6.688   6.881   3.752  0.0450  0.0762  0.7776
   42MOL0     C 5593   6.564   6.947   3.761 -0.4206  1.1445 -0.1906
   42MOL0     O 5594   6.496   6.980   3.651  0.1708 -0.1152  0.6584
   42MOL0     C 5595   6.409   6.878   3.600  0.2381  0.8443 -0.5776
   42MOL0     C 5596   6.303   6.949   3.518 -0.0425 -0.2148 -0.0483
   42MOL0     C 5597   6.214   6.846   3.442  0.2168 -0.4263 -0.9841
   42MOL0     C 5598   6.093   6.918   3.376 -0.5011 -0.0771  0.1825
   42MOL0     C 5599   6.015   7.008   3.456 -0.4932  0.2133 -0.1238
   42MOL0     C 5600   5.928   7.041   3.533  0.8704 -0.0335 -0.8022
   42MOL0     C 5601   6.503   6.972   3.885  0.3754 -0.2952 -0.4869
   42MOL0     C 5602   6.569   6.927   3.999  0.2276 -0.2074  0.0505
   42MOL0     H 5603   6.781   6.554   4.231  0.8416  0.0901 -1.7424
   42MOL0     H 5604   6.888   6.443   4.412  0.5440 -2.8751 -2.7914
   42MOL0     H 5605   7.257   6.634   4.555  0.9844 -0.0467 -0.5676
   42MOL0     H 5606   7.148   6.577   4.682  2.0067  1.9009  0.4816
   42MOL0     H 5607   7.343   6.464   4.746 -1.1884  1.5630  0.2901
   42MOL0     H 5608   7.245   6.349   4.661  0.6810 -0.1287 -0.1766
   42MOL0     H 5609   7.493   6.347   4.621 -2.2596 -2.3162  0.3139
   42MOL0     H 5610   7.387   6.312   4.493 -0.6871 -0.6947  1.7235
   42MOL0     H 5611   7.404   6.575   4.422  1.1200  1.0352 -0.5555
   42MOL0     H 5612   7.532   6.582   4.532 -0.6219  2.4339 -2.0477
   42MOL0     H 5613   7.638   6.384   4.405  0.8996  0.8327 -0.2318
   42MOL0     H 5614   7.512   6.408   4.290  1.2349 -1.3853 -0.3217
   42MOL0     H 5615   7.712   6.521   4.210 -1.7892 -2.7592  0.0485
   42MOL0     H 5616   7.582   6.646   4.243 -4.4252 -2.1478  3.3717
   42MOL0     H 5617   7.817   6.719   4.319  1.1244 -1.7758 -0.3763
   42MOL0     H 5618   7.693   6.725   4.446  1.9975  1.5878  1.6871
   42MOL0     H 5619   7.845   6.475   4.410 -1.4787 -0.6196  0.5660
   42MOL0     H 5620   7.773   6.547   4.554 -1.0423 -2.1524 -2.1087
   42MOL0     H 5621   8.119   6.564   4.356 -0.3839 -2.9067  2.2896
   42MOL0     H 5622   8.360   6.780   4.470  2.5092 -0.9402 -0.8203
   42MOL0     H 5623   8.377   6.700   4.626  3.5198 -2.9122 -0.2348
   42MOL0     H 5624   8.372   6.581   4.351  0.3061 -0.4518 -0.2493
   42MOL0     H 5625   8.361   6.468   4.494 -2.9938  0.3050  1.3264
   42MOL0     H 5626   8.583   6.580   4.569  1.1016  2.1035 -0.7976
   42MOL0     H 5627   8.588   6.656   4.404 -1.8458  0.8416 -0.5761
   42MOL0     H 5628   8.725   6.439   4.412 -0.5592  0.4594 -0.2342
   42MOL0     H 5629   8.577   6.419   4.318 -0.7792  0.4160  0.4243
   42MOL0     H 5630   8.508   6.077   4.476  1.3745  0.8920 -3.1105
   42MOL0     H 5631   8.533   5.870   4.480 -0.1370  0.0306 -1.3547
   42MOL0     H 5632   8.682   5.847   4.388  0.1344 -2.0884  0.2380
   42MOL0     H 5633   8.676   5.782   4.550  0.1031  0.5876 -0.1851
   42MOL0     H 5634   9.080   5.877   4.891  1.0094  1.2165 -2.8813
   42MOL0     H 5635   9.275   5.733   4.920 -1.5567  3.9204  1.2646
   42MOL0     H 5636   9.469   5.600   4.789 -0.4781  1.9742  0.8008
   42MOL0     H 5637   9.417   5.592   4.952  0.0500  0.6720 -0.8460
   42MOL0     H 5638   9.474   5.365   4.968 -0.0354  2.6591  0.9207
   42MOL0     H 5639   9.535   5.343   4.814  0.2993 -1.4748  1.7385
   42MOL0     H 5640   9.644   5.487   5.063 -0.6668  1.6432 -1.3409
   42MOL0     H 5641   9.688   5.544   4.903  0.7619  1.9558  2.3331
   42MOL0     H 5642   9.715   5.241   4.978  0.9537  0.2971  0.5530
   42MOL0     H 5643   9.794   5.323   4.841  1.0310 -1.2986  0.0006
   42MOL0     H 5644   9.956   5.283   4.995 -1.2455 -0.1302 -1.6303
   42MOL0     H 5645   9.853   5.325   5.141  2.0489 -0.4640 -0.0403
   42MOL0     H 5646   9.970   5.527   4.946 -0.1217 -0.0732  0.2898
   42MOL0     H 5647   9.868   5.556   5.085  0.4640 -0.4189  3.1346
   42MOL0     H 5648  10.015   5.452   5.249 -0.9360 -2.7545  0.0526
   42MOL0     H 5649  10.065   5.600   5.159  0.0461  0.8496 -0.7114
   42MOL0     H 5650  10.160   5.323   5.087 -2.2111  0.2495  2.3778
   42MOL0     H 5651  10.245   5.439   5.207 -2.7115  0.6930  2.7962
   42MOL0     H 5652   9.069   5.425   4.692  0.8448 -1.2170  1.8162
   42MOL0     H 5653   8.882   5.587   4.652 -0.8841 -2.6376  0.6108
   42MOL0     H 5654   8.961   6.204   4.662 -0.5282  1.4130 -1.0485
   42MOL0     H 5655   8.792   6.373   4.615 -3.4409  0.8798 -0.8851
   42MOL0     H 5656   7.242   6.672   4.333 -0.7840  1.4147  0.6923
   42MOL0     H 5657   7.124   6.794   4.149  1.2145  1.3733  0.5132
   42MOL0     H 5658   6.830   6.773   3.865  0.1562  0.8391 -0.1588
   42MOL0     H 5659   6.723   6.865   3.651  1.2949 -0.1468  1.2237
   42MOL0     H 5660   6.471   6.826   3.527 -0.3207  0.0250 -0.4782
   42MOL0     H 5661   6.373   6.804   3.672  1.7525  0.7637  0.1413
   42MOL0     H 5662   6.357   7.018   3.452  0.7375 -0.2760  0.5058
   42MOL0     H 5663   6.246   7.013   3.586  0.0251  1.4734 -1.5004
   42MOL0     H 5664   6.177   6.766   3.507 -1.5985 -0.9418 -2.5654
   42MOL0     H 5665   6.281   6.805   3.365  0.3309  0.3580 -1.3192
   42MOL0     H 5666   6.032   6.840   3.330 -0.8305  0.1544  0.2234
   42MOL0     H 5667   6.141   6.992   3.310  0.0078 -2.3651 -2.1834
   42MOL0     H 5668   5.840   7.078   3.582  1.2229  2.1909 -1.7275
   42MOL0     H 5669   6.405   7.020   3.880  0.9694  0.9690 -0.3266
   42MOL0     H 5670   6.524   6.949   4.095 -3.8481  0.2702 -1.7675
   43MOL0     O 5671   1.798  10.946   0.627  0.3576  0.3971  0.1703
   43MOL0     C 5672   1.796  10.964   0.509 -0.2309 -0.6327 -0.0478
   43MOL0     O 5673   1.740  10.880   0.414 -1.0114 -0.4485  0.2816
   43MOL0     C 5674   1.629  10.809   0.446 -1.6993 -0.3609  0.7211
   43MOL0     C 5675   1.589  10.718   0.349  0.1878 -0.4641 -0.4580
   43MOL0     C 5676   1.478  10.625   0.376 -0.3477 -0.3892 -0.2645
   43MOL0     C 5677   1.399  10.651   0.492  0.0831 -1.5360  0.6423
   43MOL0     O 5678   1.287  10.581   0.525  0.2804 -0.2727  0.0166
   43MOL0     C 5679   1.206  10.515   0.433 -0.5148 -0.4555  0.2769
   43MOL0     C 5680   1.103  10.419   0.496 -1.1683  0.3819  0.2978
   43MOL0     C 5681   1.022  10.486   0.595  0.1445  0.4901  0.2444
   43MOL0     C 5682   0.895  10.406   0.619  0.1621  0.4644 -0.2459
   43MOL0     C 5683   0.778  10.455   0.539 -0.4648  0.4845 -1.2965
   43MOL0     C 5684   0.651  10.391   0.585  0.1932  0.7001 -0.1217
   43MOL0     C 5685   0.537  10.421   0.482  0.2820  0.1991  0.0114
   43MOL0     C 5686   0.397  10.407   0.562 -0.3794  0.5455  1.2945
   43MOL0     N 5687   0.373  10.269   0.620  0.5813 -1.1644 -0.6240
   43MOL0     C 5688   0.423  10.145   0.581 -0.2165 -0.3544  0.1107
   43MOL0     C 5689   0.360  10.057   0.654  0.0040  0.6205  0.2309
   43MOL0     C 5690   0.361   9.908   0.620 -0.6331  0.0330 -0.1169
   43MOL0     C 5691   0.470   9.849   0.709 -0.3994  0.5821  0.0255
   43MOL0     C 5692   0.455   9.707   0.679 -0.9608 -0.6098 -0.0791
   43MOL0     C 5693   0.540   9.618   0.764  0.1236 -0.1699  0.6222
   43MOL0     O 5694   0.550   9.478   0.717 -0.0547 -0.1256 -0.2589
   43MOL0     C 5695   0.444   9.397   0.723  0.7297  0.9050  1.1167
   43MOL0     C 5696   0.338   9.399   0.820  0.6238  0.1117  1.2224
   43MOL0     C 5697   0.231   9.310   0.816  0.2581  0.1602 -1.1732
   43MOL0     C 5698   0.132   9.330   0.925  1.1973  0.1943  0.1578
   43MOL0     C 5699   0.238   9.208   0.721 -0.3832 -0.6533  0.2739
   43MOL0     C 5700   0.149   9.095   0.719 -0.9960  0.3565 -0.1030
   43MOL0     O 5701   0.063   9.060   0.616  0.0811  0.1847  0.9387
   43MOL0     C 5702   0.069   9.135   0.500 -0.4271  0.3652  0.2549
   43MOL0     C 5703   0.019   9.268   0.490 -0.8635  0.1471  0.2944
   43MOL0     C 5704   0.009   9.335   0.363 -0.5785  0.2876 -0.7346
   43MOL0     C 5705   0.052   9.266   0.246  0.6394  0.8185 -0.7361
   43MOL0     O 5706   0.039   9.313   0.117 -0.1624  0.0994 -1.2240
   43MOL0     C 5707   0.044   9.235   0.001 -0.0962  1.5190 -0.3280
   43MOL0     C 5708   0.016   9.328  -0.114  0.2608  0.6346 -0.3846
   43MOL0     C 5709  -0.012   9.247  -0.242 -0.3981 -0.1751 -0.6839
   43MOL0     C 5710  -0.151   9.199  -0.255  0.1027 -0.1228 -0.0078
   43MOL0     C 5711  -0.175   9.110  -0.378  0.3095  0.5927 -0.0647
   43MOL0     C 5712  -0.157   9.177  -0.513  0.0907 -0.3641  0.5626
   43MOL0     C 5713  -0.175   9.071  -0.621  0.8958 -0.2273  0.2569
   43MOL0     C 5714  -0.143   9.123  -0.758 -0.4963  0.2716 -0.0554
   43MOL0    Cl 5715  -0.276   9.231  -0.803  0.2879  0.0523  0.0987
   43MOL0     C 5716   0.101   9.137   0.269  0.3805  0.7595 -0.4537
   43MOL0     C 5717   0.109   9.074   0.388 -0.5135 -0.4336 -0.2538
   43MOL0     O 5718   0.164   9.033   0.823 -0.5132  0.2259  0.3117
   43MOL0     C 5719   0.349   9.202   0.627 -0.1314 -0.2545 -0.1729
   43MOL0     C 5720   0.443   9.300   0.628  0.1844  0.3113  0.8411
   43MOL0     N 5721   0.278  10.122   0.750 -0.1927 -0.4933  1.8516
   43MOL0     N 5722   0.287  10.252   0.722  0.5962 -0.3680  0.1247
   43MOL0     C 5723   1.447  10.747   0.585  0.3738 -0.0034  0.3330
   43MOL0     C 5724   1.558  10.818   0.558  0.1846  1.0272 -0.5397
   43MOL0     C 5725   1.863  11.087   0.469 -0.5183  0.2278  0.0462
   43MOL0     C 5726   1.868  11.122   0.332 -0.0882  0.2669  0.8080
   43MOL0     C 5727   1.936  11.237   0.292 -0.3235 -0.5726  0.9300
   43MOL0     C 5728   2.006  11.320   0.384  0.1942  0.3110  1.5128
   43MOL0     O 5729   2.069  11.432   0.343 -0.1376  0.5593 -0.5140
   43MOL0     C 5730   2.163  11.433   0.240 -0.4936 -0.5397 -0.5525
   43MOL0     C 5731   2.293  11.370   0.287 -0.0225  0.1113  0.7218
   43MOL0     C 5732   2.349  11.429   0.423  0.1607 -0.0455  0.0122
   43MOL0     C 5733   2.396  11.581   0.426 -0.8690  0.5067 -0.0263
   43MOL0     C 5734   2.500  11.596   0.321  0.2119  0.0837 -0.6998
   43MOL0     C 5735   2.580  11.607   0.231  0.7769 -0.8630  0.2070
   43MOL0     C 5736   2.017  11.276   0.512  0.4378  0.1044  0.8891
   43MOL0     C 5737   1.950  11.159   0.549 -0.0559  0.5152 -0.0171
   43MOL0     H 5738   1.643  10.710   0.255 -2.9635  3.6348 -2.9664
   43MOL0     H 5739   1.451  10.548   0.303  1.8526  0.7526 -2.4558
   43MOL0     H 5740   1.149  10.599   0.390  1.3908 -0.7107 -3.0029
   43MOL0     H 5741   1.266  10.474   0.352  2.2029  1.5907  1.1189
   43MOL0     H 5742   1.039  10.375   0.419 -2.5013  0.8692  1.0985
   43MOL0     H 5743   1.175  10.347   0.536  0.8635  2.2225  0.1097
   43MOL0     H 5744   1.078  10.490   0.689  3.7191 -2.6845 -1.4581
   43MOL0     H 5745   0.995  10.587   0.566  0.3699  0.7920  1.0646
   43MOL0     H 5746   0.917  10.299   0.619 -0.7539  0.2508  0.9947
   43MOL0     H 5747   0.867  10.428   0.723  1.0972 -0.5348  0.2472
   43MOL0     H 5748   0.774  10.562   0.563 -0.1253  0.2607 -0.2297
   43MOL0     H 5749   0.786  10.439   0.431  1.2596 -0.0951 -1.1057
   43MOL0     H 5750   0.669  10.283   0.588  1.8062  0.8886 -1.6108
   43MOL0     H 5751   0.620  10.428   0.683 -0.2427  0.7482 -0.2728
   43MOL0     H 5752   0.546  10.523   0.443  0.2188  0.0263 -0.4541
   43MOL0     H 5753   0.539  10.356   0.394 -0.3846  0.2277 -0.0324
   43MOL0     H 5754   0.317  10.412   0.488  1.2009  0.7953 -0.4715
   43MOL0     H 5755   0.396  10.484   0.640  2.1770  1.3769  0.6336
   43MOL0     H 5756   0.495  10.109   0.508 -0.3402 -0.6756  0.1435
   43MOL0     H 5757   0.264   9.870   0.652 -1.0384 -0.2548 -1.6302
   43MOL0     H 5758   0.368   9.888   0.513 -0.7277  0.8296 -0.2802
   43MOL0     H 5759   0.447   9.874   0.813 -0.7685  0.8172 -0.1113
   43MOL0     H 5760   0.574   9.879   0.693  0.7502 -2.0099  1.9043
   43MOL0     H 5761   0.494   9.683   0.579 -0.5831 -0.2884 -0.0093
   43MOL0     H 5762   0.349   9.682   0.687 -1.1939 -1.1528 -3.2933
   43MOL0     H 5763   0.502   9.615   0.867  0.7289 -2.3737  0.8454
   43MOL0     H 5764   0.640   9.660   0.754  1.3756 -2.5753  2.0757
   43MOL0     H 5765   0.349   9.469   0.903  0.7973  0.6619  0.7388
   43MOL0     H 5766   0.037   9.302   0.879  1.3249  0.4885 -0.2878
   43MOL0     H 5767   0.170   9.274   1.011  1.9963 -0.2282 -0.4509
   43MOL0     H 5768   0.119   9.435   0.955  1.7981  0.2191  0.3513
   43MOL0     H 5769  -0.032   9.306   0.578 -0.4370 -0.8009  0.9733
   43MOL0     H 5770  -0.041   9.431   0.366 -0.0637  0.5241  1.3331
   43MOL0     H 5771   0.143   9.191  -0.016  0.7473  3.3018 -0.3851
   43MOL0     H 5772  -0.023   9.149   0.007  2.5636 -0.7345 -0.8177
   43MOL0     H 5773  -0.067   9.393  -0.085  0.5057 -0.0327  1.9767
   43MOL0     H 5774   0.104   9.390  -0.133  0.5683  0.5130  0.5963
   43MOL0     H 5775   0.057   9.162  -0.243  0.1967  0.2912 -0.2779
   43MOL0     H 5776   0.030   9.315  -0.318 -1.9633  5.7413  3.0529
   43MOL0     H 5777  -0.187   9.137  -0.172 -0.9883 -1.9284 -1.7403
   43MOL0     H 5778  -0.217   9.286  -0.261  0.8667  0.3564 -3.5480
   43MOL0     H 5779  -0.271   9.059  -0.361  0.0197  1.0239 -0.3986
   43MOL0     H 5780  -0.102   9.029  -0.384  0.8763  1.1062 -0.1284
   43MOL0     H 5781  -0.239   9.249  -0.526  0.6218  0.0497 -0.5497
   43MOL0     H 5782  -0.059   9.224  -0.517  0.3029 -0.8869 -1.8292
   43MOL0     H 5783  -0.273   9.023  -0.616  1.1051 -0.5158  2.1577
   43MOL0     H 5784  -0.099   8.996  -0.602  0.4986 -1.2719 -1.9420
   43MOL0     H 5785  -0.129   9.045  -0.833  1.7427  0.4305  0.1150
   43MOL0     H 5786  -0.047   9.176  -0.755 -0.4490  0.2476 -0.8318
   43MOL0     H 5787   0.151   9.092   0.184  0.3484 -4.8383  2.0205
   43MOL0     H 5788   0.139   8.970   0.398 -1.0550 -0.8452 -2.4378
   43MOL0     H 5789   0.351   9.119   0.557 -1.0328  1.0260 -1.8006
   43MOL0     H 5790   0.518   9.320   0.552  1.0140  2.3158  2.0842
   43MOL0     H 5791   1.394  10.763   0.679 -0.4923 -2.4182  0.3181
   43MOL0     H 5792   1.590  10.880   0.642  2.8669 -0.8113 -0.0845
   43MOL0     H 5793   1.805  11.070   0.260 -0.1340  1.0302  0.2854
   43MOL0     H 5794   1.941  11.273   0.190  0.8027  0.6958  1.4013
   43MOL0     H 5795   2.125  11.383   0.150  0.6417 -2.8978  0.2144
   43MOL0     H 5796   2.191  11.537   0.222  0.1902 -0.3695  1.3040
   43MOL0     H 5797   2.369  11.390   0.211 -1.8905  0.9948 -1.0120
   43MOL0     H 5798   2.277  11.262   0.282 -0.9163  0.2923 -2.1332
   43MOL0     H 5799   2.434  11.364   0.447 -0.4903 -0.4649  1.2935
   43MOL0     H 5800   2.275  11.403   0.499  1.7584 -0.5015  1.4779
   43MOL0     H 5801   2.430  11.615   0.524 -1.5819 -0.3421  0.5219
   43MOL0     H 5802   2.307  11.641   0.406 -0.4519  0.9520 -0.5834
   43MOL0     H 5803   2.651  11.630   0.154  0.1497  3.0246  0.6199
   43MOL0     H 5804   2.084  11.339   0.570  0.6072  0.3021  0.4799
   43MOL0     H 5805   1.963  11.133   0.654 -1.0841 -3.5673 -0.7082
   44MOL0     O 5806   5.310   7.276   5.490  0.4279 -0.6116 -0.1369
   44MOL0     C 5807   5.337   7.241   5.372 -0.6048 -0.1772  0.5093
   44MOL0     O 5808   5.375   7.117   5.338 -0.2140 -0.0284  0.0412
   44MOL0     C 5809   5.354   7.017   5.429 -0.2886 -0.1734 -0.1228
   44MOL0     C 5810   5.456   6.982   5.515  0.3146  0.6654  0.1873
   44MOL0     C 5811   5.441   6.886   5.612  0.0920 -0.4580  0.5443
   44MOL0     C 5812   5.312   6.833   5.633 -0.0503  0.1916 -0.1526
   44MOL0     O 5813   5.285   6.725   5.710 -0.3133 -0.9101  0.2805
   44MOL0     C 5814   5.353   6.690   5.829  0.1720  1.1137 -0.5378
   44MOL0     C 5815   5.253   6.654   5.930  0.3816  0.1840 -0.9259
   44MOL0     C 5816   5.319   6.595   6.061 -0.3014  0.5224  0.4612
   44MOL0     C 5817   5.350   6.444   6.061  1.2880 -0.9475  0.0005
   44MOL0     C 5818   5.408   6.390   6.195 -0.0632  0.1686  0.0495
   44MOL0     C 5819   5.453   6.244   6.184 -0.4697 -0.1348 -0.7282
   44MOL0     C 5820   5.515   6.181   6.317 -0.6626  0.5430  0.7330
   44MOL0     C 5821   5.444   6.224   6.445  0.2769 -0.5125 -0.3517
   44MOL0     N 5822   5.296   6.212   6.434 -0.6340 -0.0497 -0.4437
   44MOL0     C 5823   5.203   6.294   6.507 -0.5615  0.0744  0.2975
   44MOL0     C 5824   5.088   6.226   6.489 -0.1669 -0.8379  1.0648
   44MOL0     C 5825   4.956   6.282   6.529 -0.7010 -0.4321  0.4746
   44MOL0     C 5826   4.935   6.435   6.519 -0.0223  0.2739 -0.0605
   44MOL0     C 5827   4.790   6.480   6.536 -0.1806  0.0576 -0.1133
   44MOL0     C 5828   4.700   6.439   6.430  0.9628  0.5010 -1.0062
   44MOL0     O 5829   4.578   6.444   6.493 -0.0759 -0.5031  0.7777
   44MOL0     C 5830   4.503   6.560   6.483  0.1372  0.9894 -1.4231
   44MOL0     C 5831   4.378   6.546   6.548  0.6240  0.0261 -0.0309
   44MOL0     C 5832   4.293   6.665   6.569 -0.0200 -0.3057  0.0118
   44MOL0     C 5833   4.167   6.631   6.644 -1.0114 -0.2472  0.7272
   44MOL0     C 5834   4.338   6.789   6.522  0.2268  0.9021 -0.1751
   44MOL0     C 5835   4.251   6.906   6.519 -0.1901  0.2794 -0.5664
   44MOL0     O 5836   4.313   7.028   6.514 -0.9434 -0.0029  0.2254
   44MOL0     C 5837   4.243   7.145   6.535 -0.4143 -0.5049 -0.2202
   44MOL0     C 5838   4.154   7.166   6.639  0.8680  0.2766  0.1976
   44MOL0     C 5839   4.074   7.271   6.661  0.2157  0.8964  0.1401
   44MOL0     C 5840   4.102   7.390   6.584  0.3236  0.0359  0.5954
   44MOL0     O 5841   4.032   7.502   6.613  0.4324 -0.0836  0.3086
   44MOL0     C 5842   4.051   7.617   6.536  0.8816 -0.2166  0.7147
   44MOL0     C 5843   3.990   7.631   6.401 -0.5459  0.5696 -0.3695
   44MOL0     C 5844   4.002   7.773   6.357 -0.1908  0.8924 -0.8297
   44MOL0     C 5845   3.940   7.796   6.222  0.6282 -0.1674 -0.5940
   44MOL0     C 5846   3.948   7.939   6.190  0.2386 -0.2077 -0.6200
   44MOL0     C 5847   3.903   7.968   6.045 -0.0913  0.3179 -0.2632
   44MOL0     C 5848   3.909   8.110   6.010  0.1352  0.4420  1.0301
   44MOL0     C 5849   3.815   8.120   5.889 -0.2171  0.2791 -0.2663
   44MOL0    Cl 5850   3.793   7.975   5.784 -0.2254 -0.1425 -0.1394
   44MOL0     C 5851   4.201   7.378   6.480 -0.0986 -0.0762 -0.1597
   44MOL0     C 5852   4.253   7.251   6.447 -0.2521  0.6784 -0.2180
   44MOL0     O 5853   4.130   6.883   6.499 -0.4927 -0.1587  0.9954
   44MOL0     C 5854   4.460   6.793   6.448  0.1844 -0.1421  0.3585
   44MOL0     C 5855   4.537   6.684   6.432  0.5464  0.4628 -0.0367
   44MOL0     N 5856   5.110   6.118   6.404 -0.2129  0.2374  0.0682
   44MOL0     N 5857   5.234   6.112   6.369  0.1530  0.2516  0.1846
   44MOL0     C 5858   5.203   6.876   5.550  0.0851 -1.2293  0.1725
   44MOL0     C 5859   5.228   6.969   5.447 -0.1972  0.6135 -0.4538
   44MOL0     C 5860   5.343   7.338   5.266  0.3936 -0.8719  1.1371
   44MOL0     C 5861   5.428   7.315   5.155 -0.9247  0.2908  0.3175
   44MOL0     C 5862   5.440   7.403   5.045 -0.2798 -0.1302 -1.0615
   44MOL0     C 5863   5.372   7.524   5.060  0.5746 -0.5746  0.3563
   44MOL0     O 5864   5.388   7.636   4.971  0.0563  0.9650 -0.0580
   44MOL0     C 5865   5.436   7.617   4.838  0.0433 -0.2707 -0.8928
   44MOL0     C 5866   5.357   7.707   4.743 -0.3290 -1.2001 -0.0404
   44MOL0     C 5867   5.423   7.833   4.699 -0.2021 -0.5889 -0.0268
   44MOL0     C 5868   5.547   7.812   4.609  0.1143 -0.1238  1.4278
   44MOL0     C 5869   5.595   7.947   4.562  0.9154  1.7480  0.2320
   44MOL0     C 5870   5.632   8.051   4.525  0.1131  0.0273  0.3859
   44MOL0     C 5871   5.280   7.552   5.160  0.7327 -0.2196 -0.8685
   44MOL0     C 5872   5.274   7.459   5.266 -0.9020 -0.2390 -0.0523
   44MOL0     H 5873   5.551   7.033   5.500  0.7239  0.4684  1.8343
   44MOL0     H 5874   5.531   6.844   5.656 -0.1036  0.3462  1.7598
   44MOL0     H 5875   5.420   6.606   5.811 -0.9298 -0.4682  2.1900
   44MOL0     H 5876   5.408   6.774   5.872 -0.2005  1.2035 -0.2313
   44MOL0     H 5877   5.184   6.735   5.952 -0.9258 -0.7765 -1.3512
   44MOL0     H 5878   5.210   6.570   5.874  1.9934 -1.4543  0.1653
   44MOL0     H 5879   5.407   6.652   6.093 -0.8882  2.2189 -0.8154
   44MOL0     H 5880   5.248   6.606   6.143 -1.9895  0.8256 -0.9858
   44MOL0     H 5881   5.261   6.384   6.039  1.5483 -0.8209 -1.5271
   44MOL0     H 5882   5.424   6.419   5.984  0.5415 -3.5419  0.0476
   44MOL0     H 5883   5.497   6.448   6.223  1.8742 -2.0774 -1.0481
   44MOL0     H 5884   5.341   6.410   6.279  0.5625  3.5480 -0.0834
   44MOL0     H 5885   5.370   6.176   6.162 -0.1649 -0.3659 -1.1839
   44MOL0     H 5886   5.519   6.238   6.097 -3.6045  1.8547 -3.4868
   44MOL0     H 5887   5.510   6.072   6.317  3.3422  0.2063  1.9144
   44MOL0     H 5888   5.616   6.221   6.329 -1.4941  2.3073  2.5733
   44MOL0     H 5889   5.482   6.320   6.482  2.0873 -1.0979 -0.5564
   44MOL0     H 5890   5.477   6.152   6.521  1.7693  1.3150  0.8339
   44MOL0     H 5891   5.217   6.392   6.551 -0.5325  0.4166 -0.4577
   44MOL0     H 5892   4.880   6.230   6.470 -1.0832  0.1007  0.4949
   44MOL0     H 5893   4.932   6.243   6.629 -0.0853  2.5211  1.8781
   44MOL0     H 5894   4.976   6.483   6.430  0.0894 -0.2396 -0.2835
   44MOL0     H 5895   4.997   6.475   6.600 -2.0568 -0.3663  1.9140
   44MOL0     H 5896   4.789   6.588   6.552 -2.1967  0.1151 -0.3989
   44MOL0     H 5897   4.763   6.427   6.628 -1.0407 -1.1418 -1.0227
   44MOL0     H 5898   4.720   6.343   6.383  0.1519 -0.6334  0.8396
   44MOL0     H 5899   4.700   6.502   6.341 -0.0891 -0.3181 -1.6132
   44MOL0     H 5900   4.338   6.447   6.571 -0.3010  0.0170 -1.5550
   44MOL0     H 5901   4.174   6.539   6.702  1.6268 -0.4531  0.2051
   44MOL0     H 5902   4.142   6.717   6.707 -1.1760 -0.3731  0.8352
   44MOL0     H 5903   4.089   6.610   6.569 -2.3974  3.9408  0.7382
   44MOL0     H 5904   4.148   7.080   6.706  2.9359 -1.3667 -1.5579
   44MOL0     H 5905   3.996   7.272   6.736  0.5683  2.8793  0.5454
   44MOL0     H 5906   4.006   7.697   6.595  0.9133 -1.0525  1.9218
   44MOL0     H 5907   4.157   7.641   6.535  0.9641 -0.4777 -1.2598
   44MOL0     H 5908   4.030   7.557   6.331 -3.3111 -0.2281 -1.2140
   44MOL0     H 5909   3.884   7.607   6.404 -0.6590  0.8872 -1.4066
   44MOL0     H 5910   4.106   7.802   6.339  0.1667  0.2374  0.0668
   44MOL0     H 5911   3.968   7.839   6.438  0.0255  0.6823 -0.5657
   44MOL0     H 5912   3.998   7.746   6.144  4.9380  1.3759  1.2710
   44MOL0     H 5913   3.843   7.747   6.216  1.2967 -1.4959 -0.8312
   44MOL0     H 5914   4.051   7.978   6.191  0.7701 -1.2395 -3.8718
   44MOL0     H 5915   3.872   7.979   6.258 -2.7849 -6.2308  0.2000
   44MOL0     H 5916   3.971   7.904   5.988  1.2209 -0.1762  1.7241
   44MOL0     H 5917   3.804   7.922   6.045 -0.3115  0.6148  2.2882
   44MOL0     H 5918   4.009   8.137   5.972  1.0262 -0.6722  2.4708
   44MOL0     H 5919   3.869   8.155   6.101 -3.8276 -0.6801  0.0330
   44MOL0     H 5920   3.863   8.189   5.819  1.1334  0.1803  0.5289
   44MOL0     H 5921   3.722   8.170   5.917 -0.5443 -0.0615 -0.7392
   44MOL0     H 5922   4.223   7.469   6.425 -1.2388  1.4759  1.8229
   44MOL0     H 5923   4.320   7.244   6.361  1.6323  0.3838  1.2051
   44MOL0     H 5924   4.486   6.893   6.415  1.4931 -0.2833  0.9007
   44MOL0     H 5925   4.630   6.693   6.376 -0.3962  0.0862 -1.7534
   44MOL0     H 5926   5.111   6.833   5.590  1.4075 -0.9238  4.0406
   44MOL0     H 5927   5.151   6.987   5.373  2.4917  0.3298 -3.5707
   44MOL0     H 5928   5.496   7.230   5.157  0.8065  1.6184  0.6635
   44MOL0     H 5929   5.502   7.365   4.965  1.5043  0.1682  0.1296
   44MOL0     H 5930   5.544   7.635   4.828 -0.1533  1.2555 -0.5153
   44MOL0     H 5931   5.423   7.512   4.809 -3.7656 -0.4461  0.8737
   44MOL0     H 5932   5.253   7.725   4.772  0.3805  0.8444  1.4704
   44MOL0     H 5933   5.345   7.655   4.647  0.3558 -0.0576 -0.7773
   44MOL0     H 5934   5.450   7.893   4.786 -0.9345 -1.4299  0.8139
   44MOL0     H 5935   5.345   7.895   4.655 -0.2452 -1.8089 -1.7945
   44MOL0     H 5936   5.518   7.754   4.521  1.0815  0.0459  0.9805
   44MOL0     H 5937   5.627   7.771   4.672  0.4339 -1.0717  0.4429
   44MOL0     H 5938   5.675   8.143   4.493 -2.8552  1.0970 -0.8489
   44MOL0     H 5939   5.214   7.638   5.162 -0.9567 -1.4721  0.9902
   44MOL0     H 5940   5.204   7.483   5.345 -0.5218  2.0058 -0.3378
   45MOL0     O 5941  10.497   6.217   3.346  0.1826 -0.8891  0.1667
   45MOL0     C 5942  10.386   6.178   3.374 -0.0170  1.2809 -0.9861
   45MOL0     O 5943  10.358   6.050   3.414 -0.9835 -0.1785  0.8492
   45MOL0     C 5944  10.451   5.965   3.482 -0.7100 -0.0449  0.2945
   45MOL0     C 5945  10.560   6.017   3.563 -0.1279  0.2660 -0.9821
   45MOL0     C 5946  10.655   5.930   3.617  1.4879  0.5514 -1.1650
   45MOL0     C 5947  10.641   5.793   3.613  0.5094  0.0004  0.6252
   45MOL0     O 5948  10.718   5.703   3.679 -0.0063 -0.1477  0.0479
   45MOL0     C 5949  10.858   5.718   3.674 -0.0986  0.5561 -0.2784
   45MOL0     C 5950  10.920   5.583   3.705 -0.0515  0.3168  0.4492
   45MOL0     C 5951  10.886   5.543   3.844  0.3333 -0.3954  0.6840
   45MOL0     C 5952  10.945   5.406   3.879  0.8097 -0.1800 -0.0924
   45MOL0     C 5953  10.898   5.361   4.021 -0.0034  0.0046  0.5622
   45MOL0     C 5954  10.744   5.380   4.049 -1.0686 -0.0239 -0.1820
   45MOL0     C 5955  10.693   5.307   4.176  0.4347 -0.2837 -0.4038
   45MOL0     C 5956  10.551   5.345   4.231  0.2037  0.2237 -0.0606
   45MOL0     N 5957  10.437   5.309   4.147 -0.3413 -0.7210  0.7008
   45MOL0     C 5958  10.386   5.376   4.031  0.5711 -0.2833 -0.3241
   45MOL0     C 5959  10.268   5.315   4.008  0.6185 -0.2738 -0.8471
   45MOL0     C 5960  10.158   5.356   3.911 -0.1789  0.0900 -0.5114
   45MOL0     C 5961  10.033   5.410   3.974 -0.1425  0.6445  0.5512
   45MOL0     C 5962  10.074   5.514   4.084 -1.1247  0.5126  0.6106
   45MOL0     C 5963   9.955   5.590   4.135 -0.3476  0.0366 -0.2723
   45MOL0     O 5964   9.903   5.662   4.024  0.2142  1.1070 -0.1017
   45MOL0     C 5965   9.845   5.783   4.033 -0.4216  0.0870  0.5160
   45MOL0     C 5966   9.870   5.885   4.124 -0.5148  0.7337 -0.0492
   45MOL0     C 5967   9.816   6.012   4.104  0.6592 -0.7249 -0.0483
   45MOL0     C 5968   9.858   6.127   4.203 -0.4535  0.5455 -0.9599
   45MOL0     C 5969   9.712   6.031   4.010  0.0741 -0.3243  0.1055
   45MOL0     C 5970   9.635   6.155   3.985  0.4661 -0.1397  0.1126
   45MOL0     O 5971   9.574   6.157   3.871  0.5876 -0.3260  0.4280
   45MOL0     C 5972   9.445   6.200   3.865 -0.1952 -0.4377  1.0077
   45MOL0     C 5973   9.423   6.341   3.835 -0.4444 -0.2867  0.7265
   45MOL0     C 5974   9.295   6.381   3.816 -0.3735  0.2060 -0.3417
   45MOL0     C 5975   9.182   6.300   3.832  0.2820  0.6859  0.1735
   45MOL0     O 5976   9.066   6.364   3.814  0.1824 -0.4054  0.3827
   45MOL0     C 5977   8.945   6.288   3.832  0.0499 -0.6155  0.1063
   45MOL0     C 5978   8.830   6.381   3.817 -0.2954  0.0671 -0.5338
   45MOL0     C 5979   8.821   6.483   3.935  0.3566 -0.3605  0.0041
   45MOL0     C 5980   8.719   6.590   3.889 -1.2540  0.1865  0.0112
   45MOL0     C 5981   8.688   6.691   4.001 -0.3594  0.3351 -0.0531
   45MOL0     C 5982   8.558   6.782   3.967  0.0632  1.1055  0.5521
   45MOL0     C 5983   8.521   6.870   4.082  0.7187 -0.2482 -1.4563
   45MOL0     C 5984   8.378   6.906   4.083  0.1321 -0.2947  0.4721
   45MOL0    Cl 5985   8.332   6.987   4.238  0.1707 -0.2351  0.6890
   45MOL0     C 5986   9.203   6.163   3.858  0.2335 -0.1539  0.6062
   45MOL0     C 5987   9.333   6.120   3.878  0.2310 -0.0066  0.3060
   45MOL0     O 5988   9.655   6.258   4.053  0.3931 -0.1482 -0.7502
   45MOL0     C 5989   9.684   5.923   3.917  0.0519 -1.1546 -0.7238
   45MOL0     C 5990   9.756   5.807   3.929  0.2188  0.3073  0.7062
   45MOL0     N 5991  10.236   5.220   4.108 -0.1683 -0.1625  0.2390
   45MOL0     N 5992  10.330   5.235   4.190  0.1601 -0.3899 -0.6098
   45MOL0     C 5993  10.532   5.742   3.534 -0.3939 -0.1584  0.1733
   45MOL0     C 5994  10.438   5.825   3.478 -0.0495 -0.3962 -0.1081
   45MOL0     C 5995  10.281   6.271   3.355 -0.6139  0.6748 -0.1872
   45MOL0     C 5996  10.307   6.407   3.371 -0.2032  0.4350  0.2813
   45MOL0     C 5997  10.196   6.494   3.368  0.1066  0.1262  0.6239
   45MOL0     C 5998  10.061   6.457   3.335  0.2878 -0.1792 -0.4369
   45MOL0     O 5999   9.948   6.532   3.332 -0.8990 -0.5430 -0.1240
   45MOL0     C 6000   9.965   6.654   3.410 -0.5173 -0.2327 -0.8844
   45MOL0     C 6001   9.833   6.692   3.477  0.8171  0.8104  0.3477
   45MOL0     C 6002   9.727   6.705   3.363 -0.4190 -0.7835  0.7404
   45MOL0     C 6003   9.600   6.770   3.406  1.6773 -0.2311 -0.0745
   45MOL0     C 6004   9.537   6.704   3.532  0.5161 -0.1567  0.7478
   45MOL0     C 6005   9.479   6.649   3.623 -0.0668  1.0177 -0.7073
   45MOL0     C 6006  10.043   6.325   3.311 -0.7694  1.2476 -0.9398
   45MOL0     C 6007  10.148   6.225   3.326  0.3303 -0.5661 -0.7954
   45MOL0     H 6008  10.572   6.119   3.595  1.4578 -0.6263  1.5530
   45MOL0     H 6009  10.729   5.978   3.680 -0.5922  1.3877  0.8157
   45MOL0     H 6010  10.879   5.742   3.570 -3.0140  1.9290 -0.6680
   45MOL0     H 6011  10.903   5.793   3.740  1.6678 -0.5574 -0.1592
   45MOL0     H 6012  10.874   5.511   3.636 -2.6374  0.5364  1.8139
   45MOL0     H 6013  11.028   5.590   3.695 -0.0404 -0.9692 -0.5846
   45MOL0     H 6014  10.917   5.618   3.917 -0.8290 -0.1142  0.9149
   45MOL0     H 6015  10.776   5.538   3.845  0.2511  1.0073  0.2685
   45MOL0     H 6016  10.903   5.332   3.811 -0.2272  1.3653 -1.2224
   45MOL0     H 6017  11.052   5.395   3.861  0.7271  1.1090 -1.6102
   45MOL0     H 6018  10.934   5.258   4.017 -0.3580 -0.1021 -0.0252
   45MOL0     H 6019  10.952   5.416   4.098  1.0016 -1.3182  0.8350
   45MOL0     H 6020  10.742   5.488   4.068  1.9237  0.4477 -1.8585
   45MOL0     H 6021  10.678   5.356   3.965 -2.6329  2.3503  0.2671
   45MOL0     H 6022  10.708   5.200   4.160  3.7861  0.0479 -0.1928
   45MOL0     H 6023  10.761   5.342   4.255  0.5353 -3.3637  1.0265
   45MOL0     H 6024  10.544   5.454   4.231  0.7770  0.2821 -1.6003
   45MOL0     H 6025  10.532   5.286   4.321 -0.4493 -2.1251 -1.6240
   45MOL0     H 6026  10.433   5.450   3.967 -0.7228  1.0892  0.2671
   45MOL0     H 6027  10.202   5.421   3.835 -1.6915  2.6572  0.6837
   45MOL0     H 6028  10.120   5.269   3.857 -0.0776 -0.6105  0.5126
   45MOL0     H 6029   9.974   5.341   4.035  3.5999 -1.6062  1.9757
   45MOL0     H 6030   9.977   5.451   3.889 -1.9842  0.2599  1.5117
   45MOL0     H 6031  10.153   5.580   4.048  0.3138 -2.1986 -1.6569
   45MOL0     H 6032  10.107   5.459   4.172  1.5018 -1.0977 -1.2231
   45MOL0     H 6033   9.993   5.662   4.208  2.3531  1.5167 -2.9416
   45MOL0     H 6034   9.883   5.520   4.178 -1.3795  1.5714  0.5949
   45MOL0     H 6035   9.948   5.866   4.197  2.6588  3.6025 -2.3657
   45MOL0     H 6036   9.776   6.154   4.270  1.1581 -0.9529  1.7933
   45MOL0     H 6037   9.942   6.099   4.267 -1.7251  3.2474  2.2530
   45MOL0     H 6038   9.897   6.214   4.149 -0.1706 -0.0853 -1.7700
   45MOL0     H 6039   9.511   6.402   3.822  1.0643 -2.6494 -0.9781
   45MOL0     H 6040   9.285   6.485   3.787 -0.7294  0.7044  1.4135
   45MOL0     H 6041   8.938   6.222   3.746 -0.3440  1.1548 -1.2741
   45MOL0     H 6042   8.936   6.225   3.921 -0.3488  1.3273  1.5097
   45MOL0     H 6043   8.844   6.439   3.725  0.3838  1.8288  0.6420
   45MOL0     H 6044   8.735   6.326   3.819 -1.3667  1.7122 -2.5521
   45MOL0     H 6045   8.916   6.535   3.954 -1.5710  3.3598  0.3403
   45MOL0     H 6046   8.790   6.432   4.027 -0.7298 -0.3653 -0.3607
   45MOL0     H 6047   8.752   6.644   3.799  0.4612 -0.3050  0.3157
   45MOL0     H 6048   8.625   6.544   3.855 -1.5996  1.8972 -1.5376
   45MOL0     H 6049   8.765   6.760   4.036 -1.7750  1.5981  0.7082
   45MOL0     H 6050   8.660   6.627   4.086 -0.1113 -1.1647 -1.0488
   45MOL0     H 6051   8.568   6.853   3.884  0.3634  1.6126  1.0080
   45MOL0     H 6052   8.474   6.720   3.936  0.3476  2.2869 -3.0371
   45MOL0     H 6053   8.572   6.966   4.085 -0.7333  0.5882  3.0092
   45MOL0     H 6054   8.533   6.818   4.177 -3.4185  2.1872  0.7194
   45MOL0     H 6055   8.320   6.815   4.068 -0.2724  0.3900 -3.4315
   45MOL0     H 6056   8.358   6.974   3.999  0.6049  0.1663  0.7198
   45MOL0     H 6057   9.120   6.098   3.882  0.3647  0.3076  2.4808
   45MOL0     H 6058   9.343   6.013   3.892  0.4995 -0.3760 -2.2334
   45MOL0     H 6059   9.622   5.923   3.828  0.8394 -4.7932 -1.4542
   45MOL0     H 6060   9.742   5.736   3.848  0.8874  1.0069 -0.0491
   45MOL0     H 6061  10.503   5.638   3.532 -3.0324  0.5234 -2.0536
   45MOL0     H 6062  10.363   5.773   3.420  1.1020  0.1848 -2.2303
   45MOL0     H 6063  10.407   6.444   3.391  0.9174 -0.9314 -2.2368
   45MOL0     H 6064  10.222   6.599   3.374 -0.9115  0.3540  1.2255
   45MOL0     H 6065  10.031   6.634   3.496  0.3193 -0.4610 -1.5682
   45MOL0     H 6066  10.014   6.735   3.356 -1.5357  0.5355 -0.6726
   45MOL0     H 6067   9.853   6.782   3.537  1.6816  0.9363 -0.1283
   45MOL0     H 6068   9.801   6.605   3.536 -0.9027 -0.6418 -2.5246
   45MOL0     H 6069   9.701   6.614   3.307 -0.5289  1.4458 -3.2458
   45MOL0     H 6070   9.770   6.762   3.280  1.2011 -3.2256 -0.2080
   45MOL0     H 6071   9.530   6.791   3.324  2.0710  1.2497 -0.0481
   45MOL0     H 6072   9.616   6.874   3.433 -2.7330  0.3951  0.8844
   45MOL0     H 6073   9.459   6.584   3.706 -0.5661  2.5473  0.3960
   45MOL0     H 6074   9.948   6.272   3.305  0.3757 -1.8684  3.1821
   45MOL0     H 6075  10.116   6.122   3.315 -2.7754  0.3781 -1.5824
   46MOL0     O 6076   8.418   8.983   0.735 -0.6291  0.1583 -0.1114
   46MOL0     C 6077   8.401   8.955   0.614 -0.3288  0.7448  0.1047
   46MOL0     O 6078   8.326   9.022   0.516 -0.7012  0.5979 -0.2254
   46MOL0     C 6079   8.272   9.137   0.559  0.6908  0.7374 -1.0190
   46MOL0     C 6080   8.140   9.142   0.606  0.2589 -0.2357 -0.7387
   46MOL0     C 6081   8.081   9.257   0.653 -0.1252  0.4380  0.1874
   46MOL0     C 6082   8.153   9.376   0.645 -0.0656  1.0026 -0.0188
   46MOL0     O 6083   8.102   9.495   0.678  0.2665 -0.3961  0.3629
   46MOL0     C 6084   7.989   9.541   0.587 -0.6289 -0.4031 -0.0337
   46MOL0     C 6085   8.023   9.533   0.438  1.2265  0.0059  0.5433
   46MOL0     C 6086   8.125   9.644   0.409 -0.7890  0.5373  0.1224
   46MOL0     C 6087   8.198   9.616   0.272  0.1717  0.3915  0.2377
   46MOL0     C 6088   8.140   9.705   0.167  1.0836  0.8624 -0.3646
   46MOL0     C 6089   8.211   9.696   0.031  0.1094  0.1266 -0.2874
   46MOL0     C 6090   8.225   9.553  -0.025 -0.0206  0.3030 -0.6073
   46MOL0     C 6091   8.092   9.485  -0.094 -0.5199  0.2488 -0.0724
   46MOL0     N 6092   8.093   9.341  -0.128 -0.0553 -0.4251 -0.2646
   46MOL0     C 6093   8.046   9.278  -0.240 -1.1922 -0.5681  0.1607
   46MOL0     C 6094   8.074   9.147  -0.227  0.9615  0.1866  0.7697
   46MOL0     C 6095   8.026   9.035  -0.321  0.9029 -0.5583 -0.1033
   46MOL0     C 6096   7.871   9.012  -0.309 -0.1949  0.5833 -0.2000
   46MOL0     C 6097   7.826   8.978  -0.171 -0.2012 -0.3679  0.3128
   46MOL0     C 6098   7.679   8.957  -0.159  0.0978  0.2458  0.3646
   46MOL0     O 6099   7.595   9.075  -0.198 -1.0852  0.5547  0.2353
   46MOL0     C 6100   7.467   9.061  -0.222 -0.0829  0.4981  0.6578
   46MOL0     C 6101   7.396   8.939  -0.219  0.5191 -0.0603 -0.2158
   46MOL0     C 6102   7.253   8.923  -0.236 -0.0213 -0.3766 -0.3923
   46MOL0     C 6103   7.195   8.780  -0.245  0.7858 -0.6528 -0.0354
   46MOL0     C 6104   7.179   9.037  -0.282 -0.8795 -0.7629  0.0562
   46MOL0     C 6105   7.048   9.051  -0.338  0.3790  0.5944 -0.5599
   46MOL0     O 6106   6.988   8.952  -0.412 -0.5166  0.1060 -0.1229
   46MOL0     C 6107   6.876   8.973  -0.484 -0.1675 -0.5349 -0.6886
   46MOL0     C 6108   6.786   8.869  -0.490 -0.2832  0.9012  0.0820
   46MOL0     C 6109   6.674   8.882  -0.566  0.1736  0.0557  0.6775
   46MOL0     C 6110   6.634   9.002  -0.633  1.2158  1.0444  1.1054
   46MOL0     O 6111   6.527   9.023  -0.720 -0.0599 -0.1897 -0.3189
   46MOL0     C 6112   6.496   8.913  -0.796  0.0584  0.8148  0.4528
   46MOL0     C 6113   6.412   8.969  -0.922 -1.0425 -0.2474  0.6246
   46MOL0     C 6114   6.386   8.850  -1.010  0.0047 -0.7919  0.7548
   46MOL0     C 6115   6.250   8.850  -1.065 -0.2932 -0.3660 -0.4633
   46MOL0     C 6116   6.223   8.745  -1.174 -0.2640 -0.0295 -0.4763
   46MOL0     C 6117   6.070   8.736  -1.197  0.3345  0.2910 -0.7066
   46MOL0     C 6118   6.026   8.644  -1.309  0.5397 -0.0123 -0.2371
   46MOL0     C 6119   5.871   8.628  -1.312  0.2256 -0.2610  1.1983
   46MOL0    Cl 6120   5.825   8.481  -1.237 -0.2091  0.1643 -0.3814
   46MOL0     C 6121   6.723   9.109  -0.623  0.2507 -0.1226  0.6164
   46MOL0     C 6122   6.835   9.098  -0.542 -1.0495  1.0347  0.2447
   46MOL0     O 6123   6.995   9.155  -0.305  0.4926 -1.6924  0.2225
   46MOL0     C 6124   7.256   9.160  -0.276  0.3197  0.4438  0.6589
   46MOL0     C 6125   7.394   9.171  -0.253 -0.2195  0.3114 -0.1020
   46MOL0     N 6126   8.151   9.126  -0.112  1.1021 -0.3717  0.5618
   46MOL0     N 6127   8.159   9.247  -0.054  0.4590 -0.3394  0.5230
   46MOL0     C 6128   8.287   9.377   0.594 -0.2089 -0.7820  0.7954
   46MOL0     C 6129   8.352   9.255   0.555  0.4113  0.1001  0.4199
   46MOL0     C 6130   8.479   8.833   0.573  0.1060  0.3357 -0.0290
   46MOL0     C 6131   8.508   8.739   0.673 -0.5659  0.1438 -0.6629
   46MOL0     C 6132   8.580   8.633   0.637 -1.0014  0.0511 -0.0567
   46MOL0     C 6133   8.631   8.623   0.505 -0.8754 -0.6140 -0.1671
   46MOL0     O 6134   8.717   8.521   0.474 -0.4647  0.6660 -0.1060
   46MOL0     C 6135   8.842   8.560   0.417 -0.8791 -0.4702  0.4568
   46MOL0     C 6136   8.862   8.501   0.274 -0.1005 -1.0147 -0.6085
   46MOL0     C 6137   8.891   8.349   0.278  0.0442 -0.8540  0.0307
   46MOL0     C 6138   8.858   8.297   0.141 -0.4182 -0.3429  0.7028
   46MOL0     C 6139   8.707   8.298   0.147  0.0312  0.1208 -0.0492
   46MOL0     C 6140   8.582   8.291   0.155 -0.3907  0.1883 -0.3416
   46MOL0     C 6141   8.586   8.703   0.406  0.6287 -0.3602 -0.1208
   46MOL0     C 6142   8.507   8.809   0.436  0.1252  0.2863  0.1247
   46MOL0     H 6143   8.078   9.053   0.604 -1.4461  0.7765  1.8516
   46MOL0     H 6144   7.979   9.253   0.689 -0.4315  0.5489 -0.6438
   46MOL0     H 6145   7.903   9.482   0.620 -0.5909 -0.3016  0.2520
   46MOL0     H 6146   7.961   9.645   0.606 -2.2325 -1.3715  4.1123
   46MOL0     H 6147   8.061   9.434   0.410  0.6885 -0.2729  0.7875
   46MOL0     H 6148   7.930   9.545   0.382  0.5295  0.5228  1.7850
   46MOL0     H 6149   8.066   9.736   0.404  1.2512  2.0170  1.8396
   46MOL0     H 6150   8.201   9.629   0.485 -0.6984  0.4338  0.0130
   46MOL0     H 6151   8.305   9.636   0.283 -0.2337  3.2448 -0.3412
   46MOL0     H 6152   8.181   9.514   0.237  4.5944 -0.7259  0.7491
   46MOL0     H 6153   8.035   9.674   0.158 -0.5446  4.8804  2.0312
   46MOL0     H 6154   8.138   9.811   0.194  1.8756  0.7575  0.1336
   46MOL0     H 6155   8.163   9.761  -0.042 -1.4731 -1.5461 -0.8093
   46MOL0     H 6156   8.314   9.732   0.044  1.1138 -2.1121 -1.4955
   46MOL0     H 6157   8.304   9.565  -0.100 -0.6437 -1.9680 -1.7289
   46MOL0     H 6158   8.262   9.490   0.057  0.2686  1.0574 -0.1482
   46MOL0     H 6159   8.067   9.538  -0.186  0.0176  2.4871  0.9940
   46MOL0     H 6160   8.012   9.502  -0.021 -0.3064  2.2979 -0.2508
   46MOL0     H 6161   8.004   9.330  -0.325  1.5224  0.8035 -0.4472
   46MOL0     H 6162   8.044   9.049  -0.428  3.4874 -2.1908  0.0097
   46MOL0     H 6163   8.084   8.948  -0.287 -0.9243 -2.8710 -2.5150
   46MOL0     H 6164   7.844   8.929  -0.375 -2.0400  0.1051  1.0805
   46MOL0     H 6165   7.814   9.096  -0.351 -1.0893 -0.4349 -1.0777
   46MOL0     H 6166   7.842   9.059  -0.099 -3.0945 -0.4245  1.1518
   46MOL0     H 6167   7.892   8.897  -0.138 -0.1087  0.3680  2.0233
   46MOL0     H 6168   7.653   8.919  -0.060 -2.0359 -1.1081 -0.6329
   46MOL0     H 6169   7.647   8.881  -0.231  0.6913  0.7472 -0.4475
   46MOL0     H 6170   7.432   8.838  -0.199 -1.2263 -0.2248  2.7865
   46MOL0     H 6171   7.215   8.745  -0.347  2.3695  0.3526 -0.0967
   46MOL0     H 6172   7.249   8.710  -0.182  0.9950 -0.9952 -0.5886
   46MOL0     H 6173   7.087   8.767  -0.231  0.1212  1.8329 -1.9517
   46MOL0     H 6174   6.812   8.777  -0.438  2.5763  1.3489 -0.4057
   46MOL0     H 6175   6.616   8.792  -0.583  0.9275  0.1591 -3.1968
   46MOL0     H 6176   6.585   8.869  -0.842 -0.6864  0.4510 -0.7037
   46MOL0     H 6177   6.442   8.836  -0.739  1.5436  0.6673  1.7230
   46MOL0     H 6178   6.333   9.039  -0.892 -0.0726  1.0249  0.2751
   46MOL0     H 6179   6.479   9.038  -0.972 -2.0218  0.2099 -0.0976
   46MOL0     H 6180   6.409   8.759  -0.954 -1.1118 -1.8927 -0.4883
   46MOL0     H 6181   6.456   8.856  -1.094 -0.5115  0.2188  0.3843
   46MOL0     H 6182   6.178   8.828  -0.986 -0.1205 -0.9312 -0.4557
   46MOL0     H 6183   6.226   8.946  -1.112  2.7307 -0.0144 -1.5335
   46MOL0     H 6184   6.268   8.652  -1.138  0.5986  0.3979 -0.4286
   46MOL0     H 6185   6.273   8.759  -1.270 -2.0248 -0.7464 -1.5472
   46MOL0     H 6186   6.025   8.694  -1.106  0.7616 -2.1083 -1.5174
   46MOL0     H 6187   6.027   8.836  -1.198  0.9974  0.6538  1.6368
   46MOL0     H 6188   6.088   8.555  -1.305 -1.5994 -1.5676 -0.0779
   46MOL0     H 6189   6.061   8.689  -1.402  3.5127 -1.3206  0.1418
   46MOL0     H 6190   5.833   8.624  -1.414  1.4934  0.3954  0.6800
   46MOL0     H 6191   5.816   8.706  -1.258 -2.4289 -0.4457 -0.9963
   46MOL0     H 6192   6.712   9.206  -0.671  1.0148 -1.2636 -2.0278
   46MOL0     H 6193   6.912   9.174  -0.536 -0.0262 -0.0757  1.9515
   46MOL0     H 6194   7.218   9.261  -0.289  0.9689  0.9218  2.2560
   46MOL0     H 6195   7.432   9.272  -0.243 -3.2158  1.5688 -0.1652
   46MOL0     H 6196   8.333   9.475   0.606 -0.9874 -0.6827  4.0357
   46MOL0     H 6197   8.457   9.251   0.526  0.4780  0.7029  0.5590
   46MOL0     H 6198   8.469   8.752   0.773 -1.1210  0.0248 -0.8598
   46MOL0     H 6199   8.592   8.551   0.707 -1.4601  0.9564  1.1003
   46MOL0     H 6200   8.846   8.669   0.407  1.5707 -0.6926 -2.3757
   46MOL0     H 6201   8.924   8.527   0.481  1.3030  1.5469 -1.0955
   46MOL0     H 6202   8.946   8.549   0.224 -0.0661 -3.6481 -3.3110
   46MOL0     H 6203   8.769   8.531   0.224 -2.4951 -0.5433  3.6147
   46MOL0     H 6204   8.835   8.300   0.358  0.6030 -3.6790 -1.1834
   46MOL0     H 6205   8.994   8.316   0.295  0.4548 -2.1837 -4.0197
   46MOL0     H 6206   8.901   8.196   0.137  0.9135  0.2559 -1.9813
   46MOL0     H 6207   8.890   8.366   0.063 -0.2865  1.5085  2.3306
   46MOL0     H 6208   8.475   8.290   0.157 -0.3896 -1.5506  0.6540
   46MOL0     H 6209   8.618   8.698   0.303 -0.5631 -1.0781 -0.4868
   46MOL0     H 6210   8.460   8.870   0.359 -2.5038 -2.1039 -0.3127
   47MOL0     O 6211   9.129   0.072   1.709 -0.2791  0.5672 -0.0786
   47MOL0     C 6212   9.183   0.168   1.763  0.0529  0.4355  0.4815
   47MOL0     O 6213   9.226   0.182   1.891 -0.2760  0.5810 -0.9674
   47MOL0     C 6214   9.234   0.064   1.961 -0.0990 -0.1080 -1.2453
   47MOL0     C 6215   9.334  -0.030   1.936 -0.2552  0.0089  1.4297
   47MOL0     C 6216   9.343  -0.150   2.003 -0.2611  0.2536  0.8272
   47MOL0     C 6217   9.261  -0.172   2.115 -0.5400 -0.9123  0.0281
   47MOL0     O 6218   9.268  -0.281   2.194  0.1015  0.3730 -1.0594
   47MOL0     C 6219   9.402  -0.306   2.251  0.2757  0.3792  0.2318
   47MOL0     C 6220   9.407  -0.245   2.393 -0.7370 -0.2313  0.5329
   47MOL0     C 6221   9.318  -0.313   2.496 -0.0028 -0.1762 -0.2723
   47MOL0     C 6222   9.402  -0.410   2.576 -0.6900  0.0794 -0.4447
   47MOL0     C 6223   9.329  -0.467   2.697  0.4572  0.3032 -0.1727
   47MOL0     C 6224   9.181  -0.517   2.664  0.4759 -0.0899  0.7258
   47MOL0     C 6225   9.117  -0.581   2.784  0.3009 -0.3414  1.0709
   47MOL0     C 6226   8.969  -0.624   2.752 -0.8012 -0.3044 -0.2684
   47MOL0     N 6227   8.858  -0.579   2.845 -0.7824 -0.1823  0.1370
   47MOL0     C 6228   8.846  -0.610   2.985  0.1519 -0.3476  0.2702
   47MOL0     C 6229   8.747  -0.529   3.027  1.1190  0.5229 -0.8986
   47MOL0     C 6230   8.702  -0.515   3.175 -0.3553 -0.8585 -0.0282
   47MOL0     C 6231   8.591  -0.416   3.205  1.3516  0.4518 -0.2912
   47MOL0     C 6232   8.449  -0.493   3.234 -0.3556  0.4755 -0.0681
   47MOL0     C 6233   8.381  -0.543   3.099 -1.0357  0.4302 -0.5559
   47MOL0     O 6234   8.391  -0.449   2.990 -0.3067 -0.0350 -0.3173
   47MOL0     C 6235   8.281  -0.388   2.942  0.3099 -0.5724 -0.2618
   47MOL0     C 6236   8.157  -0.388   3.007 -0.1036 -0.5130 -0.5488
   47MOL0     C 6237   8.052  -0.320   2.957  0.6662 -0.1051 -0.8908
   47MOL0     C 6238   7.937  -0.307   3.056  0.1368  0.0011  0.0373
   47MOL0     C 6239   8.059  -0.270   2.829  0.7428 -0.0397  0.4586
   47MOL0     C 6240   7.940  -0.201   2.766  0.4124 -0.9229 -0.3642
   47MOL0     O 6241   7.836  -0.148   2.831 -0.2716  0.4249  0.1974
   47MOL0     C 6242   7.750  -0.062   2.768 -0.2008  0.6490 -0.8901
   47MOL0     C 6243   7.789   0.060   2.701 -0.6776  1.2289  0.6414
   47MOL0     C 6244   7.692   0.137   2.630 -0.3699  1.1820  0.0908
   47MOL0     C 6245   7.557   0.101   2.625  0.0482 -0.0110  0.8263
   47MOL0     O 6246   7.454   0.163   2.550 -0.8168  0.0302  0.2749
   47MOL0     C 6247   7.482   0.189   2.413  0.4060 -0.6392  0.1819
   47MOL0     C 6248   7.493   0.066   2.322  1.0459  0.4821  0.5386
   47MOL0     C 6249   7.350   0.022   2.295  0.0804  0.2676  0.6201
   47MOL0     C 6250   7.348  -0.108   2.216  0.1020 -0.8148 -0.1732
   47MOL0     C 6251   7.211  -0.170   2.213  0.3143 -0.1132 -0.1673
   47MOL0     C 6252   7.200  -0.282   2.115  0.1028 -0.0706 -0.2883
   47MOL0     C 6253   7.051  -0.333   2.106 -0.5578 -0.1624 -0.2687
   47MOL0     C 6254   7.020  -0.447   1.989 -0.2652 -0.7637  0.2646
   47MOL0    Cl 6255   7.140  -0.582   1.983  0.0893  0.4830 -0.2858
   47MOL0     C 6256   7.523  -0.026   2.679 -0.1497 -0.4994 -0.3344
   47MOL0     C 6257   7.615  -0.097   2.756 -0.0519  0.5841 -0.6739
   47MOL0     O 6258   7.934  -0.223   2.643 -0.5116  0.0777  0.1974
   47MOL0     C 6259   8.176  -0.288   2.757 -0.4282 -0.3090  0.1386
   47MOL0     C 6260   8.294  -0.343   2.819  0.4736 -0.0213 -0.7459
   47MOL0     N 6261   8.702  -0.446   2.929  0.6971 -0.4235  0.6061
   47MOL0     N 6262   8.761  -0.482   2.821  0.7516  0.8355 -0.1570
   47MOL0     C 6263   9.169  -0.076   2.152  0.2683 -0.1629  0.2497
   47MOL0     C 6264   9.156   0.041   2.070 -0.0377 -0.1797  0.5548
   47MOL0     C 6265   9.195   0.290   1.688  1.0766 -0.3998  0.6071
   47MOL0     C 6266   9.091   0.326   1.589  0.7370  0.0489  0.1520
   47MOL0     C 6267   9.102   0.457   1.531  0.4250  1.1566  0.1849
   47MOL0     C 6268   9.203   0.540   1.555  0.5463 -0.7043  0.2294
   47MOL0     O 6269   9.216   0.665   1.489  0.7494  0.2171  0.1923
   47MOL0     C 6270   9.306   0.665   1.376  0.6710  0.1958 -0.9857
   47MOL0     C 6271   9.364   0.806   1.357 -0.3058 -0.2090  0.2272
   47MOL0     C 6272   9.251   0.913   1.334  0.5439 -0.1757 -0.1251
   47MOL0     C 6273   9.180   0.884   1.199 -0.1493  0.6175  0.4348
   47MOL0     C 6274   9.088   0.990   1.180  0.4338 -0.4226  0.5847
   47MOL0     C 6275   9.006   1.086   1.171 -0.0863  0.6275  0.9120
   47MOL0     C 6276   9.299   0.504   1.640 -0.3548  0.5649  0.0675
   47MOL0     C 6277   9.300   0.381   1.702 -0.4083  0.8108  0.0785
   47MOL0     H 6278   9.402   0.011   1.862  1.1410 -0.6069  2.3278
   47MOL0     H 6279   9.416  -0.227   1.977 -0.7777  0.2574 -0.7422
   47MOL0     H 6280   9.412  -0.414   2.263  0.7393 -0.2332 -4.0868
   47MOL0     H 6281   9.485  -0.284   2.184  0.6861  1.0506  0.9432
   47MOL0     H 6282   9.510  -0.244   2.432 -0.0334 -0.8969 -1.1845
   47MOL0     H 6283   9.380  -0.142   2.371  0.4470 -0.0242 -0.0753
   47MOL0     H 6284   9.272  -0.235   2.558 -1.1615 -0.0788 -1.2111
   47MOL0     H 6285   9.234  -0.372   2.457 -0.0953 -0.3913  0.2343
   47MOL0     H 6286   9.431  -0.491   2.509  1.6167 -0.8474  1.5256
   47MOL0     H 6287   9.487  -0.346   2.602 -1.5596  1.4380 -0.8410
   47MOL0     H 6288   9.389  -0.549   2.737  0.0309  1.1636  2.4027
   47MOL0     H 6289   9.311  -0.395   2.777 -3.2157 -0.8780  0.2862
   47MOL0     H 6290   9.114  -0.435   2.640  0.1407 -0.1363  1.4864
   47MOL0     H 6291   9.190  -0.589   2.582 -0.2739 -0.5741  1.0587
   47MOL0     H 6292   9.185  -0.661   2.814  0.9310  1.0117  3.5553
   47MOL0     H 6293   9.111  -0.512   2.869  1.0852  0.2828  0.6346
   47MOL0     H 6294   8.977  -0.733   2.758  0.1891 -0.1667  1.6634
   47MOL0     H 6295   8.932  -0.603   2.651  0.1063 -2.9428 -1.2264
   47MOL0     H 6296   8.899  -0.688   3.039  2.0509 -0.9078 -2.2537
   47MOL0     H 6297   8.680  -0.615   3.215 -0.8509 -0.8536 -0.2774
   47MOL0     H 6298   8.785  -0.475   3.234 -0.2469  1.5397 -1.6549
   47MOL0     H 6299   8.568  -0.344   3.126 -2.2751  1.2174  1.2581
   47MOL0     H 6300   8.613  -0.367   3.301 -0.7825 -1.1811  1.1265
   47MOL0     H 6301   8.385  -0.419   3.283  1.4427  2.5175 -0.6530
   47MOL0     H 6302   8.469  -0.582   3.294 -0.6931  0.4239 -0.0284
   47MOL0     H 6303   8.278  -0.573   3.120 -0.5904 -0.6253  0.2182
   47MOL0     H 6304   8.436  -0.635   3.076  0.3956  1.2115 -0.3109
   47MOL0     H 6305   8.142  -0.431   3.105  1.0234 -3.3072 -1.4898
   47MOL0     H 6306   7.906  -0.207   3.087  2.2641  0.7141  0.0257
   47MOL0     H 6307   7.855  -0.346   2.995 -1.0152  2.7803 -0.3189
   47MOL0     H 6308   7.952  -0.360   3.150 -0.1896 -1.9605 -0.9753
   47MOL0     H 6309   7.896   0.081   2.700 -0.1954 -0.9673  1.1382
   47MOL0     H 6310   7.718   0.231   2.582 -1.8420  0.7299 -1.7154
   47MOL0     H 6311   7.413   0.265   2.378  1.5660  1.3808  2.0675
   47MOL0     H 6312   7.576   0.243   2.396  1.5065 -2.1906  1.0210
   47MOL0     H 6313   7.550   0.087   2.231 -0.0443 -0.2712 -0.3364
   47MOL0     H 6314   7.554  -0.009   2.373  0.1776  1.4275  3.1037
   47MOL0     H 6315   7.288   0.093   2.240 -3.7993 -1.2326  2.6673
   47MOL0     H 6316   7.295  -0.002   2.387  1.2030 -0.7424  1.0525
   47MOL0     H 6317   7.369  -0.083   2.112  0.7194  0.8371  0.3196
   47MOL0     H 6318   7.411  -0.185   2.263 -1.0488 -1.3418  0.5437
   47MOL0     H 6319   7.125  -0.107   2.190  1.3827  1.5892  0.2811
   47MOL0     H 6320   7.192  -0.214   2.311 -0.5120  2.1472  0.7449
   47MOL0     H 6321   7.225  -0.237   2.018  1.5451  0.2909  0.2253
   47MOL0     H 6322   7.279  -0.350   2.146  2.6550  4.0888  3.4037
   47MOL0     H 6323   6.981  -0.250   2.092 -1.9851 -1.2586  0.1959
   47MOL0     H 6324   7.031  -0.381   2.202 -1.1225 -0.1745 -0.3926
   47MOL0     H 6325   7.032  -0.395   1.894 -2.4359 -3.2006 -1.4688
   47MOL0     H 6326   6.917  -0.479   2.006 -1.0050  0.8781 -0.9823
   47MOL0     H 6327   7.431  -0.076   2.654  0.6214 -1.7318 -0.7726
   47MOL0     H 6328   7.585  -0.194   2.794 -0.7862  0.3673 -1.7692
   47MOL0     H 6329   8.180  -0.275   2.649  2.4457 -1.7989 -0.0354
   47MOL0     H 6330   8.392  -0.340   2.773  0.8441  1.2364  0.0657
   47MOL0     H 6331   9.103  -0.071   2.238  0.2203  1.9145  0.1570
   47MOL0     H 6332   9.084   0.114   2.105 -1.6776 -0.9956 -0.9741
   47MOL0     H 6333   9.000   0.272   1.565 -0.3549  1.0068  1.9059
   47MOL0     H 6334   9.018   0.481   1.467  1.0893  0.0481 -1.1646
   47MOL0     H 6335   9.384   0.591   1.395  0.2593 -0.4066 -1.5864
   47MOL0     H 6336   9.258   0.644   1.280 -1.5977  3.0295 -0.6087
   47MOL0     H 6337   9.444   0.802   1.283  0.2888  0.8785  0.7800
   47MOL0     H 6338   9.414   0.836   1.450  1.6848  0.8135 -1.1085
   47MOL0     H 6339   9.287   1.016   1.322 -0.7103  0.2604 -0.3036
   47MOL0     H 6340   9.180   0.918   1.417  0.1092  0.0262 -0.5033
   47MOL0     H 6341   9.113   0.798   1.194 -3.7182  3.2214 -1.8387
   47MOL0     H 6342   9.252   0.884   1.117  1.0627  2.9119  1.3909
   47MOL0     H 6343   8.963   1.181   1.148 -0.0601  0.5209  0.4149
   47MOL0     H 6344   9.389   0.560   1.664 -2.0948  2.7873  1.7386
   47MOL0     H 6345   9.373   0.354   1.779 -0.4835 -1.2256 -0.4963
   48MOL0     O 6346   1.040   6.743  10.383  0.1482  0.0547 -0.0541
   48MOL0     C 6347   1.085   6.745  10.503 -0.1344 -0.4252  0.3518
   48MOL0     O 6348   1.015   6.748  10.617 -0.4307  0.8893 -0.1873
   48MOL0     C 6349   0.879   6.743  10.617 -1.4201  0.4865 -0.6621
   48MOL0     C 6350   0.792   6.822  10.544 -0.4965 -0.3810  0.0580
   48MOL0     C 6351   0.647   6.822  10.576 -0.7282  0.2049 -0.1916
   48MOL0     C 6352   0.601   6.725  10.673 -0.5134  0.0965 -0.4634
   48MOL0     O 6353   0.474   6.688  10.697 -0.6487  0.2977 -0.3509
   48MOL0     C 6354   0.375   6.733  10.610  0.0154 -0.0087 -0.8653
   48MOL0     C 6355   0.241   6.681  10.661  0.4067 -0.3886  0.3580
   48MOL0     C 6356   0.132   6.719  10.556 -0.1005 -0.1645  0.3433
   48MOL0     C 6357   0.120   6.859  10.509 -1.3083  0.6066 -0.3436
   48MOL0     C 6358   0.103   6.966  10.615  0.4729 -0.0090  0.5885
   48MOL0     C 6359   0.043   7.098  10.562 -0.1316 -0.8221 -0.2319
   48MOL0     C 6360   0.034   7.198  10.683  0.2814  0.0953  0.6113
   48MOL0     C 6361  -0.047   7.330  10.655  0.0608  0.0621  0.0706
   48MOL0     N 6362  -0.006   7.435  10.753  0.6587 -0.7802  0.1154
   48MOL0     C 6363  -0.040   7.443  10.885  0.5876  0.8105  0.5766
   48MOL0     C 6364   0.017   7.556  10.936  0.5800  0.2564 -0.9400
   48MOL0     C 6365   0.036   7.601  11.080 -0.5082 -0.0243 -0.4168
   48MOL0     C 6366   0.163   7.521  11.143  0.4420 -1.0020 -0.3401
   48MOL0     C 6367   0.206   7.567  11.286 -1.3647 -0.2961  0.5501
   48MOL0     C 6368   0.115   7.515  11.396  0.0283 -0.2658  0.0600
   48MOL0     O 6369   0.009   7.608  11.400 -1.2549  0.2832 -0.5783
   48MOL0     C 6370  -0.081   7.597  11.501 -1.2861  0.3076 -0.0648
   48MOL0     C 6371  -0.170   7.702  11.511 -0.3171  0.2496 -0.8072
   48MOL0     C 6372  -0.280   7.700  11.606 -0.1843 -0.0221 -0.3080
   48MOL0     C 6373  -0.378   7.808  11.605  0.0495 -0.5960  0.4789
   48MOL0     C 6374  -0.285   7.591  11.699  0.1528 -0.2925 -0.0390
   48MOL0     C 6375  -0.375   7.579  11.811 -0.0153 -0.1940 -0.1181
   48MOL0     O 6376  -0.436   7.462  11.837 -0.6742  0.2223  0.3661
   48MOL0     C 6377  -0.462   7.442  11.977  0.2386  0.0180 -0.5351
   48MOL0     C 6378  -0.374   7.391  12.074 -0.6999 -0.1513  0.6386
   48MOL0     C 6379  -0.418   7.386  12.203  0.7307  0.6220  0.0900
   48MOL0     C 6380  -0.548   7.419  12.246 -0.9138 -0.1791  0.4710
   48MOL0     O 6381  -0.589   7.403  12.372  0.0214 -0.0603 -0.0462
   48MOL0     C 6382  -0.619   7.511  12.463  0.1302  0.8258  0.4993
   48MOL0     C 6383  -0.512   7.615  12.481 -0.0363  0.3657  0.0008
   48MOL0     C 6384  -0.515   7.721  12.373  0.3316 -0.3425  0.0734
   48MOL0     C 6385  -0.382   7.799  12.372  0.7886 -0.5462 -0.1556
   48MOL0     C 6386  -0.388   7.917  12.272 -0.1209  0.7471  0.1863
   48MOL0     C 6387  -0.253   7.974  12.247  0.5862  0.7369  0.3684
   48MOL0     C 6388  -0.249   8.066  12.119 -0.3378 -0.3335 -0.3737
   48MOL0     C 6389  -0.105   8.126  12.109 -0.5603  0.7912  0.9777
   48MOL0    Cl 6390  -0.058   8.206  11.950 -0.0458  0.3521  0.5901
   48MOL0     C 6391  -0.638   7.463  12.152  0.6609 -0.3097 -0.1452
   48MOL0     C 6392  -0.596   7.478  12.014  0.0200  0.3392  0.3446
   48MOL0     O 6393  -0.410   7.680  11.864 -0.4653  0.1737  0.3058
   48MOL0     C 6394  -0.190   7.488  11.689  0.1866 -0.3530 -0.1517
   48MOL0     C 6395  -0.094   7.490  11.587  0.9546  0.0113 -0.5638
   48MOL0     N 6396   0.100   7.608  10.837 -0.1403  0.4167  0.6212
   48MOL0     N 6397   0.076   7.537  10.725  0.7224  0.1020 -0.3567
   48MOL0     C 6398   0.693   6.638  10.723  0.5144  0.2172  0.2307
   48MOL0     C 6399   0.829   6.650  10.702  0.7387 -0.3613 -0.1591
   48MOL0     C 6400   1.231   6.727  10.521 -0.1722 -0.2811 -0.3899
   48MOL0     C 6401   1.286   6.710  10.649  0.0919  0.2266 -0.3872
   48MOL0     C 6402   1.427   6.702  10.673 -0.1686 -0.6702  0.0514
   48MOL0     C 6403   1.509   6.716  10.552 -0.5111  0.0749 -0.6813
   48MOL0     O 6404   1.647   6.708  10.547  0.4365  0.3392  0.1089
   48MOL0     C 6405   1.718   6.791  10.639 -0.9452  0.5387  0.1079
   48MOL0     C 6406   1.805   6.885  10.552  0.1807  0.0252  0.2906
   48MOL0     C 6407   1.900   6.994  10.628 -0.4911  0.7521  0.0520
   48MOL0     C 6408   1.982   6.935  10.742  0.5713 -0.3476 -0.0198
   48MOL0     C 6409   2.104   6.877  10.703  0.2163 -0.5588  0.0893
   48MOL0     C 6410   2.208   6.844  10.644  1.2369 -0.0796 -1.1904
   48MOL0     C 6411   1.455   6.726  10.421  0.5986  0.6098 -0.2214
   48MOL0     C 6412   1.314   6.729  10.412  0.4461 -0.4385  1.2914
   48MOL0     H 6413   0.823   6.908  10.485 -2.5133  3.4959  4.1211
   48MOL0     H 6414   0.578   6.898  10.539 -0.0508  1.4676  1.0648
   48MOL0     H 6415   0.379   6.842  10.621  1.6047 -0.1079 -0.2754
   48MOL0     H 6416   0.393   6.712  10.505 -0.0292  1.0248 -1.0952
   48MOL0     H 6417   0.237   6.573  10.673  1.0029 -0.3234  1.1792
   48MOL0     H 6418   0.220   6.721  10.761 -0.6359  1.4420 -0.5366
   48MOL0     H 6419   0.140   6.659  10.465 -0.3297 -1.5469  1.2113
   48MOL0     H 6420   0.043   6.683  10.607  0.9025 -1.7268  1.0840
   48MOL0     H 6421   0.217   6.880  10.464  0.9687 -1.6679  3.0699
   48MOL0     H 6422   0.041   6.859  10.433 -1.0365  0.2800 -0.6264
   48MOL0     H 6423   0.040   6.917  10.690 -0.0825 -0.7249 -0.3188
   48MOL0     H 6424   0.200   6.993  10.655  2.0748 -1.9960 -1.6736
   48MOL0     H 6425   0.105   7.144  10.485 -2.8655  1.9486 -1.0237
   48MOL0     H 6426  -0.060   7.088  10.526 -0.2824 -1.4376  0.3542
   48MOL0     H 6427  -0.017   7.148  10.766  3.2490 -3.7644  0.4032
   48MOL0     H 6428   0.130   7.230  10.724 -0.5600  1.7919  1.3245
   48MOL0     H 6429  -0.151   7.336  10.685 -0.5593  2.8076 -2.1561
   48MOL0     H 6430  -0.036   7.356  10.549 -1.2536  3.1897  0.5763
   48MOL0     H 6431  -0.110   7.379  10.937  0.6270 -0.7643 -1.2207
   48MOL0     H 6432   0.043   7.710  11.079 -0.6357  0.0275  1.6291
   48MOL0     H 6433  -0.045   7.576  11.149  0.7645  1.0643  1.5607
   48MOL0     H 6434   0.255   7.516  11.085  2.0132 -3.2798  2.1167
   48MOL0     H 6435   0.133   7.416  11.151 -0.0961 -0.7185  2.4752
   48MOL0     H 6436   0.207   7.676  11.280  1.3503 -0.2063  1.0084
   48MOL0     H 6437   0.303   7.519  11.305 -1.2381 -0.0731  0.4699
   48MOL0     H 6438   0.171   7.501  11.489  1.1480  0.7593 -0.4425
   48MOL0     H 6439   0.086   7.417  11.356  0.2377 -0.0597 -0.5988
   48MOL0     H 6440  -0.171   7.775  11.432 -1.0314 -0.5908 -1.5952
   48MOL0     H 6441  -0.351   7.877  11.685 -1.9237 -0.2566  0.9080
   48MOL0     H 6442  -0.374   7.844  11.501 -2.6079 -0.6791  0.2603
   48MOL0     H 6443  -0.479   7.769  11.624 -1.1170  2.3923  0.8486
   48MOL0     H 6444  -0.270   7.362  12.058 -0.1518  0.1161  3.1873
   48MOL0     H 6445  -0.352   7.351  12.282  1.0833 -1.3883 -1.0293
   48MOL0     H 6446  -0.700   7.569  12.417  0.6345  1.4076  0.3387
   48MOL0     H 6447  -0.662   7.473  12.556 -0.8932  3.4913  1.2390
   48MOL0     H 6448  -0.530   7.662  12.578 -2.8399 -1.8747  0.6834
   48MOL0     H 6449  -0.413   7.567  12.477  0.8063  1.9717 -5.1421
   48MOL0     H 6450  -0.598   7.790  12.388 -2.6015 -2.9320 -2.7291
   48MOL0     H 6451  -0.526   7.687  12.270  1.8955  1.5342 -0.7749
   48MOL0     H 6452  -0.367   7.832  12.475  0.7441  2.0576 -0.9144
   48MOL0     H 6453  -0.296   7.733  12.359  0.4793 -1.4002  1.7382
   48MOL0     H 6454  -0.468   7.983  12.308 -0.0826  0.5273  0.6734
   48MOL0     H 6455  -0.419   7.878  12.175 -0.0044 -1.8214  1.1029
   48MOL0     H 6456  -0.222   8.016  12.343 -2.5110 -1.0245  2.3212
   48MOL0     H 6457  -0.187   7.891  12.219 -0.0694  0.4365 -0.3188
   48MOL0     H 6458  -0.319   8.150  12.126 -1.1747 -0.9281 -1.3382
   48MOL0     H 6459  -0.279   7.998  12.039  1.9252 -0.7132 -0.9510
   48MOL0     H 6460  -0.028   8.048  12.107  2.5313  3.5229 -1.9818
   48MOL0     H 6461  -0.071   8.177  12.200 -0.6217  0.7300  1.0362
   48MOL0     H 6462  -0.743   7.482  12.172 -0.0928 -3.7061 -0.1087
   48MOL0     H 6463  -0.666   7.514  11.940 -0.3423  0.8267  0.9081
   48MOL0     H 6464  -0.185   7.404  11.756  1.2416 -2.2302 -2.4271
   48MOL0     H 6465  -0.024   7.410  11.569 -0.3762 -1.1073 -0.9554
   48MOL0     H 6466   0.654   6.558  10.785 -1.1518  1.7561  1.2727
   48MOL0     H 6467   0.899   6.588  10.757 -0.2097  0.5274  2.1656
   48MOL0     H 6468   1.229   6.710  10.741  0.0600 -2.1146 -0.3474
   48MOL0     H 6469   1.476   6.694  10.770  1.5975 -0.5013 -0.8005
   48MOL0     H 6470   1.653   6.843  10.710 -3.4535 -3.1881  0.8522
   48MOL0     H 6471   1.773   6.728  10.709 -5.0834 -0.3469  2.9278
   48MOL0     H 6472   1.733   6.942  10.493 -0.5793  3.3332  3.9625
   48MOL0     H 6473   1.864   6.817  10.491 -2.3862 -0.9201 -1.3023
   48MOL0     H 6474   1.842   7.082  10.658  1.6183  3.1432 -2.3557
   48MOL0     H 6475   1.964   7.029  10.546 -1.1408 -1.3059 -1.4172
   48MOL0     H 6476   1.916   6.870  10.799 -1.6975  1.6944 -0.1273
   48MOL0     H 6477   1.998   7.010  10.820  0.2095  0.6874 -0.9011
   48MOL0     H 6478   2.301   6.813  10.601  1.4014  0.8783 -1.5497
   48MOL0     H 6479   1.529   6.729  10.342  0.3574  0.8257 -0.4423
   48MOL0     H 6480   1.267   6.739  10.314  2.1378  1.6224  0.6044
   49MOL0     O 6481   4.690   1.502   2.932 -0.3970  0.1994  0.5102
   49MOL0     C 6482   4.716   1.604   2.994 -0.3972 -0.3215 -0.1790
   49MOL0     O 6483   4.630   1.675   3.069 -0.5557 -0.6354 -0.5065
   49MOL0     C 6484   4.510   1.627   3.104  0.1665 -0.2178  0.2905
   49MOL0     C 6485   4.392   1.705   3.098 -0.1917  0.6866  0.0313
   49MOL0     C 6486   4.270   1.643   3.122 -0.0669 -0.3192  0.1983
   49MOL0     C 6487   4.267   1.510   3.155  0.1357  0.4038  0.2393
   49MOL0     O 6488   4.153   1.432   3.142  0.4672  0.2964 -0.1763
   49MOL0     C 6489   4.022   1.493   3.129 -0.3480  0.6262 -0.1200
   49MOL0     C 6490   3.914   1.386   3.138 -0.1912 -0.0343 -0.1228
   49MOL0     C 6491   3.917   1.297   3.268  0.0320 -0.4541 -0.6827
   49MOL0     C 6492   3.872   1.364   3.391  0.1826  0.1252 -1.5626
   49MOL0     C 6493   3.909   1.288   3.518 -0.7913 -0.7430 -0.2380
   49MOL0     C 6494   3.919   1.369   3.646  0.0556  0.2651  1.2356
   49MOL0     C 6495   3.957   1.290   3.777  0.5798  0.9268  0.0057
   49MOL0     C 6496   3.831   1.274   3.867  0.9407 -0.0137  1.4985
   49MOL0     N 6497   3.870   1.226   3.992  0.8251  0.3704  0.0155
   49MOL0     C 6498   3.912   1.289   4.103  0.7789 -0.1407 -0.5460
   49MOL0     C 6499   3.946   1.195   4.189 -0.4423 -0.9416 -0.0167
   49MOL0     C 6500   4.005   1.231   4.326 -0.2709 -0.1309  1.0126
   49MOL0     C 6501   3.955   1.165   4.446  1.0575  0.8214  0.0469
   49MOL0     C 6502   3.808   1.226   4.492 -1.4794 -0.0677  0.5458
   49MOL0     C 6503   3.799   1.381   4.524  0.6344 -0.2807 -0.4036
   49MOL0     O 6504   3.880   1.402   4.640 -0.1966  0.1245 -0.0171
   49MOL0     C 6505   3.830   1.365   4.761 -0.9134  0.3362 -0.9678
   49MOL0     C 6506   3.707   1.413   4.809 -0.6520  0.6007 -0.0363
   49MOL0     C 6507   3.665   1.393   4.941 -0.1006 -0.6360 -0.5508
   49MOL0     C 6508   3.529   1.438   4.989 -0.5110  0.1004 -0.6337
   49MOL0     C 6509   3.751   1.310   5.025 -0.3382 -0.5801  0.1343
   49MOL0     C 6510   3.734   1.281   5.166  0.2651 -0.0165 -0.4229
   49MOL0     O 6511   3.806   1.177   5.220 -0.0029  0.2916  0.5254
   49MOL0     C 6512   3.798   1.157   5.359  0.0942 -0.4782  0.0684
   49MOL0     C 6513   3.882   1.221   5.459 -0.8480  0.2829  1.1154
   49MOL0     C 6514   3.849   1.212   5.596  0.1703 -0.9552 -0.0798
   49MOL0     C 6515   3.754   1.120   5.634 -0.4168 -1.1779  0.1659
   49MOL0     O 6516   3.727   1.110   5.765  0.0388  0.3229  0.3424
   49MOL0     C 6517   3.645   1.006   5.820 -1.5352  0.0703 -0.6164
   49MOL0     C 6518   3.726   0.876   5.812 -0.0054 -0.5433 -0.5889
   49MOL0     C 6519   3.868   0.883   5.871  0.3720  0.1668 -0.8075
   49MOL0     C 6520   3.991   0.890   5.775  0.1942  2.6177  0.3527
   49MOL0     C 6521   4.139   0.873   5.829  0.4042 -0.1208  0.6655
   49MOL0     C 6522   4.155   0.749   5.925 -0.3045 -0.7351  0.5955
   49MOL0     C 6523   4.308   0.736   5.952 -0.1463 -0.0349  0.7727
   49MOL0     C 6524   4.337   0.678   6.092 -0.3085  0.5610  0.6149
   49MOL0    Cl 6525   4.256   0.513   6.119  0.0619 -0.1321  0.1300
   49MOL0     C 6526   3.680   1.049   5.533 -0.3005 -0.2911  0.1602
   49MOL0     C 6527   3.703   1.070   5.401  0.0106  0.9822 -0.0604
   49MOL0     O 6528   3.653   1.354   5.228  0.1783  0.0431 -0.3256
   49MOL0     C 6529   3.872   1.268   4.976  0.1435 -0.1492 -0.0210
   49MOL0     C 6530   3.915   1.296   4.850  0.6876  0.0963 -0.1222
   49MOL0     N 6531   3.921   1.075   4.125 -1.5417 -0.3262 -0.0520
   49MOL0     N 6532   3.887   1.088   4.008  0.8656 -1.0166 -0.4217
   49MOL0     C 6533   4.384   1.442   3.183 -0.6421  0.0712 -0.0974
   49MOL0     C 6534   4.506   1.503   3.155  0.1755  0.4746 -0.6485
   49MOL0     C 6535   4.862   1.644   3.015 -0.4285 -0.4798 -0.1032
   49MOL0     C 6536   4.962   1.543   3.004 -0.1277 -0.0805  0.6468
   49MOL0     C 6537   5.097   1.571   3.036  1.6543  0.7965  0.5501
   49MOL0     C 6538   5.130   1.702   3.071  0.4278  0.1421 -0.2893
   49MOL0     O 6539   5.264   1.717   3.104  0.6001  0.4115 -0.3288
   49MOL0     C 6540   5.313   1.817   3.204  0.7859  0.1196 -0.6461
   49MOL0     C 6541   5.447   1.762   3.268  0.0674  0.5018 -0.1447
   49MOL0     C 6542   5.425   1.624   3.344 -1.5206  0.1221 -0.0242
   49MOL0     C 6543   5.550   1.584   3.426 -0.1577  0.0306 -0.2942
   49MOL0     C 6544   5.660   1.517   3.366 -0.0099  1.1151  0.6245
   49MOL0     C 6545   5.756   1.471   3.308 -0.6216  0.5394  0.2073
   49MOL0     C 6546   5.032   1.802   3.071 -0.0292 -0.8294 -0.4513
   49MOL0     C 6547   4.902   1.773   3.042 -0.9467  0.3793  0.1944
   49MOL0     H 6548   4.385   1.811   3.078 -2.4569  0.3987 -0.9675
   49MOL0     H 6549   4.176   1.694   3.105 -0.6750 -0.4447  2.8636
   49MOL0     H 6550   4.013   1.564   3.211 -0.0709 -0.3861  0.8034
   49MOL0     H 6551   4.017   1.555   3.039 -0.9324 -1.4517 -1.6101
   49MOL0     H 6552   3.816   1.433   3.127 -0.4046  0.2974  2.5705
   49MOL0     H 6553   3.932   1.310   3.061 -2.2712 -0.7143 -0.0093
   49MOL0     H 6554   3.854   1.208   3.257  0.0257 -0.7304  1.3604
   49MOL0     H 6555   4.018   1.256   3.274 -0.0304 -0.3207  2.2694
   49MOL0     H 6556   3.929   1.456   3.406 -1.0782  0.4667  2.3772
   49MOL0     H 6557   3.763   1.377   3.383  0.4186  2.5027 -1.7064
   49MOL0     H 6558   3.839   1.205   3.526 -0.0170 -1.3036  1.3690
   49MOL0     H 6559   4.006   1.242   3.493 -0.1902  1.1036 -1.5172
   49MOL0     H 6560   3.992   1.446   3.617 -2.3549  1.3909 -2.6668
   49MOL0     H 6561   3.818   1.408   3.665  0.1714  0.3620  1.6749
   49MOL0     H 6562   4.003   1.193   3.755  1.5398  1.5142 -0.6411
   49MOL0     H 6563   4.027   1.359   3.824  1.5686  0.5552 -0.8858
   49MOL0     H 6564   3.761   1.207   3.817 -2.2431  1.5977  3.5135
   49MOL0     H 6565   3.772   1.366   3.872 -0.7168 -0.9821  0.4372
   49MOL0     H 6566   3.922   1.395   4.127 -0.1332  0.3193 -2.0110
   49MOL0     H 6567   4.112   1.209   4.322  0.0839  1.1637 -4.1419
   49MOL0     H 6568   4.002   1.340   4.335  1.6492  0.2462 -1.7642
   49MOL0     H 6569   4.037   1.169   4.519  0.7290 -1.3037  0.6026
   49MOL0     H 6570   3.945   1.059   4.424  0.4940  0.9551 -0.3703
   49MOL0     H 6571   3.776   1.173   4.582 -1.3069  0.4979  0.9462
   49MOL0     H 6572   3.729   1.207   4.419 -0.8872 -2.0160  0.3483
   49MOL0     H 6573   3.698   1.401   4.559  1.5560  1.4685  1.4747
   49MOL0     H 6574   3.815   1.461   4.450 -0.3847  2.0259  1.7053
   49MOL0     H 6575   3.650   1.485   4.751 -1.7228  0.8518  1.2865
   49MOL0     H 6576   3.533   1.498   5.080 -1.1333 -0.6576 -0.1011
   49MOL0     H 6577   3.481   1.489   4.905  1.3657 -0.0155 -1.8301
   49MOL0     H 6578   3.469   1.354   5.023 -0.2826  1.7278  4.6823
   49MOL0     H 6579   3.954   1.295   5.428  0.6539 -1.0275  1.3499
   49MOL0     H 6580   3.903   1.264   5.674  0.7667 -0.0387 -1.0839
   49MOL0     H 6581   3.633   1.037   5.924 -0.4098  1.9883 -1.0148
   49MOL0     H 6582   3.552   0.988   5.765 -0.8679 -2.5551 -1.0315
   49MOL0     H 6583   3.670   0.795   5.859 -2.4476  0.5463 -1.4541
   49MOL0     H 6584   3.752   0.855   5.708 -0.9478 -2.3031 -0.5039
   49MOL0     H 6585   3.867   0.786   5.921  0.1759  0.7802  0.4152
   49MOL0     H 6586   3.865   0.959   5.949  1.2817 -1.4146  0.8733
   49MOL0     H 6587   3.973   0.807   5.707 -1.0777  2.0828  1.3155
   49MOL0     H 6588   3.994   0.985   5.721 -2.0837  1.6566 -1.6224
   49MOL0     H 6589   4.158   0.966   5.883 -0.1399  1.3750 -1.6194
   49MOL0     H 6590   4.198   0.883   5.738  0.5207  0.5138  0.8072
   49MOL0     H 6591   4.095   0.751   6.017 -2.1099  1.0760 -0.5504
   49MOL0     H 6592   4.118   0.665   5.865 -1.9140  0.9031 -0.7913
   49MOL0     H 6593   4.369   0.826   5.940  0.8019 -0.5912  1.2849
   49MOL0     H 6594   4.332   0.666   5.870 -2.6975 -1.8201  1.4000
   49MOL0     H 6595   4.291   0.758   6.151 -1.9624  2.6259 -3.1313
   49MOL0     H 6596   4.443   0.660   6.113 -0.5139 -0.4061  0.9119
   49MOL0     H 6597   3.600   0.981   5.563 -0.0806 -0.3383  0.6461
   49MOL0     H 6598   3.653   1.023   5.317  0.1584  2.4858 -1.0321
   49MOL0     H 6599   3.950   1.228   5.040  0.1114 -0.8680 -0.4161
   49MOL0     H 6600   4.005   1.264   4.799 -1.9101 -2.3518 -3.7120
   49MOL0     H 6601   4.394   1.340   3.218 -0.5403  0.3318  0.6438
   49MOL0     H 6602   4.594   1.444   3.177  1.5202  2.6553  0.1709
   49MOL0     H 6603   4.938   1.439   2.985 -1.9371  0.6778 -1.7461
   49MOL0     H 6604   5.172   1.494   3.048  0.9225  0.3481  2.9219
   49MOL0     H 6605   5.315   1.920   3.164  1.0361 -1.0339 -3.9637
   49MOL0     H 6606   5.235   1.820   3.279  0.1355  1.1121 -1.3363
   49MOL0     H 6607   5.497   1.833   3.334 -0.1757  0.5122  0.0295
   49MOL0     H 6608   5.518   1.730   3.191  1.6203 -1.5479  2.0125
   49MOL0     H 6609   5.419   1.548   3.266 -4.0784  0.0093  0.1779
   49MOL0     H 6610   5.332   1.614   3.401  0.8745 -3.5385  3.7287
   49MOL0     H 6611   5.517   1.508   3.498 -0.0789 -0.8299 -1.1445
   49MOL0     H 6612   5.587   1.670   3.483 -1.7676  2.5276 -2.6996
   49MOL0     H 6613   5.840   1.418   3.268 -1.6808 -2.4874  1.6735
   49MOL0     H 6614   5.057   1.902   3.103 -1.2649  0.1093 -2.2223
   49MOL0     H 6615   4.834   1.856   3.024 -0.5047  0.4114 -1.4539
   50MOL0     O 6616   1.105   0.142   3.526  0.4906  0.7421  0.5943
   50MOL0     C 6617   1.054   0.241   3.565 -0.4340 -0.3693  0.0369
   50MOL0     O 6618   0.926   0.275   3.533 -0.0619  0.4058  0.6035
   50MOL0     C 6619   0.848   0.186   3.466 -0.3541 -0.3277 -0.9528
   50MOL0     C 6620   0.811   0.059   3.515 -0.0093  0.4559 -0.5683
   50MOL0     C 6621   0.733  -0.030   3.442  1.7604  0.9293 -1.4027
   50MOL0     C 6622   0.683   0.014   3.323  1.1611  0.0675 -0.7449
   50MOL0     O 6623   0.592  -0.058   3.259 -0.1029 -0.1405 -0.0824
   50MOL0     C 6624   0.639  -0.113   3.133 -0.0080 -1.5230  0.1609
   50MOL0     C 6625   0.531  -0.191   3.060 -0.0519 -0.4888 -0.5587
   50MOL0     C 6626   0.405  -0.128   3.015 -0.2008 -0.4356 -0.0010
   50MOL0     C 6627   0.285  -0.223   3.022  0.1672 -0.2567 -0.3167
   50MOL0     C 6628   0.141  -0.156   2.995  0.7594  0.1275 -0.3868
   50MOL0     C 6629   0.091  -0.106   3.132 -0.0024  0.8142  1.1783
   50MOL0     C 6630  -0.028  -0.004   3.125  0.3885  0.1236 -0.3722
   50MOL0     C 6631  -0.060   0.030   3.269  0.0141 -0.6337 -0.6959
   50MOL0     N 6632  -0.175   0.122   3.283 -0.6511  0.6143 -0.4053
   50MOL0     C 6633  -0.222   0.176   3.400  0.0308  0.7377  0.6216
   50MOL0     C 6634  -0.332   0.244   3.374  0.5009 -1.4447  0.7453
   50MOL0     C 6635  -0.425   0.311   3.475 -0.3921 -0.1875 -0.2337
   50MOL0     C 6636  -0.378   0.450   3.527  0.1744  0.6614 -0.0816
   50MOL0     C 6637  -0.344   0.537   3.403  0.2124 -0.4203 -1.2044
   50MOL0     C 6638  -0.193   0.551   3.387 -0.1589 -0.0349  0.0136
   50MOL0     O 6639  -0.148   0.619   3.276  0.9922 -0.2834 -0.7977
   50MOL0     C 6640  -0.015   0.641   3.259  0.7502  0.4202 -0.6350
   50MOL0     C 6641   0.090   0.587   3.333 -0.5660 -0.2052  0.4483
   50MOL0     C 6642   0.229   0.615   3.315 -0.2282 -0.1880  1.3199
   50MOL0     C 6643   0.335   0.524   3.379 -0.4955 -0.6051 -0.4584
   50MOL0     C 6644   0.253   0.715   3.215 -0.0383 -0.3497  0.4282
   50MOL0     C 6645   0.393   0.763   3.180 -0.0239 -0.0184  0.6898
   50MOL0     O 6646   0.475   0.655   3.159  0.3989 -0.4331 -0.1976
   50MOL0     C 6647   0.603   0.665   3.206  0.4868  0.7640 -0.4707
   50MOL0     C 6648   0.628   0.691   3.340  0.0427  0.3959 -0.3107
   50MOL0     C 6649   0.752   0.681   3.393 -0.0061 -1.3284  0.1473
   50MOL0     C 6650   0.857   0.669   3.303 -0.8736 -0.7157  0.1644
   50MOL0     O 6651   0.990   0.704   3.323 -0.4568  0.5730 -0.0794
   50MOL0     C 6652   1.064   0.634   3.426 -0.0165  0.2261  0.1767
   50MOL0     C 6653   1.164   0.727   3.494  0.1816  0.2432 -0.4132
   50MOL0     C 6654   1.114   0.872   3.520 -0.3447 -0.4778 -0.1942
   50MOL0     C 6655   1.217   0.943   3.607  0.2365 -0.1719  0.3897
   50MOL0     C 6656   1.204   1.095   3.571  0.7342 -0.8005  0.4545
   50MOL0     C 6657   1.283   1.181   3.664 -0.1692 -0.5374  0.3729
   50MOL0     C 6658   1.257   1.337   3.656  0.2570 -0.3654 -0.5655
   50MOL0     C 6659   1.117   1.382   3.650 -1.1393  0.0367  0.9884
   50MOL0    Cl 6660   1.099   1.561   3.663 -0.0637 -0.5566  0.5303
   50MOL0     C 6661   0.838   0.643   3.168 -1.0269 -0.3776 -0.1758
   50MOL0     C 6662   0.705   0.625   3.121  0.4725 -0.1065 -1.0016
   50MOL0     O 6663   0.422   0.881   3.182 -0.3997 -0.4469 -0.3304
   50MOL0     C 6664   0.143   0.784   3.155  0.0111 -0.1138 -0.3125
   50MOL0     C 6665   0.010   0.741   3.174 -0.1488 -0.5522  0.4010
   50MOL0     N 6666  -0.346   0.235   3.243  0.2469 -0.1137  0.5648
   50MOL0     N 6667  -0.262   0.150   3.196  0.5654  1.4966 -0.0824
   50MOL0     C 6668   0.697   0.149   3.285 -0.0720  1.5343  0.0878
   50MOL0     C 6669   0.794   0.228   3.345 -0.1813  0.2602 -0.8911
   50MOL0     C 6670   1.128   0.344   3.646 -0.0721  0.4982  0.5511
   50MOL0     C 6671   1.070   0.429   3.733  0.5119 -0.7475 -0.5014
   50MOL0     C 6672   1.144   0.503   3.823 -1.0108  0.1373 -0.3643
   50MOL0     C 6673   1.277   0.510   3.815 -0.2165  0.0077 -1.1011
   50MOL0     O 6674   1.345   0.604   3.890  0.2769 -0.5086  0.0837
   50MOL0     C 6675   1.489   0.605   3.907 -0.7392  0.0563 -0.5789
   50MOL0     C 6676   1.564   0.688   3.793  0.3229  0.2701 -0.1391
   50MOL0     C 6677   1.535   0.839   3.820  0.4507  0.1017  0.6786
   50MOL0     C 6678   1.607   0.927   3.713 -0.1771  0.1847 -0.0964
   50MOL0     C 6679   1.759   0.914   3.706 -0.7296  0.1229  0.1821
   50MOL0     C 6680   1.884   0.897   3.690  0.0494 -0.6889  0.1138
   50MOL0     C 6681   1.343   0.417   3.726 -0.3886  1.1167 -0.0802
   50MOL0     C 6682   1.262   0.333   3.648 -0.5362  0.7216  0.9880
   50MOL0     H 6683   0.838   0.018   3.612  1.2190 -0.4861 -1.2726
   50MOL0     H 6684   0.713  -0.133   3.471  1.5442  2.0888  3.4362
   50MOL0     H 6685   0.675  -0.027   3.075 -1.8079 -0.1581  0.9758
   50MOL0     H 6686   0.725  -0.180   3.142  0.2991 -1.2740 -0.8084
   50MOL0     H 6687   0.582  -0.225   2.969 -2.6029  0.8450 -2.6128
   50MOL0     H 6688   0.499  -0.271   3.126 -2.4904 -0.7524 -1.9433
   50MOL0     H 6689   0.389  -0.040   3.077  0.8609 -1.7973  2.3221
   50MOL0     H 6690   0.428  -0.093   2.913  0.6078 -1.0628 -0.0444
   50MOL0     H 6691   0.298  -0.300   2.946 -2.4495 -1.5549  0.4610
   50MOL0     H 6692   0.278  -0.278   3.117  2.9388 -0.7577 -0.2962
   50MOL0     H 6693   0.136  -0.080   2.917 -0.2093 -2.3676 -2.9060
   50MOL0     H 6694   0.071  -0.236   2.971  0.2720  1.0612 -2.2865
   50MOL0     H 6695   0.058  -0.185   3.200 -1.9059  0.6793  0.1590
   50MOL0     H 6696   0.177  -0.049   3.169 -0.0666  1.1833  0.7634
   50MOL0     H 6697   0.001   0.083   3.065  0.5235  0.5539  0.3089
   50MOL0     H 6698  -0.113  -0.044   3.069  0.3362  2.1562 -1.8747
   50MOL0     H 6699   0.023   0.083   3.317 -1.4889 -0.4686  1.9037
   50MOL0     H 6700  -0.069  -0.060   3.329  2.0738 -0.4762 -0.0882
   50MOL0     H 6701  -0.192   0.149   3.501 -0.0486 -3.4767 -0.3046
   50MOL0     H 6702  -0.520   0.307   3.420  0.9596 -2.3823 -2.6353
   50MOL0     H 6703  -0.443   0.239   3.555  0.4106 -0.2586 -0.1109
   50MOL0     H 6704  -0.305   0.444   3.608  0.0170  4.1641  0.4676
   50MOL0     H 6705  -0.464   0.505   3.567 -1.3987 -0.3492 -1.8537
   50MOL0     H 6706  -0.377   0.639   3.421  1.7319 -0.2074  0.7805
   50MOL0     H 6707  -0.392   0.502   3.311  0.8513  0.3376 -1.8397
   50MOL0     H 6708  -0.149   0.450   3.387 -0.3691 -0.2075 -3.1446
   50MOL0     H 6709  -0.164   0.596   3.482 -5.2374  0.1103  1.7730
   50MOL0     H 6710   0.058   0.510   3.403 -1.5055 -1.0923 -0.9179
   50MOL0     H 6711   0.288   0.431   3.412 -2.5122  0.9313  1.2570
   50MOL0     H 6712   0.416   0.495   3.311  0.2973  2.3699 -0.9094
   50MOL0     H 6713   0.378   0.573   3.466 -0.8832 -0.5320 -0.3074
   50MOL0     H 6714   0.545   0.705   3.408 -1.5459 -2.3534 -1.5299
   50MOL0     H 6715   0.777   0.689   3.498 -0.5076  2.0554  0.1170
   50MOL0     H 6716   0.993   0.588   3.495 -0.7515 -0.4486 -1.0031
   50MOL0     H 6717   1.123   0.554   3.380 -0.9485 -1.3486  1.5787
   50MOL0     H 6718   1.197   0.690   3.592 -2.3723  2.3586  1.3963
   50MOL0     H 6719   1.257   0.734   3.438  0.9176 -1.9108  0.4191
   50MOL0     H 6720   1.018   0.868   3.573 -0.3739 -0.4449 -0.2457
   50MOL0     H 6721   1.100   0.902   3.416  0.4820 -0.9370 -0.4529
   50MOL0     H 6722   1.182   0.937   3.710  0.0511 -0.0281  0.3362
   50MOL0     H 6723   1.317   0.903   3.592  0.7060  0.5719  1.4216
   50MOL0     H 6724   1.102   1.132   3.586  1.2193  0.1194  1.7141
   50MOL0     H 6725   1.247   1.113   3.472  2.5298  0.7535  1.4513
   50MOL0     H 6726   1.275   1.149   3.768  0.3893  1.2700  1.0089
   50MOL0     H 6727   1.388   1.163   3.640 -0.0455 -0.5366  0.9175
   50MOL0     H 6728   1.301   1.380   3.566  1.5051 -1.7670 -0.6550
   50MOL0     H 6729   1.311   1.391   3.734  0.6084  1.1535 -1.8078
   50MOL0     H 6730   1.063   1.352   3.740 -1.2534 -1.2124  0.5294
   50MOL0     H 6731   1.064   1.347   3.561 -1.8941  2.7576  0.2732
   50MOL0     H 6732   0.927   0.643   3.107  0.3386  2.0312  1.6464
   50MOL0     H 6733   0.685   0.596   3.019 -1.1085  1.0749 -1.0573
   50MOL0     H 6734   0.162   0.869   3.090  0.5788  2.5490  3.0504
   50MOL0     H 6735  -0.058   0.786   3.103  0.6580 -2.2371 -1.5362
   50MOL0     H 6736   0.669   0.173   3.183 -2.2475 -1.8446 -0.2626
   50MOL0     H 6737   0.834   0.316   3.296 -1.3677  1.4226  0.1385
   50MOL0     H 6738   0.962   0.420   3.737  0.4920 -0.8063 -1.0956
   50MOL0     H 6739   1.099   0.570   3.896  0.4924  1.5766 -0.7035
   50MOL0     H 6740   1.512   0.649   4.005  1.6747  0.3212 -1.1986
   50MOL0     H 6741   1.530   0.505   3.925  1.7168  0.8947 -1.1139
   50MOL0     H 6742   1.540   0.647   3.694  2.0156  0.0071 -0.4629
   50MOL0     H 6743   1.672   0.677   3.801  0.5044  0.3114 -2.0736
   50MOL0     H 6744   1.574   0.867   3.918  0.4867  2.7016  0.0036
   50MOL0     H 6745   1.427   0.859   3.814  0.6714  1.3195 -4.9081
   50MOL0     H 6746   1.589   1.032   3.740 -2.5340 -0.1450 -0.2486
   50MOL0     H 6747   1.562   0.897   3.619 -2.7240  0.6728  0.8854
   50MOL0     H 6748   1.990   0.895   3.676  0.1247 -1.5046  0.7000
   50MOL0     H 6749   1.450   0.423   3.712 -0.1066 -1.2941  0.4944
   50MOL0     H 6750   1.317   0.265   3.584 -1.1809 -0.7029  1.8976
   51MOL0     O 6751   0.282   2.563   4.717 -0.3995 -0.3134 -0.1503
   51MOL0     C 6752   0.205   2.662   4.717 -1.0109  0.0492 -0.0030
   51MOL0     O 6753   0.212   2.781   4.645 -0.6572 -0.1387  0.6326
   51MOL0     C 6754   0.329   2.810   4.579  0.0959 -0.3511 -0.2761
   51MOL0     C 6755   0.420   2.725   4.515 -0.3444 -0.3328 -0.8471
   51MOL0     C 6756   0.516   2.773   4.421 -0.1461 -0.4606 -0.6527
   51MOL0     C 6757   0.537   2.903   4.398  0.1784 -0.8778 -0.3048
   51MOL0     O 6758   0.636   2.931   4.313 -0.6534 -0.0782 -0.5847
   51MOL0     C 6759   0.646   3.063   4.253 -0.1071  0.4993 -0.0372
   51MOL0     C 6760   0.701   3.055   4.115 -0.7976 -0.0576  0.4328
   51MOL0     C 6761   0.673   3.188   4.031  0.0983 -0.3904 -0.8125
   51MOL0     C 6762   0.530   3.197   3.986  1.0815 -0.3846 -0.3780
   51MOL0     C 6763   0.507   3.296   3.873  1.6813  0.1367 -0.1771
   51MOL0     C 6764   0.356   3.294   3.842 -0.9909  0.6372  0.4988
   51MOL0     C 6765   0.308   3.386   3.729 -0.1023  0.9560  0.2274
   51MOL0     C 6766   0.379   3.359   3.592 -0.2047 -0.3221 -0.9515
   51MOL0     N 6767   0.341   3.226   3.544  0.5457 -0.8211  0.2332
   51MOL0     C 6768   0.244   3.201   3.455 -0.1729  0.2121 -0.0201
   51MOL0     C 6769   0.231   3.065   3.449  0.7950 -0.5176 -0.4390
   51MOL0     C 6770   0.133   2.983   3.371  0.6265  1.3987  0.5470
   51MOL0     C 6771   0.015   2.940   3.462  0.0720  0.1844 -0.2013
   51MOL0     C 6772  -0.087   2.851   3.396 -0.0447  1.0794  0.5168
   51MOL0     C 6773  -0.202   2.826   3.498  0.2774 -0.4039 -0.5828
   51MOL0     O 6774  -0.318   2.769   3.430 -0.1189  0.2294  0.2679
   51MOL0     C 6775  -0.436   2.739   3.509 -0.1830  0.5538  0.1575
   51MOL0     C 6776  -0.553   2.719   3.440  0.5978 -0.4565 -0.2036
   51MOL0     C 6777  -0.683   2.702   3.502  0.9724 -0.2695 -1.0708
   51MOL0     C 6778  -0.808   2.669   3.423  0.0651 -0.7343  0.3196
   51MOL0     C 6779  -0.683   2.701   3.641 -0.7118  0.2951  0.3012
   51MOL0     C 6780  -0.794   2.677   3.731  0.2929 -0.1956  0.0704
   51MOL0     O 6781  -0.771   2.627   3.853 -0.3824 -0.2955  0.2371
   51MOL0     C 6782  -0.865   2.583   3.946  0.2971  0.4978  0.6997
   51MOL0     C 6783  -1.003   2.588   3.931 -0.3185  0.0409  0.7923
   51MOL0     C 6784  -1.094   2.527   4.013  0.0445 -0.0180  0.2843
   51MOL0     C 6785  -1.052   2.486   4.143 -0.2778  0.3270  0.3905
   51MOL0     O 6786  -1.140   2.425   4.226  0.3719  0.9192 -0.1772
   51MOL0     C 6787  -1.262   2.489   4.241  0.2143 -0.2468  0.7750
   51MOL0     C 6788  -1.322   2.450   4.379  0.2546 -0.0819  0.2977
   51MOL0     C 6789  -1.461   2.518   4.381  0.5275  0.0877  0.5349
   51MOL0     C 6790  -1.565   2.436   4.307 -0.8774 -0.3152  0.4550
   51MOL0     C 6791  -1.707   2.444   4.365 -0.2767  0.0751  0.1473
   51MOL0     C 6792  -1.804   2.355   4.297 -0.7315  0.5464  0.3505
   51MOL0     C 6793  -1.950   2.397   4.327 -0.6210 -0.1652 -1.4185
   51MOL0     C 6794  -2.007   2.325   4.448 -0.2460 -0.9080  0.1578
   51MOL0    Cl 6795  -2.043   2.154   4.413 -0.5330 -0.5389  0.1254
   51MOL0     C 6796  -0.911   2.486   4.168  0.4257 -0.2414  0.1149
   51MOL0     C 6797  -0.821   2.542   4.073 -0.1407  1.6665 -0.1613
   51MOL0     O 6798  -0.903   2.678   3.675  0.1698 -0.5448 -0.7608
   51MOL0     C 6799  -0.566   2.717   3.710 -1.0642  0.5233 -0.2937
   51MOL0     C 6800  -0.446   2.743   3.647  0.1462  0.1348  0.2687
   51MOL0     N 6801   0.331   3.019   3.524  0.7973  0.5656 -0.6855
   51MOL0     N 6802   0.397   3.111   3.581 -1.1264 -0.5046  0.4362
   51MOL0     C 6803   0.448   2.990   4.461  0.0509 -0.4810 -1.0811
   51MOL0     C 6804   0.343   2.948   4.551  0.7579 -0.0454  0.5385
   51MOL0     C 6805   0.096   2.650   4.812 -0.6293 -0.0660 -0.2076
   51MOL0     C 6806   0.049   2.530   4.851  0.0241  0.5962  0.0703
   51MOL0     C 6807  -0.072   2.526   4.925  0.6247 -0.1403  0.2768
   51MOL0     C 6808  -0.143   2.641   4.962 -1.0905 -0.3250  0.9530
   51MOL0     O 6809  -0.256   2.646   5.034 -0.3828  0.3744 -0.0988
   51MOL0     C 6810  -0.275   2.529   5.112  0.1678  0.5517  0.4366
   51MOL0     C 6811  -0.384   2.553   5.214  0.4145 -0.0197 -0.1268
   51MOL0     C 6812  -0.519   2.589   5.154  0.7243 -0.5776 -0.1071
   51MOL0     C 6813  -0.625   2.649   5.249  0.3276 -0.2697 -0.5530
   51MOL0     C 6814  -0.661   2.544   5.341 -0.6766  0.1326 -1.9834
   51MOL0     C 6815  -0.704   2.461   5.415 -0.0035 -0.1169  0.3216
   51MOL0     C 6816  -0.092   2.761   4.921 -0.3669  0.6953 -0.4319
   51MOL0     C 6817   0.027   2.771   4.850 -0.9134  0.7993 -0.3041
   51MOL0     H 6818   0.407   2.617   4.521  3.1555 -0.7859  0.4716
   51MOL0     H 6819   0.588   2.706   4.375  0.8132  0.1636 -0.1203
   51MOL0     H 6820   0.548   3.112   4.260 -0.9985 -0.7020 -2.6586
   51MOL0     H 6821   0.717   3.125   4.308  1.4131  3.3804 -4.7503
   51MOL0     H 6822   0.807   3.029   4.116 -1.4569 -3.1555 -0.5043
   51MOL0     H 6823   0.646   2.979   4.059 -0.3634  1.8297 -2.7431
   51MOL0     H 6824   0.708   3.282   4.074 -0.7762 -1.4124  2.3692
   51MOL0     H 6825   0.744   3.194   3.948  0.5089 -2.1036 -0.6191
   51MOL0     H 6826   0.485   3.098   3.972 -0.5626  0.2276  0.2520
   51MOL0     H 6827   0.475   3.240   4.070  1.6506  1.6789 -1.0064
   51MOL0     H 6828   0.537   3.401   3.884 -3.3170  1.7146  0.7235
   51MOL0     H 6829   0.557   3.251   3.787  1.1392 -1.0334  0.0992
   51MOL0     H 6830   0.321   3.190   3.838 -0.7442  0.4753  1.8705
   51MOL0     H 6831   0.312   3.334   3.934  1.4419 -2.0151  3.0872
   51MOL0     H 6832   0.202   3.366   3.716  0.2094  0.7440 -2.6012
   51MOL0     H 6833   0.319   3.493   3.750 -0.5592  1.2730 -1.0645
   51MOL0     H 6834   0.488   3.362   3.600 -0.2325 -1.1418 -0.0692
   51MOL0     H 6835   0.338   3.438   3.529 -1.9549 -1.4373 -1.2815
   51MOL0     H 6836   0.185   3.271   3.396 -0.9005 -1.6888 -1.6495
   51MOL0     H 6837   0.096   3.034   3.281  1.0004  1.4885  0.4442
   51MOL0     H 6838   0.180   2.889   3.342  1.3273  2.0077 -0.3746
   51MOL0     H 6839  -0.040   3.032   3.487 -0.2492 -0.3415  1.1152
   51MOL0     H 6840   0.045   2.887   3.552 -2.1704 -2.9210 -1.1068
   51MOL0     H 6841  -0.037   2.756   3.374  2.4543  2.3039  0.5468
   51MOL0     H 6842  -0.126   2.889   3.302  1.9611 -0.2222 -0.9508
   51MOL0     H 6843  -0.234   2.918   3.549  0.0842 -0.1001 -1.2431
   51MOL0     H 6844  -0.172   2.758   3.578 -1.6545 -0.9133 -0.2218
   51MOL0     H 6845  -0.558   2.735   3.333 -1.4704  2.0950  0.1645
   51MOL0     H 6846  -0.766   2.660   3.323 -0.9494  0.3376 -0.2264
   51MOL0     H 6847  -0.847   2.568   3.437 -1.9013  0.0272  0.5981
   51MOL0     H 6848  -0.874   2.753   3.444 -0.0100 -0.5946 -0.4690
   51MOL0     H 6849  -1.049   2.618   3.837  1.2231 -2.0297 -0.7063
   51MOL0     H 6850  -1.190   2.522   3.963  0.6034  2.2726 -1.1347
   51MOL0     H 6851  -1.252   2.597   4.232  0.1848  0.0571  3.4101
   51MOL0     H 6852  -1.326   2.447   4.163  2.4596  0.9358 -1.8891
   51MOL0     H 6853  -1.326   2.341   4.390  1.3935 -0.0214  1.6505
   51MOL0     H 6854  -1.255   2.486   4.458 -1.5279 -1.0465  2.3856
   51MOL0     H 6855  -1.458   2.623   4.350  1.8733 -0.8819 -3.1038
   51MOL0     H 6856  -1.490   2.513   4.486  0.7816 -5.1258  0.6268
   51MOL0     H 6857  -1.575   2.471   4.204 -0.5072  1.3598  0.9514
   51MOL0     H 6858  -1.524   2.336   4.297  2.3821  1.0740 -1.9919
   51MOL0     H 6859  -1.745   2.546   4.362 -0.2424  0.0796 -0.1249
   51MOL0     H 6860  -1.703   2.403   4.467 -1.3077 -4.2703 -1.3222
   51MOL0     H 6861  -1.792   2.361   4.188  0.0906 -2.7042  0.1570
   51MOL0     H 6862  -1.778   2.251   4.315  0.0322  0.4338 -1.2018
   51MOL0     H 6863  -2.004   2.374   4.234 -0.8097  0.9136 -1.5814
   51MOL0     H 6864  -1.964   2.504   4.345 -0.4405 -0.5769  1.7202
   51MOL0     H 6865  -2.105   2.369   4.466 -0.6987 -1.2540 -1.3266
   51MOL0     H 6866  -1.951   2.352   4.539  0.1305  2.3236 -0.9122
   51MOL0     H 6867  -0.887   2.445   4.266  0.4775 -1.7966 -0.5163
   51MOL0     H 6868  -0.719   2.547   4.108 -0.1492  0.7258  0.0243
   51MOL0     H 6869  -0.569   2.743   3.815  3.3111  1.8823 -0.3165
   51MOL0     H 6870  -0.350   2.754   3.697  1.1601 -0.1965 -1.5464
   51MOL0     H 6871   0.437   3.097   4.445 -1.6074 -0.4201  0.2245
   51MOL0     H 6872   0.276   3.026   4.585  1.2569  1.1580 -1.1228
   51MOL0     H 6873   0.078   2.431   4.818  0.7690 -0.4979  3.6390
   51MOL0     H 6874  -0.115   2.430   4.951 -2.0062  1.3079  1.7160
   51MOL0     H 6875  -0.295   2.448   5.041 -0.0880  2.2827 -1.5321
   51MOL0     H 6876  -0.193   2.493   5.175 -1.2019 -0.7817  1.5481
   51MOL0     H 6877  -0.359   2.625   5.292  1.4979 -1.4637  0.9143
   51MOL0     H 6878  -0.394   2.458   5.268  0.9578  1.8214  3.4752
   51MOL0     H 6879  -0.556   2.497   5.109  0.1068 -0.9264  1.0911
   51MOL0     H 6880  -0.496   2.665   5.078  2.8650 -3.0043 -2.0625
   51MOL0     H 6881  -0.721   2.671   5.201 -0.9801 -1.6545  1.3104
   51MOL0     H 6882  -0.595   2.745   5.291  0.2698  0.2531 -1.6582
   51MOL0     H 6883  -0.743   2.379   5.472  2.2924 -3.7817 -2.9235
   51MOL0     H 6884  -0.133   2.859   4.946 -1.9133 -0.5167  2.2052
   51MOL0     H 6885   0.068   2.870   4.833 -2.2928  1.5545  0.6580
   52MOL0     O 6886   8.183   2.626   4.180  0.1626 -0.3934  1.0155
   52MOL0     C 6887   8.245   2.640   4.073 -0.0852 -1.1788 -0.7029
   52MOL0     O 6888   8.363   2.573   4.048 -0.8113  0.0360 -0.6793
   52MOL0     C 6889   8.394   2.484   4.149  0.4253 -0.1574 -0.5241
   52MOL0     C 6890   8.330   2.366   4.185 -0.0581 -0.6701 -0.0096
   52MOL0     C 6891   8.389   2.284   4.280 -0.2767 -0.2285  0.6707
   52MOL0     C 6892   8.490   2.326   4.366  0.6757 -0.2259 -0.2358
   52MOL0     O 6893   8.523   2.239   4.468 -0.2718  0.4665 -0.0628
   52MOL0     C 6894   8.617   2.272   4.578  0.7290 -0.0838  1.0990
   52MOL0     C 6895   8.645   2.153   4.663  0.0788 -1.1560 -0.4341
   52MOL0     C 6896   8.768   2.174   4.760  0.0685  0.1592  0.2087
   52MOL0     C 6897   8.806   2.048   4.831  0.4537  0.2547 -0.1079
   52MOL0     C 6898   8.898   2.051   4.954  0.8359 -0.3864 -0.2413
   52MOL0     C 6899   8.930   1.917   5.020 -0.1102  0.2216 -0.7058
   52MOL0     C 6900   8.802   1.857   5.068  0.2280  0.5501 -0.4344
   52MOL0     C 6901   8.817   1.763   5.190 -0.1272 -0.3468 -1.4521
   52MOL0     N 6902   8.892   1.639   5.150 -1.4706 -0.4012  0.1257
   52MOL0     C 6903   8.982   1.566   5.224  0.7449  0.1098  0.3276
   52MOL0     C 6904   9.033   1.474   5.137  1.2007  0.9601  0.1670
   52MOL0     C 6905   9.126   1.369   5.198  0.5310 -0.5512  0.7024
   52MOL0     C 6906   9.269   1.356   5.128  0.0625 -0.1091  0.4490
   52MOL0     C 6907   9.340   1.483   5.122  0.1099  0.2355  0.1941
   52MOL0     C 6908   9.471   1.465   5.048  0.4235  0.1596  0.1055
   52MOL0     O 6909   9.558   1.364   5.102 -0.2439  0.9413  0.5263
   52MOL0     C 6910   9.693   1.358   5.092 -0.6682 -0.9437 -1.1720
   52MOL0     C 6911   9.755   1.240   5.120  0.5472  0.6467 -0.6642
   52MOL0     C 6912   9.890   1.220   5.102 -0.7468 -0.3214  0.3392
   52MOL0     C 6913   9.934   1.081   5.141  0.0453 -0.2424 -0.2337
   52MOL0     C 6914   9.978   1.328   5.073 -0.2050 -1.0314 -0.1637
   52MOL0     C 6915  10.124   1.312   5.043 -0.4371 -0.9261  0.1514
   52MOL0     O 6916  10.193   1.428   5.020  0.1973  0.2693 -0.3608
   52MOL0     C 6917  10.320   1.423   4.954 -0.2125  0.2650  0.1887
   52MOL0     C 6918  10.325   1.478   4.825  1.0331  0.4768  0.0594
   52MOL0     C 6919  10.449   1.470   4.745  1.2044  0.9826 -0.2223
   52MOL0     C 6920  10.565   1.416   4.804 -0.1438 -0.0924 -0.5010
   52MOL0     O 6921  10.684   1.399   4.730  0.0939  0.5137  0.0222
   52MOL0     C 6922  10.658   1.319   4.607  0.1356  0.0666 -0.3729
   52MOL0     C 6923  10.684   1.176   4.621 -0.4070 -0.3631 -0.8803
   52MOL0     C 6924  10.672   1.103   4.493 -0.6934 -0.2364  0.1167
   52MOL0     C 6925  10.519   1.069   4.481  0.9210 -0.1325 -0.8532
   52MOL0     C 6926  10.488   0.964   4.369 -0.1496  0.1171 -0.1108
   52MOL0     C 6927  10.532   0.826   4.408 -0.2446  0.9270  0.3199
   52MOL0     C 6928  10.549   0.747   4.275 -0.6060 -0.5722 -0.2595
   52MOL0     C 6929  10.508   0.594   4.300  0.1162  0.5299  0.7998
   52MOL0    Cl 6930  10.530   0.492   4.162  0.3644  0.1868  0.2106
   52MOL0     C 6931  10.562   1.388   4.942  0.0706 -0.6695 -0.6770
   52MOL0     C 6932  10.442   1.387   5.019 -0.0334  0.3036 -1.3102
   52MOL0     O 6933  10.168   1.203   5.036  0.0998 -0.1735 -0.1400
   52MOL0     C 6934   9.914   1.450   5.035  0.3137  0.4620  0.5611
   52MOL0     C 6935   9.777   1.461   5.049  0.3595  0.1602 -0.4613
   52MOL0     N 6936   8.972   1.491   5.012  0.2580  1.0915  0.3668
   52MOL0     N 6937   8.880   1.586   5.023 -1.0150 -0.0309 -0.4819
   52MOL0     C 6938   8.535   2.456   4.346  0.7779 -0.3795 -0.5538
   52MOL0     C 6939   8.490   2.532   4.237 -1.1154 -0.0672  0.3764
   52MOL0     C 6940   8.193   2.739   3.983 -0.7768  0.0098 -0.3263
   52MOL0     C 6941   8.112   2.844   4.035  0.2301  0.1925 -0.3662
   52MOL0     C 6942   8.059   2.940   3.943 -0.3266 -0.6650 -0.4556
   52MOL0     C 6943   8.096   2.934   3.810  0.0378  0.5632  0.8191
   52MOL0     O 6944   8.073   3.030   3.718  0.0454 -0.5172  0.3740
   52MOL0     C 6945   7.987   3.135   3.770  0.8155  1.3024 -0.2124
   52MOL0     C 6946   7.945   3.233   3.661 -0.0806  0.4254  0.1446
   52MOL0     C 6947   7.864   3.356   3.724 -0.0360  0.0025 -0.4960
   52MOL0     C 6948   7.896   3.495   3.687  0.2154 -0.1312  0.5631
   52MOL0     C 6949   8.033   3.534   3.734 -0.4909 -0.5923  0.0110
   52MOL0     C 6950   8.146   3.555   3.774 -0.0540  0.0350  0.2792
   52MOL0     C 6951   8.187   2.837   3.775  1.0759  0.8576  0.5300
   52MOL0     C 6952   8.223   2.726   3.854  0.2625  0.3591  0.6852
   52MOL0     H 6953   8.250   2.337   4.117  0.8553  0.1063 -1.4617
   52MOL0     H 6954   8.358   2.181   4.289  0.0965 -0.8047 -3.0645
   52MOL0     H 6955   8.708   2.323   4.544 -0.7729  1.2891 -1.1291
   52MOL0     H 6956   8.571   2.353   4.635  0.5622  1.5407 -1.1931
   52MOL0     H 6957   8.554   2.146   4.724 -1.6338 -0.2861 -2.7196
   52MOL0     H 6958   8.648   2.066   4.598  1.0082  0.4053 -2.6186
   52MOL0     H 6959   8.858   2.199   4.702  2.6209 -1.0049  3.3158
   52MOL0     H 6960   8.749   2.243   4.842 -2.3818  1.3976 -1.3060
   52MOL0     H 6961   8.707   2.015   4.865  1.3032  0.5196  2.9476
   52MOL0     H 6962   8.840   1.975   4.757 -0.1582 -0.1637  0.0151
   52MOL0     H 6963   8.992   2.091   4.914 -0.8957  4.4576 -0.1386
   52MOL0     H 6964   8.860   2.121   5.030 -0.2768 -0.0111 -1.1181
   52MOL0     H 6965   8.990   1.867   4.944  1.2915  2.6401 -1.3054
   52MOL0     H 6966   9.001   1.932   5.102 -1.4950 -0.9066  0.7809
   52MOL0     H 6967   8.731   1.936   5.094 -1.1077 -0.1162 -1.8551
   52MOL0     H 6968   8.764   1.804   4.980  1.8623  1.7029 -1.8976
   52MOL0     H 6969   8.725   1.720   5.231  1.4667 -3.3197 -0.7406
   52MOL0     H 6970   8.865   1.825   5.266 -1.6473  0.4060 -1.0584
   52MOL0     H 6971   9.014   1.577   5.327  0.5213 -0.3347  0.4471
   52MOL0     H 6972   9.143   1.399   5.301  0.1197  0.2550  0.5490
   52MOL0     H 6973   9.075   1.273   5.187  2.2431 -1.3522 -0.7484
   52MOL0     H 6974   9.259   1.311   5.029 -1.3816 -2.8196  1.6944
   52MOL0     H 6975   9.330   1.285   5.185  0.2810  0.4992  0.9819
   52MOL0     H 6976   9.379   1.519   5.218 -0.8849  2.5753 -0.2114
   52MOL0     H 6977   9.289   1.561   5.066 -0.3981 -0.8663 -0.9203
   52MOL0     H 6978   9.509   1.567   5.054 -1.4324  1.2079 -3.2319
   52MOL0     H 6979   9.462   1.446   4.941 -1.5206  3.8379 -0.5649
   52MOL0     H 6980   9.698   1.160   5.167 -0.5705  3.4766  3.3891
   52MOL0     H 6981   9.854   1.010   5.116  0.2324 -0.8828  0.9440
   52MOL0     H 6982  10.013   1.040   5.077 -0.3553  1.3523 -1.8494
   52MOL0     H 6983   9.940   1.069   5.249  0.4821 -0.3812 -0.2727
   52MOL0     H 6984  10.233   1.493   4.770  1.3163 -0.8236 -0.8224
   52MOL0     H 6985  10.441   1.498   4.641  0.0210 -1.4123 -0.8479
   52MOL0     H 6986  10.561   1.334   4.561  0.0367  2.0606  0.3777
   52MOL0     H 6987  10.728   1.357   4.532 -1.9346 -0.1539 -2.5284
   52MOL0     H 6988  10.788   1.165   4.652 -0.6446  0.2860  0.2110
   52MOL0     H 6989  10.620   1.139   4.702 -3.9430  0.5119 -3.0660
   52MOL0     H 6990  10.737   1.017   4.513  2.6867  2.0461 -0.2315
   52MOL0     H 6991  10.712   1.170   4.417 -2.5102  1.1091  0.2862
   52MOL0     H 6992  10.485   1.019   4.572  0.9307 -0.5658 -1.0851
   52MOL0     H 6993  10.454   1.153   4.457  1.4993 -0.3529 -3.5856
   52MOL0     H 6994  10.541   0.991   4.277 -0.5892 -3.0785 -1.4053
   52MOL0     H 6995  10.382   0.970   4.343  0.4081  1.2206 -2.3501
   52MOL0     H 6996  10.627   0.807   4.459 -0.0296 -0.4037 -0.5112
   52MOL0     H 6997  10.472   0.780   4.486  5.8576 -1.6229  4.2502
   52MOL0     H 6998  10.654   0.758   4.246 -0.5846 -1.5496 -0.6157
   52MOL0     H 6999  10.496   0.783   4.186 -1.3629 -1.2650 -0.1105
   52MOL0     H 7000  10.403   0.592   4.333 -1.3729  1.9983 -3.2156
   52MOL0     H 7001  10.576   0.561   4.379  0.1860  0.2479  0.6218
   52MOL0     H 7002  10.656   1.359   4.990  1.9961  2.2797 -2.3339
   52MOL0     H 7003  10.438   1.355   5.122 -0.3846  1.6487 -0.8789
   52MOL0     H 7004   9.962   1.535   4.988 -1.6789  0.0940 -2.4137
   52MOL0     H 7005   9.741   1.563   5.045 -0.8478 -0.2412 -0.2388
   52MOL0     H 7006   8.593   2.498   4.428 -0.6014  1.6714 -0.5664
   52MOL0     H 7007   8.532   2.632   4.228 -2.4512  0.5593  0.9010
   52MOL0     H 7008   8.073   2.848   4.136 -1.0326  2.0616 -0.8807
   52MOL0     H 7009   7.992   3.012   3.988 -0.3543 -1.9749  1.7183
   52MOL0     H 7010   7.893   3.086   3.798 -1.6682  4.4154 -2.4275
   52MOL0     H 7011   8.028   3.188   3.857 -0.1237  3.7076 -1.1286
   52MOL0     H 7012   7.895   3.178   3.581 -1.4648 -1.7708  2.3668
   52MOL0     H 7013   8.039   3.275   3.623 -0.0147  0.6133  0.5102
   52MOL0     H 7014   7.876   3.344   3.832  0.5656 -0.8097 -0.6491
   52MOL0     H 7015   7.760   3.338   3.695 -0.0559 -3.3417  1.0905
   52MOL0     H 7016   7.823   3.563   3.733 -2.0560 -2.8284  1.2453
   52MOL0     H 7017   7.896   3.497   3.578  2.2426 -3.5941  0.3630
   52MOL0     H 7018   8.246   3.573   3.808 -0.7036  0.4822  2.0878
   52MOL0     H 7019   8.218   2.851   3.672 -0.0237 -0.4152  0.0118
   52MOL0     H 7020   8.283   2.641   3.825 -0.6900  0.5616 -2.1617
   53MOL0     O 7021   2.664   5.815   6.934  0.3520 -0.0910 -0.9224
   53MOL0     C 7022   2.634   5.804   7.054  0.3555 -0.0398  1.2346
   53MOL0     O 7023   2.550   5.877   7.131 -0.4503 -0.4699  0.1726
   53MOL0     C 7024   2.479   5.979   7.068  0.0275  0.1392  0.1346
   53MOL0     C 7025   2.542   6.095   7.036 -1.1192 -0.2256 -0.0615
   53MOL0     C 7026   2.460   6.203   6.990  0.2650 -0.2843  0.2748
   53MOL0     C 7027   2.320   6.198   6.989  0.5981 -0.4709  0.1151
   53MOL0     O 7028   2.243   6.310   6.960  0.3205  0.3349  0.4180
   53MOL0     C 7029   2.197   6.334   6.828 -0.2716  0.0669  0.8321
   53MOL0     C 7030   2.322   6.355   6.732 -0.5781 -0.7845 -0.5784
   53MOL0     C 7031   2.297   6.359   6.583 -0.1605 -0.1121 -0.0516
   53MOL0     C 7032   2.239   6.219   6.545 -0.6943  0.5464  1.0710
   53MOL0     C 7033   2.227   6.200   6.392 -1.5246  0.5013  0.4216
   53MOL0     C 7034   2.137   6.303   6.309  0.0641  0.4446  0.4708
   53MOL0     C 7035   2.125   6.241   6.163  0.3033 -0.9605  0.7324
   53MOL0     C 7036   2.029   6.325   6.065  0.2009 -0.2421  0.3312
   53MOL0     N 7037   1.891   6.317   6.109  1.1914  0.0383 -1.3413
   53MOL0     C 7038   1.818   6.200   6.121 -0.3185  0.6068  0.0626
   53MOL0     C 7039   1.706   6.239   6.202 -0.0815  1.0843  0.3449
   53MOL0     C 7040   1.607   6.143   6.249 -0.0450  0.0105  0.0755
   53MOL0     C 7041   1.579   6.031   6.143  0.4263 -0.6248  0.0207
   53MOL0     C 7042   1.466   5.932   6.167  0.5149 -0.3425  0.1650
   53MOL0     C 7043   1.491   5.858   6.302  0.8260  0.5649 -1.2175
   53MOL0     O 7044   1.407   5.902   6.407  0.6457 -0.8439  0.7271
   53MOL0     C 7045   1.373   5.823   6.514 -0.1316  0.1027 -0.1587
   53MOL0     C 7046   1.442   5.711   6.561 -0.0163  0.0824  0.2127
   53MOL0     C 7047   1.374   5.604   6.620 -0.8292 -1.6227  0.0487
   53MOL0     C 7048   1.458   5.484   6.645  0.1502  0.9147 -0.1897
   53MOL0     C 7049   1.241   5.615   6.646 -0.4291 -0.1841 -0.0692
   53MOL0     C 7050   1.146   5.512   6.711  0.2130 -0.9722  0.2990
   53MOL0     O 7051   1.193   5.410   6.789  0.1786 -0.5785  0.3145
   53MOL0     C 7052   1.113   5.315   6.844  0.3964  1.2379 -0.3883
   53MOL0     C 7053   1.056   5.211   6.763 -0.4657 -0.2879  0.7801
   53MOL0     C 7054   0.975   5.114   6.820  0.4599 -0.1981 -0.6421
   53MOL0     C 7055   0.973   5.107   6.962  0.2459  0.5653 -0.9972
   53MOL0     O 7056   0.876   5.024   7.010  0.3014 -0.1780  0.4505
   53MOL0     C 7057   0.901   4.880   6.977 -0.0989  0.4502  0.5699
   53MOL0     C 7058   1.008   4.824   7.076  0.9436 -0.7718 -0.0329
   53MOL0     C 7059   1.063   4.692   7.017  0.1335  0.7808  1.0135
   53MOL0     C 7060   1.196   4.656   7.086 -0.4152  0.0435  1.4144
   53MOL0     C 7061   1.255   4.520   7.041  0.9585  0.1235  0.0160
   53MOL0     C 7062   1.299   4.506   6.889  0.6064  0.6096  0.4194
   53MOL0     C 7063   1.365   4.371   6.877  0.4039 -1.2219  0.8137
   53MOL0     C 7064   1.409   4.336   6.736 -0.1379  0.1251  0.3077
   53MOL0    Cl 7065   1.496   4.480   6.657  0.5355 -0.5701 -0.4238
   53MOL0     C 7066   1.031   5.213   7.047  0.0935 -0.3546  0.7357
   53MOL0     C 7067   1.106   5.315   6.988 -0.3396  1.5520 -0.0954
   53MOL0     O 7068   1.027   5.533   6.683 -0.0777 -0.1097  0.5392
   53MOL0     C 7069   1.178   5.740   6.617  0.2916  0.9432 -0.0433
   53MOL0     C 7070   1.240   5.842   6.549  0.0707  2.0104  0.8686
   53MOL0     N 7071   1.723   6.361   6.257  0.1220  0.5403  0.5051
   53MOL0     N 7072   1.831   6.392   6.203 -0.3253 -0.0889  1.3019
   53MOL0     C 7073   2.262   6.071   7.018  0.0088  0.2147 -0.3738
   53MOL0     C 7074   2.336   5.967   7.067 -0.5032  0.2545 -0.5222
   53MOL0     C 7075   2.722   5.723   7.128 -0.0010  0.2035 -0.3080
   53MOL0     C 7076   2.816   5.636   7.061 -0.2597  0.1498  0.8458
   53MOL0     C 7077   2.895   5.556   7.136  0.8791  0.5169  0.1542
   53MOL0     C 7078   2.883   5.548   7.276  0.2287 -0.1299  0.5762
   53MOL0     O 7079   2.949   5.461   7.359  0.4525  0.1108  0.0249
   53MOL0     C 7080   3.086   5.444   7.347  0.4839  0.3546  0.3353
   53MOL0     C 7081   3.138   5.327   7.440 -0.3215  0.8132 -0.0268
   53MOL0     C 7082   3.083   5.188   7.391  0.1010 -0.4363 -0.4486
   53MOL0     C 7083   3.179   5.121   7.296  0.5843  0.2054 -0.7531
   53MOL0     C 7084   3.137   4.985   7.257 -0.7571  0.0766  0.0110
   53MOL0     C 7085   3.110   4.870   7.234 -0.4170 -0.1031  0.1354
   53MOL0     C 7086   2.784   5.629   7.342 -0.0918  0.5051  0.1591
   53MOL0     C 7087   2.705   5.716   7.265 -0.7988 -0.2960 -0.8164
   53MOL0     H 7088   2.648   6.113   7.051 -0.7647 -2.3028  0.1769
   53MOL0     H 7089   2.509   6.298   6.973 -0.6114  0.3289  1.0470
   53MOL0     H 7090   2.132   6.255   6.786  0.1372  1.1105 -1.9915
   53MOL0     H 7091   2.142   6.428   6.828  0.5133  0.7134 -3.2019
   53MOL0     H 7092   2.373   6.448   6.759  0.5256 -1.9064  1.4685
   53MOL0     H 7093   2.393   6.273   6.739  0.1091 -0.5611 -3.6502
   53MOL0     H 7094   2.236   6.439   6.540  2.0295  1.0631 -1.1574
   53MOL0     H 7095   2.385   6.372   6.518 -1.3698  0.4509 -1.6443
   53MOL0     H 7096   2.300   6.144   6.596 -1.3147  0.9313  2.4258
   53MOL0     H 7097   2.134   6.205   6.572 -0.5145 -1.2889  0.9141
   53MOL0     H 7098   2.330   6.197   6.355 -1.2100  2.0220  1.0982
   53MOL0     H 7099   2.192   6.099   6.369 -1.4679  0.9778 -2.0745
   53MOL0     H 7100   2.038   6.298   6.355 -1.9974  0.0529 -3.6073
   53MOL0     H 7101   2.175   6.406   6.306  1.3682  0.0069  1.0754
   53MOL0     H 7102   2.228   6.257   6.130  0.5669 -3.2970  0.2874
   53MOL0     H 7103   2.098   6.135   6.162 -2.2817 -0.3732  0.6399
   53MOL0     H 7104   2.034   6.290   5.962 -4.5144 -2.2476  0.5207
   53MOL0     H 7105   2.072   6.425   6.067  0.3892 -0.2944  3.0146
   53MOL0     H 7106   1.835   6.102   6.078  0.5266 -0.9738  3.6947
   53MOL0     H 7107   1.655   6.107   6.341  2.4298 -0.8297 -1.4437
   53MOL0     H 7108   1.514   6.196   6.269  0.4666  1.2768 -0.7603
   53MOL0     H 7109   1.670   5.983   6.106  1.1499  1.7321 -1.5137
   53MOL0     H 7110   1.542   6.080   6.052  2.9899  2.4544  0.4706
   53MOL0     H 7111   1.487   5.856   6.091  0.5687 -2.2669  1.9741
   53MOL0     H 7112   1.367   5.971   6.145  1.8764  2.7149 -1.0467
   53MOL0     H 7113   1.598   5.870   6.322  1.3997 -1.8260 -2.5375
   53MOL0     H 7114   1.474   5.752   6.284 -0.1721  0.0486  2.0660
   53MOL0     H 7115   1.548   5.699   6.539  0.3902  1.7749  1.1160
   53MOL0     H 7116   1.552   5.490   6.590 -0.1023 -2.5564 -1.2301
   53MOL0     H 7117   1.478   5.480   6.753  1.0238  2.4411 -0.2618
   53MOL0     H 7118   1.405   5.394   6.613 -0.3621  0.1101  2.6349
   53MOL0     H 7119   1.086   5.217   6.659  0.6495 -1.2765  1.0239
   53MOL0     H 7120   0.914   5.054   6.754 -2.7684  1.0906  0.9632
   53MOL0     H 7121   0.809   4.821   6.978  1.1437 -1.6017 -0.1650
   53MOL0     H 7122   0.935   4.867   6.874  0.3558  2.1337  0.4714
   53MOL0     H 7123   1.095   4.888   7.095  0.3994 -0.6834  2.4161
   53MOL0     H 7124   0.957   4.818   7.172  1.0992 -0.5515  0.0656
   53MOL0     H 7125   1.065   4.687   6.908 -2.5071 -1.0634  0.9800
   53MOL0     H 7126   0.992   4.616   7.051 -1.5081  1.8012 -0.0176
   53MOL0     H 7127   1.273   4.733   7.076 -0.2330 -0.2821  0.1305
   53MOL0     H 7128   1.172   4.647   7.193 -0.8212 -1.2498  1.2282
   53MOL0     H 7129   1.187   4.439   7.066 -1.2906  1.0959 -2.4762
   53MOL0     H 7130   1.342   4.499   7.104  0.6510  0.1701  0.4621
   53MOL0     H 7131   1.202   4.500   6.839 -0.1298 -1.0984  1.9311
   53MOL0     H 7132   1.362   4.591   6.861 -0.5550  1.1772 -0.5629
   53MOL0     H 7133   1.292   4.298   6.913  2.1599 -2.0363  2.9057
   53MOL0     H 7134   1.446   4.362   6.949 -0.7570  3.8140  3.2563
   53MOL0     H 7135   1.321   4.313   6.674  0.7142  0.6627 -1.1391
   53MOL0     H 7136   1.465   4.243   6.728 -2.3412 -1.1137 -4.3330
   53MOL0     H 7137   1.019   5.219   7.154  0.2358  1.5872  0.6872
   53MOL0     H 7138   1.148   5.393   7.052  2.3542 -2.0301  2.9584
   53MOL0     H 7139   1.073   5.766   6.623 -0.4560 -1.1677 -2.1184
   53MOL0     H 7140   1.192   5.925   6.498  2.1068  2.5406 -0.3017
   53MOL0     H 7141   2.155   6.072   7.000 -0.1471  0.9657  0.5320
   53MOL0     H 7142   2.292   5.874   7.100  0.9642 -0.2180  0.2262
   53MOL0     H 7143   2.837   5.630   6.954  0.9054 -0.8536  1.1035
   53MOL0     H 7144   2.967   5.484   7.101  0.2345  0.0964 -0.3291
   53MOL0     H 7145   3.109   5.418   7.243 -1.8518 -0.6404  0.0226
   53MOL0     H 7146   3.139   5.539   7.358  1.7696 -0.0723 -1.5476
   53MOL0     H 7147   3.099   5.322   7.542 -1.1033 -0.5803 -0.3702
   53MOL0     H 7148   3.247   5.329   7.443 -0.3270  0.0208  0.7884
   53MOL0     H 7149   2.984   5.192   7.345  0.7367 -2.2692 -2.1505
   53MOL0     H 7150   3.084   5.120   7.476  1.5474  0.8691  0.6446
   53MOL0     H 7151   3.281   5.113   7.335  0.2599 -3.0540 -0.2836
   53MOL0     H 7152   3.178   5.175   7.201  1.4640 -1.1681 -1.5783
   53MOL0     H 7153   3.082   4.766   7.226 -1.6467  0.3257 -1.7086
   53MOL0     H 7154   2.758   5.612   7.446  2.7747 -1.0107  0.7218
   53MOL0     H 7155   2.630   5.755   7.334  1.8206 -0.2728  2.2463
   54MOL0     O 7156  10.856  10.991   7.484 -0.0832  0.1815 -0.0023
   54MOL0     C 7157  10.875  10.922   7.380  0.2297 -0.6008 -0.4156
   54MOL0     O 7158  10.983  10.935   7.314 -0.0371  0.0393  0.2550
   54MOL0     C 7159  11.091  11.007   7.356  0.0552 -0.2513 -0.0843
   54MOL0     C 7160  11.103  11.138   7.313  0.5211  0.0457 -0.5282
   54MOL0     C 7161  11.212  11.226   7.365  0.8249  0.7247  0.9152
   54MOL0     C 7162  11.304  11.164   7.453 -0.8733  0.1757 -0.4928
   54MOL0     O 7163  11.416  11.229   7.493  0.3243  0.7260  0.7732
   54MOL0     C 7164  11.458  11.366   7.464 -0.1132  0.0113 -0.1632
   54MOL0     C 7165  11.543  11.412   7.587 -0.0541  0.2160 -0.0552
   54MOL0     C 7166  11.555  11.567   7.576 -0.6512  0.1326  0.7896
   54MOL0     C 7167  11.685  11.617   7.642  1.4582  0.2844 -0.4573
   54MOL0     C 7168  11.704  11.765   7.625 -0.7131  0.4839 -0.9865
   54MOL0     C 7169  11.814  11.817   7.721  0.1625  0.4396  0.0354
   54MOL0     C 7170  11.870  11.960   7.677  0.2864  0.3036 -0.2308
   54MOL0     C 7171  11.776  12.079   7.679 -0.0107 -0.4330 -0.4721
   54MOL0     N 7172  11.854  12.198   7.713  0.1014  0.0551  0.2359
   54MOL0     C 7173  11.994  12.218   7.680  0.3296 -0.0570 -1.1764
   54MOL0     C 7174  12.017  12.355   7.716 -0.0744 -0.0018  1.3822
   54MOL0     C 7175  12.154  12.422   7.688 -0.4519  0.8649  0.1517
   54MOL0     C 7176  12.269  12.368   7.773  0.2841  0.1161 -0.1219
   54MOL0     C 7177  12.398  12.362   7.683  0.9320  0.3405  0.0450
   54MOL0     C 7178  12.454  12.503   7.636  0.6460  0.8779  0.3410
   54MOL0     O 7179  12.405  12.546   7.500  0.1232  0.0634 -0.4262
   54MOL0     C 7180  12.433  12.677   7.461  0.5398 -0.1738 -0.3106
   54MOL0     C 7181  12.387  12.789   7.525  0.4486 -0.9259 -0.5540
   54MOL0     C 7182  12.427  12.924   7.489  0.3736 -0.1380 -0.5504
   54MOL0     C 7183  12.370  13.046   7.554  0.9750  0.5314 -0.0873
   54MOL0     C 7184  12.536  12.940   7.388  0.0605 -0.4930 -1.4986
   54MOL0     C 7185  12.589  13.067   7.338  0.7421 -0.2512 -1.2105
   54MOL0     O 7186  12.521  13.182   7.365 -0.7653  0.3275  0.4905
   54MOL0     C 7187  12.582  13.301   7.316 -0.1785  0.2285 -0.6402
   54MOL0     C 7188  12.601  13.403   7.419  0.3515 -0.6500  0.4045
   54MOL0     C 7189  12.655  13.533   7.390 -0.5283  0.2054  0.1274
   54MOL0     C 7190  12.679  13.559   7.261 -0.7065 -0.3279  0.3590
   54MOL0     O 7191  12.716  13.683   7.208  0.2133 -0.1953  0.5126
   54MOL0     C 7192  12.695  13.806   7.282  0.4212  0.2413 -0.1032
   54MOL0     C 7193  12.664  13.913   7.180  0.7171 -0.9763 -0.3389
   54MOL0     C 7194  12.774  13.961   7.083  0.8217  0.3452 -0.1734
   54MOL0     C 7195  12.718  14.051   6.977  1.5372 -0.1794 -0.3604
   54MOL0     C 7196  12.825  14.140   6.898 -0.4107  0.6504 -0.2121
   54MOL0     C 7197  12.765  14.270   6.861  0.3291 -0.6502 -0.9087
   54MOL0     C 7198  12.870  14.365   6.797 -0.2541  0.4238 -0.2274
   54MOL0     C 7199  12.806  14.475   6.708  0.1421  0.3284  0.8429
   54MOL0    Cl 7200  12.668  14.539   6.786  0.0894  0.3587  0.6214
   54MOL0     C 7201  12.666  13.456   7.165  0.1531 -0.1023  0.1008
   54MOL0     C 7202  12.603  13.338   7.188  0.2365  0.5217  0.2208
   54MOL0     O 7203  12.705  13.062   7.297  0.0948 -0.4119  0.0092
   54MOL0     C 7204  12.587  12.821   7.331 -0.3604  1.1552  0.2089
   54MOL0     C 7205  12.534  12.704   7.362 -0.9738  0.6935 -0.8506
   54MOL0     N 7206  11.892  12.413   7.746 -0.5975  0.1489  0.0080
   54MOL0     N 7207  11.803  12.318   7.749 -0.4694  1.0961  0.5550
   54MOL0     C 7208  11.290  11.030   7.487 -0.5882  0.2607  0.4500
   54MOL0     C 7209  11.189  10.943   7.441 -0.0003 -0.7552  0.3191
   54MOL0     C 7210  10.762  10.835   7.341 -0.1988 -0.0094 -0.4086
   54MOL0     C 7211  10.668  10.786   7.431 -0.7896  0.0905 -0.2459
   54MOL0     C 7212  10.561  10.707   7.390  0.5835  0.3985  0.4751
   54MOL0     C 7213  10.556  10.669   7.253  0.9034  0.0363  0.4933
   54MOL0     O 7214  10.449  10.590   7.218 -0.6014  0.8007  0.1648
   54MOL0     C 7215  10.457  10.511   7.090  0.6380 -0.0103 -0.1109
   54MOL0     C 7216  10.324  10.439   7.076 -0.3227 -0.9152 -0.2560
   54MOL0     C 7217  10.202  10.531   7.101  0.1980 -0.5903  0.3084
   54MOL0     C 7218  10.187  10.626   6.981  0.3118  0.6202  0.8289
   54MOL0     C 7219  10.198  10.561   6.851 -0.1430  0.0704  0.4118
   54MOL0     C 7220  10.206  10.489   6.753  0.2973  0.4200  0.3386
   54MOL0     C 7221  10.659  10.709   7.164  0.4744  0.6098 -0.3243
   54MOL0     C 7222  10.751  10.797   7.215 -0.7928  0.0091 -0.9845
   54MOL0     H 7223  11.030  11.175   7.241 -1.7432 -2.4883  0.2521
   54MOL0     H 7224  11.207  11.330   7.333 -2.4424  0.9752  1.8534
   54MOL0     H 7225  11.518  11.373   7.372  0.9324  4.0862  0.6180
   54MOL0     H 7226  11.366  11.424   7.458 -0.5403 -0.2269  2.6594
   54MOL0     H 7227  11.495  11.368   7.675  2.0493 -3.8685 -0.7389
   54MOL0     H 7228  11.642  11.371   7.567 -0.2276 -1.1201  1.5760
   54MOL0     H 7229  11.569  11.593   7.470 -3.1740  3.1447  1.0373
   54MOL0     H 7230  11.464  11.603   7.625  0.4417 -0.6581  3.5216
   54MOL0     H 7231  11.668  11.594   7.748  1.3996 -1.9093 -0.9058
   54MOL0     H 7232  11.771  11.559   7.609 -0.3006 -1.8582 -1.4624
   54MOL0     H 7233  11.726  11.788   7.521 -0.6343 -0.0850 -1.0947
   54MOL0     H 7234  11.617  11.816   7.669  1.5949  4.1879 -0.2518
   54MOL0     H 7235  11.769  11.811   7.820  0.1792  0.9440  0.0764
   54MOL0     H 7236  11.891  11.740   7.711 -1.4409 -1.1982 -0.3253
   54MOL0     H 7237  11.950  11.983   7.747  1.7106 -4.5136  0.0891
   54MOL0     H 7238  11.907  11.947   7.574  1.5547  1.0795  0.1066
   54MOL0     H 7239  11.703  12.056   7.758  1.6338  1.0492  1.6067
   54MOL0     H 7240  11.734  12.101   7.581  0.3805  6.0554  0.4008
   54MOL0     H 7241  12.071  12.155   7.636 -1.0982 -3.7780  1.1458
   54MOL0     H 7242  12.172  12.420   7.580  0.0962 -0.8369  0.2444
   54MOL0     H 7243  12.140  12.526   7.719  0.9199  1.0447  0.2288
   54MOL0     H 7244  12.235  12.266   7.797 -3.1367  1.4591  1.3922
   54MOL0     H 7245  12.293  12.416   7.868  0.2496 -1.3279  0.6487
   54MOL0     H 7246  12.379  12.302   7.594 -2.4496  2.1510 -0.6405
   54MOL0     H 7247  12.476  12.321   7.746  1.1450 -1.8803 -1.5755
   54MOL0     H 7248  12.561  12.489   7.617  0.8355  1.3669  1.0209
   54MOL0     H 7249  12.434  12.582   7.708 -1.1175 -0.1380  1.0127
   54MOL0     H 7250  12.312  12.773   7.602 -1.1963  1.2308 -1.5909
   54MOL0     H 7251  12.286  13.078   7.492 -0.2113 -2.8870 -0.4483
   54MOL0     H 7252  12.320  13.004   7.641  4.0505  0.7032  1.9152
   54MOL0     H 7253  12.443  13.120   7.587  0.8155  0.4507  0.4457
   54MOL0     H 7254  12.582  13.373   7.522  1.5666 -1.1094  0.5147
   54MOL0     H 7255  12.647  13.604   7.471 -4.9490 -0.8984  0.9565
   54MOL0     H 7256  12.616  13.806   7.358 -0.0081  0.2137 -0.5431
   54MOL0     H 7257  12.791  13.814   7.333  2.5885  1.4842 -3.9771
   54MOL0     H 7258  12.579  13.879   7.120 -2.0148  1.8019  1.6309
   54MOL0     H 7259  12.612  13.999   7.224 -1.4907 -1.4848 -1.8112
   54MOL0     H 7260  12.821  13.874   7.037  1.6220  0.0582  1.1325
   54MOL0     H 7261  12.858  14.012   7.130  2.1807 -1.2083 -0.8352
   54MOL0     H 7262  12.654  14.013   6.897 -0.8953  1.1489  0.8651
   54MOL0     H 7263  12.650  14.122   7.025 -0.1496  0.1900 -3.0737
   54MOL0     H 7264  12.854  14.090   6.805  1.4114 -1.3085  1.3342
   54MOL0     H 7265  12.915  14.141   6.959 -1.1807  2.2433  0.9778
   54MOL0     H 7266  12.673  14.263   6.803 -2.8347  0.6381  3.4785
   54MOL0     H 7267  12.737  14.325   6.951 -3.1478  1.3031 -2.9685
   54MOL0     H 7268  12.951  14.319   6.738  0.1835 -0.1333  0.7909
   54MOL0     H 7269  12.914  14.421   6.881 -0.5904 -0.4718  0.5493
   54MOL0     H 7270  12.773  14.438   6.611 -2.3273  2.3615  0.8002
   54MOL0     H 7271  12.875  14.559   6.702  1.3612 -0.7369 -1.1702
   54MOL0     H 7272  12.684  13.489   7.063 -0.2173 -1.8694 -0.5688
   54MOL0     H 7273  12.583  13.257   7.119  1.5410  0.0946  0.3273
   54MOL0     H 7274  12.640  12.830   7.237 -1.5574 -1.1561 -0.7471
   54MOL0     H 7275  12.584  12.617   7.318  1.2553  1.4338  0.0908
   54MOL0     H 7276  11.367  10.994   7.556 -0.6540 -3.8497 -1.3111
   54MOL0     H 7277  11.173  10.840   7.471  3.3683 -1.5056  0.0004
   54MOL0     H 7278  10.682  10.801   7.537 -0.1838 -2.6867  0.1304
   54MOL0     H 7279  10.489  10.663   7.458  0.1582  1.1434  0.5143
   54MOL0     H 7280  10.476  10.590   7.016  2.3221  0.5376  0.8446
   54MOL0     H 7281  10.527  10.427   7.090 -1.3522 -2.0121  4.8087
   54MOL0     H 7282  10.320  10.353   7.142 -1.5542 -1.8008 -1.4384
   54MOL0     H 7283  10.336  10.394   6.977  2.6870 -1.0868  0.0846
   54MOL0     H 7284  10.215  10.589   7.193 -1.0398  2.0304 -1.0436
   54MOL0     H 7285  10.106  10.481   7.110 -0.7123  1.1316  0.7577
   54MOL0     H 7286  10.271  10.696   6.994 -0.7952  2.3085 -0.6401
   54MOL0     H 7287  10.101  10.693   6.975 -1.0702 -1.1377  0.5828
   54MOL0     H 7288  10.224  10.415   6.678 -1.2512  0.1537  0.1895
   54MOL0     H 7289  10.659  10.678   7.060 -1.9649 -0.0199 -0.2106
   54MOL0     H 7290  10.830  10.829   7.147  0.8884 -0.6383  0.5919
   55MOL0     O 7291   9.269   4.099   9.474 -1.9896 -0.1394  0.0909
   55MOL0     C 7292   9.350   4.062   9.557  0.2097 -0.3031  1.2039
   55MOL0     O 7293   9.484   4.039   9.530 -0.5594  0.2052  0.2734
   55MOL0     C 7294   9.554   4.108   9.427 -0.4347  0.4362 -1.2214
   55MOL0     C 7295   9.511   4.230   9.370 -0.8898 -1.0373  0.2089
   55MOL0     C 7296   9.592   4.298   9.276 -0.6363 -0.8761  0.0055
   55MOL0     C 7297   9.692   4.230   9.206  0.8210  0.1942  1.1959
   55MOL0     O 7298   9.761   4.296   9.102 -0.3217 -0.2847  0.8724
   55MOL0     C 7299   9.718   4.262   8.963  0.2066  0.2235  0.1331
   55MOL0     C 7300   9.750   4.374   8.865 -0.9656  0.2171 -0.2919
   55MOL0     C 7301   9.639   4.476   8.869 -0.5909 -0.7606 -0.9605
   55MOL0     C 7302   9.652   4.603   8.781 -0.0818 -0.8164 -0.6746
   55MOL0     C 7303   9.588   4.726   8.839  0.6921  0.1883 -0.3131
   55MOL0     C 7304   9.595   4.855   8.761  0.2398 -0.5348 -0.7727
   55MOL0     C 7305   9.743   4.895   8.729 -0.6260  0.2331  0.0431
   55MOL0     C 7306   9.757   5.052   8.731 -0.0675  1.1966  0.0881
   55MOL0     N 7307   9.661   5.102   8.628  0.3973  0.6311 -0.0877
   55MOL0     C 7308   9.532   5.145   8.651 -0.5557 -0.0961 -0.5782
   55MOL0     C 7309   9.482   5.186   8.529 -0.3235 -0.9086  0.0473
   55MOL0     C 7310   9.349   5.245   8.495 -0.0635  0.8885 -0.7222
   55MOL0     C 7311   9.231   5.233   8.586  0.3122  0.9357  0.7176
   55MOL0     C 7312   9.105   5.283   8.524 -0.1574  0.4150 -0.6230
   55MOL0     C 7313   8.979   5.245   8.617 -0.8433  0.0435  1.1196
   55MOL0     O 7314   8.972   5.107   8.615 -0.3711  0.0221  0.1050
   55MOL0     C 7315   8.862   5.046   8.675 -0.6564 -0.1257  0.5830
   55MOL0     C 7316   8.826   4.926   8.618 -1.1350  0.7140 -0.1640
   55MOL0     C 7317   8.712   4.861   8.660 -0.7952  0.3618 -0.0755
   55MOL0     C 7318   8.680   4.726   8.588  0.1536  0.5070 -0.0253
   55MOL0     C 7319   8.625   4.910   8.767 -0.9368  0.0647 -0.3040
   55MOL0     C 7320   8.491   4.842   8.812 -0.5559 -0.3186  0.3856
   55MOL0     O 7321   8.436   4.893   8.927 -0.5372  0.6024  0.4424
   55MOL0     C 7322   8.340   4.814   8.985  0.4043 -0.3378 -0.0688
   55MOL0     C 7323   8.210   4.827   8.932 -0.4975  0.1260 -0.7698
   55MOL0     C 7324   8.106   4.756   8.988  0.4465  0.1922  0.1024
   55MOL0     C 7325   8.124   4.693   9.113  0.0078  0.1915 -0.5216
   55MOL0     O 7326   8.017   4.641   9.179 -1.0626  0.5049  0.7516
   55MOL0     C 7327   7.906   4.584   9.097 -0.8870 -0.2480 -0.3360
   55MOL0     C 7328   7.781   4.549   9.180  0.0896 -1.0459  0.1189
   55MOL0     C 7329   7.811   4.465   9.298 -0.6850 -0.0529 -0.1831
   55MOL0     C 7330   7.765   4.320   9.259  0.0685  0.7923 -0.4816
   55MOL0     C 7331   7.800   4.194   9.352  0.7547 -0.1894  0.2787
   55MOL0     C 7332   7.714   4.071   9.298 -0.6513 -0.1116 -0.1316
   55MOL0     C 7333   7.659   3.991   9.415  0.3307  0.1637 -0.4010
   55MOL0     C 7334   7.534   4.063   9.483  0.4913 -0.4606  0.4586
   55MOL0    Cl 7335   7.407   4.102   9.355 -0.3333  0.2642 -0.0270
   55MOL0     C 7336   8.253   4.684   9.164 -0.2381 -0.4000 -0.6573
   55MOL0     C 7337   8.362   4.735   9.101 -0.3874 -0.8530  0.4938
   55MOL0     O 7338   8.436   4.766   8.731  1.1124 -1.0741 -0.8018
   55MOL0     C 7339   8.669   5.036   8.821 -0.0782 -0.1391 -0.6804
   55MOL0     C 7340   8.791   5.099   8.783  0.1800  0.8135 -0.0284
   55MOL0     N 7341   9.586   5.176   8.431 -0.2813  0.7410 -0.0805
   55MOL0     N 7342   9.685   5.123   8.495  0.5839  0.1756  0.1427
   55MOL0     C 7343   9.726   4.105   9.260 -0.9961  0.0413  0.5493
   55MOL0     C 7344   9.661   4.043   9.370  0.0039 -0.4306  0.0920
   55MOL0     C 7345   9.283   4.008   9.682  0.4586 -0.3585 -1.0462
   55MOL0     C 7346   9.371   3.970   9.789  0.0249  0.3527 -0.0369
   55MOL0     C 7347   9.320   3.928   9.912 -0.2943 -0.8817  0.0009
   55MOL0     C 7348   9.179   3.919   9.928  0.0094 -0.0833 -1.0449
   55MOL0     O 7349   9.121   3.878  10.049 -0.9666 -0.3826 -0.2272
   55MOL0     C 7350   9.194   3.857  10.180  1.1131  0.1179  0.3377
   55MOL0     C 7351   9.103   3.766  10.264  0.5726 -0.5080  0.1787
   55MOL0     C 7352   9.125   3.623  10.228  0.3277  0.4410  0.8850
   55MOL0     C 7353   9.072   3.526  10.333 -1.1474  0.2884 -0.5446
   55MOL0     C 7354   9.132   3.538  10.466 -0.1072 -0.0798 -0.7413
   55MOL0     C 7355   9.166   3.537  10.584  0.4314  0.3243  0.5620
   55MOL0     C 7356   9.091   3.944   9.828 -0.2776  1.2971  0.9763
   55MOL0     C 7357   9.144   3.998   9.707  0.2148 -0.1358  0.8444
   55MOL0     H 7358   9.423   4.287   9.398 -0.3651  0.6203 -1.3259
   55MOL0     H 7359   9.589   4.401   9.243 -0.9151 -0.7604  0.3909
   55MOL0     H 7360   9.778   4.171   8.949 -0.6073 -0.1811 -0.8288
   55MOL0     H 7361   9.614   4.230   8.953  0.4581 -0.6444  0.2092
   55MOL0     H 7362   9.849   4.420   8.875 -0.0402 -1.8580  0.8622
   55MOL0     H 7363   9.751   4.337   8.762 -3.4925 -1.9808  0.3632
   55MOL0     H 7364   9.543   4.431   8.844 -0.5534 -1.5707  0.2779
   55MOL0     H 7365   9.657   4.516   8.969 -0.1314 -4.0794  0.4275
   55MOL0     H 7366   9.757   4.623   8.756 -0.1052 -0.5707 -0.5821
   55MOL0     H 7367   9.604   4.576   8.686 -1.7316 -1.1557  0.2100
   55MOL0     H 7368   9.483   4.696   8.848  1.2446 -1.5562  0.6849
   55MOL0     H 7369   9.619   4.744   8.942  0.5537 -1.1372 -0.0212
   55MOL0     H 7370   9.546   4.860   8.664 -0.3998  0.1276 -0.4225
   55MOL0     H 7371   9.548   4.925   8.830 -0.3519  1.1810 -2.8191
   55MOL0     H 7372   9.800   4.856   8.813  0.4711  1.9091  0.1327
   55MOL0     H 7373   9.785   4.856   8.636  0.8658  2.2152 -0.1758
   55MOL0     H 7374   9.856   5.083   8.697  1.0298 -0.7851  1.2807
   55MOL0     H 7375   9.738   5.087   8.834  0.9889 -0.3532  0.8485
   55MOL0     H 7376   9.471   5.148   8.741 -3.4024  0.5346 -2.3952
   55MOL0     H 7377   9.361   5.352   8.477 -1.8492  1.5524  1.6415
   55MOL0     H 7378   9.327   5.209   8.394 -2.8098  0.0728  0.0819
   55MOL0     H 7379   9.241   5.299   8.672 -1.7482 -2.1637  3.6025
   55MOL0     H 7380   9.227   5.131   8.626  2.1079  0.2908 -0.6348
   55MOL0     H 7381   9.097   5.250   8.420  3.4227 -3.3675  0.0180
   55MOL0     H 7382   9.100   5.392   8.523 -1.1327  0.4970  2.3155
   55MOL0     H 7383   8.889   5.294   8.578  1.1053  3.3802  0.3722
   55MOL0     H 7384   9.003   5.293   8.712 -0.2268  5.4886 -1.4082
   55MOL0     H 7385   8.879   4.899   8.527 -1.7883  0.7970 -0.5766
   55MOL0     H 7386   8.590   4.737   8.527 -0.3348 -1.5888  0.2548
   55MOL0     H 7387   8.758   4.702   8.514 -1.5008 -3.2291 -0.7425
   55MOL0     H 7388   8.668   4.654   8.668 -1.3272  1.0225  0.2363
   55MOL0     H 7389   8.177   4.877   8.842 -4.5915  0.6173  0.8124
   55MOL0     H 7390   8.017   4.747   8.927  1.0836 -1.9657 -0.6085
   55MOL0     H 7391   7.870   4.664   9.031 -1.1006  2.7043  3.0529
   55MOL0     H 7392   7.939   4.494   9.045 -2.5023  0.1613 -2.1734
   55MOL0     H 7393   7.748   4.646   9.217  1.6716 -0.4689  0.0889
   55MOL0     H 7394   7.699   4.513   9.116  0.2384  2.4343 -2.2628
   55MOL0     H 7395   7.749   4.498   9.382 -1.5581  1.8978 -1.5368
   55MOL0     H 7396   7.917   4.475   9.320  0.0636 -0.6528 -3.1970
   55MOL0     H 7397   7.656   4.321   9.269 -0.0145 -0.8385 -0.9024
   55MOL0     H 7398   7.790   4.293   9.156 -0.9504  2.1983 -1.1348
   55MOL0     H 7399   7.766   4.225   9.451  0.0632  0.7790 -0.2398
   55MOL0     H 7400   7.907   4.179   9.340  1.1230  0.1522  2.5945
   55MOL0     H 7401   7.637   4.110   9.231  0.1086  3.0742  0.6663
   55MOL0     H 7402   7.781   4.006   9.241 -0.0214 -0.6965  1.2128
   55MOL0     H 7403   7.739   3.971   9.487  1.6148  1.2720 -1.4658
   55MOL0     H 7404   7.629   3.892   9.379 -0.9458  0.6950 -0.8420
   55MOL0     H 7405   7.572   4.145   9.544  1.9766 -2.1860  2.0114
   55MOL0     H 7406   7.506   4.002   9.570  0.9281 -0.2556  0.7449
   55MOL0     H 7407   8.267   4.619   9.251 -3.7877  0.4315  0.6973
   55MOL0     H 7408   8.466   4.726   9.129 -0.0617  1.2855  0.1242
   55MOL0     H 7409   8.592   5.080   8.884  0.6719 -0.0818  0.2259
   55MOL0     H 7410   8.799   5.195   8.831 -1.8193  0.7583  0.4780
   55MOL0     H 7411   9.805   4.055   9.204 -0.0773  0.2522  1.6241
   55MOL0     H 7412   9.681   3.942   9.406 -0.5414 -0.4389  0.3667
   55MOL0     H 7413   9.479   3.971   9.781  0.0869 -1.8111 -0.0994
   55MOL0     H 7414   9.391   3.912   9.992 -1.3387 -0.1721  1.0909
   55MOL0     H 7415   9.296   3.821  10.170  0.9769  0.2908 -2.3464
   55MOL0     H 7416   9.209   3.957  10.223  0.6566  0.0286  0.7214
   55MOL0     H 7417   8.999   3.798  10.276  0.6730 -0.0050 -0.2438
   55MOL0     H 7418   9.136   3.772  10.368  2.2191  1.3469 -0.3946
   55MOL0     H 7419   9.227   3.592  10.204  1.1240  0.8644  3.3689
   55MOL0     H 7420   9.059   3.606  10.143 -1.6149  0.8393  2.2412
   55MOL0     H 7421   9.103   3.428  10.297 -0.6190  0.5731 -0.8655
   55MOL0     H 7422   8.962   3.527  10.335 -1.1506  1.8926 -0.2985
   55MOL0     H 7423   9.169   3.532  10.691  1.7531  0.7251  0.5654
   55MOL0     H 7424   8.983   3.931   9.832 -0.4054  1.9294 -0.1957
   55MOL0     H 7425   9.084   4.040   9.627  2.2274 -0.7582 -1.1183
   56MOL0     O 7426  10.633  10.773   0.945 -0.6049 -0.1682 -0.0970
   56MOL0     C 7427  10.652  10.830   0.839  0.5164 -0.9361 -0.8043
   56MOL0     O 7428  10.716  10.952   0.824 -0.5281  0.4115  0.5262
   56MOL0     C 7429  10.771  11.007   0.937 -0.4070 -0.0774 -0.1675
   56MOL0     C 7430  10.747  11.141   0.969  0.1658 -0.1081 -0.0112
   56MOL0     C 7431  10.821  11.202   1.073  0.3412 -0.2622  0.2650
   56MOL0     C 7432  10.922  11.122   1.146  1.0679 -0.2202  0.0980
   56MOL0     O 7433  10.972  11.171   1.263  0.0196 -0.4375  0.1294
   56MOL0     C 7434  11.022  11.071   1.361 -0.2687 -0.1537  0.8213
   56MOL0     C 7435  11.046  11.168   1.480 -0.0214  0.0842 -0.0748
   56MOL0     C 7436  11.077  11.088   1.606 -0.2616  0.1764 -0.7461
   56MOL0     C 7437  11.214  11.023   1.603 -0.2940  1.3084 -0.4909
   56MOL0     C 7438  11.229  10.945   1.740 -0.3150 -0.0162  0.0295
   56MOL0     C 7439  11.334  10.833   1.747 -0.3680  0.1987 -0.3536
   56MOL0     C 7440  11.472  10.888   1.695  0.4308  0.0882  0.3197
   56MOL0     C 7441  11.576  10.771   1.673  0.5213 -0.2140  0.6403
   56MOL0     N 7442  11.676  10.769   1.779  1.2544  0.3106  0.0888
   56MOL0     C 7443  11.789  10.851   1.790 -0.7046 -0.2187  1.0907
   56MOL0     C 7444  11.850  10.809   1.900  0.5526 -0.1596 -0.3782
   56MOL0     C 7445  11.953  10.885   1.979  0.4022 -0.3772  0.9146
   56MOL0     C 7446  12.020  11.011   1.921  1.2013 -0.1783  0.0454
   56MOL0     C 7447  12.089  10.992   1.791 -0.4430  0.3802 -0.3358
   56MOL0     C 7448  12.158  11.122   1.745  0.0948  0.4996  0.2159
   56MOL0     O 7449  12.271  11.161   1.830  0.5307  0.2582 -0.1836
   56MOL0     C 7450  12.325  11.286   1.822 -0.2783  0.2516 -0.1305
   56MOL0     C 7451  12.317  11.358   1.704  0.6455  0.8267 -0.1721
   56MOL0     C 7452  12.388  11.481   1.694  0.5923 -0.1479  0.2505
   56MOL0     C 7453  12.405  11.536   1.554  0.3952 -0.9174 -0.5798
   56MOL0     C 7454  12.449  11.542   1.814  0.0610 -0.3794  0.4591
   56MOL0     C 7455  12.489  11.694   1.823 -0.1957 -0.0037  0.8272
   56MOL0     O 7456  12.528  11.746   1.946  0.1000  0.8616  0.6850
   56MOL0     C 7457  12.614  11.849   1.933  0.5062  0.1785  0.1914
   56MOL0     C 7458  12.571  11.976   1.981 -0.7673 -0.5382 -0.2854
   56MOL0     C 7459  12.654  12.089   1.976  0.5418 -0.8965 -0.6641
   56MOL0     C 7460  12.779  12.085   1.913 -0.1610  0.8950 -0.9389
   56MOL0     O 7461  12.870  12.182   1.894  1.3120 -0.0601 -0.5615
   56MOL0     C 7462  12.828  12.317   1.890 -0.6090  0.3831 -0.4898
   56MOL0     C 7463  12.772  12.370   1.759  0.2885 -0.4296  0.2044
   56MOL0     C 7464  12.849  12.331   1.631  0.0388  0.1445  0.6119
   56MOL0     C 7465  12.814  12.438   1.532 -0.8415  1.1080 -0.2003
   56MOL0     C 7466  12.883  12.441   1.393 -0.4337  0.2107 -0.1974
   56MOL0     C 7467  12.898  12.586   1.339  0.4552 -0.0414  0.0954
   56MOL0     C 7468  12.943  12.609   1.195 -1.0928  0.6245  0.5262
   56MOL0     C 7469  12.905  12.741   1.121  0.0496  0.4934 -0.4238
   56MOL0    Cl 7470  12.934  12.899   1.212 -0.2732 -0.2392  0.0160
   56MOL0     C 7471  12.828  11.959   1.865  0.6057 -0.4661 -1.0046
   56MOL0     C 7472  12.754  11.842   1.888  1.0387 -0.1180 -0.4979
   56MOL0     O 7473  12.488  11.765   1.718 -0.0334 -0.0957 -0.1164
   56MOL0     C 7474  12.451  11.465   1.929 -0.7076  0.6198  0.8823
   56MOL0     C 7475  12.404  11.332   1.928 -0.9466  0.7518  0.9142
   56MOL0     N 7476  11.781  10.698   1.951  0.1790 -0.0661  0.1171
   56MOL0     N 7477  11.673  10.673   1.884 -0.3119  0.5827  0.6106
   56MOL0     C 7478  10.948  10.993   1.100 -0.8020  0.3439  0.8185
   56MOL0     C 7479  10.877  10.936   0.991 -0.4870  0.3353  0.1880
   56MOL0     C 7480  10.599  10.768   0.723  0.2970  0.4902 -0.0341
   56MOL0     C 7481  10.584  10.631   0.705  0.4771  0.8891 -0.1034
   56MOL0     C 7482  10.540  10.566   0.585  0.4612 -0.0985 -0.7059
   56MOL0     C 7483  10.528  10.638   0.468 -0.2796 -0.0978 -0.2610
   56MOL0     O 7484  10.463  10.590   0.356 -0.2927 -0.1046 -0.2304
   56MOL0     C 7485  10.440  10.445   0.337 -0.4864 -0.4338  0.8682
   56MOL0     C 7486  10.397  10.418   0.190  0.8160  0.6668 -0.1699
   56MOL0     C 7487  10.316  10.286   0.173 -0.5239 -0.2152  0.2483
   56MOL0     C 7488  10.384  10.159   0.223  1.1004 -0.4938 -0.6382
   56MOL0     C 7489  10.482  10.128   0.126  0.4831  0.0442 -0.8138
   56MOL0     C 7490  10.563  10.103   0.048 -0.1851  0.3829 -0.1116
   56MOL0     C 7491  10.546  10.776   0.480 -0.1456  0.5989  0.0507
   56MOL0     C 7492  10.576  10.837   0.602  0.0820 -0.1620  0.7294
   56MOL0     H 7493  10.682  11.194   0.900 -0.1456  0.7914  0.9429
   56MOL0     H 7494  10.797  11.305   1.097  1.6880 -0.3938  2.5095
   56MOL0     H 7495  10.935  11.007   1.376 -0.2528 -0.4629 -0.3681
   56MOL0     H 7496  11.104  11.003   1.335  0.7647  0.0173  3.2759
   56MOL0     H 7497  11.135  11.227   1.456 -2.0404  3.2845 -0.3939
   56MOL0     H 7498  10.960  11.234   1.493 -0.2680  0.6443 -3.4892
   56MOL0     H 7499  11.071  11.151   1.696 -1.5618 -2.5502  1.2322
   56MOL0     H 7500  10.999  11.012   1.610 -0.1240  0.0832  0.5580
   56MOL0     H 7501  11.228  10.966   1.511  1.0588  0.2451  0.3375
   56MOL0     H 7502  11.298  11.094   1.603  1.0200  0.0743 -4.9448
   56MOL0     H 7503  11.236  11.019   1.820 -2.4479  1.1720 -0.8093
   56MOL0     H 7504  11.133  10.895   1.758  0.4602 -1.0268  1.6618
   56MOL0     H 7505  11.355  10.799   1.849  3.4303  0.3977 -0.9277
   56MOL0     H 7506  11.298  10.753   1.682  0.2676  0.6298 -1.2429
   56MOL0     H 7507  11.455  10.928   1.595  1.9467  2.0924  0.7867
   56MOL0     H 7508  11.520  10.966   1.756  0.0138  1.2595 -0.8029
   56MOL0     H 7509  11.620  10.789   1.575  1.3395 -0.9926  0.8563
   56MOL0     H 7510  11.529  10.672   1.672  0.3019 -0.1083  0.3794
   56MOL0     H 7511  11.817  10.927   1.718 -2.2332 -1.5210 -1.0060
   56MOL0     H 7512  11.919  10.928   2.074 -2.6711 -0.4926 -0.0464
   56MOL0     H 7513  12.033  10.811   1.995  1.5667 -0.7021 -4.4949
   56MOL0     H 7514  12.088  11.044   2.001  2.3181  1.3449 -1.4519
   56MOL0     H 7515  11.938  11.083   1.914  0.3241 -1.2494 -1.0184
   56MOL0     H 7516  12.014  10.959   1.719  0.7060 -1.1170 -0.9097
   56MOL0     H 7517  12.168  10.917   1.796 -0.6505  0.2067  0.5232
   56MOL0     H 7518  12.077  11.195   1.742  1.5798  2.2624 -3.8284
   56MOL0     H 7519  12.185  11.109   1.640  3.0097  2.7032  0.5725
   56MOL0     H 7520  12.273  11.316   1.614  1.6132 -1.8287  0.5018
   56MOL0     H 7521  12.499  11.592   1.546 -0.6299  0.7232 -1.8520
   56MOL0     H 7522  12.428  11.449   1.492  1.9614 -2.4707  1.9806
   56MOL0     H 7523  12.324  11.594   1.509  0.5735 -1.2733 -1.3620
   56MOL0     H 7524  12.478  12.003   2.031 -0.2202  3.0692 -0.9464
   56MOL0     H 7525  12.607  12.182   2.007 -2.3886 -1.7935 -2.0900
   56MOL0     H 7526  12.752  12.342   1.965  0.1338 -1.1364  0.8190
   56MOL0     H 7527  12.913  12.381   1.915  0.9612 -1.2643 -1.3795
   56MOL0     H 7528  12.675  12.321   1.754 -0.1265  0.2476  1.1480
   56MOL0     H 7529  12.756  12.476   1.781  0.3277 -0.9989  3.5939
   56MOL0     H 7530  12.817  12.231   1.598  2.6985 -1.0945  1.5032
   56MOL0     H 7531  12.958  12.333   1.639  0.2510  3.9611 -0.9657
   56MOL0     H 7532  12.709  12.430   1.504 -0.2425 -2.6327 -1.9422
   56MOL0     H 7533  12.833  12.535   1.579  0.3124 -0.0375  1.8691
   56MOL0     H 7534  12.827  12.377   1.323  1.7046 -0.7808 -1.0838
   56MOL0     H 7535  12.982  12.396   1.406 -0.7949  0.0873  2.6289
   56MOL0     H 7536  12.795  12.619   1.359  0.0352 -1.1935 -0.0656
   56MOL0     H 7537  12.958  12.652   1.402  0.0564  3.7076 -3.0780
   56MOL0     H 7538  12.917  12.528   1.127  2.2698 -0.1736  0.0001
   56MOL0     H 7539  13.052  12.607   1.208 -0.2851  3.1365 -3.9418
   56MOL0     H 7540  12.806  12.734   1.074 -0.4542  1.0103  0.5329
   56MOL0     H 7541  12.968  12.745   1.031 -0.9115 -0.8549 -1.1857
   56MOL0     H 7542  12.922  11.959   1.810  2.9972 -0.5887  2.7388
   56MOL0     H 7543  12.792  11.744   1.863 -0.7595 -1.3551  1.2794
   56MOL0     H 7544  12.494  11.511   2.017  0.0436 -0.8836  1.3417
   56MOL0     H 7545  12.399  11.268   2.015 -6.1444  1.1722  1.2264
   56MOL0     H 7546  11.021  10.936   1.156 -1.0486  1.6271  2.5528
   56MOL0     H 7547  10.902  10.841   0.946  1.8630  0.9154  0.1314
   56MOL0     H 7548  10.601  10.565   0.789 -1.1727  1.2215  0.5279
   56MOL0     H 7549  10.520  10.461   0.602 -0.3248  0.2176  0.4453
   56MOL0     H 7550  10.535  10.398   0.362  0.0987  1.3816  2.2284
   56MOL0     H 7551  10.366  10.410   0.409  0.0734  1.8419  2.6511
   56MOL0     H 7552  10.477  10.428   0.116 -0.2832  0.4111 -1.4421
   56MOL0     H 7553  10.323  10.494   0.162 -2.5685 -2.3074  0.0226
   56MOL0     H 7554  10.270  10.274   0.074 -0.8002  3.5878 -0.2308
   56MOL0     H 7555  10.235  10.293   0.247  0.3756  0.8742  1.1753
   56MOL0     H 7556  10.318  10.074   0.244  1.9352 -0.5406  2.2241
   56MOL0     H 7557  10.423  10.170   0.325 -1.1247 -2.0487  0.4754
   56MOL0     H 7558  10.641  10.089  -0.024 -2.4747  1.2822 -2.9599
   56MOL0     H 7559  10.522  10.835   0.392  0.9756  0.3220 -0.4505
   56MOL0     H 7560  10.597  10.943   0.596 -0.6276 -0.1136 -3.2281
   57MOL0     O 7561   0.347   2.683   7.900  0.7231  0.2403  0.1728
   57MOL0     C 7562   0.341   2.803   7.872  0.4871  0.2570  0.3655
   57MOL0     O 7563   0.404   2.900   7.947 -0.5411 -0.3400  0.5707
   57MOL0     C 7564   0.453   2.854   8.066  0.1608  0.1254 -0.0470
   57MOL0     C 7565   0.590   2.826   8.075  0.2145  0.7194 -1.0078
   57MOL0     C 7566   0.651   2.790   8.198  0.1589 -0.8002  0.6052
   57MOL0     C 7567   0.581   2.782   8.315 -0.9065 -0.0942  0.4587
   57MOL0     O 7568   0.652   2.758   8.435  0.0463 -0.9255 -1.1784
   57MOL0     C 7569   0.558   2.766   8.554 -0.2429  0.3678  0.1077
   57MOL0     C 7570   0.625   2.722   8.681  0.3117  0.6702  0.4793
   57MOL0     C 7571   0.763   2.794   8.702  0.0285 -0.0575 -0.8868
   57MOL0     C 7572   0.788   2.801   8.860  0.7876 -0.2153  0.4624
   57MOL0     C 7573   0.792   2.657   8.918 -0.4205  0.0223 -0.5642
   57MOL0     C 7574   0.909   2.584   8.850 -0.4877 -0.0179  0.4481
   57MOL0     C 7575   0.926   2.444   8.896 -0.0408  0.3971 -0.7980
   57MOL0     C 7576   0.988   2.434   9.036 -0.9951 -0.3383 -0.0356
   57MOL0     N 7577   1.121   2.494   9.054 -0.0217 -0.3720  0.4868
   57MOL0     C 7578   1.223   2.479   8.971 -0.3010 -0.5541  0.3085
   57MOL0     C 7579   1.326   2.557   9.013 -0.5239 -0.1313 -0.3971
   57MOL0     C 7580   1.457   2.567   8.943  0.8654  0.4070 -0.0551
   57MOL0     C 7581   1.579   2.526   9.034 -0.0533 -0.0659  0.0866
   57MOL0     C 7582   1.587   2.619   9.166  0.1988  0.6562  0.5595
   57MOL0     C 7583   1.714   2.620   9.230 -0.3925  0.0553 -0.1233
   57MOL0     O 7584   1.812   2.703   9.164  0.2021  0.0408 -0.0579
   57MOL0     C 7585   1.935   2.693   9.221 -0.8240  0.2342  0.0550
   57MOL0     C 7586   1.991   2.580   9.289 -0.2108  0.4603  0.3938
   57MOL0     C 7587   2.114   2.600   9.360  0.0004  0.2211  0.7719
   57MOL0     C 7588   2.165   2.470   9.419  1.0539  0.2444 -0.4700
   57MOL0     C 7589   2.193   2.713   9.351  0.9213  0.0525  0.4546
   57MOL0     C 7590   2.330   2.729   9.419 -0.0080 -0.8708 -0.5682
   57MOL0     O 7591   2.401   2.849   9.394 -0.6202  0.0198 -0.1549
   57MOL0     C 7592   2.499   2.902   9.478 -0.2503 -0.2463  0.5515
   57MOL0     C 7593   2.532   3.035   9.459  0.0112  0.0458  0.0630
   57MOL0     C 7594   2.643   3.105   9.516  0.4727  0.4353 -0.5259
   57MOL0     C 7595   2.712   3.036   9.615 -0.5673 -0.3588  0.0565
   57MOL0     O 7596   2.810   3.104   9.687  0.9490  0.4578 -0.6719
   57MOL0     C 7597   2.884   3.199   9.608 -0.6602 -0.5403  0.6129
   57MOL0     C 7598   3.015   3.200   9.694  0.9056 -1.1252 -0.7345
   57MOL0     C 7599   3.093   3.314   9.644  0.4562  0.4669  0.3195
   57MOL0     C 7600   3.217   3.334   9.725  0.1335 -0.0919 -0.1485
   57MOL0     C 7601   3.315   3.443   9.678 -1.7111  0.4431 -0.2611
   57MOL0     C 7602   3.422   3.390   9.568  0.4948 -0.3926  0.1198
   57MOL0     C 7603   3.506   3.508   9.523  0.5899 -0.1406 -0.0288
   57MOL0     C 7604   3.659   3.494   9.546  1.2911 -0.2602  0.9036
   57MOL0    Cl 7605   3.729   3.373   9.431 -0.6452  0.1883 -0.0118
   57MOL0     C 7606   2.678   2.907   9.650  0.0056  0.1197  0.4808
   57MOL0     C 7607   2.573   2.838   9.582 -0.5428 -0.3587 -0.0395
   57MOL0     O 7608   2.352   2.663   9.521 -0.4246 -0.5612  0.4122
   57MOL0     C 7609   2.134   2.822   9.272  0.1638  0.2347 -0.6769
   57MOL0     C 7610   2.009   2.814   9.215 -0.1242 -0.1376 -0.0301
   57MOL0     N 7611   1.269   2.618   9.128  0.1773 -0.6305 -0.5514
   57MOL0     N 7612   1.149   2.586   9.146  0.4303 -0.2176  0.4638
   57MOL0     C 7613   0.441   2.818   8.306 -0.0849 -0.0720  0.0365
   57MOL0     C 7614   0.382   2.856   8.186 -0.4383 -0.3874 -1.0914
   57MOL0     C 7615   0.249   2.840   7.760 -0.9648  0.4741  0.1159
   57MOL0     C 7616   0.236   2.979   7.726 -0.1809 -0.2394 -0.1155
   57MOL0     C 7617   0.167   3.025   7.617 -0.0718  0.4559  0.6673
   57MOL0     C 7618   0.115   2.932   7.528  0.2991  0.8507  0.1961
   57MOL0     O 7619   0.053   2.974   7.416 -0.5378 -0.9728 -0.2172
   57MOL0     C 7620  -0.058   2.901   7.374  0.7606 -0.0423 -0.8660
   57MOL0     C 7621  -0.142   2.984   7.277 -0.1366  0.1270 -0.6844
   57MOL0     C 7622  -0.204   3.103   7.352 -0.2202 -0.2880  0.5104
   57MOL0     C 7623  -0.311   3.169   7.256  0.0266 -0.1545  0.1445
   57MOL0     C 7624  -0.420   3.084   7.213 -1.3201  0.5418  0.6459
   57MOL0     C 7625  -0.520   3.028   7.176  0.5934  0.5315  0.3583
   57MOL0     C 7626   0.140   2.795   7.549 -0.8803 -0.4634 -1.3421
   57MOL0     C 7627   0.196   2.751   7.671 -0.1251  1.1056 -0.3625
   57MOL0     H 7628   0.646   2.842   7.983  3.4481  1.4871  0.9536
   57MOL0     H 7629   0.758   2.774   8.189 -0.1648 -2.2346 -1.5340
   57MOL0     H 7630   0.537   2.869   8.586  0.7864  0.4952  0.4313
   57MOL0     H 7631   0.462   2.716   8.540  0.0870 -0.6383  1.2773
   57MOL0     H 7632   0.553   2.745   8.760  0.8699 -0.9819  1.5123
   57MOL0     H 7633   0.646   2.615   8.675  2.3892  1.1176 -1.7690
   57MOL0     H 7634   0.847   2.756   8.643 -0.4354 -1.3267 -0.7690
   57MOL0     H 7635   0.758   2.900   8.678  1.8425  0.6872  1.5832
   57MOL0     H 7636   0.880   2.859   8.872 -0.3873  2.8133 -3.1586
   57MOL0     H 7637   0.703   2.850   8.907 -1.2333 -2.7791 -0.2781
   57MOL0     H 7638   0.816   2.671   9.023 -2.9378 -2.2741  0.4429
   57MOL0     H 7639   0.692   2.613   8.903 -1.3181  1.3376  1.2633
   57MOL0     H 7640   0.895   2.578   8.741 -0.2273 -0.4844  0.4367
   57MOL0     H 7641   0.999   2.643   8.872 -0.9587  0.4871  1.0745
   57MOL0     H 7642   0.833   2.388   8.882 -0.3638  0.2725  1.5315
   57MOL0     H 7643   1.000   2.386   8.840 -0.5651  0.2389 -1.3390
   57MOL0     H 7644   0.998   2.331   9.070  1.6593 -0.8100 -1.9655
   57MOL0     H 7645   0.921   2.488   9.103 -1.0985  0.8568 -1.0663
   57MOL0     H 7646   1.235   2.412   8.887 -1.7948 -0.2047 -0.2205
   57MOL0     H 7647   1.457   2.497   8.859 -0.8210  0.6365 -0.2734
   57MOL0     H 7648   1.465   2.664   8.894 -0.0391  0.1661 -0.7062
   57MOL0     H 7649   1.672   2.536   8.978 -0.3754  2.2357 -0.1389
   57MOL0     H 7650   1.567   2.420   9.059  3.0194 -0.5487 -0.1041
   57MOL0     H 7651   1.517   2.573   9.236  2.6159  0.0089  2.6817
   57MOL0     H 7652   1.549   2.719   9.144 -2.3108 -0.3181  0.0392
   57MOL0     H 7653   1.746   2.516   9.234  1.3266  0.5424 -0.5434
   57MOL0     H 7654   1.696   2.653   9.333 -4.6918  0.2201 -0.7530
   57MOL0     H 7655   1.939   2.487   9.309 -0.5082  0.0106 -2.1179
   57MOL0     H 7656   2.122   2.389   9.359 -1.3268  2.6669 -2.3192
   57MOL0     H 7657   2.272   2.453   9.409  1.8293  1.9626  3.2229
   57MOL0     H 7658   2.144   2.460   9.526  0.9199  1.9847 -0.3047
   57MOL0     H 7659   2.474   3.086   9.382  0.1159 -0.6184 -0.4667
   57MOL0     H 7660   2.666   3.203   9.475 -1.4825  0.2478 -2.2264
   57MOL0     H 7661   2.915   3.170   9.508  0.4629  2.0260  0.1237
   57MOL0     H 7662   2.830   3.294   9.600 -1.1073 -0.7523  1.1108
   57MOL0     H 7663   2.990   3.205   9.801  1.0953  1.2697 -0.7495
   57MOL0     H 7664   3.063   3.105   9.667 -0.1766 -1.5308 -1.2752
   57MOL0     H 7665   3.038   3.407   9.660  0.9663  1.1220 -1.4997
   57MOL0     H 7666   3.126   3.303   9.541  0.0437  0.8516  0.1421
   57MOL0     H 7667   3.177   3.352   9.825 -2.0037 -1.6215 -0.6525
   57MOL0     H 7668   3.275   3.243   9.744  0.4121  0.6773  3.4270
   57MOL0     H 7669   3.372   3.483   9.762  2.9112  0.6042 -3.1243
   57MOL0     H 7670   3.248   3.523   9.647 -3.4743 -0.9343 -0.2176
   57MOL0     H 7671   3.480   3.306   9.607  0.0969 -1.5434 -1.6334
   57MOL0     H 7672   3.375   3.349   9.478 -1.0501 -2.7820  1.8631
   57MOL0     H 7673   3.477   3.599   9.576 -0.0221  1.9899 -3.6804
   57MOL0     H 7674   3.475   3.523   9.419 -0.7164  1.1349  0.5054
   57MOL0     H 7675   3.673   3.437   9.638  0.6860 -1.4823  0.2562
   57MOL0     H 7676   3.715   3.589   9.542  0.4268  0.2325 -0.3078
   57MOL0     H 7677   2.731   2.856   9.729  0.4526  0.2676  0.2823
   57MOL0     H 7678   2.569   2.730   9.589  0.0057 -0.5156 -1.7392
   57MOL0     H 7679   2.199   2.909   9.270  2.2815 -1.2687 -0.7235
   57MOL0     H 7680   1.960   2.899   9.169 -3.8955 -1.0441  1.9028
   57MOL0     H 7681   0.378   2.809   8.394 -3.0879  1.3227 -1.8275
   57MOL0     H 7682   0.277   2.883   8.182 -1.0246 -2.4601 -0.7844
   57MOL0     H 7683   0.291   3.057   7.777  3.0569 -0.1439 -3.3895
   57MOL0     H 7684   0.163   3.133   7.609  3.4188  0.5617 -1.9219
   57MOL0     H 7685  -0.018   2.811   7.326  1.5344  1.9431 -4.3412
   57MOL0     H 7686  -0.126   2.877   7.456  3.2038  0.8196  1.5145
   57MOL0     H 7687  -0.230   2.921   7.258 -0.0998 -0.4472  0.8864
   57MOL0     H 7688  -0.092   3.022   7.188 -0.1306 -0.3068 -0.8672
   57MOL0     H 7689  -0.128   3.172   7.389  0.3728  0.1412 -1.4226
   57MOL0     H 7690  -0.262   3.070   7.439 -0.8201  1.9928  1.0647
   57MOL0     H 7691  -0.254   3.203   7.169  2.4766  0.6121  1.9457
   57MOL0     H 7692  -0.348   3.256   7.310 -3.6768 -2.1428  1.1177
   57MOL0     H 7693  -0.597   2.968   7.131  1.0306  1.2045 -1.3630
   57MOL0     H 7694   0.104   2.724   7.475  0.7854  0.3837 -3.0588
   57MOL0     H 7695   0.197   2.647   7.702 -1.1380  1.3166  0.4115
   58MOL0     O 7696   7.937   9.165   3.124 -1.7174 -0.2213  0.7671
   58MOL0     C 7697   7.926   9.050   3.073 -0.4849  0.6126 -0.4733
   58MOL0     O 7698   8.032   8.964   3.033  0.1488 -0.6239 -0.4222
   58MOL0     C 7699   8.159   9.008   3.041  0.2903  0.8794 -0.4927
   58MOL0     C 7700   8.235   9.039   2.926  0.2287 -0.0051  0.6309
   58MOL0     C 7701   8.363   9.098   2.946  0.5522  0.2529 -0.3504
   58MOL0     C 7702   8.424   9.125   3.074 -0.8027  0.2003  0.0504
   58MOL0     O 7703   8.555   9.163   3.089  0.1313 -0.3504  0.7593
   58MOL0     C 7704   8.622   9.221   2.971  0.2742 -0.4251 -0.6147
   58MOL0     C 7705   8.743   9.300   3.021  0.6280 -0.7641 -0.0115
   58MOL0     C 7706   8.827   9.385   2.928  0.2023  0.1668 -0.0660
   58MOL0     C 7707   8.747   9.454   2.820 -0.3643 -1.1942  0.2870
   58MOL0     C 7708   8.754   9.383   2.686 -0.0692 -0.1306 -0.5876
   58MOL0     C 7709   8.657   9.432   2.583 -0.4959 -0.3733  0.3348
   58MOL0     C 7710   8.724   9.539   2.482  0.5059 -0.8197  0.2955
   58MOL0     C 7711   8.831   9.469   2.395 -0.4956 -0.3392  0.4222
   58MOL0     N 7712   8.902   9.575   2.322  0.4472 -0.1469 -0.6662
   58MOL0     C 7713   8.867   9.593   2.186  0.4340 -0.0433  0.8989
   58MOL0     C 7714   8.958   9.689   2.143 -0.3279  0.0692 -0.2688
   58MOL0     C 7715   8.961   9.763   2.014 -0.4714 -0.0806  0.2004
   58MOL0     C 7716   9.098   9.836   1.996  0.6257 -0.7630  0.0454
   58MOL0     C 7717   9.225   9.743   1.996 -0.4165  0.2091  0.6677
   58MOL0     C 7718   9.340   9.838   2.000 -0.0526  0.5984 -0.1173
   58MOL0     O 7719   9.342   9.901   1.872 -0.1151  0.7325 -0.3316
   58MOL0     C 7720   9.407   9.819   1.777  0.1861 -0.3612  0.1953
   58MOL0     C 7721   9.520   9.743   1.786  0.2603  0.4788  0.9448
   58MOL0     C 7722   9.559   9.657   1.676 -1.2543  0.3506  0.5482
   58MOL0     C 7723   9.680   9.560   1.697  0.1050 -1.1408 -0.4963
   58MOL0     C 7724   9.493   9.669   1.546 -0.4685 -0.2673 -1.2493
   58MOL0     C 7725   9.522   9.591   1.426 -0.2275  0.0529 -0.3134
   58MOL0     O 7726   9.575   9.469   1.436  0.7509  0.1915 -0.1012
   58MOL0     C 7727   9.629   9.414   1.319  0.7401 -0.1499 -0.1167
   58MOL0     C 7728   9.610   9.279   1.289 -0.0357 -0.1262 -0.2736
   58MOL0     C 7729   9.664   9.220   1.173 -0.1034  0.3672 -0.2340
   58MOL0     C 7730   9.742   9.299   1.087 -0.9316  0.1918 -0.4057
   58MOL0     O 7731   9.812   9.237   0.980 -0.4099 -0.8154 -0.3893
   58MOL0     C 7732   9.783   9.302   0.854  0.8754 -0.3563  0.0798
   58MOL0     C 7733   9.744   9.178   0.772 -0.6610  0.6146  1.0444
   58MOL0     C 7734   9.732   9.204   0.615 -0.5812 -0.2795 -0.2267
   58MOL0     C 7735   9.635   9.323   0.586  0.3478 -0.0218  0.3366
   58MOL0     C 7736   9.639   9.394   0.449 -0.1139  0.7527 -0.0982
   58MOL0     C 7737   9.548   9.519   0.443  0.1590 -0.6132 -1.0338
   58MOL0     C 7738   9.619   9.641   0.500  0.5505  0.2529 -0.1014
   58MOL0     C 7739   9.529   9.762   0.486 -0.9627  0.0688 -0.0073
   58MOL0    Cl 7740   9.628   9.908   0.527 -0.1953 -0.1912 -0.1587
   58MOL0     C 7741   9.785   9.427   1.128  0.8488 -1.3052  0.6037
   58MOL0     C 7742   9.732   9.481   1.245  0.2388 -0.6113  0.2463
   58MOL0     O 7743   9.465   9.633   1.324  0.3354  0.8259 -0.7816
   58MOL0     C 7744   9.393   9.773   1.539  0.7305  0.5013  0.6141
   58MOL0     C 7745   9.361   9.848   1.650 -0.2575 -0.1007  0.0989
   58MOL0     N 7746   9.029   9.728   2.255  0.2654  0.3047 -0.1304
   58MOL0     N 7747   9.002   9.653   2.359 -0.1015 -0.2236  0.5094
   58MOL0     C 7748   8.348   9.072   3.190  0.2551 -0.3505 -0.5343
   58MOL0     C 7749   8.220   9.017   3.169 -0.5504 -0.9732 -0.3707
   58MOL0     C 7750   7.784   9.001   3.043 -0.3938  0.0227 -0.7683
   58MOL0     C 7751   7.677   9.067   3.096 -0.3971  0.4841  0.8664
   58MOL0     C 7752   7.544   9.025   3.060  0.4502 -0.2120 -0.1876
   58MOL0     C 7753   7.532   8.907   2.979  0.3172 -0.4947 -0.3534
   58MOL0     O 7754   7.412   8.853   2.953 -0.0658 -0.7352  0.5479
   58MOL0     C 7755   7.299   8.909   3.022  0.1213 -0.6126 -0.0109
   58MOL0     C 7756   7.192   8.797   3.035 -0.0440 -0.5620 -0.8013
   58MOL0     C 7757   7.086   8.849   3.133  1.1273 -0.5713 -0.5313
   58MOL0     C 7758   6.956   8.774   3.150 -0.0482  0.3884 -0.1634
   58MOL0     C 7759   6.974   8.648   3.221  0.5384 -0.8971  0.1787
   58MOL0     C 7760   6.989   8.543   3.284  0.1540  0.7143 -0.4614
   58MOL0     C 7761   7.646   8.851   2.930  0.1458  0.0169  1.3317
   58MOL0     C 7762   7.773   8.892   2.961 -0.2945 -0.7853 -0.6428
   58MOL0     H 7763   8.192   9.033   2.827  0.2015 -1.5393  0.7140
   58MOL0     H 7764   8.417   9.119   2.854  1.6067 -0.3519  0.1114
   58MOL0     H 7765   8.674   9.150   2.906  0.8735  0.5103 -1.1810
   58MOL0     H 7766   8.551   9.288   2.923  1.1782  0.6336 -0.5280
   58MOL0     H 7767   8.700   9.363   3.100  1.2996 -1.2929  0.7836
   58MOL0     H 7768   8.816   9.228   3.058 -0.0549 -1.1799  0.5706
   58MOL0     H 7769   8.878   9.458   2.993  0.7650 -0.6600  0.4377
   58MOL0     H 7770   8.905   9.322   2.884 -0.1572 -1.0648  1.0043
   58MOL0     H 7771   8.645   9.459   2.857 -0.2204 -1.2665  0.6939
   58MOL0     H 7772   8.778   9.558   2.808 -1.9082 -0.9060 -1.7901
   58MOL0     H 7773   8.860   9.381   2.659 -0.1556 -4.5935 -1.2535
   58MOL0     H 7774   8.738   9.279   2.713 -0.7774  0.4048  1.2327
   58MOL0     H 7775   8.611   9.352   2.525  2.8397 -1.5203 -0.9818
   58MOL0     H 7776   8.578   9.491   2.630  1.9519  3.0994  0.4809
   58MOL0     H 7777   8.652   9.597   2.423  0.3143 -0.8474  0.5013
   58MOL0     H 7778   8.780   9.617   2.534 -0.5737  0.4696 -0.4049
   58MOL0     H 7779   8.778   9.394   2.335 -2.7369  1.1850  0.3786
   58MOL0     H 7780   8.895   9.395   2.445 -1.8148 -0.9781  1.2280
   58MOL0     H 7781   8.790   9.548   2.124 -0.0373 -2.0714  2.8500
   58MOL0     H 7782   8.931   9.693   1.936 -0.9606  2.3994 -1.9548
   58MOL0     H 7783   8.884   9.840   2.018  0.8387  1.2299  1.4446
   58MOL0     H 7784   9.114   9.903   2.081 -1.9725  0.7663 -0.5807
   58MOL0     H 7785   9.095   9.898   1.906  0.1109 -0.9044 -0.0370
   58MOL0     H 7786   9.226   9.687   1.903 -0.2963 -1.4197  1.6145
   58MOL0     H 7787   9.227   9.679   2.085 -0.1174 -1.8620 -0.7788
   58MOL0     H 7788   9.432   9.783   2.022 -0.6009 -1.0098 -1.6542
   58MOL0     H 7789   9.335   9.916   2.077  1.1249  0.1740  0.4242
   58MOL0     H 7790   9.566   9.707   1.878  2.1127 -0.7568 -0.3812
   58MOL0     H 7791   9.760   9.588   1.627  0.1983  1.1231  0.4132
   58MOL0     H 7792   9.732   9.569   1.793  2.6528 -2.2847 -1.6844
   58MOL0     H 7793   9.647   9.456   1.697 -0.2386 -1.0360  0.5316
   58MOL0     H 7794   9.570   9.209   1.362  1.6191 -2.2964 -1.3312
   58MOL0     H 7795   9.637   9.117   1.152 -1.1206  0.3439  1.0621
   58MOL0     H 7796   9.711   9.384   0.853  1.2600 -0.0154 -0.6471
   58MOL0     H 7797   9.871   9.346   0.807 -0.0265  0.6492 -0.7131
   58MOL0     H 7798   9.824   9.104   0.779 -2.7484 -1.6394  2.4530
   58MOL0     H 7799   9.651   9.129   0.801  0.3435 -1.2761  1.2044
   58MOL0     H 7800   9.682   9.116   0.574  0.5778 -0.9524 -0.2357
   58MOL0     H 7801   9.831   9.206   0.567 -0.7588 -2.6380 -0.7954
   58MOL0     H 7802   9.531   9.290   0.596  0.3791 -0.0339  0.6522
   58MOL0     H 7803   9.649   9.407   0.655  1.7863  1.1278 -1.2819
   58MOL0     H 7804   9.620   9.320   0.371  0.3887 -0.9369  1.3092
   58MOL0     H 7805   9.740   9.431   0.429  0.8021 -0.9892  1.0595
   58MOL0     H 7806   9.505   9.533   0.343  2.1848 -0.4963 -1.9401
   58MOL0     H 7807   9.457   9.511   0.504  2.0155  0.0457  2.0164
   58MOL0     H 7808   9.715   9.663   0.451  1.2941  0.8568  1.5829
   58MOL0     H 7809   9.631   9.612   0.605 -0.4319 -0.7660 -0.2418
   58MOL0     H 7810   9.434   9.749   0.539 -0.6213 -1.6297  0.2428
   58MOL0     H 7811   9.504   9.778   0.380 -1.5886  0.6874  0.2270
   58MOL0     H 7812   9.860   9.488   1.078  0.2668 -0.8067  0.3394
   58MOL0     H 7813   9.759   9.582   1.272  1.0597 -0.1588 -2.0740
   58MOL0     H 7814   9.343   9.792   1.444  1.6970 -0.3059 -0.0850
   58MOL0     H 7815   9.274   9.907   1.625 -0.9507 -0.1152  2.2680
   58MOL0     H 7816   8.385   9.083   3.291 -0.3841 -3.4248  0.1632
   58MOL0     H 7817   8.164   8.997   3.260 -0.4099 -0.7157 -0.2298
   58MOL0     H 7818   7.699   9.160   3.149  0.9256  1.4909 -1.3238
   58MOL0     H 7819   7.461   9.075   3.109  0.4055 -1.0763  0.6396
   58MOL0     H 7820   7.338   8.936   3.121  1.7101 -1.0213 -0.4998
   58MOL0     H 7821   7.259   9.002   2.982  0.8690  0.5852  1.8579
   58MOL0     H 7822   7.250   8.712   3.072  1.8557 -0.3089 -2.9877
   58MOL0     H 7823   7.142   8.777   2.940 -2.5901  0.6097  0.1757
   58MOL0     H 7824   7.052   8.952   3.114 -3.2377 -1.4811  1.0825
   58MOL0     H 7825   7.130   8.862   3.232 -0.1522 -3.2670  0.4770
   58MOL0     H 7826   6.907   8.747   3.056 -0.8665  0.8824  0.1067
   58MOL0     H 7827   6.876   8.833   3.196 -1.5970 -1.3031 -0.5857
   58MOL0     H 7828   7.016   8.462   3.349 -0.2358  0.5749 -0.4724
   58MOL0     H 7829   7.622   8.762   2.873 -1.9978 -1.2855  4.0215
   58MOL0     H 7830   7.859   8.839   2.922  4.7652  2.5474  4.4577
   59MOL0     O 7831   9.014   3.244   8.803  0.4317 -0.2862  0.7270
   59MOL0     C 7832   9.082   3.217   8.908  0.6724  0.2349  1.1527
   59MOL0     O 7833   9.084   3.091   8.965 -0.2980 -0.7615  0.2926
   59MOL0     C 7834   9.007   2.988   8.919  0.4300  0.2544  0.1888
   59MOL0     C 7835   8.941   2.910   9.008  1.3351 -0.2352  0.3434
   59MOL0     C 7836   8.848   2.803   8.965  0.0861 -0.6500  1.5030
   59MOL0     C 7837   8.831   2.779   8.823 -0.6860 -0.2647  0.7033
   59MOL0     O 7838   8.745   2.679   8.776 -0.2267  0.1863 -0.9354
   59MOL0     C 7839   8.776   2.550   8.828  0.1978 -0.2887 -0.6716
   59MOL0     C 7840   8.919   2.509   8.789 -0.0365 -0.4906  0.3081
   59MOL0     C 7841   8.924   2.519   8.635  0.5060  0.1744 -0.3369
   59MOL0     C 7842   9.078   2.493   8.605  0.0012 -0.2458 -0.5766
   59MOL0     C 7843   9.165   2.621   8.589  0.8803 -0.9088 -0.7694
   59MOL0     C 7844   9.306   2.619   8.552 -0.6154 -0.4969  0.2006
   59MOL0     C 7845   9.366   2.761   8.525  0.5102 -0.9183 -0.2311
   59MOL0     C 7846   9.321   2.870   8.616  0.2079 -1.0340 -0.2148
   59MOL0     N 7847   9.404   2.984   8.585 -0.2196  0.0578 -0.0097
   59MOL0     C 7848   9.538   3.004   8.583 -0.6313 -0.5346 -1.1426
   59MOL0     C 7849   9.561   3.121   8.522  0.0370  0.2143  0.3289
   59MOL0     C 7850   9.701   3.169   8.488  0.3965 -0.7102 -0.4374
   59MOL0     C 7851   9.699   3.293   8.393 -0.2990  0.0156 -0.9550
   59MOL0     C 7852   9.826   3.368   8.405  0.1125 -0.2346  0.4495
   59MOL0     C 7853   9.948   3.294   8.395  0.1014 -0.4928  0.4926
   59MOL0     O 7854  10.053   3.376   8.332  0.0262  0.1718  0.4663
   59MOL0     C 7855  10.167   3.310   8.294 -1.0592 -0.2730 -0.2798
   59MOL0     C 7856  10.225   3.210   8.363 -0.2875  0.0921  0.4685
   59MOL0     C 7857  10.341   3.148   8.309 -0.1737  0.5404  0.9357
   59MOL0     C 7858  10.415   3.052   8.397  0.4613  0.0345  0.2346
   59MOL0     C 7859  10.378   3.176   8.173  0.5886 -0.4703 -0.0422
   59MOL0     C 7860  10.474   3.103   8.098  0.5357 -0.4620  0.5787
   59MOL0     O 7861  10.492   2.975   8.132  0.1745 -0.6488  0.2879
   59MOL0     C 7862  10.600   2.897   8.073  1.1460 -0.4703  0.6158
   59MOL0     C 7863  10.733   2.921   8.105 -0.9184  0.5596  0.2090
   59MOL0     C 7864  10.833   2.832   8.047  0.6996  0.8113  0.5379
   59MOL0     C 7865  10.798   2.713   7.980 -0.6411 -0.6469  0.1564
   59MOL0     O 7866  10.894   2.627   7.950 -0.8458  0.1312  1.0154
   59MOL0     C 7867  10.864   2.488   7.920  0.7856  0.2946 -0.1072
   59MOL0     C 7868  10.824   2.397   8.043  0.3856 -0.8716 -0.4521
   59MOL0     C 7869  10.914   2.424   8.174 -0.7424 -0.2362 -0.1245
   59MOL0     C 7870  11.057   2.364   8.153 -0.2671 -0.3352  0.1989
   59MOL0     C 7871  11.125   2.381   8.282  0.1222  0.2075  0.0640
   59MOL0     C 7872  11.261   2.311   8.302  0.1167 -0.4587 -0.1134
   59MOL0     C 7873  11.295   2.307   8.449 -0.3961  0.0123 -0.6910
   59MOL0     C 7874  11.301   2.167   8.506 -0.0423 -0.1639 -0.5185
   59MOL0    Cl 7875  11.148   2.141   8.582  0.3425 -0.3871 -0.1474
   59MOL0     C 7876  10.658   2.686   7.964 -1.1615 -0.1438 -0.3031
   59MOL0     C 7877  10.569   2.781   7.999  0.3277  0.1144 -0.7720
   59MOL0     O 7878  10.547   3.174   8.024  0.2687  0.7968  0.1506
   59MOL0     C 7879  10.301   3.280   8.104 -0.9170 -0.7851  1.2978
   59MOL0     C 7880  10.205   3.350   8.170  0.3404 -0.5656  1.9731
   59MOL0     N 7881   9.436   3.181   8.498 -0.1049 -0.1455 -0.1897
   59MOL0     N 7882   9.353   3.104   8.542 -0.2294  0.0909 -0.1243
   59MOL0     C 7883   8.904   2.858   8.730 -0.1809  0.0700 -0.2866
   59MOL0     C 7884   9.002   2.955   8.780  0.3834  0.6741  0.0962
   59MOL0     C 7885   9.152   3.323   8.977 -1.1081  0.2648  0.8982
   59MOL0     C 7886   9.191   3.443   8.912  0.7459 -0.4829 -0.8463
   59MOL0     C 7887   9.261   3.543   8.984 -0.0929 -0.1705  0.3092
   59MOL0     C 7888   9.301   3.531   9.119  0.0443  1.5434  0.3248
   59MOL0     O 7889   9.361   3.620   9.202 -0.9015 -0.0586  0.7934
   59MOL0     C 7890   9.400   3.738   9.134  0.4234  0.3887 -0.2713
   59MOL0     C 7891   9.288   3.837   9.128 -0.3273  0.2460 -0.0664
   59MOL0     C 7892   9.343   3.964   9.072  0.6997 -0.2483  0.1801
   59MOL0     C 7893   9.231   4.074   9.082  0.1359 -0.0699  0.4096
   59MOL0     C 7894   9.294   4.203   9.042  0.0156 -0.4137 -0.5124
   59MOL0     C 7895   9.332   4.316   9.014 -0.6546  0.6981  0.3151
   59MOL0     C 7896   9.277   3.400   9.174 -0.0186 -0.1993  1.0356
   59MOL0     C 7897   9.205   3.306   9.108  1.1298  0.2006 -0.3251
   59MOL0     H 7898   8.947   2.935   9.114 -2.0130 -1.0325  0.8267
   59MOL0     H 7899   8.783   2.741   9.026 -2.5864  2.4400  2.0913
   59MOL0     H 7900   8.767   2.537   8.937  0.8656 -0.2133 -0.6000
   59MOL0     H 7901   8.711   2.481   8.774  0.8652  0.0634 -1.9611
   59MOL0     H 7902   8.995   2.580   8.824 -1.1984  2.6204 -2.8066
   59MOL0     H 7903   8.945   2.410   8.827  4.0436  0.6368  0.9562
   59MOL0     H 7904   8.859   2.447   8.584  0.1585  0.1466  0.1391
   59MOL0     H 7905   8.901   2.619   8.597 -0.4127  0.0810 -0.0628
   59MOL0     H 7906   9.122   2.434   8.686  0.5835 -1.2772 -1.6202
   59MOL0     H 7907   9.083   2.430   8.516  2.2954 -2.3147  0.8982
   59MOL0     H 7908   9.100   2.676   8.520  0.6733 -0.5772 -0.3225
   59MOL0     H 7909   9.161   2.675   8.684 -0.7106 -1.6525 -0.3739
   59MOL0     H 7910   9.351   2.583   8.645 -1.8246 -0.6192  0.7470
   59MOL0     H 7911   9.333   2.551   8.471 -2.8207  0.4300 -1.3992
   59MOL0     H 7912   9.474   2.750   8.527  0.8540  1.6097 -1.1025
   59MOL0     H 7913   9.323   2.792   8.429 -1.8126 -0.9593  0.7189
   59MOL0     H 7914   9.321   2.841   8.721  0.6184  0.7866  0.3149
   59MOL0     H 7915   9.215   2.890   8.596  0.1089 -0.1472  1.0986
   59MOL0     H 7916   9.605   2.934   8.634 -0.7114 -1.7700 -2.6558
   59MOL0     H 7917   9.754   3.197   8.579  0.2678 -0.5135 -0.4220
   59MOL0     H 7918   9.758   3.086   8.446 -2.6848 -2.0283 -2.3737
   59MOL0     H 7919   9.620   3.365   8.416 -1.6748 -0.9699 -2.3761
   59MOL0     H 7920   9.674   3.260   8.291 -1.5756 -0.7359 -0.4257
   59MOL0     H 7921   9.826   3.434   8.493  1.1615  0.2901  0.0695
   59MOL0     H 7922   9.824   3.441   8.324  1.3678 -0.3047  0.3245
   59MOL0     H 7923   9.932   3.198   8.346  0.4994 -1.5969  2.4132
   59MOL0     H 7924   9.976   3.269   8.498  2.6007  2.3998  0.6475
   59MOL0     H 7925  10.194   3.195   8.466 -0.1797  3.6760  1.1433
   59MOL0     H 7926  10.400   2.944   8.382  0.4118 -0.0998  1.2093
   59MOL0     H 7927  10.522   3.051   8.374  1.1332 -0.4423  3.0851
   59MOL0     H 7928  10.403   3.083   8.501  0.4661  0.6575  0.0550
   59MOL0     H 7929  10.764   3.001   8.172 -0.6857  1.8495 -1.3827
   59MOL0     H 7930  10.939   2.832   8.073  1.4472  0.0012 -2.2040
   59MOL0     H 7931  10.782   2.482   7.849 -0.3739  2.5694  0.9125
   59MOL0     H 7932  10.944   2.442   7.861  0.7434 -3.0155  2.1373
   59MOL0     H 7933  10.719   2.416   8.067 -0.3219  0.6073 -3.9991
   59MOL0     H 7934  10.846   2.295   8.010  2.8527 -0.0224 -1.6567
   59MOL0     H 7935  10.874   2.379   8.265  1.4442 -0.3521  0.8447
   59MOL0     H 7936  10.923   2.532   8.190  2.1194 -0.7262  2.4372
   59MOL0     H 7937  11.050   2.264   8.110  0.7081  0.9132 -3.2395
   59MOL0     H 7938  11.099   2.428   8.075 -1.4171 -0.0511 -0.2053
   59MOL0     H 7939  11.061   2.333   8.357  1.0221  0.9579  1.3523
   59MOL0     H 7940  11.129   2.486   8.311 -0.1906  0.9860 -2.5242
   59MOL0     H 7941  11.258   2.209   8.263  0.7176  0.1540 -1.8473
   59MOL0     H 7942  11.333   2.379   8.256  0.4103 -0.6017  0.1344
   59MOL0     H 7943  11.238   2.370   8.518  2.1832 -0.5084  2.1750
   59MOL0     H 7944  11.400   2.333   8.467  0.1890 -2.2163 -0.5180
   59MOL0     H 7945  11.375   2.149   8.584 -3.1040  0.0047  2.6821
   59MOL0     H 7946  11.312   2.096   8.424  1.5735  0.4641 -0.8890
   59MOL0     H 7947  10.627   2.591   7.921  0.3092  0.2906 -2.5474
   59MOL0     H 7948  10.463   2.759   7.984 -0.5770  2.1227  1.9446
   59MOL0     H 7949  10.333   3.307   8.004  2.0521 -1.7165  1.8800
   59MOL0     H 7950  10.148   3.433   8.128  1.7843 -0.4824  0.0126
   59MOL0     H 7951   8.882   2.851   8.624 -0.9969  5.4383 -0.7501
   59MOL0     H 7952   9.052   3.015   8.705 -1.0252 -1.5755 -2.8746
   59MOL0     H 7953   9.155   3.451   8.810 -4.1004 -2.5138  0.3861
   59MOL0     H 7954   9.286   3.636   8.935  0.7555 -0.6590 -0.2301
   59MOL0     H 7955   9.471   3.778   9.207 -0.8799  1.5958  0.3982
   59MOL0     H 7956   9.449   3.718   9.039 -1.3599 -2.4471 -0.7276
   59MOL0     H 7957   9.260   3.856   9.232  3.7014 -1.1837  1.4529
   59MOL0     H 7958   9.204   3.796   9.071 -0.9737 -2.5931  2.7002
   59MOL0     H 7959   9.372   3.949   8.967  1.4257  1.8464  0.0361
   59MOL0     H 7960   9.428   4.003   9.129 -0.3408  1.9856  0.2965
   59MOL0     H 7961   9.197   4.079   9.185  0.2933  1.5958  0.4009
   59MOL0     H 7962   9.157   4.042   9.008  1.0466 -3.0791  0.6380
   59MOL0     H 7963   9.384   4.408   8.998  2.8954 -1.2588 -0.3660
   59MOL0     H 7964   9.319   3.369   9.269 -0.8174 -1.9309  0.8660
   59MOL0     H 7965   9.186   3.221   9.173 -2.1220  2.6060  2.2129
   60MOL0     O 7966   8.946  10.030   3.392 -0.0910 -0.4531 -0.6763
   60MOL0     C 7967   8.937   9.930   3.326  0.7703 -0.4508 -1.4551
   60MOL0     O 7968   9.021   9.827   3.334 -0.0424 -0.5001 -0.0480
   60MOL0     C 7969   9.141   9.831   3.398 -0.1627  0.5423  0.2247
   60MOL0     C 7970   9.183   9.715   3.462  0.0428 -0.2107  0.2009
   60MOL0     C 7971   9.313   9.706   3.512  1.1377  0.1954  0.5581
   60MOL0     C 7972   9.379   9.826   3.525 -0.6051 -0.0437 -0.3378
   60MOL0     O 7973   9.494   9.814   3.594  0.7751 -0.0680  0.6093
   60MOL0     C 7974   9.567   9.938   3.634  0.4913  0.7581 -0.2581
   60MOL0     C 7975   9.677   9.954   3.530 -0.5204  1.0915  0.2765
   60MOL0     C 7976   9.780   9.837   3.540  0.2058  0.8820 -0.2178
   60MOL0     C 7977   9.893   9.835   3.430  0.0077  0.2009  0.3455
   60MOL0     C 7978   9.844   9.751   3.310 -0.3839  0.7532  0.0925
   60MOL0     C 7979   9.952   9.749   3.205 -1.1499  0.3750  0.5260
   60MOL0     C 7980   9.904   9.703   3.070  0.6213  0.0474 -1.2592
   60MOL0     C 7981   9.967   9.580   3.007 -0.3755  0.1982  0.5535
   60MOL0     N 7982   9.959   9.456   3.085 -0.3204  0.0468  0.4477
   60MOL0     C 7983   9.990   9.332   3.025 -0.1375 -0.6230 -0.1508
   60MOL0     C 7984   9.980   9.248   3.130 -0.0323  0.0016 -0.0775
   60MOL0     C 7985  10.000   9.102   3.152 -0.4876  1.3414  0.0661
   60MOL0     C 7986  10.148   9.068   3.173 -0.4932  0.5268  0.4173
   60MOL0     C 7987  10.159   8.915   3.178  0.4054  0.1455 -0.4233
   60MOL0     C 7988  10.294   8.869   3.217 -0.0078  0.2284 -0.4116
   60MOL0     O 7989  10.375   8.909   3.103 -0.2647  0.3070 -0.1845
   60MOL0     C 7990  10.504   8.942   3.144  0.1925  0.4507  0.7958
   60MOL0     C 7991  10.575   9.041   3.076  0.0866 -0.7130 -0.7373
   60MOL0     C 7992  10.689   9.099   3.130  0.5214  0.7000 -0.3114
   60MOL0     C 7993  10.731   9.224   3.057 -0.0082  0.7834 -0.1887
   60MOL0     C 7994  10.742   9.057   3.253 -0.3651  0.2527 -0.4004
   60MOL0     C 7995  10.862   9.117   3.316 -0.3998 -0.0233  0.1835
   60MOL0     O 7996  10.957   9.164   3.229  0.4210 -0.8527 -0.1747
   60MOL0     C 7997  11.087   9.195   3.263  0.2418 -0.4682 -0.0832
   60MOL0     C 7998  11.159   9.142   3.363 -0.5237  0.3231  0.2019
   60MOL0     C 7999  11.290   9.172   3.388 -0.2753  0.6193  0.1659
   60MOL0     C 8000  11.349   9.271   3.319 -0.6898  0.3164  0.5002
   60MOL0     O 8001  11.482   9.300   3.335 -0.2048  0.8575 -0.3413
   60MOL0     C 8002  11.577   9.205   3.285 -0.0237  0.0891 -0.5193
   60MOL0     C 8003  11.724   9.257   3.272  0.7390  0.5013 -1.4134
   60MOL0     C 8004  11.715   9.372   3.170  0.1910 -0.6983 -0.3736
   60MOL0     C 8005  11.760   9.509   3.216 -0.2688 -0.1002  0.3120
   60MOL0     C 8006  11.768   9.607   3.100  0.2809 -0.2809  0.0224
   60MOL0     C 8007  11.859   9.722   3.140 -0.3253 -1.0679  0.7632
   60MOL0     C 8008  11.843   9.845   3.043 -0.2244  0.4409 -0.0028
   60MOL0     C 8009  11.879   9.821   2.889  1.4427 -0.7815  0.1055
   60MOL0    Cl 8010  12.051   9.859   2.866 -0.0932  0.4224  0.2031
   60MOL0     C 8011  11.273   9.333   3.210 -0.7744  0.9796 -0.2625
   60MOL0     C 8012  11.156   9.287   3.176 -0.5182  0.2860 -0.3050
   60MOL0     O 8013  10.844   9.150   3.436 -1.2362  0.4119 -0.6711
   60MOL0     C 8014  10.678   8.946   3.318 -0.2054 -0.2808  0.0907
   60MOL0     C 8015  10.563   8.884   3.260  0.3513  0.2461  0.6023
   60MOL0     N 8016   9.951   9.315   3.248  0.5507 -0.2488  0.2792
   60MOL0     N 8017   9.935   9.443   3.219 -0.0646  0.1164  0.3405
   60MOL0     C 8018   9.340   9.943   3.459 -0.0509  0.0353 -0.4257
   60MOL0     C 8019   9.227   9.945   3.384  0.4662 -0.0652 -0.1670
   60MOL0     C 8020   8.809   9.927   3.239 -0.7328  0.0569 -0.8203
   60MOL0     C 8021   8.782   9.828   3.154 -0.7064  0.9598  1.1150
   60MOL0     C 8022   8.661   9.811   3.085 -0.2952  0.1645 -0.5555
   60MOL0     C 8023   8.567   9.912   3.096 -0.2021  0.3655 -0.0194
   60MOL0     O 8024   8.440   9.899   3.037  0.4589 -0.5243  0.0500
   60MOL0     C 8025   8.450   9.946   2.903  1.4230  0.4323 -0.6155
   60MOL0     C 8026   8.321   9.934   2.822 -0.8683 -0.0410  0.4468
   60MOL0     C 8027   8.248   9.803   2.852 -0.1172 -0.0979  0.1388
   60MOL0     C 8028   8.133   9.770   2.746  0.3190  0.1774  0.1479
   60MOL0     C 8029   8.051   9.888   2.707 -0.3156  0.0542 -0.4499
   60MOL0     C 8030   7.960   9.972   2.705  0.2264 -0.6737 -0.3184
   60MOL0     C 8031   8.583  10.012   3.189 -0.1295  1.0029  0.3853
   60MOL0     C 8032   8.709  10.025   3.248 -1.2689  0.2618  0.5265
   60MOL0     H 8033   9.110   9.634   3.461 -0.2324  0.0387  0.2348
   60MOL0     H 8034   9.355   9.617   3.557  0.4171 -0.7973 -0.6548
   60MOL0     H 8035   9.500  10.024   3.632 -0.8775 -0.2189 -3.2677
   60MOL0     H 8036   9.617   9.930   3.731  4.3353 -3.1861 -2.2121
   60MOL0     H 8037   9.626   9.953   3.433  0.7137 -0.7406 -0.4298
   60MOL0     H 8038   9.727  10.049   3.548 -2.6927  1.9043  2.6693
   60MOL0     H 8039   9.828   9.834   3.638  2.4145 -0.7083 -1.2538
   60MOL0     H 8040   9.719   9.747   3.525  1.3098 -0.0252  0.6010
   60MOL0     H 8041   9.918   9.934   3.391  0.4786 -0.1483 -0.2780
   60MOL0     H 8042   9.985   9.800   3.477  0.7183  2.7690  1.0089
   60MOL0     H 8043   9.823   9.651   3.349  1.0162 -0.9704 -3.0986
   60MOL0     H 8044   9.747   9.784   3.271 -1.5937 -0.9873  1.4864
   60MOL0     H 8045   9.994   9.850   3.199  0.8372 -0.4373  0.0045
   60MOL0     H 8046  10.041   9.698   3.242 -0.0804  0.1491 -2.1161
   60MOL0     H 8047   9.797   9.678   3.069  1.1061 -2.4596  0.3975
   60MOL0     H 8048   9.915   9.789   3.003  3.0670 -0.6502 -1.8567
   60MOL0     H 8049  10.070   9.615   2.994  0.0997 -0.6896  1.7856
   60MOL0     H 8050   9.914   9.563   2.913 -2.3677  0.0307  1.6620
   60MOL0     H 8051  10.017   9.320   2.921 -0.8529  1.7731 -0.6833
   60MOL0     H 8052   9.946   9.072   3.242  0.1436  3.8692  1.4048
   60MOL0     H 8053   9.957   9.053   3.065 -2.5080  3.9510 -0.5515
   60MOL0     H 8054  10.188   9.108   3.266  0.4688  0.6067 -0.0159
   60MOL0     H 8055  10.214   9.100   3.091 -1.3070  0.3288 -0.3254
   60MOL0     H 8056  10.125   8.873   3.083  1.0083 -0.0404 -0.5610
   60MOL0     H 8057  10.089   8.886   3.258  1.7030 -0.3516  0.5618
   60MOL0     H 8058  10.295   8.763   3.243 -2.6699  0.6754  2.1162
   60MOL0     H 8059  10.321   8.920   3.310  1.6741 -5.2820  2.5684
   60MOL0     H 8060  10.536   9.079   2.982  0.2298 -0.1325 -0.5667
   60MOL0     H 8061  10.652   9.257   2.989 -1.1196 -1.7737 -0.2682
   60MOL0     H 8062  10.762   9.307   3.121 -0.0964 -0.4664  1.5430
   60MOL0     H 8063  10.800   9.197   2.977 -0.5460 -1.5866  0.0554
   60MOL0     H 8064  11.110   9.066   3.424  2.6672 -1.8152  0.3557
   60MOL0     H 8065  11.346   9.110   3.457 -1.2342  0.1817  0.5670
   60MOL0     H 8066  11.579   9.124   3.358  5.0338 -1.3553 -1.8834
   60MOL0     H 8067  11.540   9.169   3.188 -3.4103 -0.8797  0.9749
   60MOL0     H 8068  11.740   9.290   3.375  1.9690 -0.3954 -1.3006
   60MOL0     H 8069  11.801   9.185   3.243 -1.5488 -1.7946 -2.1873
   60MOL0     H 8070  11.619   9.394   3.123  0.4593  0.7862 -0.2574
   60MOL0     H 8071  11.785   9.330   3.098  2.4661 -0.5882  1.6311
   60MOL0     H 8072  11.690   9.551   3.289 -2.3404 -0.6437 -1.2638
   60MOL0     H 8073  11.864   9.495   3.248  0.7952 -2.3085 -3.4163
   60MOL0     H 8074  11.667   9.648   3.092 -0.0053 -1.0118 -0.2046
   60MOL0     H 8075  11.798   9.557   3.007  2.9182  0.5541  0.3385
   60MOL0     H 8076  11.840   9.763   3.239  0.3151 -0.9722  0.8477
   60MOL0     H 8077  11.964   9.693   3.136  1.2783  3.0656  4.7487
   60MOL0     H 8078  11.891   9.929   3.093 -3.6419  0.5236  3.6838
   60MOL0     H 8079  11.739   9.880   3.044 -0.3378  0.4590 -2.9538
   60MOL0     H 8080  11.816   9.874   2.817 -1.0604 -0.6064  2.2958
   60MOL0     H 8081  11.868   9.716   2.858 -1.6886  0.1397 -2.3957
   60MOL0     H 8082  11.320   9.408   3.148  0.2103  0.7117  0.1356
   60MOL0     H 8083  11.104   9.335   3.094 -1.1333 -0.1485 -0.1796
   60MOL0     H 8084  10.727   8.912   3.409  0.5307 -1.2254 -0.6391
   60MOL0     H 8085  10.511   8.805   3.312 -1.7089  0.6140 -0.7791
   60MOL0     H 8086   9.396  10.035   3.469 -0.9469  0.6176 -0.6402
   60MOL0     H 8087   9.195  10.031   3.326 -0.3758  0.8140  1.5266
   60MOL0     H 8088   8.853   9.749   3.135 -1.7860 -0.2049  1.7786
   60MOL0     H 8089   8.641   9.734   3.012  2.6164 -1.2527  0.0213
   60MOL0     H 8090   8.483  10.050   2.901  0.6528  0.9106  3.5542
   60MOL0     H 8091   8.521   9.883   2.848  0.7079  0.8197 -2.0376
   60MOL0     H 8092   8.358   9.938   2.719 -0.6173 -1.2724  0.4686
   60MOL0     H 8093   8.254  10.020   2.820 -0.1772  0.5173 -1.9666
   60MOL0     H 8094   8.202   9.812   2.951 -0.9558 -0.1055 -0.2371
   60MOL0     H 8095   8.317   9.718   2.853  0.7652  0.6037  0.8964
   60MOL0     H 8096   8.071   9.689   2.786  2.4455 -1.2701  0.6563
   60MOL0     H 8097   8.181   9.753   2.649 -0.2430  3.5842 -0.8689
   60MOL0     H 8098   7.881  10.044   2.694  1.1649  0.4360 -0.0066
   60MOL0     H 8099   8.515  10.097   3.187 -0.5441  0.6852  0.9586
   60MOL0     H 8100   8.720  10.122   3.295  1.7764  0.5573 -0.5936
   61MOL0     O 8101   2.754   6.891  11.105 -0.0429  1.0872  0.3255
   61MOL0     C 8102   2.676   6.901  11.197  0.5544  0.0424  0.6959
   61MOL0     O 8103   2.710   6.886  11.322 -0.4009  0.8141  0.2859
   61MOL0     C 8104   2.845   6.875  11.351  0.0432  0.2104 -0.0197
   61MOL0     C 8105   2.914   6.995  11.355  0.6776  0.1717  0.5782
   61MOL0     C 8106   3.047   6.995  11.384 -0.7444  0.1545 -0.8594
   61MOL0     C 8107   3.124   6.879  11.392 -0.3219  0.7883 -1.0558
   61MOL0     O 8108   3.260   6.872  11.413  0.2060 -0.4906 -0.0280
   61MOL0     C 8109   3.346   6.983  11.385 -0.5070  0.5288 -0.7935
   61MOL0     C 8110   3.476   6.925  11.320  0.9411 -0.0761  0.2633
   61MOL0     C 8111   3.580   6.882  11.413 -0.0863 -0.4967  0.0043
   61MOL0     C 8112   3.720   6.866  11.349 -0.2267 -0.5248  0.5263
   61MOL0     C 8113   3.829   6.876  11.454  0.0389  0.5002  0.1437
   61MOL0     C 8114   3.960   6.852  11.383 -0.0985  0.5526  0.0408
   61MOL0     C 8115   4.059   6.818  11.485 -0.1776  0.0149 -0.3332
   61MOL0     C 8116   4.201   6.803  11.423  0.2970 -0.0721  0.5534
   61MOL0     N 8117   4.299   6.759  11.528  0.0410  0.4037  0.3211
   61MOL0     C 8118   4.299   6.791  11.658  0.4180 -0.1952  0.5308
   61MOL0     C 8119   4.380   6.703  11.717 -0.8748 -0.1477 -0.9178
   61MOL0     C 8120   4.411   6.708  11.866 -1.0998 -0.4942  1.1984
   61MOL0     C 8121   4.514   6.821  11.907 -0.0827 -0.2599 -0.4190
   61MOL0     C 8122   4.649   6.798  11.831  0.0271  0.2955  0.1768
   61MOL0     C 8123   4.648   6.888  11.701  0.2172  0.2772 -0.3078
   61MOL0     O 8124   4.768   6.876  11.621  0.2279 -0.3217  0.1542
   61MOL0     C 8125   4.802   6.753  11.559  0.3451 -0.9517 -1.0820
   61MOL0     C 8126   4.714   6.719  11.456 -0.7631  0.6843 -0.7025
   61MOL0     C 8127   4.745   6.603  11.375  0.0568  0.0075  0.7379
   61MOL0     C 8128   4.633   6.573  11.271  0.0120  0.0115 -0.6061
   61MOL0     C 8129   4.863   6.524  11.397  0.1854  0.0948  0.3285
   61MOL0     C 8130   4.882   6.394  11.332 -0.0914  0.0066 -1.0881
   61MOL0     O 8131   5.005   6.337  11.348  1.0442  0.0624 -0.4863
   61MOL0     C 8132   5.025   6.209  11.340 -1.1467  0.4486 -0.2219
   61MOL0     C 8133   4.939   6.108  11.377  0.2923  0.6246  0.0876
   61MOL0     C 8134   4.966   5.970  11.359  0.0440 -1.2813  0.3738
   61MOL0     C 8135   5.089   5.932  11.298 -0.2786 -0.2118 -0.5226
   61MOL0     O 8136   5.137   5.801  11.300  0.4083  0.3203 -0.4532
   61MOL0     C 8137   5.150   5.741  11.436  0.2516  0.2141 -0.9885
   61MOL0     C 8138   5.237   5.838  11.531 -0.0362  0.4277  0.2381
   61MOL0     C 8139   5.391   5.861  11.503 -0.1733 -0.8453  0.8541
   61MOL0     C 8140   5.461   5.945  11.607 -0.5925 -0.5142  0.0477
   61MOL0     C 8141   5.612   5.930  11.613 -0.0235 -1.2573 -0.3387
   61MOL0     C 8142   5.668   6.034  11.702 -0.2415  0.4365 -0.7833
   61MOL0     C 8143   5.692   6.170  11.630 -0.4964  0.3269 -0.1953
   61MOL0     C 8144   5.700   6.281  11.737  0.7747  0.2609  0.1611
   61MOL0    Cl 8145   5.825   6.266  11.879 -0.5624  0.0305  0.0883
   61MOL0     C 8146   5.175   6.038  11.266 -0.5002  0.6140  0.4540
   61MOL0     C 8147   5.145   6.172  11.291 -0.7741  0.2709 -0.6254
   61MOL0     O 8148   4.788   6.347  11.267 -0.0951  0.6485  0.6617
   61MOL0     C 8149   4.958   6.574  11.487  0.5198 -0.9701 -0.9613
   61MOL0     C 8150   4.923   6.685  11.570 -0.2578 -0.0817  0.0826
   61MOL0     N 8151   4.431   6.614  11.625 -0.5006 -0.7742  0.0245
   61MOL0     N 8152   4.390   6.657  11.516  0.1474 -0.1951  0.5684
   61MOL0     C 8153   3.057   6.759  11.395  1.1580  0.7200 -0.8434
   61MOL0     C 8154   2.912   6.762  11.372  0.3497 -0.2130  0.5641
   61MOL0     C 8155   2.531   6.930  11.158  0.5326  0.4934 -0.2429
   61MOL0     C 8156   2.479   6.885  11.036  0.7828 -0.7029  0.2971
   61MOL0     C 8157   2.346   6.909  11.000 -0.1222  0.4832 -0.9976
   61MOL0     C 8158   2.266   6.977  11.087 -0.2848  0.0457  0.0577
   61MOL0     O 8159   2.143   7.019  11.046 -0.8573  0.0808 -0.3333
   61MOL0     C 8160   2.026   6.987  11.127 -0.2775 -0.1478  0.0681
   61MOL0     C 8161   2.010   6.846  11.183 -1.2909  0.4261  1.2357
   61MOL0     C 8162   1.969   6.746  11.070  0.5348  0.1234 -0.4344
   61MOL0     C 8163   1.889   6.630  11.133  0.2811 -0.2464 -0.1430
   61MOL0     C 8164   1.970   6.548  11.232  0.7516 -0.0611 -0.6381
   61MOL0     C 8165   2.019   6.470  11.317  0.0371  0.6226 -0.5802
   61MOL0     C 8166   2.313   7.019  11.214 -0.3812  0.4448  0.4610
   61MOL0     C 8167   2.437   6.987  11.248  0.3418  1.4340  0.4107
   61MOL0     H 8168   2.867   7.086  11.319  1.2273 -1.3548 -4.9534
   61MOL0     H 8169   3.096   7.091  11.381  1.3552 -0.8234  0.1423
   61MOL0     H 8170   3.300   7.068  11.333 -0.1983  4.3024  4.2324
   61MOL0     H 8171   3.367   7.024  11.484 -2.3756  2.1541 -1.0141
   61MOL0     H 8172   3.454   6.836  11.261  0.4808 -0.6538  1.2846
   61MOL0     H 8173   3.517   7.000  11.252  0.4057 -0.8128 -0.9058
   61MOL0     H 8174   3.579   6.954  11.495 -4.5521 -1.1531  0.7552
   61MOL0     H 8175   3.558   6.781  11.450  2.4662 -1.6950 -1.4820
   61MOL0     H 8176   3.724   6.765  11.308 -2.7996 -1.5146  2.4254
   61MOL0     H 8177   3.733   6.937  11.266  0.1323  2.6373  3.0787
   61MOL0     H 8178   3.829   6.970  11.509 -1.7589 -0.1330  1.3017
   61MOL0     H 8179   3.816   6.797  11.528  0.0374 -0.7405 -1.1410
   61MOL0     H 8180   3.953   6.771  11.309  2.6607  0.7753 -0.5898
   61MOL0     H 8181   3.996   6.930  11.315 -1.0478  0.5019 -0.5507
   61MOL0     H 8182   4.044   6.897  11.559 -0.6350 -0.2281 -0.1668
   61MOL0     H 8183   4.027   6.729  11.539 -0.0927 -0.9376 -1.8030
   61MOL0     H 8184   4.218   6.891  11.360 -0.3261 -0.9186 -0.8359
   61MOL0     H 8185   4.194   6.723  11.349  2.7762 -1.4775  1.6897
   61MOL0     H 8186   4.239   6.861  11.717 -0.8707  1.6903 -2.7534
   61MOL0     H 8187   4.317   6.729  11.917 -0.8382 -1.5082  2.1505
   61MOL0     H 8188   4.448   6.613  11.906 -1.9084 -0.0449  3.0775
   61MOL0     H 8189   4.533   6.815  12.014 -1.9822 -0.8415 -0.0731
   61MOL0     H 8190   4.475   6.921  11.887  0.2327  0.3733  1.9384
   61MOL0     H 8191   4.657   6.691  11.815  4.2602  0.1214  2.2150
   61MOL0     H 8192   4.734   6.829  11.893 -1.2212 -0.5186  2.3998
   61MOL0     H 8193   4.634   6.995  11.717 -1.1608  0.5817 -3.0073
   61MOL0     H 8194   4.564   6.853  11.641 -0.5713  2.0822 -0.3164
   61MOL0     H 8195   4.623   6.776  11.439 -0.5095  2.0441  2.0982
   61MOL0     H 8196   4.553   6.648  11.273 -2.3342 -2.2590 -1.7357
   61MOL0     H 8197   4.666   6.548  11.169  3.4649 -0.9998  0.6244
   61MOL0     H 8198   4.573   6.486  11.299  0.4558 -0.0021  0.3134
   61MOL0     H 8199   4.841   6.138  11.413 -0.4022 -1.4964  0.1099
   61MOL0     H 8200   4.886   5.898  11.374  1.1836 -2.3298  1.6921
   61MOL0     H 8201   5.049   5.730  11.477  1.0731  0.5324  1.2932
   61MOL0     H 8202   5.195   5.642  11.425 -0.2671 -0.4253  1.8610
   61MOL0     H 8203   5.189   5.935  11.545 -1.6697 -0.5942  2.4549
   61MOL0     H 8204   5.235   5.791  11.630 -0.2258  0.8106  0.4193
   61MOL0     H 8205   5.402   5.914  11.408 -0.8076  0.4048  1.4597
   61MOL0     H 8206   5.444   5.768  11.479  1.2458  0.0865  0.2446
   61MOL0     H 8207   5.432   6.051  11.608 -1.1152 -0.5953  2.9604
   61MOL0     H 8208   5.421   5.919  11.705 -1.9858 -1.0552 -0.6492
   61MOL0     H 8209   5.661   5.934  11.515 -0.7472  0.4420 -0.6809
   61MOL0     H 8210   5.619   5.836  11.668 -1.2610  0.8792  3.8716
   61MOL0     H 8211   5.609   6.043  11.794  1.4580  1.8754  0.2274
   61MOL0     H 8212   5.764   5.987  11.723 -1.3244 -1.0792  1.0636
   61MOL0     H 8213   5.617   6.179  11.551  2.3949 -0.5421 -3.2178
   61MOL0     H 8214   5.783   6.153  11.573 -0.1190 -0.9554  0.7508
   61MOL0     H 8215   5.602   6.296  11.783  1.0332  0.8459  0.5464
   61MOL0     H 8216   5.710   6.377  11.685  0.5546 -1.0689 -2.5060
   61MOL0     H 8217   5.275   6.030  11.225  0.4778  3.5423  1.9579
   61MOL0     H 8218   5.211   6.248  11.252 -1.9328  1.4955 -0.2941
   61MOL0     H 8219   5.051   6.522  11.506 -0.2798 -2.9331 -2.0837
   61MOL0     H 8220   4.988   6.716  11.651 -0.2782 -0.0667  0.0935
   61MOL0     H 8221   3.105   6.665  11.420 -3.1326 -0.9606  2.4770
   61MOL0     H 8222   2.844   6.677  11.369 -2.2444  1.6611  1.7280
   61MOL0     H 8223   2.546   6.829  10.972  0.8872  1.6089 -1.7435
   61MOL0     H 8224   2.302   6.877  10.906 -1.1498 -0.5669 -0.1745
   61MOL0     H 8225   2.026   7.053  11.214  1.3031 -2.1635  1.7215
   61MOL0     H 8226   1.937   7.006  11.066 -0.3198 -1.8647 -0.4745
   61MOL0     H 8227   1.944   6.845  11.270 -0.5016  0.9550  1.8488
   61MOL0     H 8228   2.110   6.819  11.217  0.8193  2.0902 -2.9284
   61MOL0     H 8229   2.049   6.705  11.008 -0.7576 -3.6730  0.1031
   61MOL0     H 8230   1.897   6.789  11.000 -2.7090 -2.0517  1.2677
   61MOL0     H 8231   1.839   6.575  11.053 -0.4291  0.6742 -0.3644
   61MOL0     H 8232   1.802   6.670  11.186  1.4713  1.0711  0.8952
   61MOL0     H 8233   2.065   6.402  11.386 -1.0985  2.1830  1.8193
   61MOL0     H 8234   2.244   7.066  11.283 -1.0347 -0.1906  0.2449
   61MOL0     H 8235   2.480   7.025  11.340  0.7859  2.9334 -0.3877
   62MOL0     O 8236   9.193   0.189  10.807 -0.1899 -0.3831  0.9023
   62MOL0     C 8237   9.202   0.272  10.895  0.3115 -0.6340 -1.0075
   62MOL0     O 8238   9.143   0.267  11.017  0.8805 -0.0796 -0.1161
   62MOL0     C 8239   9.075   0.155  11.057 -0.0275 -0.7558  0.0308
   62MOL0     C 8240   9.074   0.127  11.195 -0.3804  0.2469  0.6179
   62MOL0     C 8241   9.006   0.019  11.244  0.5592 -0.1802 -0.0693
   62MOL0     C 8242   8.920  -0.058  11.160 -0.3943 -0.1425 -0.3772
   62MOL0     O 8243   8.858  -0.159  11.224 -1.2685  0.0225 -0.2860
   62MOL0     C 8244   8.821  -0.270  11.141 -0.2990  0.6260 -0.7324
   62MOL0     C 8245   8.752  -0.378  11.224 -0.3755  0.1044  0.1668
   62MOL0     C 8246   8.629  -0.320  11.294 -0.2388 -0.0987  0.1529
   62MOL0     C 8247   8.535  -0.424  11.350  0.5137  1.0788  1.4199
   62MOL0     C 8248   8.441  -0.367  11.458 -1.0463  0.0248 -0.6832
   62MOL0     C 8249   8.318  -0.434  11.512 -0.0504  0.8294  0.9925
   62MOL0     C 8250   8.340  -0.564  11.585  0.5867  0.4398  0.2420
   62MOL0     C 8251   8.284  -0.563  11.728  0.0753  0.4960 -0.2550
   62MOL0     N 8252   8.144  -0.576  11.740  0.4723  0.0312 -0.6392
   62MOL0     C 8253   8.081  -0.623  11.852  0.1972 -0.2306 -0.3830
   62MOL0     C 8254   7.949  -0.604  11.824 -0.5829  0.7956  0.6296
   62MOL0     C 8255   7.837  -0.644  11.910  0.1524 -0.9733 -0.3844
   62MOL0     C 8256   7.752  -0.515  11.934 -1.5409 -0.3689  0.6568
   62MOL0     C 8257   7.829  -0.409  12.023 -0.5161  0.9441 -0.1045
   62MOL0     C 8258   7.750  -0.275  12.024  0.5618  0.2550 -0.5360
   62MOL0     O 8259   7.811  -0.204  12.140  0.2262  0.7096 -0.8551
   62MOL0     C 8260   7.754  -0.084  12.178 -1.1962 -0.0854 -0.9595
   62MOL0     C 8261   7.822  -0.012  12.277  0.0039  0.3443  0.0450
   62MOL0     C 8262   7.792   0.116  12.316  0.1370 -0.0248 -0.0616
   62MOL0     C 8263   7.866   0.177  12.427 -0.6438  0.7159  0.3366
   62MOL0     C 8264   7.695   0.184  12.248  0.2455  0.4980 -0.5934
   62MOL0     C 8265   7.650   0.317  12.280 -0.0227  0.3037 -0.0461
   62MOL0     O 8266   7.628   0.392  12.168  0.2150  0.0369 -0.1478
   62MOL0     C 8267   7.598   0.530  12.180 -0.6764  0.6304 -1.0483
   62MOL0     C 8268   7.492   0.588  12.251  0.4046  1.1786 -0.6215
   62MOL0     C 8269   7.465   0.724  12.237  0.2614 -0.1466 -0.6445
   62MOL0     C 8270   7.541   0.811  12.162 -0.7165 -0.0110  0.6277
   62MOL0     O 8271   7.512   0.945  12.138 -0.4943  0.3702 -0.1438
   62MOL0     C 8272   7.482   1.024  12.251  0.1037  0.2680  0.0689
   62MOL0     C 8273   7.462   1.170  12.216 -0.2809  0.8542  0.3410
   62MOL0     C 8274   7.414   1.264  12.328 -0.5721  1.9303 -0.6300
   62MOL0     C 8275   7.364   1.399  12.285  0.1611 -0.3131  0.0188
   62MOL0     C 8276   7.337   1.510  12.394 -1.6662  0.3574  0.7017
   62MOL0     C 8277   7.270   1.630  12.341 -0.7420 -0.2542  0.0622
   62MOL0     C 8278   7.213   1.708  12.455 -0.4145  0.5965 -0.3974
   62MOL0     C 8279   7.320   1.772  12.545  0.4672 -0.3131 -0.3170
   62MOL0    Cl 8280   7.266   1.888  12.675 -0.0501  0.2556 -0.3321
   62MOL0     C 8281   7.640   0.747  12.088 -0.9295 -0.5283  0.7851
   62MOL0     C 8282   7.667   0.613  12.093 -0.3153 -0.5622 -0.0859
   62MOL0     O 8283   7.627   0.356  12.389  0.3950 -0.2647 -0.3119
   62MOL0     C 8284   7.613   0.109  12.152 -0.9259 -0.5331  0.0957
   62MOL0     C 8285   7.647  -0.016  12.113  0.5463  0.1238 -0.3049
   62MOL0     N 8286   7.936  -0.572  11.694  0.6761 -0.1448 -0.1414
   62MOL0     N 8287   8.050  -0.555  11.643 -0.2972  0.5834  0.3440
   62MOL0     C 8288   8.894  -0.013  11.029 -0.3987 -0.9687 -0.7790
   62MOL0     C 8289   8.977   0.089  10.977  0.9829  0.3213  0.3950
   62MOL0     C 8290   9.295   0.386  10.880  0.5678  0.1349 -0.5540
   62MOL0     C 8291   9.373   0.393  10.767  0.0769 -0.0858 -0.5059
   62MOL0     C 8292   9.462   0.506  10.761 -1.6798 -0.1982  0.2002
   62MOL0     C 8293   9.468   0.602  10.863  0.3161  0.7695  0.3155
   62MOL0     O 8294   9.572   0.684  10.860  0.3478 -0.0111  0.4721
   62MOL0     C 8295   9.622   0.727  10.990 -0.0322  0.1491 -0.5117
   62MOL0     C 8296   9.771   0.783  10.996 -0.2275  0.3702  0.1263
   62MOL0     C 8297   9.784   0.924  10.927 -0.0123 -0.0074  0.3920
   62MOL0     C 8298   9.926   0.976  10.941  0.5583  0.5024 -0.0582
   62MOL0     C 8299  10.009   0.904  10.860  0.0213 -0.0572 -0.2535
   62MOL0     C 8300  10.107   0.844  10.815  0.5830 -0.5409 -0.6674
   62MOL0     C 8301   9.381   0.581  10.973  0.3400 -0.3009  0.5006
   62MOL0     C 8302   9.290   0.481  10.986  0.3517  0.5633  0.2183
   62MOL0     H 8303   9.130   0.191  11.262 -0.5593 -0.5394  1.5462
   62MOL0     H 8304   9.011  -0.015  11.347 -2.9001 -0.1586  0.2259
   62MOL0     H 8305   8.756  -0.236  11.060 -1.7882 -1.3399 -0.4663
   62MOL0     H 8306   8.911  -0.316  11.099 -0.7959 -1.5872  0.4174
   62MOL0     H 8307   8.725  -0.461  11.159  0.4162 -0.7499  0.8996
   62MOL0     H 8308   8.814  -0.400  11.311  0.5243  1.6077 -0.0518
   62MOL0     H 8309   8.673  -0.263  11.376  1.3417  0.7214 -1.2040
   62MOL0     H 8310   8.573  -0.248  11.234 -1.0433 -0.7287  0.1292
   62MOL0     H 8311   8.483  -0.462  11.261  0.4133  1.3543  1.3578
   62MOL0     H 8312   8.596  -0.507  11.387  2.1981 -0.3956 -3.6839
   62MOL0     H 8313   8.507  -0.346  11.543 -0.4578  0.4982 -1.2492
   62MOL0     H 8314   8.419  -0.264  11.427  1.2658  0.4205 -1.1490
   62MOL0     H 8315   8.281  -0.357  11.580  0.3649 -0.0248  2.2192
   62MOL0     H 8316   8.257  -0.459  11.425 -1.8033  2.5219  1.6788
   62MOL0     H 8317   8.294  -0.641  11.523 -2.0646  1.6203  0.5881
   62MOL0     H 8318   8.446  -0.591  11.583  0.6286  0.6414 -1.4386
   62MOL0     H 8319   8.321  -0.481  11.790 -0.8930 -0.6571  1.9739
   62MOL0     H 8320   8.323  -0.655  11.774 -1.8124  0.4671  1.4280
   62MOL0     H 8321   8.137  -0.653  11.940  6.3921  1.6140 -3.1145
   62MOL0     H 8322   7.772  -0.715  11.859 -1.3517 -2.0207  2.7263
   62MOL0     H 8323   7.866  -0.694  12.003  0.4840 -1.8890 -0.9628
   62MOL0     H 8324   7.664  -0.553  11.987 -2.1697  0.4755  0.2365
   62MOL0     H 8325   7.720  -0.482  11.835 -3.3290  1.3660  1.7371
   62MOL0     H 8326   7.931  -0.390  11.987 -0.1378 -0.8582 -0.0581
   62MOL0     H 8327   7.842  -0.439  12.128 -0.8579  0.4028 -0.2147
   62MOL0     H 8328   7.642  -0.290  12.038  0.3422  1.5601 -0.7508
   62MOL0     H 8329   7.766  -0.220  11.931 -2.7542  0.1440 -1.3148
   62MOL0     H 8330   7.904  -0.064  12.326  2.7255  3.4584 -0.8415
   62MOL0     H 8331   7.795   0.222  12.498 -4.2139 -2.5819 -0.7615
   62MOL0     H 8332   7.935   0.107  12.474  0.7870 -0.6909 -3.4986
   62MOL0     H 8333   7.926   0.258  12.385  0.8156 -0.6752 -0.3497
   62MOL0     H 8334   7.420   0.531  12.308  2.8066 -0.5737  0.8273
   62MOL0     H 8335   7.381   0.768  12.290  2.0249  0.8150  1.5134
   62MOL0     H 8336   7.381   0.989  12.273  0.7332 -3.6203 -2.2503
   62MOL0     H 8337   7.551   1.012  12.335  3.2372  0.8247 -2.2328
   62MOL0     H 8338   7.559   1.207  12.180  0.2784 -1.5852 -0.8822
   62MOL0     H 8339   7.391   1.174  12.134  0.3466 -0.8763 -0.3220
   62MOL0     H 8340   7.492   1.282  12.403  0.8444  0.2206 -1.6045
   62MOL0     H 8341   7.336   1.223  12.393  2.8461  1.2908  3.5441
   62MOL0     H 8342   7.436   1.441  12.214 -0.3519 -0.3740 -0.5491
   62MOL0     H 8343   7.280   1.384  12.217  2.4151 -0.1017 -3.0202
   62MOL0     H 8344   7.436   1.529  12.438 -1.2649  0.5885 -0.2790
   62MOL0     H 8345   7.271   1.464  12.468 -0.9819  0.1393  1.1900
   62MOL0     H 8346   7.346   1.683  12.281 -0.2533  0.0595  0.9411
   62MOL0     H 8347   7.185   1.606  12.277 -4.2252  1.7395  3.5918
   62MOL0     H 8348   7.166   1.631  12.515  2.9108 -4.1071 -3.1305
   62MOL0     H 8349   7.139   1.782  12.424  1.1995  1.9583 -1.1769
   62MOL0     H 8350   7.383   1.826  12.473  1.6145 -0.9842  0.1693
   62MOL0     H 8351   7.376   1.691  12.592  2.0541  1.6204  1.3291
   62MOL0     H 8352   7.704   0.800  12.018 -1.0644 -2.2536 -0.7132
   62MOL0     H 8353   7.749   0.573  12.034  0.9502 -1.7135  2.2940
   62MOL0     H 8354   7.526   0.147  12.099 -0.2763  2.0574  0.7131
   62MOL0     H 8355   7.595  -0.055  12.027 -1.6979  2.5068 -0.1600
   62MOL0     H 8356   8.814  -0.057  10.970  0.7905 -1.5272 -2.0144
   62MOL0     H 8357   8.962   0.105  10.870  0.4232 -1.5694  0.1521
   62MOL0     H 8358   9.355   0.314  10.694  1.8765 -1.0356  0.0295
   62MOL0     H 8359   9.527   0.538  10.680 -2.1408  5.2841  1.6306
   62MOL0     H 8360   9.546   0.796  11.029  0.0982 -0.6590  1.2715
   62MOL0     H 8361   9.615   0.645  11.062 -1.7037  0.2559 -0.5109
   62MOL0     H 8362   9.843   0.715  10.951 -1.1962  0.4372 -1.6521
   62MOL0     H 8363   9.794   0.783  11.103  2.8024  0.8365 -0.4543
   62MOL0     H 8364   9.716   0.993  10.979 -0.4032  0.1006 -0.2454
   62MOL0     H 8365   9.761   0.924  10.820  2.3839 -2.0197 -0.1949
   62MOL0     H 8366   9.953   0.963  11.046 -0.9609 -1.4171  0.1486
   62MOL0     H 8367   9.935   1.080  10.906 -2.5572  0.6530 -0.7439
   62MOL0     H 8368  10.194   0.788  10.788  1.8641 -1.8155  4.8156
   62MOL0     H 8369   9.392   0.641  11.062 -3.5252  0.1186  0.8694
   62MOL0     H 8370   9.224   0.467  11.071 -2.7878  0.8096 -1.9949
   63MOL0     O 8371   6.305   4.827   2.323  0.3185 -0.1619  0.3324
   63MOL0     C 8372   6.318   4.913   2.231  0.7032 -0.0163 -1.0301
   63MOL0     O 8373   6.429   4.938   2.156 -0.0342  0.9709 -0.4912
   63MOL0     C 8374   6.533   4.852   2.165  0.2160 -0.4297  0.5874
   63MOL0     C 8375   6.554   4.767   2.055 -1.2385  0.7350  0.8497
   63MOL0     C 8376   6.651   4.662   2.067 -0.2242  0.0520  0.4127
   63MOL0     C 8377   6.739   4.653   2.176 -0.1292 -0.1000 -0.6538
   63MOL0     O 8378   6.831   4.557   2.178  0.2083 -0.6860 -0.2066
   63MOL0     C 8379   6.927   4.535   2.290  0.6955 -0.2473 -0.2492
   63MOL0     C 8380   7.038   4.640   2.263  0.1169  0.2355 -0.6380
   63MOL0     C 8381   7.120   4.601   2.148 -0.6225 -0.0213 -0.3251
   63MOL0     C 8382   7.256   4.685   2.134 -0.1143  0.3374  0.3323
   63MOL0     C 8383   7.326   4.709   2.000 -0.5148 -0.4898 -0.5434
   63MOL0     C 8384   7.240   4.741   1.880 -0.0898 -0.2602 -0.2744
   63MOL0     C 8385   7.170   4.883   1.889 -0.0971  0.2958 -0.5030
   63MOL0     C 8386   7.266   5.004   1.879  1.3718  1.3585 -0.5197
   63MOL0     N 8387   7.321   5.000   1.748 -1.0970 -0.6570 -0.2188
   63MOL0     C 8388   7.428   4.922   1.704  0.2195 -0.1083 -0.1811
   63MOL0     C 8389   7.452   4.984   1.583 -0.4859  0.1673  0.1701
   63MOL0     C 8390   7.559   4.950   1.487 -0.0074  1.1029 -0.0787
   63MOL0     C 8391   7.676   5.043   1.502 -0.8943 -0.1676 -0.8062
   63MOL0     C 8392   7.654   5.164   1.404  0.4126 -0.1746  0.0294
   63MOL0     C 8393   7.756   5.267   1.434 -0.3620 -1.1815  0.1870
   63MOL0     O 8394   7.879   5.210   1.478 -0.9206 -0.1269  0.4996
   63MOL0     C 8395   7.980   5.292   1.527 -0.2040 -0.4580 -0.6011
   63MOL0     C 8396   8.086   5.230   1.600  0.8657  0.0594 -0.0036
   63MOL0     C 8397   8.195   5.312   1.651 -0.1741  0.3952  0.0905
   63MOL0     C 8398   8.313   5.234   1.715  0.2819 -0.2778 -0.9246
   63MOL0     C 8399   8.188   5.450   1.646  0.1734 -0.2365 -0.3195
   63MOL0     C 8400   8.289   5.545   1.708  0.2288 -0.2724 -1.1196
   63MOL0     O 8401   8.243   5.677   1.698  0.1133 -0.0444  0.4258
   63MOL0     C 8402   8.346   5.774   1.718  0.3226  0.9641 -0.3564
   63MOL0     C 8403   8.417   5.784   1.834  0.5245  0.6589 -0.7919
   63MOL0     C 8404   8.512   5.890   1.853 -0.0272  0.5407 -0.2695
   63MOL0     C 8405   8.542   5.972   1.743  0.0506 -1.5026 -0.3343
   63MOL0     O 8406   8.640   6.059   1.784 -0.3555  0.0943 -0.9058
   63MOL0     C 8407   8.701   6.139   1.684  0.2260 -0.0405  0.5756
   63MOL0     C 8408   8.686   6.296   1.713  0.1397 -0.2921  0.2244
   63MOL0     C 8409   8.724   6.394   1.598  0.6217 -0.3404 -0.1226
   63MOL0     C 8410   8.865   6.377   1.538  0.7475 -0.3661  0.3179
   63MOL0     C 8411   8.920   6.503   1.472 -0.5480 -0.0228  0.5334
   63MOL0     C 8412   9.023   6.456   1.367 -0.2083 -0.0072  0.0210
   63MOL0     C 8413   9.153   6.395   1.432  0.3164  0.3455 -0.3097
   63MOL0     C 8414   9.264   6.382   1.329 -0.0130  0.5458 -0.9760
   63MOL0    Cl 8415   9.204   6.269   1.195 -0.0671 -0.5213 -0.0378
   63MOL0     C 8416   8.483   5.961   1.618  0.3621 -0.4505 -0.4433
   63MOL0     C 8417   8.381   5.859   1.608  0.7132 -0.3558 -0.3476
   63MOL0     O 8418   8.387   5.503   1.773  0.0159 -0.3846 -0.0032
   63MOL0     C 8419   8.082   5.499   1.562 -0.6774 -1.0325  0.4210
   63MOL0     C 8420   7.984   5.426   1.505 -0.7056  0.5092 -0.7075
   63MOL0     N 8421   7.348   5.065   1.549  0.5751  0.5297 -0.3712
   63MOL0     N 8422   7.286   5.086   1.659  0.5208 -0.6137  0.1194
   63MOL0     C 8423   6.711   4.736   2.280  0.0180  0.5566  0.2956
   63MOL0     C 8424   6.605   4.834   2.281  0.2997 -0.0170  0.2395
   63MOL0     C 8425   6.196   4.987   2.202  0.1083 -0.7739 -0.5324
   63MOL0     C 8426   6.062   4.937   2.231 -0.3959  0.2138 -1.4293
   63MOL0     C 8427   5.951   5.013   2.195  0.5176  0.1262 -0.8386
   63MOL0     C 8428   5.962   5.131   2.124 -0.5319 -0.3736 -0.1461
   63MOL0     O 8429   5.856   5.211   2.089 -0.1374  0.1139 -0.8201
   63MOL0     C 8430   5.867   5.360   2.080  0.3425  0.4323  0.0342
   63MOL0     C 8431   5.733   5.415   2.137  0.0867 -0.2825  0.2463
   63MOL0     C 8432   5.588   5.376   2.067  0.3626 -0.2340 -1.1528
   63MOL0     C 8433   5.585   5.403   1.913 -0.0284 -0.0038  0.4778
   63MOL0     C 8434   5.581   5.548   1.894 -0.6240 -0.6165  0.7080
   63MOL0     C 8435   5.588   5.666   1.891 -0.3375 -0.5925  0.4668
   63MOL0     C 8436   6.090   5.172   2.083  0.0616  0.0685 -0.2753
   63MOL0     C 8437   6.208   5.107   2.131 -0.9929 -0.0978 -0.3284
   63MOL0     H 8438   6.487   4.793   1.973 -5.2146 -1.0444  3.2129
   63MOL0     H 8439   6.669   4.581   1.997  0.6127  0.7698 -0.2282
   63MOL0     H 8440   6.886   4.534   2.391  1.9373  0.1660  0.2740
   63MOL0     H 8441   6.960   4.431   2.278 -0.4675 -0.7152  0.4247
   63MOL0     H 8442   6.994   4.740   2.257  1.0374  0.6906  0.0465
   63MOL0     H 8443   7.107   4.640   2.348 -2.6337  1.6211  1.7552
   63MOL0     H 8444   7.134   4.493   2.147 -2.5890 -0.3266  1.2108
   63MOL0     H 8445   7.069   4.633   2.056  1.9262 -0.8872 -2.1709
   63MOL0     H 8446   7.231   4.780   2.182 -2.3248  1.1017 -2.1058
   63MOL0     H 8447   7.324   4.623   2.193 -2.0002 -2.8304 -0.5559
   63MOL0     H 8448   7.390   4.797   2.012 -0.5395 -0.6354  0.8822
   63MOL0     H 8449   7.388   4.622   1.977  2.1621  1.4601 -1.2282
   63MOL0     H 8450   7.297   4.736   1.787 -1.8703 -1.5856 -1.3581
   63MOL0     H 8451   7.161   4.664   1.879 -0.5652 -0.0179  3.4362
   63MOL0     H 8452   7.102   4.886   1.804  2.0646 -4.8681 -2.8411
   63MOL0     H 8453   7.119   4.889   1.986  0.4843  0.4094 -0.1988
   63MOL0     H 8454   7.339   4.994   1.959  0.0692  2.4060  0.8486
   63MOL0     H 8455   7.222   5.101   1.905 -0.4349  0.0394  1.6441
   63MOL0     H 8456   7.478   4.842   1.757 -2.6294 -1.6302  0.3854
   63MOL0     H 8457   7.592   4.848   1.509 -4.2043 -0.4469 -0.1113
   63MOL0     H 8458   7.520   4.958   1.385 -0.2288  4.3790  0.1377
   63MOL0     H 8459   7.773   4.998   1.481  0.0787  2.3163 -2.0402
   63MOL0     H 8460   7.676   5.069   1.608 -0.6675 -1.1123 -0.5681
   63MOL0     H 8461   7.557   5.213   1.416  0.9317  0.7935  0.3862
   63MOL0     H 8462   7.662   5.136   1.298 -0.8156 -2.6629  0.5252
   63MOL0     H 8463   7.708   5.327   1.511  0.6152  0.0359 -0.1299
   63MOL0     H 8464   7.776   5.327   1.345 -3.7089 -0.5567 -0.2768
   63MOL0     H 8465   8.080   5.123   1.614 -0.0788  0.3862  2.8258
   63MOL0     H 8466   8.308   5.129   1.685 -0.4459 -0.1193 -1.4097
   63MOL0     H 8467   8.407   5.271   1.674  1.3541  0.0730  1.6783
   63MOL0     H 8468   8.312   5.237   1.824 -0.8523 -0.9614 -0.8986
   63MOL0     H 8469   8.386   5.718   1.914  2.3085 -0.0205 -0.6163
   63MOL0     H 8470   8.567   5.893   1.946 -1.6548 -2.2075  0.9152
   63MOL0     H 8471   8.806   6.107   1.679  1.1382  2.8245 -0.1650
   63MOL0     H 8472   8.657   6.126   1.585  2.5853 -0.6992 -0.4528
   63MOL0     H 8473   8.585   6.318   1.748  0.4428  2.7501 -0.5445
   63MOL0     H 8474   8.751   6.307   1.801  0.5206 -1.5044  0.1127
   63MOL0     H 8475   8.719   6.496   1.636  2.7468 -0.2705  0.1092
   63MOL0     H 8476   8.644   6.395   1.524 -0.2654  0.4952  0.8148
   63MOL0     H 8477   8.930   6.347   1.621 -3.3940 -3.3383  2.8774
   63MOL0     H 8478   8.861   6.294   1.467  1.3375 -1.4833  1.5601
   63MOL0     H 8479   8.963   6.576   1.541  0.3341  1.4085 -1.4425
   63MOL0     H 8480   8.848   6.566   1.419  0.1795  1.0706  0.8209
   63MOL0     H 8481   8.983   6.391   1.288  0.5716  1.2675 -1.4965
   63MOL0     H 8482   9.047   6.544   1.306 -1.8411 -1.1484 -2.4254
   63MOL0     H 8483   9.145   6.295   1.474  0.4002  0.2136 -0.6061
   63MOL0     H 8484   9.186   6.472   1.502 -0.7966  1.9119 -1.4420
   63MOL0     H 8485   9.351   6.332   1.372 -1.4298 -0.3531  1.0602
   63MOL0     H 8486   9.297   6.478   1.288  1.7104  0.0575 -0.7733
   63MOL0     H 8487   8.512   6.012   1.527  2.7618  3.1010  2.0562
   63MOL0     H 8488   8.327   5.849   1.515  0.6377  2.8539 -0.7498
   63MOL0     H 8489   8.094   5.601   1.528  1.4225 -0.6094  2.2492
   63MOL0     H 8490   7.903   5.475   1.451  0.2089  2.9963  0.0063
   63MOL0     H 8491   6.776   4.718   2.365 -1.2920 -3.1686  0.7119
   63MOL0     H 8492   6.586   4.892   2.371 -0.0077 -1.7429  1.3444
   63MOL0     H 8493   6.042   4.846   2.288 -1.1961  0.5735 -1.1183
   63MOL0     H 8494   5.858   4.979   2.240  2.3548 -1.8858  1.7596
   63MOL0     H 8495   5.952   5.385   2.144  1.3411 -1.6038 -0.4344
   63MOL0     H 8496   5.889   5.391   1.978  1.5840 -0.4255  0.0329
   63MOL0     H 8497   5.742   5.524   2.144  1.0565 -0.1374 -2.1956
   63MOL0     H 8498   5.724   5.370   2.237  2.4164 -3.0340 -0.6411
   63MOL0     H 8499   5.507   5.436   2.107 -0.4567 -1.7788 -0.4129
   63MOL0     H 8500   5.566   5.271   2.087 -1.7621  0.5481  0.9820
   63MOL0     H 8501   5.497   5.354   1.871 -0.6267  0.8505  0.7207
   63MOL0     H 8502   5.669   5.358   1.859 -0.3083 -1.3948  1.1721
   63MOL0     H 8503   5.584   5.772   1.904 -0.1758 -0.3408 -1.2470
   63MOL0     H 8504   6.093   5.268   2.033  1.3030  2.1119  3.3162
   63MOL0     H 8505   6.306   5.147   2.111 -0.9596  0.0103  0.0343
   64MOL0     O 8506   7.724   8.511   6.992  0.2473  0.1835 -0.2918
   64MOL0     C 8507   7.791   8.493   7.095  0.2396 -0.2602  0.2727
   64MOL0     O 8508   7.763   8.547   7.217  0.7509  0.8591  0.8424
   64MOL0     C 8509   7.668   8.641   7.217  0.1291  0.5257 -1.3937
   64MOL0     C 8510   7.699   8.772   7.238 -0.8105 -0.6269 -0.1097
   64MOL0     C 8511   7.601   8.872   7.237 -0.6357  0.0054  0.0129
   64MOL0     C 8512   7.468   8.839   7.231  0.8989  0.0658  0.7231
   64MOL0     O 8513   7.377   8.944   7.209  0.6124  0.2846  0.1026
   64MOL0     C 8514   7.237   8.917   7.186 -0.0741 -0.5958  0.6713
   64MOL0     C 8515   7.171   8.893   7.327  0.0327 -0.8023 -0.5269
   64MOL0     C 8516   7.120   9.022   7.381 -0.0444  0.4644 -0.4178
   64MOL0     C 8517   7.082   9.002   7.533  0.2822  0.3200 -0.1179
   64MOL0     C 8518   6.990   9.115   7.580  0.2794  0.0982  0.0933
   64MOL0     C 8519   7.076   9.229   7.638 -0.1512  0.0757 -0.0329
   64MOL0     C 8520   6.970   9.321   7.719  0.3657 -0.5746  0.4258
   64MOL0     C 8521   7.049   9.447   7.758  0.5248  0.3820 -0.7115
   64MOL0     N 8522   7.114   9.531   7.651  1.2701 -0.4292  0.2882
   64MOL0     C 8523   7.244   9.513   7.606 -0.7381  0.8572 -0.4000
   64MOL0     C 8524   7.246   9.600   7.497 -1.1963  1.0273  0.9999
   64MOL0     C 8525   7.359   9.624   7.393  0.1219 -0.5850 -0.4545
   64MOL0     C 8526   7.370   9.502   7.312 -0.8309 -0.1232  0.1359
   64MOL0     C 8527   7.477   9.409   7.369  0.1329  1.1458 -0.5900
   64MOL0     C 8528   7.519   9.299   7.277 -0.6394 -0.3558  0.2123
   64MOL0     O 8529   7.654   9.247   7.289 -0.6817 -0.4248 -0.2096
   64MOL0     C 8530   7.692   9.179   7.401 -0.5128  0.9959 -0.1975
   64MOL0     C 8531   7.829   9.152   7.413 -0.1007  0.0382  0.1160
   64MOL0     C 8532   7.880   9.060   7.516  0.5818  0.0901  0.1493
   64MOL0     C 8533   8.032   9.030   7.519 -0.5341  0.3187 -0.1802
   64MOL0     C 8534   7.788   8.993   7.593 -0.4999  0.4453  0.6895
   64MOL0     C 8535   7.818   8.886   7.689  0.0409  0.3655 -0.6968
   64MOL0     O 8536   7.722   8.794   7.703 -0.4464 -0.3471 -0.6596
   64MOL0     C 8537   7.735   8.701   7.807 -0.8023  0.1489  0.7150
   64MOL0     C 8538   7.625   8.652   7.875 -0.7740 -0.7979  0.5085
   64MOL0     C 8539   7.630   8.549   7.971  0.4911 -0.0971  1.6748
   64MOL0     C 8540   7.755   8.484   7.993  0.3739  0.3535  0.1300
   64MOL0     O 8541   7.773   8.372   8.073 -0.6785  0.5405 -0.4680
   64MOL0     C 8542   7.666   8.275   8.106  0.1565 -0.6948 -0.9516
   64MOL0     C 8543   7.652   8.170   8.003  1.0739  0.3794 -0.4137
   64MOL0     C 8544   7.782   8.096   7.968 -0.1313  0.3807 -0.5991
   64MOL0     C 8545   7.824   7.993   8.064  0.3128  0.6289 -0.7882
   64MOL0     C 8546   7.963   7.942   8.017  0.3049  0.4191  0.4515
   64MOL0     C 8547   8.025   7.829   8.102  0.0556  0.3251  0.5750
   64MOL0     C 8548   8.013   7.847   8.257  0.3664  0.3921  0.2721
   64MOL0     C 8549   8.118   7.772   8.336 -0.3941 -0.9980 -0.0782
   64MOL0    Cl 8550   8.084   7.600   8.365 -0.4242  0.0041  0.1146
   64MOL0     C 8551   7.865   8.537   7.926 -0.3471  0.2696 -0.0770
   64MOL0     C 8552   7.860   8.641   7.835  1.4651 -0.6480  0.5994
   64MOL0     O 8553   7.930   8.895   7.750  0.7180  0.6229 -0.2701
   64MOL0     C 8554   7.653   9.017   7.577  0.2673 -1.4885  0.4359
   64MOL0     C 8555   7.607   9.117   7.488 -0.5484  0.6805 -0.2921
   64MOL0     N 8556   7.125   9.672   7.494 -0.4820 -1.6861  0.7526
   64MOL0     N 8557   7.056   9.632   7.588  1.1703  0.1828 -0.1996
   64MOL0     C 8558   7.429   8.707   7.215 -0.4459  0.1138 -0.4921
   64MOL0     C 8559   7.529   8.611   7.210  0.4029  0.7698  0.6927
   64MOL0     C 8560   7.904   8.408   7.084 -0.6624 -0.2419 -0.1460
   64MOL0     C 8561   7.974   8.387   7.200  0.3259  0.2859 -0.2290
   64MOL0     C 8562   8.084   8.303   7.211 -0.8096  0.6312 -0.5927
   64MOL0     C 8563   8.146   8.256   7.094  1.0613  0.8831 -0.0386
   64MOL0     O 8564   8.263   8.186   7.083  0.6952 -0.0405  0.1381
   64MOL0     C 8565   8.287   8.098   7.196 -0.3462  0.3789  0.2715
   64MOL0     C 8566   8.189   7.972   7.204  0.4687 -0.1653  0.4266
   64MOL0     C 8567   8.215   7.902   7.339  0.6093 -0.0989 -0.3489
   64MOL0     C 8568   8.145   7.760   7.353 -0.0643  0.4687 -0.4132
   64MOL0     C 8569   8.200   7.676   7.249 -0.6817 -0.6123 -0.8885
   64MOL0     C 8570   8.247   7.589   7.176  0.6493 -0.0012  0.8136
   64MOL0     C 8571   8.080   8.278   6.973  0.5798  0.1113  0.2632
   64MOL0     C 8572   7.956   8.346   6.966  0.9452 -0.4216  0.7401
   64MOL0     H 8573   7.794   8.813   7.270 -0.8800  1.2122 -2.0242
   64MOL0     H 8574   7.625   8.977   7.256 -0.2308 -0.1353  0.2925
   64MOL0     H 8575   7.193   9.010   7.149  1.9429 -0.5374 -1.8225
   64MOL0     H 8576   7.223   8.853   7.099 -2.4523  4.2168 -2.9982
   64MOL0     H 8577   7.081   8.834   7.306 -0.3689 -0.9243  1.3358
   64MOL0     H 8578   7.230   8.831   7.396  1.8356 -1.7517 -2.8076
   64MOL0     H 8579   7.193   9.102   7.363 -1.3472  2.1083  1.1065
   64MOL0     H 8580   7.027   9.050   7.330 -2.5449  0.1973  3.5174
   64MOL0     H 8581   7.026   8.909   7.532 -1.9899  1.5768 -2.8981
   64MOL0     H 8582   7.174   8.989   7.591 -1.1271  0.0547  2.1774
   64MOL0     H 8583   6.936   9.150   7.491  0.1299 -2.9987 -1.1762
   64MOL0     H 8584   6.928   9.086   7.665  3.3515 -0.0131  2.4624
   64MOL0     H 8585   7.161   9.197   7.699  0.3465  2.7942  0.8534
   64MOL0     H 8586   7.135   9.272   7.556  2.9372 -0.5457  1.6826
   64MOL0     H 8587   6.885   9.363   7.663 -0.6942  0.7849  2.9060
   64MOL0     H 8588   6.937   9.268   7.809  3.8478 -3.8892 -0.0365
   64MOL0     H 8589   7.139   9.420   7.815  2.0501  2.7785 -1.8215
   64MOL0     H 8590   6.970   9.504   7.806 -0.2572 -0.2998 -1.1677
   64MOL0     H 8591   7.321   9.447   7.646 -1.9162  0.3483  1.1043
   64MOL0     H 8592   7.330   9.705   7.326  1.1850  0.3149  0.1235
   64MOL0     H 8593   7.456   9.651   7.436 -0.6121  1.4103  0.0339
   64MOL0     H 8594   7.414   9.543   7.221  0.4978 -2.4153 -0.3026
   64MOL0     H 8595   7.277   9.448   7.292  0.8786 -3.4972  0.6531
   64MOL0     H 8596   7.437   9.366   7.461  0.2298  1.3910 -0.4341
   64MOL0     H 8597   7.566   9.469   7.389  0.9295 -0.5689  1.2967
   64MOL0     H 8598   7.544   9.343   7.180 -2.8181 -4.0330 -2.2697
   64MOL0     H 8599   7.441   9.225   7.260 -0.7882 -0.8583  2.6729
   64MOL0     H 8600   7.897   9.200   7.344 -1.0955  0.7081 -0.4321
   64MOL0     H 8601   8.087   9.086   7.596  0.2707  1.8288 -1.7883
   64MOL0     H 8602   8.057   8.924   7.530  2.2745  0.9022 -0.2402
   64MOL0     H 8603   8.073   9.045   7.419  0.7443 -2.0612 -0.0667
   64MOL0     H 8604   7.528   8.700   7.871 -1.0706 -1.0833  2.7487
   64MOL0     H 8605   7.553   8.506   8.033  0.0758  2.4145  3.0346
   64MOL0     H 8606   7.701   8.221   8.194  4.0817  0.5284 -1.5886
   64MOL0     H 8607   7.570   8.320   8.134  0.0818 -0.6108 -1.3400
   64MOL0     H 8608   7.585   8.094   8.044  1.0666  0.1983 -0.7537
   64MOL0     H 8609   7.615   8.209   7.908  0.2391  0.8029  0.0771
   64MOL0     H 8610   7.864   8.167   7.957 -2.7076  4.2484  2.2963
   64MOL0     H 8611   7.771   8.036   7.877  0.2757 -3.3516  1.5894
   64MOL0     H 8612   7.835   8.033   8.165  2.2522  1.7536 -1.3990
   64MOL0     H 8613   7.745   7.917   8.075  1.6739 -0.6678  0.4504
   64MOL0     H 8614   8.027   8.031   8.024 -1.5199  1.6636  4.3497
   64MOL0     H 8615   7.965   7.911   7.912  1.7401  0.5090  0.4262
   64MOL0     H 8616   7.966   7.740   8.079 -3.2427  2.1318  1.4602
   64MOL0     H 8617   8.128   7.811   8.068  1.5609  4.5158  2.2683
   64MOL0     H 8618   7.916   7.833   8.305 -0.0404 -4.2696 -1.4139
   64MOL0     H 8619   8.029   7.955   8.262  1.4475  0.3603 -1.5047
   64MOL0     H 8620   8.139   7.819   8.433 -0.4821 -1.1840  0.0311
   64MOL0     H 8621   8.213   7.774   8.282 -0.9002 -0.4627 -0.9632
   64MOL0     H 8622   7.958   8.494   7.963  0.0160  2.2986  1.5379
   64MOL0     H 8623   7.947   8.680   7.784 -0.4343  0.9232 -1.6787
   64MOL0     H 8624   7.577   8.966   7.636 -1.1497 -0.1339 -0.1666
   64MOL0     H 8625   7.500   9.135   7.494 -0.8902 -1.5947  3.4005
   64MOL0     H 8626   7.324   8.686   7.196 -1.3546  2.3040  1.6114
   64MOL0     H 8627   7.504   8.506   7.214 -2.0429  1.2711  0.2823
   64MOL0     H 8628   7.937   8.435   7.290 -0.7089 -2.9281  1.1997
   64MOL0     H 8629   8.125   8.291   7.311  1.5830  4.4516 -0.9108
   64MOL0     H 8630   8.388   8.059   7.181 -0.6449  0.1845 -1.4185
   64MOL0     H 8631   8.292   8.145   7.295 -1.7951  1.4521 -0.1294
   64MOL0     H 8632   8.214   7.912   7.116  1.6432  2.9439 -1.5223
   64MOL0     H 8633   8.086   8.007   7.196 -0.4192 -2.9666 -3.7351
   64MOL0     H 8634   8.173   7.969   7.414 -3.6023  0.1499 -2.6334
   64MOL0     H 8635   8.322   7.887   7.357  0.3591 -0.6569  0.8082
   64MOL0     H 8636   8.036   7.768   7.361  0.1246  1.4972  1.9138
   64MOL0     H 8637   8.178   7.724   7.450 -2.3933 -0.0259  0.2684
   64MOL0     H 8638   8.293   7.514   7.116  0.6970 -0.9139  1.9504
   64MOL0     H 8639   8.144   8.236   6.897  0.9898 -0.2103  0.7785
   64MOL0     H 8640   7.907   8.349   6.869  1.4736  0.8710  0.5028
   65MOL0     O 8641   6.149   8.792   2.519 -0.5586  0.4721 -0.4966
   65MOL0     C 8642   6.231   8.812   2.436  0.2465  0.2890  0.2613
   65MOL0     O 8643   6.216   8.799   2.302 -0.6657 -0.0645 -0.0592
   65MOL0     C 8644   6.096   8.789   2.234 -0.4955 -0.6889 -0.1184
   65MOL0     C 8645   6.090   8.741   2.100 -0.0156 -0.0372 -0.5600
   65MOL0     C 8646   5.971   8.746   2.024  0.4043  0.7339 -0.3645
   65MOL0     C 8647   5.843   8.781   2.072 -0.2878  0.7481 -0.3656
   65MOL0     O 8648   5.714   8.790   2.017 -0.4348 -0.3072  0.0752
   65MOL0     C 8649   5.710   8.794   1.872 -0.5898 -0.9322  0.3305
   65MOL0     C 8650   5.563   8.823   1.854  0.7100 -0.6623  0.1373
   65MOL0     C 8651   5.535   8.846   1.705  0.4825  0.3726  0.1190
   65MOL0     C 8652   5.387   8.842   1.672  0.2497 -1.1391  0.0624
   65MOL0     C 8653   5.297   8.926   1.760 -0.3207  0.4766  0.6511
   65MOL0     C 8654   5.149   8.930   1.714  0.2983  0.9215  0.6465
   65MOL0     C 8655   5.064   8.980   1.819  0.4894  0.1897  0.0816
   65MOL0     C 8656   4.926   8.961   1.754 -0.6111 -0.8137 -0.8216
   65MOL0     N 8657   4.827   8.992   1.855 -0.9721 -0.3999 -0.8692
   65MOL0     C 8658   4.775   9.125   1.862 -0.4782  0.1872  0.6826
   65MOL0     C 8659   4.699   9.115   1.973 -0.0034  0.2143  0.3830
   65MOL0     C 8660   4.613   9.220   2.040 -0.3838  0.7916 -0.3028
   65MOL0     C 8661   4.477   9.233   1.969 -0.4009 -0.2527 -0.2859
   65MOL0     C 8662   4.382   9.120   1.992  0.0841 -0.4398  0.1011
   65MOL0     C 8663   4.384   9.031   1.867  0.5167  0.1713 -0.7706
   65MOL0     O 8664   4.280   8.928   1.879  0.0237 -0.2665 -0.3963
   65MOL0     C 8665   4.301   8.816   1.952  0.0668  0.3103  0.0936
   65MOL0     C 8666   4.202   8.720   1.938 -0.1214 -0.3768  0.2010
   65MOL0     C 8667   4.216   8.590   1.988 -0.5060 -0.4691  0.1047
   65MOL0     C 8668   4.126   8.485   1.933  0.3596 -0.1782  0.1410
   65MOL0     C 8669   4.314   8.566   2.085  0.1111 -0.0255 -0.0704
   65MOL0     C 8670   4.322   8.443   2.165  0.1399 -0.7591 -0.1231
   65MOL0     O 8671   4.450   8.409   2.213  0.7069  0.6286  0.6409
   65MOL0     C 8672   4.464   8.300   2.294 -0.6842 -0.7414  0.0322
   65MOL0     C 8673   4.513   8.314   2.423  0.5390  0.4719 -1.1222
   65MOL0     C 8674   4.524   8.203   2.506  0.2520 -0.5008  0.1228
   65MOL0     C 8675   4.501   8.071   2.462  0.1189 -0.2335 -0.0477
   65MOL0     O 8676   4.548   7.962   2.537  0.3470  0.0370 -0.6506
   65MOL0     C 8677   4.561   7.825   2.470 -1.0352 -0.0864 -0.0516
   65MOL0     C 8678   4.564   7.706   2.576 -0.0166  0.6959  0.8460
   65MOL0     C 8679   4.422   7.677   2.623 -0.6597  0.0168  0.3336
   65MOL0     C 8680   4.428   7.564   2.725  0.5856 -0.1999  0.2933
   65MOL0     C 8681   4.283   7.522   2.779 -0.5291  0.0906  0.1629
   65MOL0     C 8682   4.217   7.615   2.879 -0.7155 -0.0614 -0.3479
   65MOL0     C 8683   4.061   7.618   2.881  0.3586 -0.0559 -0.5541
   65MOL0     C 8684   4.010   7.661   3.024  0.8274 -0.1732  0.0396
   65MOL0    Cl 8685   4.033   7.842   3.041  0.3447 -0.1896 -0.6178
   65MOL0     C 8686   4.452   8.060   2.332 -0.2332  0.0424  0.0173
   65MOL0     C 8687   4.428   8.170   2.249  0.4811  0.0144 -0.5940
   65MOL0     O 8688   4.221   8.394   2.199  0.4555  0.5527 -0.1750
   65MOL0     C 8689   4.413   8.665   2.101 -0.3933  0.6795  0.0988
   65MOL0     C 8690   4.409   8.787   2.036 -0.3947  0.1283 -1.3929
   65MOL0     N 8691   4.711   8.983   2.030 -0.7187 -0.1697  0.0809
   65MOL0     N 8692   4.773   8.906   1.945 -0.1827  0.9534 -0.1912
   65MOL0     C 8693   5.845   8.813   2.211  0.2097  0.8037  0.3956
   65MOL0     C 8694   5.967   8.827   2.285 -1.3667  0.1346 -0.1761
   65MOL0     C 8695   6.351   8.887   2.480 -1.7507 -0.6420 -0.8399
   65MOL0     C 8696   6.353   8.972   2.596  0.0723 -1.1335 -0.2554
   65MOL0     C 8697   6.458   9.063   2.596  0.0055  0.5952 -0.4575
   65MOL0     C 8698   6.564   9.064   2.506  1.0930  0.3719 -1.8530
   65MOL0     O 8699   6.657   9.159   2.538 -0.3241  0.0093 -0.2832
   65MOL0     C 8700   6.720   9.224   2.425 -0.2363 -0.3881  0.1624
   65MOL0     C 8701   6.644   9.348   2.384 -0.7094 -0.0913  0.0806
   65MOL0     C 8702   6.643   9.452   2.486 -0.7013  0.2410  0.1459
   65MOL0     C 8703   6.559   9.573   2.454  0.4140 -0.0066 -0.1108
   65MOL0     C 8704   6.516   9.587   2.313 -0.3128 -0.5968 -1.3593
   65MOL0     C 8705   6.479   9.599   2.205 -0.7566  0.8015 -0.2516
   65MOL0     C 8706   6.571   8.968   2.414  0.3263  0.2521  0.2160
   65MOL0     C 8707   6.471   8.868   2.407  0.3631 -0.1067  0.2877
   65MOL0     H 8708   6.179   8.724   2.040 -0.5066  1.7737 -1.8798
   65MOL0     H 8709   5.984   8.709   1.923  4.0287 -2.8340  1.1134
   65MOL0     H 8710   5.771   8.873   1.825 -3.0220  1.6956  1.2773
   65MOL0     H 8711   5.750   8.706   1.821 -0.4898 -0.2153 -0.8851
   65MOL0     H 8712   5.502   8.737   1.884  1.7136 -2.7986 -3.4126
   65MOL0     H 8713   5.537   8.913   1.911 -0.6690 -0.9744  0.0281
   65MOL0     H 8714   5.586   8.938   1.673  2.7940 -0.0974  2.2445
   65MOL0     H 8715   5.587   8.767   1.650  1.1955 -1.3849  3.1288
   65MOL0     H 8716   5.375   8.857   1.564 -1.1095 -0.0050  0.3407
   65MOL0     H 8717   5.363   8.735   1.683 -0.5524 -1.1149 -1.2690
   65MOL0     H 8718   5.290   8.883   1.861 -1.0559 -1.4253 -0.1533
   65MOL0     H 8719   5.348   9.022   1.760  3.6572 -1.4211  1.3250
   65MOL0     H 8720   5.148   9.014   1.644 -1.7936  2.6644  2.5837
   65MOL0     H 8721   5.132   8.830   1.675 -1.2502  0.4913  2.2803
   65MOL0     H 8722   5.064   8.922   1.911 -2.9015 -1.6954 -0.9406
   65MOL0     H 8723   5.092   9.083   1.844 -0.9622  0.3205  1.3325
   65MOL0     H 8724   4.922   8.856   1.724  2.4415 -0.5462 -2.6312
   65MOL0     H 8725   4.912   9.031   1.672  0.4632 -0.6492 -0.8817
   65MOL0     H 8726   4.785   9.217   1.806 -3.5493  0.5234  0.5493
   65MOL0     H 8727   4.618   9.187   2.144  1.3294  1.1549 -0.2305
   65MOL0     H 8728   4.671   9.314   2.042 -4.2057  3.4254 -1.4195
   65MOL0     H 8729   4.502   9.256   1.865  1.2953  0.1035  0.1645
   65MOL0     H 8730   4.433   9.318   2.022 -0.3392 -1.0796  1.1524
   65MOL0     H 8731   4.280   9.153   2.014  0.3691  0.5317  0.0271
   65MOL0     H 8732   4.422   9.066   2.079 -1.2395 -0.3580  0.7895
   65MOL0     H 8733   4.484   8.993   1.843 -0.1032 -1.4334 -0.9741
   65MOL0     H 8734   4.361   9.102   1.788 -0.5773  0.4749 -0.1977
   65MOL0     H 8735   4.128   8.757   1.868  1.7376  1.9493 -0.6728
   65MOL0     H 8736   4.107   8.490   1.826  0.1424 -0.4883  0.1651
   65MOL0     H 8737   4.161   8.383   1.953  3.7978  0.8974  0.3381
   65MOL0     H 8738   4.025   8.510   1.967  1.1719  1.3904  1.5853
   65MOL0     H 8739   4.546   8.410   2.461  0.4092 -0.2166  0.8022
   65MOL0     H 8740   4.565   8.226   2.604 -0.3601  0.8140  0.0823
   65MOL0     H 8741   4.482   7.811   2.396 -1.1276 -2.2282  0.3702
   65MOL0     H 8742   4.658   7.832   2.421 -0.2062  1.3380  1.6926
   65MOL0     H 8743   4.610   7.624   2.520  0.8881  1.7215  0.0445
   65MOL0     H 8744   4.636   7.723   2.657  1.2095  2.5332 -0.5430
   65MOL0     H 8745   4.354   7.647   2.542 -2.5613 -1.2793  2.2933
   65MOL0     H 8746   4.381   7.764   2.675 -1.4833 -1.4643  2.2798
   65MOL0     H 8747   4.466   7.477   2.671  4.5871  1.3434  0.3206
   65MOL0     H 8748   4.498   7.604   2.798  0.7612  3.4393 -1.6107
   65MOL0     H 8749   4.284   7.417   2.808  2.4371 -0.0877 -0.2793
   65MOL0     H 8750   4.221   7.535   2.690  0.6723 -0.0442 -0.7224
   65MOL0     H 8751   4.260   7.600   2.978  1.3130 -0.3300 -1.2211
   65MOL0     H 8752   4.250   7.715   2.849 -1.4007  0.1195 -0.5238
   65MOL0     H 8753   4.018   7.525   2.844 -3.3476  1.6320 -0.9571
   65MOL0     H 8754   4.032   7.706   2.822  1.1729  0.0673 -0.7785
   65MOL0     H 8755   4.048   7.596   3.104 -2.0078 -0.6125  1.1410
   65MOL0     H 8756   3.902   7.645   3.014  0.4681  2.3665 -0.9096
   65MOL0     H 8757   4.422   7.964   2.290  1.8926 -0.3998 -0.6224
   65MOL0     H 8758   4.392   8.168   2.147  0.9055 -3.1945 -0.7847
   65MOL0     H 8759   4.500   8.647   2.163 -0.4043 -1.8174 -0.5219
   65MOL0     H 8760   4.487   8.862   2.051  0.4139 -0.8037 -0.8158
   65MOL0     H 8761   5.753   8.842   2.261 -0.8873 -1.0673 -0.4365
   65MOL0     H 8762   5.962   8.868   2.386 -0.5731  0.4896 -0.2774
   65MOL0     H 8763   6.260   8.988   2.650  1.5866  0.0909  2.1570
   65MOL0     H 8764   6.448   9.147   2.664  1.6698  0.7028 -0.2960
   65MOL0     H 8765   6.823   9.250   2.453  0.1494 -1.0025 -0.6328
   65MOL0     H 8766   6.727   9.156   2.340  0.9941 -0.0911  0.0030
   65MOL0     H 8767   6.543   9.317   2.355 -0.0585 -2.1624 -0.1640
   65MOL0     H 8768   6.688   9.378   2.289  1.3434 -0.0828  0.9917
   65MOL0     H 8769   6.745   9.488   2.506 -0.2566 -1.7180  1.7736
   65MOL0     H 8770   6.595   9.408   2.574 -3.4797 -0.8740 -1.8099
   65MOL0     H 8771   6.607   9.666   2.487 -0.9274  0.7558 -0.2274
   65MOL0     H 8772   6.471   9.554   2.517  0.5887  0.4136  0.2647
   65MOL0     H 8773   6.452   9.619   2.104  1.2630 -0.8723 -1.2067
   65MOL0     H 8774   6.655   8.950   2.349  2.2709 -2.1528  3.1166
   65MOL0     H 8775   6.459   8.804   2.321  2.8895 -0.1878 -0.0771
   66MOL0     O 8776   6.911   4.184   3.676  0.1908 -0.2984 -0.0082
   66MOL0     C 8777   6.935   4.094   3.754  0.1867  0.6454 -0.0878
   66MOL0     O 8778   7.043   4.099   3.838  0.5040 -0.0555 -1.0568
   66MOL0     C 8779   7.089   4.212   3.905  0.7457 -0.5222  0.2465
   66MOL0     C 8780   7.207   4.213   3.983  0.2504 -0.7907 -0.4114
   66MOL0     C 8781   7.254   4.339   4.026  0.1209 -0.0807 -0.5712
   66MOL0     C 8782   7.172   4.456   4.032  1.0953  1.0852  0.3508
   66MOL0     O 8783   7.198   4.580   4.084  0.8938 -0.5345  0.6923
   66MOL0     C 8784   7.311   4.592   4.172 -0.1868 -0.0791 -0.0736
   66MOL0     C 8785   7.444   4.591   4.091  0.9733  0.2225 -0.1897
   66MOL0     C 8786   7.564   4.557   4.174 -1.2118 -0.4036  0.5007
   66MOL0     C 8787   7.611   4.653   4.284  0.0930 -0.4500  0.5095
   66MOL0     C 8788   7.626   4.804   4.252  0.4009 -0.0886  1.0908
   66MOL0     C 8789   7.763   4.835   4.174 -0.7513  0.4578 -0.7206
   66MOL0     C 8790   7.790   4.985   4.143 -0.5740  0.1804 -0.8849
   66MOL0     C 8791   7.684   5.030   4.038 -0.5571  0.7106 -0.4555
   66MOL0     N 8792   7.750   5.150   3.971 -0.3977 -0.3270 -0.4720
   66MOL0     C 8793   7.692   5.275   3.982  0.1016  0.4307 -0.0766
   66MOL0     C 8794   7.762   5.357   3.907 -0.0516 -0.4015 -0.5493
   66MOL0     C 8795   7.759   5.507   3.888  0.3244  1.5148  0.8322
   66MOL0     C 8796   7.809   5.583   4.004  0.3908  0.5639 -0.7558
   66MOL0     C 8797   7.960   5.601   4.009  0.1475  0.7397  0.1095
   66MOL0     C 8798   8.007   5.679   4.128 -0.0563 -0.4260  0.5339
   66MOL0     O 8799   8.125   5.762   4.097 -0.2754 -0.2298 -0.8379
   66MOL0     C 8800   8.106   5.896   4.084 -0.2409 -0.0221  0.6056
   66MOL0     C 8801   8.174   5.975   4.161 -0.1870 -0.4096 -0.7162
   66MOL0     C 8802   8.160   6.119   4.169 -0.2028 -1.1945  0.1276
   66MOL0     C 8803   8.240   6.209   4.271  0.3532 -0.0601  0.6731
   66MOL0     C 8804   8.081   6.177   4.068 -0.3224  0.5462  0.3301
   66MOL0     C 8805   8.058   6.320   4.049 -1.1960 -0.8171  1.4386
   66MOL0     O 8806   7.968   6.360   3.948  0.3065  0.3566 -0.3079
   66MOL0     C 8807   7.973   6.479   3.887 -1.0544  0.0789 -0.2062
   66MOL0     C 8808   7.866   6.515   3.818  0.6864 -0.1286  1.2387
   66MOL0     C 8809   7.860   6.630   3.737  0.3466  0.5240  0.1977
   66MOL0     C 8810   7.969   6.713   3.727 -0.5997 -0.4967 -0.5427
   66MOL0     O 8811   7.965   6.809   3.622  0.1117  0.2868  0.3712
   66MOL0     C 8812   8.080   6.866   3.562  0.3685 -0.1192 -0.6657
   66MOL0     C 8813   8.035   6.995   3.481  0.0242 -0.1589  0.6441
   66MOL0     C 8814   7.980   7.099   3.568  0.3613  0.3777  0.6262
   66MOL0     C 8815   7.943   7.225   3.480 -0.9411  0.2729  0.2650
   66MOL0     C 8816   7.895   7.348   3.556  0.2728  0.5451  0.7927
   66MOL0     C 8817   7.772   7.337   3.646 -0.6850  0.2252  0.0745
   66MOL0     C 8818   7.741   7.474   3.706  0.3640  0.2542 -0.7762
   66MOL0     C 8819   7.596   7.491   3.749  0.5821 -0.2899 -0.4636
   66MOL0    Cl 8820   7.531   7.648   3.785  0.0176 -0.6053 -0.0216
   66MOL0     C 8821   8.083   6.680   3.799  0.1723 -0.5327 -0.3011
   66MOL0     C 8822   8.087   6.558   3.871  0.2686 -0.0391  0.1262
   66MOL0     O 8823   8.116   6.397   4.122 -0.5726  0.1179 -0.2558
   66MOL0     C 8824   8.014   6.087   3.978 -0.6912  0.0979 -0.1364
   66MOL0     C 8825   8.029   5.948   3.982  0.6555  0.6182  1.0868
   66MOL0     N 8826   7.835   5.274   3.822  0.2375  0.0533 -0.2494
   66MOL0     N 8827   7.831   5.149   3.865  0.2544 -0.0527  0.4411
   66MOL0     C 8828   7.046   4.442   3.978 -0.0738 -0.3428 -0.2599
   66MOL0     C 8829   7.006   4.326   3.907  0.5642 -1.7276  0.4128
   66MOL0     C 8830   6.851   3.977   3.751 -0.6662 -0.3473  0.7119
   66MOL0     C 8831   6.758   3.955   3.645 -0.1084 -0.5348  0.0728
   66MOL0     C 8832   6.674   3.845   3.646 -0.4723 -0.0739  0.4077
   66MOL0     C 8833   6.670   3.759   3.754  1.1935  1.1034 -0.3108
   66MOL0     O 8834   6.597   3.638   3.739 -0.0294  0.0979 -0.8833
   66MOL0     C 8835   6.599   3.538   3.843 -0.4190  0.6715  0.1137
   66MOL0     C 8836   6.532   3.409   3.774 -0.9072 -0.2823 -0.7070
   66MOL0     C 8837   6.458   3.321   3.873  0.0571  0.4594  0.6528
   66MOL0     C 8838   6.551   3.209   3.933  1.1211 -0.0795  0.2308
   66MOL0     C 8839   6.670   3.258   4.004 -0.3619  0.3515  0.9556
   66MOL0     C 8840   6.755   3.284   4.083 -0.0242 -0.9226 -0.0287
   66MOL0     C 8841   6.750   3.784   3.861  0.5148  0.2614  1.1917
   66MOL0     C 8842   6.837   3.890   3.861 -0.2618 -0.1788 -0.0983
   66MOL0     H 8843   7.261   4.121   4.001 -1.1068 -1.6570 -0.6851
   66MOL0     H 8844   7.350   4.328   4.076  0.8132  2.6044 -1.1412
   66MOL0     H 8845   7.308   4.698   4.198  0.8424  1.5258 -5.3551
   66MOL0     H 8846   7.318   4.524   4.258  2.0987  1.9011  1.4062
   66MOL0     H 8847   7.432   4.519   4.010 -2.5834  1.0649 -0.5700
   66MOL0     H 8848   7.460   4.687   4.042 -0.9963  0.3895 -0.5896
   66MOL0     H 8849   7.547   4.456   4.211  0.3146 -1.5207 -1.6200
   66MOL0     H 8850   7.649   4.562   4.106 -0.5970  2.5410  1.3221
   66MOL0     H 8851   7.530   4.643   4.357 -1.3817  1.1153 -0.8322
   66MOL0     H 8852   7.697   4.612   4.338  0.4615 -0.1017  0.1949
   66MOL0     H 8853   7.535   4.851   4.215 -0.6147 -0.7216  2.6542
   66MOL0     H 8854   7.637   4.864   4.343  0.7093  0.5773  0.6191
   66MOL0     H 8855   7.847   4.797   4.233 -0.5348  1.8920 -0.0585
   66MOL0     H 8856   7.760   4.774   4.084  0.5855 -0.7838  0.0413
   66MOL0     H 8857   7.776   5.057   4.224 -0.5158  1.3285 -1.8770
   66MOL0     H 8858   7.895   5.007   4.121 -0.1770 -1.0698 -0.3329
   66MOL0     H 8859   7.587   5.050   4.084 -0.9344 -1.5183 -0.1785
   66MOL0     H 8860   7.672   4.948   3.966  1.4997 -1.1250  1.1470
   66MOL0     H 8861   7.621   5.304   4.058 -1.5181 -2.7633 -0.2039
   66MOL0     H 8862   7.814   5.533   3.797 -1.4061  0.7804 -0.4777
   66MOL0     H 8863   7.656   5.539   3.872 -0.3287 -0.3903  1.0623
   66MOL0     H 8864   7.768   5.529   4.090 -0.0990 -0.3874 -1.5855
   66MOL0     H 8865   7.773   5.686   4.002 -1.5857 -0.0412  0.2807
   66MOL0     H 8866   7.979   5.650   3.912 -1.7079 -1.7823 -1.6751
   66MOL0     H 8867   8.018   5.509   4.013 -1.9817 -0.7762 -1.3674
   66MOL0     H 8868   8.029   5.614   4.213 -0.6958 -0.0958  0.9610
   66MOL0     H 8869   7.923   5.743   4.156 -0.4694 -1.2082  1.0940
   66MOL0     H 8870   8.245   5.926   4.227  0.9401 -0.3308 -1.8255
   66MOL0     H 8871   8.313   6.268   4.215  1.2015  0.6533  2.4568
   66MOL0     H 8872   8.177   6.276   4.331  0.5847 -0.4506  1.3617
   66MOL0     H 8873   8.296   6.160   4.352  0.7245 -1.5278 -0.4253
   66MOL0     H 8874   7.785   6.443   3.818  0.7898 -0.2540  0.2729
   66MOL0     H 8875   7.763   6.638   3.688  1.1095  0.2987 -1.4008
   66MOL0     H 8876   8.153   6.897   3.638 -0.9113  0.1787  0.4800
   66MOL0     H 8877   8.142   6.797   3.504  1.8174 -0.9743  1.7647
   66MOL0     H 8878   8.119   7.040   3.427  0.6638 -2.7103 -0.6504
   66MOL0     H 8879   7.966   6.967   3.401  1.1761  0.0681 -0.4596
   66MOL0     H 8880   8.052   7.131   3.644  2.0585  0.7552 -1.0391
   66MOL0     H 8881   7.882   7.070   3.607 -2.0906  2.7269 -3.0723
   66MOL0     H 8882   8.007   7.249   3.395 -2.4245  2.2784 -0.3604
   66MOL0     H 8883   7.854   7.194   3.424 -2.0999  4.2826 -0.3929
   66MOL0     H 8884   7.885   7.429   3.483 -1.6032 -0.3858 -0.0550
   66MOL0     H 8885   7.981   7.362   3.622 -0.3986  3.8919  1.1207
   66MOL0     H 8886   7.690   7.304   3.581 -1.1001  0.8655  0.2614
   66MOL0     H 8887   7.791   7.267   3.727 -2.1676  1.4459  1.5436
   66MOL0     H 8888   7.753   7.550   3.628 -2.5275  0.1811 -1.3846
   66MOL0     H 8889   7.799   7.505   3.794 -0.5962 -3.4344  1.3250
   66MOL0     H 8890   7.572   7.423   3.831 -1.1229  0.8891  0.0682
   66MOL0     H 8891   7.533   7.446   3.671 -0.7958 -2.7409  1.8805
   66MOL0     H 8892   8.178   6.729   3.781  1.0012 -1.9620  0.0598
   66MOL0     H 8893   8.186   6.539   3.912  0.8639 -1.5671 -1.8676
   66MOL0     H 8894   7.955   6.123   3.895 -2.8221  2.7120  2.3534
   66MOL0     H 8895   7.978   5.889   3.907 -0.1366  0.5335  1.6804
   66MOL0     H 8896   6.983   4.531   3.987 -2.8846 -2.3501  2.0803
   66MOL0     H 8897   6.911   4.337   3.855  0.6549 -0.4912  0.4663
   66MOL0     H 8898   6.766   4.003   3.548  0.8263 -0.9430 -0.0623
   66MOL0     H 8899   6.610   3.833   3.560  0.4804 -0.9424 -0.2088
   66MOL0     H 8900   6.700   3.519   3.881  0.0220 -1.0999 -1.7922
   66MOL0     H 8901   6.538   3.568   3.929  0.2048 -0.6476  1.0717
   66MOL0     H 8902   6.606   3.356   3.713 -0.9012  0.8490 -1.7225
   66MOL0     H 8903   6.463   3.446   3.699 -0.3649  0.6570 -0.7606
   66MOL0     H 8904   6.366   3.285   3.826  1.7018 -2.8182 -0.3741
   66MOL0     H 8905   6.420   3.379   3.958  0.0225 -0.4313  1.2532
   66MOL0     H 8906   6.574   3.133   3.857  3.3524 -0.6605  1.3892
   66MOL0     H 8907   6.492   3.159   4.010 -1.6879  1.9917 -0.4246
   66MOL0     H 8908   6.818   3.299   4.168  0.0691 -0.5236 -0.1635
   66MOL0     H 8909   6.746   3.721   3.949 -1.7325  0.3091  1.1789
   66MOL0     H 8910   6.908   3.912   3.940 -0.4055  2.3356 -0.5770
   67MOL0     O 8911   8.667   7.204   6.835 -0.1203 -0.3779  0.0122
   67MOL0     C 8912   8.659   7.078   6.846  0.3741 -0.7466  0.4193
   67MOL0     O 8913   8.683   6.994   6.741  0.0692 -0.2476 -0.6755
   67MOL0     C 8914   8.728   7.057   6.631 -0.4707  0.3917  0.0059
   67MOL0     C 8915   8.866   7.092   6.643 -0.2283  0.3405  0.4400
   67MOL0     C 8916   8.946   7.094   6.530  0.2249 -0.5944 -0.2247
   67MOL0     C 8917   8.899   7.054   6.398  0.3854  0.4895 -1.0378
   67MOL0     O 8918   8.987   7.037   6.296  0.3509  0.6358 -0.3281
   67MOL0     C 8919   8.950   7.067   6.158 -0.6270  0.3387  0.3763
   67MOL0     C 8920   9.047   7.006   6.064 -0.8145 -0.1610  0.1455
   67MOL0     C 8921   8.998   7.062   5.923  0.5385  0.6279  0.0094
   67MOL0     C 8922   9.041   6.974   5.808  0.3206 -0.4782  0.5092
   67MOL0     C 8923   8.952   6.860   5.754  0.7715 -0.2562 -1.5351
   67MOL0     C 8924   8.979   6.811   5.609  0.4173 -0.3824  0.2007
   67MOL0     C 8925   9.101   6.727   5.606  0.2060  0.1009  0.2940
   67MOL0     C 8926   9.117   6.674   5.472  0.4840  0.3585  0.8665
   67MOL0     N 8927   9.114   6.765   5.354  0.5874 -0.3727  0.2613
   67MOL0     C 8928   9.003   6.812   5.288 -0.1073 -0.4022 -0.7509
   67MOL0     C 8929   9.036   6.922   5.227 -0.5505 -0.1207 -0.1771
   67MOL0     C 8930   8.957   7.005   5.132  1.2162  0.1271  0.0598
   67MOL0     C 8931   8.817   7.025   5.182 -0.0350  0.4469 -0.4756
   67MOL0     C 8932   8.811   7.076   5.322 -0.2858 -1.2536  0.1426
   67MOL0     C 8933   8.815   7.224   5.335  0.0071  0.7784  0.1009
   67MOL0     O 8934   8.938   7.260   5.390 -0.2319  0.0045  1.3925
   67MOL0     C 8935   9.017   7.340   5.301 -0.6708  1.1500 -0.6170
   67MOL0     C 8936   8.968   7.440   5.226  0.1242  0.1508 -0.3111
   67MOL0     C 8937   9.057   7.533   5.163  0.7038  0.2809  0.4736
   67MOL0     C 8938   8.991   7.654   5.094  0.4201 -0.2422 -0.3001
   67MOL0     C 8939   9.198   7.512   5.173  0.3713  0.3584 -0.0734
   67MOL0     C 8940   9.291   7.613   5.119  0.4537  0.4287 -0.8014
   67MOL0     O 8941   9.418   7.597   5.159  0.1447  0.0909 -0.0157
   67MOL0     C 8942   9.514   7.677   5.100 -0.1204 -0.7370  0.2283
   67MOL0     C 8943   9.541   7.810   5.131  0.4159 -0.7759  0.0026
   67MOL0     C 8944   9.618   7.885   5.039 -1.0333  0.1997  1.1260
   67MOL0     C 8945   9.683   7.826   4.934 -0.5542 -0.1508  0.6280
   67MOL0     O 8946   9.766   7.900   4.847 -0.0065 -0.2295  0.3808
   67MOL0     C 8947   9.785   8.040   4.858  0.1320  0.6093  0.2536
   67MOL0     C 8948   9.882   8.069   4.745  0.8258  0.9179  0.2690
   67MOL0     C 8949   9.938   8.206   4.758  0.0472 -1.1082 -0.0695
   67MOL0     C 8950  10.020   8.255   4.639 -0.0873 -0.1712 -0.5382
   67MOL0     C 8951  10.168   8.230   4.651 -0.3035  0.3195  0.4776
   67MOL0     C 8952  10.237   8.305   4.770 -0.9738 -0.1537 -0.3822
   67MOL0     C 8953  10.388   8.305   4.757 -0.0559 -0.6038 -0.5085
   67MOL0     C 8954  10.459   8.392   4.872 -0.3212  0.5411  0.9524
   67MOL0    Cl 8955  10.393   8.362   5.033 -0.2942 -0.0453  0.4304
   67MOL0     C 8956   9.667   7.690   4.907  0.2104  0.2042  0.4699
   67MOL0     C 8957   9.575   7.620   4.991 -0.4521  0.2448  1.0664
   67MOL0     O 8958   9.251   7.697   5.038  0.2691  0.5773  0.8770
   67MOL0     C 8959   9.243   7.399   5.242  0.6475 -0.2312 -0.0179
   67MOL0     C 8960   9.147   7.312   5.295 -0.6597  0.9300  0.5341
   67MOL0     N 8961   9.171   6.941   5.247  1.1761  0.7551 -0.0285
   67MOL0     N 8962   9.217   6.840   5.313  0.6440  0.1664 -0.3166
   67MOL0     C 8963   8.759   7.025   6.382  0.6850 -0.1762 -1.5213
   67MOL0     C 8964   8.684   7.025   6.503 -0.5765  0.5038 -0.1557
   67MOL0     C 8965   8.649   7.013   6.977 -0.0238  0.1167  0.9401
   67MOL0     C 8966   8.658   7.083   7.093  0.4637  0.5509 -0.2442
   67MOL0     C 8967   8.647   7.012   7.229  0.7425 -0.0771  0.3708
   67MOL0     C 8968   8.611   6.869   7.221 -0.2152 -0.5713 -0.5890
   67MOL0     O 8969   8.608   6.788   7.334 -0.5899 -0.0209 -0.1735
   67MOL0     C 8970   8.593   6.852   7.461 -0.3058 -0.8050  0.6983
   67MOL0     C 8971   8.579   6.739   7.558 -0.4918  0.4513  0.5904
   67MOL0     C 8972   8.584   6.800   7.699 -0.5699 -0.5125 -0.3247
   67MOL0     C 8973   8.508   6.695   7.785  0.0683  0.5361 -0.5685
   67MOL0     C 8974   8.569   6.565   7.814  0.1167 -0.8583  0.2627
   67MOL0     C 8975   8.606   6.467   7.857 -0.0075  1.5291 -0.1023
   67MOL0     C 8976   8.607   6.804   7.098 -0.3816  0.8808  0.4824
   67MOL0     C 8977   8.630   6.875   6.978 -0.1353  0.6577 -0.8905
   67MOL0     H 8978   8.913   7.120   6.737 -0.9049 -0.6307  1.0866
   67MOL0     H 8979   9.053   7.108   6.545  0.0168  3.1490 -1.3129
   67MOL0     H 8980   8.850   7.030   6.133 -0.6610 -0.4968  1.6545
   67MOL0     H 8981   8.953   7.175   6.143  0.8427  0.5745  2.0629
   67MOL0     H 8982   9.148   7.040   6.088 -1.0037  1.1526 -0.8583
   67MOL0     H 8983   9.046   6.896   6.067  0.2493 -0.2026  3.1685
   67MOL0     H 8984   8.889   7.057   5.930  0.7013 -1.4569  4.1485
   67MOL0     H 8985   9.033   7.165   5.912  2.4451 -0.0048 -0.3363
   67MOL0     H 8986   9.045   7.037   5.719  0.6625 -0.0255  0.8388
   67MOL0     H 8987   9.140   6.934   5.830  1.1081  0.5077 -1.0569
   67MOL0     H 8988   8.962   6.778   5.826 -0.7798  2.0810  1.5605
   67MOL0     H 8989   8.846   6.884   5.750 -0.1804 -3.7566 -0.7028
   67MOL0     H 8990   8.901   6.747   5.566  1.2898  0.4114 -2.8607
   67MOL0     H 8991   8.976   6.901   5.546  1.6606 -0.6269 -0.2353
   67MOL0     H 8992   9.190   6.782   5.640  2.0157 -1.5071 -1.5804
   67MOL0     H 8993   9.090   6.653   5.686 -1.1933  2.3716  2.3408
   67MOL0     H 8994   9.051   6.589   5.452  1.5295 -0.4455  0.7664
   67MOL0     H 8995   9.218   6.633   5.478 -0.1410 -1.5643 -0.6515
   67MOL0     H 8996   8.903   6.770   5.275  0.0005 -1.3049  0.9475
   67MOL0     H 8997   9.015   7.096   5.117  2.4913 -0.2180  2.4396
   67MOL0     H 8998   8.952   6.955   5.034  1.7689  1.8664 -0.8975
   67MOL0     H 8999   8.774   6.925   5.179 -1.0979  0.8331  0.7924
   67MOL0     H 9000   8.755   7.090   5.119  1.7287  0.7813 -1.9354
   67MOL0     H 9001   8.883   7.023   5.385  0.8195  0.3078  0.2513
   67MOL0     H 9002   8.715   7.053   5.369 -2.8442  2.3634 -2.7775
   67MOL0     H 9003   8.743   7.242   5.416 -2.0448 -2.3750 -0.8516
   67MOL0     H 9004   8.787   7.266   5.238 -1.6190 -2.3477 -0.9196
   67MOL0     H 9005   8.862   7.461   5.215 -0.2758 -2.8106 -3.6022
   67MOL0     H 9006   9.027   7.747   5.139 -0.9795 -0.5176  1.5083
   67MOL0     H 9007   9.001   7.651   4.985 -4.7428  2.5632 -1.1770
   67MOL0     H 9008   8.883   7.668   5.097  0.4674  0.2711 -0.7137
   67MOL0     H 9009   9.503   7.869   5.214  2.3402 -0.2036  0.5203
   67MOL0     H 9010   9.632   7.991   5.059  2.9776  0.0610  0.0162
   67MOL0     H 9011   9.692   8.095   4.847  0.9196  1.8690 -0.3852
   67MOL0     H 9012   9.826   8.065   4.957  1.3387 -2.5653  0.6519
   67MOL0     H 9013   9.960   7.994   4.759 -0.0583 -0.2360 -0.7783
   67MOL0     H 9014   9.837   8.065   4.646  0.3592 -0.3951  0.5153
   67MOL0     H 9015   9.997   8.208   4.849 -1.0175 -3.5820  0.7821
   67MOL0     H 9016   9.861   8.283   4.767  2.1192  1.4362 -2.4260
   67MOL0     H 9017   9.986   8.202   4.550  1.7079  1.0114 -1.9983
   67MOL0     H 9018   9.997   8.360   4.616  0.6824  0.4913  1.4872
   67MOL0     H 9019  10.201   8.268   4.553 -1.3449  0.1288  0.0459
   67MOL0     H 9020  10.182   8.122   4.661 -1.2909 -0.2358 -2.8996
   67MOL0     H 9021  10.200   8.408   4.775 -0.8037 -0.0542 -1.0278
   67MOL0     H 9022  10.205   8.243   4.854 -1.7075 -0.6196 -0.9902
   67MOL0     H 9023  10.415   8.351   4.662  0.6920  2.4934  1.0885
   67MOL0     H 9024  10.422   8.203   4.780  1.4296 -0.4755 -1.9164
   67MOL0     H 9025  10.438   8.497   4.850  0.6203  0.4476 -0.5473
   67MOL0     H 9026  10.568   8.389   4.863 -0.4781  0.8066 -2.6224
   67MOL0     H 9027   9.723   7.650   4.823  1.1756  1.3320  0.5422
   67MOL0     H 9028   9.549   7.522   4.952  2.2958 -0.0555 -0.2667
   67MOL0     H 9029   9.344   7.381   5.276  0.2435 -1.4838  0.6279
   67MOL0     H 9030   9.196   7.235   5.353  0.5600  2.0096  0.9937
   67MOL0     H 9031   8.705   7.009   6.289 -0.9358  1.0726 -0.8412
   67MOL0     H 9032   8.583   6.984   6.501 -1.0308  1.5673 -0.0462
   67MOL0     H 9033   8.670   7.190   7.087  0.7268  0.4393 -2.3476
   67MOL0     H 9034   8.643   7.083   7.311  0.8001 -1.3053  1.4684
   67MOL0     H 9035   8.685   6.905   7.489  1.1908 -2.2086 -1.2946
   67MOL0     H 9036   8.510   6.923   7.459  2.3252  2.5483 -1.0340
   67MOL0     H 9037   8.666   6.675   7.541  2.6694  4.3293  0.8761
   67MOL0     H 9038   8.488   6.687   7.526  0.4625 -1.6153  1.0585
   67MOL0     H 9039   8.536   6.898   7.707  0.0084 -0.3346  1.6391
   67MOL0     H 9040   8.688   6.807   7.731  0.3623 -4.2665 -1.9237
   67MOL0     H 9041   8.406   6.667   7.757  0.3612 -3.5492  1.6587
   67MOL0     H 9042   8.499   6.743   7.883  1.2684 -0.2302 -0.0698
   67MOL0     H 9043   8.663   6.393   7.908  0.9693  3.1674  1.2958
   67MOL0     H 9044   8.585   6.698   7.110  0.1874  0.8504  1.3185
   67MOL0     H 9045   8.606   6.826   6.884 -4.1598 -1.0224  0.7397
   68MOL0     O 9046   0.021   2.080   0.180 -0.0968  0.2170  0.5504
   68MOL0     C 9047   0.068   2.039   0.283 -0.1508 -0.1893  0.8972
   68MOL0     O 9048   0.192   2.004   0.306 -0.4917  0.0692 -0.0693
   68MOL0     C 9049   0.285   2.004   0.195 -0.3675  0.1756  0.4825
   68MOL0     C 9050   0.318   2.125   0.147 -0.2409  0.1323  0.6562
   68MOL0     C 9051   0.409   2.137   0.040  0.3241 -0.3159  0.6742
   68MOL0     C 9052   0.474   2.025  -0.010 -0.4981  1.1442  1.2004
   68MOL0     O 9053   0.572   2.018  -0.104 -0.6371 -0.1238  0.1544
   68MOL0     C 9054   0.609   2.141  -0.175 -0.1525  0.5988 -0.9974
   68MOL0     C 9055   0.696   2.116  -0.302  0.4444 -0.4949  0.5863
   68MOL0     C 9056   0.818   2.030  -0.277  0.2670 -0.5040 -0.5090
   68MOL0     C 9057   0.922   2.020  -0.397 -0.0424  0.1085 -0.5900
   68MOL0     C 9058   0.883   1.929  -0.511  0.5451 -0.4319 -0.3568
   68MOL0     C 9059   1.003   1.935  -0.613  0.4635  0.7859 -0.0128
   68MOL0     C 9060   0.987   1.843  -0.739 -0.4452 -0.1977 -0.5968
   68MOL0     C 9061   1.099   1.869  -0.844 -0.0023  0.0084 -0.3554
   68MOL0     N 9062   1.228   1.841  -0.782 -0.3727 -0.0179  0.4855
   68MOL0     C 9063   1.265   1.725  -0.720 -0.3734 -0.4081 -0.7824
   68MOL0     C 9064   1.380   1.764  -0.649 -0.5175  0.0167  0.9209
   68MOL0     C 9065   1.459   1.674  -0.557  0.3441  1.4528 -0.4247
   68MOL0     C 9066   1.382   1.664  -0.420  0.4583 -0.0761  0.0764
   68MOL0     C 9067   1.338   1.802  -0.369  0.4646  0.7375  0.3876
   68MOL0     C 9068   1.316   1.790  -0.226 -1.0303 -0.0977 -0.4908
   68MOL0     O 9069   1.233   1.895  -0.183 -0.6022 -0.2660 -0.9829
   68MOL0     C 9070   1.196   1.894  -0.053 -0.5521  0.7330  1.0090
   68MOL0     C 9071   1.107   1.988  -0.017  1.2774 -0.4414 -0.8377
   68MOL0     C 9072   1.052   2.003   0.114 -0.5887 -0.1160 -0.7767
   68MOL0     C 9073   0.972   2.125   0.147  0.2395  0.2065 -0.4660
   68MOL0     C 9074   1.105   1.910   0.221 -0.4954 -0.5921 -0.0132
   68MOL0     C 9075   1.087   1.922   0.366 -0.5300 -1.3088 -0.8393
   68MOL0     O 9076   0.990   2.014   0.415 -0.4422  0.1110  0.4997
   68MOL0     C 9077   0.984   2.045   0.547 -0.0840 -0.1428  0.1338
   68MOL0     C 9078   0.867   2.017   0.618  0.7881  0.2190 -0.1094
   68MOL0     C 9079   0.860   2.045   0.757 -0.7798  0.3266 -0.1985
   68MOL0     C 9080   0.968   2.098   0.823  0.2930  0.4636 -0.5690
   68MOL0     O 9081   0.953   2.111   0.958 -0.0938  0.1385  0.9871
   68MOL0     C 9082   1.070   2.150   1.035 -0.4172  0.7848 -0.9400
   68MOL0     C 9083   1.033   2.130   1.176  0.4183 -0.6707 -0.7690
   68MOL0     C 9084   0.993   2.275   1.228 -0.0479 -0.3123 -0.2384
   68MOL0     C 9085   0.945   2.290   1.373 -0.4388  0.4259  0.3055
   68MOL0     C 9086   0.899   2.437   1.407 -0.3793 -0.1481  0.0375
   68MOL0     C 9087   0.833   2.446   1.554 -0.3832  0.0114 -0.0647
   68MOL0     C 9088   0.910   2.368   1.655  0.4859 -0.2383 -0.4427
   68MOL0     C 9089   0.887   2.417   1.795  0.4081  0.1720 -0.1066
   68MOL0    Cl 9090   0.959   2.283   1.904 -0.3574 -0.0331 -0.8410
   68MOL0     C 9091   1.087   2.121   0.749  0.3981  0.6362 -0.4296
   68MOL0     C 9092   1.091   2.101   0.612 -0.9695  0.0571 -0.0441
   68MOL0     O 9093   1.154   1.844   0.433 -0.0702 -1.0883 -1.1504
   68MOL0     C 9094   1.204   1.820   0.177  0.3032 -0.0725 -0.3513
   68MOL0     C 9095   1.242   1.812   0.047 -0.2042  0.0454  1.1552
   68MOL0     N 9096   1.395   1.902  -0.652  0.4210  0.0663 -0.2097
   68MOL0     N 9097   1.305   1.945  -0.733 -0.2007  0.2772 -0.2256
   68MOL0     C 9098   0.435   1.904   0.040 -0.0614 -0.2631  0.2608
   68MOL0     C 9099   0.346   1.896   0.143  0.4779 -0.8317  0.2254
   68MOL0     C 9100  -0.022   2.033   0.394 -0.2671 -0.1317 -0.3270
   68MOL0     C 9101   0.023   1.957   0.509 -0.3869  0.4713 -0.5306
   68MOL0     C 9102  -0.067   1.941   0.616 -0.7487 -0.5831  0.5747
   68MOL0     C 9103  -0.183   2.014   0.623 -0.4593  0.4135 -0.0596
   68MOL0     O 9104  -0.261   2.002   0.741  0.1711  1.4353 -0.0420
   68MOL0     C 9105  -0.395   1.932   0.723 -0.6604  0.2354 -0.2463
   68MOL0     C 9106  -0.502   1.998   0.820  0.8425 -0.3479  0.4999
   68MOL0     C 9107  -0.456   2.006   0.963  0.4271 -0.5576 -0.4321
   68MOL0     C 9108  -0.577   2.013   1.050 -0.4726  0.0980  0.1102
   68MOL0     C 9109  -0.532   2.038   1.197  0.1600  0.4017 -0.5311
   68MOL0     C 9110  -0.469   2.048   1.303  0.0090 -0.0773 -0.7057
   68MOL0     C 9111  -0.206   2.109   0.523  0.1047 -0.3824  1.4002
   68MOL0     C 9112  -0.139   2.108   0.404  0.2562 -0.3372  0.4674
   68MOL0     H 9113   0.253   2.209   0.169 -0.8735 -0.0052 -0.6319
   68MOL0     H 9114   0.431   2.237   0.003  2.0402 -0.8695  0.0870
   68MOL0     H 9115   0.508   2.176  -0.199 -0.9769 -0.8494  0.1448
   68MOL0     H 9116   0.655   2.212  -0.106 -0.5944  0.5592 -0.6515
   68MOL0     H 9117   0.634   2.065  -0.377  0.5005 -1.3774  1.1216
   68MOL0     H 9118   0.720   2.214  -0.343  0.4422 -1.1657 -1.0633
   68MOL0     H 9119   0.871   2.074  -0.192  1.0994  0.8538 -1.6941
   68MOL0     H 9120   0.788   1.928  -0.249  0.4043  0.3200  3.1736
   68MOL0     H 9121   0.908   2.116  -0.447 -0.5412 -0.5184 -1.6971
   68MOL0     H 9122   1.026   2.000  -0.371 -0.3361  0.2002  0.7373
   68MOL0     H 9123   0.862   1.826  -0.482  2.7321 -1.3117 -1.6525
   68MOL0     H 9124   0.794   1.975  -0.555  0.4335 -0.3826 -0.0781
   68MOL0     H 9125   1.018   2.040  -0.641  1.0486  0.5277 -0.7004
   68MOL0     H 9126   1.086   1.891  -0.557 -0.1771  0.0803  0.3988
   68MOL0     H 9127   0.976   1.737  -0.713 -0.1421  0.1816  1.1902
   68MOL0     H 9128   0.891   1.870  -0.784 -0.7664  0.8619  0.6843
   68MOL0     H 9129   1.087   1.975  -0.868  1.5111  1.1583  3.3216
   68MOL0     H 9130   1.091   1.809  -0.935  1.3894  0.3679 -0.7387
   68MOL0     H 9131   1.212   1.630  -0.727 -0.2496 -0.5059 -0.3595
   68MOL0     H 9132   1.460   1.571  -0.593 -2.6095  0.8732  0.8309
   68MOL0     H 9133   1.562   1.707  -0.543  1.5720 -2.5901  1.6865
   68MOL0     H 9134   1.447   1.622  -0.343 -1.0068 -1.5061  0.5925
   68MOL0     H 9135   1.299   1.593  -0.429  1.0539 -0.6778 -0.9059
   68MOL0     H 9136   1.244   1.826  -0.420  0.5811 -0.6697 -0.5646
   68MOL0     H 9137   1.405   1.886  -0.387  0.5061  0.5800 -0.2085
   68MOL0     H 9138   1.414   1.786  -0.177 -0.0108 -0.3409 -2.4586
   68MOL0     H 9139   1.262   1.696  -0.208  0.6808 -0.9668  0.3793
   68MOL0     H 9140   1.102   2.075  -0.082  1.8567  0.9570  0.8750
   68MOL0     H 9141   0.988   2.200   0.069 -3.1821  1.8373  0.2431
   68MOL0     H 9142   0.867   2.098   0.157  0.8714 -2.2127  0.5564
   68MOL0     H 9143   1.008   2.183   0.233  1.4033  1.3060 -1.6447
   68MOL0     H 9144   0.791   1.964   0.562  3.9644 -1.6570 -2.9458
   68MOL0     H 9145   0.770   2.023   0.813 -0.0211 -0.9780  0.5619
   68MOL0     H 9146   1.148   2.078   1.012 -1.1542 -1.5176  2.9345
   68MOL0     H 9147   1.110   2.251   1.019 -1.1189  1.1692 -0.3380
   68MOL0     H 9148   0.961   2.053   1.204  1.0644 -0.3935  1.8972
   68MOL0     H 9149   1.121   2.097   1.232  0.8950  0.9733 -0.4749
   68MOL0     H 9150   0.911   2.306   1.163  0.5441  0.8374 -0.4726
   68MOL0     H 9151   1.072   2.350   1.214 -0.5806  0.5427  1.1401
   68MOL0     H 9152   0.855   2.228   1.380 -1.2543  1.1389 -2.5947
   68MOL0     H 9153   1.015   2.247   1.445  2.1487  4.3464  0.3746
   68MOL0     H 9154   0.818   2.457   1.337 -1.2474 -2.4204  0.3075
   68MOL0     H 9155   0.972   2.515   1.388 -1.8015  0.7387 -2.2236
   68MOL0     H 9156   0.833   2.551   1.585  1.5512  0.8115 -2.4171
   68MOL0     H 9157   0.729   2.413   1.558 -0.4468  0.2336  0.1689
   68MOL0     H 9158   1.017   2.392   1.648  0.5142  1.7611  3.7302
   68MOL0     H 9159   0.893   2.261   1.642  1.5568 -0.3104 -1.4735
   68MOL0     H 9160   0.780   2.423   1.814 -0.1101  0.5396 -2.6629
   68MOL0     H 9161   0.936   2.514   1.805 -1.4982  0.9084  3.5277
   68MOL0     H 9162   1.179   2.163   0.789 -0.2003 -2.7689  5.6990
   68MOL0     H 9163   1.180   2.126   0.554 -2.4513  0.3871 -2.2836
   68MOL0     H 9164   1.247   1.752   0.251 -0.1108  0.7731  0.6991
   68MOL0     H 9165   1.310   1.730   0.028  1.2989  0.8689  2.6401
   68MOL0     H 9166   0.487   1.813   0.013 -0.8473 -0.6977  0.1765
   68MOL0     H 9167   0.324   1.800   0.188  0.0116 -1.4631 -1.2836
   68MOL0     H 9168   0.115   1.900   0.504 -1.3885 -1.1593 -1.1381
   68MOL0     H 9169  -0.039   1.880   0.701  2.5174  0.8854  0.7024
   68MOL0     H 9170  -0.431   1.934   0.620 -0.5115 -1.1977 -0.3544
   68MOL0     H 9171  -0.388   1.826   0.749  0.6420  0.0366 -1.2790
   68MOL0     H 9172  -0.594   1.938   0.818 -0.9473  2.1735  1.5946
   68MOL0     H 9173  -0.530   2.099   0.788 -2.5981 -1.7868 -1.5683
   68MOL0     H 9174  -0.405   2.102   0.973 -1.3772  0.3502  0.5304
   68MOL0     H 9175  -0.386   1.926   0.987  2.4314  1.1708 -0.1605
   68MOL0     H 9176  -0.632   1.918   1.046  2.0829 -1.4661 -0.2895
   68MOL0     H 9177  -0.646   2.092   1.020  1.1759  0.5769 -2.8429
   68MOL0     H 9178  -0.406   2.048   1.389  0.7789 -3.0573 -1.1344
   68MOL0     H 9179  -0.301   2.160   0.529  0.0008 -0.3383 -0.2549
   68MOL0     H 9180  -0.166   2.180   0.327  0.4745 -0.7604 -0.0160
   69MOL0     O 9181   4.180   6.813  10.669  0.0036 -0.0162 -0.3416
   69MOL0     C 9182   4.119   6.814  10.561 -0.0327  0.1212  0.8797
   69MOL0     O 9183   4.051   6.920  10.499 -0.5954 -0.6119  0.4826
   69MOL0     C 9184   4.059   7.048  10.545  0.2676  0.3764  0.4733
   69MOL0     C 9185   4.169   7.104  10.606 -0.0217 -0.3468 -0.6908
   69MOL0     C 9186   4.166   7.239  10.655 -0.6918  0.4504 -0.4798
   69MOL0     C 9187   4.055   7.314  10.636  0.3330  0.4074  0.8565
   69MOL0     O 9188   4.067   7.445  10.665 -0.0044  0.6597 -0.2014
   69MOL0     C 9189   4.021   7.529  10.560 -0.8641  0.7881 -0.8270
   69MOL0     C 9190   4.009   7.677  10.601 -0.8763  0.3014 -0.3080
   69MOL0     C 9191   3.971   7.768  10.480 -0.3980  0.0754 -0.0232
   69MOL0     C 9192   3.999   7.916  10.532  0.3554  0.1724  0.6418
   69MOL0     C 9193   3.932   8.011  10.440 -0.8648  0.0981 -0.1068
   69MOL0     C 9194   3.980   8.158  10.455  0.1549 -0.5060  0.3548
   69MOL0     C 9195   3.891   8.265  10.377 -0.9786  0.6369 -0.5817
   69MOL0     C 9196   3.935   8.397  10.429  0.3234 -0.5389 -0.1848
   69MOL0     N 9197   3.851   8.499  10.368 -0.0192  0.1339 -0.0353
   69MOL0     C 9198   3.716   8.498  10.352  0.1111  1.0417 -1.2467
   69MOL0     C 9199   3.688   8.607  10.278  0.8064 -0.1767 -0.1680
   69MOL0     C 9200   3.562   8.671  10.229 -0.0816 -0.4108  0.2198
   69MOL0     C 9201   3.473   8.730  10.332 -0.6217 -0.0505  0.2924
   69MOL0     C 9202   3.351   8.800  10.266 -1.0093 -1.5794  0.3414
   69MOL0     C 9203   3.252   8.861  10.361  0.6072  0.5610  1.5183
   69MOL0     O 9204   3.199   8.742  10.430  0.2259 -0.1723 -0.1018
   69MOL0     C 9205   3.197   8.738  10.567 -0.1207  0.4678 -0.1896
   69MOL0     C 9206   3.206   8.835  10.660 -0.1378 -0.4281 -0.5279
   69MOL0     C 9207   3.201   8.813  10.803  0.1841  0.2480 -0.4040
   69MOL0     C 9208   3.202   8.926  10.895  0.4428  0.5763  0.2706
   69MOL0     C 9209   3.203   8.679  10.849  0.4614 -0.2038 -0.3178
   69MOL0     C 9210   3.214   8.631  10.992  0.2552  0.6305  0.2219
   69MOL0     O 9211   3.271   8.715  11.069 -0.5394 -0.3162  0.2701
   69MOL0     C 9212   3.326   8.664  11.186 -0.1876 -0.2283 -0.4363
   69MOL0     C 9213   3.293   8.737  11.293  0.4096 -0.5695 -0.6578
   69MOL0     C 9214   3.335   8.701  11.419  0.5572 -1.0407 -0.0816
   69MOL0     C 9215   3.410   8.589  11.440  0.3196 -0.0726 -1.0988
   69MOL0     O 9216   3.442   8.521  11.555 -0.2217  0.6528 -0.5981
   69MOL0     C 9217   3.434   8.584  11.675 -0.1552  0.6943  0.4070
   69MOL0     C 9218   3.572   8.651  11.701 -0.3833 -0.5845 -0.3395
   69MOL0     C 9219   3.600   8.655  11.851  0.2159  1.1790 -0.2229
   69MOL0     C 9220   3.666   8.785  11.871 -0.4109 -0.2157  0.3293
   69MOL0     C 9221   3.711   8.797  12.017 -1.1040  0.3243 -0.1938
   69MOL0     C 9222   3.831   8.896  12.023 -0.5406  0.5311  0.4483
   69MOL0     C 9223   3.937   8.858  12.116  0.3480 -0.0057 -0.6266
   69MOL0     C 9224   4.056   8.953  12.120 -0.6073  0.2419 -1.4664
   69MOL0    Cl 9225   4.039   9.095  12.237  0.3947  0.0892  0.1199
   69MOL0     C 9226   3.440   8.504  11.330  0.4847 -0.2352  1.5129
   69MOL0     C 9227   3.410   8.545  11.201  0.5117  0.0580  0.0255
   69MOL0     O 9228   3.167   8.525  11.022 -0.4631  0.4341  0.8140
   69MOL0     C 9229   3.205   8.579  10.752 -0.2870 -0.2167  0.8211
   69MOL0     C 9230   3.186   8.608  10.620 -0.0291 -0.0969  0.3666
   69MOL0     N 9231   3.801   8.669  10.253 -0.5313 -0.1671 -0.4974
   69MOL0     N 9232   3.899   8.599  10.285 -0.0428 -0.3176  0.0562
   69MOL0     C 9233   3.936   7.261  10.588 -1.0378 -0.1630  0.1145
   69MOL0     C 9234   3.943   7.124  10.542  0.1368  0.4659 -0.1506
   69MOL0     C 9235   4.117   6.679  10.489 -0.2622 -0.4615  0.0558
   69MOL0     C 9236   4.190   6.572  10.548 -0.0415  0.4273  0.0394
   69MOL0     C 9237   4.174   6.445  10.498 -1.0651  0.5881 -0.1747
   69MOL0     C 9238   4.098   6.422  10.391  0.8113 -0.1707  0.7035
   69MOL0     O 9239   4.112   6.309  10.326  0.1264  0.3831  0.6635
   69MOL0     C 9240   4.016   6.203  10.357 -0.1725 -0.5254  0.7324
   69MOL0     C 9241   4.022   6.113  10.238 -0.0908  0.5627  0.2345
   69MOL0     C 9242   4.161   6.077  10.180 -0.3494 -0.5104 -0.2925
   69MOL0     C 9243   4.185   6.123  10.035  0.6126 -0.9475 -0.5901
   69MOL0     C 9244   4.328   6.108   9.999 -0.1886 -0.6320 -0.2387
   69MOL0     C 9245   4.448   6.079   9.988  0.5318  0.2521  1.2008
   69MOL0     C 9246   4.032   6.529  10.325 -0.1316 -0.3634 -0.1664
   69MOL0     C 9247   4.031   6.656  10.380  0.4132 -0.0081  1.0742
   69MOL0     H 9248   4.262   7.054  10.632  0.2020  0.3084 -0.1887
   69MOL0     H 9249   4.248   7.272  10.718 -1.5893  2.4098 -0.2669
   69MOL0     H 9250   4.103   7.521  10.489  2.9685  1.2864  3.1230
   69MOL0     H 9251   3.918   7.508  10.530 -1.9329  2.5692  1.2757
   69MOL0     H 9252   3.947   7.682  10.691  4.1435  2.8644  3.5446
   69MOL0     H 9253   4.113   7.711  10.610 -0.3829  0.1793 -4.0051
   69MOL0     H 9254   4.041   7.751  10.397 -0.2914 -0.3953  0.1592
   69MOL0     H 9255   3.869   7.740  10.453 -0.2348  0.3320 -0.9562
   69MOL0     H 9256   3.969   7.932  10.636  2.0833  1.3244  1.0035
   69MOL0     H 9257   4.106   7.931  10.548 -0.1984  3.5863  1.9437
   69MOL0     H 9258   3.941   7.974  10.337 -2.2227  2.3302 -1.1169
   69MOL0     H 9259   3.825   8.009  10.461 -0.6082  1.4737  1.5721
   69MOL0     H 9260   3.988   8.179  10.562  1.7037 -2.2072  0.6145
   69MOL0     H 9261   4.084   8.165  10.421 -0.2270  0.7554 -0.6352
   69MOL0     H 9262   3.890   8.264  10.267 -1.2759  1.0216 -0.5862
   69MOL0     H 9263   3.788   8.243  10.408  0.3676 -1.0139  3.2921
   69MOL0     H 9264   4.042   8.414  10.412  0.5468 -0.8823  0.8322
   69MOL0     H 9265   3.932   8.396  10.538  0.5405 -1.8005 -0.1839
   69MOL0     H 9266   3.649   8.423  10.393  2.2799 -1.3652 -1.8397
   69MOL0     H 9267   3.584   8.753  10.160  0.4464 -0.1251  0.7206
   69MOL0     H 9268   3.501   8.599  10.174 -2.8409  1.2399  0.9496
   69MOL0     H 9269   3.542   8.802  10.377  0.6246 -0.6028 -0.6710
   69MOL0     H 9270   3.443   8.656  10.406 -0.0158  1.3618  2.0180
   69MOL0     H 9271   3.294   8.731  10.203  0.4897 -1.8522 -0.7825
   69MOL0     H 9272   3.386   8.876  10.195 -1.8437 -2.0582 -0.6114
   69MOL0     H 9273   3.174   8.913  10.303  1.4404  2.5875  2.1338
   69MOL0     H 9274   3.305   8.931  10.426  2.4377 -1.5721  2.4674
   69MOL0     H 9275   3.199   8.935  10.619  1.7682 -0.8983 -2.1659
   69MOL0     H 9276   3.157   8.898  10.991 -0.4906  3.0113  0.6175
   69MOL0     H 9277   3.303   8.960  10.920  0.1151  1.9274 -0.1421
   69MOL0     H 9278   3.145   9.012  10.860 -2.4293 -1.6447 -0.8568
   69MOL0     H 9279   3.246   8.835  11.290 -2.0364 -1.4550  2.6663
   69MOL0     H 9280   3.302   8.766  11.500 -1.6478 -2.0907 -0.0721
   69MOL0     H 9281   3.351   8.655  11.689  1.8574  2.6982  3.4990
   69MOL0     H 9282   3.406   8.502  11.741  0.3593  0.2711  0.1077
   69MOL0     H 9283   3.640   8.576  11.659 -1.4541 -1.1240 -1.1498
   69MOL0     H 9284   3.575   8.741  11.639 -0.3667 -1.5682 -1.8144
   69MOL0     H 9285   3.662   8.566  11.872  1.7083  0.7647 -5.2091
   69MOL0     H 9286   3.509   8.654  11.912 -1.6545  1.5461 -2.8807
   69MOL0     H 9287   3.758   8.779  11.812  0.3212 -4.3418  1.5919
   69MOL0     H 9288   3.593   8.858  11.834 -0.4385 -0.6662 -0.5082
   69MOL0     H 9289   3.748   8.698  12.047 -0.1897  1.1824  1.7118
   69MOL0     H 9290   3.640   8.823  12.096  1.1107  0.0598  2.0354
   69MOL0     H 9291   3.877   8.888  11.925  1.4358 -3.3882  1.5017
   69MOL0     H 9292   3.791   8.996  12.042  0.2173  0.9166  0.0694
   69MOL0     H 9293   3.967   8.755  12.096  0.3820 -0.2366  0.5448
   69MOL0     H 9294   3.889   8.856  12.214  0.7682  0.9538 -0.3914
   69MOL0     H 9295   4.082   8.995  12.022  2.2344  1.7841 -0.1785
   69MOL0     H 9296   4.146   8.906  12.160 -0.5270  2.2513  0.9609
   69MOL0     H 9297   3.493   8.409  11.334 -1.5869 -1.6937 -1.6334
   69MOL0     H 9298   3.433   8.491  11.110 -2.4936 -3.6738  1.2349
   69MOL0     H 9299   3.188   8.472  10.761 -1.1747 -0.5824 -3.1537
   69MOL0     H 9300   3.179   8.522  10.554 -2.1516 -0.5708  1.1387
   69MOL0     H 9301   3.843   7.315  10.573  0.1912  1.4771 -2.2749
   69MOL0     H 9302   3.853   7.072  10.511  0.5530 -1.0135  0.9991
   69MOL0     H 9303   4.253   6.576  10.637 -3.0500  2.2767  2.2827
   69MOL0     H 9304   4.246   6.372  10.533 -1.4529  0.7988  1.0951
   69MOL0     H 9305   4.048   6.138  10.440 -0.2416 -0.0946  1.0974
   69MOL0     H 9306   3.910   6.225  10.372 -0.6162 -0.5304 -1.9226
   69MOL0     H 9307   3.967   6.146  10.149 -0.4177 -2.2975 -0.7335
   69MOL0     H 9308   3.975   6.027  10.286  2.3840 -1.4942 -0.7674
   69MOL0     H 9309   4.184   5.972  10.198  2.0511 -0.1770 -1.1567
   69MOL0     H 9310   4.235   6.135  10.236 -1.5897 -0.5608  1.4879
   69MOL0     H 9311   4.173   6.232  10.032  5.3930  0.3720  5.6900
   69MOL0     H 9312   4.117   6.072   9.967  0.5570 -0.3713 -0.9819
   69MOL0     H 9313   4.551   6.052   9.975 -0.2067 -1.8830 -0.8774
   69MOL0     H 9314   3.982   6.521  10.229  0.2790  3.7073 -0.9054
   69MOL0     H 9315   3.975   6.736  10.332  2.1620 -0.9102 -2.8534
   70MOL0     O 9316   6.495   1.191   7.621  1.0366  0.1979 -0.0749
   70MOL0     C 9317   6.487   1.310   7.592 -0.3748 -0.5036 -0.0646
   70MOL0     O 9318   6.476   1.359   7.465  0.3741  0.7855 -0.5431
   70MOL0     C 9319   6.471   1.274   7.360  0.6230 -0.0549 -0.2050
   70MOL0     C 9320   6.380   1.290   7.255 -0.0959 -0.4391  0.0783
   70MOL0     C 9321   6.394   1.220   7.136 -0.0219 -0.0527 -1.0001
   70MOL0     C 9322   6.490   1.119   7.124 -0.3479 -0.1296 -0.1414
   70MOL0     O 9323   6.488   1.052   7.011 -0.4228 -0.0733  0.1214
   70MOL0     C 9324   6.576   0.935   6.996  0.4746 -0.1822  0.2244
   70MOL0     C 9325   6.537   0.870   6.865  0.7989 -0.2651  0.5512
   70MOL0     C 9326   6.382   0.847   6.847 -0.1679  0.4701  0.1875
   70MOL0     C 9327   6.321   0.758   6.949 -0.6181 -0.7358 -0.8244
   70MOL0     C 9328   6.349   0.613   6.912  0.0889  0.1829  1.4542
   70MOL0     C 9329   6.268   0.516   6.998  0.1423 -0.1251  0.2397
   70MOL0     C 9330   6.291   0.375   6.960  0.6682  0.8467 -0.4199
   70MOL0     C 9331   6.236   0.329   6.821  0.3715  0.3198  0.2619
   70MOL0     N 9332   6.099   0.298   6.836  0.2467 -0.6602  0.4923
   70MOL0     C 9333   6.044   0.196   6.907  0.7117  0.3973 -0.3308
   70MOL0     C 9334   5.912   0.221   6.928 -0.2630  0.0715  0.4484
   70MOL0     C 9335   5.829   0.134   7.013  0.6134 -1.8353 -0.4984
   70MOL0     C 9336   5.788   0.000   6.947  0.7301  0.3089 -1.0401
   70MOL0     C 9337   5.682  -0.064   7.046  0.7291  0.6118 -0.2752
   70MOL0     C 9338   5.637  -0.205   6.992 -0.1277  0.1162 -0.0336
   70MOL0     O 9339   5.536  -0.258   7.081  0.4831 -0.0962 -0.1357
   70MOL0     C 9340   5.402  -0.200   7.077 -1.2513 -1.0323  0.1864
   70MOL0     C 9341   5.320  -0.250   7.168 -0.4038 -0.2822  0.3194
   70MOL0     C 9342   5.192  -0.210   7.175  0.8675 -0.3688  0.4672
   70MOL0     C 9343   5.107  -0.286   7.276  0.0655 -0.3027  0.7595
   70MOL0     C 9344   5.146  -0.105   7.091 -0.1424  0.5874  0.5985
   70MOL0     C 9345   5.013  -0.048   7.120 -0.5556 -0.4683 -0.5104
   70MOL0     O 9346   5.005   0.001   7.249 -0.0014  0.9310  0.7923
   70MOL0     C 9347   4.899   0.076   7.263 -0.7601 -0.1961 -0.0884
   70MOL0     C 9348   4.771   0.030   7.294 -0.5770 -0.0138 -0.6073
   70MOL0     C 9349   4.676   0.123   7.330  0.7422 -0.4173 -0.7005
   70MOL0     C 9350   4.689   0.267   7.325  0.8190  0.2139 -0.3344
   70MOL0     O 9351   4.577   0.339   7.364 -0.1802  0.8306  1.1730
   70MOL0     C 9352   4.584   0.475   7.409 -0.9903 -0.3174 -0.5047
   70MOL0     C 9353   4.638   0.502   7.549 -0.4110 -0.4649 -0.6044
   70MOL0     C 9354   4.774   0.443   7.587 -0.7443 -0.4672 -0.8385
   70MOL0     C 9355   4.821   0.489   7.731 -0.1526 -0.1055 -0.0497
   70MOL0     C 9356   4.770   0.412   7.845 -0.6034  0.0630 -0.4682
   70MOL0     C 9357   4.776   0.258   7.851 -0.4390  0.0318 -0.4950
   70MOL0     C 9358   4.920   0.230   7.837 -0.1573 -0.0880  0.4348
   70MOL0     C 9359   4.928   0.076   7.877 -0.0638 -0.7053  0.3186
   70MOL0    Cl 9360   5.098   0.026   7.856  0.7704  0.0318 -0.3207
   70MOL0     C 9361   4.819   0.309   7.293  0.0837  0.5076 -0.4294
   70MOL0     C 9362   4.918   0.217   7.246  0.3749 -0.0950 -0.2403
   70MOL0     O 9363   4.925  -0.057   7.030 -0.4782 -0.3027  0.6966
   70MOL0     C 9364   5.234  -0.058   6.989  0.7729  0.0780  0.1070
   70MOL0     C 9365   5.360  -0.101   6.984 -0.6623  0.1535  0.3706
   70MOL0     N 9366   5.877   0.329   6.861  0.5013  0.4988  0.3015
   70MOL0     N 9367   5.985   0.376   6.814 -0.0115 -0.2675 -0.5090
   70MOL0     C 9368   6.588   1.092   7.225  0.8596 -0.7157 -0.6678
   70MOL0     C 9369   6.569   1.170   7.348  0.0074  0.1361  1.1666
   70MOL0     C 9370   6.514   1.425   7.691  0.3231  0.1458  0.6784
   70MOL0     C 9371   6.517   1.395   7.829 -0.3740  0.1483 -0.0567
   70MOL0     C 9372   6.566   1.490   7.919  0.8816 -0.3820  0.3545
   70MOL0     C 9373   6.605   1.618   7.876 -0.8263  0.2751  0.6447
   70MOL0     O 9374   6.646   1.714   7.959  0.2142 -0.6392  0.0384
   70MOL0     C 9375   6.790   1.717   7.967 -0.6967 -1.4417  0.6128
   70MOL0     C 9376   6.835   1.811   8.078  0.4052  0.2376 -0.6177
   70MOL0     C 9377   6.826   1.768   8.218 -0.7831 -0.2465 -0.4427
   70MOL0     C 9378   6.956   1.705   8.281 -0.4039 -0.0651  0.3051
   70MOL0     C 9379   6.930   1.677   8.421  0.1458 -1.1423  0.3808
   70MOL0     C 9380   6.920   1.655   8.542  1.4658 -0.5718  0.1139
   70MOL0     C 9381   6.608   1.648   7.744  0.1286  0.3580 -0.2870
   70MOL0     C 9382   6.563   1.546   7.647  1.0042  0.6601 -0.2082
   70MOL0     H 9383   6.308   1.369   7.272 -0.4508 -0.8852  0.6981
   70MOL0     H 9384   6.326   1.240   7.053  0.2126 -2.6754 -1.9219
   70MOL0     H 9385   6.676   0.980   6.993 -0.9070  3.2448  0.2275
   70MOL0     H 9386   6.565   0.864   7.079 -2.0421  0.1144  0.2135
   70MOL0     H 9387   6.565   0.916   6.770  0.0064 -2.0072 -0.5825
   70MOL0     H 9388   6.591   0.774   6.861  1.4249  0.1005 -0.1014
   70MOL0     H 9389   6.324   0.940   6.837 -2.2167 -0.8652 -1.2563
   70MOL0     H 9390   6.366   0.793   6.753 -1.1317 -0.2309  0.7338
   70MOL0     H 9391   6.355   0.776   7.051  1.0234 -0.4791 -1.3807
   70MOL0     H 9392   6.212   0.762   6.952 -0.6173 -0.6146 -0.9299
   70MOL0     H 9393   6.322   0.591   6.808  2.0362  2.1120  0.4573
   70MOL0     H 9394   6.453   0.580   6.928 -1.1161 -4.1594  1.6813
   70MOL0     H 9395   6.297   0.533   7.102 -3.4140 -3.6719  2.0798
   70MOL0     H 9396   6.162   0.540   6.987 -0.9309 -3.1622  2.5479
   70MOL0     H 9397   6.398   0.368   6.938  0.5369 -2.5825 -0.3898
   70MOL0     H 9398   6.266   0.299   7.034  1.0042 -1.1631 -2.2745
   70MOL0     H 9399   6.283   0.236   6.790 -0.3582  0.1977 -0.5109
   70MOL0     H 9400   6.237   0.407   6.745 -1.4694 -0.3848 -0.5345
   70MOL0     H 9401   6.089   0.111   6.957 -2.4808  0.1403  2.4181
   70MOL0     H 9402   5.854   0.109   7.116 -2.7925 -2.1927  0.3840
   70MOL0     H 9403   5.724   0.164   7.026  1.3602  0.4794  0.5101
   70MOL0     H 9404   5.872  -0.067   6.930  0.8909  0.9411 -3.0180
   70MOL0     H 9405   5.744   0.017   6.848  2.6200  0.3319 -1.9150
   70MOL0     H 9406   5.589  -0.006   7.041  1.6908  2.1228 -1.3774
   70MOL0     H 9407   5.707  -0.046   7.151  1.2766 -2.5046  0.2348
   70MOL0     H 9408   5.723  -0.273   6.997  1.6457  2.2114 -0.5417
   70MOL0     H 9409   5.592  -0.197   6.893 -0.5307 -1.5790 -0.0237
   70MOL0     H 9410   5.357  -0.320   7.243 -2.8624 -0.9650  0.9908
   70MOL0     H 9411   5.070  -0.211   7.347  1.4386  2.6595 -1.4396
   70MOL0     H 9412   5.019  -0.323   7.222 -1.8241  1.0860  2.7258
   70MOL0     H 9413   5.162  -0.364   7.329 -0.3887 -0.3771  1.1350
   70MOL0     H 9414   4.749  -0.077   7.289 -0.8967  0.0087  0.2080
   70MOL0     H 9415   4.584   0.093   7.379  1.3929  0.8805  1.4247
   70MOL0     H 9416   4.660   0.526   7.350 -0.8145  0.9055  0.7344
   70MOL0     H 9417   4.488   0.517   7.376 -0.4799  1.5874  0.3313
   70MOL0     H 9418   4.651   0.610   7.563 -0.4099 -0.7563  2.0579
   70MOL0     H 9419   4.573   0.461   7.627  2.0079 -0.1138  1.7208
   70MOL0     H 9420   4.844   0.485   7.514  0.5280  2.1071  1.6685
   70MOL0     H 9421   4.772   0.334   7.579 -1.4468 -0.6445  1.1164
   70MOL0     H 9422   4.931   0.484   7.736 -0.2513 -2.3502  2.7589
   70MOL0     H 9423   4.796   0.592   7.757  0.7517  0.4813 -1.3978
   70MOL0     H 9424   4.663   0.434   7.852 -0.1131  2.7219 -0.2025
   70MOL0     H 9425   4.819   0.456   7.932 -0.8242 -2.1027  0.8228
   70MOL0     H 9426   4.742   0.244   7.954  3.0868 -0.0508  0.7701
   70MOL0     H 9427   4.715   0.199   7.782 -0.8858 -0.0093 -0.0742
   70MOL0     H 9428   4.988   0.295   7.893 -0.0791  3.7905 -3.6672
   70MOL0     H 9429   4.940   0.224   7.730  2.2061 -1.1300  0.8832
   70MOL0     H 9430   4.865   0.029   7.800 -2.7795 -0.1881  2.0655
   70MOL0     H 9431   4.898   0.056   7.980  2.0716  3.3026  1.9050
   70MOL0     H 9432   4.836   0.416   7.297 -0.8186  0.6110  2.4098
   70MOL0     H 9433   5.011   0.269   7.227  0.1966  0.7539  1.0931
   70MOL0     H 9434   5.195   0.018   6.922  1.2476  0.5430  0.3514
   70MOL0     H 9435   5.422  -0.063   6.904 -1.4653  0.2957 -0.1935
   70MOL0     H 9436   6.655   1.007   7.226 -1.8497 -2.9984 -0.1876
   70MOL0     H 9437   6.635   1.165   7.433  0.4959  1.9392  0.9507
   70MOL0     H 9438   6.478   1.296   7.852 -0.2158 -0.0738 -0.7268
   70MOL0     H 9439   6.570   1.473   8.027  2.1649  1.1681  0.5993
   70MOL0     H 9440   6.822   1.615   7.988  0.1848 -1.3077 -0.0105
   70MOL0     H 9441   6.819   1.744   7.865  3.7409  0.0869  2.0113
   70MOL0     H 9442   6.772   1.899   8.061  0.4130  0.5967  1.0477
   70MOL0     H 9443   6.937   1.846   8.058  0.9988  0.9213  2.8816
   70MOL0     H 9444   6.743   1.697   8.221  1.1334 -2.5656 -0.1674
   70MOL0     H 9445   6.795   1.857   8.274 -2.9458 -1.5552  0.5679
   70MOL0     H 9446   7.042   1.772   8.268 -0.5304  0.1674  0.6552
   70MOL0     H 9447   6.981   1.617   8.222  2.8691 -0.1580  1.6257
   70MOL0     H 9448   6.905   1.629   8.645  0.4495 -2.2130 -0.4026
   70MOL0     H 9449   6.649   1.740   7.703  0.2521 -1.0162 -3.6067
   70MOL0     H 9450   6.579   1.574   7.543  4.7446  2.3975  0.6492
   71MOL0     O 9451  11.064   9.631  11.220  0.2171 -0.3417  0.5394
   71MOL0     C 9452  11.041   9.509  11.228 -0.2837  0.5216 -0.1989
   71MOL0     O 9453  11.046   9.425  11.114 -0.3288 -0.1362 -0.2929
   71MOL0     C 9454  11.045   9.488  10.997 -0.6316  0.5960  0.1355
   71MOL0     C 9455  10.930   9.554  10.956 -0.0120  0.1284  0.1722
   71MOL0     C 9456  10.917   9.619  10.830  0.5807 -0.3782 -0.3123
   71MOL0     C 9457  11.024   9.617  10.743 -0.3517 -0.8253 -0.0070
   71MOL0     O 9458  10.994   9.679  10.619 -0.1663  0.0396  0.5057
   71MOL0     C 9459  11.118   9.727  10.559  0.2164  0.0669 -0.4279
   71MOL0     C 9460  11.097   9.830  10.461 -0.0717  0.0176 -0.3526
   71MOL0     C 9461  11.234   9.879  10.409  0.5251 -0.0655  0.2503
   71MOL0     C 9462  11.195  10.018  10.336  0.3570  0.4370  0.5680
   71MOL0     C 9463  11.285  10.048  10.223 -1.0640 -0.8623  0.8639
   71MOL0     C 9464  11.440  10.060  10.259  0.2017 -0.3223 -0.3443
   71MOL0     C 9465  11.516  10.119  10.142  0.0284 -0.4641  0.2953
   71MOL0     C 9466  11.660  10.158  10.171  0.2535 -0.6118 -0.0617
   71MOL0     N 9467  11.721  10.222  10.047  0.5261 -0.2532  0.1412
   71MOL0     C 9468  11.725  10.171   9.922 -0.3791 -0.2500 -0.4381
   71MOL0     C 9469  11.779  10.264   9.840 -0.2662  0.5922 -0.2630
   71MOL0     C 9470  11.798  10.231   9.701  0.9823 -0.3787  0.7274
   71MOL0     C 9471  11.828  10.357   9.626  0.5816 -0.4650  0.1511
   71MOL0     C 9472  11.808  10.348   9.475  0.5652 -0.8557 -0.5931
   71MOL0     C 9473  11.861  10.471   9.397  0.9238 -0.5257  0.8546
   71MOL0     O 9474  11.998  10.452   9.383  0.3566 -0.4124  0.1853
   71MOL0     C 9475  12.062  10.558   9.325 -0.2605 -0.2537 -0.4094
   71MOL0     C 9476  12.200  10.550   9.325  0.1232  0.0940  0.2485
   71MOL0     C 9477  12.291  10.637   9.263 -0.3716 -0.1665  0.0372
   71MOL0     C 9478  12.432  10.603   9.260 -0.2729 -0.7783  0.8630
   71MOL0     C 9479  12.230  10.746   9.195  0.3551 -0.1349  0.5310
   71MOL0     C 9480  12.306  10.860   9.129  0.4015  0.9612 -0.8257
   71MOL0     O 9481  12.440  10.877   9.152 -0.5068  0.1554  0.7012
   71MOL0     C 9482  12.487  11.003   9.108 -0.0336  0.1747 -0.9986
   71MOL0     C 9483  12.466  11.127   9.173  0.4689 -0.2772  0.3054
   71MOL0     C 9484  12.524  11.240   9.118  0.3851 -0.6917 -0.0811
   71MOL0     C 9485  12.609  11.234   9.000  0.4999  0.1057 -0.9781
   71MOL0     O 9486  12.658  11.344   8.933  0.6349 -0.7881  0.0233
   71MOL0     C 9487  12.682  11.471   8.997  0.1482 -0.8832  0.4650
   71MOL0     C 9488  12.821  11.496   9.052 -0.2592 -0.2043 -0.5714
   71MOL0     C 9489  12.826  11.641   9.106  0.2400 -0.1555  0.3720
   71MOL0     C 9490  12.961  11.671   9.163 -0.3560 -0.1361  0.1789
   71MOL0     C 9491  12.989  11.820   9.208 -0.3253 -0.1294  0.1534
   71MOL0     C 9492  13.124  11.838   9.284  0.3753 -0.5374 -0.0952
   71MOL0     C 9493  13.142  11.745   9.400  0.4825  0.2439 -0.4960
   71MOL0     C 9494  13.276  11.752   9.470  0.2371 -0.2777 -0.5047
   71MOL0    Cl 9495  13.294  11.901   9.522  0.0449 -0.5778  0.1706
   71MOL0     C 9496  12.636  11.102   8.940  0.1738 -0.4592 -0.2870
   71MOL0     C 9497  12.564  10.993   8.994 -0.2283 -0.1465  0.1674
   71MOL0     O 9498  12.242  10.914   9.044 -0.1696  0.3641  0.0122
   71MOL0     C 9499  12.089  10.764   9.193 -0.2256  0.0778 -1.2445
   71MOL0     C 9500  12.007  10.669   9.261  0.5854  0.2367 -0.2288
   71MOL0     N 9501  11.812  10.371   9.929  0.6493 -0.1098 -0.3586
   71MOL0     N 9502  11.756  10.354  10.042 -0.0454  0.8701  0.6715
   71MOL0     C 9503  11.144   9.557  10.785  0.8619  0.5895  0.5014
   71MOL0     C 9504  11.153   9.487  10.911 -0.1368  0.5786  0.7698
   71MOL0     C 9505  11.026   9.438  11.362 -0.1996  1.0139 -0.4052
   71MOL0     C 9506  11.028   9.296  11.372  0.4316  0.3522 -0.7671
   71MOL0     C 9507  11.022   9.242  11.503  0.6396 -0.0076 -0.4060
   71MOL0     C 9508  11.001   9.329  11.615  1.0790  0.7543 -0.4873
   71MOL0     O 9509  11.012   9.289  11.745  0.9137  0.3508  0.3210
   71MOL0     C 9510  11.032   9.146  11.760 -0.5506  0.2757 -0.1850
   71MOL0     C 9511  11.001   9.097  11.896  0.4335 -0.2400  0.3240
   71MOL0     C 9512  11.052   8.957  11.929  1.2178  0.0017  1.0488
   71MOL0     C 9513  10.988   8.858  11.832 -0.7713 -0.8822 -0.1174
   71MOL0     C 9514  10.844   8.838  11.842  0.6943  0.2323  0.2869
   71MOL0     C 9515  10.726   8.814  11.865  1.5214 -0.4108  0.8137
   71MOL0     C 9516  10.984   9.463  11.599  0.1081 -0.0984  0.6053
   71MOL0     C 9517  10.994   9.514  11.471  0.4763 -0.2625  0.2364
   71MOL0     H 9518  10.850   9.571  11.027 -0.7077  2.7957 -1.1241
   71MOL0     H 9519  10.824   9.673  10.817 -0.4918 -1.5539  1.9406
   71MOL0     H 9520  11.168   9.782  10.640 -3.8832  3.4841  0.1372
   71MOL0     H 9521  11.196   9.655  10.531  1.9740  2.1464 -1.1612
   71MOL0     H 9522  11.039   9.787  10.380 -1.2326  0.9763 -0.0569
   71MOL0     H 9523  11.034   9.908  10.505  1.1333  0.5509  0.4976
   71MOL0     H 9524  11.298   9.896  10.495  0.5500 -2.0442  0.6820
   71MOL0     H 9525  11.276   9.805  10.340  1.1569  1.2896 -0.8522
   71MOL0     H 9526  11.092  10.023  10.300  0.9496  2.7369 -1.0241
   71MOL0     H 9527  11.206  10.100  10.407  1.4697  0.6648  0.1553
   71MOL0     H 9528  11.283   9.975  10.142  1.6284  0.7029 -0.7883
   71MOL0     H 9529  11.267  10.148  10.182  1.3450 -0.7739 -0.1822
   71MOL0     H 9530  11.448  10.131  10.342 -0.5318 -0.0090 -0.5348
   71MOL0     H 9531  11.485   9.962  10.276  2.7071  0.4282 -2.1070
   71MOL0     H 9532  11.512  10.055  10.053 -0.0417 -0.5983  0.3951
   71MOL0     H 9533  11.459  10.209  10.116 -1.9868 -1.9964 -0.8345
   71MOL0     H 9534  11.723  10.076  10.207  3.8676  0.5188 -3.1405
   71MOL0     H 9535  11.649  10.237  10.246 -3.6885  1.0372 -2.1061
   71MOL0     H 9536  11.670  10.080   9.900 -1.7811 -0.3547  2.9843
   71MOL0     H 9537  11.879  10.160   9.678  0.3019 -1.0159  0.2741
   71MOL0     H 9538  11.717  10.173   9.656 -1.2143  4.3745 -2.1755
   71MOL0     H 9539  11.930  10.385   9.653  0.0952 -0.4825  2.2359
   71MOL0     H 9540  11.761  10.431   9.671 -0.0955 -1.4013  0.7300
   71MOL0     H 9541  11.700  10.347   9.456  0.0654 -2.2507  1.8487
   71MOL0     H 9542  11.854  10.255   9.440 -3.5604 -3.2011 -0.5455
   71MOL0     H 9543  11.835  10.566   9.444  0.1891 -1.1751  1.7767
   71MOL0     H 9544  11.811  10.471   9.299 -1.4266  2.5764  1.8850
   71MOL0     H 9545  12.240  10.457   9.364 -0.3786  0.0787  0.7376
   71MOL0     H 9546  12.486  10.651   9.177 -0.8137  0.3717  1.1564
   71MOL0     H 9547  12.480  10.632   9.354 -1.8849  1.6348  1.0359
   71MOL0     H 9548  12.438  10.496   9.236  3.7462 -0.8775  1.6853
   71MOL0     H 9549  12.406  11.126   9.263  2.5841  0.6373  1.8228
   71MOL0     H 9550  12.503  11.339   9.157  0.5187  0.1752 -2.0969
   71MOL0     H 9551  12.671  11.550   8.922  6.2885  1.8625  1.7413
   71MOL0     H 9552  12.606  11.480   9.075  0.7926 -0.3628  1.0453
   71MOL0     H 9553  12.841  11.420   9.128  0.4269  0.9957  0.4927
   71MOL0     H 9554  12.880  11.477   8.961  0.8147 -1.3889  0.3428
   71MOL0     H 9555  12.743  11.643   9.177  0.4320 -0.2307  0.6010
   71MOL0     H 9556  12.816  11.714   9.025  2.4262 -0.6308 -0.4073
   71MOL0     H 9557  12.974  11.604   9.249  1.7748  1.4083  1.1557
   71MOL0     H 9558  13.043  11.647   9.095  0.4832  0.0807  1.0808
   71MOL0     H 9559  12.904  11.853   9.268 -0.6732 -1.0319  0.1757
   71MOL0     H 9560  13.000  11.885   9.120  0.7725  1.8123  1.6651
   71MOL0     H 9561  13.205  11.801   9.220  1.6522 -0.6120  1.4809
   71MOL0     H 9562  13.138  11.943   9.310 -1.1586 -0.3350 -0.0030
   71MOL0     H 9563  13.133  11.642   9.364  1.8782  0.0549 -0.3593
   71MOL0     H 9564  13.073  11.762   9.483 -0.9794  0.5473 -1.7287
   71MOL0     H 9565  13.357  11.728   9.401 -0.1132 -2.7316 -0.1431
   71MOL0     H 9566  13.283  11.679   9.551 -0.0501  0.5587  0.2916
   71MOL0     H 9567  12.702  11.102   8.854 -0.2813 -1.7977 -0.6542
   71MOL0     H 9568  12.578  10.893   8.954 -2.0040  0.3566 -1.9217
   71MOL0     H 9569  12.057  10.854   9.143 -1.4668  1.5432  1.9111
   71MOL0     H 9570  11.900  10.685   9.258  0.2501 -1.7855 -0.4097
   71MOL0     H 9571  11.231   9.564  10.721  0.0516  1.7347 -0.5368
   71MOL0     H 9572  11.246   9.436  10.931 -1.3092 -1.8538  0.3806
   71MOL0     H 9573  11.024   9.242  11.278 -3.2009  1.2231 -1.2894
   71MOL0     H 9574  11.057   9.140  11.504  2.8484  0.6479 -2.4255
   71MOL0     H 9575  10.958   9.098  11.696 -2.3338  1.3044  0.9900
   71MOL0     H 9576  11.129   9.112  11.724 -0.0136  1.8038 -0.2572
   71MOL0     H 9577  10.893   9.101  11.913  0.4989 -3.1938  2.0755
   71MOL0     H 9578  11.050   9.170  11.962 -1.3550 -0.0494  1.5184
   71MOL0     H 9579  11.021   8.931  12.030 -0.3204 -2.8951 -0.0431
   71MOL0     H 9580  11.160   8.942  11.919  1.7191  3.7110 -1.3327
   71MOL0     H 9581  11.040   8.764  11.856 -1.5037 -0.6220  2.8011
   71MOL0     H 9582  10.984   8.892  11.728 -3.3931 -1.0716 -0.1532
   71MOL0     H 9583  10.624   8.790  11.888  0.2691  2.1692 -1.4359
   71MOL0     H 9584  10.967   9.535  11.678  3.5803 -0.2097  1.6424
   71MOL0     H 9585  10.986   9.622  11.465 -2.1606 -0.3277  1.3505
   72MOL0     O 9586   2.977   8.984   6.323  0.3799 -0.0816  0.1698
   72MOL0     C 9587   3.034   8.932   6.227 -0.6500 -0.6210  0.1893
   72MOL0     O 9588   3.115   8.997   6.138  1.0825  0.0143  0.2182
   72MOL0     C 9589   3.128   9.134   6.137 -0.7097  0.5532  0.5882
   72MOL0     C 9590   3.030   9.217   6.194 -0.6445  0.0496  0.7465
   72MOL0     C 9591   3.052   9.359   6.189 -0.2860  0.4445 -0.2143
   72MOL0     C 9592   3.164   9.412   6.118 -0.5789  0.2613  0.0734
   72MOL0     O 9593   3.205   9.544   6.122 -0.2947 -0.3002 -0.0094
   72MOL0     C 9594   3.148   9.645   6.203  0.7961  0.1126 -0.0777
   72MOL0     C 9595   3.205   9.783   6.178  0.1099  0.4415 -0.2574
   72MOL0     C 9596   3.124   9.888   6.257  0.5398  0.0714 -1.5016
   72MOL0     C 9597   3.166  10.022   6.213 -0.4803 -0.5157  0.3950
   72MOL0     C 9598   3.111  10.120   6.322 -0.2464 -0.2307 -0.8948
   72MOL0     C 9599   3.151  10.274   6.316 -0.2709 -0.5619  0.3422
   72MOL0     C 9600   3.043  10.376   6.340  0.6795  0.0604 -0.6694
   72MOL0     C 9601   3.009  10.389   6.485 -0.4138 -0.6207 -0.0046
   72MOL0     N 9602   2.907  10.496   6.514  0.1024  0.7102  0.1764
   72MOL0     C 9603   2.916  10.619   6.470 -0.0771  0.9573  0.0118
   72MOL0     C 9604   2.794  10.670   6.482  0.3139 -0.0725 -1.4163
   72MOL0     C 9605   2.756  10.807   6.439  1.0443 -0.4478 -0.2838
   72MOL0     C 9606   2.815  10.924   6.525  0.4425  0.4184  0.4412
   72MOL0     C 9607   2.721  10.949   6.639  0.5100 -0.0583 -1.1322
   72MOL0     C 9608   2.740  10.849   6.749  0.0061  0.7524 -0.2900
   72MOL0     O 9609   2.881  10.832   6.777  0.6176  0.2678 -0.3989
   72MOL0     C 9610   2.929  10.708   6.808  0.2955 -0.0864  0.2125
   72MOL0     C 9611   3.060  10.699   6.791 -0.2711  0.4848  0.6348
   72MOL0     C 9612   3.126  10.577   6.815  0.0781  0.1759 -0.0538
   72MOL0     C 9613   3.277  10.587   6.805 -0.4494  1.5902  0.1118
   72MOL0     C 9614   3.053  10.463   6.851  0.1858  0.2708  0.4725
   72MOL0     C 9615   3.124  10.328   6.854  0.3857  0.4179 -0.4426
   72MOL0     O 9616   3.218  10.298   6.763  0.0274 -0.4106  0.1048
   72MOL0     C 9617   3.247  10.172   6.715  0.8492 -0.6668  0.1666
   72MOL0     C 9618   3.337  10.179   6.610  0.3708 -0.2120  1.0445
   72MOL0     C 9619   3.398  10.078   6.546 -0.6013 -0.0141  0.9199
   72MOL0     C 9620   3.363   9.954   6.583 -0.7177 -0.3496  0.0450
   72MOL0     O 9621   3.430   9.842   6.523  0.4834 -0.2338 -0.0133
   72MOL0     C 9622   3.488   9.756   6.621 -0.6430  0.3639  0.6000
   72MOL0     C 9623   3.639   9.777   6.598  0.5953  0.0499  0.5743
   72MOL0     C 9624   3.671   9.930   6.625  0.1394 -0.7448 -0.0331
   72MOL0     C 9625   3.817   9.980   6.611 -0.1966 -0.2874 -0.1304
   72MOL0     C 9626   3.831  10.132   6.632  0.2543  0.6567 -0.3546
   72MOL0     C 9627   3.977  10.184   6.651  1.3929 -0.3394  0.8975
   72MOL0     C 9628   3.979  10.282   6.767 -0.2966  0.2882 -0.9006
   72MOL0     C 9629   3.965  10.209   6.905  0.7215 -0.2507  0.1398
   72MOL0    Cl 9630   4.127  10.164   6.988  0.4381 -0.1770 -0.2438
   72MOL0     C 9631   3.264   9.937   6.681  0.0756  0.7837 -0.7719
   72MOL0     C 9632   3.207  10.044   6.744  0.6383 -0.3205 -0.5111
   72MOL0     O 9633   3.055  10.244   6.917 -0.3517 -0.2393  0.7379
   72MOL0     C 9634   2.907  10.466   6.867  0.5562 -0.0291 -0.4520
   72MOL0     C 9635   2.852  10.593   6.849  0.8983  0.7361  0.3036
   72MOL0     N 9636   2.702  10.566   6.513 -0.3474 -0.9986 -0.2635
   72MOL0     N 9637   2.780  10.468   6.540  0.0224  0.3592  1.0099
   72MOL0     C 9638   3.249   9.330   6.048 -0.0863  0.2785  0.4431
   72MOL0     C 9639   3.234   9.189   6.069 -0.1483  0.3882 -0.1859
   72MOL0     C 9640   3.008   8.796   6.200  0.1985  0.0350  0.3104
   72MOL0     C 9641   3.092   8.714   6.118  0.7556 -0.4960  0.4336
   72MOL0     C 9642   3.068   8.579   6.103  0.1491 -0.0131 -0.3958
   72MOL0     C 9643   2.972   8.518   6.173 -0.3910  0.0477 -0.5290
   72MOL0     O 9644   2.978   8.383   6.168  0.0857 -0.5710 -0.2512
   72MOL0     C 9645   2.917   8.302   6.266  0.0495 -0.3302  0.1726
   72MOL0     C 9646   2.788   8.245   6.198  0.3836 -0.3164 -0.1589
   72MOL0     C 9647   2.830   8.152   6.081 -0.4782 -0.7334 -0.1289
   72MOL0     C 9648   2.715   8.114   5.981  1.0325  0.1099 -0.2606
   72MOL0     C 9649   2.777   8.040   5.869  0.6461  0.1469  0.3048
   72MOL0     C 9650   2.830   7.967   5.789 -0.3119 -0.1304  0.5812
   72MOL0     C 9651   2.881   8.598   6.245  0.1636  0.4327  0.2589
   72MOL0     C 9652   2.899   8.733   6.262  0.2463  0.1595  0.0288
   72MOL0     H 9653   2.935   9.193   6.240 -1.8835  1.2016 -1.0830
   72MOL0     H 9654   2.991   9.422   6.253 -1.1698 -0.6618  0.0535
   72MOL0     H 9655   3.039   9.648   6.191  0.6697 -0.1390  0.9279
   72MOL0     H 9656   3.170   9.618   6.307  0.8445 -0.2683 -0.1880
   72MOL0     H 9657   3.310   9.787   6.210 -0.0772 -0.1161  0.4477
   72MOL0     H 9658   3.196   9.804   6.071  0.6574  1.0404 -0.1936
   72MOL0     H 9659   3.017   9.876   6.239  0.9680 -1.1105 -3.7022
   72MOL0     H 9660   3.134   9.874   6.365  1.5559  0.3886 -1.5455
   72MOL0     H 9661   3.275  10.032   6.207 -0.5875 -0.2458 -2.7354
   72MOL0     H 9662   3.126  10.051   6.115 -1.1193  0.4538  0.9243
   72MOL0     H 9663   3.003  10.104   6.327 -0.2299 -0.0500  0.7339
   72MOL0     H 9664   3.149  10.093   6.421 -2.1305  1.5173  0.3928
   72MOL0     H 9665   3.241  10.285   6.378  0.7162  5.1095 -1.4877
   72MOL0     H 9666   3.191  10.294   6.216  0.0309  0.7636  0.7090
   72MOL0     H 9667   3.080  10.474   6.308 -1.0308  1.0532  0.2114
   72MOL0     H 9668   2.956  10.373   6.274  0.4324  1.9552 -0.4789
   72MOL0     H 9669   3.105  10.423   6.526 -0.9631 -0.2618  1.0042
   72MOL0     H 9670   2.970  10.295   6.524  1.7199 -0.7755  1.9994
   72MOL0     H 9671   3.011  10.665   6.444 -0.3988  2.8630  1.9610
   72MOL0     H 9672   2.787  10.822   6.335 -2.6046  4.4497 -1.0008
   72MOL0     H 9673   2.648  10.818   6.447  1.1090 -0.5581  0.8339
   72MOL0     H 9674   2.803  11.010   6.459 -0.3142 -1.5805 -2.2158
   72MOL0     H 9675   2.915  10.909   6.565  0.7763  0.2420 -0.4354
   72MOL0     H 9676   2.614  10.960   6.619  0.0552 -0.5778  0.8559
   72MOL0     H 9677   2.745  11.054   6.658  0.5830  0.0831 -1.9493
   72MOL0     H 9678   2.689  10.758   6.717 -1.8992  1.4799  0.5363
   72MOL0     H 9679   2.701  10.889   6.843  1.6840  0.7760  0.4474
   72MOL0     H 9680   3.121  10.786   6.765  0.0344  0.1568  0.2470
   72MOL0     H 9681   3.300  10.670   6.871 -0.0264  0.4346  1.4742
   72MOL0     H 9682   3.336  10.501   6.839 -1.5392  1.1595  0.9867
   72MOL0     H 9683   3.304  10.586   6.699  1.5675 -3.9817  0.2979
   72MOL0     H 9684   3.378  10.272   6.572  1.2440 -0.9744  0.0497
   72MOL0     H 9685   3.465  10.091   6.462  0.1664  2.9904  1.8949
   72MOL0     H 9686   3.468   9.773   6.727  1.7354  2.2054  0.8507
   72MOL0     H 9687   3.466   9.652   6.594  5.5185 -0.7605 -1.6667
   72MOL0     H 9688   3.702   9.719   6.666  0.3006  1.5816  2.2377
   72MOL0     H 9689   3.670   9.747   6.498  2.0082 -1.9719  1.5379
   72MOL0     H 9690   3.630   9.968   6.719  0.6957 -0.4097  0.0740
   72MOL0     H 9691   3.631   9.988   6.541 -2.0669  0.5925  1.8193
   72MOL0     H 9692   3.876   9.928   6.688  1.0541  0.2124 -0.7273
   72MOL0     H 9693   3.854   9.954   6.512 -0.6740  0.3365 -0.4774
   72MOL0     H 9694   3.765  10.136   6.719 -2.8013 -2.4947 -2.2634
   72MOL0     H 9695   3.783  10.179   6.545 -1.5495 -1.5405 -0.6292
   72MOL0     H 9696   4.032  10.093   6.675 -0.7403 -2.3176 -1.1817
   72MOL0     H 9697   4.013  10.235   6.561 -1.9958  2.3856  0.8700
   72MOL0     H 9698   3.894  10.345   6.741 -1.6763 -0.7715  0.8566
   72MOL0     H 9699   4.064  10.351   6.765 -0.2635  0.2389 -2.1745
   72MOL0     H 9700   3.911  10.114   6.896 -0.2490  0.2916  0.1900
   72MOL0     H 9701   3.908  10.276   6.969  1.1822 -0.9184  1.2915
   72MOL0     H 9702   3.238   9.834   6.705  1.5673 -0.1512 -2.8207
   72MOL0     H 9703   3.129  10.034   6.819  1.1577 -2.4502 -0.1806
   72MOL0     H 9704   2.843  10.378   6.875 -0.2570  0.4864 -1.1627
   72MOL0     H 9705   2.744  10.593   6.856  0.9655  0.3775  1.4609
   72MOL0     H 9706   3.327   9.377   5.988 -2.2430  2.9575 -0.4894
   72MOL0     H 9707   3.310   9.122   6.029  0.2482  0.7436 -0.0382
   72MOL0     H 9708   3.186   8.748   6.074  2.0111 -1.8825  1.8996
   72MOL0     H 9709   3.146   8.520   6.056  1.0994 -2.2469  3.5418
   72MOL0     H 9710   2.990   8.224   6.292  2.0469  1.1788 -0.6189
   72MOL0     H 9711   2.886   8.348   6.360  0.3442  3.9221 -1.5661
   72MOL0     H 9712   2.730   8.327   6.155  0.7756 -0.6051 -1.2796
   72MOL0     H 9713   2.728   8.193   6.272 -0.3860 -0.8964 -1.1680
   72MOL0     H 9714   2.892   8.071   6.118  2.4407  3.0475  4.4614
   72MOL0     H 9715   2.893   8.221   6.023 -1.0107 -0.7415 -0.7323
   72MOL0     H 9716   2.660   8.202   5.946 -0.0711  0.2452  1.6399
   72MOL0     H 9717   2.638   8.071   6.045 -1.8721  6.4802  1.4036
   72MOL0     H 9718   2.890   7.930   5.709  0.0366  0.8190  0.4043
   72MOL0     H 9719   2.805   8.552   6.308 -2.1369  2.2324 -1.0418
   72MOL0     H 9720   2.840   8.786   6.336  1.7124  0.8068  0.7659
   73MOL0     O 9721  10.041  10.767   2.667  1.5532 -1.0232  0.2889
   73MOL0     C 9722  10.067  10.685   2.755  0.8696 -0.2800  0.6832
   73MOL0     O 9723  10.039  10.690   2.890 -0.0709 -0.2555  0.8018
   73MOL0     C 9724   9.958  10.790   2.936  0.1771 -0.2900  0.2557
   73MOL0     C 9725  10.003  10.850   3.059  0.0025  0.3641  0.4928
   73MOL0     C 9726   9.930  10.952   3.110 -0.0148  0.3379  0.0128
   73MOL0     C 9727   9.809  10.997   3.055  0.4467 -0.1751 -0.3897
   73MOL0     O 9728   9.722  11.078   3.124 -0.0347 -0.1402  0.0612
   73MOL0     C 9729   9.732  11.215   3.078 -0.4841  1.2626 -0.2920
   73MOL0     C 9730   9.600  11.274   3.035  0.8252 -0.6048  0.8945
   73MOL0     C 9731   9.611  11.428   2.995 -0.0835  0.7447 -0.2555
   73MOL0     C 9732   9.608  11.453   2.842 -0.0817  0.0805  0.3728
   73MOL0     C 9733   9.738  11.406   2.779 -0.3252 -0.4861 -0.2620
   73MOL0     C 9734   9.734  11.282   2.685 -0.3689 -0.4664 -0.8045
   73MOL0     C 9735   9.880  11.247   2.644 -0.4398  0.0711  0.6658
   73MOL0     C 9736   9.956  11.355   2.565  0.5932 -0.1266  0.2470
   73MOL0     N 9737   9.862  11.386   2.452 -0.3617 -0.1905  0.9516
   73MOL0     C 9738   9.761  11.487   2.424  1.0360  0.5174 -0.7619
   73MOL0     C 9739   9.721  11.451   2.296 -1.3117 -0.3128 -0.4707
   73MOL0     C 9740   9.614  11.520   2.214 -0.9661  0.6000 -0.6845
   73MOL0     C 9741   9.616  11.667   2.206 -0.8669 -0.9102  0.4881
   73MOL0     C 9742   9.495  11.697   2.119 -0.1313 -0.0600 -0.2453
   73MOL0     C 9743   9.465  11.849   2.125 -0.4226 -0.5826  0.2762
   73MOL0     O 9744   9.532  11.926   2.022  0.0111  0.3806 -0.2906
   73MOL0     C 9745   9.472  12.042   1.991 -0.0125  0.3341 -0.1175
   73MOL0     C 9746   9.550  12.121   1.903 -0.4014 -0.5050  0.1034
   73MOL0     C 9747   9.520  12.248   1.863  0.4804  0.0121 -0.0415
   73MOL0     C 9748   9.611  12.323   1.775 -0.6736  0.2151  0.6319
   73MOL0     C 9749   9.393  12.304   1.914 -0.4980  0.0562  0.2817
   73MOL0     C 9750   9.342  12.434   1.878 -0.3262 -0.6626 -0.0849
   73MOL0     O 9751   9.205  12.452   1.897 -0.5383 -0.2363 -0.1906
   73MOL0     C 9752   9.143  12.550   1.827 -0.5169 -0.2976  0.0610
   73MOL0     C 9753   9.087  12.658   1.904  0.1660  0.0342 -0.3933
   73MOL0     C 9754   8.999  12.758   1.856  0.5260  0.3704  0.1178
   73MOL0     C 9755   8.955  12.744   1.719 -1.7560  0.4709  0.4166
   73MOL0     O 9756   8.861  12.831   1.675 -0.6110 -0.0691  0.2640
   73MOL0     C 9757   8.801  12.826   1.536 -0.0584 -0.8080 -0.1227
   73MOL0     C 9758   8.709  12.942   1.514 -0.9622 -0.5103  0.2317
   73MOL0     C 9759   8.654  12.959   1.370 -0.3304 -0.7504 -1.1346
   73MOL0     C 9760   8.539  13.062   1.375  0.1332  0.0563  0.5882
   73MOL0     C 9761   8.483  13.093   1.230 -0.1252  0.9111  0.3331
   73MOL0     C 9762   8.368  13.190   1.220  0.0704 -0.2136 -0.5964
   73MOL0     C 9763   8.406  13.336   1.264  0.9503 -0.1332 -0.7646
   73MOL0     C 9764   8.304  13.393   1.361 -0.0621  0.2633 -0.5527
   73MOL0    Cl 9765   8.145  13.398   1.275 -0.3965 -0.4669  0.8059
   73MOL0     C 9766   8.996  12.625   1.647 -0.3596 -0.0832 -0.2045
   73MOL0     C 9767   9.082  12.529   1.702 -1.5127 -0.6433  0.3679
   73MOL0     O 9768   9.425  12.519   1.836 -0.4745 -0.4145  0.5457
   73MOL0     C 9769   9.324  12.228   2.009 -0.2643  0.6939  1.2421
   73MOL0     C 9770   9.360  12.101   2.043 -0.1683  0.7647  0.2226
   73MOL0     N 9771   9.788  11.345   2.255 -1.0593  0.7841 -0.0224
   73MOL0     N 9772   9.878  11.308   2.343 -0.3978 -0.3742 -0.0656
   73MOL0     C 9773   9.765  10.933   2.944 -0.1763  0.7796 -0.3460
   73MOL0     C 9774   9.834  10.837   2.879  0.4094 -0.0870 -0.8326
   73MOL0     C 9775  10.163  10.586   2.718 -1.1612  0.6384  0.4527
   73MOL0     C 9776  10.202  10.553   2.580 -0.0602 -0.9052  0.1078
   73MOL0     C 9777  10.298  10.455   2.547 -0.8903 -0.1220 -0.4093
   73MOL0     C 9778  10.358  10.382   2.651 -0.6993 -0.8685 -0.2254
   73MOL0     O 9779  10.441  10.283   2.618  0.1560 -0.2302  0.0735
   73MOL0     C 9780  10.459  10.170   2.708  0.9336  0.0915 -0.0773
   73MOL0     C 9781  10.506  10.042   2.625  0.4533  0.3403  0.0872
   73MOL0     C 9782  10.568   9.930   2.706  0.5595  0.0351  0.0355
   73MOL0     C 9783  10.587   9.788   2.651 -0.0102  0.1350  0.6435
   73MOL0     C 9784  10.706   9.719   2.699  0.2787  0.4297  0.4856
   73MOL0     C 9785  10.809   9.666   2.714  0.0823  0.1168  0.3212
   73MOL0     C 9786  10.317  10.408   2.786  0.3770 -0.0556 -1.2373
   73MOL0     C 9787  10.224  10.504   2.820  0.4001 -0.6019 -0.4447
   73MOL0     H 9788  10.095  10.804   3.095  1.2545  0.7680 -1.9409
   73MOL0     H 9789   9.966  10.991   3.205 -0.5745 -0.6088  0.6352
   73MOL0     H 9790   9.766  11.266   3.169  0.3384 -2.1052  1.4537
   73MOL0     H 9791   9.806  11.233   2.999 -1.2651  0.1481 -1.3191
   73MOL0     H 9792   9.561  11.223   2.946 -3.7778  2.1437  1.0314
   73MOL0     H 9793   9.521  11.258   3.109 -0.2972  3.1211  0.6955
   73MOL0     H 9794   9.521  11.472   3.039  0.8499 -1.2897  4.3356
   73MOL0     H 9795   9.694  11.474   3.049 -0.9615 -2.2954  4.2542
   73MOL0     H 9796   9.522  11.420   2.784 -0.9792  2.7350  0.0507
   73MOL0     H 9797   9.592  11.560   2.830 -0.0767  0.1827  1.1737
   73MOL0     H 9798   9.767  11.491   2.716 -0.3842  0.8493  1.4402
   73MOL0     H 9799   9.817  11.389   2.853 -1.0417 -0.5286  0.5072
   73MOL0     H 9800   9.698  11.190   2.732  0.8785 -0.8771 -0.6103
   73MOL0     H 9801   9.672  11.301   2.597 -3.1229  1.3678  1.3847
   73MOL0     H 9802   9.937  11.214   2.731  1.3990  2.8914  0.6395
   73MOL0     H 9803   9.858  11.167   2.572  0.2965  0.5341 -0.0864
   73MOL0     H 9804  10.057  11.324   2.538  0.3575 -0.2213 -0.5408
   73MOL0     H 9805   9.991  11.435   2.631  1.8439  0.3351 -0.9351
   73MOL0     H 9806   9.711  11.569   2.475 -0.9391 -0.4028 -1.1283
   73MOL0     H 9807   9.621  11.483   2.112 -0.9719  2.2070 -1.3103
   73MOL0     H 9808   9.523  11.475   2.255 -1.5225  0.3571 -2.1468
   73MOL0     H 9809   9.711  11.699   2.163 -0.7078 -1.2825  0.5611
   73MOL0     H 9810   9.602  11.712   2.305  0.7418  2.8045 -0.7771
   73MOL0     H 9811   9.403  11.647   2.150  0.3263 -0.5174  0.3990
   73MOL0     H 9812   9.517  11.670   2.015 -1.0280  0.6909 -0.6413
   73MOL0     H 9813   9.481  11.895   2.223 -5.2051  0.9805  0.5591
   73MOL0     H 9814   9.357  11.842   2.111 -0.1522 -2.2096 -1.4208
   73MOL0     H 9815   9.641  12.069   1.877  0.0610  0.4927 -0.3062
   73MOL0     H 9816   9.688  12.264   1.725 -0.1151 -1.0776  2.9071
   73MOL0     H 9817   9.557  12.376   1.696 -3.7704  0.8205  2.9538
   73MOL0     H 9818   9.661  12.401   1.835  2.6044 -1.3265  0.1410
   73MOL0     H 9819   9.116  12.665   2.008 -2.3816 -0.4856  0.4117
   73MOL0     H 9820   8.965  12.838   1.920 -2.6086 -1.3338  0.7730
   73MOL0     H 9821   8.878  12.835   1.460  0.7898 -0.6295  0.7439
   73MOL0     H 9822   8.739  12.737   1.520 -2.4948  0.8848 -0.6950
   73MOL0     H 9823   8.622  12.944   1.580 -1.9246 -0.1949 -1.0011
   73MOL0     H 9824   8.759  13.034   1.546 -3.9437  1.1312  0.5927
   73MOL0     H 9825   8.624  12.857   1.343 -0.2740 -1.1033  0.0703
   73MOL0     H 9826   8.725  13.002   1.299 -0.3412  1.1135 -0.0849
   73MOL0     H 9827   8.459  13.030   1.443  0.4556  0.1649  1.0284
   73MOL0     H 9828   8.575  13.155   1.420 -2.2684  1.8450 -0.9374
   73MOL0     H 9829   8.458  13.001   1.177  1.3825  1.1844 -0.9258
   73MOL0     H 9830   8.562  13.134   1.167 -0.3629  1.4078  0.3531
   73MOL0     H 9831   8.335  13.196   1.116 -1.8464  0.9535  0.0314
   73MOL0     H 9832   8.280  13.155   1.274  1.6771 -2.8874  0.5284
   73MOL0     H 9833   8.421  13.406   1.182 -1.5887  1.3909 -0.0422
   73MOL0     H 9834   8.501  13.333   1.318  0.1532  0.2512  0.7281
   73MOL0     H 9835   8.329  13.494   1.396 -2.2586  0.4567  0.5733
   73MOL0     H 9836   8.291  13.323   1.444 -2.5116 -0.4572 -1.4666
   73MOL0     H 9837   8.948  12.592   1.556  1.0817 -3.0382  0.0054
   73MOL0     H 9838   9.086  12.434   1.648 -4.0809 -0.6719  0.1105
   73MOL0     H 9839   9.233  12.272   2.048 -0.1577  3.5830 -1.4433
   73MOL0     H 9840   9.308  12.051   2.123  2.0772  1.0445  1.9814
   73MOL0     H 9841   9.669  10.946   2.894  0.4437  2.7089 -1.1189
   73MOL0     H 9842   9.783  10.807   2.788  0.7936 -4.7456  0.2712
   73MOL0     H 9843  10.150  10.600   2.497  1.5270 -1.6123 -1.3502
   73MOL0     H 9844  10.329  10.423   2.448 -1.3680 -3.4700  0.4015
   73MOL0     H 9845  10.536  10.199   2.780  0.0340  0.6992  0.6642
   73MOL0     H 9846  10.372  10.142   2.767  1.0445 -1.8216 -0.7451
   73MOL0     H 9847  10.583  10.064   2.550  0.8419 -0.0615  0.3662
   73MOL0     H 9848  10.426  10.006   2.560  1.1024 -3.1889  1.0461
   73MOL0     H 9849  10.508   9.921   2.797  0.4297 -2.1926 -0.2133
   73MOL0     H 9850  10.672   9.960   2.724  0.5158  1.4987 -1.8947
   73MOL0     H 9851  10.598   9.803   2.543 -2.2105  1.7091  0.5712
   73MOL0     H 9852  10.497   9.727   2.664  1.2215 -1.9737 -0.2009
   73MOL0     H 9853  10.904   9.617   2.719  1.3850  2.4728  0.1282
   73MOL0     H 9854  10.367  10.361   2.871 -0.4339  2.6951  0.8933
   73MOL0     H 9855  10.192  10.506   2.923 -1.2275  0.9515 -0.9305
   74MOL0     O 9856   8.594   7.639   3.563 -0.3378  0.2413  0.2909
   74MOL0     C 9857   8.668   7.732   3.515  0.7915  0.5891 -0.2099
   74MOL0     O 9858   8.805   7.754   3.534  0.0720  0.3657 -0.2914
   74MOL0     C 9859   8.859   7.648   3.593  1.4337  0.6880  0.5071
   74MOL0     C 9860   8.850   7.518   3.538  0.6046 -0.1737  0.0974
   74MOL0     C 9861   8.914   7.408   3.609 -0.5975 -1.1248  0.7522
   74MOL0     C 9862   8.974   7.431   3.739 -0.2005  0.5874  0.4709
   74MOL0     O 9863   9.021   7.312   3.796  0.9053  0.0850  0.1334
   74MOL0     C 9864   9.023   7.305   3.938  0.0896 -0.3040  0.6054
   74MOL0     C 9865   9.110   7.186   3.976  0.3410  0.6730  0.7356
   74MOL0     C 9866   9.101   7.053   3.895 -0.3776  0.1834 -0.8284
   74MOL0     C 9867   8.954   7.016   3.863  1.0534  0.6946  0.1730
   74MOL0     C 9868   8.936   6.871   3.813 -0.5403  0.3846 -0.3063
   74MOL0     C 9869   9.035   6.830   3.707 -0.1465  0.4504  0.0825
   74MOL0     C 9870   9.022   6.688   3.663  0.1277 -0.8036  0.3874
   74MOL0     C 9871   9.135   6.652   3.561 -0.5991  0.3927 -0.2369
   74MOL0     N 9872   9.093   6.691   3.424 -0.3615 -0.4059  0.1370
   74MOL0     C 9873   9.163   6.665   3.311 -0.1750 -0.8540 -0.2808
   74MOL0     C 9874   9.083   6.714   3.209  0.1876  1.0598  0.2124
   74MOL0     C 9875   9.124   6.738   3.070 -0.6385 -0.5598 -0.8441
   74MOL0     C 9876   9.151   6.597   3.001  0.1125 -0.5799 -0.6664
   74MOL0     C 9877   9.181   6.626   2.857  0.4221  0.1945  0.0468
   74MOL0     C 9878   9.232   6.498   2.782  0.3045 -0.7137  0.1536
   74MOL0     O 9879   9.110   6.429   2.748  0.7343  0.1556  0.6210
   74MOL0     C 9880   9.096   6.323   2.656 -1.2521 -0.5126 -1.0490
   74MOL0     C 9881   9.198   6.299   2.564 -1.1713  0.0428 -0.5998
   74MOL0     C 9882   9.197   6.195   2.478 -0.1729  1.1988  0.8156
   74MOL0     C 9883   9.303   6.180   2.371  0.4769  0.8908  0.4527
   74MOL0     C 9884   9.087   6.107   2.486  0.7232 -0.3898  0.1663
   74MOL0     C 9885   9.054   5.992   2.392  1.1208  0.0738 -0.4069
   74MOL0     O 9886   9.142   5.925   2.314  0.1030  0.6617 -0.6252
   74MOL0     C 9887   9.089   5.825   2.232  0.6839 -0.4566  0.0602
   74MOL0     C 9888   9.104   5.843   2.098  0.8552  0.5970  0.6043
   74MOL0     C 9889   9.049   5.751   2.008 -0.5972 -0.8221  0.3391
   74MOL0     C 9890   8.979   5.636   2.053  0.4881 -0.2887  0.7989
   74MOL0     O 9891   8.908   5.543   1.971  0.5610  0.2112  0.1972
   74MOL0     C 9892   8.799   5.608   1.909 -0.2828 -0.1021  0.8675
   74MOL0     C 9893   8.791   5.542   1.760  0.4801 -0.1888 -0.2108
   74MOL0     C 9894   8.745   5.396   1.762 -0.7893  0.0781  0.0027
   74MOL0     C 9895   8.686   5.359   1.628  1.0350 -0.4607 -0.4883
   74MOL0     C 9896   8.775   5.382   1.510  0.5818 -1.6095 -1.0324
   74MOL0     C 9897   8.699   5.373   1.385  0.2635 -0.2758 -0.0847
   74MOL0     C 9898   8.779   5.385   1.254 -0.2240  0.1290  0.0156
   74MOL0     C 9899   8.710   5.326   1.136 -0.1552 -1.0869  0.4583
   74MOL0    Cl 9900   8.725   5.148   1.135  0.1763 -0.1771 -0.1334
   74MOL0     C 9901   8.984   5.609   2.188  0.1644 -0.6639 -0.0894
   74MOL0     C 9902   9.034   5.704   2.278  0.4178 -0.5558  0.6226
   74MOL0     O 9903   8.929   5.980   2.379  0.1909 -0.0726  0.3481
   74MOL0     C 9904   8.976   6.142   2.577 -0.1738 -0.8363  0.2239
   74MOL0     C 9905   8.980   6.251   2.656 -0.3177 -0.1456  0.7104
   74MOL0     N 9906   8.964   6.776   3.256  0.6361  0.4248 -0.6043
   74MOL0     N 9907   8.970   6.751   3.388  0.0257  0.3937 -0.4037
   74MOL0     C 9908   8.981   7.559   3.788 -0.7508 -0.0038 -0.0348
   74MOL0     C 9909   8.930   7.669   3.711  0.6312 -0.1038  0.0576
   74MOL0     C 9910   8.599   7.848   3.434 -0.5923  1.0517 -0.1033
   74MOL0     C 9911   8.645   7.984   3.445  0.7665  0.0041  0.2309
   74MOL0     C 9912   8.586   8.082   3.366 -0.6726 -0.8046 -0.2269
   74MOL0     C 9913   8.475   8.043   3.286 -0.1857  0.1595 -0.2489
   74MOL0     O 9914   8.409   8.130   3.206 -0.9704  0.6923 -0.0732
   74MOL0     C 9915   8.370   8.109   3.072  0.5602  0.2460 -0.6346
   74MOL0     C 9916   8.418   8.222   2.982 -0.4642 -0.6997 -0.6456
   74MOL0     C 9917   8.321   8.239   2.869 -0.5400  0.5497  0.2098
   74MOL0     C 9918   8.379   8.315   2.745  0.8741  0.7208 -0.4050
   74MOL0     C 9919   8.486   8.405   2.765 -1.0802  0.8672 -0.3259
   74MOL0     C 9920   8.594   8.468   2.772  0.3374 -0.4021 -0.1790
   74MOL0     C 9921   8.426   7.911   3.282 -0.3961  1.0372 -0.3736
   74MOL0     C 9922   8.496   7.813   3.353  0.4564 -0.4413 -0.7200
   74MOL0     H 9923   8.786   7.490   3.454 -3.1893 -2.7497  3.4650
   74MOL0     H 9924   8.930   7.305   3.579  0.0010 -1.3895  1.9241
   74MOL0     H 9925   9.068   7.398   3.974  1.4517 -0.3309 -0.9164
   74MOL0     H 9926   8.921   7.305   3.980 -2.8306  5.7851 -4.7424
   74MOL0     H 9927   9.215   7.213   3.957  0.5094 -0.3738  0.1185
   74MOL0     H 9928   9.090   7.165   4.081 -1.7574 -4.1788 -0.3638
   74MOL0     H 9929   9.166   7.063   3.808  0.2551 -0.1762 -0.4085
   74MOL0     H 9930   9.147   6.976   3.957 -1.0800 -0.3440 -0.9464
   74MOL0     H 9931   8.883   7.027   3.945  0.2056 -1.2266 -0.2374
   74MOL0     H 9932   8.912   7.081   3.787 -0.0408 -2.1401 -1.8102
   74MOL0     H 9933   8.946   6.806   3.900  1.3495  1.4930  0.3554
   74MOL0     H 9934   8.842   6.858   3.757 -0.3164  0.4193 -0.6926
   74MOL0     H 9935   9.036   6.892   3.617  2.3486  0.6840  0.1975
   74MOL0     H 9936   9.138   6.832   3.743 -0.0753 -2.4312  0.2464
   74MOL0     H 9937   9.041   6.629   3.753 -1.7463  1.4983  2.4329
   74MOL0     H 9938   8.922   6.675   3.620  0.4946 -1.1291 -0.3942
   74MOL0     H 9939   9.163   6.546   3.564 -1.0423  0.2839  0.3854
   74MOL0     H 9940   9.228   6.707   3.580  0.3720 -1.1512 -0.2972
   74MOL0     H 9941   9.263   6.623   3.304  1.8991  2.9759  2.4614
   74MOL0     H 9942   9.043   6.793   3.021 -0.8996  0.5307  0.7366
   74MOL0     H 9943   9.214   6.798   3.054 -0.4284 -1.4136 -3.3698
   74MOL0     H 9944   9.058   6.540   3.000 -0.7832  0.7944  0.2311
   74MOL0     H 9945   9.243   6.561   3.047  0.9314 -0.4394 -2.1266
   74MOL0     H 9946   9.261   6.700   2.845  0.8109 -0.5740 -2.6098
   74MOL0     H 9947   9.094   6.658   2.798 -0.8059 -0.3504  1.4849
   74MOL0     H 9948   9.310   6.435   2.826 -0.5515 -1.5181  0.5439
   74MOL0     H 9949   9.266   6.533   2.684  0.9582 -1.3068  0.1549
   74MOL0     H 9950   9.287   6.361   2.560 -0.8192 -0.4112 -0.0474
   74MOL0     H 9951   9.376   6.261   2.382  1.2952  0.2827 -0.3514
   74MOL0     H 9952   9.348   6.081   2.385  0.0554  0.9073  2.1566
   74MOL0     H 9953   9.256   6.184   2.272  1.9172 -1.8961 -0.4693
   74MOL0     H 9954   9.176   5.916   2.063 -0.3207  0.4004 -2.5647
   74MOL0     H 9955   9.057   5.756   1.900  0.9399  0.8789  0.4715
   74MOL0     H 9956   8.707   5.594   1.966 -0.7584 -0.2211  0.0805
   74MOL0     H 9957   8.816   5.714   1.888 -0.2362 -0.3110 -0.1657
   74MOL0     H 9958   8.724   5.604   1.699  0.1374  0.8303  1.1513
   74MOL0     H 9959   8.888   5.548   1.710  1.0134 -0.1209  0.8043
   74MOL0     H 9960   8.682   5.365   1.846 -0.6015 -1.8176 -0.4956
   74MOL0     H 9961   8.837   5.336   1.764 -0.1752  0.9488 -1.2580
   74MOL0     H 9962   8.673   5.251   1.640 -2.8091 -0.4184 -2.7332
   74MOL0     H 9963   8.590   5.412   1.631  1.4012  0.1941 -0.0708
   74MOL0     H 9964   8.850   5.302   1.502  1.1339 -1.0801 -1.2395
   74MOL0     H 9965   8.819   5.481   1.522 -5.9047  1.5441  1.2700
   74MOL0     H 9966   8.654   5.274   1.375 -0.0386 -0.1804  0.3061
   74MOL0     H 9967   8.620   5.449   1.384 -0.0475 -0.6020 -0.5591
   74MOL0     H 9968   8.871   5.330   1.276 -0.4927 -0.1009  0.5870
   74MOL0     H 9969   8.800   5.491   1.237  0.7120 -0.6284 -5.0363
   74MOL0     H 9970   8.755   5.368   1.045  1.2433 -1.7314  0.8342
   74MOL0     H 9971   8.604   5.354   1.140 -0.1581 -0.7862 -1.1949
   74MOL0     H 9972   8.933   5.522   2.228 -0.9301  0.2884  0.6498
   74MOL0     H 9973   9.006   5.701   2.383 -0.2641 -1.0695  0.4333
   74MOL0     H 9974   8.893   6.074   2.591 -0.7155 -1.3647 -4.0791
   74MOL0     H 9975   8.898   6.278   2.722  0.5336  0.6414  1.4676
   74MOL0     H 9976   9.013   7.602   3.882 -0.6299  3.2270 -1.4478
   74MOL0     H 9977   8.924   7.771   3.747 -5.3525  0.9202 -2.5578
   74MOL0     H 9978   8.739   8.001   3.496  1.1559 -0.4984 -0.3076
   74MOL0     H 9979   8.624   8.184   3.365 -1.2402 -0.5616  1.2351
   74MOL0     H 9980   8.433   8.025   3.043 -0.8093 -1.4335  1.0355
   74MOL0     H 9981   8.265   8.081   3.065  1.7089 -4.7977 -0.9018
   74MOL0     H 9982   8.514   8.201   2.935 -0.5966 -1.9978 -0.3820
   74MOL0     H 9983   8.420   8.315   3.040  2.5346 -1.6001  0.8819
   74MOL0     H 9984   8.235   8.294   2.905 -0.6676 -0.3381  1.3116
   74MOL0     H 9985   8.286   8.143   2.829 -0.6682  1.1868 -1.2660
   74MOL0     H 9986   8.300   8.371   2.695 -0.1258  0.1650  0.5056
   74MOL0     H 9987   8.417   8.238   2.677  0.9191 -1.8879  2.3596
   74MOL0     H 9988   8.693   8.504   2.753  1.9946 -2.8908  2.7606
   74MOL0     H 9989   8.349   7.876   3.214  1.5543  0.8784 -2.5947
   74MOL0     H 9990   8.469   7.709   3.340  2.8543 -1.1580 -0.5164
   75MOL0     O 9991   4.784   7.217   0.650  0.2407  0.3724  0.3966
   75MOL0     C 9992   4.786   7.138   0.549 -0.8445 -0.1660 -0.9241
   75MOL0     O 9993   4.697   7.144   0.452  0.5103  1.0753  0.0010
   75MOL0     C 9994   4.584   7.224   0.466  0.7476  0.4095 -0.2564
   75MOL0     C 9995   4.594   7.360   0.444 -0.4213 -0.5119 -0.5692
   75MOL0     C 9996   4.481   7.434   0.477 -1.2540 -0.8416 -0.3767
   75MOL0     C 9997   4.368   7.379   0.534 -0.0069 -0.2641  0.3747
   75MOL0     O 9998   4.273   7.472   0.555  0.4350  1.1588  0.1881
   75MOL0     C 9999   4.183   7.451   0.664  0.4265 -0.4020  0.4317
   75MOL0     C10000   4.099   7.569   0.661 -0.2521  0.3110  0.5113
   75MOL0     C10001   4.178   7.697   0.695 -0.4691  0.8222 -0.0929
   75MOL0     C10002   4.141   7.744   0.839 -0.4627 -0.1778  0.1052
   75MOL0     C10003   4.190   7.645   0.943  0.4108 -0.4627 -0.5801
   75MOL0     C10004   4.184   7.709   1.083 -0.1604  0.2961  0.5143
   75MOL0     C10005   4.316   7.793   1.100 -0.1581  0.4716  0.2265
   75MOL0     C10006   4.309   7.869   1.235 -0.2753  0.1749 -0.0277
   75MOL0     N10007   4.434   7.946   1.261  0.9311  0.3448 -0.9333
   75MOL0     C10008   4.521   7.926   1.369 -0.0872  0.3698 -0.1002
   75MOL0     C10009   4.585   8.047   1.393  0.6407  0.3631  0.9893
   75MOL0     C10010   4.700   8.056   1.489  0.1875 -0.7559 -0.1183
   75MOL0     C10011   4.819   8.145   1.426  0.0499  0.1788 -0.5026
   75MOL0     C10012   4.914   8.048   1.341  0.2413 -0.1551  0.1864
   75MOL0     C10013   5.031   8.144   1.300 -0.0121  0.8556  0.1656
   75MOL0     O10014   4.970   8.238   1.213 -1.3245 -0.6641 -0.2039
   75MOL0     C10015   5.042   8.320   1.124 -0.4786  1.1351 -0.1694
   75MOL0     C10016   4.968   8.407   1.050 -0.0723 -0.0796 -0.3054
   75MOL0     C10017   5.014   8.505   0.960  1.3494  0.1541  0.8501
   75MOL0     C10018   4.917   8.618   0.918  0.0949 -0.0115 -0.6349
   75MOL0     C10019   5.153   8.511   0.948 -0.3727 -1.2207  0.0163
   75MOL0     C10020   5.224   8.597   0.849  0.0899 -1.1059 -0.2372
   75MOL0     O10021   5.356   8.571   0.827 -0.4857 -0.5728 -0.0398
   75MOL0     C10022   5.433   8.647   0.736  0.7639  0.6306 -1.4435
   75MOL0     C10023   5.513   8.743   0.784 -1.1149 -0.0841 -0.5871
   75MOL0     C10024   5.589   8.825   0.701  0.5530  0.1176  0.2720
   75MOL0     C10025   5.572   8.816   0.555  0.3277 -1.0372 -0.5981
   75MOL0     O10026   5.642   8.907   0.475  0.0346  0.4599  0.5243
   75MOL0     C10027   5.668   8.870   0.334  0.9351  0.0042 -1.3338
   75MOL0     C10028   5.586   8.932   0.218  0.0324  0.0173 -0.1911
   75MOL0     C10029   5.632   9.074   0.232  0.0653 -0.4446  0.4340
   75MOL0     C10030   5.575   9.159   0.119 -0.1352 -0.2909 -0.4317
   75MOL0     C10031   5.643   9.292   0.096  0.3120  0.3462  1.4225
   75MOL0     C10032   5.611   9.401   0.194 -0.1668  0.4905 -0.3577
   75MOL0     C10033   5.674   9.539   0.182  0.0003  0.0999 -0.8657
   75MOL0     C10034   5.645   9.621   0.311 -0.2788  0.5695  0.2007
   75MOL0    Cl10035   5.464   9.662   0.328  0.0219  0.3304 -0.3924
   75MOL0     C10036   5.470   8.729   0.504 -1.0327 -0.5209 -0.3958
   75MOL0     C10037   5.400   8.645   0.593 -1.1033 -0.1089 -0.5354
   75MOL0     O10038   5.157   8.687   0.798 -0.3391 -0.2153  0.0359
   75MOL0     C10039   5.236   8.411   1.021 -0.3106 -0.8360  0.0173
   75MOL0     C10040   5.181   8.327   1.115 -0.2945  0.9224  0.5023
   75MOL0     N10041   4.532   8.133   1.289  0.8575  0.2322  0.3830
   75MOL0     N10042   4.458   8.067   1.204 -0.4910  0.4228 -0.2865
   75MOL0     C10043   4.354   7.238   0.544  0.3917 -0.3489 -0.3126
   75MOL0     C10044   4.470   7.163   0.515  0.8189  0.4972 -0.6920
   75MOL0     C10045   4.900   7.053   0.532  0.0030  0.1566 -0.0495
   75MOL0     C10046   4.943   7.023   0.405 -0.1936  0.7348  0.5725
   75MOL0     C10047   5.024   6.924   0.383 -0.1198  0.6057  0.1800
   75MOL0     C10048   5.065   6.838   0.480 -0.9279  0.6248 -0.6927
   75MOL0     O10049   5.142   6.727   0.433 -0.8645 -0.8256 -0.1784
   75MOL0     C10050   5.203   6.645   0.527 -0.0541  0.6112  0.9447
   75MOL0     C10051   5.119   6.530   0.579  0.4371  0.1443  0.6537
   75MOL0     C10052   5.203   6.463   0.680  0.2375 -0.4331 -0.2397
   75MOL0     C10053   5.136   6.330   0.723 -0.3259  0.5122  0.1774
   75MOL0     C10054   5.227   6.244   0.795  0.0927 -0.2713  0.1501
   75MOL0     C10055   5.301   6.163   0.839 -0.1773 -0.0113 -0.3773
   75MOL0     C10056   5.032   6.871   0.619  0.5101 -0.0034 -0.8784
   75MOL0     C10057   4.945   6.979   0.644 -0.0680  0.4657  1.0172
   75MOL0     H10058   4.687   7.410   0.422  0.0823 -0.4962  1.4132
   75MOL0     H10059   4.485   7.543   0.469 -1.9920 -0.8630 -1.0431
   75MOL0     H10060   4.123   7.361   0.650  0.9332 -0.7505  0.4519
   75MOL0     H10061   4.229   7.443   0.764  0.8631  0.4239  0.3080
   75MOL0     H10062   4.059   7.579   0.560  1.1696 -0.6095 -0.1647
   75MOL0     H10063   4.011   7.552   0.725 -0.1540 -2.1140  0.1084
   75MOL0     H10064   4.286   7.680   0.691 -0.5457  0.1372  0.7071
   75MOL0     H10065   4.144   7.769   0.619 -1.4768  0.9213  0.4361
   75MOL0     H10066   4.189   7.841   0.858 -0.2850 -0.3556  0.5799
   75MOL0     H10067   4.032   7.753   0.845 -0.7661 -0.3520 -3.2207
   75MOL0     H10068   4.116   7.565   0.942  0.2450 -0.3073 -1.0317
   75MOL0     H10069   4.295   7.620   0.930  0.0874 -0.8575 -2.8686
   75MOL0     H10070   4.100   7.778   1.099 -0.4131  0.4090 -1.1364
   75MOL0     H10071   4.188   7.623   1.150  0.5560 -1.2651 -1.4551
   75MOL0     H10072   4.411   7.742   1.080 -0.4291 -0.3616  0.9768
   75MOL0     H10073   4.319   7.874   1.027 -0.7106  1.9555  1.7628
   75MOL0     H10074   4.293   7.813   1.327  1.1107  0.8154  0.6334
   75MOL0     H10075   4.227   7.942   1.232  2.4468  3.5022 -0.1670
   75MOL0     H10076   4.547   7.842   1.433  0.4551 -0.1963 -1.0496
   75MOL0     H10077   4.660   8.102   1.580  1.6086 -0.6847  0.5135
   75MOL0     H10078   4.738   7.957   1.513 -5.2372 -3.2090 -0.2901
   75MOL0     H10079   4.872   8.181   1.514  2.6176 -2.6888 -0.7078
   75MOL0     H10080   4.778   8.227   1.367 -0.5116  0.1272 -0.1891
   75MOL0     H10081   4.859   8.014   1.253  2.3269  0.4329 -1.4321
   75MOL0     H10082   4.957   7.967   1.400  0.0485 -1.9228 -1.9687
   75MOL0     H10083   5.100   8.069   1.261 -0.1229 -0.1160  1.7597
   75MOL0     H10084   5.078   8.193   1.385 -0.3107  0.8955  0.3073
   75MOL0     H10085   4.864   8.415   1.079 -0.5405 -0.9187 -1.6514
   75MOL0     H10086   4.927   8.703   0.986 -4.7247 -1.6120  2.5707
   75MOL0     H10087   4.922   8.651   0.814  0.4152 -0.6395 -0.8281
   75MOL0     H10088   4.813   8.585   0.922  0.3073 -1.0209 -2.2907
   75MOL0     H10089   5.530   8.770   0.888 -1.1844  0.3776 -0.6928
   75MOL0     H10090   5.657   8.900   0.740 -0.1119  0.1070  1.4816
   75MOL0     H10091   5.775   8.887   0.316  0.9953  0.4983 -0.5562
   75MOL0     H10092   5.653   8.762   0.320 -0.1640  0.1606 -1.4396
   75MOL0     H10093   5.600   8.879   0.123 -0.5064 -1.2900  0.4387
   75MOL0     H10094   5.478   8.935   0.233  0.2515 -0.8832  1.9143
   75MOL0     H10095   5.740   9.079   0.217 -0.2385  0.1632 -1.9224
   75MOL0     H10096   5.603   9.103   0.333 -1.7829 -1.4665  0.2544
   75MOL0     H10097   5.580   9.092   0.032 -0.4856 -0.6317 -0.1976
   75MOL0     H10098   5.472   9.180   0.149  0.9853  1.4987  2.5542
   75MOL0     H10099   5.597   9.318   0.001  0.7907  1.5329  1.4955
   75MOL0     H10100   5.750   9.290   0.072 -0.3712  2.9121 -2.8918
   75MOL0     H10101   5.502   9.403   0.190 -0.1614  2.1781 -0.5891
   75MOL0     H10102   5.629   9.358   0.293 -0.4267 -1.1867 -1.0062
   75MOL0     H10103   5.631   9.597   0.101  1.8090  1.1105 -1.1578
   75MOL0     H10104   5.777   9.510   0.157 -0.9600 -4.7248 -0.2691
   75MOL0     H10105   5.694   9.718   0.298 -0.3945  0.8721  1.8496
   75MOL0     H10106   5.690   9.571   0.397  0.2914  2.4947  1.0722
   75MOL0     H10107   5.445   8.727   0.398  0.4584 -0.8945 -0.7698
   75MOL0     H10108   5.322   8.572   0.570 -4.9772  2.1159  3.7990
   75MOL0     H10109   5.344   8.403   1.007  0.2232  0.6844  2.5592
   75MOL0     H10110   5.249   8.259   1.165  0.5865 -0.6238 -2.5378
   75MOL0     H10111   4.260   7.204   0.585 -0.1112  2.3897  0.9889
   75MOL0     H10112   4.450   7.060   0.541 -0.3969  1.1352  1.1610
   75MOL0     H10113   4.900   7.072   0.318 -2.2313 -1.9325 -0.0711
   75MOL0     H10114   5.052   6.893   0.282  4.1371 -2.1947  1.9033
   75MOL0     H10115   5.295   6.607   0.480 -0.7475  0.5079 -0.3853
   75MOL0     H10116   5.240   6.711   0.605 -0.1622  1.3707  0.3632
   75MOL0     H10117   5.087   6.459   0.503 -2.6676  0.6786  1.3222
   75MOL0     H10118   5.028   6.575   0.622  0.8021 -0.1778  1.8190
   75MOL0     H10119   5.226   6.533   0.761 -1.2533  2.6643 -2.2850
   75MOL0     H10120   5.298   6.423   0.643 -0.2076 -3.1381  1.2993
   75MOL0     H10121   5.098   6.265   0.643  2.6076 -0.0098 -0.9482
   75MOL0     H10122   5.054   6.359   0.789 -0.6405  3.8531 -1.5067
   75MOL0     H10123   5.372   6.098   0.885 -2.0253 -0.9642  1.3351
   75MOL0     H10124   5.069   6.804   0.696 -2.0995 -0.2748  0.2193
   75MOL0     H10125   4.923   7.008   0.747  2.8752  1.2821  1.5020
   76MOL0     O10126   1.349   0.571   5.067  0.1311  0.4801 -0.4801
   76MOL0     C10127   1.291   0.468   5.030  0.2223  0.3621 -0.8433
   76MOL0     O10128   1.275   0.354   5.101 -0.7997  0.9105 -0.4754
   76MOL0     C10129   1.330   0.324   5.222  0.9482 -0.0614 -0.1192
   76MOL0     C10130   1.367   0.193   5.250  0.4797  0.4916 -1.1336
   76MOL0     C10131   1.409   0.149   5.380 -0.1493  0.5496 -0.1153
   76MOL0     C10132   1.418   0.247   5.482 -1.0289 -0.0405  0.1022
   76MOL0     O10133   1.445   0.223   5.615 -0.7002 -0.0839 -0.3621
   76MOL0     C10134   1.441   0.099   5.675  0.1196  0.2034 -1.1532
   76MOL0     C10135   1.412   0.107   5.827 -1.3587  0.3049  0.8393
   76MOL0     C10136   1.262   0.144   5.874 -0.1962  0.2826 -0.2867
   76MOL0     C10137   1.155   0.060   5.799 -0.4975 -0.0357  0.1039
   76MOL0     C10138   1.014   0.078   5.868 -1.2609 -0.2183  0.1341
   76MOL0     C10139   0.914  -0.020   5.808  0.5253 -0.4538  0.0870
   76MOL0     C10140   0.775   0.034   5.836  0.7061 -1.5429  1.0595
   76MOL0     C10141   0.742   0.143   5.738 -0.2546  0.2684  0.4849
   76MOL0     N10142   0.641   0.228   5.800 -0.5201  0.0382  0.2861
   76MOL0     C10143   0.519   0.257   5.745  0.4234  0.2598 -0.4448
   76MOL0     C10144   0.467   0.353   5.824 -0.6656 -0.0390 -0.1890
   76MOL0     C10145   0.333   0.415   5.798 -0.2484  0.2601 -0.9359
   76MOL0     C10146   0.335   0.570   5.774 -0.8585  1.6689  0.2364
   76MOL0     C10147   0.204   0.613   5.699 -0.4445 -0.3898 -0.6052
   76MOL0     C10148   0.093   0.639   5.806  0.8161  0.1246  0.6754
   76MOL0     O10149  -0.032   0.698   5.753  0.3384 -0.2355 -0.4909
   76MOL0     C10150  -0.023   0.832   5.722 -0.1590  0.2599 -0.2310
   76MOL0     C10151  -0.028   0.886   5.594  0.5588  0.2258 -0.4292
   76MOL0     C10152  -0.017   1.018   5.563  0.3191  0.7089  0.2941
   76MOL0     C10153  -0.034   1.068   5.416 -0.9447  0.4448 -0.3294
   76MOL0     C10154   0.013   1.117   5.664 -0.0683 -0.0760 -0.0010
   76MOL0     C10155   0.058   1.260   5.619  0.5151 -0.4673 -0.3123
   76MOL0     O10156  -0.026   1.331   5.542 -0.7996 -0.3608 -0.1673
   76MOL0     C10157   0.005   1.459   5.486  0.5217 -0.6402  0.0811
   76MOL0     C10158  -0.093   1.506   5.393  0.1808  0.6185 -0.0975
   76MOL0     C10159  -0.091   1.638   5.346  0.2242 -0.0396 -0.9406
   76MOL0     C10160   0.014   1.728   5.385  0.5150  0.1096 -0.0452
   76MOL0     O10161   0.009   1.849   5.334 -0.0804  0.0873  0.4582
   76MOL0     C10162   0.114   1.944   5.378  0.3248 -0.0077 -0.2187
   76MOL0     C10163   0.030   2.077   5.364 -0.0183 -0.2397 -0.2502
   76MOL0     C10164   0.084   2.196   5.441  0.2992 -0.0065 -0.6025
   76MOL0     C10165   0.024   2.331   5.380  0.0844 -0.1144 -0.4981
   76MOL0     C10166   0.076   2.451   5.454 -0.6188  0.0507 -1.0551
   76MOL0     C10167   0.010   2.575   5.404 -0.0768 -0.3370 -0.3919
   76MOL0     C10168   0.061   2.703   5.474 -0.9690 -0.3070  0.4854
   76MOL0     C10169  -0.027   2.821   5.440 -0.3324 -0.3624  0.2901
   76MOL0    Cl10170  -0.033   2.876   5.271 -0.0545  0.1482 -0.2562
   76MOL0     C10171   0.104   1.683   5.477 -0.0424  0.2190  0.3240
   76MOL0     C10172   0.106   1.552   5.530  0.7004 -0.2764 -0.1309
   76MOL0     O10173   0.175   1.284   5.647 -0.3372 -0.8225  0.9437
   76MOL0     C10174   0.025   1.066   5.796 -0.1439  0.0618 -0.3103
   76MOL0     C10175   0.004   0.928   5.819 -0.3967  0.2725  0.0956
   76MOL0     N10176   0.562   0.396   5.915  0.4867 -0.7940 -0.7276
   76MOL0     N10177   0.666   0.321   5.900  0.1244  0.0549  1.1442
   76MOL0     C10178   1.389   0.377   5.458 -0.6109  0.9005 -0.2343
   76MOL0     C10179   1.348   0.420   5.327  0.2662 -0.6084 -0.6652
   76MOL0     C10180   1.238   0.467   4.896 -0.2034 -0.4799 -0.2174
   76MOL0     C10181   1.200   0.582   4.829  0.1490 -0.4606 -0.0465
   76MOL0     C10182   1.146   0.581   4.703 -0.3539  0.1583 -0.4114
   76MOL0     C10183   1.143   0.461   4.625 -0.2003 -0.3949 -0.0454
   76MOL0     O10184   1.103   0.467   4.496  1.3415 -0.2631 -0.0919
   76MOL0     C10185   1.178   0.401   4.398  0.2036  0.2728 -0.9793
   76MOL0     C10186   1.095   0.392   4.263  0.4194 -0.7583  0.4917
   76MOL0     C10187   1.159   0.323   4.146  0.6487 -0.8134  0.2881
   76MOL0     C10188   1.152   0.173   4.135  0.0959 -0.4178  0.0380
   76MOL0     C10189   1.194   0.142   4.001  0.5105  0.4113 -0.3533
   76MOL0     C10190   1.234   0.111   3.892 -0.1325  0.8140 -0.9519
   76MOL0     C10191   1.178   0.338   4.687 -0.2788 -0.0359  0.6330
   76MOL0     C10192   1.228   0.340   4.822  0.3316  1.1572 -0.5640
   76MOL0     H10193   1.339   0.123   5.172 -5.7376  2.3673 -1.1433
   76MOL0     H10194   1.428   0.045   5.404  1.0393 -0.6741 -5.1571
   76MOL0     H10195   1.361   0.039   5.631 -0.9291  0.6398  0.1064
   76MOL0     H10196   1.540   0.053   5.665 -0.3035 -0.8481 -0.7049
   76MOL0     H10197   1.440   0.012   5.872 -0.7971  0.5829  1.0859
   76MOL0     H10198   1.475   0.184   5.873  1.1434 -2.6260  2.6517
   76MOL0     H10199   1.257   0.108   5.977  0.8269  2.5666  0.6314
   76MOL0     H10200   1.243   0.251   5.860 -3.8900 -0.0182  1.1802
   76MOL0     H10201   1.151   0.093   5.695  1.4796  1.6015  0.4678
   76MOL0     H10202   1.181  -0.046   5.799 -0.0327  0.0738  0.2847
   76MOL0     H10203   1.030   0.043   5.971 -2.7144 -0.3880  0.3187
   76MOL0     H10204   0.978   0.181   5.861  0.8382  0.9105  3.3677
   76MOL0     H10205   0.938  -0.042   5.703  2.0593 -0.8950  0.5017
   76MOL0     H10206   0.923  -0.113   5.865  1.3630  1.0321  2.5217
   76MOL0     H10207   0.702  -0.046   5.821 -1.8850  0.9693 -0.7197
   76MOL0     H10208   0.770   0.075   5.938 -1.0949  3.0584 -0.6301
   76MOL0     H10209   0.703   0.093   5.649  0.0876  2.5482 -1.0584
   76MOL0     H10210   0.826   0.208   5.711  1.2574 -0.5066  3.0502
   76MOL0     H10211   0.458   0.214   5.666 -3.1464  0.0208  2.2008
   76MOL0     H10212   0.290   0.378   5.705  0.9520  2.0506 -2.2708
   76MOL0     H10213   0.268   0.392   5.883  0.3293  1.0995 -0.2461
   76MOL0     H10214   0.414   0.593   5.702 -3.9397  1.1607 -3.6292
   76MOL0     H10215   0.360   0.614   5.871  3.3225  0.4604 -0.0985
   76MOL0     H10216   0.164   0.543   5.626 -0.0830  0.7572 -1.9510
   76MOL0     H10217   0.226   0.707   5.646  0.9712  0.8825  2.0293
   76MOL0     H10218   0.129   0.698   5.891  0.2828  0.6984  0.5074
   76MOL0     H10219   0.075   0.539   5.848  0.7716  0.3077  1.1003
   76MOL0     H10220  -0.027   0.821   5.507 -0.8569  1.8240 -1.7032
   76MOL0     H10221  -0.069   0.990   5.348 -0.0482  0.1038 -0.4198
   76MOL0     H10222  -0.103   1.153   5.411 -3.1175 -1.2905 -1.6406
   76MOL0     H10223   0.065   1.097   5.378  0.8205 -2.0702  1.9961
   76MOL0     H10224  -0.180   1.447   5.365 -1.0799  2.2656  0.1736
   76MOL0     H10225  -0.173   1.680   5.288 -0.3328 -0.5244 -0.5286
   76MOL0     H10226   0.148   1.941   5.483 -1.4523  0.0710  0.3862
   76MOL0     H10227   0.191   1.949   5.300 -1.2475  1.5105 -1.7539
   76MOL0     H10228   0.031   2.111   5.260  1.0000  2.5003  0.5736
   76MOL0     H10229  -0.071   2.051   5.397  0.3949 -1.9297 -0.2150
   76MOL0     H10230   0.193   2.194   5.435  0.3537 -0.6969  0.4585
   76MOL0     H10231   0.038   2.194   5.540  0.1834 -0.4302 -0.6648
   76MOL0     H10232   0.059   2.350   5.278  2.3845  3.1745  0.7313
   76MOL0     H10233  -0.086   2.335   5.383  0.1152  0.1943  0.6553
   76MOL0     H10234   0.184   2.459   5.436  0.0117  0.1444  2.0706
   76MOL0     H10235   0.060   2.447   5.562 -1.2997 -2.8613 -1.1884
   76MOL0     H10236   0.031   2.585   5.297  0.1650  3.4575 -0.1301
   76MOL0     H10237  -0.098   2.567   5.422 -0.4562  0.0767 -2.2948
   76MOL0     H10238   0.162   2.726   5.440  0.0015 -3.8408  0.5715
   76MOL0     H10239   0.063   2.700   5.583  0.8709  0.2823  0.4854
   76MOL0     H10240   0.012   2.910   5.491 -5.7478  3.0384 -0.7382
   76MOL0     H10241  -0.129   2.797   5.472 -1.0971  1.8582 -0.3349
   76MOL0     H10242   0.193   1.736   5.511 -0.2244 -0.0169  1.2025
   76MOL0     H10243   0.175   1.512   5.603 -0.3208 -2.2290 -0.1517
   76MOL0     H10244   0.042   1.136   5.877 -4.2477  1.6263 -0.5359
   76MOL0     H10245   0.011   0.879   5.916 -3.2866  0.2274  0.3790
   76MOL0     H10246   1.409   0.453   5.533  0.3210  0.1974  0.2473
   76MOL0     H10247   1.316   0.522   5.311  1.5565 -0.3560 -1.8085
   76MOL0     H10248   1.218   0.676   4.880 -2.0245 -0.6389  1.1673
   76MOL0     H10249   1.122   0.665   4.639  4.2347 -0.5315 -3.5117
   76MOL0     H10250   1.258   0.469   4.367  1.0091 -1.3171 -2.5834
   76MOL0     H10251   1.218   0.304   4.429  1.1934  0.0566 -2.8091
   76MOL0     H10252   1.053   0.493   4.252 -0.4567 -1.0118  1.3799
   76MOL0     H10253   1.004   0.340   4.295  0.6782 -0.4283  1.8235
   76MOL0     H10254   1.263   0.357   4.142  0.0929  0.8979 -1.9009
   76MOL0     H10255   1.117   0.362   4.053  3.1938 -2.0116 -1.4891
   76MOL0     H10256   1.055   0.126   4.151 -0.6795  0.8538 -0.7696
   76MOL0     H10257   1.211   0.128   4.215 -0.7148 -1.6629 -0.0435
   76MOL0     H10258   1.265   0.097   3.790 -0.4337  0.7237 -1.0317
   76MOL0     H10259   1.162   0.241   4.640  3.9464  1.0800 -3.8912
   76MOL0     H10260   1.251   0.254   4.883 -1.0239 -0.0386 -1.6689
   77MOL0     O10261   3.505   8.748   5.889  0.0013  1.0018 -0.4572
   77MOL0     C10262   3.620   8.727   5.855 -0.3843  1.1724 -0.0949
   77MOL0     O10263   3.727   8.799   5.900 -0.1264  0.2760  0.2128
   77MOL0     C10264   3.696   8.899   5.987 -0.3526 -0.1628 -0.2308
   77MOL0     C10265   3.760   8.905   6.110  0.0085  0.3114 -0.1917
   77MOL0     C10266   3.756   9.033   6.177 -0.3154  0.2859  0.7217
   77MOL0     C10267   3.694   9.146   6.122  0.4471  0.8241  0.3842
   77MOL0     O10268   3.688   9.269   6.178  0.7257  0.6151 -0.5942
   77MOL0     C10269   3.811   9.316   6.231  0.1455 -0.1716  0.1586
   77MOL0     C10270   3.790   9.452   6.268 -0.1119 -0.5366  0.7338
   77MOL0     C10271   3.747   9.542   6.144  0.0270 -0.0376  0.1575
   77MOL0     C10272   3.795   9.679   6.184 -0.0710 -0.4316  0.3657
   77MOL0     C10273   3.729   9.808   6.115  0.1860 -0.1199  0.3232
   77MOL0     C10274   3.780   9.931   6.178 -0.6146 -0.6750  0.6497
   77MOL0     C10275   3.724  10.061   6.125 -0.2638  0.3455  1.0449
   77MOL0     C10276   3.571  10.079   6.164 -0.4090  1.6544  0.1068
   77MOL0     N10277   3.506  10.160   6.050 -0.0028  1.4773 -0.7743
   77MOL0     C10278   3.548  10.288   6.014  0.7126  0.2436 -0.5207
   77MOL0     C10279   3.462  10.327   5.919  0.7465  0.2672  1.0618
   77MOL0     C10280   3.463  10.454   5.835  0.1383 -0.3916 -0.1254
   77MOL0     C10281   3.555  10.437   5.716  0.2138 -0.1003 -0.7079
   77MOL0     C10282   3.569  10.556   5.614  0.1728  0.2626 -0.2176
   77MOL0     C10283   3.560  10.691   5.660 -0.5043 -0.5796  0.2315
   77MOL0     O10284   3.424  10.720   5.681  0.3429  0.3385  0.8409
   77MOL0     C10285   3.369  10.840   5.708 -0.1774  0.0221  0.4313
   77MOL0     C10286   3.245  10.838   5.761  0.2810  0.8206 -0.0878
   77MOL0     C10287   3.170  10.949   5.789  0.0512  0.2729  0.8874
   77MOL0     C10288   3.028  10.926   5.836 -0.2457 -1.0085  0.2155
   77MOL0     C10289   3.226  11.082   5.757 -0.2466  0.3691 -0.5143
   77MOL0     C10290   3.162  11.215   5.759  0.6960  0.0488 -0.0669
   77MOL0     O10291   3.214  11.309   5.677  0.4984  0.2007 -0.5842
   77MOL0     C10292   3.137  11.421   5.645  0.8654 -0.0721 -1.1130
   77MOL0     C10293   3.125  11.450   5.514  0.3705  0.1497  1.1481
   77MOL0     C10294   3.046  11.562   5.479  0.3016 -0.4876  0.4031
   77MOL0     C10295   2.987  11.649   5.576  0.8446  0.0602  0.5433
   77MOL0     O10296   2.927  11.765   5.541  0.4209  0.3648  0.7999
   77MOL0     C10297   2.950  11.888   5.613 -1.3167  0.4466 -0.6293
   77MOL0     C10298   2.872  11.988   5.537 -0.6845  0.1429 -0.0081
   77MOL0     C10299   2.864  12.114   5.625  0.2900 -0.2706  1.5539
   77MOL0     C10300   2.829  12.239   5.542  0.6897 -0.7170 -0.5209
   77MOL0     C10301   2.721  12.327   5.621 -0.5633  0.9293  1.0879
   77MOL0     C10302   2.775  12.376   5.751 -0.3051 -0.9030  0.9749
   77MOL0     C10303   2.671  12.461   5.830  0.5947 -0.4871 -0.4626
   77MOL0     C10304   2.736  12.530   5.945  0.7409 -0.8041  0.5674
   77MOL0    Cl10305   2.787  12.419   6.080 -0.0157  0.2622 -0.1091
   77MOL0     C10306   2.993  11.611   5.711  0.4394 -0.0868 -0.0531
   77MOL0     C10307   3.070  11.498   5.748  0.5456  0.2639 -0.1524
   77MOL0     O10308   3.058  11.218   5.819  0.6940 -0.0096 -1.0573
   77MOL0     C10309   3.360  11.082   5.723 -0.0170 -0.8359  1.1804
   77MOL0     C10310   3.434  10.967   5.696  0.4232  0.4424  0.3203
   77MOL0     N10311   3.382  10.219   5.894 -0.3867  0.2181 -0.1030
   77MOL0     N10312   3.401  10.122   5.974  0.7218  0.0844 -0.3606
   77MOL0     C10313   3.611   9.126   6.014 -0.0687  1.3127  0.3278
   77MOL0     C10314   3.619   9.005   5.944 -0.0879  1.6038  0.4943
   77MOL0     C10315   3.638   8.619   5.759 -0.5071 -0.1978 -0.4647
   77MOL0     C10316   3.762   8.594   5.711 -0.0957  1.1104  0.3361
   77MOL0     C10317   3.790   8.499   5.606 -0.6922  0.3295 -0.8504
   77MOL0     C10318   3.676   8.444   5.551 -0.1976 -0.3017 -0.3671
   77MOL0     O10319   3.676   8.359   5.435  0.5743 -0.4719 -0.2644
   77MOL0     C10320   3.795   8.281   5.393 -0.6112 -0.7585  0.6123
   77MOL0     C10321   3.785   8.140   5.439 -1.0342  0.4904 -1.0028
   77MOL0     C10322   3.686   8.055   5.366  0.2772  0.2086  0.2728
   77MOL0     C10323   3.557   8.049   5.446 -0.2569 -0.0931 -0.3671
   77MOL0     C10324   3.452   7.984   5.363  0.0893  0.1327 -0.3391
   77MOL0     C10325   3.369   7.924   5.301 -0.3781 -0.6079  0.6207
   77MOL0     C10326   3.546   8.473   5.596 -0.5788  0.5925 -0.3786
   77MOL0     C10327   3.531   8.559   5.695  0.5397  0.1461 -0.6856
   77MOL0     H10328   3.820   8.821   6.142  1.7602  1.2845 -0.8092
   77MOL0     H10329   3.824   9.035   6.261  0.1985  1.9643  0.3067
   77MOL0     H10330   3.839   9.260   6.321  0.9718  0.1471  0.1077
   77MOL0     H10331   3.895   9.302   6.162 -1.2018  0.1565 -1.6291
   77MOL0     H10332   3.710   9.454   6.342  2.1269  0.7127  3.2806
   77MOL0     H10333   3.882   9.490   6.314  0.0179 -1.2255  1.0526
   77MOL0     H10334   3.785   9.501   6.050 -0.4076  0.4411 -0.2327
   77MOL0     H10335   3.638   9.534   6.155  0.0929  1.3133  2.6654
   77MOL0     H10336   3.775   9.701   6.289 -1.8840 -0.9510  0.1697
   77MOL0     H10337   3.903   9.692   6.188 -0.4347  4.1142  1.0165
   77MOL0     H10338   3.741   9.800   6.006 -0.0993 -1.3859  0.3664
   77MOL0     H10339   3.620   9.803   6.126 -0.2770  1.3332 -2.6403
   77MOL0     H10340   3.764   9.922   6.286 -0.9012  0.1936  0.6816
   77MOL0     H10341   3.889   9.925   6.166 -0.8340  0.1413 -2.4647
   77MOL0     H10342   3.787  10.143   6.162  1.7866 -0.8128  0.3279
   77MOL0     H10343   3.730  10.069   6.016 -1.0768 -3.1912  0.6290
   77MOL0     H10344   3.572  10.130   6.261 -1.9273  0.7009  0.6504
   77MOL0     H10345   3.521   9.983   6.177  2.8404  0.0114  1.5244
   77MOL0     H10346   3.639  10.344   6.035  0.6568 -0.1347  0.8844
   77MOL0     H10347   3.361  10.466   5.797 -0.5198  1.0890  1.9143
   77MOL0     H10348   3.485  10.541   5.898  0.5885 -2.3607  2.6363
   77MOL0     H10349   3.529  10.341   5.671 -2.8745  0.3176 -0.0408
   77MOL0     H10350   3.658  10.416   5.747 -0.1966 -1.9502 -0.5094
   77MOL0     H10351   3.493  10.544   5.536 -0.4186  1.5585  0.1362
   77MOL0     H10352   3.668  10.550   5.568 -0.2467  1.9604 -1.4872
   77MOL0     H10353   3.598  10.751   5.576 -1.2616 -0.3684  0.0290
   77MOL0     H10354   3.625  10.706   5.747 -0.0432 -1.6511  0.0921
   77MOL0     H10355   3.200  10.740   5.777 -1.0661  1.7914  2.8457
   77MOL0     H10356   2.970  10.995   5.775  4.5973  3.2193 -0.2849
   77MOL0     H10357   2.987  10.825   5.836 -1.9763 -0.3495  0.8564
   77MOL0     H10358   3.021  10.970   5.936  2.7127  3.7548 -1.3053
   77MOL0     H10359   3.152  11.386   5.431 -3.1807  2.0409 -1.7726
   77MOL0     H10360   3.051  11.585   5.373 -0.2776 -1.3860  0.1688
   77MOL0     H10361   2.901  11.868   5.709  1.2828 -1.5562  0.4123
   77MOL0     H10362   3.057  11.907   5.622 -0.5315 -3.4261  0.4387
   77MOL0     H10363   2.929  12.021   5.449  0.4067  1.2931  1.0949
   77MOL0     H10364   2.766  11.967   5.524 -0.3081 -1.9891 -0.1082
   77MOL0     H10365   2.962  12.138   5.667  0.3485  0.5846  0.9493
   77MOL0     H10366   2.788  12.100   5.703  1.5147  0.2060  2.8652
   77MOL0     H10367   2.920  12.296   5.521  0.2914  1.5532  3.1248
   77MOL0     H10368   2.780  12.215   5.447  0.2816 -1.4351 -0.1331
   77MOL0     H10369   2.639  12.256   5.634  0.7362 -0.5467  1.5096
   77MOL0     H10370   2.685  12.412   5.562 -0.4255 -0.3463 -0.9313
   77MOL0     H10371   2.809  12.297   5.818 -0.4531  0.6961  3.0284
   77MOL0     H10372   2.866  12.430   5.723 -1.8602  0.1166 -2.7256
   77MOL0     H10373   2.595  12.392   5.867 -1.0194  0.9926 -0.9201
   77MOL0     H10374   2.620  12.540   5.775  4.0095  0.2230 -2.9801
   77MOL0     H10375   2.669  12.602   5.993  0.4668 -2.8975  3.5817
   77MOL0     H10376   2.826  12.586   5.914  0.9414 -0.5981  1.4744
   77MOL0     H10377   2.960  11.680   5.788 -0.4819 -0.8469  0.2435
   77MOL0     H10378   3.082  11.462   5.850  0.4529 -0.5172 -0.4140
   77MOL0     H10379   3.421  11.171   5.728 -1.2094  0.0433  0.4841
   77MOL0     H10380   3.536  10.975   5.660 -0.6726  0.8567 -3.1179
   77MOL0     H10381   3.539   9.200   5.982 -3.5888 -1.5604  0.9269
   77MOL0     H10382   3.576   9.003   5.844  0.4057  1.1698  0.2847
   77MOL0     H10383   3.848   8.651   5.746 -0.3908  1.9064 -0.1991
   77MOL0     H10384   3.890   8.484   5.566  0.7197  0.8789  2.1842
   77MOL0     H10385   3.805   8.293   5.284  3.9334  0.3367  0.9352
   77MOL0     H10386   3.892   8.317   5.429  0.5174 -0.8316 -2.0467
   77MOL0     H10387   3.762   8.140   5.546 -0.5849 -0.0783 -0.9048
   77MOL0     H10388   3.881   8.090   5.423 -2.4393 -1.6505 -3.5488
   77MOL0     H10389   3.717   7.952   5.347 -3.6850 -1.1897  0.5061
   77MOL0     H10390   3.658   8.111   5.276  0.8460  0.6520  0.3659
   77MOL0     H10391   3.529   8.147   5.488 -1.2053 -0.8328  0.7864
   77MOL0     H10392   3.589   7.990   5.532  3.9819  1.6299 -0.5258
   77MOL0     H10393   3.285   7.870   5.263 -1.3419  2.3960 -1.9525
   77MOL0     H10394   3.460   8.428   5.547  0.0533 -1.0095 -0.0615
   77MOL0     H10395   3.434   8.590   5.733  1.0492  1.0493 -0.0789
   78MOL0     O10396   5.898   8.725   3.619  0.3391  0.3198  0.6840
   78MOL0     C10397   6.022   8.739   3.622  1.0555 -0.6769  0.0399
   78MOL0     O10398   6.107   8.711   3.515  0.1410  0.5724 -0.8519
   78MOL0     C10399   6.053   8.674   3.398  0.0948  0.3356 -0.1221
   78MOL0     C10400   6.095   8.738   3.284  0.7913  0.5098 -1.2540
   78MOL0     C10401   6.052   8.703   3.155  1.0057 -0.5302  0.3031
   78MOL0     C10402   5.971   8.591   3.151 -0.0117 -0.5839 -0.3619
   78MOL0     O10403   5.929   8.550   3.029 -0.7322  0.1280 -0.1337
   78MOL0     C10404   6.030   8.559   2.925  0.0976 -0.0708 -0.2458
   78MOL0     C10405   5.965   8.514   2.799 -0.5421 -0.1763 -0.1009
   78MOL0     C10406   6.028   8.557   2.669 -0.2330 -1.1942  0.5479
   78MOL0     C10407   6.077   8.450   2.572  0.4688 -0.8840 -0.3551
   78MOL0     C10408   5.982   8.416   2.450 -0.2958 -0.0094 -0.0297
   78MOL0     C10409   6.039   8.310   2.363  0.0984  0.4686  0.2812
   78MOL0     C10410   5.958   8.290   2.235  0.5225  1.3767  0.3286
   78MOL0     C10411   5.924   8.419   2.148  0.6030  0.2088  0.0858
   78MOL0     N10412   5.860   8.383   2.016  0.0242 -0.4903 -0.0671
   78MOL0     C10413   5.736   8.358   1.984 -0.0071  0.0145 -0.2526
   78MOL0     C10414   5.740   8.319   1.852 -0.4676 -0.4604  0.1513
   78MOL0     C10415   5.622   8.275   1.766 -0.1500 -1.1933 -0.0801
   78MOL0     C10416   5.597   8.354   1.640 -0.2568  0.5143  0.2418
   78MOL0     C10417   5.545   8.270   1.521  0.1296  0.0566 -0.1838
   78MOL0     C10418   5.450   8.154   1.540 -0.4735  0.2557  0.2606
   78MOL0     O10419   5.330   8.191   1.604  0.5073 -0.3304 -0.1419
   78MOL0     C10420   5.243   8.085   1.625 -0.2101  0.1679 -0.5825
   78MOL0     C10421   5.124   8.107   1.683 -0.5441  0.1507  1.2120
   78MOL0     C10422   5.031   8.010   1.723  0.5493  0.2439  0.6967
   78MOL0     C10423   4.899   8.047   1.792 -0.3269 -0.5199 -1.1152
   78MOL0     C10424   5.060   7.870   1.690 -0.6643 -0.1033 -1.7669
   78MOL0     C10425   4.970   7.749   1.707 -0.0530 -0.9425 -0.0917
   78MOL0     O10426   5.017   7.626   1.673 -0.5157 -0.2504  0.1061
   78MOL0     C10427   4.963   7.500   1.712  1.2997  0.7187  0.1628
   78MOL0     C10428   4.821   7.470   1.687  0.3778 -0.6686 -0.0813
   78MOL0     C10429   4.763   7.354   1.735  0.4126 -0.0829 -0.4282
   78MOL0     C10430   4.845   7.260   1.804  0.9034 -0.0791  0.4085
   78MOL0     O10431   4.800   7.143   1.864  0.4550 -0.7800 -0.1196
   78MOL0     C10432   4.661   7.118   1.867  0.0292  0.6230  0.2185
   78MOL0     C10433   4.646   6.987   1.960  0.2207 -1.2056  0.6250
   78MOL0     C10434   4.549   6.898   1.904  0.1923 -0.0291  0.5041
   78MOL0     C10435   4.555   6.760   1.966 -0.3033 -0.0406 -0.0415
   78MOL0     C10436   4.492   6.644   1.890 -0.4983 -0.4746  0.3514
   78MOL0     C10437   4.340   6.659   1.890 -0.6357  0.3203  0.2669
   78MOL0     C10438   4.253   6.557   1.811 -0.2973  0.8474 -0.0144
   78MOL0     C10439   4.106   6.593   1.797 -0.5714 -0.0707 -1.1347
   78MOL0    Cl10440   4.051   6.616   1.970 -0.4028  0.0551  0.1576
   78MOL0     C10441   4.985   7.293   1.823  0.6603  0.7548  0.6103
   78MOL0     C10442   5.049   7.406   1.771 -0.1332 -0.1317 -0.2893
   78MOL0     O10443   4.859   7.771   1.763 -0.1318 -0.0898  0.4817
   78MOL0     C10444   5.185   7.842   1.638 -0.3890  0.1259  0.4405
   78MOL0     C10445   5.276   7.948   1.611  0.6413  0.8222 -0.6037
   78MOL0     N10446   5.868   8.322   1.809  0.6642 -0.9046  0.4558
   78MOL0     N10447   5.940   8.351   1.905  0.1118 -0.7649 -0.1825
   78MOL0     C10448   5.917   8.525   3.269 -0.4817 -0.5585  0.4028
   78MOL0     C10449   5.965   8.558   3.393  0.1507  0.2744  0.9113
   78MOL0     C10450   6.061   8.810   3.738 -0.4329  0.5225  0.3526
   78MOL0     C10451   6.190   8.789   3.787  0.7438  0.2424 -0.1589
   78MOL0     C10452   6.227   8.864   3.900 -0.7868  0.5266 -1.0755
   78MOL0     C10453   6.137   8.941   3.974  0.8712 -0.2886 -0.4721
   78MOL0     O10454   6.161   8.991   4.104  0.9298  0.2001 -0.1664
   78MOL0     C10455   6.277   9.081   4.106  1.0741  0.0734  0.4840
   78MOL0     C10456   6.253   9.204   4.012 -0.5194 -0.1154 -0.2235
   78MOL0     C10457   6.379   9.300   4.022  0.1964  0.3945  0.1224
   78MOL0     C10458   6.359   9.438   3.963 -0.5536  0.0510  0.1877
   78MOL0     C10459   6.478   9.514   3.991 -0.3521 -0.1625  0.2525
   78MOL0     C10460   6.568   9.581   4.027  0.6703  0.2461 -0.1993
   78MOL0     C10461   6.008   8.964   3.928 -0.8740  0.4102  0.5041
   78MOL0     C10462   5.979   8.906   3.808  0.5558  0.0141 -0.4117
   78MOL0     H10463   6.167   8.819   3.294  2.0446 -0.7829  1.0527
   78MOL0     H10464   6.098   8.755   3.071  1.3814  1.6887  1.7964
   78MOL0     H10465   6.062   8.663   2.911 -1.2485  0.3719 -0.1781
   78MOL0     H10466   6.108   8.486   2.946  1.0267  0.7601 -0.7635
   78MOL0     H10467   5.958   8.405   2.794  3.6866 -0.6989  1.2506
   78MOL0     H10468   5.861   8.547   2.798 -0.7907 -0.9400 -1.1983
   78MOL0     H10469   5.959   8.625   2.618  2.9077  1.0435 -0.9962
   78MOL0     H10470   6.112   8.623   2.692 -1.8154  1.3458 -0.4890
   78MOL0     H10471   6.170   8.497   2.541  0.2409  1.8216  2.5419
   78MOL0     H10472   6.096   8.362   2.635 -3.0452 -2.2510 -0.9630
   78MOL0     H10473   5.875   8.402   2.467 -0.9338  2.8126 -1.2612
   78MOL0     H10474   5.984   8.512   2.398 -2.0227 -0.2040 -0.5015
   78MOL0     H10475   6.143   8.342   2.347  0.0630  2.0543  2.7324
   78MOL0     H10476   6.045   8.213   2.413 -4.9675 -0.2759 -0.0757
   78MOL0     H10477   6.014   8.225   2.167  0.7848  1.4392  0.4807
   78MOL0     H10478   5.854   8.259   2.248 -0.0049  3.3121  1.1388
   78MOL0     H10479   6.015   8.478   2.131  0.6836 -0.1606 -0.7891
   78MOL0     H10480   5.855   8.479   2.208 -0.8471 -1.4214  0.1099
   78MOL0     H10481   5.653   8.369   2.053  0.6832  1.5845  0.3884
   78MOL0     H10482   5.657   8.177   1.731  2.3905 -2.6924  5.4170
   78MOL0     H10483   5.529   8.261   1.821  0.2691  2.1857  1.7761
   78MOL0     H10484   5.684   8.415   1.616 -0.7692  1.2963  0.3461
   78MOL0     H10485   5.512   8.419   1.663  0.5926  1.5719  0.4846
   78MOL0     H10486   5.633   8.220   1.478 -0.4246 -1.3574  0.2670
   78MOL0     H10487   5.506   8.339   1.446  0.4675  2.4323  1.6921
   78MOL0     H10488   5.507   8.072   1.583 -0.5288 -0.4150 -0.9035
   78MOL0     H10489   5.431   8.119   1.438  1.1570  0.0852 -0.0165
   78MOL0     H10490   5.119   8.212   1.711 -0.5292  0.7249 -0.7946
   78MOL0     H10491   4.886   8.155   1.805  2.4294 -0.1092 -1.0884
   78MOL0     H10492   4.805   8.015   1.748 -0.8270 -1.2327  0.3775
   78MOL0     H10493   4.911   7.994   1.887  0.4489  0.9236 -0.3618
   78MOL0     H10494   4.760   7.541   1.632  4.3097  1.0343 -2.6752
   78MOL0     H10495   4.661   7.329   1.709  0.0580 -0.5676  1.3009
   78MOL0     H10496   4.610   7.203   1.912 -0.3326  0.5018  0.0393
   78MOL0     H10497   4.619   7.105   1.767 -2.7209 -0.8273  1.4474
   78MOL0     H10498   4.738   6.928   1.971  1.0128 -0.6521 -2.1622
   78MOL0     H10499   4.614   7.021   2.058  1.6556  0.2430  0.6433
   78MOL0     H10500   4.555   6.896   1.795  5.1124 -2.6487  0.5248
   78MOL0     H10501   4.451   6.937   1.931 -0.2737 -0.1784 -0.8900
   78MOL0     H10502   4.659   6.727   1.978  0.0352  0.4586 -1.4057
   78MOL0     H10503   4.518   6.761   2.068  0.7082  1.1124  0.3347
   78MOL0     H10504   4.512   6.551   1.944 -0.3916 -0.9445 -0.4906
   78MOL0     H10505   4.540   6.643   1.792  0.6947 -3.6433  0.8525
   78MOL0     H10506   4.311   6.637   1.994  1.4404 -2.3164  0.4094
   78MOL0     H10507   4.311   6.761   1.863 -0.8077  0.6246  1.5357
   78MOL0     H10508   4.275   6.465   1.866 -0.2946  1.8795  1.7983
   78MOL0     H10509   4.297   6.555   1.711  0.1894  1.3551  0.1847
   78MOL0     H10510   4.052   6.508   1.754  1.9996 -1.0472 -2.7218
   78MOL0     H10511   4.094   6.683   1.736 -1.7774  0.4905 -0.1014
   78MOL0     H10512   5.051   7.217   1.863  2.4800  0.9293 -1.8195
   78MOL0     H10513   5.155   7.424   1.771  0.2747 -2.1995  0.7595
   78MOL0     H10514   5.219   7.740   1.625  0.4444  0.6210 -1.6996
   78MOL0     H10515   5.375   7.910   1.590  0.7486  0.4715  0.5138
   78MOL0     H10516   5.831   8.462   3.244 -0.0584 -0.9292 -0.1471
   78MOL0     H10517   5.917   8.512   3.478 -2.7876  0.9939 -0.2201
   78MOL0     H10518   6.245   8.706   3.744  2.1027 -0.3682  2.5023
   78MOL0     H10519   6.329   8.849   3.935 -1.1474 -0.3925 -0.3630
   78MOL0     H10520   6.295   9.106   4.211 -3.9068  2.9134  0.9808
   78MOL0     H10521   6.368   9.031   4.072  1.7636  0.2996  1.9201
   78MOL0     H10522   6.163   9.262   4.034 -1.0896 -1.6482  1.8903
   78MOL0     H10523   6.240   9.177   3.907 -1.1466  0.4718 -0.3012
   78MOL0     H10524   6.469   9.250   3.984 -0.6563 -2.2698  1.3553
   78MOL0     H10525   6.392   9.317   4.129 -1.8737  0.7335  0.3545
   78MOL0     H10526   6.267   9.482   4.001 -0.2630  2.7239 -1.8366
   78MOL0     H10527   6.343   9.442   3.854  2.8229  0.6819 -0.4099
   78MOL0     H10528   6.649   9.635   4.072 -0.9094  1.5839  1.1865
   78MOL0     H10529   5.948   9.027   3.993  0.9371  1.4087  1.2821
   78MOL0     H10530   5.875   8.910   3.780  0.5862 -0.2321 -0.5643
   79MOL0     O10531   3.713   6.950   1.244 -0.5074 -0.4766 -0.0290
   79MOL0     C10532   3.641   6.928   1.150 -0.9514  0.1840 -0.2698
   79MOL0     O10533   3.660   6.842   1.045 -0.2835 -0.3542 -0.1197
   79MOL0     C10534   3.745   6.736   1.067 -0.1336 -0.6306 -0.2029
   79MOL0     C10535   3.878   6.755   1.013 -0.1689  0.1377 -0.0052
   79MOL0     C10536   3.983   6.668   1.049  0.6460 -0.2515  0.2104
   79MOL0     C10537   3.954   6.551   1.128 -0.9162 -0.6439 -0.2109
   79MOL0     O10538   4.045   6.454   1.176  0.5684 -0.1406  0.1118
   79MOL0     C10539   4.178   6.496   1.167  0.9833  0.7593  1.1066
   79MOL0     C10540   4.224   6.455   1.026  0.2863 -0.5688 -0.0381
   79MOL0     C10541   4.252   6.301   1.011 -0.3456 -0.4567 -0.7942
   79MOL0     C10542   4.386   6.251   1.070 -0.7537  0.3588 -0.2643
   79MOL0     C10543   4.416   6.098   1.054 -0.4141 -1.3478 -0.3626
   79MOL0     C10544   4.415   6.045   0.903  0.1213  0.3126 -0.2848
   79MOL0     C10545   4.498   6.138   0.803 -0.0909  0.4710  0.0894
   79MOL0     C10546   4.537   6.053   0.672 -0.0580 -0.5626  0.4337
   79MOL0     N10547   4.642   6.136   0.614 -0.6126  0.3238 -0.5304
   79MOL0     C10548   4.623   6.248   0.539 -0.2020  0.3231  0.9592
   79MOL0     C10549   4.747   6.276   0.493  0.6895  0.5188  0.4038
   79MOL0     C10550   4.770   6.381   0.393 -0.4155 -0.1438  0.5325
   79MOL0     C10551   4.742   6.350   0.251 -0.1856  0.1890  0.8759
   79MOL0     C10552   4.594   6.342   0.204 -0.3030  0.0188  1.0013
   79MOL0     C10553   4.597   6.305   0.056 -0.0062 -0.0979  0.1530
   79MOL0     O10554   4.643   6.172   0.041  0.1602 -0.1573 -0.2129
   79MOL0     C10555   4.545   6.072   0.040  0.1070  0.1524  1.2862
   79MOL0     C10556   4.466   6.047  -0.074  1.0709  0.0228 -0.0801
   79MOL0     C10557   4.368   5.936  -0.078 -0.7562  1.2764  0.6180
   79MOL0     C10558   4.281   5.911  -0.203  0.4087 -0.4313  0.9077
   79MOL0     C10559   4.381   5.842   0.025  0.3111  0.0335  0.4328
   79MOL0     C10560   4.287   5.721   0.043 -0.1465 -0.5880 -0.5825
   79MOL0     O10561   4.343   5.628   0.122  0.2375  0.2346 -0.2866
   79MOL0     C10562   4.283   5.505   0.147  0.2787  0.0042  0.1361
   79MOL0     C10563   4.221   5.486   0.269 -0.1534  0.9168  0.1602
   79MOL0     C10564   4.156   5.368   0.302  0.8121  0.1040  0.8106
   79MOL0     C10565   4.137   5.271   0.204  0.1681  0.2522  0.5448
   79MOL0     O10566   4.060   5.165   0.234  0.3143 -0.5694  0.5263
   79MOL0     C10567   3.999   5.079   0.133  0.1059  0.0657  0.2608
   79MOL0     C10568   3.906   4.979   0.196 -1.0936  0.7109 -0.3287
   79MOL0     C10569   3.763   5.021   0.235  0.2619  0.1559 -0.0200
   79MOL0     C10570   3.667   5.000   0.115 -0.1115 -0.1844  1.8125
   79MOL0     C10571   3.545   5.082   0.114 -0.5620  0.3293 -0.1393
   79MOL0     C10572   3.428   5.039   0.202 -0.1039 -0.0948 -0.3821
   79MOL0     C10573   3.304   5.126   0.167  0.5774 -0.1278  0.2840
   79MOL0     C10574   3.171   5.072   0.219  0.1999 -0.1776  0.4984
   79MOL0    Cl10575   3.033   5.184   0.170 -0.1098  0.0527  0.0817
   79MOL0     C10576   4.167   5.307   0.069 -0.5453 -0.2689 -0.2355
   79MOL0     C10577   4.245   5.420   0.045 -0.5676  0.2867 -0.4428
   79MOL0     O10578   4.183   5.709  -0.021  0.7600 -0.1267  0.4878
   79MOL0     C10579   4.467   5.861   0.134  0.1090  0.1138  0.6445
   79MOL0     C10580   4.548   5.978   0.143  1.0175  0.5604 -0.2880
   79MOL0     N10581   4.833   6.179   0.546  0.3581  0.4141 -0.0941
   79MOL0     N10582   4.769   6.097   0.624 -0.0233 -0.0200  0.3247
   79MOL0     C10583   3.818   6.536   1.170 -0.9863 -0.2720 -0.3789
   79MOL0     C10584   3.717   6.620   1.139  0.4749  0.0745 -0.2237
   79MOL0     C10585   3.510   7.007   1.144  0.2269 -0.4918  0.1512
   79MOL0     C10586   3.498   7.131   1.195 -1.0355 -0.2789 -0.0428
   79MOL0     C10587   3.389   7.207   1.172 -0.0340  0.7194 -0.1431
   79MOL0     C10588   3.277   7.159   1.106 -0.4127  0.6871  0.3148
   79MOL0     O10589   3.166   7.236   1.094  0.5210  0.1389  0.4312
   79MOL0     C10590   3.165   7.339   0.996 -0.6643  0.5587  0.2642
   79MOL0     C10591   3.027   7.381   0.945 -0.1373  0.1904  0.1735
   79MOL0     C10592   2.958   7.477   1.034  0.1710 -0.2046 -0.1151
   79MOL0     C10593   2.816   7.494   0.975  1.2117 -0.1240 -0.0672
   79MOL0     C10594   2.734   7.596   1.045 -0.0707  0.2740  0.0879
   79MOL0     C10595   2.660   7.679   1.096  0.4196 -0.3169  0.6565
   79MOL0     C10596   3.281   7.026   1.053  1.0489 -0.4834 -0.4388
   79MOL0     C10597   3.400   6.959   1.066  0.1945 -0.4613 -0.2191
   79MOL0     H10598   3.887   6.848   0.957 -3.6806  2.0405  2.1990
   79MOL0     H10599   4.084   6.686   1.014  1.2597  0.4316  2.2270
   79MOL0     H10600   4.199   6.602   1.186 -0.6505  1.0396  1.4609
   79MOL0     H10601   4.238   6.440   1.239 -1.2672 -2.2644  0.8134
   79MOL0     H10602   4.142   6.473   0.956 -1.6169 -1.2721  1.8928
   79MOL0     H10603   4.303   6.511   0.975 -0.8047  1.7428  0.6663
   79MOL0     H10604   4.170   6.251   1.065  0.2924 -0.0998  0.5576
   79MOL0     H10605   4.251   6.274   0.905 -1.1195  1.0476 -1.2107
   79MOL0     H10606   4.464   6.308   1.019  1.9340  1.5141  4.5014
   79MOL0     H10607   4.395   6.282   1.174 -0.3886  0.3847 -0.3012
   79MOL0     H10608   4.513   6.078   1.100 -0.6882  0.5040  1.1088
   79MOL0     H10609   4.341   6.044   1.112 -0.2562 -1.6880 -0.4676
   79MOL0     H10610   4.466   5.949   0.908  1.5225  1.0651  0.6980
   79MOL0     H10611   4.317   6.031   0.855  0.6124 -1.4830 -0.8223
   79MOL0     H10612   4.442   6.227   0.773  0.7251  2.1800  3.1668
   79MOL0     H10613   4.594   6.155   0.852  0.4648 -1.5247 -0.1886
   79MOL0     H10614   4.447   6.049   0.610 -1.8927 -1.1535  2.9822
   79MOL0     H10615   4.577   5.955   0.697  0.3024  0.1247  2.8084
   79MOL0     H10616   4.531   6.294   0.503  0.4641 -1.9469 -4.7366
   79MOL0     H10617   4.718   6.474   0.417  0.8043  0.9991 -1.0138
   79MOL0     H10618   4.875   6.411   0.402 -0.1032  0.0541 -2.5608
   79MOL0     H10619   4.792   6.254   0.234  0.5684  0.8705 -1.0209
   79MOL0     H10620   4.783   6.430   0.189  0.7527 -0.3843  0.7346
   79MOL0     H10621   4.551   6.441   0.214  5.9386  3.5610 -1.4662
   79MOL0     H10622   4.531   6.268   0.254  0.9488 -1.6377  0.2346
   79MOL0     H10623   4.654   6.373  -0.009 -0.1861  3.6040  3.4371
   79MOL0     H10624   4.497   6.319   0.014  1.2589 -2.8445 -4.5060
   79MOL0     H10625   4.462   6.102  -0.168 -0.8869 -2.1344 -1.3574
   79MOL0     H10626   4.301   5.967  -0.295 -0.6704 -2.6993 -0.7862
   79MOL0     H10627   4.291   5.813  -0.250  3.1009  0.0817  0.2414
   79MOL0     H10628   4.173   5.919  -0.182  0.1207  0.2935 -0.7092
   79MOL0     H10629   4.231   5.567   0.340  1.0274  1.0347 -0.1190
   79MOL0     H10630   4.103   5.358   0.396  2.4097  1.0027  1.8435
   79MOL0     H10631   3.950   5.141   0.057  1.0040 -2.1442 -2.3286
   79MOL0     H10632   4.076   5.022   0.080  0.6001  0.2054  0.8166
   79MOL0     H10633   3.909   4.899   0.122  0.3835 -1.3639  1.8319
   79MOL0     H10634   3.955   4.948   0.289 -3.5996 -1.1181  0.5027
   79MOL0     H10635   3.762   5.127   0.262  0.9777 -0.1858  1.4494
   79MOL0     H10636   3.728   4.977   0.329 -0.0919  3.7099  1.6660
   79MOL0     H10637   3.713   5.017   0.017  1.0297  1.7176  2.6230
   79MOL0     H10638   3.639   4.894   0.119 -1.6874  0.0001 -1.0214
   79MOL0     H10639   3.507   5.071   0.012  2.2218 -1.9795 -1.0684
   79MOL0     H10640   3.571   5.187   0.131  0.9272  0.4935 -2.8007
   79MOL0     H10641   3.407   4.935   0.173  3.3368  0.1546 -4.7998
   79MOL0     H10642   3.457   5.049   0.307 -2.0083 -0.4805  0.2340
   79MOL0     H10643   3.276   5.120   0.062 -0.6758  3.1425  0.3376
   79MOL0     H10644   3.325   5.230   0.193  0.1469 -0.3472  1.5742
   79MOL0     H10645   3.174   5.071   0.329  1.6105  1.9890  0.5513
   79MOL0     H10646   3.162   4.969   0.183  5.8942 -0.7723 -0.1468
   79MOL0     H10647   4.149   5.227  -0.002  0.3101 -1.0873  0.4400
   79MOL0     H10648   4.289   5.438  -0.053  2.4057 -0.6206  0.6344
   79MOL0     H10649   4.475   5.784   0.209  2.2673 -0.5328 -0.1821
   79MOL0     H10650   4.623   5.983   0.221 -2.0529  0.3499  2.9189
   79MOL0     H10651   3.786   6.452   1.230 -0.8846  0.5317  0.8341
   79MOL0     H10652   3.621   6.592   1.181  0.1815  1.5083  0.1414
   79MOL0     H10653   3.571   7.176   1.261 -1.8667  0.9394  0.0770
   79MOL0     H10654   3.390   7.309   1.209 -3.0692  1.9784 -3.0179
   79MOL0     H10655   3.208   7.431   1.038  1.5466 -0.7415  0.9987
   79MOL0     H10656   3.213   7.310   0.903 -0.6589 -1.7816  0.9480
   79MOL0     H10657   2.970   7.288   0.933 -0.3090  0.4968 -1.5865
   79MOL0     H10658   3.035   7.420   0.843 -1.5065  1.3800  0.4883
   79MOL0     H10659   3.011   7.573   1.037 -0.8434  0.3540  0.9884
   79MOL0     H10660   2.955   7.429   1.132  0.6171 -0.8967 -0.4349
   79MOL0     H10661   2.764   7.399   0.990 -0.7682  0.6240 -1.6383
   79MOL0     H10662   2.825   7.518   0.869  4.5633  0.6255  0.2755
   79MOL0     H10663   2.583   7.739   1.142  1.1979  2.3686 -1.2660
   79MOL0     H10664   3.207   6.982   0.987  2.4861  1.4339 -3.5822
   79MOL0     H10665   3.407   6.859   1.024  1.6916 -0.9649  1.1391
   80MOL0     O10666   6.851   7.875   0.644  0.2898 -0.1053  0.4154
   80MOL0     C10667   6.742   7.837   0.590  0.4784 -0.4909  0.2219
   80MOL0     O10668   6.637   7.782   0.658 -0.3259  0.1061 -0.2528
   80MOL0     C10669   6.612   7.790   0.792 -0.0219  0.5435  0.4507
   80MOL0     C10670   6.584   7.671   0.866  0.6629  0.8008  0.6681
   80MOL0     C10671   6.552   7.672   1.000 -0.9244 -0.2349  0.8860
   80MOL0     C10672   6.551   7.798   1.066 -0.1067  0.1898 -0.0566
   80MOL0     O10673   6.524   7.801   1.198 -0.2746  0.5598 -0.7829
   80MOL0     C10674   6.630   7.815   1.302  0.9704  0.5006 -0.6658
   80MOL0     C10675   6.688   7.684   1.350  1.1648 -0.5506 -1.0713
   80MOL0     C10676   6.591   7.603   1.434 -0.0684  0.1191  0.3872
   80MOL0     C10677   6.521   7.680   1.545  0.5987  0.1405  0.0347
   80MOL0     C10678   6.426   7.585   1.631  0.1809  0.7430  1.4624
   80MOL0     C10679   6.338   7.656   1.735  0.3715 -0.3357  0.2894
   80MOL0     C10680   6.314   7.580   1.868 -0.1017 -0.1426 -0.2131
   80MOL0     C10681   6.246   7.679   1.962 -0.1425  0.3558 -0.4656
   80MOL0     N10682   6.196   7.604   2.073 -1.5684 -0.0608  0.2655
   80MOL0     C10683   6.263   7.558   2.174 -0.3533  0.5641 -0.1088
   80MOL0     C10684   6.177   7.491   2.257  0.0418 -0.0353  0.1828
   80MOL0     C10685   6.202   7.432   2.389 -0.4074  0.0380 -0.2302
   80MOL0     C10686   6.286   7.533   2.472 -0.2817  0.4824  0.2307
   80MOL0     C10687   6.342   7.480   2.608  0.7341  0.3688  0.2194
   80MOL0     C10688   6.220   7.435   2.699 -0.0698 -0.1327 -0.5864
   80MOL0     O10689   6.273   7.378   2.822  0.5357 -0.3424 -0.0219
   80MOL0     C10690   6.333   7.448   2.924  0.4358  0.1942  0.5621
   80MOL0     C10691   6.410   7.361   3.006 -0.2067  0.0896  0.3032
   80MOL0     C10692   6.492   7.418   3.107 -0.1022  0.6564 -0.1386
   80MOL0     C10693   6.580   7.322   3.189 -0.8634 -0.0473 -0.6282
   80MOL0     C10694   6.505   7.559   3.123  0.3049  0.1868  0.5405
   80MOL0     C10695   6.609   7.626   3.212 -0.4438 -0.4235  0.3991
   80MOL0     O10696   6.551   7.723   3.292  0.0387  0.4346 -0.6561
   80MOL0     C10697   6.635   7.786   3.384  0.1749  0.2234 -0.0957
   80MOL0     C10698   6.569   7.795   3.503  0.2655 -0.6933 -0.7251
   80MOL0     C10699   6.637   7.843   3.619 -0.6529 -0.7643 -0.0686
   80MOL0     C10700   6.773   7.883   3.611 -0.5157 -0.3129 -0.6986
   80MOL0     O10701   6.848   7.916   3.724  0.0238 -0.4417  0.4949
   80MOL0     C10702   6.819   7.834   3.838  0.6493  0.3078 -0.1382
   80MOL0     C10703   6.938   7.879   3.943  0.3334  0.6168 -0.3970
   80MOL0     C10704   6.891   7.878   4.090 -0.1560  0.1316  1.4085
   80MOL0     C10705   6.987   7.943   4.191  1.0881  0.2947 -0.3310
   80MOL0     C10706   6.914   7.977   4.318  0.9296  0.8048 -0.4660
   80MOL0     C10707   6.995   8.020   4.442 -0.3455 -0.3249  0.4257
   80MOL0     C10708   7.073   8.153   4.412  0.3478 -0.3202  0.5011
   80MOL0     C10709   7.146   8.186   4.550  0.4779  0.0983  0.6527
   80MOL0    Cl10710   7.039   8.245   4.673 -0.2237  0.0584  0.3537
   80MOL0     C10711   6.836   7.873   3.489 -0.8307  0.4950 -0.3493
   80MOL0     C10712   6.766   7.827   3.377  0.7258 -0.0464  0.1585
   80MOL0     O10713   6.726   7.589   3.211  0.8842  0.0864 -0.1100
   80MOL0     C10714   6.408   7.640   3.053 -0.3113  0.8021 -0.6122
   80MOL0     C10715   6.333   7.584   2.949  0.0890  0.0945  0.4313
   80MOL0     N10716   6.055   7.493   2.192  0.4282 -0.0988 -0.3479
   80MOL0     N10717   6.070   7.561   2.086  0.3274 -1.0235  0.3807
   80MOL0     C10718   6.582   7.919   0.996  0.1612  0.5624 -0.5969
   80MOL0     C10719   6.613   7.912   0.861 -0.1845  0.5582 -0.3036
   80MOL0     C10720   6.722   7.863   0.441  0.8639  0.9631  0.1239
   80MOL0     C10721   6.782   7.962   0.373  0.0303 -1.0957  0.1283
   80MOL0     C10722   6.760   7.984   0.231 -0.9486 -0.2308 -0.0889
   80MOL0     C10723   6.662   7.906   0.167  0.4673 -0.8829  1.0092
   80MOL0     O10724   6.659   7.936   0.032 -0.5758 -0.8443  0.9924
   80MOL0     C10725   6.611   7.842  -0.061  0.5488 -0.4491  0.0353
   80MOL0     C10726   6.636   7.893  -0.206 -0.8704 -0.0099  0.1476
   80MOL0     C10727   6.526   8.009  -0.234 -0.2266 -0.2117  0.3135
   80MOL0     C10728   6.511   8.049  -0.373  0.5301 -0.3327 -0.1677
   80MOL0     C10729   6.389   8.132  -0.379 -0.0009 -0.5367  0.4805
   80MOL0     C10730   6.292   8.207  -0.389  0.4364 -0.4574  0.1991
   80MOL0     C10731   6.594   7.808   0.237  0.8678 -0.0792  1.0421
   80MOL0     C10732   6.617   7.785   0.375  0.1767 -0.2587 -0.1942
   80MOL0     H10733   6.568   7.580   0.809 -2.8254  1.3096  0.6393
   80MOL0     H10734   6.516   7.585   1.054  1.9328 -1.1601  1.5251
   80MOL0     H10735   6.703   7.869   1.240 -1.2517  1.9082 -2.2320
   80MOL0     H10736   6.603   7.895   1.372  3.7678  2.2478 -1.4046
   80MOL0     H10737   6.697   7.627   1.257  0.8934 -1.0378 -0.8036
   80MOL0     H10738   6.779   7.703   1.409  0.1421 -0.6283  0.5827
   80MOL0     H10739   6.516   7.584   1.357 -0.5688  0.4563  0.7848
   80MOL0     H10740   6.628   7.505   1.467 -2.4196 -0.5838  1.1021
   80MOL0     H10741   6.598   7.710   1.616  0.4273 -1.1273  0.7799
   80MOL0     H10742   6.467   7.769   1.511  2.5157  1.2446 -0.2716
   80MOL0     H10743   6.360   7.526   1.566  0.0730  0.4599  1.8276
   80MOL0     H10744   6.489   7.509   1.677 -1.8929 -1.7634  0.4366
   80MOL0     H10745   6.376   7.757   1.748  1.8878 -0.6672 -1.1746
   80MOL0     H10746   6.238   7.658   1.690  1.3229 -0.4290 -1.9778
   80MOL0     H10747   6.254   7.488   1.864  1.7039 -1.6738  3.4249
   80MOL0     H10748   6.406   7.551   1.919  0.2475 -1.3806 -1.4898
   80MOL0     H10749   6.171   7.732   1.903 -1.3804 -0.2877  0.4767
   80MOL0     H10750   6.309   7.756   2.007  0.2808  0.8122 -1.7850
   80MOL0     H10751   6.368   7.572   2.199  0.3681 -2.1384 -1.1974
   80MOL0     H10752   6.110   7.407   2.443 -0.2431 -0.7459 -0.3046
   80MOL0     H10753   6.256   7.339   2.369 -0.4491  0.1378 -0.8535
   80MOL0     H10754   6.230   7.625   2.490 -2.4512 -0.7894  0.2572
   80MOL0     H10755   6.372   7.560   2.410  0.0889  0.0718  0.5601
   80MOL0     H10756   6.396   7.562   2.655 -0.1171  0.0177  1.8808
   80MOL0     H10757   6.411   7.396   2.595 -0.2487 -0.1208 -2.6279
   80MOL0     H10758   6.166   7.358   2.645  1.3553 -0.3616 -1.7519
   80MOL0     H10759   6.156   7.515   2.738  0.0761 -0.6764  0.8369
   80MOL0     H10760   6.419   7.257   2.974 -1.2466  0.0802  0.0038
   80MOL0     H10761   6.608   7.369   3.284  0.0299 -2.8405  0.6131
   80MOL0     H10762   6.519   7.234   3.214 -0.8553  0.7320  2.6704
   80MOL0     H10763   6.671   7.293   3.135 -1.7175  2.5014 -3.6967
   80MOL0     H10764   6.471   7.751   3.515  0.3362 -0.8530 -0.7370
   80MOL0     H10765   6.583   7.856   3.712 -1.7479 -2.2898 -0.4471
   80MOL0     H10766   6.724   7.868   3.879  0.8612  1.2507 -0.4098
   80MOL0     H10767   6.827   7.725   3.838 -2.8574 -0.0539  0.5426
   80MOL0     H10768   7.024   7.811   3.940 -0.3214 -0.1973 -2.3114
   80MOL0     H10769   6.970   7.977   3.907 -0.0519 -0.9402 -5.7496
   80MOL0     H10770   6.866   7.775   4.117 -1.3396  0.2431  0.8189
   80MOL0     H10771   6.794   7.929   4.093  0.9192  2.4817 -0.1780
   80MOL0     H10772   7.060   7.865   4.217 -1.1608 -0.9475  2.8836
   80MOL0     H10773   7.028   8.033   4.144 -2.8132  3.7516  2.1489
   80MOL0     H10774   6.857   7.888   4.345  1.6624  0.8603  1.3746
   80MOL0     H10775   6.832   8.047   4.299  1.8937  2.1717  0.2198
   80MOL0     H10776   6.917   8.035   4.517 -1.6263 -0.6475 -0.8018
   80MOL0     H10777   7.064   7.943   4.475  0.6001 -0.8635 -2.4602
   80MOL0     H10778   7.002   8.235   4.395  2.6169  1.6849  0.1537
   80MOL0     H10779   7.140   8.157   4.326  3.0980  0.3661  2.5496
   80MOL0     H10780   7.205   8.273   4.521  1.7714 -1.5784 -2.2572
   80MOL0     H10781   7.203   8.098   4.582 -2.1832 -1.8322  0.3786
   80MOL0     H10782   6.940   7.899   3.473 -0.8703 -0.2624 -2.0727
   80MOL0     H10783   6.827   7.817   3.287  2.2917  0.5304  1.1006
   80MOL0     H10784   6.394   7.745   3.075 -1.0101  0.5308  0.3107
   80MOL0     H10785   6.259   7.644   2.897 -0.6697 -0.3099  1.0193
   80MOL0     H10786   6.567   8.018   1.038  1.9026 -0.1162  1.7878
   80MOL0     H10787   6.632   7.997   0.796  1.4343 -0.0216 -0.6557
   80MOL0     H10788   6.849   8.031   0.421 -2.5235 -0.4256  3.0997
   80MOL0     H10789   6.810   8.062   0.174 -0.8943  0.5046  0.9536
   80MOL0     H10790   6.659   7.744  -0.059  2.1261  0.2739 -0.6138
   80MOL0     H10791   6.507   7.833  -0.029  0.3268  5.2881  2.0971
   80MOL0     H10792   6.624   7.815  -0.282 -0.7944  1.3134 -1.2558
   80MOL0     H10793   6.727   7.951  -0.224 -0.3328 -0.7385  0.4507
   80MOL0     H10794   6.559   8.098  -0.180 -2.0535  1.0857 -0.6281
   80MOL0     H10795   6.425   7.984  -0.202 -0.9479  0.4164 -1.3469
   80MOL0     H10796   6.513   7.967  -0.446  1.7374 -1.7154  1.3277
   80MOL0     H10797   6.591   8.111  -0.413  0.7321  0.3388  1.2263
   80MOL0     H10798   6.201   8.262  -0.402  0.7155  0.0206  0.2389
   80MOL0     H10799   6.529   7.745   0.176  2.0953  0.6936 -1.1601
   80MOL0     H10800   6.563   7.717   0.439  1.5136 -1.9944 -0.8404
   81MOL0     O10801  10.300   6.483   0.400 -0.4867  0.0729 -0.2824
   81MOL0     C10802  10.222   6.478   0.310  0.8537  0.3295  1.3128
   81MOL0     O10803  10.237   6.455   0.177 -0.0924  0.1241  0.3409
   81MOL0     C10804  10.360   6.445   0.126 -0.5650  0.0321 -0.5734
   81MOL0     C10805  10.404   6.314   0.093 -0.1308  0.4272 -0.3356
   81MOL0     C10806  10.523   6.308   0.025 -0.2863  0.1913 -0.3217
   81MOL0     C10807  10.607   6.420   0.001  0.5856  0.3738  0.4788
   81MOL0     O10808  10.734   6.399  -0.053 -0.9572  0.6291 -0.1788
   81MOL0     C10809  10.824   6.341   0.038 -0.0827  1.1034 -0.5091
   81MOL0     C10810  10.927   6.259  -0.035 -0.6784 -0.3911  0.2321
   81MOL0     C10811  11.044   6.230   0.051  1.0063 -0.2479 -0.3252
   81MOL0     C10812  11.027   6.135   0.170  0.0376  0.0901 -0.4969
   81MOL0     C10813  11.164   6.085   0.201 -0.0988 -0.3667  0.6169
   81MOL0     C10814  11.167   6.041   0.347 -0.4258  0.6789 -0.0831
   81MOL0     C10815  11.314   6.006   0.391  0.2662  0.7721 -0.4855
   81MOL0     C10816  11.393   6.121   0.449 -0.7364 -0.2676  0.4009
   81MOL0     N10817  11.540   6.102   0.439 -0.4274 -0.8141  0.1850
   81MOL0     C10818  11.634   6.164   0.529  0.8805  0.0278  0.8927
   81MOL0     C10819  11.753   6.112   0.488 -0.5064  0.3849  0.3905
   81MOL0     C10820  11.876   6.146   0.563  0.6493 -0.5653 -1.2774
   81MOL0     C10821  11.899   6.303   0.576 -0.4440  0.3964  1.2081
   81MOL0     C10822  11.918   6.349   0.719  0.2345 -0.0702  0.4746
   81MOL0     C10823  11.937   6.501   0.714 -0.3601 -0.0928  0.2364
   81MOL0     O10824  12.031   6.538   0.815  0.3062  0.4345 -0.3084
   81MOL0     C10825  12.072   6.670   0.823  0.7594 -0.3116 -1.1868
   81MOL0     C10826  12.180   6.698   0.904 -0.3866 -0.4615  1.1057
   81MOL0     C10827  12.239   6.826   0.919  0.5111 -0.3039 -0.4063
   81MOL0     C10828  12.356   6.841   1.013  0.1055 -0.3256 -0.0026
   81MOL0     C10829  12.163   6.936   0.853 -0.2874  0.2087  0.2982
   81MOL0     C10830  12.192   7.081   0.861 -0.6573  0.4458 -0.1858
   81MOL0     O10831  12.096   7.170   0.805  0.3824 -0.4442  0.6013
   81MOL0     C10832  12.110   7.301   0.839  1.3944  0.4427 -0.4245
   81MOL0     C10833  12.068   7.350   0.966 -0.1494  0.1483  0.4328
   81MOL0     C10834  12.089   7.483   0.991  0.0101  0.5593  0.2332
   81MOL0     C10835  12.149   7.567   0.897 -0.0984  0.2648  0.7263
   81MOL0     O10836  12.153   7.705   0.901  0.2989  1.4209 -0.3488
   81MOL0     C10837  12.038   7.784   0.947  0.5177  0.1135 -1.1192
   81MOL0     C10838  12.012   7.899   0.853 -0.5780 -0.1903  1.1232
   81MOL0     C10839  11.940   8.009   0.913 -0.4301 -0.2659 -0.0490
   81MOL0     C10840  11.892   8.107   0.805  0.2763 -0.1910 -0.5566
   81MOL0     C10841  12.003   8.201   0.754 -0.4866  0.5740 -1.2792
   81MOL0     C10842  11.986   8.247   0.607 -0.4828 -0.1745 -0.1677
   81MOL0     C10843  11.844   8.296   0.576 -1.0692  0.0471  0.2097
   81MOL0     C10844  11.832   8.350   0.438  0.6418  0.3948 -0.6182
   81MOL0    Cl10845  11.913   8.254   0.314 -0.3477  0.1958 -0.2346
   81MOL0     C10846  12.199   7.513   0.777  0.7625 -0.1281 -0.6059
   81MOL0     C10847  12.175   7.380   0.750  0.3194  0.1212  0.5031
   81MOL0     O10848  12.289   7.119   0.922  0.2641  0.2958 -0.1835
   81MOL0     C10849  12.064   6.906   0.763 -0.0728 -0.6340 -0.9249
   81MOL0     C10850  12.009   6.778   0.762  0.2455  0.4897  0.4491
   81MOL0     N10851  11.734   6.021   0.386  0.4993 -0.3669  0.3220
   81MOL0     N10852  11.605   6.022   0.355  0.7027 -0.0392  0.2853
   81MOL0     C10853  10.560   6.540   0.026  0.0677 -0.9273 -0.3531
   81MOL0     C10854  10.435   6.554   0.090 -1.0303 -0.3495 -0.4150
   81MOL0     C10855  10.073   6.497   0.352 -1.0275 -0.7432  0.9002
   81MOL0     C10856   9.972   6.472   0.265 -0.6385  0.3450  0.3924
   81MOL0     C10857   9.837   6.488   0.293  0.2697  0.3979 -0.8782
   81MOL0     C10858   9.800   6.513   0.424  0.4205  0.5294  0.1506
   81MOL0     O10859   9.668   6.497   0.468 -0.3269  0.5855 -0.0624
   81MOL0     C10860   9.638   6.500   0.615 -0.0915 -0.4110  0.6161
   81MOL0     C10861   9.669   6.362   0.685 -0.0179 -0.5955  0.1677
   81MOL0     C10862   9.713   6.390   0.829  0.7761 -0.3651  0.6383
   81MOL0     C10863   9.716   6.260   0.913 -0.0390 -0.2100  0.2332
   81MOL0     C10864   9.586   6.194   0.945  0.1359  0.6397 -0.1364
   81MOL0     C10865   9.477   6.131   0.958 -0.1143  0.6902 -0.6163
   81MOL0     C10866   9.902   6.552   0.512 -0.6797 -0.3340 -1.4768
   81MOL0     C10867  10.034   6.541   0.480 -0.5570  0.9942 -0.5316
   81MOL0     H10868  10.336   6.232   0.112 -1.7990  1.3015 -2.0577
   81MOL0     H10869  10.563   6.214  -0.012  2.2990  1.7836 -1.9156
   81MOL0     H10870  10.869   6.427   0.089  3.2635  1.0431 -3.0339
   81MOL0     H10871  10.767   6.279   0.109  1.6164 -0.7841 -0.6982
   81MOL0     H10872  10.873   6.167  -0.062 -1.8095  0.2339  0.2822
   81MOL0     H10873  10.950   6.315  -0.126  1.2329  0.5969  1.2632
   81MOL0     H10874  11.124   6.200  -0.017 -2.1700 -0.7232 -4.2507
   81MOL0     H10875  11.075   6.325   0.095  2.6081 -1.6400  1.7622
   81MOL0     H10876  10.995   6.192   0.258 -1.1915 -1.5619  0.1591
   81MOL0     H10877  10.956   6.055   0.147 -0.6302 -0.6680  3.5142
   81MOL0     H10878  11.186   5.993   0.145  0.2145  0.9901 -1.6173
   81MOL0     H10879  11.239   6.161   0.180 -2.3029  1.9578  0.7582
   81MOL0     H10880  11.123   6.112   0.418  0.5718  0.1956  1.0493
   81MOL0     H10881  11.102   5.954   0.359 -3.2355  2.2691 -2.4008
   81MOL0     H10882  11.315   5.921   0.459  2.3715  1.9966  1.1189
   81MOL0     H10883  11.370   5.982   0.300 -0.2926  0.9594 -0.8905
   81MOL0     H10884  11.380   6.131   0.557  0.3091 -1.6171  0.6837
   81MOL0     H10885  11.363   6.217   0.407  1.8582  1.6296  2.5478
   81MOL0     H10886  11.601   6.234   0.604  2.4476  1.3702  0.3836
   81MOL0     H10887  11.879   6.105   0.665  0.6602  2.3779  0.0182
   81MOL0     H10888  11.958   6.104   0.505 -0.7254 -0.9828 -2.9798
   81MOL0     H10889  11.831   6.369   0.522  1.3152  1.1302 -0.2245
   81MOL0     H10890  11.997   6.317   0.530 -0.5361  0.5380  1.0534
   81MOL0     H10891  12.010   6.310   0.763 -0.8997 -2.5193  0.8665
   81MOL0     H10892  11.826   6.323   0.773  1.9028 -3.3744  1.9576
   81MOL0     H10893  11.841   6.551   0.723 -2.1235 -3.3589  1.5789
   81MOL0     H10894  11.985   6.526   0.619 -0.4759  0.2102  0.2580
   81MOL0     H10895  12.226   6.618   0.961  1.5558  1.5187  2.5240
   81MOL0     H10896  12.414   6.927   0.980 -0.8934 -0.5213 -2.4815
   81MOL0     H10897  12.308   6.862   1.109 -1.2765  1.0003 -0.9307
   81MOL0     H10898  12.416   6.750   1.025 -0.4782 -0.7745 -0.4123
   81MOL0     H10899  12.013   7.280   1.028  0.4090 -0.7309 -0.0412
   81MOL0     H10900  12.029   7.527   1.070 -0.8963 -0.2710  0.0301
   81MOL0     H10901  11.942   7.730   0.952  1.9886 -2.5930 -0.2422
   81MOL0     H10902  12.060   7.827   1.045 -0.5123  1.1403 -1.3163
   81MOL0     H10903  12.100   7.928   0.794 -0.3340 -1.9650  0.5491
   81MOL0     H10904  11.945   7.858   0.777  1.1739 -1.5379  0.2104
   81MOL0     H10905  12.015   8.047   0.983  0.6647 -0.2273 -1.1995
   81MOL0     H10906  11.855   7.977   0.973 -0.4040  0.9684  0.6744
   81MOL0     H10907  11.850   8.051   0.720  0.2613 -1.1606  0.0783
   81MOL0     H10908  11.818   8.175   0.847  2.6733  1.4996  1.1437
   81MOL0     H10909  12.086   8.130   0.747 -2.5265 -1.9931 -0.7771
   81MOL0     H10910  12.031   8.278   0.827  2.7751  0.9343 -2.7474
   81MOL0     H10911  12.064   8.319   0.582  2.3491 -3.3894 -1.4934
   81MOL0     H10912  12.004   8.173   0.528  1.7618  1.0711 -0.9125
   81MOL0     H10913  11.802   8.373   0.642  0.7224 -0.3287  1.8970
   81MOL0     H10914  11.786   8.205   0.591 -1.0053 -0.0429 -0.0878
   81MOL0     H10915  11.865   8.454   0.437 -2.7299  1.7725  3.0180
   81MOL0     H10916  11.726   8.362   0.413  0.8008  0.3320 -1.3412
   81MOL0     H10917  12.239   7.587   0.708  1.5459  0.4827  0.4818
   81MOL0     H10918  12.204   7.325   0.661 -0.2617 -0.7684  0.8592
   81MOL0     H10919  12.015   6.981   0.701  2.6211  0.8805 -1.3640
   81MOL0     H10920  11.915   6.759   0.710  0.2678 -2.4514  1.3281
   81MOL0     H10921  10.625   6.628   0.020 -0.2250 -0.8045 -2.6619
   81MOL0     H10922  10.403   6.650   0.127 -1.3767 -0.7084  0.2301
   81MOL0     H10923  10.002   6.440   0.166  2.0971 -0.0374  1.2599
   81MOL0     H10924   9.769   6.471   0.211  2.7962 -1.3276 -2.7748
   81MOL0     H10925   9.704   6.572   0.663 -1.4366  0.0253  1.8551
   81MOL0     H10926   9.539   6.542   0.631  1.0138  3.2100 -0.9944
   81MOL0     H10927   9.751   6.320   0.626 -0.7999 -0.6774 -0.8912
   81MOL0     H10928   9.578   6.301   0.683 -3.1198  3.5981  0.7983
   81MOL0     H10929   9.645   6.457   0.883  1.0469 -0.9276  1.7102
   81MOL0     H10930   9.813   6.436   0.832  1.0362 -0.7013 -1.4083
   81MOL0     H10931   9.775   6.270   1.006 -2.1565 -2.1565  1.8875
   81MOL0     H10932   9.766   6.179   0.861 -3.7978 -2.1150 -0.7439
   81MOL0     H10933   9.384   6.081   0.974 -0.2324  1.5806  1.9262
   81MOL0     H10934   9.896   6.584   0.616 -0.0736 -1.1383 -1.1799
   81MOL0     H10935  10.109   6.568   0.554 -0.5121  0.4712 -0.3843
   82MOL0     O10936   6.130   1.047   9.593  0.2101 -0.4559 -0.3642
   82MOL0     C10937   6.105   1.167   9.614 -0.2166 -0.9764  0.2878
   82MOL0     O10938   6.016   1.239   9.541 -0.3548 -0.4496  0.0988
   82MOL0     C10939   5.937   1.188   9.446  0.7457  0.0913  0.0817
   82MOL0     C10940   5.926   1.243   9.317  0.2083 -0.9210 -0.5461
   82MOL0     C10941   5.847   1.173   9.228 -0.7776 -0.3492  0.0910
   82MOL0     C10942   5.761   1.060   9.263 -0.6107  0.0426  0.7275
   82MOL0     O10943   5.699   0.984   9.166  0.2884 -0.9204 -0.4371
   82MOL0     C10944   5.800   0.941   9.069 -0.0437 -0.6717 -0.5026
   82MOL0     C10945   5.745   0.848   8.972  0.1957 -0.0842  0.5638
   82MOL0     C10946   5.685   0.729   9.039  0.1311 -0.3105 -0.7445
   82MOL0     C10947   5.625   0.625   8.942 -0.3334  0.5255  1.2507
   82MOL0     C10948   5.740   0.538   8.885  0.7608 -0.2513  1.3200
   82MOL0     C10949   5.789   0.425   8.984 -1.2583  0.2886  0.1203
   82MOL0     C10950   5.884   0.328   8.904  0.5826 -0.2277 -1.3070
   82MOL0     C10951   6.020   0.382   8.906  0.6402  0.6966  0.4504
   82MOL0     N10952   6.108   0.327   8.800 -0.0867 -0.6876 -1.0437
   82MOL0     C10953   6.219   0.395   8.758 -0.2936 -0.2789 -0.1660
   82MOL0     C10954   6.269   0.300   8.673 -0.6503  0.6179 -0.1091
   82MOL0     C10955   6.410   0.320   8.632 -0.6912  0.5511  0.7395
   82MOL0     C10956   6.503   0.217   8.690 -0.7249 -0.0915 -0.2028
   82MOL0     C10957   6.647   0.238   8.632  0.2587  0.0323 -0.7195
   82MOL0     C10958   6.745   0.258   8.735  0.3626  1.3812 -0.0889
   82MOL0     O10959   6.867   0.317   8.682  0.2283 -0.5088 -0.0300
   82MOL0     C10960   6.978   0.331   8.752 -0.6024 -0.3330  0.1981
   82MOL0     C10961   6.978   0.325   8.883 -0.5173  0.1289 -0.5774
   82MOL0     C10962   7.094   0.360   8.964  0.1386 -0.8055 -0.4622
   82MOL0     C10963   7.079   0.318   9.111 -0.4699  0.5732 -0.5907
   82MOL0     C10964   7.208   0.404   8.902  0.4069 -0.0140 -0.2714
   82MOL0     C10965   7.333   0.444   8.974 -0.5625 -0.5449  0.6128
   82MOL0     O10966   7.335   0.428   9.110 -0.0807 -0.5505  0.0822
   82MOL0     C10967   7.456   0.472   9.161  0.5733  0.0480  0.3014
   82MOL0     C10968   7.467   0.594   9.231 -0.0724 -0.6613 -0.0866
   82MOL0     C10969   7.589   0.632   9.288 -0.4162 -0.6477 -1.2315
   82MOL0     C10970   7.714   0.569   9.264  0.2252 -0.3184  0.1143
   82MOL0     O10971   7.837   0.611   9.300 -0.6554 -0.8865  0.1068
   82MOL0     C10972   7.858   0.747   9.336 -0.4796 -0.1767 -0.5704
   82MOL0     C10973   8.007   0.750   9.387 -0.8878 -0.2121  0.4337
   82MOL0     C10974   8.109   0.694   9.289 -0.1346 -0.1662 -0.0611
   82MOL0     C10975   8.108   0.772   9.161 -1.0218  0.1010  0.4612
   82MOL0     C10976   8.244   0.757   9.083  0.7653  0.0886 -0.0001
   82MOL0     C10977   8.220   0.828   8.948 -0.3339  0.3687 -1.2920
   82MOL0     C10978   8.355   0.830   8.870 -0.1409 -1.4652  0.8155
   82MOL0     C10979   8.452   0.936   8.928  0.9728 -0.5776 -0.2945
   82MOL0    Cl10980   8.409   1.105   8.868 -0.2872 -0.1647  0.0426
   82MOL0     C10981   7.700   0.448   9.201  0.3802  1.0262  0.9311
   82MOL0     C10982   7.575   0.395   9.156  0.3497 -0.3443 -0.7410
   82MOL0     O10983   7.433   0.480   8.908  0.4116  1.0604  0.3222
   82MOL0     C10984   7.218   0.390   8.764 -0.5646  0.2807  0.0453
   82MOL0     C10985   7.104   0.350   8.688  0.5321 -0.9433 -0.7143
   82MOL0     N10986   6.184   0.192   8.659 -0.1775 -0.0146 -0.1602
   82MOL0     N10987   6.081   0.215   8.733  0.0267  0.3155  0.3177
   82MOL0     C10988   5.766   1.016   9.404  0.2309  0.0453  0.0692
   82MOL0     C10989   5.861   1.075   9.476 -0.5105  0.2183 -0.2559
   82MOL0     C10990   6.189   1.240   9.703  0.3649  0.2486 -0.4166
   82MOL0     C10991   6.326   1.206   9.714  0.1845  0.6964  0.0093
   82MOL0     C10992   6.414   1.276   9.805 -0.3369  0.1103 -0.2015
   82MOL0     C10993   6.358   1.377   9.883  0.0705 -1.4953 -0.2635
   82MOL0     O10994   6.427   1.431   9.987  0.0989  0.1161  0.0067
   82MOL0     C10995   6.468   1.333  10.081  0.4959 -0.7167  0.0806
   82MOL0     C10996   6.351   1.242  10.147 -0.3358  0.2673  0.3059
   82MOL0     C10997   6.411   1.155  10.261 -0.0325  0.7867  0.2153
   82MOL0     C10998   6.465   1.227  10.387  0.5897  0.3454 -0.1296
   82MOL0     C10999   6.481   1.129  10.498 -0.0631 -0.5158  0.8866
   82MOL0     C11000   6.500   1.048  10.583 -0.1017 -0.2732 -0.8593
   82MOL0     C11001   6.233   1.425   9.855 -0.4428 -0.8237 -0.2038
   82MOL0     C11002   6.145   1.349   9.777  0.2222 -0.8612  0.7802
   82MOL0     H11003   5.986   1.326   9.281 -2.7385  0.2918 -3.1149
   82MOL0     H11004   5.839   1.204   9.124 -0.7353  0.6220  0.3686
   82MOL0     H11005   5.835   1.023   9.005  1.7264 -0.7245  0.3167
   82MOL0     H11006   5.886   0.893   9.116 -1.1316 -0.7682  1.4828
   82MOL0     H11007   5.667   0.898   8.915  0.4545  1.4097  1.4878
   82MOL0     H11008   5.816   0.805   8.900 -1.3972 -1.9506  0.0062
   82MOL0     H11009   5.756   0.686   9.110  1.6793  0.4936 -1.7586
   82MOL0     H11010   5.596   0.765   9.092 -2.1672 -0.9488 -3.8582
   82MOL0     H11011   5.550   0.567   8.996 -3.5143  0.5795 -2.6436
   82MOL0     H11012   5.570   0.669   8.859  0.4726  1.8870  1.4099
   82MOL0     H11013   5.714   0.498   8.787  0.7888  4.0521 -0.6710
   82MOL0     H11014   5.821   0.607   8.859  0.3526  0.1117  1.0195
   82MOL0     H11015   5.843   0.471   9.067  1.8947  1.4631 -2.3621
   82MOL0     H11016   5.703   0.366   9.018 -0.9920  0.4232  1.0505
   82MOL0     H11017   5.877   0.238   8.966  1.6224 -0.7925 -1.9948
   82MOL0     H11018   5.860   0.306   8.800  0.5464 -2.3421 -0.9027
   82MOL0     H11019   6.064   0.357   9.003  0.4050 -1.1272  0.1349
   82MOL0     H11020   6.002   0.487   8.881 -2.2124 -0.0540 -1.1523
   82MOL0     H11021   6.264   0.489   8.788 -0.6472  0.2322 -1.2036
   82MOL0     H11022   6.417   0.306   8.523  3.4808  3.3900  0.3907
   82MOL0     H11023   6.447   0.422   8.646 -0.5897  1.0822 -2.4903
   82MOL0     H11024   6.473   0.115   8.662 -0.5889 -0.9777  2.5794
   82MOL0     H11025   6.487   0.216   8.798 -2.3342 -0.4008 -0.4120
   82MOL0     H11026   6.647   0.326   8.566 -3.1699 -0.7430 -1.9446
   82MOL0     H11027   6.683   0.151   8.577  2.1426  1.8771 -2.5868
   82MOL0     H11028   6.764   0.164   8.788 -4.2658  2.0825  3.5128
   82MOL0     H11029   6.699   0.320   8.813 -0.5703  0.7437 -0.1078
   82MOL0     H11030   6.885   0.288   8.926  0.3705 -2.2294 -0.5551
   82MOL0     H11031   7.126   0.386   9.184 -0.6465  0.0486  0.0238
   82MOL0     H11032   6.973   0.313   9.137 -1.0231  2.8421 -2.0975
   82MOL0     H11033   7.120   0.222   9.141 -2.7298  1.0622  5.5315
   82MOL0     H11034   7.382   0.653   9.262 -1.1522 -2.8988  1.4380
   82MOL0     H11035   7.587   0.727   9.341 -1.8397 -1.3042 -0.0044
   82MOL0     H11036   7.840   0.815   9.253 -1.1802  1.1017  0.5869
   82MOL0     H11037   7.794   0.763   9.423 -1.7303 -1.4342 -1.2216
   82MOL0     H11038   8.013   0.857   9.409  1.0234 -0.4691  1.3457
   82MOL0     H11039   8.017   0.698   9.483  0.0318  0.0921  0.5143
   82MOL0     H11040   8.073   0.594   9.262 -0.3480 -0.7872  2.2870
   82MOL0     H11041   8.209   0.686   9.333 -0.5901 -2.4542  0.6580
   82MOL0     H11042   8.032   0.738   9.090 -1.6429 -2.4256  2.2085
   82MOL0     H11043   8.096   0.877   9.188  1.2042  0.3652  0.6302
   82MOL0     H11044   8.267   0.651   9.071  1.4930  0.1515  0.7255
   82MOL0     H11045   8.323   0.810   9.138  1.5512  0.3662 -1.3568
   82MOL0     H11046   8.137   0.791   8.888 -1.5886  3.0686 -1.3366
   82MOL0     H11047   8.200   0.933   8.970  0.2413 -0.0146  1.3900
   82MOL0     H11048   8.342   0.850   8.763 -0.6294 -1.6867  0.8288
   82MOL0     H11049   8.402   0.732   8.880  0.8599 -0.9389  1.3655
   82MOL0     H11050   8.554   0.928   8.889  1.0986 -3.9071  0.4124
   82MOL0     H11051   8.448   0.937   9.038  1.0467 -1.4069 -0.2781
   82MOL0     H11052   7.787   0.387   9.178 -1.3968 -1.7971  1.3585
   82MOL0     H11053   7.588   0.300   9.106 -0.1149 -0.0645 -1.3985
   82MOL0     H11054   7.311   0.424   8.719  0.2670  1.5544  2.5463
   82MOL0     H11055   7.102   0.370   8.581 -2.1270  2.0841 -0.2479
   82MOL0     H11056   5.710   0.929   9.436  0.4824 -1.3801 -2.9651
   82MOL0     H11057   5.886   1.025   9.568  2.7506  0.0759 -1.0901
   82MOL0     H11058   6.364   1.119   9.662 -0.9753  0.6396 -0.7753
   82MOL0     H11059   6.519   1.248   9.805  0.3122  2.0946 -2.8579
   82MOL0     H11060   6.548   1.273  10.036  0.6003 -0.1480 -0.5197
   82MOL0     H11061   6.511   1.397  10.158  2.8923  0.7817 -2.3297
   82MOL0     H11062   6.308   1.177  10.071  0.4109 -1.3714  1.2242
   82MOL0     H11063   6.274   1.302  10.197 -0.2341  0.0382  0.7434
   82MOL0     H11064   6.482   1.086  10.214 -2.3684 -0.6825 -1.3843
   82MOL0     H11065   6.319   1.101  10.288 -0.2432  1.8575  1.7715
   82MOL0     H11066   6.384   1.294  10.416 -1.5088 -2.3968  0.7622
   82MOL0     H11067   6.556   1.283  10.366  2.1386 -1.5717  1.1055
   82MOL0     H11068   6.502   0.973  10.660  1.1705  0.8596  0.2646
   82MOL0     H11069   6.195   1.501   9.922  0.2044  1.9155 -2.7687
   82MOL0     H11070   6.044   1.383   9.760  0.1508 -2.2682 -2.1446
   83MOL0     O11071   9.747  10.312   7.894 -0.4781  0.1323  0.0299
   83MOL0     C11072   9.793  10.192   7.907  0.7369 -0.6444 -0.6722
   83MOL0     O11073   9.874  10.150   8.007 -0.4298  0.8600 -0.1767
   83MOL0     C11074   9.916  10.247   8.096 -0.0001  0.2910 -0.7818
   83MOL0     C11075  10.039  10.322   8.062 -0.1725  0.7923  0.6475
   83MOL0     C11076  10.072  10.425   8.138 -0.0894 -0.2700 -0.0509
   83MOL0     C11077  10.005  10.451   8.257  0.2019 -0.0100 -0.0351
   83MOL0     O11078  10.050  10.563   8.336 -0.2232 -0.1698 -0.5749
   83MOL0     C11079  10.016  10.562   8.477 -0.7552 -0.0739  0.1471
   83MOL0     C11080  10.088  10.671   8.561 -0.1785  0.5884 -0.7937
   83MOL0     C11081  10.050  10.809   8.518 -0.1498 -0.2490 -0.0421
   83MOL0     C11082  10.108  10.919   8.612  0.0617 -0.0040  0.6371
   83MOL0     C11083  10.080  11.064   8.561 -0.7923 -0.0408 -0.0423
   83MOL0     C11084  10.100  11.176   8.663  0.4764 -0.5259 -0.9457
   83MOL0     C11085  10.012  11.294   8.614  0.0000  0.8511  0.2626
   83MOL0     C11086  10.039  11.419   8.705 -0.1695 -0.9262  0.1327
   83MOL0     N11087   9.979  11.536   8.646  0.1873  0.1278 -1.1793
   83MOL0     C11088   9.850  11.560   8.596  1.0581 -0.3097 -1.6487
   83MOL0     C11089   9.853  11.675   8.523  0.1443 -0.8243 -0.9169
   83MOL0     C11090   9.734  11.721   8.440  0.0421 -0.3898 -0.3402
   83MOL0     C11091   9.734  11.868   8.401  0.0028  0.7787  0.5758
   83MOL0     C11092   9.772  11.908   8.249  0.0520 -1.4746 -0.3329
   83MOL0     C11093   9.755  12.059   8.210 -0.3248  0.0903  0.3692
   83MOL0     O11094   9.806  12.151   8.304  0.5908  0.1300 -0.3423
   83MOL0     C11095   9.788  12.279   8.277  0.1443 -0.6077 -0.6161
   83MOL0     C11096   9.855  12.368   8.358  0.7154 -0.6415 -0.5321
   83MOL0     C11097   9.869  12.504   8.339 -0.6718 -0.3951  0.6295
   83MOL0     C11098   9.972  12.568   8.424 -0.6970 -0.5610 -0.3250
   83MOL0     C11099   9.797  12.561   8.232 -0.7840 -0.1099 -0.6585
   83MOL0     C11100   9.796  12.704   8.202  0.8856 -1.1499 -0.1330
   83MOL0     O11101   9.784  12.745   8.069 -0.3377  0.7105 -0.5942
   83MOL0     C11102   9.808  12.876   8.038  0.2861  0.7673 -0.6816
   83MOL0     C11103   9.719  12.925   7.949  0.2968 -0.8276  1.3473
   83MOL0     C11104   9.721  13.061   7.896 -0.5103  0.2635  0.7024
   83MOL0     C11105   9.820  13.143   7.957  0.0099 -0.1337  0.7736
   83MOL0     O11106   9.815  13.272   7.917 -0.0400 -0.4259  0.2223
   83MOL0     C11107   9.872  13.311   7.789 -0.2579  0.6505 -0.3128
   83MOL0     C11108  10.026  13.346   7.799 -0.0298  0.0789 -0.3103
   83MOL0     C11109  10.073  13.471   7.874  0.7004  0.0042  0.7237
   83MOL0     C11110  10.065  13.452   8.019  0.0571 -0.3854  0.1705
   83MOL0     C11111  10.145  13.568   8.089 -0.2351  0.7035 -0.2718
   83MOL0     C11112  10.196  13.538   8.239 -0.2598  0.7330 -0.1956
   83MOL0     C11113  10.094  13.523   8.341  1.5771  0.2137 -0.4767
   83MOL0     C11114  10.025  13.647   8.394 -0.2385 -0.5130 -0.4196
   83MOL0    Cl11115   9.909  13.719   8.272  0.3743 -0.5018 -0.1588
   83MOL0     C11116   9.909  13.092   8.049 -0.7184  0.0475 -0.0069
   83MOL0     C11117   9.914  12.953   8.081 -0.2356 -0.4938 -0.8671
   83MOL0     O11118   9.822  12.779   8.298  0.1076  1.1679 -0.5230
   83MOL0     C11119   9.735  12.469   8.145  0.7065 -0.3127 -0.6563
   83MOL0     C11120   9.719  12.334   8.177  0.6739  1.0407 -0.8376
   83MOL0     N11121   9.977  11.726   8.526  0.6836 -0.2804  0.2817
   83MOL0     N11122  10.050  11.645   8.598 -0.1861 -0.0880  1.5699
   83MOL0     C11123   9.890  10.373   8.290  0.4141  0.2126  0.0870
   83MOL0     C11124   9.841  10.279   8.207  0.0784  0.1097 -0.3722
   83MOL0     C11125   9.761  10.083   7.819  0.8193  0.3070  0.9196
   83MOL0     C11126   9.793   9.943   7.837 -0.8248 -0.9907 -0.8264
   83MOL0     C11127   9.762   9.851   7.737  0.3209 -0.0214  0.1771
   83MOL0     C11128   9.696   9.891   7.617  0.2112 -1.3537 -0.1744
   83MOL0     O11129   9.673   9.794   7.517 -1.2003  0.3711 -0.7254
   83MOL0     C11130   9.656   9.843   7.388 -0.6011  0.5473 -0.4298
   83MOL0     C11131   9.660   9.738   7.278  0.5935  0.6680 -0.4785
   83MOL0     C11132   9.543   9.640   7.295 -1.0196  0.6313  0.2587
   83MOL0     C11133   9.402   9.693   7.269  0.3169 -0.9291  1.3013
   83MOL0     C11134   9.305   9.584   7.258  1.0313  0.4081  0.4540
   83MOL0     C11135   9.220   9.499   7.249  0.1465 -0.6479  1.3121
   83MOL0     C11136   9.657  10.021   7.600 -0.8033  0.4704 -0.5591
   83MOL0     C11137   9.700  10.119   7.694  0.0563 -0.3968  0.5427
   83MOL0     H11138  10.082  10.289   7.968 -1.3128 -0.5233  0.5556
   83MOL0     H11139  10.152  10.479   8.089  0.2153 -1.7078 -1.1797
   83MOL0     H11140   9.908  10.578   8.487 -0.4433  0.4774  4.3975
   83MOL0     H11141  10.027  10.464   8.522 -1.5678  0.9361  2.7472
   83MOL0     H11142  10.068  10.644   8.665  0.7174  0.2912 -0.6829
   83MOL0     H11143  10.197  10.664   8.552  0.1963 -1.1119  2.9213
   83MOL0     H11144  10.097  10.828   8.421 -0.8807 -0.3347 -0.4184
   83MOL0     H11145   9.942  10.828   8.516 -0.0020  0.6673 -2.3923
   83MOL0     H11146  10.066  10.903   8.712 -0.9514  0.2103  0.2541
   83MOL0     H11147  10.217  10.911   8.621  0.2404  1.2308 -0.1637
   83MOL0     H11148  10.142  11.084   8.473  1.0057 -1.7504  0.7666
   83MOL0     H11149   9.972  11.062   8.545 -1.2707  0.8191  2.5600
   83MOL0     H11150  10.060  11.151   8.762 -0.6784  1.3032 -0.9018
   83MOL0     H11151  10.207  11.194   8.669  0.1357  1.6454  4.3149
   83MOL0     H11152  10.043  11.322   8.513 -0.5274  0.9966  0.1358
   83MOL0     H11153   9.908  11.262   8.627  0.5197 -0.2212  2.1256
   83MOL0     H11154  10.145  11.440   8.726  0.3736 -0.3631 -2.7919
   83MOL0     H11155   9.997  11.399   8.804 -1.0810  3.4191  0.8097
   83MOL0     H11156   9.760  11.500   8.601 -0.7371  2.1976 -2.4576
   83MOL0     H11157   9.716  11.656   8.354  0.0190 -1.3026  0.3407
   83MOL0     H11158   9.644  11.696   8.497  0.4378  0.7051  0.8144
   83MOL0     H11159   9.789  11.935   8.468 -1.5422  0.8238  1.8671
   83MOL0     H11160   9.632  11.906   8.418  0.3761  1.4280  1.4568
   83MOL0     H11161   9.708  11.851   8.182  0.6819 -0.6839 -1.6424
   83MOL0     H11162   9.871  11.880   8.214  0.3205  0.5746 -1.3366
   83MOL0     H11163   9.647  12.068   8.195 -0.4282  1.0211  1.5620
   83MOL0     H11164   9.806  12.079   8.115 -1.6285  1.3419 -0.1133
   83MOL0     H11165   9.903  12.317   8.442 -1.7200  0.3180  1.5677
   83MOL0     H11166  10.048  12.492   8.444  0.6540  0.6065 -0.8856
   83MOL0     H11167  10.014  12.657   8.377  0.0123  0.3832  1.9314
   83MOL0     H11168   9.923  12.589   8.520 -1.5708  0.0705 -0.8952
   83MOL0     H11169   9.645  12.863   7.900  2.0254 -1.6838 -0.2907
   83MOL0     H11170   9.642  13.077   7.823 -1.4328 -3.9254  0.5116
   83MOL0     H11171   9.868  13.227   7.718 -0.6868 -0.0682  0.5501
   83MOL0     H11172   9.821  13.404   7.760  2.8049  1.6096 -3.4059
   83MOL0     H11173  10.080  13.261   7.842  0.6408  0.9380  0.5895
   83MOL0     H11174  10.051  13.366   7.694 -1.7520  1.9354 -0.4214
   83MOL0     H11175  10.004  13.551   7.844 -0.3153 -1.6495 -1.6593
   83MOL0     H11176  10.173  13.496   7.838  0.2901  0.2788 -0.2471
   83MOL0     H11177   9.962  13.443   8.056 -1.3846  0.6413 -3.1774
   83MOL0     H11178  10.118  13.360   8.043  0.3263  0.7152  4.6752
   83MOL0     H11179  10.091  13.663   8.085 -3.3876 -0.9772 -0.7651
   83MOL0     H11180  10.229  13.584   8.021 -1.5789 -3.0083 -3.1192
   83MOL0     H11181  10.255  13.447   8.232 -0.5662  0.3613  1.5827
   83MOL0     H11182  10.273  13.603   8.283  2.2709 -2.4408  0.4209
   83MOL0     H11183  10.149  13.482   8.427  0.8579  0.9254  0.3372
   83MOL0     H11184  10.016  13.460   8.298 -0.7680  1.7629  1.2520
   83MOL0     H11185  10.109  13.711   8.424 -1.7229  0.2356  2.4597
   83MOL0     H11186   9.973  13.612   8.484  1.1290 -0.8021  0.2957
   83MOL0     H11187   9.991  13.149   8.091  0.8803 -2.4961  0.5319
   83MOL0     H11188   9.982  12.907   8.152 -1.5426  1.5516  1.9104
   83MOL0     H11189   9.682  12.508   8.059  2.1630  3.1374 -0.1632
   83MOL0     H11190   9.677  12.268   8.101  2.0290 -0.7364 -0.1032
   83MOL0     H11191   9.819  10.395   8.369  2.5034  1.2214  1.8006
   83MOL0     H11192   9.750  10.225   8.230  2.4593 -5.7355 -2.8874
   83MOL0     H11193   9.847   9.907   7.924  0.2186  1.2051 -0.4940
   83MOL0     H11194   9.805   9.754   7.761  0.3729  0.4866  2.3412
   83MOL0     H11195   9.564   9.898   7.370  2.9370  6.4672 -3.4563
   83MOL0     H11196   9.741   9.910   7.372  1.2019 -1.2539  0.9624
   83MOL0     H11197   9.754   9.683   7.291 -0.4985 -0.8065  1.9099
   83MOL0     H11198   9.652   9.792   7.183  0.8126  0.1393 -0.8076
   83MOL0     H11199   9.538   9.607   7.399  0.7240  0.6066  0.3720
   83MOL0     H11200   9.550   9.556   7.225 -1.7477 -0.2873  1.2466
   83MOL0     H11201   9.402   9.761   7.184 -1.3897  3.5801  4.5040
   83MOL0     H11202   9.365   9.754   7.352  0.1076  1.2799 -0.3377
   83MOL0     H11203   9.144   9.423   7.256 -0.1616 -0.2630  2.3485
   83MOL0     H11204   9.607  10.069   7.516 -2.0610  1.3711  0.6668
   83MOL0     H11205   9.666  10.220   7.677 -1.5904 -0.9019  0.7178
   84MOL0     O11206  11.088   3.392   1.124 -0.3290 -0.1609 -0.6597
   84MOL0     C11207  11.126   3.423   1.238  0.5066 -0.4230 -0.1665
   84MOL0     O11208  11.167   3.337   1.338 -0.7712  0.2223  0.8820
   84MOL0     C11209  11.173   3.205   1.310 -0.3622  1.2217 -0.7950
   84MOL0     C11210  11.280   3.139   1.258  0.7337  0.3442  0.2497
   84MOL0     C11211  11.279   3.004   1.214  0.2603 -0.3770 -0.5444
   84MOL0     C11212  11.171   2.929   1.242 -0.1340  0.9984  0.1798
   84MOL0     O11213  11.184   2.791   1.200 -0.1889 -0.2035 -0.2477
   84MOL0     C11214  11.084   2.699   1.247 -0.1547 -0.2547 -1.0348
   84MOL0     C11215  11.113   2.551   1.215 -0.0960 -0.5732 -0.1159
   84MOL0     C11216  11.191   2.539   1.076 -0.1368 -0.8200  0.2263
   84MOL0     C11217  11.151   2.397   1.015  0.8215 -0.4158 -0.1096
   84MOL0     C11218  11.059   2.409   0.900 -0.9758  0.0259 -0.6821
   84MOL0     C11219  10.919   2.482   0.921 -0.2129  1.2547 -0.6610
   84MOL0     C11220  10.850   2.473   0.782  1.0919 -0.0615  0.3107
   84MOL0     C11221  10.731   2.571   0.763 -0.4496  0.5407  0.7424
   84MOL0     N11222  10.630   2.564   0.866  0.4403  0.5048 -1.1874
   84MOL0     C11223  10.644   2.626   0.986  0.2836  0.0653  0.8793
   84MOL0     C11224  10.539   2.587   1.063  0.7176  0.3469  0.7482
   84MOL0     C11225  10.532   2.616   1.211 -0.3030  0.2579  0.9735
   84MOL0     C11226  10.483   2.506   1.295 -0.5719 -0.0152 -0.0282
   84MOL0     C11227  10.589   2.399   1.305 -0.8910 -1.0024 -0.1496
   84MOL0     C11228  10.568   2.301   1.416 -0.0159  0.0550  0.5126
   84MOL0     O11229  10.662   2.198   1.415 -0.3869 -0.8189  0.0804
   84MOL0     C11230  10.627   2.084   1.341  0.3290 -0.4260  0.6198
   84MOL0     C11231  10.562   2.080   1.212 -0.4403  1.2714 -0.1189
   84MOL0     C11232  10.523   1.962   1.159 -0.0872  0.7253  0.5052
   84MOL0     C11233  10.433   1.973   1.042 -0.4559  0.2749  0.5169
   84MOL0     C11234  10.551   1.834   1.228 -0.7094 -0.9864 -0.1078
   84MOL0     C11235  10.519   1.698   1.170  0.4039  0.2805 -0.2018
   84MOL0     O11236  10.587   1.587   1.222 -0.2810  0.1866  0.1637
   84MOL0     C11237  10.719   1.596   1.183 -0.4709  1.2013 -0.1248
   84MOL0     C11238  10.816   1.546   1.271 -1.3893  0.5262  0.2406
   84MOL0     C11239  10.959   1.564   1.241  1.4827  0.0889  0.3937
   84MOL0     C11240  10.995   1.626   1.122 -0.0130  0.4829 -0.0614
   84MOL0     O11241  11.121   1.666   1.097 -0.5104  0.2150 -0.4770
   84MOL0     C11242  11.226   1.678   1.204  0.6546  1.3027  0.3437
   84MOL0     C11243  11.335   1.788   1.165 -0.1385  0.4935  0.4896
   84MOL0     C11244  11.414   1.751   1.042  0.1367  0.2340  0.5579
   84MOL0     C11245  11.518   1.857   1.020 -0.0170  0.8164  0.4285
   84MOL0     C11246  11.633   1.800   0.939 -0.0011 -0.4847  0.5118
   84MOL0     C11247  11.748   1.907   0.934 -0.6812  0.6107  0.1759
   84MOL0     C11248  11.836   1.879   0.817 -0.8359  0.1679  0.6900
   84MOL0     C11249  11.980   1.917   0.851  0.1966 -1.0166 -0.8287
   84MOL0    Cl11250  11.993   2.093   0.886 -0.2680  0.2411  0.2608
   84MOL0     C11251  10.890   1.663   1.033 -1.2736  0.4456 -0.7489
   84MOL0     C11252  10.757   1.643   1.057 -0.2328  0.2290 -0.5895
   84MOL0     O11253  10.427   1.684   1.095  0.4538  0.2325  0.1366
   84MOL0     C11254  10.607   1.843   1.355  0.6024  0.0517 -0.2084
   84MOL0     C11255  10.644   1.965   1.408 -0.3773  0.2411 -1.0281
   84MOL0     N11256  10.452   2.499   0.984 -0.7430 -0.5574  0.0898
   84MOL0     N11257  10.518   2.486   0.868  0.2152 -0.0568  0.4764
   84MOL0     C11258  11.055   2.983   1.307  0.0153 -1.1194 -1.1586
   84MOL0     C11259  11.068   3.121   1.346 -0.0637  0.3028 -1.3356
   84MOL0     C11260  11.113   3.570   1.259  0.3546 -0.5692  0.2191
   84MOL0     C11261  11.017   3.656   1.206  1.5381 -0.3089  0.3326
   84MOL0     C11262  11.010   3.796   1.233 -0.7780  0.7102 -0.8249
   84MOL0     C11263  11.108   3.843   1.328  0.1730 -0.3398  0.2344
   84MOL0     O11264  11.123   3.974   1.370 -0.1389  0.4352 -0.1084
   84MOL0     C11265  11.125   4.068   1.260  0.7657  0.7217 -0.1337
   84MOL0     C11266  11.256   4.104   1.202 -1.7283 -0.5077  0.0563
   84MOL0     C11267  11.358   4.148   1.310 -0.3077  0.5500  0.0333
   84MOL0     C11268  11.486   4.219   1.258 -0.7707 -0.5204  0.2937
   84MOL0     C11269  11.442   4.358   1.221 -1.0617 -0.3021 -0.5363
   84MOL0     C11270  11.432   4.474   1.184  0.5433  0.0888  0.1974
   84MOL0     C11271  11.197   3.760   1.381 -0.1525 -0.3586 -0.6294
   84MOL0     C11272  11.208   3.625   1.350  0.4450 -0.2338 -0.5074
   84MOL0     H11273  11.370   3.200   1.256  1.0021 -0.0485  0.2326
   84MOL0     H11274  11.368   2.963   1.168 -2.0964 -2.8327 -3.3232
   84MOL0     H11275  11.072   2.715   1.355  3.7751  0.6948 -0.6112
   84MOL0     H11276  10.989   2.722   1.196  0.0704  1.6792 -0.6580
   84MOL0     H11277  11.165   2.521   1.306 -1.1180  0.5263  0.8694
   84MOL0     H11278  11.024   2.488   1.206 -0.2486 -0.4188  0.3406
   84MOL0     H11279  11.169   2.629   1.019  0.4788  0.6972  2.2859
   84MOL0     H11280  11.298   2.541   1.102  0.5287  4.1495 -1.8277
   84MOL0     H11281  11.240   2.350   0.973 -0.5589 -1.7129 -1.7330
   84MOL0     H11282  11.111   2.320   1.081  0.9951 -2.4298 -2.2421
   84MOL0     H11283  11.111   2.472   0.827 -1.7774 -2.0318 -3.1802
   84MOL0     H11284  11.058   2.312   0.849  4.8028 -0.5708 -0.3025
   84MOL0     H11285  10.864   2.432   1.001  3.6183 -2.6055 -0.0430
   84MOL0     H11286  10.945   2.587   0.942  1.2733  0.7338  0.2775
   84MOL0     H11287  10.925   2.489   0.704  3.6156  0.6677  2.7084
   84MOL0     H11288  10.815   2.373   0.753  2.5969 -1.2653  2.3400
   84MOL0     H11289  10.681   2.545   0.669 -5.1103 -1.4101  3.3845
   84MOL0     H11290  10.753   2.678   0.756 -3.0494  1.1323  0.7390
   84MOL0     H11291  10.724   2.684   1.030 -0.3556  0.0791  2.0616
   84MOL0     H11292  10.623   2.662   1.251  1.2798 -0.8982 -1.0920
   84MOL0     H11293  10.465   2.703   1.215  2.9156  3.0615 -0.5146
   84MOL0     H11294  10.386   2.477   1.253 -0.0499  2.7268 -3.5328
   84MOL0     H11295  10.459   2.537   1.397 -2.2509 -1.4899  0.0820
   84MOL0     H11296  10.689   2.441   1.316 -0.6497 -2.2603  3.8523
   84MOL0     H11297  10.567   2.348   1.210 -2.2109  1.8246 -1.4942
   84MOL0     H11298  10.465   2.271   1.401 -0.0585  0.9159 -1.1244
   84MOL0     H11299  10.576   2.352   1.513 -1.6530 -1.2449  1.3780
   84MOL0     H11300  10.534   2.171   1.160  2.7277  1.7443 -1.2791
   84MOL0     H11301  10.334   2.013   1.066 -2.4177 -3.4462 -0.5872
   84MOL0     H11302  10.481   2.042   0.972 -1.1221  0.2231  0.0056
   84MOL0     H11303  10.418   1.889   0.973 -1.8651 -0.5087  1.7130
   84MOL0     H11304  10.784   1.519   1.371 -1.8261  2.2829  0.5945
   84MOL0     H11305  11.036   1.541   1.314  0.4378  1.4419  2.0112
   84MOL0     H11306  11.173   1.711   1.294 -1.7928  2.2835 -1.3645
   84MOL0     H11307  11.276   1.583   1.228 -1.2119  0.0978 -0.2708
   84MOL0     H11308  11.292   1.887   1.147 -0.8715  0.7243  3.0400
   84MOL0     H11309  11.407   1.787   1.248  1.3584  0.1369 -0.7542
   84MOL0     H11310  11.355   1.749   0.950  0.2421 -1.4583  0.4865
   84MOL0     H11311  11.449   1.649   1.061 -1.8673 -0.1389  2.6825
   84MOL0     H11312  11.472   1.939   0.964  2.4607 -0.2944 -3.6608
   84MOL0     H11313  11.566   1.888   1.113  1.0158  2.0744 -0.4895
   84MOL0     H11314  11.602   1.761   0.842 -2.7041 -1.8243  1.8216
   84MOL0     H11315  11.673   1.706   0.978  1.4623 -0.1278 -0.0697
   84MOL0     H11316  11.710   2.010   0.928 -0.3636  0.9207  2.5381
   84MOL0     H11317  11.801   1.886   1.027 -1.1251 -0.7539  0.1460
   84MOL0     H11318  11.793   1.937   0.735 -3.2247  2.9588  3.6273
   84MOL0     H11319  11.849   1.772   0.802 -1.7670  0.3642 -2.1744
   84MOL0     H11320  12.056   1.899   0.774  2.8789  1.1752  1.1382
   84MOL0     H11321  12.012   1.870   0.945  2.0255  1.6124 -0.0338
   84MOL0     H11322  10.912   1.693   0.931 -1.6098 -2.0080 -1.6041
   84MOL0     H11323  10.680   1.674   0.987 -0.9158 -2.4451 -1.1407
   84MOL0     H11324  10.635   1.748   1.399  1.0222  0.1042 -0.3578
   84MOL0     H11325  10.683   1.967   1.509 -1.3948 -0.0230 -0.6086
   84MOL0     H11326  10.967   2.925   1.331 -2.0765  2.0421 -0.6630
   84MOL0     H11327  10.987   3.177   1.392  0.5907 -0.4296  0.8223
   84MOL0     H11328  10.949   3.623   1.128  2.8860  0.4238 -1.2021
   84MOL0     H11329  10.936   3.856   1.180 -1.6903  1.1994  0.9113
   84MOL0     H11330  11.063   4.033   1.178 -0.6324 -0.7552  1.4626
   84MOL0     H11331  11.070   4.152   1.304 -0.1578 -0.7122  1.5514
   84MOL0     H11332  11.241   4.182   1.127 -1.1479 -0.4806 -0.0378
   84MOL0     H11333  11.298   4.011   1.161  1.2137  0.0767  1.4937
   84MOL0     H11334  11.391   4.060   1.366 -1.0859 -0.0636 -0.4646
   84MOL0     H11335  11.314   4.222   1.377  0.2633  1.0830 -0.1693
   84MOL0     H11336  11.548   4.181   1.176 -1.0274  1.7081 -1.0202
   84MOL0     H11337  11.560   4.235   1.337  0.8738  2.0509 -1.5930
   84MOL0     H11338  11.415   4.569   1.136  4.6593 -0.0694 -2.1082
   84MOL0     H11339  11.274   3.803   1.444  0.4466 -0.6603 -1.1501
   84MOL0     H11340  11.284   3.559   1.389  0.4977  0.2197  0.1803
   85MOL0     O11341   3.853   2.593   0.077  0.1947 -1.1925 -0.2308
   85MOL0     C11342   3.788   2.639   0.171  0.4022 -0.0063  0.6008
   85MOL0     O11343   3.655   2.679   0.179 -0.3104  0.0988  0.0612
   85MOL0     C11344   3.600   2.710   0.061 -0.5224 -0.0800 -0.1159
   85MOL0     C11345   3.582   2.605  -0.033 -0.0378  0.0715  0.0898
   85MOL0     C11346   3.526   2.629  -0.156  0.3320 -0.6982 -0.2236
   85MOL0     C11347   3.471   2.754  -0.185 -0.3019 -0.6693  1.0021
   85MOL0     O11348   3.402   2.791  -0.295 -0.4736 -0.1744 -0.0362
   85MOL0     C11349   3.284   2.719  -0.306  0.1139  1.0872 -0.1551
   85MOL0     C11350   3.179   2.815  -0.362 -0.2641 -0.4310  0.2922
   85MOL0     C11351   3.035   2.762  -0.386  0.1906  0.9391 -0.0602
   85MOL0     C11352   3.030   2.673  -0.514 -0.3422  0.1909 -0.4422
   85MOL0     C11353   2.903   2.592  -0.524  0.4000  0.0697  0.4490
   85MOL0     C11354   2.777   2.663  -0.477 -0.3526 -0.5370  0.9290
   85MOL0     C11355   2.648   2.584  -0.475  0.4542  0.0597  0.1948
   85MOL0     C11356   2.646   2.490  -0.611 -0.1894 -0.5352 -0.7487
   85MOL0     N11357   2.522   2.415  -0.633 -0.4676  0.3554 -0.7816
   85MOL0     C11358   2.457   2.336  -0.540  0.0018  0.6727 -0.3776
   85MOL0     C11359   2.339   2.302  -0.596  1.4221  0.5892  0.9916
   85MOL0     C11360   2.244   2.201  -0.528  0.3786  0.1450  0.4918
   85MOL0     C11361   2.177   2.129  -0.639  0.5377  0.5174  0.3465
   85MOL0     C11362   2.058   2.052  -0.585 -0.0825 -0.3307  0.4234
   85MOL0     C11363   1.995   1.977  -0.695  0.0185 -0.3499 -0.7125
   85MOL0     O11364   1.902   1.892  -0.635 -0.5613 -0.8026 -0.3310
   85MOL0     C11365   1.851   1.800  -0.721 -0.4802 -0.1827 -1.1366
   85MOL0     C11366   1.744   1.815  -0.804 -0.4844 -0.1113  0.5547
   85MOL0     C11367   1.711   1.719  -0.900  0.0439  0.3017  0.3647
   85MOL0     C11368   1.591   1.744  -0.981  0.1148 -0.5904 -0.5111
   85MOL0     C11369   1.792   1.601  -0.915 -0.0804 -0.8509  0.1297
   85MOL0     C11370   1.794   1.498  -1.027 -0.3100 -0.0129  0.4834
   85MOL0     O11371   1.878   1.392  -1.008 -0.5196 -0.2953  0.4642
   85MOL0     C11372   1.851   1.279  -1.088 -1.1455 -0.9256 -0.7878
   85MOL0     C11373   1.821   1.164  -1.020  0.1318 -0.8393  0.1274
   85MOL0     C11374   1.771   1.058  -1.088 -0.8330 -0.0652  0.8412
   85MOL0     C11375   1.761   1.059  -1.225  0.9523 -0.1186  0.3329
   85MOL0     O11376   1.706   0.950  -1.289  0.5070  0.2093  0.2457
   85MOL0     C11377   1.642   0.841  -1.212 -0.6416  0.5390 -0.0233
   85MOL0     C11378   1.573   0.750  -1.310 -0.1662 -0.4330  0.5763
   85MOL0     C11379   1.639   0.714  -1.446 -0.3080  0.2502 -0.5756
   85MOL0     C11380   1.566   0.613  -1.531 -0.2446  0.3248 -0.7756
   85MOL0     C11381   1.658   0.590  -1.657  0.0043 -0.0869  0.2286
   85MOL0     C11382   1.633   0.707  -1.749 -0.3496  0.0249 -0.0359
   85MOL0     C11383   1.737   0.697  -1.862  0.4220 -0.7553  0.8288
   85MOL0     C11384   1.673   0.717  -1.995 -0.1310 -0.2208 -0.1114
   85MOL0    Cl11385   1.625   0.889  -2.017  0.5264 -0.0511 -0.0150
   85MOL0     C11386   1.816   1.171  -1.286 -0.3539  0.3946  0.4241
   85MOL0     C11387   1.851   1.288  -1.223  0.2102 -0.1717  0.5138
   85MOL0     O11388   1.712   1.509  -1.114  0.0254 -1.1899  0.0201
   85MOL0     C11389   1.900   1.593  -0.826 -0.3844 -0.3759 -0.2216
   85MOL0     C11390   1.931   1.690  -0.734  0.6892  0.5800 -0.1152
   85MOL0     N11391   2.336   2.358  -0.721  0.2384 -0.2122 -0.4502
   85MOL0     N11392   2.446   2.418  -0.749  0.7686  0.1330 -1.5947
   85MOL0     C11393   3.491   2.858  -0.095 -0.4375  0.3167 -0.5528
   85MOL0     C11394   3.552   2.838   0.028  0.5364  0.5510  0.2363
   85MOL0     C11395   3.859   2.629   0.297  0.4048 -0.2140  0.4379
   85MOL0     C11396   3.805   2.707   0.404  0.0445 -0.5896  0.3698
   85MOL0     C11397   3.871   2.687   0.526 -0.4061 -0.6288 -0.5610
   85MOL0     C11398   3.983   2.603   0.546 -0.7040  0.1230 -0.5306
   85MOL0     O11399   4.035   2.568   0.665  0.1772  0.6445 -0.2102
   85MOL0     C11400   4.035   2.673   0.762  0.2206  0.0612 -0.1506
   85MOL0     C11401   4.118   2.635   0.880 -0.0639  0.2209 -0.5198
   85MOL0     C11402   4.098   2.716   1.004 -0.2688 -0.4398 -0.8056
   85MOL0     C11403   4.152   2.858   1.018  0.0438 -0.5975 -0.2550
   85MOL0     C11404   4.296   2.862   0.993 -0.4273  0.1071  0.0486
   85MOL0     C11405   4.419   2.846   0.988 -1.1448 -0.6048  0.2006
   85MOL0     C11406   4.033   2.538   0.435  0.2197  0.4579  0.0697
   85MOL0     C11407   3.969   2.542   0.314 -0.3675 -0.1156 -0.5723
   85MOL0     H11408   3.618   2.505  -0.013 -1.6376 -0.8322 -1.3138
   85MOL0     H11409   3.500   2.551  -0.226 -0.4875 -2.0023  1.4525
   85MOL0     H11410   3.304   2.638  -0.377 -0.1067  0.8635  0.0358
   85MOL0     H11411   3.247   2.674  -0.213  1.5491 -0.2534 -0.1900
   85MOL0     H11412   3.177   2.904  -0.299 -2.1401  0.7855 -1.3661
   85MOL0     H11413   3.217   2.864  -0.452  1.0510  1.7376  1.9174
   85MOL0     H11414   3.015   2.694  -0.302 -0.0454 -1.8868 -2.2524
   85MOL0     H11415   2.968   2.848  -0.387  1.1444  1.7279 -2.0674
   85MOL0     H11416   3.034   2.744  -0.596 -0.2992 -0.5940 -1.1297
   85MOL0     H11417   3.116   2.606  -0.519  0.2689  0.6562  2.0672
   85MOL0     H11418   2.892   2.560  -0.629  3.6838  0.8735 -0.2444
   85MOL0     H11419   2.921   2.506  -0.459 -0.4879 -0.0004  0.6131
   85MOL0     H11420   2.786   2.711  -0.379  0.8693  1.2505 -0.0041
   85MOL0     H11421   2.771   2.741  -0.554  4.4421  0.4860  1.2759
   85MOL0     H11422   2.641   2.530  -0.379  1.9207  1.1367  0.9418
   85MOL0     H11423   2.569   2.658  -0.456  1.3589  0.8290  1.0520
   85MOL0     H11424   2.730   2.419  -0.606  0.8503  0.4433 -2.9614
   85MOL0     H11425   2.660   2.538  -0.708  1.3821  0.1292 -0.2324
   85MOL0     H11426   2.483   2.297  -0.442 -1.1579 -1.6728 -0.9275
   85MOL0     H11427   2.309   2.130  -0.475  0.0465 -1.5006 -1.2091
   85MOL0     H11428   2.167   2.258  -0.474 -2.8504 -2.0237 -1.4663
   85MOL0     H11429   2.240   2.053  -0.687 -2.4247 -2.1535  0.3332
   85MOL0     H11430   2.159   2.189  -0.729  0.9761  0.5204  0.2579
   85MOL0     H11431   1.984   2.109  -0.529  0.3233  0.4343  0.1955
   85MOL0     H11432   2.086   1.968  -0.521 -0.3275 -1.5650 -1.0224
   85MOL0     H11433   2.074   1.929  -0.753  1.2578  2.3561 -1.4490
   85MOL0     H11434   1.936   2.042  -0.761 -0.3495  2.2340  1.9584
   85MOL0     H11435   1.698   1.913  -0.798  3.1464  2.4310 -5.0453
   85MOL0     H11436   1.619   1.750  -1.087 -1.0059  4.0834 -0.7916
   85MOL0     H11437   1.524   1.658  -0.977 -0.1997 -0.4189 -1.7104
   85MOL0     H11438   1.540   1.838  -0.958  3.2611  1.6736 -1.9930
   85MOL0     H11439   1.821   1.165  -0.912  0.8712  1.5222  0.1659
   85MOL0     H11440   1.746   0.968  -1.033 -0.6540 -2.8287 -3.1654
   85MOL0     H11441   1.715   0.784  -1.154 -1.3938 -1.0426 -0.5608
   85MOL0     H11442   1.564   0.880  -1.146 -1.6536  0.4232 -1.1029
   85MOL0     H11443   1.539   0.658  -1.261  0.8451 -0.8853  0.4493
   85MOL0     H11444   1.477   0.797  -1.332  0.3177 -0.3069 -1.4202
   85MOL0     H11445   1.742   0.689  -1.419 -0.7178  0.5123  1.3541
   85MOL0     H11446   1.655   0.809  -1.498  0.3900  1.8188  2.3087
   85MOL0     H11447   1.549   0.522  -1.473 -2.8972  1.1354 -0.1636
   85MOL0     H11448   1.467   0.651  -1.556  0.2536  1.7234 -0.7478
   85MOL0     H11449   1.636   0.488  -1.692  2.3365 -1.1600  1.5834
   85MOL0     H11450   1.762   0.576  -1.626 -0.7747 -1.6331  2.4619
   85MOL0     H11451   1.530   0.691  -1.782 -0.3748  0.9259 -0.4066
   85MOL0     H11452   1.642   0.808  -1.707  0.0814 -0.1387  0.2766
   85MOL0     H11453   1.779   0.597  -1.877 -1.1858 -1.1888 -1.1774
   85MOL0     H11454   1.807   0.781  -1.856 -1.0476  0.4896  1.0031
   85MOL0     H11455   1.582   0.657  -1.997 -0.1320 -0.2639  0.8055
   85MOL0     H11456   1.735   0.688  -2.080 -2.5178  1.4952 -2.5983
   85MOL0     H11457   1.819   1.168  -1.394  0.4748  1.3875  0.4010
   85MOL0     H11458   1.886   1.380  -1.268 -1.1789  0.1478  0.0605
   85MOL0     H11459   1.968   1.509  -0.830 -0.4120 -0.4023 -0.1220
   85MOL0     H11460   2.008   1.698  -0.659  0.9208 -0.2839 -0.2480
   85MOL0     H11461   3.461   2.957  -0.126 -3.6111 -0.1396  0.6807
   85MOL0     H11462   3.576   2.912   0.103  0.0172  0.6741  0.2881
   85MOL0     H11463   3.715   2.767   0.403 -0.0657 -0.7565  0.0143
   85MOL0     H11464   3.828   2.746   0.606  0.7732 -0.0395 -0.3436
   85MOL0     H11465   4.081   2.759   0.712  1.4589  2.3417  4.4010
   85MOL0     H11466   3.929   2.690   0.783  0.3344 -0.1637  0.6202
   85MOL0     H11467   4.225   2.638   0.860 -0.1465 -3.4266 -2.2708
   85MOL0     H11468   4.097   2.533   0.915  0.9676  0.5912  1.2985
   85MOL0     H11469   4.134   2.661   1.091 -1.3604  1.0323  0.6282
   85MOL0     H11470   3.991   2.723   1.025 -0.1429 -0.3174 -0.1842
   85MOL0     H11471   4.133   2.904   1.115 -1.8904  1.0961 -1.3610
   85MOL0     H11472   4.098   2.926   0.952  1.4197  0.8406  0.0463
   85MOL0     H11473   4.524   2.834   0.974 -0.9702  1.7408 -1.0784
   85MOL0     H11474   4.112   2.464   0.444 -3.3130 -3.6034  1.5122
   85MOL0     H11475   4.009   2.482   0.233  2.0313  1.2191 -0.4449
   86MOL0     O11476   5.533   7.906  10.807  0.1910 -0.3982  0.4189
   86MOL0     C11477   5.464   7.811  10.768 -0.1915 -0.2734  0.4105
   86MOL0     O11478   5.504   7.728  10.664  0.6917 -0.0299  0.6526
   86MOL0     C11479   5.618   7.745  10.590 -0.6667  0.2641  0.0045
   86MOL0     C11480   5.680   7.872  10.553 -0.8341 -0.2323 -0.8918
   86MOL0     C11481   5.786   7.877  10.466 -0.3813  0.4398 -0.0199
   86MOL0     C11482   5.847   7.758  10.420 -0.4400 -0.8702 -0.9084
   86MOL0     O11483   5.946   7.746  10.326  0.1583  0.1267 -0.6079
   86MOL0     C11484   5.999   7.847  10.251  0.4605  0.2481 -0.4569
   86MOL0     C11485   6.113   7.906  10.333  0.0984 -0.3152  0.0048
   86MOL0     C11486   6.187   8.017  10.246  0.3992 -0.9577  0.8370
   86MOL0     C11487   6.093   8.132  10.191  0.1278  0.3717  1.1211
   86MOL0     C11488   6.175   8.240  10.128  0.1767  0.7474 -0.3947
   86MOL0     C11489   6.219   8.202   9.992 -1.1362  0.4513  0.2126
   86MOL0     C11490   6.354   8.277   9.966  0.4464 -0.3300 -0.1336
   86MOL0     C11491   6.407   8.255   9.831 -0.5580  0.3626 -0.3216
   86MOL0     N11492   6.554   8.267   9.826  0.6036 -0.3263 -0.2851
   86MOL0     C11493   6.621   8.388   9.818 -0.6397  1.0351 -0.0780
   86MOL0     C11494   6.749   8.349   9.843 -0.6717 -0.0146  0.7131
   86MOL0     C11495   6.864   8.444   9.838  0.0182 -0.7676  0.0192
   86MOL0     C11496   6.922   8.452   9.980 -0.6845 -0.4062 -0.1534
   86MOL0     C11497   7.056   8.534  10.000 -0.3967  0.0175 -1.1516
   86MOL0     C11498   7.091   8.563  10.149  0.5416 -0.5252  0.8611
   86MOL0     O11499   6.979   8.608  10.223 -0.7072  0.6777 -0.7850
   86MOL0     C11500   6.928   8.729  10.202 -0.6796  0.7072  0.4976
   86MOL0     C11501   7.005   8.834  10.145  0.6679  0.7562  0.1057
   86MOL0     C11502   6.941   8.954  10.119 -0.4000 -0.3095 -0.1988
   86MOL0     C11503   7.029   9.058  10.050  0.2893 -0.6476  0.2843
   86MOL0     C11504   6.809   8.975  10.172 -1.5863  0.0443 -0.5153
   86MOL0     C11505   6.747   9.111  10.181 -0.9110  0.6201 -0.3743
   86MOL0     O11506   6.633   9.116  10.255 -0.0181 -0.3275  1.2307
   86MOL0     C11507   6.533   9.213  10.211 -0.5027 -0.2924 -0.0956
   86MOL0     C11508   6.493   9.225  10.081  0.6848  0.4579  0.1632
   86MOL0     C11509   6.389   9.317  10.036 -0.0518 -0.5185  0.1106
   86MOL0     C11510   6.333   9.407  10.136 -1.3321  0.0809  0.2039
   86MOL0     O11511   6.232   9.495  10.118  0.6605  0.2573  0.3567
   86MOL0     C11512   6.270   9.628  10.138  0.6316 -0.0678 -0.4858
   86MOL0     C11513   6.284   9.689  10.011  0.3951  0.7228 -0.8402
   86MOL0     C11514   6.160   9.695   9.918 -0.3320 -0.3170 -0.7661
   86MOL0     C11515   6.184   9.605   9.802  1.0405  0.3544 -0.4249
   86MOL0     C11516   6.090   9.649   9.680  0.4545  0.1228 -0.4717
   86MOL0     C11517   6.116   9.558   9.562 -0.4474 -0.1131 -0.4095
   86MOL0     C11518   6.016   9.585   9.453  0.6976  0.1849  0.0571
   86MOL0     C11519   5.988   9.467   9.354  0.8237  0.2333  0.2480
   86MOL0    Cl11520   6.131   9.465   9.250  0.0716 -0.1412 -0.0640
   86MOL0     C11521   6.378   9.382  10.273  0.4822 -0.4818  1.1799
   86MOL0     C11522   6.476   9.294  10.314  0.4877 -0.1494  0.0897
   86MOL0     O11523   6.791   9.203  10.122 -0.2402  0.1183  0.1952
   86MOL0     C11524   6.735   8.862  10.220  0.6357 -0.8199  0.2762
   86MOL0     C11525   6.798   8.744  10.249 -0.4448 -0.2081 -0.1610
   86MOL0     N11526   6.760   8.215   9.861 -0.0057 -0.8223 -0.0330
   86MOL0     N11527   6.644   8.164   9.856  1.2229  0.3281  0.0974
   86MOL0     C11528   5.804   7.628  10.464 -0.0023 -0.3527 -0.0217
   86MOL0     C11529   5.688   7.633  10.553  0.5209  0.4185  0.5750
   86MOL0     C11530   5.336   7.774  10.835 -0.4254 -1.0433  0.2683
   86MOL0     C11531   5.271   7.650  10.809 -0.2927  0.4586 -0.2847
   86MOL0     C11532   5.137   7.627  10.857  0.0650  0.4893  0.2473
   86MOL0     C11533   5.068   7.724  10.927  0.4006  0.6125 -1.1982
   86MOL0     O11534   4.945   7.701  10.985 -0.0574 -0.1158 -1.1327
   86MOL0     C11535   4.924   7.583  11.067  0.1049  0.4547 -0.1155
   86MOL0     C11536   4.806   7.596  11.151 -0.1219  0.5192  0.2307
   86MOL0     C11537   4.819   7.721  11.238 -0.0301 -0.1608 -0.7231
   86MOL0     C11538   4.695   7.784  11.301  0.2080  0.3636 -0.5850
   86MOL0     C11539   4.640   7.870  11.198 -0.0233 -0.1375  0.1532
   86MOL0     C11540   4.598   7.952  11.114 -0.7201  0.9581  0.0410
   86MOL0     C11541   5.134   7.851  10.955 -0.6477  0.2092  0.3219
   86MOL0     C11542   5.264   7.874  10.898  0.0061  0.6120 -0.5874
   86MOL0     H11543   5.647   7.966  10.598  3.5061 -0.1948  2.9098
   86MOL0     H11544   5.815   7.974  10.428  1.5903 -0.6177 -1.3280
   86MOL0     H11545   6.030   7.802  10.156 -0.4729 -1.2478 -0.0811
   86MOL0     H11546   5.927   7.924  10.221 -0.5814 -1.6353 -3.2031
   86MOL0     H11547   6.085   7.947  10.431 -0.3994  1.3792 -0.8052
   86MOL0     H11548   6.189   7.833  10.361  0.2049  0.1570  0.9877
   86MOL0     H11549   6.276   8.052  10.298 -0.5714  2.6843  0.2920
   86MOL0     H11550   6.224   7.963  10.159  0.0311 -2.1818  1.4140
   86MOL0     H11551   6.026   8.081  10.120  0.2287  0.4265  0.9871
   86MOL0     H11552   6.037   8.186  10.267  3.5993  3.5436  1.6634
   86MOL0     H11553   6.103   8.321  10.116 -2.1773 -1.0582  0.7952
   86MOL0     H11554   6.257   8.259  10.198 -0.7687 -5.0351  2.9797
   86MOL0     H11555   6.241   8.095   9.980  0.0706  0.8256 -1.4087
   86MOL0     H11556   6.152   8.231   9.911 -0.5883 -0.9838 -0.8077
   86MOL0     H11557   6.335   8.383   9.986  0.1591 -0.3425 -0.3370
   86MOL0     H11558   6.430   8.231  10.030  0.9734 -1.9535 -1.8372
   86MOL0     H11559   6.369   8.336   9.768  1.5522  2.6097  1.0901
   86MOL0     H11560   6.369   8.159   9.797 -0.0965 -0.6516  1.8758
   86MOL0     H11561   6.598   8.494   9.816  0.7296  1.3507 -0.5421
   86MOL0     H11562   6.940   8.429   9.761  0.2729  2.3270 -0.4718
   86MOL0     H11563   6.829   8.546   9.818  1.3887 -0.3624 -0.4666
   86MOL0     H11564   6.946   8.361  10.036  3.0289  0.9264  0.6875
   86MOL0     H11565   6.841   8.501  10.036 -3.2974 -2.6042 -1.8155
   86MOL0     H11566   7.066   8.629   9.946  3.1489  1.3367  1.4456
   86MOL0     H11567   7.131   8.462   9.968  0.3137  1.1244 -2.0551
   86MOL0     H11568   7.172   8.635  10.161 -1.0004  1.0810  2.2544
   86MOL0     H11569   7.126   8.467  10.188  0.0386 -0.3124  1.8496
   86MOL0     H11570   7.106   8.822  10.107 -0.9687 -4.1964 -3.7226
   86MOL0     H11571   7.055   9.148  10.106 -0.3652 -0.2821  0.0129
   86MOL0     H11572   7.123   9.012  10.018  1.6580 -0.2541  3.4147
   86MOL0     H11573   6.981   9.088   9.956  3.8829  2.9653 -0.6896
   86MOL0     H11574   6.520   9.156  10.002 -0.5058 -0.1220  0.2481
   86MOL0     H11575   6.362   9.312   9.931  1.8054 -0.3744 -0.4119
   86MOL0     H11576   6.179   9.672  10.179  0.1717 -2.9526  1.9244
   86MOL0     H11577   6.350   9.655  10.208 -1.5154  3.9218  0.7053
   86MOL0     H11578   6.322   9.790  10.028 -2.5912  2.7502 -4.7168
   86MOL0     H11579   6.373   9.640   9.970  2.5193  2.5433  1.2771
   86MOL0     H11580   6.151   9.801   9.894 -1.0504 -0.3353 -0.5891
   86MOL0     H11581   6.068   9.672   9.971  0.7361  1.2848  2.0195
   86MOL0     H11582   6.290   9.599   9.775  1.6916 -2.3201  2.1643
   86MOL0     H11583   6.163   9.503   9.834 -0.5593  0.4448 -1.0951
   86MOL0     H11584   6.112   9.752   9.652  2.2580 -0.1261 -0.1044
   86MOL0     H11585   5.985   9.637   9.707 -0.1515  2.4937 -1.5646
   86MOL0     H11586   6.217   9.573   9.524 -1.0906 -1.2830 -2.7263
   86MOL0     H11587   6.121   9.451   9.584  4.8715  0.1181  0.7986
   86MOL0     H11588   6.024   9.678   9.396 -0.1167 -1.8302 -3.6977
   86MOL0     H11589   5.920   9.594   9.504  0.8949  1.0843  0.2798
   86MOL0     H11590   5.902   9.479   9.287 -1.1792 -1.1232  2.4179
   86MOL0     H11591   5.974   9.367   9.396  1.0987 -1.5613 -3.5549
   86MOL0     H11592   6.336   9.449  10.347  1.9809  1.6443  0.2042
   86MOL0     H11593   6.499   9.290  10.420  1.1303  0.8801  0.0034
   86MOL0     H11594   6.635   8.882  10.257  0.4804  0.4961 -0.8132
   86MOL0     H11595   6.742   8.676  10.314 -4.0964  4.2212  1.8700
   86MOL0     H11596   5.853   7.540  10.426  0.5570  0.8444 -2.2789
   86MOL0     H11597   5.632   7.544  10.576  1.8958 -1.2757 -2.0472
   86MOL0     H11598   5.337   7.577  10.764 -0.3494 -0.3401  0.9160
   86MOL0     H11599   5.104   7.525  10.844  1.5250 -0.4311  2.9353
   86MOL0     H11600   4.903   7.500  10.998  2.6723  0.7878 -1.3925
   86MOL0     H11601   5.008   7.563  11.134  0.1110 -2.7707 -0.9152
   86MOL0     H11602   4.786   7.509  11.215  1.5421 -1.0789 -1.3028
   86MOL0     H11603   4.721   7.609  11.083  0.6306  0.5533 -0.7181
   86MOL0     H11604   4.876   7.795  11.181 -0.6121  1.3905  0.6439
   86MOL0     H11605   4.891   7.700  11.318  2.1900  4.8492 -1.0310
   86MOL0     H11606   4.732   7.834  11.391  3.3582  3.1075 -3.1188
   86MOL0     H11607   4.625   7.710  11.340  1.1545  0.5512  1.6495
   86MOL0     H11608   4.545   8.014  11.045  1.3730  2.3972 -0.3977
   86MOL0     H11609   5.093   7.941  11.000 -0.9941 -0.0882  0.6081
   86MOL0     H11610   5.313   7.970  10.915  0.6712  0.3505 -1.0089
   87MOL0     O11611   2.883   5.344  11.424 -0.1365  0.4840  0.7218
   87MOL0     C11612   2.786   5.322  11.497  0.4233  0.2560  0.4913
   87MOL0     O11613   2.708   5.212  11.489  0.1815  0.0903  0.0204
   87MOL0     C11614   2.741   5.135  11.381 -0.1023 -0.2411  0.4108
   87MOL0     C11615   2.842   5.044  11.386 -0.7403  0.7297  0.4282
   87MOL0     C11616   2.879   4.982  11.259  0.2117  0.7526  0.2162
   87MOL0     C11617   2.806   5.006  11.137 -0.9453 -0.1895 -1.2007
   87MOL0     O11618   2.853   4.940  11.034  0.6654  0.1307 -0.0256
   87MOL0     C11619   2.825   5.005  10.912  0.6598 -0.1947  0.5715
   87MOL0     C11620   2.869   4.916  10.809 -0.4136  0.3327  0.1738
   87MOL0     C11621   2.857   4.978  10.666  0.1741  0.7532  0.4071
   87MOL0     C11622   2.899   4.875  10.564  0.1758 -0.6525 -0.3014
   87MOL0     C11623   2.839   4.911  10.424  0.0321  0.2651  0.0058
   87MOL0     C11624   2.841   4.798  10.330  0.3142  0.3397 -0.4251
   87MOL0     C11625   2.805   4.830  10.194  0.6655  0.3596 -0.2276
   87MOL0     C11626   2.733   4.715  10.114  1.0732 -0.8674 -0.0554
   87MOL0     N11627   2.729   4.755   9.968  0.4606 -0.0693 -0.7669
   87MOL0     C11628   2.644   4.848   9.916 -0.5958  0.2808  0.2558
   87MOL0     C11629   2.679   4.854   9.780 -0.1204 -0.0466 -0.3776
   87MOL0     C11630   2.612   4.933   9.661 -0.6259 -0.0482 -0.8578
   87MOL0     C11631   2.728   5.025   9.601  0.7618  0.0410  0.6259
   87MOL0     C11632   2.678   5.095   9.467  0.1331 -1.1821 -1.1946
   87MOL0     C11633   2.794   5.176   9.389 -0.1123  0.4502  0.7789
   87MOL0     O11634   2.837   5.292   9.463  0.2131 -0.0278  0.3853
   87MOL0     C11635   2.778   5.410   9.434 -0.4772  0.2703 -0.9359
   87MOL0     C11636   2.819   5.483   9.320  1.2620 -0.7599  0.3542
   87MOL0     C11637   2.752   5.607   9.293  0.4323 -0.5643  0.3249
   87MOL0     C11638   2.798   5.675   9.166 -0.3629  0.8338 -0.9202
   87MOL0     C11639   2.660   5.658   9.392 -0.3889 -0.1077  0.5939
   87MOL0     C11640   2.579   5.784   9.365 -0.0084 -0.0351  0.1705
   87MOL0     O11641   2.502   5.817   9.468  0.0946 -1.0014  0.0056
   87MOL0     C11642   2.427   5.934   9.457  0.2003  0.5790  0.3316
   87MOL0     C11643   2.295   5.927   9.398 -0.2212  0.2628 -0.4741
   87MOL0     C11644   2.214   6.034   9.409  0.6484 -0.3406 -0.2527
   87MOL0     C11645   2.258   6.157   9.465  0.3607  0.4176 -0.6194
   87MOL0     O11646   2.178   6.265   9.479  0.5902 -0.4386 -0.4229
   87MOL0     C11647   2.035   6.240   9.474 -0.6949  1.0792  0.2041
   87MOL0     C11648   1.971   6.369   9.536 -0.8625  0.6826  0.8242
   87MOL0     C11649   1.821   6.366   9.515 -0.4830 -0.1815  0.3764
   87MOL0     C11650   1.742   6.460   9.418  0.2742 -0.2854  0.0820
   87MOL0     C11651   1.600   6.427   9.402  0.7800 -0.5282  0.3325
   87MOL0     C11652   1.524   6.492   9.517  0.0074 -0.3328  0.2215
   87MOL0     C11653   1.374   6.503   9.498 -0.4425  0.2785  0.2776
   87MOL0     C11654   1.321   6.364   9.442 -0.6244  0.3530  0.5271
   87MOL0    Cl11655   1.349   6.217   9.545  0.3641 -0.2639  0.5589
   87MOL0     C11656   2.377   6.159   9.528  0.4253  0.5881 -0.4521
   87MOL0     C11657   2.463   6.052   9.521 -0.0771 -0.5659 -0.1866
   87MOL0     O11658   2.588   5.849   9.264 -0.7838 -0.2818 -0.4148
   87MOL0     C11659   2.636   5.584   9.513  0.4722  0.4227 -0.4265
   87MOL0     C11660   2.690   5.459   9.533 -0.4963 -0.5400 -0.7078
   87MOL0     N11661   2.787   4.770   9.764  0.6973 -0.3230  0.3120
   87MOL0     N11662   2.821   4.724   9.877  0.3182  0.8599  0.9504
   87MOL0     C11663   2.707   5.102  11.147  0.1628  0.0052  0.1147
   87MOL0     C11664   2.667   5.160  11.268 -0.1514  0.1300  1.3220
   87MOL0     C11665   2.756   5.426  11.594 -0.2477  0.0520  0.6704
   87MOL0     C11666   2.689   5.383  11.708  0.0400 -0.1207  0.0449
   87MOL0     C11667   2.646   5.485  11.796 -0.2893 -1.0017  0.0983
   87MOL0     C11668   2.665   5.623  11.772 -0.0087  0.3429 -0.5323
   87MOL0     O11669   2.597   5.699  11.862 -0.7605 -0.3237  0.4760
   87MOL0     C11670   2.588   5.842  11.846 -0.8227  0.7719  1.0000
   87MOL0     C11671   2.697   5.915  11.913  0.6892  0.3382 -0.3524
   87MOL0     C11672   2.699   6.064  11.872 -0.1796  0.7733 -0.5278
   87MOL0     C11673   2.758   6.149  11.991  0.2322  0.1749  0.4745
   87MOL0     C11674   2.747   6.288  11.956  0.3869  1.2177 -0.1536
   87MOL0     C11675   2.743   6.408  11.923  0.3346  0.5702 -0.9095
   87MOL0     C11676   2.741   5.653  11.664  0.2800  0.6142  0.2785
   87MOL0     C11677   2.793   5.556  11.577 -0.3561  0.1659  0.4399
   87MOL0     H11678   2.914   5.039  11.467  1.5660  1.3571 -1.4280
   87MOL0     H11679   2.952   4.902  11.246 -0.7293  0.1799 -2.1034
   87MOL0     H11680   2.722   5.037  10.892  1.8612  3.0575 -1.2860
   87MOL0     H11681   2.887   5.095  10.909  0.3160  0.1508 -4.3170
   87MOL0     H11682   2.975   4.891  10.820 -0.1644  1.4092  0.3012
   87MOL0     H11683   2.811   4.824  10.824 -0.9974  0.4643 -1.1438
   87MOL0     H11684   2.757   5.018  10.652  0.6456  1.5297 -0.8882
   87MOL0     H11685   2.939   5.050  10.658  0.3827  0.3322 -1.9215
   87MOL0     H11686   3.007   4.858  10.571  0.3262  0.7059  2.0570
   87MOL0     H11687   2.852   4.781  10.595 -1.5239 -0.1133 -1.1212
   87MOL0     H11688   2.737   4.947  10.438 -0.8874 -0.3239 -4.0143
   87MOL0     H11689   2.901   4.992  10.385 -0.3358 -0.8037 -3.1043
   87MOL0     H11690   2.936   4.743  10.332 -0.8964 -2.0099 -2.0399
   87MOL0     H11691   2.765   4.724  10.357  2.9956 -2.7149 -0.6591
   87MOL0     H11692   2.735   4.913  10.190  2.8430  2.3349  0.7368
   87MOL0     H11693   2.892   4.868  10.138  2.1600 -0.9875  1.0737
   87MOL0     H11694   2.630   4.707  10.152 -0.1413 -0.6468 -3.0060
   87MOL0     H11695   2.775   4.618  10.139  1.7160 -0.9501 -1.3525
   87MOL0     H11696   2.554   4.879   9.969 -1.0719  0.6708 -0.7496
   87MOL0     H11697   2.587   4.861   9.583  0.7790 -1.4965 -0.0379
   87MOL0     H11698   2.524   4.988   9.695 -0.3998 -0.3111  0.2014
   87MOL0     H11699   2.820   4.971   9.575 -0.8313 -0.9631 -3.8102
   87MOL0     H11700   2.760   5.104   9.670 -0.7955  1.7203 -0.5086
   87MOL0     H11701   2.608   5.175   9.493  3.6329  1.3147  1.4043
   87MOL0     H11702   2.639   5.026   9.392  0.8199  1.6203 -4.4136
   87MOL0     H11703   2.766   5.205   9.287 -0.4615 -3.8226 -0.5245
   87MOL0     H11704   2.866   5.098   9.367 -2.8984 -1.9817 -0.4422
   87MOL0     H11705   2.904   5.442   9.267  0.4384 -3.3104  0.8403
   87MOL0     H11706   2.872   5.750   9.195 -0.7753  0.6665  0.6482
   87MOL0     H11707   2.843   5.598   9.103 -2.9691 -2.4355  0.8516
   87MOL0     H11708   2.713   5.713   9.108 -1.1731 -1.5064 -1.4069
   87MOL0     H11709   2.260   5.834   9.353 -2.6330  0.3751  1.0075
   87MOL0     H11710   2.108   6.024   9.389  0.4175 -1.2802  1.2673
   87MOL0     H11711   2.002   6.227   9.370  0.0033 -3.8716  0.3626
   87MOL0     H11712   2.001   6.162   9.542 -1.4359  2.3504  1.3345
   87MOL0     H11713   1.988   6.371   9.644  1.0889  1.1759  0.5367
   87MOL0     H11714   2.015   6.457   9.489  0.7782  2.0599  4.5314
   87MOL0     H11715   1.775   6.396   9.610 -1.6511 -0.3466 -0.1242
   87MOL0     H11716   1.782   6.267   9.489  0.2632 -0.3252 -0.2325
   87MOL0     H11717   1.754   6.559   9.462 -2.9565 -0.3834  1.4125
   87MOL0     H11718   1.788   6.453   9.319  0.6857 -1.4895  0.3360
   87MOL0     H11719   1.591   6.318   9.395  2.5293 -0.8486  2.1402
   87MOL0     H11720   1.555   6.481   9.318 -0.8195 -3.1890 -0.6472
   87MOL0     H11721   1.543   6.436   9.609  1.1873  0.5847  0.5599
   87MOL0     H11722   1.558   6.595   9.533  0.1061 -0.6444  2.3874
   87MOL0     H11723   1.369   6.574   9.415 -0.0363 -1.9307 -1.7313
   87MOL0     H11724   1.304   6.542   9.573 -0.3943  1.2794 -0.1837
   87MOL0     H11725   1.345   6.340   9.338 -1.6309 -1.7918  0.7297
   87MOL0     H11726   1.215   6.377   9.421 -0.0827  1.3115 -2.0156
   87MOL0     H11727   2.410   6.240   9.591  1.0836  0.5280 -0.7074
   87MOL0     H11728   2.565   6.066   9.557 -0.1604  2.6321 -0.9101
   87MOL0     H11729   2.577   5.623   9.595  1.6479  0.1521  0.5813
   87MOL0     H11730   2.677   5.400   9.623  0.7625 -0.8894 -0.7352
   87MOL0     H11731   2.646   5.126  11.060 -1.3486 -0.4281  1.0136
   87MOL0     H11732   2.581   5.225  11.282 -1.8046 -2.1311  2.4080
   87MOL0     H11733   2.667   5.277  11.720 -1.2015 -0.1228 -1.8351
   87MOL0     H11734   2.577   5.454  11.874 -2.1775 -2.5762 -2.0479
   87MOL0     H11735   2.567   5.878  11.744  0.1791  1.1986  0.9368
   87MOL0     H11736   2.499   5.873  11.902 -0.7840  1.6392  0.5990
   87MOL0     H11737   2.792   5.875  11.878  0.9005  1.2665 -0.8682
   87MOL0     H11738   2.689   5.922  12.022  3.0175  6.2492 -0.1852
   87MOL0     H11739   2.596   6.094  11.848 -1.4186  1.2728  4.3703
   87MOL0     H11740   2.774   6.079  11.793  1.0546 -1.8015  0.0730
   87MOL0     H11741   2.861   6.126  12.018 -0.0925 -0.4037  1.2658
   87MOL0     H11742   2.701   6.138  12.084  2.9349 -3.1085  1.9573
   87MOL0     H11743   2.745   6.509  11.888  2.0721  1.5446  1.7911
   87MOL0     H11744   2.769   5.754  11.636  3.8927 -0.3018 -0.0235
   87MOL0     H11745   2.847   5.585  11.488  0.3750 -2.1341  0.0552
   88MOL0     O11746   7.843  11.451  10.322  0.1995 -0.0958  0.1439
   88MOL0     C11747   7.964  11.476  10.312 -0.5684 -0.4384 -0.8963
   88MOL0     O11748   8.057  11.426  10.392 -0.2176  0.0896 -0.6123
   88MOL0     C11749   8.029  11.318  10.468  0.3838 -0.2699  0.0756
   88MOL0     C11750   7.936  11.326  10.571 -0.5877 -0.1234 -0.3283
   88MOL0     C11751   7.917  11.213  10.650  0.2383 -0.2922 -0.3234
   88MOL0     C11752   7.984  11.101  10.630  0.3591  0.2080 -0.5010
   88MOL0     O11753   7.915  11.003  10.702  1.1143 -0.3921 -0.3366
   88MOL0     C11754   7.947  10.871  10.675  0.6265 -0.0434 -0.2435
   88MOL0     C11755   7.893  10.819  10.539  0.2828 -0.0728 -0.7987
   88MOL0     C11756   7.923  10.672  10.525 -0.0392  1.5586  0.0439
   88MOL0     C11757   7.860  10.629  10.384  0.2512  0.8794 -0.1134
   88MOL0     C11758   7.843  10.471  10.377 -0.2772  0.0534 -0.2261
   88MOL0     C11759   7.763  10.417  10.259 -0.4381  1.0379  0.3746
   88MOL0     C11760   7.710  10.275  10.301  1.1514  0.5378  0.7689
   88MOL0     C11761   7.580  10.229  10.232 -0.6032 -0.2250 -0.7629
   88MOL0     N11762   7.473  10.328  10.268  0.1995 -0.0043  0.0743
   88MOL0     C11763   7.372  10.296  10.360 -0.1870 -0.4147  0.4786
   88MOL0     C11764   7.281  10.401  10.338 -0.3201 -0.5746 -0.2708
   88MOL0     C11765   7.141  10.367  10.389  0.6285 -0.5446  0.7699
   88MOL0     C11766   7.112  10.417  10.527  0.3588  0.8916 -0.9697
   88MOL0     C11767   6.959  10.397  10.555 -0.0950  0.4071 -0.0598
   88MOL0     C11768   6.914  10.370  10.694  0.1708 -0.1502 -0.1838
   88MOL0     O11769   6.792  10.317  10.681  0.8516 -0.0695 -0.5846
   88MOL0     C11770   6.744  10.259  10.796 -0.1749  0.0216 -0.4180
   88MOL0     C11771   6.621  10.210  10.773  0.4865 -0.3675 -1.0859
   88MOL0     C11772   6.554  10.124  10.865 -0.2626 -0.0008 -0.7331
   88MOL0     C11773   6.410  10.087  10.831 -0.0631 -0.1886 -1.4091
   88MOL0     C11774   6.615  10.098  10.983 -0.8080  0.4592 -1.6115
   88MOL0     C11775   6.561  10.005  11.073  0.8465 -0.2482  0.3965
   88MOL0     O11776   6.495  10.062  11.176  1.1956  0.1457  0.0691
   88MOL0     C11777   6.436   9.985  11.276  0.3224 -0.0479  0.9783
   88MOL0     C11778   6.520   9.923  11.367 -0.1260 -0.2659  0.8696
   88MOL0     C11779   6.471   9.827  11.453 -0.1894 -1.1389  0.4355
   88MOL0     C11780   6.334   9.786  11.443  0.0111  0.2535  0.1457
   88MOL0     O11781   6.287   9.700  11.537 -0.0933 -0.0755  0.1780
   88MOL0     C11782   6.371   9.619  11.608 -0.5699  0.7951 -0.0011
   88MOL0     C11783   6.297   9.486  11.648  0.8176 -0.2640  0.6044
   88MOL0     C11784   6.193   9.518  11.761 -0.8032  0.5591  0.0908
   88MOL0     C11785   6.112   9.394  11.790 -0.1072 -0.4763  0.0249
   88MOL0     C11786   6.042   9.416  11.922 -0.9885  0.8499 -0.1230
   88MOL0     C11787   5.932   9.318  11.935 -0.2967 -0.1229 -0.2273
   88MOL0     C11788   5.868   9.315  12.073 -0.0622 -0.2801  0.1358
   88MOL0     C11789   5.850   9.177  12.131  0.4503  0.3784  0.0849
   88MOL0    Cl11790   5.793   9.216  12.300  0.1570  0.2532  0.2178
   88MOL0     C11791   6.247   9.844  11.349  0.0578  0.2763 -0.7746
   88MOL0     C11792   6.296   9.942  11.264 -0.0145  0.0475 -0.3084
   88MOL0     O11793   6.565   9.889  11.049 -0.3317  0.0458 -0.0033
   88MOL0     C11794   6.750  10.142  11.003 -0.1127 -1.0130  0.3718
   88MOL0     C11795   6.809  10.239  10.912 -0.0100  0.2404  0.8155
   88MOL0     N11796   7.321  10.482  10.233  0.7418  0.1194  0.0613
   88MOL0     N11797   7.430  10.435  10.189  0.0980  0.4387  0.0531
   88MOL0     C11798   8.083  11.092  10.533  0.8545 -1.2895 -0.1682
   88MOL0     C11799   8.113  11.206  10.453 -0.3135 -0.2407 -0.6196
   88MOL0     C11800   7.992  11.572  10.211 -0.5342 -0.2002 -0.3251
   88MOL0     C11801   8.116  11.566  10.140 -0.6728  0.2721 -0.3791
   88MOL0     C11802   8.133  11.662  10.035  0.0950 -0.3817  0.0150
   88MOL0     C11803   8.038  11.761  10.001 -0.1951  0.1206 -1.1691
   88MOL0     O11804   8.039  11.858   9.901  0.1688  0.0171  0.1384
   88MOL0     C11805   8.136  11.833   9.798 -0.7318 -0.3273 -0.7061
   88MOL0     C11806   8.098  11.928   9.680 -0.3166  0.4046 -0.2262
   88MOL0     C11807   8.000  11.854   9.588 -0.0205 -0.8279 -0.4431
   88MOL0     C11808   7.852  11.897   9.609 -1.2050 -0.0453 -0.2357
   88MOL0     C11809   7.771  11.799   9.533 -0.7297  0.3084  0.3452
   88MOL0     C11810   7.709  11.702   9.486 -0.6540 -0.0592  0.8506
   88MOL0     C11811   7.918  11.759  10.076  0.2816  0.1484  0.7528
   88MOL0     C11812   7.892  11.663  10.180 -0.1451 -0.6445 -0.0485
   88MOL0     H11813   7.876  11.414  10.592  0.5963  0.3220  1.4278
   88MOL0     H11814   7.826  11.209  10.710 -1.5064  0.5465 -2.7346
   88MOL0     H11815   8.055  10.859  10.687  0.5378  0.1528  0.8396
   88MOL0     H11816   7.899  10.810  10.751 -0.7917  0.4679 -0.7072
   88MOL0     H11817   7.784  10.828  10.545  0.1275 -2.2483  1.1502
   88MOL0     H11818   7.918  10.886  10.457  0.1199 -0.0789 -0.8547
   88MOL0     H11819   8.028  10.642  10.533 -0.2065  0.7670 -0.6253
   88MOL0     H11820   7.869  10.617  10.603  2.5091 -0.8236  0.2618
   88MOL0     H11821   7.759  10.665  10.364 -0.0302 -0.9809 -2.4561
   88MOL0     H11822   7.931  10.669  10.310  0.0227 -0.7751 -1.2899
   88MOL0     H11823   7.933  10.411  10.389 -0.1694  0.3190  0.3131
   88MOL0     H11824   7.791  10.449  10.471 -2.2209 -0.7078 -1.4039
   88MOL0     H11825   7.682  10.483  10.229  0.3687  1.5517 -0.7585
   88MOL0     H11826   7.821  10.407  10.166 -2.0156  3.5274 -0.9690
   88MOL0     H11827   7.781  10.197  10.274  1.0741  0.7964 -0.2258
   88MOL0     H11828   7.688  10.269  10.408 -1.1156 -3.9240  0.2826
   88MOL0     H11829   7.566  10.125  10.262  1.4702 -0.6983 -1.2942
   88MOL0     H11830   7.600  10.224  10.125  3.6310 -4.0079 -0.0954
   88MOL0     H11831   7.367  10.213  10.430 -0.0199 -1.2200 -0.4564
   88MOL0     H11832   7.081  10.417  10.312  3.9880 -1.9400 -3.0894
   88MOL0     H11833   7.136  10.258  10.381  2.9284 -0.5968 -0.7572
   88MOL0     H11834   7.126  10.525  10.527 -0.4447  1.0503  0.9682
   88MOL0     H11835   7.171  10.365  10.603 -0.0110  1.6946 -0.1199
   88MOL0     H11836   6.934  10.306  10.499 -0.1907  0.4203 -0.0404
   88MOL0     H11837   6.899  10.472  10.503  0.5015  1.3094  0.5361
   88MOL0     H11838   6.925  10.455  10.761 -3.2523  0.7076 -0.5214
   88MOL0     H11839   6.987  10.301  10.738  2.2211  1.7190 -0.4815
   88MOL0     H11840   6.581  10.248  10.680 -2.0576 -1.4410 -0.5355
   88MOL0     H11841   6.357  10.039  10.914 -0.5680  1.5410 -0.6943
   88MOL0     H11842   6.352  10.177  10.808  0.2537 -0.3981 -3.1655
   88MOL0     H11843   6.404  10.016  10.748  0.7661  0.4769 -2.0508
   88MOL0     H11844   6.626   9.942  11.369 -0.0532 -0.5805  0.1896
   88MOL0     H11845   6.538   9.786  11.529  0.2919 -1.5280 -0.1917
   88MOL0     H11846   6.464   9.600  11.553 -2.0866  3.3963 -3.9150
   88MOL0     H11847   6.405   9.674  11.697  1.1897  1.6391 -1.1445
   88MOL0     H11848   6.245   9.430  11.570  2.0664 -2.6213  1.3681
   88MOL0     H11849   6.370   9.423  11.700 -1.2783 -0.2382  3.8251
   88MOL0     H11850   6.124   9.594  11.722 -1.9544 -0.1454  0.7059
   88MOL0     H11851   6.252   9.549  11.847  1.5318 -1.8989 -0.4813
   88MOL0     H11852   6.055   9.359  11.704  0.4697 -4.0953  0.9355
   88MOL0     H11853   6.182   9.310  11.801  0.4264  0.2543  3.0990
   88MOL0     H11854   5.990   9.512  11.927 -2.2332  0.1256  1.7672
   88MOL0     H11855   6.116   9.414  12.002 -2.3457  1.5250  1.2037
   88MOL0     H11856   5.855   9.349  11.863 -1.9377 -2.7479  0.2668
   88MOL0     H11857   5.957   9.217  11.902 -0.8610  0.5123 -2.7694
   88MOL0     H11858   5.766   9.355  12.064  0.6645  1.8444  0.7796
   88MOL0     H11859   5.931   9.377  12.137  2.7674 -1.9108 -0.9010
   88MOL0     H11860   5.940   9.116  12.136  0.8147  1.0102  1.7142
   88MOL0     H11861   5.772   9.122  12.077  1.1432  0.4107 -0.9865
   88MOL0     H11862   6.149   9.799  11.354  1.5790 -3.2994 -0.4198
   88MOL0     H11863   6.226   9.982  11.191 -1.9803  0.7462  1.8699
   88MOL0     H11864   6.820  10.129  11.086  0.9791  0.3358 -0.2938
   88MOL0     H11865   6.909  10.273  10.935  0.5589 -0.4024 -0.6244
   88MOL0     H11866   8.126  10.998  10.503 -0.2928 -1.3461 -1.7500
   88MOL0     H11867   8.194  11.200  10.380  3.7004 -0.0068  3.3408
   88MOL0     H11868   8.188  11.486  10.158 -2.3005 -0.7560  1.9860
   88MOL0     H11869   8.208  11.635   9.961 -1.0075 -1.3540 -0.7923
   88MOL0     H11870   8.237  11.868   9.824 -0.4778 -1.6525  0.2397
   88MOL0     H11871   8.151  11.726   9.779  2.1429  0.1552 -1.7591
   88MOL0     H11872   8.184  11.957   9.620 -2.7832  1.8102 -3.3881
   88MOL0     H11873   8.052  12.018   9.722 -1.6625  0.9914 -2.7411
   88MOL0     H11874   8.002  11.750   9.624 -2.2031 -1.1651 -1.1342
   88MOL0     H11875   8.026  11.859   9.482  0.7360  0.0752 -0.2246
   88MOL0     H11876   7.830  11.995   9.567  2.0049  0.1809 -1.6357
   88MOL0     H11877   7.811  11.893   9.710 -0.8699 -0.1293 -0.1025
   88MOL0     H11878   7.660  11.619   9.440  1.8672 -0.2987 -1.6972
   88MOL0     H11879   7.843  11.837  10.068  0.9229  0.6182 -1.0112
   88MOL0     H11880   7.799  11.676  10.233 -1.1901  1.5699 -2.2534
   89MOL0     O11881   6.557   4.754   1.219  0.4419 -0.1667  0.3361
   89MOL0     C11882   6.574   4.703   1.332 -0.0799 -0.0569  0.4852
   89MOL0     O11883   6.509   4.733   1.442 -0.2856 -0.3094 -0.0910
   89MOL0     C11884   6.412   4.830   1.458 -0.0858  0.4388  0.4746
   89MOL0     C11885   6.332   4.889   1.360  0.8751 -0.0995 -0.1097
   89MOL0     C11886   6.235   4.984   1.395 -0.4877  1.1435  0.5079
   89MOL0     C11887   6.230   5.029   1.531 -0.0238  0.1777 -0.4647
   89MOL0     O11888   6.128   5.103   1.588  0.3331 -0.0431 -0.2188
   89MOL0     C11889   6.010   5.139   1.507  0.1473 -0.8426 -0.1863
   89MOL0     C11890   5.893   5.196   1.585 -0.0194  0.8312 -0.1687
   89MOL0     C11891   5.925   5.340   1.615 -0.2421  0.4499 -0.6469
   89MOL0     C11892   5.837   5.438   1.536  0.0434  0.5520  0.0591
   89MOL0     C11893   5.898   5.587   1.544  0.5135 -0.2655  0.0257
   89MOL0     C11894   5.808   5.678   1.469 -0.2921 -0.1505 -0.4046
   89MOL0     C11895   5.701   5.724   1.562  0.2914  0.0158 -0.9242
   89MOL0     C11896   5.609   5.824   1.482  0.4414  0.0206  0.9637
   89MOL0     N11897   5.515   5.895   1.568 -0.3637  0.0615  0.2310
   89MOL0     C11898   5.403   5.841   1.617  1.4615 -0.3586 -0.4297
   89MOL0     C11899   5.364   5.931   1.708 -0.3240  0.0899 -0.2545
   89MOL0     C11900   5.244   5.942   1.799  0.3029  0.6375  0.8698
   89MOL0     C11901   5.153   6.066   1.795  0.2153 -1.1037 -0.2587
   89MOL0     C11902   5.220   6.202   1.815 -0.1000 -0.0649 -0.2097
   89MOL0     C11903   5.304   6.183   1.940  0.1119 -0.2879 -0.0042
   89MOL0     O11904   5.266   6.287   2.032  0.0594  0.2695  0.4744
   89MOL0     C11905   5.149   6.259   2.109 -1.0066  0.1010 -0.3463
   89MOL0     C11906   5.071   6.368   2.148 -0.2414  0.3161 -0.2738
   89MOL0     C11907   4.962   6.364   2.235 -0.4612  0.9054  0.6287
   89MOL0     C11908   4.889   6.499   2.265 -0.3271 -0.2814  0.5406
   89MOL0     C11909   4.920   6.231   2.277 -0.0103  0.2787 -0.0325
   89MOL0     C11910   4.803   6.202   2.373  1.1947  0.3200  0.0557
   89MOL0     O11911   4.788   6.069   2.414 -0.1050 -0.2134 -0.4699
   89MOL0     C11912   4.720   6.035   2.531  1.0196  0.0415 -0.1019
   89MOL0     C11913   4.592   6.094   2.561 -0.4925  0.0016  0.4706
   89MOL0     C11914   4.531   6.061   2.683  1.0697 -0.0104 -0.2023
   89MOL0     C11915   4.595   5.984   2.782 -0.6103  0.4458  0.1728
   89MOL0     O11916   4.526   5.948   2.889 -0.2092 -0.7921 -0.2945
   89MOL0     C11917   4.588   5.962   3.016 -0.6543 -0.1108  0.7886
   89MOL0     C11918   4.552   6.099   3.078 -0.7670  0.7200 -0.4392
   89MOL0     C11919   4.434   6.109   3.158 -0.5809  0.7312 -0.4241
   89MOL0     C11920   4.414   6.245   3.216  0.1613  0.6605 -0.6584
   89MOL0     C11921   4.263   6.297   3.240 -0.9050 -0.2096  0.0667
   89MOL0     C11922   4.193   6.201   3.339  1.0220 -0.5916 -0.3455
   89MOL0     C11923   4.041   6.219   3.337 -0.3825  0.0042  0.7047
   89MOL0     C11924   3.966   6.129   3.429 -0.7451  0.6605 -0.3035
   89MOL0    Cl11925   3.796   6.181   3.458 -0.0183 -0.3751 -0.3286
   89MOL0     C11926   4.716   5.924   2.749 -1.0357 -0.0572  0.2481
   89MOL0     C11927   4.780   5.942   2.624  1.1373  0.0774 -0.5983
   89MOL0     O11928   4.737   6.298   2.419  0.4062 -0.0166 -0.3461
   89MOL0     C11929   4.994   6.121   2.233 -0.3448  1.1985  0.3069
   89MOL0     C11930   5.117   6.142   2.162 -0.1803  0.0253 -0.3902
   89MOL0     N11931   5.461   6.027   1.726 -0.2029  0.1789  0.2346
   89MOL0     N11932   5.549   6.006   1.634 -0.4016 -0.1734  0.2095
   89MOL0     C11933   6.319   4.974   1.624 -0.0346 -0.5677  0.1222
   89MOL0     C11934   6.411   4.882   1.584 -0.5674 -0.5373 -0.1650
   89MOL0     C11935   6.679   4.595   1.336 -0.0238 -0.4186  0.1785
   89MOL0     C11936   6.721   4.516   1.227  0.0966  0.0889  0.1016
   89MOL0     C11937   6.803   4.394   1.236  0.8516 -0.1743 -1.6090
   89MOL0     C11938   6.833   4.343   1.370  0.1117 -0.2088  0.4590
   89MOL0     O11939   6.912   4.229   1.390 -0.3606 -1.4939 -0.0081
   89MOL0     C11940   6.937   4.131   1.280  0.1918 -0.5574  0.7160
   89MOL0     C11941   7.020   4.010   1.324 -0.6940 -0.4313 -0.2358
   89MOL0     C11942   6.972   3.943   1.456 -0.5787  0.8733 -0.8170
   89MOL0     C11943   7.085   3.836   1.504  0.5965 -0.0750  0.1013
   89MOL0     C11944   7.208   3.899   1.542 -0.1203 -0.5264  0.3219
   89MOL0     C11945   7.299   3.968   1.581  0.2997  0.2243  0.8583
   89MOL0     C11946   6.782   4.412   1.481  0.4216 -1.0241  0.4810
   89MOL0     C11947   6.712   4.540   1.464 -0.1976  0.1129 -1.7010
   89MOL0     H11948   6.343   4.871   1.254 -0.2340  1.4237 -0.5140
   89MOL0     H11949   6.165   5.015   1.318 -1.2810  0.7643  1.0667
   89MOL0     H11950   6.024   5.211   1.426  0.3706 -0.6843 -0.0067
   89MOL0     H11951   5.991   5.045   1.455  0.5145 -0.2176 -1.4872
   89MOL0     H11952   5.791   5.178   1.548 -0.3879 -0.2439  1.2688
   89MOL0     H11953   5.907   5.133   1.673  0.1328  0.3672 -0.5176
   89MOL0     H11954   5.899   5.363   1.719  1.0111  0.8582 -0.4078
   89MOL0     H11955   6.032   5.360   1.608  0.3737 -2.4833 -0.9754
   89MOL0     H11956   5.834   5.411   1.430 -0.2523  0.6664  0.0358
   89MOL0     H11957   5.737   5.437   1.580  0.5564  1.9074  1.3328
   89MOL0     H11958   5.918   5.621   1.646 -0.9809  0.7897 -0.0098
   89MOL0     H11959   5.991   5.594   1.487  0.4522 -1.9490 -0.3577
   89MOL0     H11960   5.864   5.768   1.440 -0.1514  0.8687  2.6648
   89MOL0     H11961   5.769   5.615   1.389  3.7061 -2.7536 -0.5892
   89MOL0     H11962   5.630   5.652   1.603 -2.2507  2.3433 -0.9384
   89MOL0     H11963   5.741   5.787   1.642 -0.9078  2.8004 -2.3475
   89MOL0     H11964   5.550   5.759   1.416 -1.1235  1.7010  0.5909
   89MOL0     H11965   5.669   5.898   1.427  1.7229 -1.4225  0.3504
   89MOL0     H11966   5.351   5.757   1.572 -1.4958  0.3801  1.3545
   89MOL0     H11967   5.180   5.857   1.774  3.5216 -1.4484 -1.0678
   89MOL0     H11968   5.292   5.902   1.889  1.0497 -4.0465 -1.2948
   89MOL0     H11969   5.071   6.061   1.867 -0.8825  0.4306 -1.3512
   89MOL0     H11970   5.113   6.069   1.693  1.6760 -1.1331 -0.8571
   89MOL0     H11971   5.147   6.281   1.834 -1.7377 -1.4359 -0.5512
   89MOL0     H11972   5.282   6.225   1.728 -1.1339  1.1047 -0.6776
   89MOL0     H11973   5.408   6.189   1.907 -0.1257 -0.5919 -0.8494
   89MOL0     H11974   5.296   6.087   1.991 -1.1875 -0.9864 -1.4241
   89MOL0     H11975   5.106   6.465   2.116  2.7755 -0.1962  1.1645
   89MOL0     H11976   4.917   6.575   2.192 -1.3072  1.4484  1.9150
   89MOL0     H11977   4.781   6.482   2.259 -0.3369  0.1743 -3.5215
   89MOL0     H11978   4.913   6.533   2.366 -1.0797  0.1144  0.5932
   89MOL0     H11979   4.537   6.153   2.489  0.0069  0.5975  0.5784
   89MOL0     H11980   4.431   6.099   2.705  1.1477  1.0299 -1.5254
   89MOL0     H11981   4.565   5.879   3.084  0.3108 -2.4250 -1.5436
   89MOL0     H11982   4.696   5.964   3.002 -0.8995 -1.8203 -2.0379
   89MOL0     H11983   4.630   6.136   3.145  1.4962  0.4897 -2.7509
   89MOL0     H11984   4.567   6.164   2.991  2.9442 -2.2812 -2.3683
   89MOL0     H11985   4.438   6.036   3.240 -1.7839  1.3467  0.2012
   89MOL0     H11986   4.353   6.088   3.087  0.4976 -0.4900 -1.3615
   89MOL0     H11987   4.463   6.248   3.313 -3.4096 -0.5505  1.3919
   89MOL0     H11988   4.460   6.306   3.138  1.2984 -2.5380 -2.6924
   89MOL0     H11989   4.204   6.291   3.148 -1.3587  1.2593  0.2405
   89MOL0     H11990   4.263   6.401   3.272  2.2148 -0.0603 -0.1399
   89MOL0     H11991   4.214   6.094   3.331 -2.7808 -1.3636 -2.1541
   89MOL0     H11992   4.226   6.243   3.435  2.2144  0.5593 -1.2284
   89MOL0     H11993   4.016   6.197   3.233  2.9658  1.6215 -0.5973
   89MOL0     H11994   3.998   6.318   3.353  0.8638  0.5672  0.6418
   89MOL0     H11995   4.016   6.131   3.526 -1.6717 -1.5291  0.2725
   89MOL0     H11996   3.983   6.031   3.383  0.4493 -0.2990  2.0089
   89MOL0     H11997   4.765   5.856   2.819  1.5593 -1.1730 -2.4281
   89MOL0     H11998   4.872   5.891   2.596  1.5811  1.6156 -2.1698
   89MOL0     H11999   4.966   6.020   2.258  1.0553 -0.1737 -3.0633
   89MOL0     H12000   5.183   6.058   2.138  0.4962  0.0381  1.3076
   89MOL0     H12001   6.328   4.988   1.731  0.1707 -0.4045  0.0838
   89MOL0     H12002   6.468   4.832   1.662 -2.4683 -2.0267  0.3514
   89MOL0     H12003   6.688   4.541   1.126 -0.3189 -1.7765 -0.2807
   89MOL0     H12004   6.837   4.348   1.144  2.1930 -3.7600  0.4544
   89MOL0     H12005   6.845   4.120   1.221 -0.1304  1.3191  0.8111
   89MOL0     H12006   6.995   4.175   1.198 -2.9514 -2.1873 -2.7070
   89MOL0     H12007   7.126   4.035   1.336 -1.1865  0.7513  2.1185
   89MOL0     H12008   7.036   3.932   1.248 -2.1860  0.7977 -1.8841
   89MOL0     H12009   6.882   3.883   1.436  0.5211 -0.8391 -0.8946
   89MOL0     H12010   6.943   4.013   1.534 -1.2388  1.0999 -1.2544
   89MOL0     H12011   7.098   3.760   1.426 -1.8313  1.3828 -1.8907
   89MOL0     H12012   7.036   3.774   1.580 -2.1540  2.2380  0.3901
   89MOL0     H12013   7.393   3.998   1.622  2.6039 -3.4827 -1.1398
   89MOL0     H12014   6.798   4.357   1.573  0.8028  1.7440  2.1785
   89MOL0     H12015   6.671   4.590   1.551  0.3279 -2.6675  0.2963
   90MOL0     O12016   1.745   6.775   3.078 -0.3669  0.4184 -0.6492
   90MOL0     C12017   1.629   6.819   3.089 -0.8420  0.0483  0.6091
   90MOL0     O12018   1.572   6.926   3.024 -0.1046  0.4778  0.1604
   90MOL0     C12019   1.667   7.002   2.970 -0.5037  0.7964  0.3541
   90MOL0     C12020   1.674   7.014   2.832 -0.3930  0.0001  0.0831
   90MOL0     C12021   1.756   7.107   2.772  0.4853  0.2370  0.2196
   90MOL0     C12022   1.832   7.195   2.851 -0.8147 -0.8092  0.5577
   90MOL0     O12023   1.904   7.289   2.771 -0.6754 -0.4141  0.9130
   90MOL0     C12024   2.024   7.334   2.843  0.4621  0.1814  0.1084
   90MOL0     C12025   2.141   7.387   2.770 -0.2985  0.5498  1.2319
   90MOL0     C12026   2.123   7.531   2.726  0.3585  0.0652  0.8996
   90MOL0     C12027   2.259   7.593   2.682  0.0875 -0.0862  0.3847
   90MOL0     C12028   2.243   7.744   2.661  0.6034 -0.1333  0.6518
   90MOL0     C12029   2.361   7.823   2.608  0.1566  0.7296  0.1782
   90MOL0     C12030   2.501   7.769   2.642  0.4448  1.1975  0.5989
   90MOL0     C12031   2.620   7.863   2.595 -0.6982 -0.5101 -0.0505
   90MOL0     N12032   2.592   8.000   2.632 -0.7106  0.0595 -0.0594
   90MOL0     C12033   2.574   8.064   2.763 -0.7902 -0.1275 -0.3308
   90MOL0     C12034   2.529   8.184   2.726  0.8568  0.3900 -0.1717
   90MOL0     C12035   2.481   8.288   2.816  0.9580  0.8093  0.4916
   90MOL0     C12036   2.593   8.389   2.817 -0.6085 -0.5889  0.5899
   90MOL0     C12037   2.734   8.342   2.850 -0.2092  0.1581  0.7868
   90MOL0     C12038   2.837   8.449   2.869 -0.5414  0.2750  1.1026
   90MOL0     O12039   2.869   8.499   2.736 -0.0285 -0.5014 -1.1943
   90MOL0     C12040   2.990   8.515   2.677  0.1410 -0.0704  0.0245
   90MOL0     C12041   2.996   8.529   2.547 -0.1173  0.3028 -0.0057
   90MOL0     C12042   3.112   8.527   2.469  0.0427  0.2945 -0.6059
   90MOL0     C12043   3.094   8.557   2.321 -0.3864 -0.5916  0.2749
   90MOL0     C12044   3.238   8.529   2.537 -0.2272  0.7918  0.2803
   90MOL0     C12045   3.373   8.535   2.465 -0.2081  0.2321  0.2356
   90MOL0     O12046   3.380   8.570   2.332  0.3198  0.1858 -1.2566
   90MOL0     C12047   3.502   8.628   2.296 -0.3646  0.2793  0.2996
   90MOL0     C12048   3.542   8.753   2.345 -1.1520  0.6608 -0.1296
   90MOL0     C12049   3.653   8.814   2.281 -0.8927 -0.0005  1.2982
   90MOL0     C12050   3.729   8.747   2.179  0.7000  0.1017 -0.7216
   90MOL0     O12051   3.858   8.790   2.129  0.2868 -0.4150  0.3905
   90MOL0     C12052   3.870   8.931   2.086 -0.6399  0.6258 -0.6142
   90MOL0     C12053   4.006   8.990   2.125  0.3971  1.4820  0.5614
   90MOL0     C12054   4.023   9.050   2.260 -0.1898  0.0374 -0.3456
   90MOL0     C12055   4.169   9.104   2.281  0.2807  0.0377  0.1124
   90MOL0     C12056   4.191   9.125   2.429 -0.0370  0.1464 -0.8699
   90MOL0     C12057   4.273   9.245   2.453 -0.3341  0.7160 -0.6984
   90MOL0     C12058   4.369   9.235   2.581  0.8044  0.5890  0.4319
   90MOL0     C12059   4.303   9.172   2.711  0.7578  0.3642  0.2096
   90MOL0    Cl12060   4.405   9.173   2.853  0.2500 -0.0571  0.0461
   90MOL0     C12061   3.693   8.626   2.136  0.2175 -0.5312  0.9392
   90MOL0     C12062   3.573   8.572   2.184 -0.5940 -0.4619 -0.5625
   90MOL0     O12063   3.473   8.527   2.534  0.3894  0.0483  0.3360
   90MOL0     C12064   3.229   8.518   2.680  0.5450  0.7553  0.2140
   90MOL0     C12065   3.111   8.516   2.753  0.7725  0.3460  0.0449
   90MOL0     N12066   2.525   8.196   2.590 -0.8634 -0.0784 -0.4764
   90MOL0     N12067   2.568   8.092   2.534 -0.1585  0.8699  0.5309
   90MOL0     C12068   1.821   7.180   2.988  0.1476 -0.7848  0.5952
   90MOL0     C12069   1.738   7.086   3.046  0.4329 -0.5500  0.3134
   90MOL0     C12070   1.551   6.746   3.190 -0.5515 -1.5096 -0.9975
   90MOL0     C12071   1.586   6.621   3.254 -0.3564  0.5577  0.5356
   90MOL0     C12072   1.506   6.564   3.345 -0.6212  0.9647 -0.0622
   90MOL0     C12073   1.397   6.635   3.397 -0.3872  0.3001  0.5662
   90MOL0     O12074   1.306   6.595   3.488 -0.1843 -0.4396  0.5198
   90MOL0     C12075   1.347   6.497   3.579  0.3535 -0.5570  0.0950
   90MOL0     C12076   1.446   6.541   3.690 -0.0272 -0.5662  0.3349
   90MOL0     C12077   1.455   6.437   3.803 -0.6395 -0.7216 -0.2163
   90MOL0     C12078   1.336   6.446   3.907 -0.0988 -0.0822  0.5862
   90MOL0     C12079   1.299   6.587   3.948  0.5449 -0.0341  0.4674
   90MOL0     C12080   1.276   6.701   3.986  0.6458  0.0680  0.0636
   90MOL0     C12081   1.365   6.758   3.343 -0.3799  0.7666  0.2934
   90MOL0     C12082   1.448   6.821   3.249  0.8126  0.1153 -0.5170
   90MOL0     H12083   1.608   6.949   2.776  1.0645 -2.0313  0.6119
   90MOL0     H12084   1.749   7.127   2.665 -3.9761 -1.7318 -0.0805
   90MOL0     H12085   1.990   7.415   2.908  1.7851  1.6234 -0.9386
   90MOL0     H12086   2.072   7.258   2.906 -1.3324 -0.5437  0.6489
   90MOL0     H12087   2.230   7.377   2.834  0.9817  0.0291 -0.5390
   90MOL0     H12088   2.155   7.332   2.677 -1.2673  0.9274  0.8523
   90MOL0     H12089   2.050   7.542   2.645 -1.4374 -1.7051  2.1760
   90MOL0     H12090   2.082   7.589   2.809 -0.3729  2.0921 -0.7967
   90MOL0     H12091   2.340   7.581   2.755 -1.4144  3.0500  2.8236
   90MOL0     H12092   2.282   7.552   2.583  2.1800 -1.8427  1.4887
   90MOL0     H12093   2.164   7.759   2.586 -0.3550 -1.3517  1.3874
   90MOL0     H12094   2.224   7.794   2.756 -1.5672  0.0809  0.1647
   90MOL0     H12095   2.362   7.827   2.499  0.3303  0.3385  0.1635
   90MOL0     H12096   2.362   7.924   2.650  0.0459  1.3405 -1.2367
   90MOL0     H12097   2.506   7.738   2.747  1.4858  0.3821  0.3294
   90MOL0     H12098   2.505   7.676   2.586 -1.4634  1.6670 -0.3691
   90MOL0     H12099   2.649   7.851   2.491  0.6993 -2.6382  0.5135
   90MOL0     H12100   2.707   7.824   2.648 -0.3053 -1.0493 -1.0656
   90MOL0     H12101   2.606   8.034   2.862  1.1577 -2.9215 -1.6643
   90MOL0     H12102   2.383   8.324   2.785  0.7494  0.2733  0.5091
   90MOL0     H12103   2.469   8.254   2.920 -3.8621  1.5142  0.3918
   90MOL0     H12104   2.575   8.468   2.890 -3.5171 -0.1178 -0.5062
   90MOL0     H12105   2.586   8.434   2.717  2.1497 -2.8620 -0.8099
   90MOL0     H12106   2.775   8.277   2.772 -3.1009  0.4201 -1.0863
   90MOL0     H12107   2.709   8.280   2.937  0.4151  0.9527  1.5547
   90MOL0     H12108   2.933   8.409   2.902  0.9242 -0.5026 -3.5003
   90MOL0     H12109   2.814   8.520   2.949  4.2024  1.8768  1.3692
   90MOL0     H12110   2.905   8.546   2.490 -0.7429  0.2864  0.9601
   90MOL0     H12111   2.991   8.543   2.286  0.5136 -0.8375 -2.5623
   90MOL0     H12112   3.120   8.661   2.298 -0.7524 -0.8282 -1.3464
   90MOL0     H12113   3.164   8.495   2.265 -0.4927 -0.0234 -0.5104
   90MOL0     H12114   3.486   8.800   2.426 -1.6443  0.1817 -0.1864
   90MOL0     H12115   3.682   8.914   2.310 -1.5542  0.3060  0.9116
   90MOL0     H12116   3.864   8.939   1.977  1.8817  1.0756 -0.7580
   90MOL0     H12117   3.791   8.988   2.136  1.1448  0.6622  2.3474
   90MOL0     H12118   4.075   8.905   2.125 -2.9636 -1.4359 -0.5481
   90MOL0     H12119   4.045   9.052   2.043  0.8727 -1.6369 -1.7381
   90MOL0     H12120   3.981   8.982   2.335  0.2319  2.7587  2.6142
   90MOL0     H12121   3.965   9.141   2.277  0.9170  0.4312  1.7712
   90MOL0     H12122   4.250   9.047   2.234  2.2255  1.3805  1.6771
   90MOL0     H12123   4.173   9.202   2.232 -0.8309  1.0924  2.0280
   90MOL0     H12124   4.232   9.029   2.463  0.1810  0.3554 -0.5362
   90MOL0     H12125   4.099   9.139   2.486  0.7491  1.6201  0.0996
   90MOL0     H12126   4.342   9.270   2.371  0.5755  2.0067  0.4209
   90MOL0     H12127   4.218   9.339   2.456  1.2531  1.7632 -2.2100
   90MOL0     H12128   4.396   9.338   2.606  0.5164  0.9341 -0.6126
   90MOL0     H12129   4.466   9.185   2.568  1.4361  0.8063  3.6197
   90MOL0     H12130   4.289   9.068   2.679  2.2185 -0.3770  1.8061
   90MOL0     H12131   4.204   9.215   2.729 -1.4907 -3.5589 -1.4405
   90MOL0     H12132   3.763   8.559   2.088  1.0099 -0.2467  1.6839
   90MOL0     H12133   3.545   8.469   2.164  0.4899 -0.9814  0.5286
   90MOL0     H12134   3.323   8.498   2.731  0.1864 -2.4093 -0.1587
   90MOL0     H12135   3.106   8.496   2.859 -3.1466  0.5011  0.0457
   90MOL0     H12136   1.881   7.245   3.051 -0.6467 -0.8563  1.4605
   90MOL0     H12137   1.720   7.084   3.153  4.0929  2.1676  1.1949
   90MOL0     H12138   1.678   6.574   3.221 -1.3408  0.2483 -1.9450
   90MOL0     H12139   1.538   6.473   3.395  1.7883  2.2849  0.9277
   90MOL0     H12140   1.254   6.465   3.629 -0.3720 -0.0502 -0.8912
   90MOL0     H12141   1.379   6.406   3.528 -1.7387 -1.0781 -0.4162
   90MOL0     H12142   1.449   6.649   3.711  2.4918  0.7404 -5.0502
   90MOL0     H12143   1.535   6.528   3.627  0.6777  0.0168  1.1664
   90MOL0     H12144   1.544   6.452   3.864 -0.0368 -1.3438 -0.9080
   90MOL0     H12145   1.466   6.336   3.760  1.8182 -0.3510 -0.6313
   90MOL0     H12146   1.347   6.376   3.991 -1.3406 -0.0325  0.8036
   90MOL0     H12147   1.242   6.402   3.873  0.0427 -1.4047  1.8016
   90MOL0     H12148   1.270   6.805   4.011  2.0376  0.4726 -1.1215
   90MOL0     H12149   1.280   6.816   3.378 -1.8172 -0.5862 -0.8136
   90MOL0     H12150   1.413   6.918   3.215 -0.1386 -1.0180 -3.0039
   91MOL0     O12151   7.246   9.409   1.034  0.8479 -0.6718  0.4177
   91MOL0     C12152   7.204   9.483   1.116 -0.2870 -0.4710 -0.4352
   91MOL0     O12153   7.097   9.453   1.203  0.3060  0.5884  0.8366
   91MOL0     C12154   7.015   9.352   1.166  0.1662  1.2486 -0.4632
   91MOL0     C12155   7.058   9.219   1.193 -0.8350 -0.0163 -0.3357
   91MOL0     C12156   6.976   9.113   1.156 -0.0723 -0.4861  0.7824
   91MOL0     C12157   6.846   9.133   1.106 -0.0406 -0.4367  0.4550
   91MOL0     O12158   6.765   9.028   1.078 -0.2247 -0.2088  0.1137
   91MOL0     C12159   6.675   9.025   0.972  0.9516 -0.5876  0.6629
   91MOL0     C12160   6.636   8.871   0.952  0.4971  0.4220  0.1396
   91MOL0     C12161   6.573   8.804   1.074 -0.3942  0.5950  0.5201
   91MOL0     C12162   6.419   8.841   1.092  0.7624  0.2445  0.0120
   91MOL0     C12163   6.348   8.787   0.966  0.9543  0.1782 -0.1074
   91MOL0     C12164   6.190   8.811   0.981  0.0581 -0.0293 -0.6946
   91MOL0     C12165   6.110   8.764   0.860  0.2198  0.2066  0.0997
   91MOL0     C12166   6.125   8.617   0.808  0.0045 -0.7202 -0.4257
   91MOL0     N12167   6.044   8.590   0.696  0.2041  1.1019 -0.4129
   91MOL0     C12168   6.073   8.481   0.618  0.6560  0.0746  0.0287
   91MOL0     C12169   5.962   8.457   0.550 -0.1612 -1.3682  0.1956
   91MOL0     C12170   5.954   8.343   0.460  0.4294 -0.4003  0.4102
   91MOL0     C12171   5.819   8.338   0.385  0.9435  0.6031  0.2159
   91MOL0     C12172   5.790   8.223   0.289  0.1552 -1.3914  0.2172
   91MOL0     C12173   5.649   8.257   0.230 -1.3137  0.1463 -0.6523
   91MOL0     O12174   5.658   8.366   0.128  1.0589  0.6701 -0.3651
   91MOL0     C12175   5.707   8.326   0.004 -0.5269 -0.0709  1.2042
   91MOL0     C12176   5.843   8.349  -0.024  0.5765  0.3790 -1.4194
   91MOL0     C12177   5.901   8.299  -0.143 -0.2856 -0.0402 -0.6601
   91MOL0     C12178   6.039   8.336  -0.172 -0.3658  0.1049 -0.0132
   91MOL0     C12179   5.822   8.226  -0.233 -0.0965 -0.1149  0.0340
   91MOL0     C12180   5.889   8.152  -0.347 -0.5552 -0.6078  0.8781
   91MOL0     O12181   5.851   8.029  -0.383  0.7761  0.4683 -0.3179
   91MOL0     C12182   5.924   7.959  -0.471 -0.7309  0.6624  0.0456
   91MOL0     C12183   6.057   7.932  -0.442  0.3288  0.4868 -0.5151
   91MOL0     C12184   6.134   7.848  -0.526  0.2777 -0.1646 -0.6265
   91MOL0     C12185   6.075   7.785  -0.637  0.2874 -0.3547 -0.0346
   91MOL0     O12186   6.168   7.717  -0.715 -0.1801  0.9004 -0.2840
   91MOL0     C12187   6.120   7.650  -0.839  0.0482 -0.2681 -1.0058
   91MOL0     C12188   6.227   7.544  -0.871  0.4505 -0.1325  1.1228
   91MOL0     C12189   6.195   7.480  -1.007 -1.1651  0.8728  0.3275
   91MOL0     C12190   6.321   7.447  -1.087 -0.0252  0.0010 -0.0046
   91MOL0     C12191   6.305   7.399  -1.229 -0.0750 -0.2038  0.2846
   91MOL0     C12192   6.199   7.477  -1.303 -0.2900  0.5863 -0.2804
   91MOL0     C12193   6.213   7.464  -1.459 -0.3528 -0.2572  0.4586
   91MOL0     C12194   6.124   7.345  -1.509  0.7342 -0.1633  0.6215
   91MOL0    Cl12195   6.179   7.294  -1.676  0.1786  0.2885  0.0977
   91MOL0     C12196   5.946   7.813  -0.665  0.8992  0.2944  0.4846
   91MOL0     C12197   5.868   7.902  -0.587 -0.0043  0.5186  0.2388
   91MOL0     O12198   5.973   8.215  -0.410  0.3347  0.2290  0.1247
   91MOL0     C12199   5.692   8.192  -0.204  0.0268 -0.0830  0.2221
   91MOL0     C12200   5.633   8.245  -0.082 -0.8052 -0.2533  0.0511
   91MOL0     N12201   5.862   8.550   0.588 -0.2624 -0.2358 -0.5609
   91MOL0     N12202   5.917   8.633   0.665 -0.4841 -0.2446 -0.1702
   91MOL0     C12203   6.798   9.264   1.103 -0.4540 -0.2539 -0.4236
   91MOL0     C12204   6.884   9.374   1.123  1.2605 -0.0617  0.8347
   91MOL0     C12205   7.265   9.622   1.127 -0.2204 -0.2380 -0.2923
   91MOL0     C12206   7.225   9.700   1.238  0.6283 -0.0293  0.4478
   91MOL0     C12207   7.284   9.824   1.260 -1.1820 -0.5865 -0.7086
   91MOL0     C12208   7.379   9.872   1.173 -0.4224  0.4961 -0.5653
   91MOL0     O12209   7.427   9.993   1.217 -0.6452 -0.3777  0.5770
   91MOL0     C12210   7.429  10.101   1.121 -0.7612 -0.9410  0.4606
   91MOL0     C12211   7.438  10.236   1.185  0.2846 -0.4047  0.1411
   91MOL0     C12212   7.314  10.275   1.269 -0.5067  0.5582 -0.2223
   91MOL0     C12213   7.181  10.282   1.188 -0.1459  1.5068  0.5120
   91MOL0     C12214   7.100  10.383   1.240 -0.1740  0.0713 -0.6396
   91MOL0     C12215   7.038  10.480   1.291  0.5905 -0.3489  0.2219
   91MOL0     C12216   7.425   9.791   1.064  0.1693 -0.4452 -0.1152
   91MOL0     C12217   7.362   9.669   1.037 -0.2009  0.2140  1.0269
   91MOL0     H12218   7.152   9.200   1.243  0.0789 -0.7673 -2.2249
   91MOL0     H12219   6.987   9.007   1.176 -0.8227 -0.7746 -0.2459
   91MOL0     H12220   6.583   9.084   0.984  0.4906 -0.8665 -1.2022
   91MOL0     H12221   6.726   9.057   0.881  1.8419  0.2177  1.4263
   91MOL0     H12222   6.589   8.862   0.853  1.2727  0.2032 -0.2182
   91MOL0     H12223   6.731   8.819   0.939  0.4957 -0.2000  2.3260
   91MOL0     H12224   6.579   8.695   1.066 -2.5648  0.2740  2.3235
   91MOL0     H12225   6.631   8.840   1.160  1.2466  1.7260 -0.9750
   91MOL0     H12226   6.392   8.787   1.183  1.7281  1.0964  0.8134
   91MOL0     H12227   6.406   8.949   1.103 -0.3450  0.2626 -1.1433
   91MOL0     H12228   6.370   8.834   0.870 -2.1977  3.1228  0.3900
   91MOL0     H12229   6.374   8.683   0.945 -2.2718 -1.3633  2.5393
   91MOL0     H12230   6.153   8.768   1.074  0.3121 -0.2875 -0.7129
   91MOL0     H12231   6.176   8.920   0.982  2.2253  0.2874  1.0082
   91MOL0     H12232   6.005   8.781   0.886 -0.5898  0.8476 -3.2101
   91MOL0     H12233   6.132   8.836   0.781 -0.1950  1.0657  0.7425
   91MOL0     H12234   6.096   8.553   0.892  2.4242  0.3081  1.3105
   91MOL0     H12235   6.230   8.598   0.783  0.0674  0.2144 -0.9211
   91MOL0     H12236   6.153   8.410   0.631 -1.8105 -2.8625  0.3817
   91MOL0     H12237   6.042   8.347   0.396 -0.7784 -0.0122 -1.3223
   91MOL0     H12238   5.967   8.250   0.516  0.0957 -1.4350 -1.1628
   91MOL0     H12239   5.798   8.436   0.341 -0.8823 -0.3732 -1.1836
   91MOL0     H12240   5.744   8.329   0.464 -1.3424  0.4859 -1.8659
   91MOL0     H12241   5.774   8.127   0.338  1.4105 -1.0343  1.3781
   91MOL0     H12242   5.879   8.216   0.225  1.9513  1.5763  2.1460
   91MOL0     H12243   5.591   8.282   0.319 -0.2363 -2.9850  1.0892
   91MOL0     H12244   5.621   8.163   0.181  1.0763  0.2333 -2.3562
   91MOL0     H12245   5.909   8.387   0.052 -1.1083 -2.0498  1.5020
   91MOL0     H12246   6.078   8.401  -0.093  2.5376 -1.2403 -0.2041
   91MOL0     H12247   6.115   8.259  -0.185 -0.0932  0.7218 -2.5256
   91MOL0     H12248   6.049   8.385  -0.269  0.6151 -1.8260 -0.9454
   91MOL0     H12249   6.100   7.959  -0.346 -1.2155 -2.0916  1.0217
   91MOL0     H12250   6.238   7.837  -0.496  0.0881  0.4327  0.2762
   91MOL0     H12251   6.024   7.600  -0.830 -1.4886  2.2649 -2.3137
   91MOL0     H12252   6.118   7.721  -0.922  2.6874  2.3728  0.9472
   91MOL0     H12253   6.328   7.586  -0.868  0.1838  0.5208  3.8209
   91MOL0     H12254   6.212   7.459  -0.804  1.3808 -3.4409 -2.4929
   91MOL0     H12255   6.116   7.531  -1.063 -1.5274 -1.4991 -1.4582
   91MOL0     H12256   6.139   7.390  -0.978 -3.3226  2.5133  1.5484
   91MOL0     H12257   6.378   7.541  -1.094 -2.5797  1.6661  0.2489
   91MOL0     H12258   6.382   7.383  -1.022  0.1501  3.9678  4.2950
   91MOL0     H12259   6.273   7.295  -1.241 -0.4296 -0.1791  0.9400
   91MOL0     H12260   6.401   7.398  -1.280  0.7182 -3.1990  1.6388
   91MOL0     H12261   6.096   7.455  -1.271 -0.4215  0.8955 -0.4805
   91MOL0     H12262   6.219   7.583  -1.287  0.3342  0.6915 -1.6444
   91MOL0     H12263   6.316   7.436  -1.483  0.6811  1.6717  2.3669
   91MOL0     H12264   6.188   7.561  -1.502 -0.8157  0.4749  2.2636
   91MOL0     H12265   6.019   7.376  -1.518  1.7512  3.1259 -4.1370
   91MOL0     H12266   6.126   7.261  -1.440  0.8527  0.0589  0.8939
   91MOL0     H12267   5.906   7.773  -0.758  0.4359 -1.8917  1.5597
   91MOL0     H12268   5.764   7.918  -0.615  0.3709  1.5233 -0.6287
   91MOL0     H12269   5.634   8.130  -0.272 -1.5601  2.7482 -1.1841
   91MOL0     H12270   5.532   8.219  -0.052 -1.0413 -0.6377 -1.0105
   91MOL0     H12271   6.708   9.282   1.046  0.0594 -2.7514 -2.1825
   91MOL0     H12272   6.846   9.473   1.100 -0.9305 -0.5192  2.1544
   91MOL0     H12273   7.144   9.663   1.301 -2.1016  0.1692 -2.6652
   91MOL0     H12274   7.248   9.875   1.349 -3.1330 -1.8532 -0.7229
   91MOL0     H12275   7.520  10.097   1.060 -2.7498 -0.1741 -2.8141
   91MOL0     H12276   7.350  10.104   1.046  0.8034  2.9283 -1.3222
   91MOL0     H12277   7.463  10.290   1.093 -0.9489 -4.6416 -3.0012
   91MOL0     H12278   7.521  10.230   1.256  0.0011 -1.3717  0.4123
   91MOL0     H12279   7.351  10.374   1.298  1.6638  0.4032 -2.2175
   91MOL0     H12280   7.305  10.208   1.355 -2.5065 -0.0469 -0.8600
   91MOL0     H12281   7.123  10.191   1.203 -2.2899  2.4318 -1.5593
   91MOL0     H12282   7.212  10.301   1.085 -0.0888 -1.7328 -0.1504
   91MOL0     H12283   6.982  10.568   1.318  1.5075  0.7080 -1.2455
   91MOL0     H12284   7.513   9.800   1.001 -1.0700 -3.3011 -2.5143
   91MOL0     H12285   7.401   9.610   0.955  0.6866  1.5300  0.4835
   92MOL0     O12286  10.718   1.883   6.567 -0.1622 -0.5145  0.2404
   92MOL0     C12287  10.677   1.978   6.495  0.4687  0.7481  0.0592
   92MOL0     O12288  10.708   2.104   6.510  0.3428  0.4270 -0.2252
   92MOL0     C12289  10.823   2.133   6.578 -0.1684  0.2631  0.2916
   92MOL0     C12290  10.808   2.251   6.646 -0.1082 -0.8323 -0.6060
   92MOL0     C12291  10.916   2.313   6.720 -0.2199  0.2825 -0.8664
   92MOL0     C12292  11.048   2.256   6.715 -0.1518  0.2876 -0.0779
   92MOL0     O12293  11.152   2.315   6.776 -0.1873 -0.2417 -0.1597
   92MOL0     C12294  11.237   2.384   6.695  0.1757 -0.3187 -0.0919
   92MOL0     C12295  11.364   2.426   6.766 -0.1047  0.2422 -0.4825
   92MOL0     C12296  11.464   2.310   6.800 -0.1950  1.3469  0.4465
   92MOL0     C12297  11.531   2.244   6.677 -0.8259  0.4183  0.0010
   92MOL0     C12298  11.667   2.180   6.703 -0.0822 -0.2750  0.2462
   92MOL0     C12299  11.738   2.136   6.570  0.2646  0.7026  0.3682
   92MOL0     C12300  11.683   2.006   6.517  0.8619  0.3841 -1.0183
   92MOL0     C12301  11.567   2.018   6.414  0.3537  0.5090  0.5187
   92MOL0     N12302  11.500   1.896   6.391 -0.5156  0.6551  0.2631
   92MOL0     C12303  11.457   1.845   6.274 -0.6378  0.3812 -0.5462
   92MOL0     C12304  11.419   1.722   6.294  0.7305  0.1999 -0.7203
   92MOL0     C12305  11.370   1.628   6.188  0.1442  1.0044 -0.4256
   92MOL0     C12306  11.389   1.676   6.045 -0.1484 -0.5415 -0.4063
   92MOL0     C12307  11.390   1.541   5.966  0.9135 -0.8591 -0.1870
   92MOL0     C12308  11.425   1.561   5.810 -0.5669 -0.2249 -0.5007
   92MOL0     O12309  11.331   1.633   5.736  0.5357  0.4518  0.3671
   92MOL0     C12310  11.232   1.553   5.685  0.6037  0.8044  0.6680
   92MOL0     C12311  11.213   1.415   5.690  0.0557 -0.1278 -0.1077
   92MOL0     C12312  11.129   1.340   5.609  0.3655 -1.4065 -0.1055
   92MOL0     C12313  11.123   1.191   5.623 -0.7892 -0.3615  0.0201
   92MOL0     C12314  11.052   1.415   5.522  0.6801 -0.0487  0.0564
   92MOL0     C12315  10.949   1.357   5.432  0.2782  0.0373  0.1162
   92MOL0     O12316  10.876   1.247   5.468 -0.4653 -0.1716 -1.0591
   92MOL0     C12317  10.801   1.195   5.364 -0.3360  0.8351 -0.4720
   92MOL0     C12318  10.662   1.194   5.365  0.7532 -1.1990 -0.3019
   92MOL0     C12319  10.599   1.138   5.249  0.7002 -1.1135 -0.4201
   92MOL0     C12320  10.668   1.085   5.147 -0.2334  0.7016  0.7783
   92MOL0     O12321  10.602   1.024   5.039  0.1674 -0.3899  0.3765
   92MOL0     C12322  10.453   1.029   5.028 -0.0938  0.9530  0.3306
   92MOL0     C12323  10.434   0.985   4.881 -0.4813 -0.2064 -0.1144
   92MOL0     C12324  10.292   0.906   4.866 -0.2825 -0.4579  0.2383
   92MOL0     C12325  10.260   0.875   4.715  0.0446 -0.1569 -0.0125
   92MOL0     C12326  10.181   0.746   4.700 -0.1676  0.2151  0.6048
   92MOL0     C12327  10.164   0.745   4.546  0.6880 -0.1939  0.8095
   92MOL0     C12328  10.077   0.621   4.517  0.4574  0.8615  0.2644
   92MOL0     C12329   9.935   0.645   4.545 -0.7108 -0.6421 -0.4936
   92MOL0    Cl12330   9.828   0.521   4.485  0.0291 -0.5987  0.4617
   92MOL0     C12331  10.807   1.081   5.159  0.7082  0.0371 -0.2601
   92MOL0     C12332  10.875   1.136   5.262 -0.6110  0.4826  0.5474
   92MOL0     O12333  10.921   1.422   5.328 -0.1038  0.8781  0.4086
   92MOL0     C12334  11.069   1.555   5.514 -0.4791  0.1498 -1.2693
   92MOL0     C12335  11.157   1.626   5.596  0.5660 -0.2647  0.3043
   92MOL0     N12336  11.441   1.690   6.424 -0.3428  0.1749  0.2679
   92MOL0     N12337  11.476   1.800   6.486 -0.0259  0.1081  0.0566
   92MOL0     C12338  11.069   2.132   6.633 -0.4609 -0.1144 -0.0859
   92MOL0     C12339  10.955   2.077   6.570  0.0714  0.2929  0.2522
   92MOL0     C12340  10.582   1.942   6.387 -0.0735 -0.3436  1.5721
   92MOL0     C12341  10.581   2.032   6.278 -0.2306  0.0091  0.9225
   92MOL0     C12342  10.502   1.996   6.165  0.6761  0.0890  0.3368
   92MOL0     C12343  10.420   1.878   6.163  0.0520  0.2985  0.8944
   92MOL0     O12344  10.353   1.850   6.041 -0.5487 -0.7782 -0.3256
   92MOL0     C12345  10.285   1.730   6.023 -0.5477 -0.7434  0.3365
   92MOL0     C12346  10.179   1.752   5.912  0.1121 -0.0555 -1.3332
   92MOL0     C12347  10.054   1.833   5.953  0.0643  0.2048  0.2825
   92MOL0     C12348   9.948   1.858   5.844 -0.2477  1.2268  0.1108
   92MOL0     C12349   9.876   1.734   5.829  0.5700 -0.8005  0.6359
   92MOL0     C12350   9.825   1.625   5.829 -0.4577 -0.0132  0.1471
   92MOL0     C12351  10.443   1.787   6.264 -0.1077 -0.3799 -0.1047
   92MOL0     C12352  10.516   1.821   6.371 -0.0173 -0.3731  0.0720
   92MOL0     H12353  10.709   2.296   6.649  0.6606  0.8630  0.4529
   92MOL0     H12354  10.894   2.407   6.771  1.2091 -0.3988  1.1517
   92MOL0     H12355  11.268   2.316   6.614  0.0119 -0.7586  0.2086
   92MOL0     H12356  11.185   2.466   6.645  1.8381  1.2503  0.6460
   92MOL0     H12357  11.414   2.493   6.697  1.6061 -1.4374 -0.9485
   92MOL0     H12358  11.342   2.485   6.856 -4.9693 -1.4496 -0.2411
   92MOL0     H12359  11.539   2.350   6.868  2.3541 -3.8200  1.1368
   92MOL0     H12360  11.405   2.229   6.844  1.8595 -1.5249 -1.6516
   92MOL0     H12361  11.454   2.177   6.637  0.8612 -1.0781 -0.8755
   92MOL0     H12362  11.550   2.324   6.606 -0.0998  0.9635  0.7910
   92MOL0     H12363  11.734   2.251   6.751 -0.7424  0.6039 -0.1147
   92MOL0     H12364  11.648   2.101   6.777  2.0855 -2.0458 -0.9689
   92MOL0     H12365  11.740   2.218   6.497 -1.8993  0.1943 -0.3608
   92MOL0     H12366  11.842   2.114   6.591  0.6866  0.3829 -1.8314
   92MOL0     H12367  11.761   1.940   6.480 -1.1531 -1.4358 -2.2614
   92MOL0     H12368  11.628   1.949   6.593 -2.5999  0.8610 -2.9632
   92MOL0     H12369  11.605   2.056   6.319 -1.6668 -2.0570 -1.4883
   92MOL0     H12370  11.494   2.090   6.453 -1.9470 -1.3442 -0.1169
   92MOL0     H12371  11.460   1.906   6.184 -0.9034  1.8717  0.4241
   92MOL0     H12372  11.426   1.537   6.211 -2.9499 -0.3453  2.8834
   92MOL0     H12373  11.265   1.598   6.201 -0.3457  2.6451 -0.3031
   92MOL0     H12374  11.493   1.710   6.037  0.3856 -2.1685 -0.6775
   92MOL0     H12375  11.313   1.743   6.004  0.3807  1.8815  2.2546
   92MOL0     H12376  11.290   1.496   5.968  0.8223 -0.6467 -0.0138
   92MOL0     H12377  11.470   1.474   6.000  0.1344 -1.7917 -0.1382
   92MOL0     H12378  11.448   1.466   5.761 -0.4090  0.0699 -1.0084
   92MOL0     H12379  11.514   1.624   5.807  0.2359 -1.3258 -3.6332
   92MOL0     H12380  11.274   1.363   5.763  3.0913  1.0362 -1.6299
   92MOL0     H12381  11.160   1.153   5.528  2.0165 -0.8248  1.2006
   92MOL0     H12382  11.199   1.167   5.698 -2.5437  0.7016  2.2846
   92MOL0     H12383  11.026   1.149   5.650 -0.5856  0.4008  2.1957
   92MOL0     H12384  10.608   1.230   5.453  1.7971  1.0491 -0.5139
   92MOL0     H12385  10.491   1.152   5.245  0.4201  0.2119  4.6205
   92MOL0     H12386  10.404   0.970   5.106 -0.3501  1.6675  0.7199
   92MOL0     H12387  10.424   1.135   5.035 -0.7507  0.6904  2.2303
   92MOL0     H12388  10.436   1.078   4.823  0.2981  0.4213  0.8840
   92MOL0     H12389  10.523   0.936   4.843 -0.3741 -2.0646  2.3232
   92MOL0     H12390  10.212   0.961   4.917  1.6317  2.2614  0.4742
   92MOL0     H12391  10.291   0.814   4.926 -1.5622  1.2168  2.9862
   92MOL0     H12392  10.204   0.955   4.666  1.3401 -0.7917 -2.7224
   92MOL0     H12393  10.355   0.855   4.666  1.0379 -0.6471  1.9975
   92MOL0     H12394  10.088   0.742   4.758 -1.4592  0.5118 -1.3699
   92MOL0     H12395  10.236   0.658   4.734 -0.7769  0.4856  2.4418
   92MOL0     H12396  10.124   0.841   4.513 -1.4416 -1.6098 -1.0749
   92MOL0     H12397  10.257   0.736   4.489 -0.0212  0.5133 -0.5055
   92MOL0     H12398  10.108   0.540   4.584  1.3869  1.4589  0.5741
   92MOL0     H12399  10.084   0.572   4.419  1.0680 -4.0793  2.4462
   92MOL0     H12400   9.901   0.737   4.496 -2.9213 -2.6944 -3.1880
   92MOL0     H12401   9.924   0.666   4.652 -1.8242 -0.8067 -0.5574
   92MOL0     H12402  10.865   1.044   5.075  0.9220  1.8255 -0.9537
   92MOL0     H12403  10.984   1.133   5.267 -0.5115  3.5695  2.9439
   92MOL0     H12404  11.009   1.614   5.446 -0.5556  0.9969 -0.4809
   92MOL0     H12405  11.168   1.731   5.571  2.7039 -0.8917 -1.8137
   92MOL0     H12406  11.172   2.098   6.634 -0.4719 -0.1334  0.4086
   92MOL0     H12407  10.974   1.988   6.510 -0.3602  0.7236 -0.5471
   92MOL0     H12408  10.636   2.125   6.272 -0.5047  0.0853 -2.6073
   92MOL0     H12409  10.505   2.064   6.081  3.5521 -0.0403  0.2393
   92MOL0     H12410  10.352   1.655   5.979  1.0647 -0.2153  1.7684
   92MOL0     H12411  10.240   1.692   6.115  1.1375  2.6289  2.8101
   92MOL0     H12412  10.142   1.655   5.878  0.2962 -1.4210  2.0252
   92MOL0     H12413  10.241   1.809   5.842  1.3512  0.0471 -0.1811
   92MOL0     H12414  10.078   1.935   5.985  1.6608 -0.7303  2.2967
   92MOL0     H12415  10.011   1.784   6.041  2.2782 -1.0187  0.7521
   92MOL0     H12416   9.990   1.899   5.752 -1.8510 -0.4025 -1.4364
   92MOL0     H12417   9.889   1.944   5.877  3.3709  2.4188  4.4891
   92MOL0     H12418   9.770   1.534   5.841  1.1434 -0.8137  2.1632
   92MOL0     H12419  10.394   1.690   6.269 -1.2939  0.0549 -2.2823
   92MOL0     H12420  10.514   1.743   6.446 -1.3391 -0.0385  0.4202
   93MOL0     O12421   6.022  10.436   9.660 -0.0075 -0.3447 -0.5470
   93MOL0     C12422   6.059  10.352   9.582  0.2980  0.7479 -0.2384
   93MOL0     O12423   6.134  10.241   9.613  0.3782 -0.0101 -0.2483
   93MOL0     C12424   6.177  10.214   9.736 -0.5545  0.4869  0.3719
   93MOL0     C12425   6.307  10.187   9.747 -0.4299 -0.6442 -0.7139
   93MOL0     C12426   6.365  10.168   9.872 -0.6038 -0.3143  0.5000
   93MOL0     C12427   6.291  10.200   9.986 -0.4615  0.1235  0.2072
   93MOL0     O12428   6.353  10.182  10.107 -0.1209 -0.2070  0.5856
   93MOL0     C12429   6.338  10.282  10.204  0.1364  0.9537 -0.2311
   93MOL0     C12430   6.431  10.269  10.325  1.2345 -0.4636  1.0388
   93MOL0     C12431   6.564  10.345  10.320  0.0114  0.5200  0.2944
   93MOL0     C12432   6.640  10.322  10.184  0.1380 -0.0911  0.1621
   93MOL0     C12433   6.770  10.404  10.174 -1.2194  1.1203 -0.2118
   93MOL0     C12434   6.842  10.387  10.035  0.4809  1.6065  0.5422
   93MOL0     C12435   6.944  10.502  10.031 -0.2709 -0.0220  0.8872
   93MOL0     C12436   7.045  10.517   9.907  0.1103  0.7925 -0.5900
   93MOL0     N12437   7.078  10.378   9.855  0.5432 -0.0535 -0.6731
   93MOL0     C12438   7.196  10.314   9.878  0.3958  0.4431 -0.2064
   93MOL0     C12439   7.189  10.199   9.812 -0.3823  0.7408 -0.6490
   93MOL0     C12440   7.290  10.093   9.824 -0.1516 -0.4086 -0.9977
   93MOL0     C12441   7.246  10.014   9.948 -0.1120 -0.2469 -0.2088
   93MOL0     C12442   7.342   9.900   9.995 -0.1794 -0.0367  1.3542
   93MOL0     C12443   7.302   9.827  10.122  0.2200  0.8688  1.3895
   93MOL0     O12444   7.167   9.777  10.123 -0.1013 -0.1048 -0.0439
   93MOL0     C12445   7.134   9.764  10.252  0.5052  0.8405  0.1427
   93MOL0     C12446   7.067   9.872  10.307 -0.3257  1.1562  0.0052
   93MOL0     C12447   7.015   9.878  10.436  0.8718  1.2918  0.2017
   93MOL0     C12448   6.979  10.002  10.497 -0.2295 -0.5988  0.5301
   93MOL0     C12449   7.005   9.747  10.506 -1.0499 -0.9472  0.5522
   93MOL0     C12450   6.934   9.725  10.636  0.8494 -0.4118 -0.0016
   93MOL0     O12451   7.002   9.663  10.733 -0.4804 -0.1929 -0.2726
   93MOL0     C12452   6.949   9.625  10.856 -0.4519 -0.1342 -0.0694
   93MOL0     C12453   6.868   9.711  10.937  0.8533  0.1200 -0.0645
   93MOL0     C12454   6.842   9.672  11.066  0.1056  0.8407 -0.2097
   93MOL0     C12455   6.892   9.553  11.125 -0.4051 -0.6114  0.3380
   93MOL0     O12456   6.873   9.535  11.259  0.6213 -0.9127 -0.4534
   93MOL0     C12457   6.757   9.458  11.282  0.0338 -0.4107  0.4972
   93MOL0     C12458   6.743   9.448  11.436 -0.3680 -0.3668 -0.1975
   93MOL0     C12459   6.632   9.361  11.496  0.9594 -0.8082  0.2105
   93MOL0     C12460   6.645   9.212  11.450 -0.1100 -0.0389  1.0432
   93MOL0     C12461   6.582   9.100  11.535 -0.4185 -0.8893 -0.7564
   93MOL0     C12462   6.625   9.091  11.680  0.1936 -0.1385 -0.2854
   93MOL0     C12463   6.562   8.964  11.746  0.4773 -0.8612  1.5598
   93MOL0     C12464   6.414   8.980  11.796 -0.0093 -0.0250 -0.4975
   93MOL0    Cl12465   6.432   9.076  11.955 -0.0062  0.3682  0.1722
   93MOL0     C12466   6.976   9.468  11.059 -0.5604 -0.0734 -0.4381
   93MOL0     C12467   6.999   9.502  10.922  0.0762  0.2433 -0.2656
   93MOL0     O12468   6.811   9.759  10.635  0.2131 -0.3958 -0.1187
   93MOL0     C12469   7.082   9.640  10.454 -0.2809  0.1952  0.3024
   93MOL0     C12470   7.144   9.646  10.323 -0.4773  0.3566 -0.1429
   93MOL0     N12471   7.062  10.188   9.749  0.3317 -0.5960  0.5009
   93MOL0     N12472   6.997  10.304   9.771 -0.2913  0.7238 -0.1281
   93MOL0     C12473   6.154  10.232   9.981 -0.2007  0.5470 -0.0350
   93MOL0     C12474   6.098  10.230   9.850  1.0346  0.0943 -0.2509
   93MOL0     C12475   6.026  10.369   9.436  1.1496  0.6815  0.1303
   93MOL0     C12476   5.940  10.468   9.382 -0.0541 -0.8794  0.4860
   93MOL0     C12477   5.905  10.483   9.248  0.0085 -0.7672 -0.3914
   93MOL0     C12478   5.975  10.403   9.154 -0.3785 -0.4378  0.2797
   93MOL0     O12479   5.961  10.418   9.019  0.1939 -0.6182  0.4533
   93MOL0     C12480   5.831  10.461   8.963  0.0668 -0.3395 -0.4910
   93MOL0     C12481   5.835  10.420   8.813  0.2455 -0.1249  0.0381
   93MOL0     C12482   5.705  10.476   8.751  0.6051  0.0091  0.0585
   93MOL0     C12483   5.724  10.539   8.610  0.2040 -0.1934  0.1965
   93MOL0     C12484   5.602  10.517   8.530  1.0542  0.4512 -0.5471
   93MOL0     C12485   5.503  10.496   8.465  0.6301  0.5208  0.9830
   93MOL0     C12486   6.067  10.308   9.198  0.5116 -1.0344  0.3380
   93MOL0     C12487   6.088  10.284   9.341  0.2364  0.4539  0.2220
   93MOL0     H12488   6.370  10.186   9.659 -2.6380  0.7084 -2.4351
   93MOL0     H12489   6.466  10.132   9.889 -0.7554 -0.9216  0.1568
   93MOL0     H12490   6.354  10.383  10.164  2.2389  1.9413  2.6764
   93MOL0     H12491   6.238  10.273  10.247 -0.6260  1.5758 -1.8322
   93MOL0     H12492   6.382  10.311  10.413 -2.2716  1.0535 -1.3925
   93MOL0     H12493   6.434  10.162  10.345  1.5436 -0.4813  0.8971
   93MOL0     H12494   6.546  10.452  10.329  1.7859  0.8516  0.2328
   93MOL0     H12495   6.635  10.313  10.396  1.0244 -0.9580 -1.1901
   93MOL0     H12496   6.655  10.217  10.159  3.5857  0.1773  0.5870
   93MOL0     H12497   6.574  10.371  10.112 -2.3443 -0.4432  2.0975
   93MOL0     H12498   6.745  10.509  10.190  3.5936  2.7000 -1.2171
   93MOL0     H12499   6.842  10.394  10.256  0.1823  2.4079 -1.2024
   93MOL0     H12500   6.896  10.292  10.024  0.2653  1.6289 -0.9299
   93MOL0     H12501   6.775  10.392   9.949  2.4394 -0.0829 -1.2163
   93MOL0     H12502   6.896  10.600  10.039 -2.9900 -1.1437 -0.0802
   93MOL0     H12503   7.009  10.479  10.115  0.1623 -1.6332  0.1381
   93MOL0     H12504   7.140  10.559   9.941 -0.6409  1.3434  0.9245
   93MOL0     H12505   6.994  10.584   9.837 -2.9548  1.5773  2.1459
   93MOL0     H12506   7.270  10.355   9.946 -0.8610  2.0654  0.2617
   93MOL0     H12507   7.293  10.033   9.733 -0.9235 -0.6651 -0.8642
   93MOL0     H12508   7.385  10.142   9.849 -1.9003  0.9029  4.4908
   93MOL0     H12509   7.151   9.964   9.928 -1.1089  1.6319 -0.3674
   93MOL0     H12510   7.239  10.076  10.037 -1.8243 -0.7782  0.0681
   93MOL0     H12511   7.442   9.943  10.008 -0.3871  0.8049  0.2810
   93MOL0     H12512   7.355   9.818   9.924  3.4770 -0.9457  2.8308
   93MOL0     H12513   7.338   9.885  10.208  2.2717  1.9241 -0.0756
   93MOL0     H12514   7.365   9.737  10.117 -0.2927  0.5659 -0.2896
   93MOL0     H12515   7.073   9.961  10.245 -1.5037  0.9672 -0.4004
   93MOL0     H12516   6.955  10.076  10.420 -3.3118  0.2753  2.1604
   93MOL0     H12517   6.887   9.979  10.551 -1.0179 -3.6509 -1.8388
   93MOL0     H12518   7.060  10.033  10.564  0.8339 -1.7408 -0.1999
   93MOL0     H12519   6.831   9.801  10.888 -1.9090 -1.3143 -0.8264
   93MOL0     H12520   6.774   9.736  11.120 -2.1403  0.0753 -1.9843
   93MOL0     H12521   6.665   9.512  11.257 -1.7638 -3.4155  0.0496
   93MOL0     H12522   6.766   9.362  11.230  1.0762  0.7910 -1.6577
   93MOL0     H12523   6.837   9.412  11.479 -0.0621  0.6574  0.0312
   93MOL0     H12524   6.733   9.547  11.481 -0.1322  0.1652 -1.2879
   93MOL0     H12525   6.533   9.397  11.463  1.3632  1.4488  1.2706
   93MOL0     H12526   6.632   9.364  11.605 -2.3710  1.8110  0.3199
   93MOL0     H12527   6.609   9.206  11.347  1.7985  2.2240  0.1563
   93MOL0     H12528   6.751   9.185  11.442 -0.5347 -1.4144 -0.6746
   93MOL0     H12529   6.608   9.011  11.476 -0.4564 -0.2749 -1.7304
   93MOL0     H12530   6.474   9.115  11.530 -0.3683 -0.8646 -3.5890
   93MOL0     H12531   6.733   9.076  11.681 -0.1826 -4.5452 -2.5419
   93MOL0     H12532   6.599   9.184  11.732  2.6272 -1.5111  3.8770
   93MOL0     H12533   6.627   8.925  11.824  0.1818  0.1415  2.3272
   93MOL0     H12534   6.560   8.888  11.667 -1.2334 -0.6548  1.3734
   93MOL0     H12535   6.373   8.879  11.805  1.6738 -0.9722 -2.6177
   93MOL0     H12536   6.358   9.036  11.720  1.6813 -0.2641 -1.9623
   93MOL0     H12537   7.018   9.375  11.097  1.4059 -0.2265 -2.7325
   93MOL0     H12538   7.059   9.429  10.869 -2.3330 -0.8413 -1.6602
   93MOL0     H12539   7.084   9.543  10.503 -0.4084 -0.6634 -1.3059
   93MOL0     H12540   7.186   9.556  10.278  0.6793 -2.4611  5.6952
   93MOL0     H12541   6.092  10.247  10.068 -3.1139  2.5035 -2.2487
   93MOL0     H12542   5.995  10.260   9.831  1.6597  1.8875 -0.9949
   93MOL0     H12543   5.882  10.526   9.452 -1.2121 -1.4200  0.0091
   93MOL0     H12544   5.813  10.539   9.231 -0.7524 -1.6708  0.6586
   93MOL0     H12545   5.747  10.415   9.016  0.0698 -0.7145 -0.8037
   93MOL0     H12546   5.823  10.570   8.960 -1.6042 -0.4105 -4.1507
   93MOL0     H12547   5.836  10.311   8.806 -2.5004 -0.5155  3.3716
   93MOL0     H12548   5.929  10.445   8.763  1.4901 -2.6393  0.9466
   93MOL0     H12549   5.648  10.557   8.797 -2.1237  1.3428 -5.0067
   93MOL0     H12550   5.632  10.395   8.750  0.5143 -0.0320  2.6968
   93MOL0     H12551   5.811  10.513   8.549 -0.3082  1.0746 -1.1287
   93MOL0     H12552   5.724  10.648   8.619 -1.8772 -0.1254 -0.2221
   93MOL0     H12553   5.428  10.489   8.389 -0.4801  0.4074  2.0573
   93MOL0     H12554   6.098  10.244   9.116 -2.1369 -3.0924  0.8078
   93MOL0     H12555   6.155  10.203   9.371  0.2553 -0.3869 -1.9434
   94MOL0     O12556   5.939   7.295   5.203  0.0179 -0.0239 -0.5053
   94MOL0     C12557   5.886   7.279   5.314 -1.2318  0.5505  0.4824
   94MOL0     O12558   5.868   7.159   5.378  0.9435  0.5218 -0.7733
   94MOL0     C12559   5.905   7.034   5.341  0.0971  0.8399  0.4914
   94MOL0     C12560   5.830   6.947   5.410  0.2007  0.8834  1.2142
   94MOL0     C12561   5.859   6.809   5.382  0.3741  0.1340 -0.0218
   94MOL0     C12562   5.959   6.767   5.283  0.7292 -0.5485  0.3941
   94MOL0     O12563   5.966   6.629   5.247  0.3578  0.2546 -0.6576
   94MOL0     C12564   6.071   6.581   5.168 -0.1218  0.6747  0.7560
   94MOL0     C12565   6.026   6.609   5.023  0.0807  0.2710  1.7044
   94MOL0     C12566   5.893   6.549   4.968  0.0328 -0.3827  0.0649
   94MOL0     C12567   5.899   6.557   4.810 -0.1194  0.6884 -0.1501
   94MOL0     C12568   5.986   6.436   4.760  0.4834  0.4303 -0.8393
   94MOL0     C12569   5.916   6.333   4.670 -0.0183 -0.3473 -0.1968
   94MOL0     C12570   5.842   6.389   4.547 -0.4916 -0.8605  0.7709
   94MOL0     C12571   5.926   6.385   4.423  0.1269 -0.7503  0.0926
   94MOL0     N12572   6.039   6.483   4.439 -0.3429  0.9661 -0.1323
   94MOL0     C12573   6.030   6.619   4.429  0.2313 -0.3373 -0.3605
   94MOL0     C12574   6.160   6.658   4.443 -0.1676 -0.2093  0.4603
   94MOL0     C12575   6.179   6.807   4.445 -0.3689 -0.7357 -0.6259
   94MOL0     C12576   6.328   6.866   4.465 -0.0108  0.2675 -1.4077
   94MOL0     C12577   6.320   7.019   4.473  0.7210 -1.0057 -0.5822
   94MOL0     C12578   6.437   7.085   4.525 -0.7910 -0.4986  0.2316
   94MOL0     O12579   6.419   7.229   4.543  0.2416  1.6984  0.6723
   94MOL0     C12580   6.397   7.273   4.671 -0.3096 -0.1490  0.1287
   94MOL0     C12581   6.502   7.332   4.735  0.5766  0.6030  0.4267
   94MOL0     C12582   6.496   7.365   4.869  0.2980  0.6988 -1.0945
   94MOL0     C12583   6.601   7.448   4.935 -0.3073 -0.0256 -0.2377
   94MOL0     C12584   6.377   7.336   4.935  0.3186 -0.4861  0.0511
   94MOL0     C12585   6.351   7.369   5.077  1.2748 -0.6190  0.3603
   94MOL0     O12586   6.243   7.446   5.102 -0.2202  0.4540  0.6845
   94MOL0     C12587   6.226   7.495   5.226 -1.2526 -0.3180  0.7470
   94MOL0     C12588   6.220   7.632   5.235 -0.4896 -0.5418  0.3892
   94MOL0     C12589   6.200   7.682   5.363 -0.1083 -0.6523  0.2850
   94MOL0     C12590   6.165   7.609   5.473 -0.5172  1.0132 -0.1854
   94MOL0     O12591   6.123   7.676   5.582 -0.8593 -0.2121  0.2258
   94MOL0     C12592   6.187   7.789   5.638  0.0118 -1.1553  0.0808
   94MOL0     C12593   6.229   7.754   5.779  0.5554  1.2463 -0.1987
   94MOL0     C12594   6.374   7.672   5.779  1.5616  0.4614 -0.7150
   94MOL0     C12595   6.402   7.635   5.925 -0.3205  0.5323  0.4072
   94MOL0     C12596   6.544   7.583   5.941  0.5037  0.4216 -0.4321
   94MOL0     C12597   6.652   7.686   5.966  0.7030  0.8018  0.7239
   94MOL0     C12598   6.783   7.616   6.011  0.0347 -0.1769  0.2200
   94MOL0     C12599   6.888   7.717   6.008 -0.0094  0.5899  0.2159
   94MOL0    Cl12600   6.911   7.779   5.845 -0.0702 -0.0507  0.3675
   94MOL0     C12601   6.161   7.474   5.456  0.2611  0.2976 -0.7645
   94MOL0     C12602   6.189   7.412   5.338 -1.0865  0.3466 -0.3893
   94MOL0     O12603   6.430   7.331   5.154  0.3533  0.3363 -0.5457
   94MOL0     C12604   6.269   7.273   4.865 -0.3478  0.1233 -1.1213
   94MOL0     C12605   6.284   7.243   4.735  0.1418 -1.0544 -0.3198
   94MOL0     N12606   6.246   6.559   4.455 -1.3561 -0.2295  0.3605
   94MOL0     N12607   6.172   6.453   4.437 -0.7128  0.7761  0.7479
   94MOL0     C12608   6.031   6.868   5.211 -0.2912  0.1242 -0.2179
   94MOL0     C12609   6.009   7.002   5.249 -0.2890 -0.6975 -0.5617
   94MOL0     C12610   5.832   7.402   5.374  0.4624  1.4204 -0.5545
   94MOL0     C12611   5.873   7.530   5.335 -0.6010 -0.2358  0.1742
   94MOL0     C12612   5.803   7.643   5.383  0.1078 -0.5252 -0.9010
   94MOL0     C12613   5.705   7.626   5.480  0.4546  0.3198  0.1808
   94MOL0     O12614   5.647   7.740   5.542  0.2855 -0.5054 -0.2833
   94MOL0     C12615   5.734   7.846   5.596 -0.1546 -0.3279  0.2548
   94MOL0     C12616   5.703   7.908   5.725 -0.1744  0.5028  0.0487
   94MOL0     C12617   5.716   7.792   5.832 -0.1763 -0.1690  0.2874
   94MOL0     C12618   5.860   7.760   5.861 -0.7986  0.1623 -1.4550
   94MOL0     C12619   5.881   7.692   5.996 -1.3336 -0.9528  0.7314
   94MOL0     C12620   5.907   7.635   6.092  0.1217 -0.1087 -0.0543
   94MOL0     C12621   5.660   7.496   5.515  0.7332 -0.6349  1.0137
   94MOL0     C12622   5.729   7.391   5.465  0.5301  0.3976  1.0664
   94MOL0     H12623   5.745   6.964   5.475 -1.0293  1.9694 -0.6018
   94MOL0     H12624   5.802   6.737   5.439  0.3794  1.8547  2.3163
   94MOL0     H12625   6.164   6.635   5.187 -0.8283  2.3048 -0.2183
   94MOL0     H12626   6.099   6.477   5.188  0.9796  0.0683 -3.1687
   94MOL0     H12627   6.021   6.717   5.006  0.4159  0.0641  0.1636
   94MOL0     H12628   6.108   6.573   4.961  2.3937  0.6527  4.3608
   94MOL0     H12629   5.883   6.449   5.010  0.8442 -0.4731  0.0544
   94MOL0     H12630   5.820   6.616   5.014 -0.3241 -1.3051  0.8617
   94MOL0     H12631   5.803   6.564   4.759  0.5202 -0.8647 -1.6717
   94MOL0     H12632   5.955   6.644   4.775  0.2936 -0.6967 -3.2061
   94MOL0     H12633   6.073   6.487   4.717  1.9414 -0.5724  0.8001
   94MOL0     H12634   6.041   6.382   4.837  0.9207  1.2632 -0.5523
   94MOL0     H12635   5.987   6.260   4.631  0.9875  0.4962  0.0056
   94MOL0     H12636   5.842   6.279   4.730 -0.9252  1.6003  0.5198
   94MOL0     H12637   5.744   6.347   4.525  0.1372 -1.2709 -1.4092
   94MOL0     H12638   5.809   6.494   4.554 -3.5028 -1.4971 -1.8786
   94MOL0     H12639   5.856   6.414   4.344  0.4069  2.2290  0.8462
   94MOL0     H12640   5.977   6.289   4.409  4.2993  1.4501 -1.5450
   94MOL0     H12641   5.942   6.681   4.421 -0.0632 -0.8915 -1.6251
   94MOL0     H12642   6.143   6.848   4.350 -1.7774 -1.6331 -0.5062
   94MOL0     H12643   6.125   6.847   4.531  4.1851  0.6692  1.8764
   94MOL0     H12644   6.393   6.833   4.384  3.9632 -1.4334  2.0783
   94MOL0     H12645   6.365   6.828   4.561 -0.8801  2.0415 -0.3257
   94MOL0     H12646   6.238   7.050   4.539  1.7500  0.4534  0.0675
   94MOL0     H12647   6.308   7.070   4.377 -0.6420 -0.7147 -0.2813
   94MOL0     H12648   6.509   7.063   4.445 -2.2537  0.3412 -1.3894
   94MOL0     H12649   6.485   7.039   4.612 -2.2747 -0.5244  1.0558
   94MOL0     H12650   6.593   7.351   4.679  0.4182  1.5260  0.4651
   94MOL0     H12651   6.668   7.393   5.002  1.0278  1.8604  0.0495
   94MOL0     H12652   6.661   7.484   4.851  0.9117 -1.2561  0.0568
   94MOL0     H12653   6.563   7.524   5.003 -1.2157 -0.5022 -0.2029
   94MOL0     H12654   6.220   7.699   5.150  1.8355  0.8413  1.4103
   94MOL0     H12655   6.202   7.790   5.374  4.9520 -0.3717 -0.8223
   94MOL0     H12656   6.285   7.809   5.593 -0.0447 -1.4200 -0.1611
   94MOL0     H12657   6.122   7.876   5.643 -0.2931 -1.3927  4.0404
   94MOL0     H12658   6.241   7.837   5.850 -2.2282  1.1599  0.4864
   94MOL0     H12659   6.149   7.687   5.811  0.0098  1.9534 -0.0650
   94MOL0     H12660   6.459   7.727   5.736  0.6627 -0.9253 -4.7779
   94MOL0     H12661   6.363   7.584   5.714 -2.0549  1.2612 -1.3982
   94MOL0     H12662   6.385   7.723   5.988 -1.6337  2.5917 -2.5857
   94MOL0     H12663   6.334   7.556   5.958  0.1865  1.3752  3.7728
   94MOL0     H12664   6.571   7.519   5.857 -3.1217 -2.9112  0.6488
   94MOL0     H12665   6.539   7.522   6.031 -0.3973  1.5181  0.2981
   94MOL0     H12666   6.665   7.736   5.869  0.0512  1.4091  0.9445
   94MOL0     H12667   6.626   7.769   6.032  1.9506  3.0809 -1.4599
   94MOL0     H12668   6.807   7.526   5.953 -1.5082 -1.5612  1.6227
   94MOL0     H12669   6.774   7.583   6.115  1.0723  0.8560  0.6577
   94MOL0     H12670   6.979   7.665   6.038  1.9133  1.8151 -2.8842
   94MOL0     H12671   6.872   7.804   6.072 -1.3267  1.6036 -1.4123
   94MOL0     H12672   6.145   7.403   5.537  1.0654 -0.2082 -1.0308
   94MOL0     H12673   6.188   7.305   5.322  0.3390 -0.1791  2.4358
   94MOL0     H12674   6.183   7.232   4.916  0.2151  1.0538  0.6899
   94MOL0     H12675   6.203   7.202   4.675 -2.3301  1.7182  0.8739
   94MOL0     H12676   6.100   6.850   5.129  0.0255  2.1759 -0.4454
   94MOL0     H12677   6.054   7.085   5.195 -1.3134  1.6539  1.9550
   94MOL0     H12678   5.956   7.544   5.267 -1.6934  1.2770 -0.9292
   94MOL0     H12679   5.831   7.743   5.350  1.5298 -0.3199  0.7760
   94MOL0     H12680   5.838   7.812   5.596 -0.2901 -0.7519 -0.4758
   94MOL0     H12681   5.733   7.921   5.517  0.7393 -0.6346 -0.0621
   94MOL0     H12682   5.606   7.959   5.721 -1.3579 -1.6002 -3.5188
   94MOL0     H12683   5.770   7.991   5.748 -0.6849  1.5441 -1.9991
   94MOL0     H12684   5.651   7.709   5.803 -1.6960  1.9091 -2.7214
   94MOL0     H12685   5.671   7.823   5.926 -1.0231 -1.5342  0.3614
   94MOL0     H12686   5.935   7.838   5.845  0.0975 -0.2146  0.5325
   94MOL0     H12687   5.879   7.685   5.784  0.4067 -0.1176 -0.9097
   94MOL0     H12688   5.933   7.584   6.183  2.1294  3.0637  1.3134
   94MOL0     H12689   5.578   7.496   5.586 -1.7322 -0.0570 -1.6240
   94MOL0     H12690   5.677   7.302   5.499  0.4229  0.1352  0.2197
   95MOL0     O12691   2.669   5.224   6.718  0.3402 -1.0079  1.1433
   95MOL0     C12692   2.717   5.129   6.651 -0.1545 -0.1987 -0.9645
   95MOL0     O12693   2.730   5.128   6.511  0.1207 -0.4403 -0.4796
   95MOL0     C12694   2.770   5.248   6.454  0.0106 -0.1757 -1.0003
   95MOL0     C12695   2.687   5.297   6.344 -0.2826 -0.5548  0.6993
   95MOL0     C12696   2.729   5.414   6.283 -0.0985 -0.3018 -0.9557
   95MOL0     C12697   2.840   5.488   6.317 -0.7433 -0.5353  0.5812
   95MOL0     O12698   2.865   5.601   6.246  0.3330 -0.6583  0.3253
   95MOL0     C12699   2.998   5.652   6.244 -0.0408 -0.4029  0.2861
   95MOL0     C12700   3.005   5.765   6.353  0.8150  1.0828 -0.0408
   95MOL0     C12701   3.150   5.797   6.399 -0.5579 -0.3780  0.5363
   95MOL0     C12702   3.251   5.849   6.289 -0.1526 -0.5964  0.6501
   95MOL0     C12703   3.384   5.890   6.351  0.1018 -0.7186 -0.3469
   95MOL0     C12704   3.492   5.920   6.242 -0.2544  1.0152 -0.5097
   95MOL0     C12705   3.461   6.046   6.167  0.1904  0.4278  0.0650
   95MOL0     C12706   3.519   6.050   6.019 -0.2823  0.0086  0.5071
   95MOL0     N12707   3.485   6.175   5.947  0.5285  0.4862 -0.8491
   95MOL0     C12708   3.514   6.298   5.992 -0.4734 -0.3593  0.0111
   95MOL0     C12709   3.470   6.384   5.899 -0.4328 -0.1010  0.4496
   95MOL0     C12710   3.455   6.534   5.907  0.3887  0.1885  0.7085
   95MOL0     C12711   3.593   6.596   5.857  0.2904 -0.6697  0.1821
   95MOL0     C12712   3.610   6.737   5.876 -0.2767  0.0406  0.2818
   95MOL0     C12713   3.743   6.785   5.819 -0.8445 -0.5325  0.2054
   95MOL0     O12714   3.736   6.772   5.675  0.5939 -0.0086 -0.2187
   95MOL0     C12715   3.674   6.862   5.594  0.0929 -0.9778 -0.6596
   95MOL0     C12716   3.710   6.853   5.464 -0.2878 -0.5440  0.1189
   95MOL0     C12717   3.682   6.947   5.366 -0.2413 -0.5850 -0.2251
   95MOL0     C12718   3.714   6.917   5.223  0.1798 -0.1681  0.1441
   95MOL0     C12719   3.600   7.059   5.406 -0.6759  0.7605  0.1054
   95MOL0     C12720   3.552   7.165   5.314  0.2698 -0.7734  0.3609
   95MOL0     O12721   3.447   7.251   5.357  0.3385 -0.4234  0.3781
   95MOL0     C12722   3.406   7.356   5.279  1.1888  1.0191 -0.1370
   95MOL0     C12723   3.312   7.347   5.176 -0.6728 -0.4414 -0.9366
   95MOL0     C12724   3.282   7.454   5.089 -0.1729 -0.5004 -0.5471
   95MOL0     C12725   3.326   7.577   5.120 -0.0830 -0.8012  0.2214
   95MOL0     O12726   3.310   7.697   5.043 -0.1022  0.3824  0.5416
   95MOL0     C12727   3.284   7.689   4.902  0.4866  0.8598 -0.1261
   95MOL0     C12728   3.139   7.661   4.859  0.0082 -0.0864  0.7972
   95MOL0     C12729   3.139   7.710   4.710  0.5173 -0.2076 -0.9991
   95MOL0     C12730   3.026   7.646   4.633  1.5339 -0.4966 -0.2079
   95MOL0     C12731   3.003   7.716   4.498 -0.1796  0.2534  0.1243
   95MOL0     C12732   2.905   7.840   4.495 -0.3001 -0.5358  0.2895
   95MOL0     C12733   2.905   7.907   4.348  0.0147  0.1648  0.7858
   95MOL0     C12734   2.975   8.037   4.322  0.5815 -0.7912  0.1461
   95MOL0    Cl12735   3.143   8.017   4.401 -0.0399  0.2048  0.2934
   95MOL0     C12736   3.414   7.593   5.229 -0.3812 -0.1156  0.6625
   95MOL0     C12737   3.453   7.483   5.303  0.5988 -0.7051 -0.7608
   95MOL0     O12738   3.603   7.170   5.201  0.1237  0.9269  1.0001
   95MOL0     C12739   3.557   7.065   5.538 -0.3415  0.5705 -0.0607
   95MOL0     C12740   3.598   6.972   5.634  0.0583  0.6428 -0.4945
   95MOL0     N12741   3.431   6.310   5.795 -0.3650  0.2188  1.1318
   95MOL0     N12742   3.442   6.186   5.820  0.0308  0.5861 -0.2705
   95MOL0     C12743   2.918   5.442   6.427  0.4427  0.5422 -0.5197
   95MOL0     C12744   2.883   5.327   6.500  0.2843  0.3883 -0.8897
   95MOL0     C12745   2.768   5.009   6.728  0.8422 -0.4764 -0.2731
   95MOL0     C12746   2.758   5.018   6.868  0.2570  0.4136  0.0723
   95MOL0     C12747   2.791   4.905   6.944  0.1181 -0.3832 -0.2410
   95MOL0     C12748   2.832   4.784   6.895  0.3807 -0.1086  0.2778
   95MOL0     O12749   2.870   4.683   6.984  0.3851 -0.7159 -0.2754
   95MOL0     C12750   2.936   4.569   6.925 -0.0364 -0.1437 -0.1609
   95MOL0     C12751   2.992   4.461   7.025 -0.1312 -0.6444  0.2486
   95MOL0     C12752   2.894   4.351   7.061 -0.2366  0.7587 -0.0754
   95MOL0     C12753   2.770   4.387   7.140  0.9718 -0.5088 -0.2877
   95MOL0     C12754   2.721   4.268   7.202  0.0425  0.3270  0.3942
   95MOL0     C12755   2.679   4.164   7.240 -0.5774  0.8340  0.2142
   95MOL0     C12756   2.848   4.781   6.759 -0.4065  0.6691 -0.0376
   95MOL0     C12757   2.805   4.887   6.670 -0.3537  0.6813  0.1617
   95MOL0     H12758   2.597   5.241   6.318 -0.4524 -0.3187  0.7815
   95MOL0     H12759   2.665   5.450   6.203 -2.7073 -0.7555  0.8012
   95MOL0     H12760   3.069   5.571   6.266  1.2385  0.0173 -1.9887
   95MOL0     H12761   3.032   5.695   6.149  0.5975  1.1702  1.1800
   95MOL0     H12762   2.950   5.852   6.317 -4.5899 -1.4556  1.0999
   95MOL0     H12763   2.949   5.732   6.442  2.6992 -1.6015  0.2899
   95MOL0     H12764   3.160   5.882   6.467  1.5072  0.3929 -0.6297
   95MOL0     H12765   3.195   5.705   6.437 -0.4288 -1.0991 -1.2528
   95MOL0     H12766   3.267   5.766   6.219 -0.3146 -0.1418  0.0614
   95MOL0     H12767   3.214   5.937   6.234  0.1381 -1.1642 -0.4868
   95MOL0     H12768   3.353   5.978   6.407 -2.1277 -3.1607  2.6412
   95MOL0     H12769   3.423   5.813   6.419  3.1397 -0.0288 -1.1886
   95MOL0     H12770   3.582   5.926   6.304  0.1496 -4.0722 -0.1530
   95MOL0     H12771   3.495   5.836   6.172 -1.2023  0.1187  0.4856
   95MOL0     H12772   3.356   6.076   6.164  0.4578  1.3361 -2.6499
   95MOL0     H12773   3.509   6.125   6.227 -0.3886  1.7599 -1.1733
   95MOL0     H12774   3.474   5.967   5.964  1.5061  1.3894 -3.3596
   95MOL0     H12775   3.627   6.036   6.020  0.0422  2.0500 -0.1745
   95MOL0     H12776   3.561   6.322   6.087  0.0335 -0.0763 -0.3038
   95MOL0     H12777   3.372   6.570   5.847 -0.8093 -0.9046  1.6402
   95MOL0     H12778   3.432   6.560   6.011 -4.3443 -1.5541  0.3525
   95MOL0     H12779   3.600   6.560   5.754 -1.4412 -1.7766  0.4211
   95MOL0     H12780   3.670   6.549   5.920 -0.6995  0.2838  2.1648
   95MOL0     H12781   3.601   6.759   5.983 -2.6299 -2.6740  0.7663
   95MOL0     H12782   3.526   6.788   5.827 -0.9608 -1.1243  0.2046
   95MOL0     H12783   3.829   6.729   5.855 -0.2919 -0.4685 -0.9631
   95MOL0     H12784   3.766   6.888   5.847 -0.5894 -0.1979 -1.1542
   95MOL0     H12785   3.761   6.758   5.450 -0.1022 -0.7575  2.0534
   95MOL0     H12786   3.622   6.922   5.164  0.7649 -1.4877 -0.9654
   95MOL0     H12787   3.790   6.978   5.174 -1.6188 -0.0262 -2.7375
   95MOL0     H12788   3.741   6.811   5.217 -3.2832 -1.1558 -0.5907
   95MOL0     H12789   3.278   7.248   5.146  0.6250 -0.9351 -0.8553
   95MOL0     H12790   3.213   7.451   5.005 -0.1287  1.8065 -0.7292
   95MOL0     H12791   3.316   7.784   4.859  0.5717  0.7613 -0.2813
   95MOL0     H12792   3.334   7.598   4.869  2.4678  2.7003 -2.6093
   95MOL0     H12793   3.110   7.558   4.882  1.9135 -0.4289  1.9184
   95MOL0     H12794   3.075   7.724   4.921  1.3980  0.8105  1.3755
   95MOL0     H12795   3.237   7.702   4.663  1.1128  1.4013 -0.0950
   95MOL0     H12796   3.121   7.818   4.720  0.9895 -0.2467  0.4864
   95MOL0     H12797   3.060   7.548   4.600  3.7026  0.0032  0.3891
   95MOL0     H12798   2.933   7.628   4.688  0.8520 -2.1741 -1.8072
   95MOL0     H12799   2.974   7.645   4.420  1.1706  0.5008 -0.6218
   95MOL0     H12800   3.095   7.755   4.454  0.1998  1.2502  1.6860
   95MOL0     H12801   2.808   7.803   4.529  1.5277 -5.2958  1.0980
   95MOL0     H12802   2.950   7.904   4.571  1.8696 -0.6830 -0.7984
   95MOL0     H12803   2.803   7.900   4.311  0.5141 -3.2111 -0.2983
   95MOL0     H12804   2.969   7.846   4.283  1.1391  1.7665  0.3253
   95MOL0     H12805   2.910   8.113   4.366  1.8727  3.1789 -4.0226
   95MOL0     H12806   2.978   8.059   4.215 -3.3424  0.8743  0.2234
   95MOL0     H12807   3.457   7.687   5.263 -0.5434 -0.4275  1.7414
   95MOL0     H12808   3.522   7.503   5.385 -0.9725 -2.8896  1.2495
   95MOL0     H12809   3.499   7.145   5.583 -2.4114 -1.7442  1.6206
   95MOL0     H12810   3.575   6.992   5.738  0.9262  0.4557 -0.2566
   95MOL0     H12811   3.008   5.494   6.459 -0.1936  1.0511  0.4724
   95MOL0     H12812   2.951   5.294   6.578 -1.2344 -1.3953 -0.2497
   95MOL0     H12813   2.724   5.104   6.925 -0.8271  0.3723 -0.4852
   95MOL0     H12814   2.785   4.925   7.050  0.0471  0.2825 -0.3663
   95MOL0     H12815   2.866   4.523   6.855 -0.3226  0.4140 -0.2410
   95MOL0     H12816   3.023   4.604   6.868 -0.6129 -0.1036 -1.0315
   95MOL0     H12817   3.005   4.503   7.125 -2.6580  1.1644 -0.0634
   95MOL0     H12818   3.090   4.427   6.992  0.7226  2.1734 -0.4521
   95MOL0     H12819   2.946   4.277   7.122 -1.1813  1.5089  1.7042
   95MOL0     H12820   2.862   4.300   6.969 -0.0457  2.3902 -1.0953
   95MOL0     H12821   2.693   4.441   7.084  1.4579  1.9600  1.2665
   95MOL0     H12822   2.801   4.461   7.214  0.1010 -1.1460  0.7375
   95MOL0     H12823   2.638   4.068   7.264  0.1519 -0.1292 -2.1032
   95MOL0     H12824   2.877   4.687   6.713  2.6046  0.6781  1.5933
   95MOL0     H12825   2.800   4.884   6.562 -1.7265  2.6752  0.1143
   96MOL0     O12826   7.211   9.239   8.413 -0.4763  0.3104  0.0342
   96MOL0     C12827   7.234   9.343   8.464 -0.1631  0.3512 -0.4222
   96MOL0     O12828   7.148   9.396   8.561  0.3350  0.4107  0.2383
   96MOL0     C12829   7.048   9.314   8.606 -0.5548 -0.0404 -0.2468
   96MOL0     C12830   6.941   9.310   8.518  0.9059  0.3711  0.3662
   96MOL0     C12831   6.843   9.210   8.532  0.1756  0.1012  0.0973
   96MOL0     C12832   6.852   9.115   8.636  0.0770 -0.2802 -0.0788
   96MOL0     O12833   6.774   9.011   8.650 -0.4585  0.2596 -0.0777
   96MOL0     C12834   6.647   9.050   8.670  0.7496  0.6331 -0.4848
   96MOL0     C12835   6.593   8.967   8.792 -0.6668 -0.7438 -0.4580
   96MOL0     C12836   6.448   8.989   8.814  0.6646 -0.2602  1.4422
   96MOL0     C12837   6.407   8.959   8.958  0.3026  0.2898 -0.6257
   96MOL0     C12838   6.253   8.962   8.966  0.3747  0.1354  0.4294
   96MOL0     C12839   6.207   9.106   8.999  0.2514 -0.0865  0.1959
   96MOL0     C12840   6.057   9.122   9.028  0.4031  0.2705 -0.7181
   96MOL0     C12841   5.966   9.140   8.911 -0.4874 -0.0173 -0.0041
   96MOL0     N12842   5.973   9.289   8.889  0.7653  0.3290  0.0232
   96MOL0     C12843   5.899   9.381   8.953 -0.3575  0.6546 -0.5499
   96MOL0     C12844   5.950   9.499   8.907 -0.0188 -0.3780 -0.2431
   96MOL0     C12845   5.902   9.633   8.929  0.5020 -0.4559  0.1056
   96MOL0     C12846   5.986   9.709   9.039  0.4371  1.0121  0.5029
   96MOL0     C12847   5.928   9.851   9.050  0.3419  0.4828 -0.1752
   96MOL0     C12848   5.999   9.913   9.172 -0.7350  0.1774 -0.0636
   96MOL0     O12849   5.916  10.017   9.226  0.5277 -0.1587 -0.3938
   96MOL0     C12850   5.845   9.975   9.334 -0.0499  1.0485  0.1568
   96MOL0     C12851   5.714   9.929   9.329 -1.0126  0.4917 -0.3906
   96MOL0     C12852   5.637   9.891   9.438  0.0809 -0.4289 -0.6208
   96MOL0     C12853   5.495   9.846   9.420 -0.3866 -0.3268 -0.1044
   96MOL0     C12854   5.709   9.903   9.562  1.1193  0.6640  0.3866
   96MOL0     C12855   5.643   9.860   9.699  0.1773 -1.0882  0.3353
   96MOL0     O12856   5.513   9.826   9.708  0.0714  0.0584  0.9348
   96MOL0     C12857   5.475   9.787   9.835  0.4118 -0.7256 -0.8315
   96MOL0     C12858   5.465   9.869   9.949  0.5256 -0.5205 -0.2623
   96MOL0     C12859   5.394   9.828  10.063  0.1748  0.0452 -0.0077
   96MOL0     C12860   5.359   9.697  10.076  0.0447  0.1376 -0.2448
   96MOL0     O12861   5.279   9.664  10.187 -0.1224  0.1107  0.1791
   96MOL0     C12862   5.250   9.525  10.220  0.7655  0.1820 -0.1406
   96MOL0     C12863   5.223   9.501  10.369  0.0590  0.2604 -0.3527
   96MOL0     C12864   5.345   9.502  10.466 -0.0507  0.0203  0.2275
   96MOL0     C12865   5.318   9.429  10.590  0.0614  0.3230  0.5954
   96MOL0     C12866   5.453   9.422  10.675 -0.3477  0.7690 -0.1113
   96MOL0     C12867   5.444   9.326  10.802 -0.4462 -0.0042 -0.2305
   96MOL0     C12868   5.468   9.182  10.733  0.0146  0.6055 -0.3245
   96MOL0     C12869   5.436   9.067  10.817  0.2363  0.5060  0.3580
   96MOL0    Cl12870   5.564   9.056  10.947  0.3385 -0.3152 -0.2034
   96MOL0     C12871   5.376   9.609   9.973  0.0276  0.4445 -0.0726
   96MOL0     C12872   5.440   9.657   9.857  0.2942  0.4116  0.7215
   96MOL0     O12873   5.716   9.872   9.802  0.0433  0.4899 -0.7327
   96MOL0     C12874   5.842   9.934   9.572  0.1846  0.0823 -0.2096
   96MOL0     C12875   5.914   9.969   9.459 -0.7675 -0.0188 -0.2017
   96MOL0     N12876   6.051   9.473   8.820 -0.5136 -0.1165  0.3949
   96MOL0     N12877   6.061   9.350   8.804  0.0624 -0.4232 -0.3811
   96MOL0     C12878   6.961   9.131   8.721 -0.5987  1.2319  0.7044
   96MOL0     C12879   7.059   9.226   8.711  0.3473  0.1505 -0.4592
   96MOL0     C12880   7.342   9.425   8.389 -0.2583 -0.0222 -0.5974
   96MOL0     C12881   7.441   9.365   8.315  0.0224 -0.9719 -0.4641
   96MOL0     C12882   7.540   9.446   8.259  0.3919 -0.3034 -0.1088
   96MOL0     C12883   7.537   9.585   8.282 -0.5003  0.5239  0.2971
   96MOL0     O12884   7.619   9.674   8.218  0.5252  0.7874  1.1183
   96MOL0     C12885   7.643   9.643   8.077  0.0445  0.6781 -0.2842
   96MOL0     C12886   7.764   9.726   8.043 -0.2223  0.1621 -0.0597
   96MOL0     C12887   7.743   9.868   7.990 -0.6289 -0.3094  0.2635
   96MOL0     C12888   7.873   9.931   7.935  0.2039  0.9034  0.4245
   96MOL0     C12889   7.880   9.905   7.786 -0.5577  0.8677 -0.1468
   96MOL0     C12890   7.917   9.880   7.675  0.4704 -0.2276  0.4545
   96MOL0     C12891   7.427   9.650   8.338  0.0830  0.4260 -0.6740
   96MOL0     C12892   7.331   9.559   8.385 -0.2498 -0.7463 -1.2324
   96MOL0     H12893   6.936   9.377   8.433 -0.6773  2.0194  1.6590
   96MOL0     H12894   6.767   9.211   8.455  1.4710  2.3922 -1.2836
   96MOL0     H12895   6.627   9.157   8.681  2.6143  1.1067 -1.3459
   96MOL0     H12896   6.582   9.029   8.584  0.7054 -2.6748  0.2204
   96MOL0     H12897   6.616   8.864   8.765 -1.1200 -0.4053 -2.3102
   96MOL0     H12898   6.652   8.992   8.881 -0.7346  0.2785 -0.6892
   96MOL0     H12899   6.423   9.093   8.796 -3.2732 -1.3371 -0.4542
   96MOL0     H12900   6.397   8.935   8.733  1.6865  0.8019  0.0515
   96MOL0     H12901   6.438   8.858   8.985 -0.5671 -0.0926 -1.0222
   96MOL0     H12902   6.459   9.032   9.021 -1.7713  0.3630  1.1021
   96MOL0     H12903   6.221   8.944   8.863 -0.9760  2.0433  0.4638
   96MOL0     H12904   6.217   8.888   9.039  2.1936 -0.4762  0.7414
   96MOL0     H12905   6.265   9.127   9.089  2.8113 -2.9559 -0.6080
   96MOL0     H12906   6.242   9.175   8.922 -0.6863  1.6601  1.2791
   96MOL0     H12907   6.015   9.034   9.077 -0.0784  0.4429 -0.8105
   96MOL0     H12908   6.054   9.208   9.096  2.6656 -0.5597  0.5616
   96MOL0     H12909   5.861   9.112   8.915 -0.7426  0.3723 -2.3135
   96MOL0     H12910   6.002   9.080   8.826 -0.5539 -3.4949  2.2093
   96MOL0     H12911   5.811   9.372   9.016 -0.4097  3.2224 -0.1442
   96MOL0     H12912   5.895   9.697   8.841  1.8994 -0.1269  0.2191
   96MOL0     H12913   5.799   9.620   8.964  1.0016  0.9160  2.2410
   96MOL0     H12914   6.090   9.695   9.010  0.2103 -0.6854  0.4351
   96MOL0     H12915   5.968   9.663   9.137  1.6983  1.3864  0.9224
   96MOL0     H12916   5.818   9.851   9.052  0.1956  2.5745 -2.7258
   96MOL0     H12917   5.953   9.897   8.954 -0.9150 -2.9285 -2.3451
   96MOL0     H12918   6.096   9.949   9.138  0.3660 -2.8274 -0.4216
   96MOL0     H12919   6.019   9.838   9.249  1.1955  0.0756 -0.6090
   96MOL0     H12920   5.654   9.925   9.239 -1.9837 -1.5663  0.3063
   96MOL0     H12921   5.469   9.847   9.314 -0.0597  1.4944 -0.1911
   96MOL0     H12922   5.478   9.749   9.468 -0.2502  0.3348  1.3334
   96MOL0     H12923   5.437   9.921   9.475 -2.3614 -0.6642 -1.6330
   96MOL0     H12924   5.504   9.971   9.944  0.7055 -0.5766 -0.0184
   96MOL0     H12925   5.374   9.903  10.139 -2.1139 -1.3071  0.8277
   96MOL0     H12926   5.162   9.502  10.159 -0.3648  1.0475  1.0986
   96MOL0     H12927   5.330   9.455  10.195 -1.2016 -2.3321  0.2099
   96MOL0     H12928   5.162   9.581  10.412  1.9262  0.5660  1.9322
   96MOL0     H12929   5.166   9.408  10.371 -0.6387  0.6403 -1.6667
   96MOL0     H12930   5.384   9.603  10.487 -1.8992  0.5555  1.2652
   96MOL0     H12931   5.426   9.447  10.418  2.3593  1.9295  1.8304
   96MOL0     H12932   5.235   9.470  10.649 -0.0364 -0.3096  0.9043
   96MOL0     H12933   5.277   9.335  10.552 -0.2389  1.3406 -1.7828
   96MOL0     H12934   5.467   9.520  10.721 -2.1874  1.0291 -0.0293
   96MOL0     H12935   5.546   9.401  10.620  0.2522  0.8242  0.8515
   96MOL0     H12936   5.514   9.350  10.883 -0.0241  0.8988 -0.8463
   96MOL0     H12937   5.338   9.330  10.832 -1.5335 -0.3508 -3.6438
   96MOL0     H12938   5.574   9.162  10.717  0.2869 -1.4476  3.0301
   96MOL0     H12939   5.402   9.173  10.646 -0.8874  1.5976  0.2334
   96MOL0     H12940   5.425   8.973  10.761  0.8758  0.8619 -0.3650
   96MOL0     H12941   5.339   9.094  10.861 -0.5403 -0.3367 -0.7478
   96MOL0     H12942   5.346   9.506   9.988  4.2277 -0.7071  1.8455
   96MOL0     H12943   5.454   9.582   9.779 -0.3707 -0.6506  1.5904
   96MOL0     H12944   5.894   9.909   9.663  1.0346  1.8709 -0.1543
   96MOL0     H12945   6.021   9.981   9.442 -0.2334 -1.0619  1.9986
   96MOL0     H12946   6.989   9.058   8.795  2.7013 -0.6140 -2.0491
   96MOL0     H12947   7.140   9.212   8.782  0.1726 -3.3193 -0.7782
   96MOL0     H12948   7.465   9.260   8.303  2.4314 -0.5209 -0.1313
   96MOL0     H12949   7.622   9.399   8.207  0.7154  1.3773 -1.1771
   96MOL0     H12950   7.657   9.536   8.063 -0.4395  0.4574  0.8480
   96MOL0     H12951   7.556   9.660   8.013  1.2940  3.5305 -1.3970
   96MOL0     H12952   7.816   9.662   7.971 -2.7657 -1.0259 -0.9880
   96MOL0     H12953   7.836   9.740   8.124 -1.3276  2.4793  0.5954
   96MOL0     H12954   7.714   9.936   8.070  0.8532  2.2090 -1.1917
   96MOL0     H12955   7.661   9.862   7.919 -1.4675 -1.3934  1.2971
   96MOL0     H12956   7.958   9.895   7.993  0.9273  0.0064 -1.1137
   96MOL0     H12957   7.865  10.040   7.934  0.2541  0.9918 -3.1636
   96MOL0     H12958   7.943   9.857   7.573 -1.5770  0.2223 -0.2146
   96MOL0     H12959   7.414   9.757   8.346 -0.6436  0.2036  3.3091
   96MOL0     H12960   7.240   9.600   8.428  0.2915 -0.6908 -0.0937
   97MOL0     O12961  11.075  11.478   3.602  0.3941 -0.3682  0.2364
   97MOL0     C12962  11.154  11.384   3.614  0.2144 -0.7384  0.3979
   97MOL0     O12963  11.182  11.317   3.729 -0.4605 -0.3250  0.0796
   97MOL0     C12964  11.163  11.382   3.848 -0.0189  0.2302  0.5548
   97MOL0     C12965  11.096  11.309   3.944  0.7570  0.3663  0.8258
   97MOL0     C12966  11.090  11.359   4.073  0.3515 -0.2084 -0.4084
   97MOL0     C12967  11.157  11.473   4.124  0.2966 -0.2707  1.0232
   97MOL0     O12968  11.170  11.504   4.255  0.5179  0.4745 -0.2338
   97MOL0     C12969  11.119  11.405   4.346  0.5914  0.6018 -0.3538
   97MOL0     C12970  11.165  11.415   4.494  0.7120 -0.7946  0.0545
   97MOL0     C12971  11.148  11.554   4.555 -0.1268  0.8205  0.0246
   97MOL0     C12972  11.289  11.585   4.597 -0.0084 -0.3958 -0.0502
   97MOL0     C12973  11.304  11.712   4.684 -0.7590  0.0596 -0.9249
   97MOL0     C12974  11.296  11.841   4.598 -0.3373 -0.8793 -0.1915
   97MOL0     C12975  11.318  11.974   4.680  0.7336 -0.6360  0.0108
   97MOL0     C12976  11.286  12.091   4.596 -0.1413  0.4107 -0.6564
   97MOL0     N12977  11.352  12.087   4.459  0.4746  0.4697 -0.6295
   97MOL0     C12978  11.296  12.055   4.341 -0.2914  0.5737 -0.4407
   97MOL0     C12979  11.404  12.051   4.259 -0.1176  0.3271  0.0567
   97MOL0     C12980  11.404  12.025   4.115 -0.5266 -0.1860 -0.2051
   97MOL0     C12981  11.468  11.891   4.103  0.4204  0.2561  0.2705
   97MOL0     C12982  11.628  11.885   4.106 -0.2559  0.4841 -0.7084
   97MOL0     C12983  11.676  11.735   4.111 -0.0405  0.1826 -0.2865
   97MOL0     O12984  11.607  11.651   4.200  0.6088 -0.4145  0.1301
   97MOL0     C12985  11.627  11.514   4.179 -0.2216  0.1132  0.1851
   97MOL0     C12986  11.747  11.461   4.133 -0.2090  0.0181  0.2403
   97MOL0     C12987  11.752  11.324   4.113  1.0481 -0.3390  0.1110
   97MOL0     C12988  11.891  11.279   4.093 -0.5964  0.1538 -0.7011
   97MOL0     C12989  11.646  11.233   4.139  0.2103  0.5696 -0.3114
   97MOL0     C12990  11.664  11.090   4.129  0.0829  0.0719  0.7642
   97MOL0     O12991  11.564  11.020   4.180 -0.0845 -0.3500 -0.9753
   97MOL0     C12992  11.571  10.889   4.212 -0.0330 -0.0616 -0.9739
   97MOL0     C12993  11.453  10.811   4.207 -1.2263 -0.5212  0.7441
   97MOL0     C12994  11.454  10.683   4.249 -0.4595 -0.7629  0.4041
   97MOL0     C12995  11.564  10.617   4.303  0.5699 -0.1149 -0.2637
   97MOL0     O12996  11.534  10.491   4.352 -0.3421  0.1903  0.6726
   97MOL0     C12997  11.644  10.422   4.412  0.0264 -0.1584  0.0327
   97MOL0     C12998  11.621  10.276   4.436  0.4594 -0.0519  0.3523
   97MOL0     C12999  11.505  10.220   4.360  0.5913  0.1090  0.5306
   97MOL0     C13000  11.538  10.197   4.209  0.8231 -1.1006  0.6599
   97MOL0     C13001  11.478  10.063   4.160 -0.4629 -0.7324 -0.2593
   97MOL0     C13002  11.322  10.062   4.154 -0.8081  0.0340 -0.4952
   97MOL0     C13003  11.270   9.935   4.079  1.2540 -0.3789 -0.8605
   97MOL0     C13004  11.125   9.874   4.096 -0.4626 -0.6880  0.1729
   97MOL0    Cl13005  11.009   9.991   4.063  0.0353  0.4608  0.4505
   97MOL0     C13006  11.687  10.692   4.319 -1.1561 -0.6273  0.8868
   97MOL0     C13007  11.691  10.825   4.269  0.7004  0.2555  0.0619
   97MOL0     O13008  11.763  11.039   4.072  1.0754 -0.4303 -0.3241
   97MOL0     C13009  11.528  11.290   4.185  0.9133  0.3566  0.8084
   97MOL0     C13010  11.512  11.430   4.200  0.7727  0.9825 -0.0892
   97MOL0     N13011  11.518  12.087   4.325  0.4248 -0.6770  1.2894
   97MOL0     N13012  11.483  12.099   4.444 -0.1678 -0.2018  0.6109
   97MOL0     C13013  11.214  11.552   4.024 -0.5744 -0.0517 -0.2012
   97MOL0     C13014  11.217  11.502   3.892  0.0939 -0.8718  0.2204
   97MOL0     C13015  11.190  11.327   3.477  0.3103 -0.0162  0.3444
   97MOL0     C13016  11.291  11.230   3.478  0.4774 -0.8013  1.0221
   97MOL0     C13017  11.335  11.165   3.358  0.6155 -1.0806 -0.2937
   97MOL0     C13018  11.276  11.201   3.238  0.7968 -0.0525  0.1256
   97MOL0     O13019  11.314  11.130   3.124 -0.2351  0.1671 -0.5301
   97MOL0     C13020  11.253  11.017   3.082  0.1689  0.2092  0.0260
   97MOL0     C13021  11.271  11.000   2.930 -0.8052 -0.7782 -1.2173
   97MOL0     C13022  11.400  11.076   2.873  0.1048 -0.8683 -0.7405
   97MOL0     C13023  11.532  11.037   2.918 -0.9010  0.1081  0.3942
   97MOL0     C13024  11.548  10.894   2.870  1.1035 -1.1580  0.9202
   97MOL0     C13025  11.543  10.775   2.835  0.1000  0.5836 -0.0879
   97MOL0     C13026  11.177  11.301   3.229  0.6990  0.1523  0.4712
   97MOL0     C13027  11.130  11.363   3.348 -1.6267 -0.2618  0.0141
   97MOL0     H13028  11.055  11.221   3.895 -1.2766  2.4315 -1.4049
   97MOL0     H13029  11.032  11.302   4.144 -0.7497  2.3802  0.9360
   97MOL0     H13030  11.010  11.410   4.360  0.8883 -0.3863  3.1853
   97MOL0     H13031  11.141  11.306   4.306 -2.0800 -0.6612  1.0260
   97MOL0     H13032  11.115  11.343   4.559 -0.7897  0.1061 -0.0763
   97MOL0     H13033  11.271  11.389   4.483  1.4227  2.0765 -0.7589
   97MOL0     H13034  11.121  11.632   4.483 -1.6127 -0.7962 -1.2400
   97MOL0     H13035  11.065  11.538   4.625  0.1849  0.3550  0.2968
   97MOL0     H13036  11.315  11.503   4.664 -1.7710 -0.3928  0.6871
   97MOL0     H13037  11.347  11.596   4.505 -1.2925 -0.4000 -0.8979
   97MOL0     H13038  11.228  11.728   4.760 -0.7053 -1.2546 -0.5683
   97MOL0     H13039  11.400  11.692   4.733 -0.8071 -0.5745 -1.0748
   97MOL0     H13040  11.367  11.838   4.515  1.5150  2.3758  1.0977
   97MOL0     H13041  11.194  11.849   4.557 -0.0854 -0.1704 -0.7067
   97MOL0     H13042  11.259  11.985   4.771  1.7466  1.6517  0.4697
   97MOL0     H13043  11.425  11.976   4.703  0.7266  0.9441  0.0203
   97MOL0     H13044  11.316  12.186   4.642 -1.3349  1.0656 -1.2061
   97MOL0     H13045  11.179  12.104   4.580 -0.0954  0.0736 -1.2628
   97MOL0     H13046  11.191  12.031   4.327 -0.2007 -0.5705  0.6577
   97MOL0     H13047  11.299  12.021   4.085 -1.2619 -1.3964  2.2453
   97MOL0     H13048  11.464  12.103   4.066  2.4391 -2.2141 -0.0430
   97MOL0     H13049  11.431  11.849   4.009  5.6493 -1.3193 -1.4313
   97MOL0     H13050  11.440  11.821   4.183  3.0546 -3.2688 -1.5934
   97MOL0     H13051  11.664  11.926   4.201 -0.4508 -2.8409  0.9190
   97MOL0     H13052  11.672  11.935   4.019 -1.2836  2.8907  0.0772
   97MOL0     H13053  11.780  11.742   4.144 -1.3336  3.3414  4.1344
   97MOL0     H13054  11.666  11.700   4.008 -1.5116  4.4388 -1.7957
   97MOL0     H13055  11.839  11.519   4.135  1.3693 -2.3169 -0.4890
   97MOL0     H13056  11.910  11.223   4.001  0.3357  0.9308 -0.9961
   97MOL0     H13057  11.965  11.360   4.098 -0.6973  0.2529 -0.7922
   97MOL0     H13058  11.919  11.211   4.174  0.7106 -1.1609 -2.1937
   97MOL0     H13059  11.357  10.843   4.168 -0.6091 -1.4410 -1.7474
   97MOL0     H13060  11.366  10.621   4.253  0.1369 -1.5700  2.7616
   97MOL0     H13061  11.726  10.411   4.340  0.8457 -4.0890  1.2946
   97MOL0     H13062  11.672  10.472   4.505 -0.4383  0.7061 -0.2782
   97MOL0     H13063  11.709  10.214   4.413 -0.8421 -1.7593 -0.3046
   97MOL0     H13064  11.588  10.258   4.538 -2.7221  5.4446  0.6402
   97MOL0     H13065  11.409  10.264   4.387 -0.3655 -0.9920 -0.9498
   97MOL0     H13066  11.488  10.119   4.399 -0.5071 -0.8026 -2.0732
   97MOL0     H13067  11.486  10.269   4.145  2.7372 -0.4452 -0.2144
   97MOL0     H13068  11.645  10.207   4.192  1.0011  0.6796  2.4734
   97MOL0     H13069  11.511   9.977   4.219  2.7374 -0.8358 -1.9389
   97MOL0     H13070  11.516  10.058   4.057 -0.1172  1.3828 -0.2810
   97MOL0     H13071  11.279  10.060   4.254 -0.4517 -1.8607 -0.3279
   97MOL0     H13072  11.285  10.146   4.095  1.0672  1.1607 -0.1499
   97MOL0     H13073  11.325   9.846   4.110 -1.5508 -1.3821  1.7394
   97MOL0     H13074  11.282   9.959   3.973  4.5080  0.6989 -0.3785
   97MOL0     H13075  11.113   9.853   4.203  0.4970 -1.2185  0.1812
   97MOL0     H13076  11.093   9.782   4.046 -1.7928 -2.1344  3.3961
   97MOL0     H13077  11.771  10.641   4.365 -1.1536  0.1105  1.7384
   97MOL0     H13078  11.784  10.879   4.282  0.3233  0.2555  4.3004
   97MOL0     H13079  11.447  11.219   4.197  0.5331  0.6082 -0.1873
   97MOL0     H13080  11.418  11.468   4.240 -0.4135 -2.4927  0.7570
   97MOL0     H13081  11.269  11.643   4.045  0.4957 -0.6881 -0.1897
   97MOL0     H13082  11.268  11.569   3.823  0.0634 -0.3502  0.6943
   97MOL0     H13083  11.340  11.205   3.572 -1.6404 -1.8162  1.9158
   97MOL0     H13084  11.420  11.099   3.373  1.2686 -0.0589  0.6689
   97MOL0     H13085  11.303  10.935   3.134 -1.7099 -2.1944 -1.7190
   97MOL0     H13086  11.145  11.020   3.101 -0.2259 -0.5273 -1.8454
   97MOL0     H13087  11.179  11.043   2.890 -0.5827  0.4859 -0.4037
   97MOL0     H13088  11.276  10.895   2.898 -1.6630 -1.2617  0.1858
   97MOL0     H13089  11.392  11.182   2.899  1.4207 -0.2580 -2.5806
   97MOL0     H13090  11.404  11.075   2.763  4.8525 -0.0690 -0.8071
   97MOL0     H13091  11.548  11.041   3.026  3.2405  0.1956 -0.0565
   97MOL0     H13092  11.613  11.092   2.867 -0.2716 -1.5086 -0.4172
   97MOL0     H13093  11.549  10.677   2.793  0.9756  0.6251 -0.0835
   97MOL0     H13094  11.147  11.320   3.127  3.8321 -1.6065 -0.9435
   97MOL0     H13095  11.060  11.446   3.350 -0.3890  0.8690  3.3831
   98MOL0     O13096   9.421   0.009   6.622 -0.1613  0.4579 -0.3330
   98MOL0     C13097   9.349  -0.021   6.525 -0.4803 -0.0290  0.4576
   98MOL0     O13098   9.353   0.037   6.401 -0.1200  0.0677  0.1325
   98MOL0     C13099   9.426   0.150   6.386  0.2541 -0.4320  0.6780
   98MOL0     C13100   9.390   0.259   6.461  0.1664 -0.3845  0.9568
   98MOL0     C13101   9.435   0.391   6.421  0.9342  0.9214 -0.0702
   98MOL0     C13102   9.518   0.404   6.311 -0.7542  0.3202 -0.1721
   98MOL0     O13103   9.560   0.531   6.272  0.8056  0.3745 -0.4220
   98MOL0     C13104   9.466   0.617   6.212 -0.2423 -0.9164  0.6189
   98MOL0     C13105   9.451   0.750   6.277 -0.2626  0.3580  0.5933
   98MOL0     C13106   9.573   0.839   6.246  0.6576 -0.0490  0.4121
   98MOL0     C13107   9.572   0.959   6.339 -0.1794  0.1914 -0.1211
   98MOL0     C13108   9.701   1.034   6.344 -0.5606  0.4787  0.2779
   98MOL0     C13109   9.713   1.124   6.469 -0.2950  0.2689  0.7344
   98MOL0     C13110   9.662   1.261   6.455  0.6976  0.3277  0.8671
   98MOL0     C13111   9.699   1.355   6.570  0.1493  0.0361  0.8983
   98MOL0     N13112   9.676   1.498   6.541  0.2298  0.5708 -0.9110
   98MOL0     C13113   9.723   1.553   6.423 -0.1814  0.2284 -0.3385
   98MOL0     C13114   9.685   1.683   6.438 -0.2592 -0.1582  0.1189
   98MOL0     C13115   9.704   1.781   6.318 -0.2294 -0.4902 -0.1853
   98MOL0     C13116   9.617   1.740   6.207 -0.0914  0.4051 -0.5928
   98MOL0     C13117   9.636   1.842   6.089  0.5541 -0.8754 -0.1549
   98MOL0     C13118   9.544   1.808   5.970  0.0255  0.1229 -0.2325
   98MOL0     O13119   9.406   1.834   6.011 -0.5826  0.6600 -0.4248
   98MOL0     C13120   9.316   1.836   5.908  0.3713  0.0795  0.1622
   98MOL0     C13121   9.309   1.772   5.789 -0.3815  0.4073 -0.2774
   98MOL0     C13122   9.210   1.774   5.692  0.7576 -0.1175  0.0714
   98MOL0     C13123   9.211   1.677   5.577 -0.3629 -0.3499  1.3009
   98MOL0     C13124   9.106   1.866   5.716  0.5059 -0.0098 -0.0281
   98MOL0     C13125   8.980   1.886   5.632  0.6786 -0.6418 -0.0464
   98MOL0     O13126   8.932   2.012   5.617  0.5097 -0.1151  0.0115
   98MOL0     C13127   8.823   2.017   5.530  0.3233 -0.4268 -0.1603
   98MOL0     C13128   8.704   1.949   5.559 -0.0680  0.7778  0.0385
   98MOL0     C13129   8.587   1.956   5.491  0.1687  0.0166  0.3474
   98MOL0     C13130   8.580   2.048   5.381 -0.2545 -0.0917  0.3742
   98MOL0     O13131   8.486   2.078   5.289 -0.2820  0.0065  0.1297
   98MOL0     C13132   8.346   2.056   5.325 -0.4173 -0.6441  0.2735
   98MOL0     C13133   8.256   2.035   5.194  0.2809 -0.3797 -0.3450
   98MOL0     C13134   8.338   1.934   5.108  0.6438  0.6716  0.1665
   98MOL0     C13135   8.289   1.914   4.957  0.4694 -0.1502 -0.1363
   98MOL0     C13136   8.403   1.871   4.862 -1.3891 -0.0892 -0.4967
   98MOL0     C13137   8.344   1.875   4.717 -0.3991  0.0682  1.0813
   98MOL0     C13138   8.443   1.831   4.608  0.0486  0.9194  0.2042
   98MOL0     C13139   8.349   1.782   4.499 -0.4690  0.6933  0.5213
   98MOL0    Cl13140   8.264   1.631   4.554 -0.0728 -0.0866 -0.5649
   98MOL0     C13141   8.699   2.113   5.350 -0.8868  0.7323 -0.5020
   98MOL0     C13142   8.817   2.095   5.416  0.5394  0.5720 -0.5964
   98MOL0     O13143   8.941   1.788   5.565  0.1548 -0.1206 -0.0240
   98MOL0     C13144   9.108   1.940   5.836 -0.3811 -0.7561  0.1734
   98MOL0     C13145   9.205   1.918   5.933 -0.4537  0.5751  0.4327
   98MOL0     N13146   9.610   1.700   6.549 -0.2668 -0.0911  0.1513
   98MOL0     N13147   9.598   1.583   6.613 -0.7129  0.4345 -1.0119
   98MOL0     C13148   9.541   0.289   6.233 -1.1056  0.0805 -0.1454
   98MOL0     C13149   9.503   0.165   6.274 -0.2705 -0.3082  0.4604
   98MOL0     C13150   9.260  -0.136   6.534  0.6184  0.4829  0.2396
   98MOL0     C13151   9.186  -0.182   6.422  0.5603 -0.4631 -0.9966
   98MOL0     C13152   9.133  -0.314   6.426  0.6685  0.7516  0.1035
   98MOL0     C13153   9.153  -0.395   6.536  0.2289  0.9446 -0.8984
   98MOL0     O13154   9.095  -0.523   6.530  0.8961 -0.5006  0.7000
   98MOL0     C13155   9.146  -0.629   6.608 -0.7486 -0.7762 -0.6870
   98MOL0     C13156   9.116  -0.754   6.523 -0.3674 -0.7429 -0.0644
   98MOL0     C13157   9.088  -0.878   6.615 -0.0354  0.1099  0.4260
   98MOL0     C13158   8.960  -0.961   6.595 -0.1068  0.0851 -0.7410
   98MOL0     C13159   8.988  -1.095   6.657 -0.6130 -1.5847  0.1418
   98MOL0     C13160   9.009  -1.203   6.707  0.5566 -0.9908 -0.1313
   98MOL0     C13161   9.210  -0.344   6.656 -0.2383  0.5966 -0.0809
   98MOL0     C13162   9.268  -0.219   6.643  0.1696  0.2374 -0.5017
   98MOL0     H13163   9.318   0.254   6.543 -1.8165  6.2724  0.2224
   98MOL0     H13164   9.398   0.476   6.478  0.1818  0.0076  0.8312
   98MOL0     H13165   9.519   0.630   6.117  1.2449 -3.6467  0.9629
   98MOL0     H13166   9.374   0.564   6.188 -1.4591  1.7113 -0.9812
   98MOL0     H13167   9.362   0.792   6.231  1.2177  2.9730 -0.0490
   98MOL0     H13168   9.440   0.746   6.386  0.9506 -1.0958  0.7079
   98MOL0     H13169   9.666   0.784   6.261 -1.6674 -4.1596  1.2860
   98MOL0     H13170   9.568   0.882   6.145  0.3264  0.0375  0.4631
   98MOL0     H13171   9.493   1.028   6.309 -3.0947 -1.8915  2.1326
   98MOL0     H13172   9.547   0.932   6.442 -1.0175  0.9489 -0.1183
   98MOL0     H13173   9.787   0.967   6.342 -0.5037  0.5461 -1.5713
   98MOL0     H13174   9.714   1.101   6.258  3.3726  0.9071  1.0212
   98MOL0     H13175   9.654   1.086   6.553 -1.8556 -0.5482 -0.6679
   98MOL0     H13176   9.819   1.133   6.495  0.3152  1.6012 -1.8787
   98MOL0     H13177   9.710   1.304   6.366 -1.2875  2.3596  0.6856
   98MOL0     H13178   9.555   1.245   6.438  0.7918 -1.6617  1.8561
   98MOL0     H13179   9.808   1.356   6.581  0.3123  0.8231 -0.5558
   98MOL0     H13180   9.649   1.319   6.660 -1.9403 -1.3030 -0.7123
   98MOL0     H13181   9.769   1.508   6.335 -2.7738 -0.8923 -1.2257
   98MOL0     H13182   9.669   1.881   6.346 -0.3066 -0.1634 -1.3970
   98MOL0     H13183   9.808   1.782   6.284  0.5061  0.2576  1.9428
   98MOL0     H13184   9.514   1.727   6.243  0.1381 -0.1070 -0.1070
   98MOL0     H13185   9.657   1.646   6.166  0.9333  0.4914  0.1673
   98MOL0     H13186   9.741   1.851   6.059  0.7968 -0.1368  0.8892
   98MOL0     H13187   9.603   1.938   6.128 -0.3826 -2.2608  2.7296
   98MOL0     H13188   9.570   1.703   5.948 -0.9854  0.2179 -2.0558
   98MOL0     H13189   9.568   1.867   5.881  0.2384 -0.2624 -0.4348
   98MOL0     H13190   9.388   1.698   5.781  0.6701  1.5855 -1.1655
   98MOL0     H13191   9.308   1.630   5.564  0.2397  1.5119 -2.1450
   98MOL0     H13192   9.148   1.588   5.590  1.3439 -1.3673  3.2786
   98MOL0     H13193   9.187   1.736   5.489  1.4055  0.5254  1.3646
   98MOL0     H13194   8.701   1.876   5.639 -1.8727  0.9586  0.1971
   98MOL0     H13195   8.506   1.902   5.539  0.5068  0.0799  0.9882
   98MOL0     H13196   8.350   1.967   5.389  0.4474 -1.5138 -0.9406
   98MOL0     H13197   8.309   2.133   5.393  1.8347 -0.3520  1.2700
   98MOL0     H13198   8.163   1.992   5.233  1.5688 -2.2730  0.8412
   98MOL0     H13199   8.234   2.132   5.149 -1.2249 -0.6504 -0.2527
   98MOL0     H13200   8.342   1.834   5.151 -0.2931  0.1947 -0.7981
   98MOL0     H13201   8.442   1.967   5.112  0.1464  2.2934  4.6690
   98MOL0     H13202   8.203   1.847   4.954  0.6993 -0.4279 -0.6493
   98MOL0     H13203   8.265   2.013   4.916  5.0869  1.6164  0.7775
   98MOL0     H13204   8.444   1.774   4.892  2.8764  1.2746 -1.1939
   98MOL0     H13205   8.489   1.937   4.877 -1.8404 -0.1278  3.1622
   98MOL0     H13206   8.259   1.806   4.716 -0.6971  0.4350  0.6574
   98MOL0     H13207   8.315   1.977   4.689 -2.2800 -0.2603  1.6714
   98MOL0     H13208   8.508   1.747   4.632 -0.9494 -0.9416 -2.9444
   98MOL0     H13209   8.503   1.918   4.580  0.3224  2.2550  4.2783
   98MOL0     H13210   8.399   1.755   4.406 -2.1574  0.5536 -0.3793
   98MOL0     H13211   8.274   1.860   4.483 -2.4523 -1.1746  0.2764
   98MOL0     H13212   8.706   2.166   5.256 -2.1505  1.0931 -0.4070
   98MOL0     H13213   8.909   2.147   5.389  1.0327  0.0044 -0.0342
   98MOL0     H13214   9.041   2.020   5.866  2.7942  1.9853  0.4219
   98MOL0     H13215   9.213   1.972   6.027 -0.2836 -1.0107  1.3669
   98MOL0     H13216   9.587   0.303   6.135 -2.0102 -0.3210 -0.6309
   98MOL0     H13217   9.524   0.080   6.210  0.3100 -0.8227  1.2957
   98MOL0     H13218   9.177  -0.118   6.335  2.8909  2.0657  0.4710
   98MOL0     H13219   9.069  -0.360   6.351  0.2647  1.4359  0.0218
   98MOL0     H13220   9.252  -0.620   6.634 -1.2198  1.4794  0.7062
   98MOL0     H13221   9.089  -0.631   6.701  2.1441 -0.3979  1.2065
   98MOL0     H13222   9.204  -0.774   6.462 -0.7561 -1.0557 -0.5211
   98MOL0     H13223   9.032  -0.743   6.454  0.8637  2.3246 -1.2152
   98MOL0     H13224   9.086  -0.843   6.718 -0.1495  0.5457  0.2782
   98MOL0     H13225   9.176  -0.943   6.611 -1.3590 -2.1036  3.6247
   98MOL0     H13226   8.933  -0.972   6.489 -1.6536 -1.6411 -0.2267
   98MOL0     H13227   8.878  -0.917   6.652  1.2159 -1.2629  2.4468
   98MOL0     H13228   9.032  -1.303   6.738 -2.7234 -1.9818 -0.4573
   98MOL0     H13229   9.213  -0.406   6.746 -1.5436  0.9176  0.2036
   98MOL0     H13230   9.323  -0.185   6.730  0.7569  1.4951 -1.3248
   99MOL0     O13231   9.249   9.337   2.937 -0.0405  0.5771 -0.5113
   99MOL0     C13232   9.186   9.221   2.944 -1.2897  0.0238 -2.1521
   99MOL0     O13233   9.184   9.127   2.849 -0.1580 -0.9378 -0.7999
   99MOL0     C13234   9.218   9.169   2.719 -0.2085 -0.5487 -0.0584
   99MOL0     C13235   9.173   9.287   2.664  0.7625 -0.2847  0.3753
   99MOL0     C13236   9.231   9.346   2.551  0.0533  0.7150  0.1010
   99MOL0     C13237   9.336   9.276   2.492  0.0890  0.0470 -0.7002
   99MOL0     O13238   9.396   9.311   2.379 -0.1693 -0.3459 -0.3009
   99MOL0     C13239   9.368   9.441   2.311 -0.0863  0.6709 -0.2615
   99MOL0     C13240   9.439   9.450   2.173 -0.6350  0.1878 -0.7683
   99MOL0     C13241   9.431   9.310   2.107  0.2977  0.0181 -0.8452
   99MOL0     C13242   9.492   9.306   1.963  0.4019 -0.2366 -0.5039
   99MOL0     C13243   9.441   9.189   1.886 -0.6346 -0.0107 -0.1088
   99MOL0     C13244   9.498   9.192   1.734  0.2278  0.4315 -0.4347
   99MOL0     C13245   9.449   9.081   1.643 -0.1481  0.4419 -0.2313
   99MOL0     C13246   9.537   8.955   1.648 -0.5264  0.8142 -0.2785
   99MOL0     N13247   9.514   8.859   1.542  0.1141  0.3931  0.0611
   99MOL0     C13248   9.545   8.887   1.413  0.0544  0.0712  0.4435
   99MOL0     C13249   9.504   8.777   1.350 -1.0887  0.9821  0.3297
   99MOL0     C13250   9.541   8.768   1.202  0.0905 -0.2275  0.6140
   99MOL0     C13251   9.554   8.629   1.146  0.6027  0.1042  0.4113
   99MOL0     C13252   9.629   8.625   1.008  0.2972 -0.4468  0.1828
   99MOL0     C13253   9.540   8.688   0.890  0.3092  0.6850 -0.0316
   99MOL0     O13254   9.553   8.832   0.881  0.3197  0.4284  0.3221
   99MOL0     C13255   9.514   8.886   0.759 -0.9442  1.0735 -0.8269
   99MOL0     C13256   9.421   8.990   0.761 -1.4143 -1.1632 -0.3686
   99MOL0     C13257   9.381   9.060   0.642 -0.3193 -0.3694  0.5555
   99MOL0     C13258   9.283   9.172   0.666  1.1591  0.2188  0.0065
   99MOL0     C13259   9.421   9.008   0.519 -0.8826  0.1652  0.6447
   99MOL0     C13260   9.375   9.082   0.397 -0.1589  0.1554 -0.1225
   99MOL0     O13261   9.339   9.212   0.407 -0.2908 -0.3434 -0.1506
   99MOL0     C13262   9.270   9.258   0.290 -0.9417 -0.2269 -0.0475
   99MOL0     C13263   9.342   9.278   0.167 -0.0315 -0.3751 -0.8967
   99MOL0     C13264   9.276   9.314   0.052  0.0019  0.1061  0.1117
   99MOL0     C13265   9.139   9.332   0.045 -0.8954  0.2474  0.9135
   99MOL0     O13266   9.077   9.377  -0.063 -0.0822  0.1804  0.1864
   99MOL0     C13267   9.123   9.331  -0.185 -0.1938  0.2144  0.3992
   99MOL0     C13268   9.001   9.264  -0.245  0.2221 -0.0432  0.4092
   99MOL0     C13269   9.031   9.196  -0.382  0.6285 -0.2995  0.7192
   99MOL0     C13270   9.169   9.202  -0.436 -0.0736 -0.1071 -0.4395
   99MOL0     C13271   9.172   9.125  -0.569  0.3989  0.9646  0.0552
   99MOL0     C13272   9.307   9.146  -0.643 -0.1755 -0.8577  0.9936
   99MOL0     C13273   9.312   9.071  -0.779 -0.2382  0.1846 -0.2417
   99MOL0     C13274   9.458   9.067  -0.851  1.1363  0.9556  0.4743
   99MOL0    Cl13275   9.569   8.953  -0.758  0.4254  0.2295 -0.7689
   99MOL0     C13276   9.067   9.326   0.162  0.1555 -0.1787 -0.9109
   99MOL0     C13277   9.126   9.289   0.283 -0.0557  0.0618  0.0804
   99MOL0     O13278   9.387   9.021   0.287  0.0278 -0.1862  0.0428
   99MOL0     C13279   9.506   8.903   0.512 -0.3882 -0.2845 -0.1547
   99MOL0     C13280   9.558   8.848   0.629  0.0397  0.4200  0.1627
   99MOL0     N13281   9.420   8.698   1.427  0.8222 -0.0526 -0.1095
   99MOL0     N13282   9.431   8.750   1.541  0.9203  0.8220 -0.3110
   99MOL0     C13283   9.374   9.146   2.540  0.1957 -0.1300 -0.0651
   99MOL0     C13284   9.314   9.092   2.650  1.1028  0.3271  0.2012
   99MOL0     C13285   9.134   9.183   3.081  0.6204  0.1377 -0.0103
   99MOL0     C13286   9.101   9.276   3.183 -0.2939  0.1183 -0.5168
   99MOL0     C13287   9.060   9.237   3.313 -0.2758 -1.3770  0.1839
   99MOL0     C13288   9.053   9.102   3.342  1.0227 -0.0884  0.2925
   99MOL0     O13289   9.016   9.064   3.468  0.2171 -0.4032 -0.1346
   99MOL0     C13290   9.104   8.981   3.542  0.1689 -0.1902  0.1913
   99MOL0     C13291   9.075   8.980   3.684  0.3822 -0.7535  0.0270
   99MOL0     C13292   9.146   9.089   3.768  0.3297 -0.3400  0.8800
   99MOL0     C13293   9.085   9.226   3.728 -0.4134 -0.5409  0.7218
   99MOL0     C13294   9.166   9.295   3.623 -0.3142 -0.3897  0.1373
   99MOL0     C13295   9.238   9.363   3.553 -0.1090 -0.5660  0.5404
   99MOL0     C13296   9.079   9.005   3.244 -0.8749 -0.5824 -0.1705
   99MOL0     C13297   9.118   9.045   3.116  0.5977  0.7159  0.0308
   99MOL0     H13298   9.101   9.344   2.721  1.1012 -1.9022  2.5359
   99MOL0     H13299   9.201   9.442   2.511 -2.6203  0.1361  0.4825
   99MOL0     H13300   9.261   9.463   2.300  0.1947  1.9201 -0.6057
   99MOL0     H13301   9.393   9.523   2.379  0.9352 -1.1601  1.7170
   99MOL0     H13302   9.387   9.523   2.111 -1.2580 -0.2473 -0.7624
   99MOL0     H13303   9.542   9.487   2.166 -0.8661  0.8790 -0.5549
   99MOL0     H13304   9.478   9.242   2.179 -0.0483  3.0676  2.5039
   99MOL0     H13305   9.330   9.269   2.111  0.5648 -1.3196 -4.2555
   99MOL0     H13306   9.465   9.387   1.895  1.3556 -0.6014 -1.3455
   99MOL0     H13307   9.602   9.304   1.967  0.5777  0.0962 -3.0909
   99MOL0     H13308   9.489   9.101   1.930  0.3529  0.4088 -0.3193
   99MOL0     H13309   9.337   9.158   1.898 -0.0708 -2.7393 -1.4573
   99MOL0     H13310   9.467   9.287   1.688  2.4164  1.3670 -0.1103
   99MOL0     H13311   9.608   9.195   1.736  0.2066  2.0214  0.7971
   99MOL0     H13312   9.348   9.064   1.680  0.2431 -1.8998 -0.1178
   99MOL0     H13313   9.449   9.113   1.539 -1.8123 -0.3433 -0.4949
   99MOL0     H13314   9.530   8.894   1.738  1.8295  1.3412  0.3480
   99MOL0     H13315   9.643   8.971   1.625 -1.0254  1.5516 -2.2714
   99MOL0     H13316   9.600   8.973   1.376 -0.8575  1.6209  2.4822
   99MOL0     H13317   9.467   8.824   1.144 -1.1899 -0.0703  2.3327
   99MOL0     H13318   9.633   8.827   1.193  0.2876 -0.2144  2.4020
   99MOL0     H13319   9.452   8.590   1.133 -0.1370  0.3012  4.2768
   99MOL0     H13320   9.614   8.563   1.210  1.0980 -1.7745 -1.8625
   99MOL0     H13321   9.667   8.525   0.985  1.3697  0.0010 -0.0388
   99MOL0     H13322   9.720   8.684   1.018  1.8053 -2.9873  3.1132
   99MOL0     H13323   9.437   8.659   0.916  0.8650  0.1720  1.7506
   99MOL0     H13324   9.581   8.636   0.804  1.4566  1.8124 -0.2027
   99MOL0     H13325   9.400   9.044   0.854 -2.0858  3.3489 -2.8232
   99MOL0     H13326   9.334   9.269   0.665  0.8014  0.4729  1.8233
   99MOL0     H13327   9.202   9.175   0.593 -0.3289  0.3330  1.5694
   99MOL0     H13328   9.235   9.162   0.764  0.9265  1.0283 -0.0198
   99MOL0     H13329   9.449   9.262   0.181 -0.5276 -3.9797 -0.0527
   99MOL0     H13330   9.333   9.325  -0.040 -1.6300 -0.6040 -1.0172
   99MOL0     H13331   9.167   9.408  -0.249  0.5359 -0.3461  0.2113
   99MOL0     H13332   9.198   9.253  -0.173  0.8256  1.1901  0.5882
   99MOL0     H13333   8.948   9.207  -0.168 -4.3192  1.9391 -0.8710
   99MOL0     H13334   8.923   9.338  -0.267  1.0477  2.2877  4.3773
   99MOL0     H13335   8.959   9.236  -0.454 -0.8357 -2.0209  1.1340
   99MOL0     H13336   9.005   9.091  -0.368  3.1123 -0.6582  3.6088
   99MOL0     H13337   9.188   9.308  -0.458 -1.1010  0.4127  0.9948
   99MOL0     H13338   9.238   9.166  -0.360  2.2986  1.8302 -1.5370
   99MOL0     H13339   9.082   9.155  -0.623 -1.9787  0.8556  3.6128
   99MOL0     H13340   9.170   9.018  -0.547  5.3634  0.3926 -1.1205
   99MOL0     H13341   9.334   9.251  -0.658  0.2050 -0.9021  1.3439
   99MOL0     H13342   9.381   9.111  -0.571 -1.2536 -0.0887  2.5469
   99MOL0     H13343   9.240   9.127  -0.839 -1.2905 -2.6359 -1.8013
   99MOL0     H13344   9.282   8.968  -0.759 -2.3131  0.8277  0.1964
   99MOL0     H13345   9.512   9.161  -0.856  0.3629  1.3416 -1.7097
   99MOL0     H13346   9.429   9.024  -0.947 -1.3896  2.7162  0.3488
   99MOL0     H13347   8.964   9.359   0.168  0.3549  0.2533  3.1922
   99MOL0     H13348   9.075   9.282   0.378 -1.8611 -0.4494 -0.8831
   99MOL0     H13349   9.539   8.873   0.413 -2.0869  0.3909 -0.9603
   99MOL0     H13350   9.635   8.772   0.619 -0.4003 -0.2148  1.3888
   99MOL0     H13351   9.459   9.086   2.507  1.5200  1.9771 -0.6620
   99MOL0     H13352   9.341   8.990   2.673 -1.3292 -0.5073 -0.3516
   99MOL0     H13353   9.113   9.378   3.148  2.0339  0.1129  0.0811
   99MOL0     H13354   9.037   9.314   3.386  3.5989  3.4151 -2.9621
   99MOL0     H13355   9.098   8.879   3.503 -1.9160 -0.9846  2.3815
   99MOL0     H13356   9.204   9.026   3.534 -0.6511  2.2891  2.3491
   99MOL0     H13357   9.105   8.881   3.719  4.4600 -0.0442 -0.9517
   99MOL0     H13358   8.967   8.992   3.695  0.2384 -0.2457 -1.7106
   99MOL0     H13359   9.253   9.084   3.748  0.2186  1.0849 -0.2118
   99MOL0     H13360   9.128   9.055   3.871 -1.3449  1.8494  1.3964
   99MOL0     H13361   9.078   9.294   3.813 -1.3260 -1.7944  1.6942
   99MOL0     H13362   8.980   9.225   3.698 -0.4004  0.9326  0.5902
   99MOL0     H13363   9.285   9.430   3.484 -0.7196 -0.0348  0.6273
   99MOL0     H13364   9.096   8.901   3.269  0.5855 -0.4538 -0.5197
   99MOL0     H13365   9.130   8.961   3.048  1.1242  1.8277 -1.3098
  100MOL0     O13366   6.862   9.332   5.323  0.5507 -0.0996  0.2651
  100MOL0     C13367   6.740   9.323   5.294  0.0403  1.5605 -0.2497
  100MOL0     O13368   6.652   9.414   5.257  0.1340 -0.5899 -0.1938
  100MOL0     C13369   6.707   9.534   5.233 -0.0473 -0.2763 -0.7643
  100MOL0     C13370   6.790   9.610   5.320  0.1970  0.6214 -0.5900
  100MOL0     C13371   6.854   9.734   5.289 -0.3811  0.3225 -0.3684
  100MOL0     C13372   6.833   9.791   5.170  0.3385 -0.5077  0.2001
  100MOL0     O13373   6.889   9.913   5.139 -0.6481  0.4264 -0.3905
  100MOL0     C13374   6.990   9.909   5.029  0.4346  0.0703 -0.0137
  100MOL0     C13375   7.107   9.808   5.057 -0.3048  0.7678  0.5841
  100MOL0     C13376   7.218   9.879   5.125 -0.3876 -0.1437 -1.3718
  100MOL0     C13377   7.353   9.800   5.117  0.4115  0.5287  0.6145
  100MOL0     C13378   7.447   9.826   5.235 -0.6400 -0.1123  0.4272
  100MOL0     C13379   7.559   9.724   5.220  0.4211  0.1309 -0.2364
  100MOL0     C13380   7.663   9.771   5.316 -0.5469 -1.1340 -0.1257
  100MOL0     C13381   7.772   9.667   5.342 -0.2845 -0.5016  0.0525
  100MOL0     N13382   7.848   9.720   5.450  1.1918 -0.4604  0.0875
  100MOL0     C13383   7.803   9.739   5.582 -0.5951 -0.0329  0.2543
  100MOL0     C13384   7.907   9.820   5.633 -0.0650  0.4780 -0.3127
  100MOL0     C13385   7.931   9.866   5.776  0.6568 -0.1205  0.5355
  100MOL0     C13386   7.807   9.953   5.816 -1.0943  0.6903 -0.5344
  100MOL0     C13387   7.828  10.025   5.953 -0.3452 -0.2469 -0.0654
  100MOL0     C13388   7.816   9.937   6.073 -0.3611  0.5508  0.0461
  100MOL0     O13389   7.689   9.894   6.079  0.4696  0.6994 -0.6930
  100MOL0     C13390   7.608   9.904   6.196  0.6639 -0.4334  0.3845
  100MOL0     C13391   7.661   9.890   6.320 -0.8249 -1.0255 -0.1391
  100MOL0     C13392   7.581   9.868   6.436 -0.1113 -0.5076 -0.1096
  100MOL0     C13393   7.650   9.854   6.576  0.1954  0.6681 -0.3095
  100MOL0     C13394   7.444   9.865   6.421 -0.3818  0.3027  0.3963
  100MOL0     C13395   7.348   9.873   6.530 -0.1397 -0.3883  0.1194
  100MOL0     O13396   7.301   9.757   6.565 -0.2593  0.6981  1.0463
  100MOL0     C13397   7.225   9.762   6.676 -0.4212  0.4749  0.7027
  100MOL0     C13398   7.272   9.712   6.797  0.3207  1.1100 -0.1412
  100MOL0     C13399   7.192   9.742   6.914  0.1081  0.8790 -1.1758
  100MOL0     C13400   7.069   9.815   6.916 -0.0280 -0.8642  0.2993
  100MOL0     O13401   6.996   9.859   7.022  0.3127 -0.4127 -0.1224
  100MOL0     C13402   7.061   9.865   7.154  0.2629  0.1477  0.2913
  100MOL0     C13403   6.931   9.874   7.249  0.1331 -0.3504  0.6001
  100MOL0     C13404   6.870   9.735   7.248 -0.0819 -0.0161 -0.6716
  100MOL0     C13405   6.733   9.747   7.320 -0.1124  0.6732  0.4067
  100MOL0     C13406   6.660   9.618   7.328  0.1072  0.2575 -0.6945
  100MOL0     C13407   6.706   9.544   7.451  0.3324  0.6498  0.3931
  100MOL0     C13408   6.637   9.405   7.453 -0.1324 -0.5999  0.6657
  100MOL0     C13409   6.698   9.297   7.360  0.9121 -0.8074 -0.3663
  100MOL0    Cl13410   6.626   9.134   7.377 -0.2455 -0.4796 -0.2025
  100MOL0     C13411   7.026   9.852   6.789 -0.1669 -0.7195  1.1110
  100MOL0     C13412   7.095   9.828   6.667 -0.6389  0.0547 -0.1379
  100MOL0     O13413   7.347   9.982   6.590 -0.4966  0.1467 -1.2157
  100MOL0     C13414   7.391   9.869   6.296  0.1097 -0.6571  0.4629
  100MOL0     C13415   7.469   9.893   6.179  0.3322  0.1573  0.3647
  100MOL0     N13416   8.014   9.820   5.549  0.9293 -0.6456  0.2074
  100MOL0     N13417   7.979   9.759   5.434 -0.1441  0.3258  0.8948
  100MOL0     C13418   6.750   9.720   5.077  0.0080 -0.6818 -0.0340
  100MOL0     C13419   6.691   9.594   5.110 -0.1092  0.1239 -0.4457
  100MOL0     C13420   6.691   9.187   5.323 -0.0996  0.4315  0.0890
  100MOL0     C13421   6.781   9.084   5.353 -0.3110  0.6986  0.6254
  100MOL0     C13422   6.733   8.950   5.352  0.0732  0.3984 -0.0702
  100MOL0     C13423   6.602   8.917   5.331 -0.1766 -0.0013  1.0411
  100MOL0     O13424   6.551   8.786   5.311  0.4138 -0.0717  0.0138
  100MOL0     C13425   6.644   8.672   5.323  0.0360 -0.8867  0.6040
  100MOL0     C13426   6.567   8.549   5.341  0.0919  0.0118  0.4396
  100MOL0     C13427   6.469   8.534   5.225 -0.5555  0.3104 -0.0156
  100MOL0     C13428   6.537   8.517   5.093  0.1852 -0.4529  0.1922
  100MOL0     C13429   6.440   8.504   4.974 -0.9137  0.3929  0.6030
  100MOL0     C13430   6.370   8.474   4.880  0.1410 -0.3915  0.1302
  100MOL0     C13431   6.515   9.014   5.300  0.6558 -0.7775  0.2498
  100MOL0     C13432   6.558   9.151   5.302  1.2765  0.3130 -0.8020
  100MOL0     H13433   6.811   9.578   5.421  0.9395  1.2258 -0.5426
  100MOL0     H13434   6.916   9.792   5.357 -0.3400  0.7006 -0.7254
  100MOL0     H13435   6.946   9.868   4.938  3.0830 -1.0566 -0.8794
  100MOL0     H13436   7.015  10.011   5.000 -2.9068  0.4060 -2.2587
  100MOL0     H13437   7.076   9.722   5.117  0.2422  1.1430  1.4218
  100MOL0     H13438   7.140   9.775   4.958 -4.9859  1.3046 -1.4021
  100MOL0     H13439   7.222   9.979   5.083 -2.4639  0.5858  0.0192
  100MOL0     H13440   7.207   9.899   5.232 -2.7783 -2.6100 -1.0392
  100MOL0     H13441   7.337   9.692   5.108  2.6272  0.3334 -3.7204
  100MOL0     H13442   7.403   9.830   5.025 -4.5093 -1.6614 -3.2468
  100MOL0     H13443   7.486   9.929   5.237 -0.1389 -0.2582 -0.8588
  100MOL0     H13444   7.398   9.819   5.333  0.0737  4.9362  1.4551
  100MOL0     H13445   7.508   9.635   5.259  1.4093  0.3904  1.7938
  100MOL0     H13446   7.591   9.720   5.116  1.6789 -1.4309  0.1779
  100MOL0     H13447   7.708   9.858   5.267  1.0460 -2.9537 -2.1332
  100MOL0     H13448   7.616   9.804   5.409  1.7822 -0.5047  0.8825
  100MOL0     H13449   7.835   9.654   5.254  1.6998  1.7273  1.0476
  100MOL0     H13450   7.731   9.569   5.368  0.7658 -2.4574 -4.6561
  100MOL0     H13451   7.712   9.711   5.635  0.0473 -1.6390  0.5446
  100MOL0     H13452   7.939   9.781   5.844 -1.3699 -1.3669 -0.6785
  100MOL0     H13453   8.024   9.922   5.775  2.8744 -3.4590 -1.4219
  100MOL0     H13454   7.726   9.881   5.808 -0.2977 -0.0458 -3.8896
  100MOL0     H13455   7.806  10.034   5.742  2.8118 -0.5399 -2.2149
  100MOL0     H13456   7.770  10.117   5.964 -0.3905 -0.1059 -1.3778
  100MOL0     H13457   7.933  10.056   5.949 -0.4519  0.2625 -5.4063
  100MOL0     H13458   7.846  10.005   6.154 -2.6557  1.3778  0.2512
  100MOL0     H13459   7.892   9.857   6.075  0.8565  1.5927 -1.6694
  100MOL0     H13460   7.767   9.883   6.339 -1.4206  0.6069  5.3839
  100MOL0     H13461   7.688   9.953   6.603 -0.2064  1.2762 -1.9192
  100MOL0     H13462   7.579   9.818   6.652 -0.2140 -0.5367 -1.2279
  100MOL0     H13463   7.726   9.776   6.565 -0.7348 -0.6425  1.8314
  100MOL0     H13464   7.372   9.670   6.801  0.5312  1.5692 -0.4268
  100MOL0     H13465   7.226   9.709   7.011  0.6389  0.2774 -1.5502
  100MOL0     H13466   7.104   9.770   7.187 -1.3432 -1.6948 -2.4785
  100MOL0     H13467   7.136   9.942   7.172  1.9331 -1.0835 -1.1176
  100MOL0     H13468   6.972   9.893   7.349 -1.3937  0.9122  1.0121
  100MOL0     H13469   6.862   9.951   7.215  1.0978  0.1595 -0.2767
  100MOL0     H13470   6.940   9.671   7.301  1.0397  4.0863  3.4902
  100MOL0     H13471   6.856   9.701   7.144 -0.9228 -1.2161 -0.1928
  100MOL0     H13472   6.751   9.792   7.418  2.5251  2.9148 -0.9393
  100MOL0     H13473   6.679   9.808   7.247  2.0583 -0.8038 -2.6318
  100MOL0     H13474   6.678   9.571   7.231 -0.3796  1.0851 -1.2029
  100MOL0     H13475   6.552   9.638   7.334  0.2488  0.6365  3.0727
  100MOL0     H13476   6.815   9.536   7.440  0.4597  0.2553  1.8390
  100MOL0     H13477   6.676   9.596   7.542 -0.2188  2.4165 -0.7353
  100MOL0     H13478   6.532   9.422   7.425  0.4936 -0.7030 -1.9385
  100MOL0     H13479   6.644   9.371   7.557  1.0727 -1.0859  0.4359
  100MOL0     H13480   6.804   9.276   7.380  0.8412 -1.0826 -0.2706
  100MOL0     H13481   6.704   9.328   7.255  0.7059 -0.4112 -0.2622
  100MOL0     H13482   6.936   9.912   6.776 -0.2000 -0.4940  2.2852
  100MOL0     H13483   7.057   9.864   6.572 -4.0420 -0.5420  0.8327
  100MOL0     H13484   7.283   9.867   6.294  0.1250 -1.6962 -0.0609
  100MOL0     H13485   7.435   9.889   6.076 -0.6154  3.2907  0.4584
  100MOL0     H13486   6.741   9.763   4.978 -0.7679 -1.3072 -0.2470
  100MOL0     H13487   6.646   9.533   5.033  0.2100  1.6537 -1.9170
  100MOL0     H13488   6.888   9.100   5.349 -0.0994 -0.5183 -3.3288
  100MOL0     H13489   6.806   8.870   5.348  1.6586  1.7770 -0.1548
  100MOL0     H13490   6.722   8.669   5.246  0.6103  0.2198  1.1177
  100MOL0     H13491   6.700   8.693   5.415 -0.4840 -0.8004  0.9028
  100MOL0     H13492   6.525   8.544   5.442 -0.2415 -1.0660  0.2543
  100MOL0     H13493   6.637   8.465   5.336 -2.5695 -2.2824 -0.6518
  100MOL0     H13494   6.411   8.625   5.213 -1.3516 -0.1116  0.4967
  100MOL0     H13495   6.396   8.454   5.242 -3.5187  2.9141  0.5063
  100MOL0     H13496   6.598   8.427   5.092 -4.2336 -3.8215  1.1832
  100MOL0     H13497   6.598   8.606   5.076  0.4547 -0.4849  0.9335
  100MOL0     H13498   6.331   8.438   4.786  0.3371 -2.2010  0.7010
  100MOL0     H13499   6.411   8.984   5.285  0.3656 -0.4292  1.4497
  100MOL0     H13500   6.495   9.239   5.300  0.9421  0.1571  1.3301
  101MOL0     O13501   2.469   0.680   3.814  0.0485  0.8289  0.0518
  101MOL0     C13502   2.432   0.583   3.744  0.0911 -0.7922  0.4595
  101MOL0     O13503   2.307   0.542   3.728 -0.8729 -0.2062 -0.2298
  101MOL0     C13504   2.204   0.593   3.798  0.4944  0.5540 -0.5401
  101MOL0     C13505   2.171   0.730   3.838  0.0690  0.3352  0.3799
  101MOL0     C13506   2.051   0.760   3.908 -0.2051 -0.7127 -0.2223
  101MOL0     C13507   1.956   0.658   3.939 -0.2138  0.5019 -0.6368
  101MOL0     O13508   1.836   0.685   4.006 -0.6389 -0.2813 -0.5809
  101MOL0     C13509   1.851   0.697   4.154  0.5143 -0.0627  0.9359
  101MOL0     C13510   1.722   0.746   4.208  0.4860  0.0575 -0.2550
  101MOL0     C13511   1.722   0.763   4.356  0.2875 -1.0000 -0.0273
  101MOL0     C13512   1.657   0.649   4.433  0.3686 -0.5698  1.1754
  101MOL0     C13513   1.713   0.630   4.571  0.1238 -0.2635  0.5686
  101MOL0     C13514   1.650   0.518   4.655  0.3970 -0.5519  0.7076
  101MOL0     C13515   1.690   0.538   4.806 -0.5560 -0.6034  0.2924
  101MOL0     C13516   1.639   0.424   4.888 -0.1439  0.1916 -0.5673
  101MOL0     N13517   1.703   0.410   5.023  0.1958 -0.6243  0.4540
  101MOL0     C13518   1.664   0.315   5.111 -0.5392  1.3781 -0.2163
  101MOL0     C13519   1.756   0.323   5.207 -0.2346  0.4208 -0.5826
  101MOL0     C13520   1.774   0.218   5.317 -0.5426  0.4705 -0.7447
  101MOL0     C13521   1.917   0.159   5.335  0.6877 -0.3656 -0.1418
  101MOL0     C13522   1.958   0.096   5.208  0.1917 -0.8237 -0.5347
  101MOL0     C13523   2.103   0.050   5.224  0.2407  0.4582 -0.4807
  101MOL0     O13524   2.108  -0.074   5.292 -0.7062  0.3691  0.4428
  101MOL0     C13525   2.163  -0.088   5.419 -0.5124 -0.2084 -0.0801
  101MOL0     C13526   2.175  -0.219   5.457 -1.0642  0.1680  0.5131
  101MOL0     C13527   2.218  -0.260   5.582 -0.3015 -0.8679 -0.9799
  101MOL0     C13528   2.241  -0.402   5.606 -0.0132  0.9630 -0.6779
  101MOL0     C13529   2.254  -0.151   5.675 -0.2407 -0.0504  0.2718
  101MOL0     C13530   2.295  -0.184   5.815  0.2971 -0.1225 -1.0022
  101MOL0     O13531   2.205  -0.135   5.908 -0.4158  0.7712  0.0736
  101MOL0     C13532   2.247  -0.145   6.040  0.2789  0.0690 -1.3650
  101MOL0     C13533   2.301  -0.033   6.091 -0.3171 -0.3534  0.0922
  101MOL0     C13534   2.342  -0.029   6.220 -1.3133 -0.0338 -0.4423
  101MOL0     C13535   2.348  -0.139   6.299  0.3687 -0.6057  0.2460
  101MOL0     O13536   2.393  -0.132   6.428 -0.5160  0.4484 -0.6254
  101MOL0     C13537   2.520  -0.200   6.435  0.4314 -0.1166 -0.3677
  101MOL0     C13538   2.613  -0.129   6.533  0.3881 -0.9375 -1.1096
  101MOL0     C13539   2.566  -0.132   6.679  0.1618 -0.8400 -0.4286
  101MOL0     C13540   2.651  -0.054   6.781  0.7094 -0.6848  0.4575
  101MOL0     C13541   2.782  -0.133   6.801  0.8875 -0.3663  0.2496
  101MOL0     C13542   2.888  -0.045   6.867 -0.8338 -0.3606 -0.2164
  101MOL0     C13543   2.893  -0.054   7.030 -0.1168  0.2420  0.6783
  101MOL0     C13544   3.014   0.019   7.089 -0.5950  0.6204 -0.1347
  101MOL0    Cl13545   3.021   0.182   7.033 -0.4689 -0.4054  0.0214
  101MOL0     C13546   2.315  -0.262   6.242  0.3265  0.6542 -0.3501
  101MOL0     C13547   2.250  -0.265   6.116  0.2990 -1.0214  0.5863
  101MOL0     O13548   2.402  -0.242   5.836 -1.0278  0.3387 -0.4459
  101MOL0     C13549   2.243  -0.017   5.644  0.4337  0.2067  0.1884
  101MOL0     C13550   2.205   0.017   5.510 -0.2338  1.4042  0.2815
  101MOL0     N13551   1.833   0.443   5.193 -0.0284  0.7625  0.3456
  101MOL0     N13552   1.799   0.492   5.080 -0.5362  0.2748  0.6908
  101MOL0     C13553   1.991   0.527   3.902 -0.4608 -0.3732  0.5377
  101MOL0     C13554   2.108   0.497   3.833  0.6015  0.4667 -0.3003
  101MOL0     C13555   2.523   0.506   3.645 -0.7114 -0.7398 -0.0392
  101MOL0     C13556   2.469   0.429   3.541  0.1235  0.2485  0.3887
  101MOL0     C13557   2.548   0.362   3.450  0.8392  0.2837 -0.0000
  101MOL0     C13558   2.685   0.352   3.464 -0.4793 -0.6634  0.2127
  101MOL0     O13559   2.774   0.291   3.382  0.0852 -0.3643 -0.0354
  101MOL0     C13560   2.716   0.211   3.278  1.1611  0.7515  0.4639
  101MOL0     C13561   2.808   0.134   3.186 -0.4317  1.1203 -0.0957
  101MOL0     C13562   2.911   0.045   3.269 -0.1402 -0.9780 -0.3044
  101MOL0     C13563   2.864  -0.026   3.393  0.3918 -0.7620  0.4795
  101MOL0     C13564   2.973  -0.109   3.441 -1.2037  1.5219  0.1427
  101MOL0     C13565   3.070  -0.185   3.476 -0.2832  1.4016  0.6952
  101MOL0     C13566   2.740   0.430   3.567 -0.3007  1.0988 -0.6193
  101MOL0     C13567   2.665   0.509   3.653 -0.8608 -0.2459  0.5545
  101MOL0     H13568   2.245   0.806   3.814  0.6855 -0.2760  0.3179
  101MOL0     H13569   2.044   0.866   3.929 -3.6886 -1.3153  2.7282
  101MOL0     H13570   1.860   0.591   4.179 -0.4743 -0.0060  1.5921
  101MOL0     H13571   1.946   0.743   4.182  1.3287 -1.3037  0.2910
  101MOL0     H13572   1.688   0.844   4.172  0.5787  0.4213  0.6261
  101MOL0     H13573   1.647   0.669   4.186 -0.6004  0.0865  2.8736
  101MOL0     H13574   1.823   0.778   4.395  0.2445 -0.4910 -0.1041
  101MOL0     H13575   1.670   0.856   4.380  4.0258  1.2923 -0.1324
  101MOL0     H13576   1.550   0.669   4.450  0.5742  1.0200  0.7856
  101MOL0     H13577   1.672   0.554   4.382  0.6492 -0.2655  0.6814
  101MOL0     H13578   1.822   0.619   4.563  0.1897 -0.4710  1.5772
  101MOL0     H13579   1.694   0.721   4.628 -0.9386 -0.0117 -0.1627
  101MOL0     H13580   1.543   0.511   4.637  0.7212 -2.5378 -0.7971
  101MOL0     H13581   1.689   0.417   4.641  0.2541 -1.0304  3.2068
  101MOL0     H13582   1.799   0.546   4.814 -0.7474  2.6964  1.0666
  101MOL0     H13583   1.648   0.636   4.831  1.1325  0.9930 -2.6265
  101MOL0     H13584   1.667   0.333   4.834 -3.8419 -0.6338 -1.3730
  101MOL0     H13585   1.530   0.434   4.889 -0.1416  1.7706 -3.3916
  101MOL0     H13586   1.584   0.242   5.109  0.1223  0.6312  0.1125
  101MOL0     H13587   1.733   0.271   5.404 -0.6213  1.0406 -1.1251
  101MOL0     H13588   1.708   0.132   5.310  0.2252 -0.0333 -2.2626
  101MOL0     H13589   1.919   0.092   5.421  0.6093  2.1719  1.9860
  101MOL0     H13590   1.990   0.233   5.369  2.6044 -2.0967 -0.3230
  101MOL0     H13591   1.938   0.162   5.123 -2.7987 -0.8025  0.0689
  101MOL0     H13592   1.896   0.007   5.196 -1.0045 -0.5117  2.5716
  101MOL0     H13593   2.168   0.128   5.265 -1.0314  0.7085  1.1576
  101MOL0     H13594   2.149   0.031   5.127  3.2407  0.2170  0.8505
  101MOL0     H13595   2.162  -0.292   5.379  1.6729  1.7248 -1.5815
  101MOL0     H13596   2.153  -0.463   5.583  1.5092 -1.3555 -0.5788
  101MOL0     H13597   2.328  -0.427   5.545 -0.7452  3.7946 -3.1344
  101MOL0     H13598   2.265  -0.419   5.711 -3.9954  1.5278  0.5241
  101MOL0     H13599   2.292   0.056   6.030 -1.6612 -0.0535  0.6859
  101MOL0     H13600   2.369   0.064   6.268 -1.7744 -0.6414  1.0520
  101MOL0     H13601   2.500  -0.303   6.466  3.3088 -0.1579  1.8110
  101MOL0     H13602   2.575  -0.232   6.346  0.9085  2.0707 -0.9272
  101MOL0     H13603   2.715  -0.165   6.514  0.6504 -0.3045 -0.9225
  101MOL0     H13604   2.619  -0.023   6.509  3.4733 -0.5747  0.7338
  101MOL0     H13605   2.558  -0.237   6.710 -3.5550 -0.2750  1.1144
  101MOL0     H13606   2.465  -0.091   6.679  0.8461  0.9135 -0.4998
  101MOL0     H13607   2.674   0.041   6.732  0.4053 -1.4169 -1.1969
  101MOL0     H13608   2.604  -0.046   6.879 -0.2045 -2.1388  0.1730
  101MOL0     H13609   2.821  -0.170   6.705  0.0133  0.7876 -0.5804
  101MOL0     H13610   2.757  -0.212   6.872 -0.3191 -1.3605 -1.2136
  101MOL0     H13611   2.980  -0.082   6.820 -1.2413  0.1629 -1.4850
  101MOL0     H13612   2.865   0.056   6.833 -2.4300 -0.7717 -0.4596
  101MOL0     H13613   2.912  -0.159   7.055  1.2937  0.1693 -0.6146
  101MOL0     H13614   2.798  -0.019   7.071 -1.7329 -1.7221 -1.1424
  101MOL0     H13615   3.104  -0.037   7.061  0.5860  0.5900  3.3236
  101MOL0     H13616   3.018   0.022   7.198  2.2435  0.0796 -0.1295
  101MOL0     H13617   2.326  -0.355   6.296 -3.0571  1.7273  2.5584
  101MOL0     H13618   2.232  -0.353   6.055  1.7560  0.4603 -2.1558
  101MOL0     H13619   2.264   0.055   5.723 -2.4997  0.1029  1.1621
  101MOL0     H13620   2.194   0.118   5.471  1.8342  2.4590  2.2144
  101MOL0     H13621   1.918   0.448   3.918 -3.5045  1.7781 -1.6030
  101MOL0     H13622   2.117   0.396   3.795 -1.1649  0.3593 -0.5359
  101MOL0     H13623   2.363   0.437   3.519  0.2417 -2.4966 -1.6359
  101MOL0     H13624   2.484   0.320   3.373 -0.0632  0.6212  0.5447
  101MOL0     H13625   2.636   0.141   3.305  0.3096  2.0589  1.4900
  101MOL0     H13626   2.676   0.283   3.206 -0.0841 -0.3152  0.0413
  101MOL0     H13627   2.866   0.203   3.123 -0.2332  2.7374  1.7755
  101MOL0     H13628   2.759   0.069   3.113  3.3227 -0.8028 -1.2018
  101MOL0     H13629   2.994   0.105   3.309  0.5662 -1.2052 -1.3875
  101MOL0     H13630   2.946  -0.025   3.193 -0.9469  2.2134 -3.8969
  101MOL0     H13631   2.784  -0.098   3.371 -2.1320  1.1768  2.7889
  101MOL0     H13632   2.826   0.045   3.466 -0.1611  1.1853 -1.5753
  101MOL0     H13633   3.156  -0.242   3.505  0.9961  1.5217 -2.3984
  101MOL0     H13634   2.848   0.421   3.572 -0.3754  0.8648  1.7862
  101MOL0     H13635   2.696   0.569   3.738  1.3510  1.6004 -1.4091
  102MOL0     O13636  10.686  10.232   4.258  0.2340 -0.4633  0.2169
  102MOL0     C13637  10.802  10.233   4.294 -0.3072  0.9034 -0.1743
  102MOL0     O13638  10.852  10.200   4.420  0.1823  0.0172  0.2016
  102MOL0     C13639  10.770  10.216   4.532 -0.2012  0.3919 -0.6474
  102MOL0     C13640  10.641  10.163   4.553 -0.8423 -0.9921  0.6559
  102MOL0     C13641  10.585  10.165   4.680  0.2926  0.6308 -0.5458
  102MOL0     C13642  10.638  10.223   4.794 -0.6080 -0.6656  0.3751
  102MOL0     O13643  10.578  10.236   4.918 -0.5999 -0.6294  0.5067
  102MOL0     C13644  10.436  10.253   4.920  0.8211 -0.3511  0.3938
  102MOL0     C13645  10.409  10.316   5.057 -0.9740  0.7039  1.1246
  102MOL0     C13646  10.435  10.223   5.172  0.5643 -1.5771  0.1207
  102MOL0     C13647  10.455  10.311   5.296  0.9519  0.2655  0.8442
  102MOL0     C13648  10.462  10.213   5.425 -0.2556 -0.8965 -0.8369
  102MOL0     C13649  10.613  10.168   5.440 -0.7740  0.0921 -0.1461
  102MOL0     C13650  10.623  10.035   5.515 -0.6140 -0.1464  0.0294
  102MOL0     C13651  10.576  10.052   5.672 -0.0799 -0.2523  0.0741
  102MOL0     N13652  10.559   9.925   5.746  0.2726  0.2922 -0.9423
  102MOL0     C13653  10.491   9.823   5.682 -0.5999 -0.0143  0.1343
  102MOL0     C13654  10.490   9.731   5.781 -0.1037 -0.4632  1.1849
  102MOL0     C13655  10.421   9.599   5.757 -0.1056  0.0238  0.0242
  102MOL0     C13656  10.528   9.490   5.786 -0.5735 -0.0747 -0.4358
  102MOL0     C13657  10.600   9.442   5.659 -0.6050  0.6095  0.1721
  102MOL0     C13658  10.496   9.380   5.562  0.3001  0.4939  0.2375
  102MOL0     O13659  10.401   9.289   5.617  0.3214  0.5095 -0.4315
  102MOL0     C13660  10.433   9.154   5.633 -0.1392  0.5294 -0.0490
  102MOL0     C13661  10.568   9.098   5.618  0.4630  0.6446 -0.6568
  102MOL0     C13662  10.609   8.971   5.649 -0.1198  0.3399 -0.8674
  102MOL0     C13663  10.753   8.942   5.624  0.4376  1.0859 -0.7713
  102MOL0     C13664  10.510   8.885   5.696 -0.5263  0.4629 -0.1890
  102MOL0     C13665  10.549   8.745   5.729 -0.0302 -0.3381 -0.3874
  102MOL0     O13666  10.460   8.679   5.805  0.0712  0.0366 -0.9734
  102MOL0     C13667  10.481   8.552   5.844  0.1461  0.5750 -0.7445
  102MOL0     C13668  10.431   8.444   5.766  0.4399  0.4335 -0.4386
  102MOL0     C13669  10.466   8.307   5.801 -1.0865 -0.4779 -0.5191
  102MOL0     C13670  10.530   8.283   5.929  1.4069 -0.9055  0.6686
  102MOL0     O13671  10.566   8.155   5.968 -0.0775 -0.4096  0.5671
  102MOL0     C13672  10.458   8.063   5.963  0.1043 -0.1376  0.7327
  102MOL0     C13673  10.507   7.955   6.044 -0.6105 -0.0333 -0.3098
  102MOL0     C13674  10.429   7.821   6.038  1.1941  0.7648 -0.2687
  102MOL0     C13675  10.478   7.714   6.142 -0.5529  0.1238 -0.6672
  102MOL0     C13676  10.407   7.580   6.139  0.2304  0.1360 -0.3741
  102MOL0     C13677  10.441   7.486   6.022 -0.0030  0.1054  0.1071
  102MOL0     C13678  10.330   7.387   5.973 -1.2812  0.0687 -0.2291
  102MOL0     C13679  10.360   7.356   5.822  0.8105 -0.1573  0.0800
  102MOL0    Cl13680  10.257   7.223   5.774 -0.1261 -0.1388  0.2618
  102MOL0     C13681  10.589   8.392   5.990  0.0588 -0.2673 -0.4542
  102MOL0     C13682  10.551   8.523   5.956 -0.6859  1.2213 -0.4353
  102MOL0     O13683  10.644   8.688   5.682  0.1949  0.3672  0.2067
  102MOL0     C13684  10.381   8.929   5.717 -0.3004  0.8419 -0.1782
  102MOL0     C13685  10.333   9.062   5.680  0.3568  0.6071  1.0825
  102MOL0     N13686  10.549   9.776   5.893 -1.0302 -0.0625 -1.1422
  102MOL0     N13687  10.598   9.895   5.872  0.0675 -0.5865 -0.7400
  102MOL0     C13688  10.765  10.276   4.770  0.2022  0.5613  0.1767
  102MOL0     C13689  10.832  10.271   4.648 -0.0066 -0.5080  0.3359
  102MOL0     C13690  10.908  10.286   4.203  0.0317 -0.1840  0.7782
  102MOL0     C13691  10.876  10.337   4.078 -0.4472  0.1180  0.9542
  102MOL0     C13692  10.973  10.392   3.987  0.8103 -0.4902  0.1828
  102MOL0     C13693  11.107  10.403   4.026  0.1292  0.6526 -0.8956
  102MOL0     O13694  11.190  10.449   3.925 -0.7526  0.2088 -0.2930
  102MOL0     C13695  11.302  10.518   3.964 -0.1907  0.5936  0.0600
  102MOL0     C13696  11.374  10.564   3.837 -0.1883  0.1742 -0.3276
  102MOL0     C13697  11.518  10.622   3.861  0.8060 -0.5171 -0.5800
  102MOL0     C13698  11.622  10.534   3.937  0.0881  0.2705 -0.0872
  102MOL0     C13699  11.754  10.529   3.880 -1.0017  1.4617 -0.5614
  102MOL0     C13700  11.862  10.529   3.817 -0.3317  0.9510  0.1841
  102MOL0     C13701  11.143  10.352   4.155 -0.6006 -0.6314  0.1020
  102MOL0     C13702  11.047  10.298   4.236 -0.1567  0.5437 -0.0356
  102MOL0     H13703  10.590  10.116   4.469  0.9067 -1.2513 -0.3244
  102MOL0     H13704  10.497  10.102   4.691  1.4785 -1.5941 -2.6744
  102MOL0     H13705  10.411  10.325   4.842  2.3550 -0.5217 -0.2837
  102MOL0     H13706  10.386  10.156   4.905 -1.4965  0.3419  2.9168
  102MOL0     H13707  10.475  10.403   5.064 -1.6205  1.5283 -1.6582
  102MOL0     H13708  10.311  10.365   5.064 -1.2596  0.3946 -0.3306
  102MOL0     H13709  10.356  10.147   5.180  2.0805 -3.2425  0.0413
  102MOL0     H13710  10.527  10.165   5.165  2.5746  0.6774  4.1513
  102MOL0     H13711  10.543  10.375   5.310  0.5579  0.7954  0.9614
  102MOL0     H13712  10.365  10.374   5.297  0.4443 -0.0935 -3.7044
  102MOL0     H13713  10.430  10.279   5.507  2.6091  2.6354 -2.2569
  102MOL0     H13714  10.386  10.136   5.414 -1.8909  0.5190 -0.0109
  102MOL0     H13715  10.661  10.153   5.343 -2.3120 -4.2246 -0.5071
  102MOL0     H13716  10.677  10.242   5.488 -0.4343 -0.5274  0.3805
  102MOL0     H13717  10.561   9.968   5.455  0.2708 -0.8613 -0.1058
  102MOL0     H13718  10.723   9.993   5.516  0.7988  2.8557 -1.1709
  102MOL0     H13719  10.484  10.110   5.673 -0.6198 -1.1046  1.4401
  102MOL0     H13720  10.652  10.115   5.720  1.4507 -0.3591 -2.0198
  102MOL0     H13721  10.443   9.819   5.585 -0.8036  1.4968  0.1564
  102MOL0     H13722  10.342   9.598   5.832 -2.0413  0.3699 -1.9122
  102MOL0     H13723  10.381   9.594   5.655  0.0041  1.2210 -0.0886
  102MOL0     H13724  10.487   9.393   5.814 -2.6925  1.0713  0.6514
  102MOL0     H13725  10.596   9.523   5.865  0.1285 -0.6698 -0.7735
  102MOL0     H13726  10.680   9.371   5.684 -0.3307  0.5830 -0.7190
  102MOL0     H13727  10.666   9.519   5.616  1.0785 -1.4755 -1.2048
  102MOL0     H13728  10.540   9.339   5.471 -3.1558 -2.0108 -0.5135
  102MOL0     H13729  10.440   9.458   5.511  0.6604  1.1841  0.8781
  102MOL0     H13730  10.638   9.175   5.587 -0.2536  1.2063 -0.9128
  102MOL0     H13731  10.771   8.870   5.543 -0.6877  0.3335 -0.3823
  102MOL0     H13732  10.816   9.029   5.604  0.4294  0.8860 -1.7028
  102MOL0     H13733  10.785   8.889   5.714  0.0073  0.5738 -0.9111
  102MOL0     H13734  10.368   8.453   5.678 -2.6749 -0.9211  1.4739
  102MOL0     H13735  10.433   8.236   5.727 -2.1374 -0.6972  0.1338
  102MOL0     H13736  10.359   8.094   5.997  1.1022  3.1426  0.9773
  102MOL0     H13737  10.442   8.026   5.861  0.3166 -1.7802  1.2768
  102MOL0     H13738  10.611   7.945   6.011 -1.1904  0.4566 -2.4157
  102MOL0     H13739  10.517   7.981   6.149  1.1297 -0.0939 -0.4223
  102MOL0     H13740  10.415   7.783   5.937 -0.3241  1.7711 -0.4782
  102MOL0     H13741  10.326   7.847   6.067  0.9858 -0.3047  0.0076
  102MOL0     H13742  10.585   7.692   6.137 -0.2176  0.9072  1.7386
  102MOL0     H13743  10.489   7.765   6.239  0.7011  0.0937 -0.7772
  102MOL0     H13744  10.299   7.589   6.158  0.2631 -0.0745 -0.0910
  102MOL0     H13745  10.449   7.526   6.224 -1.2142 -0.6065 -0.0946
  102MOL0     H13746  10.461   7.548   5.934 -1.0700 -0.5222 -0.6136
  102MOL0     H13747  10.528   7.422   6.038 -1.2196 -2.1113 -1.5140
  102MOL0     H13748  10.230   7.428   5.988 -0.5390  2.6183 -1.6403
  102MOL0     H13749  10.326   7.295   6.033 -0.9906 -0.8014 -1.5217
  102MOL0     H13750  10.466   7.334   5.807  1.2779  0.4868  2.1309
  102MOL0     H13751  10.334   7.443   5.761 -1.9975 -0.6158  0.5034
  102MOL0     H13752  10.653   8.377   6.077 -4.3030 -2.8639  2.7701
  102MOL0     H13753  10.593   8.605   6.014  1.3448 -1.7796  2.7339
  102MOL0     H13754  10.308   8.865   5.765  2.7439 -0.4528  3.1715
  102MOL0     H13755  10.232   9.097   5.703 -0.5356 -1.6964  0.8875
  102MOL0     H13756  10.818  10.337   4.843 -1.2825  0.3447  1.5103
  102MOL0     H13757  10.931  10.312   4.633 -1.1177  2.2868  0.0716
  102MOL0     H13758  10.779  10.328   4.029  0.1605  1.1963 -0.4897
  102MOL0     H13759  10.947  10.407   3.883  3.4365 -0.6504 -0.5660
  102MOL0     H13760  11.265  10.609   4.012 -0.6629  0.1191  0.6061
  102MOL0     H13761  11.360  10.461   4.038 -4.2205 -3.3602  0.5720
  102MOL0     H13762  11.300  10.623   3.782 -2.5063 -2.9917 -0.9174
  102MOL0     H13763  11.382  10.479   3.769 -1.1977  1.3586 -1.9787
  102MOL0     H13764  11.508  10.719   3.910 -2.4002 -1.3007  0.5476
  102MOL0     H13765  11.562  10.638   3.762  3.3209  0.9869  0.6697
  102MOL0     H13766  11.578  10.434   3.939  0.3457  0.1266  2.4187
  102MOL0     H13767  11.619  10.563   4.043  0.1719  0.0431 -0.0208
  102MOL0     H13768  11.945  10.535   3.749 -1.0908  2.0674 -0.6807
  102MOL0     H13769  11.244  10.352   4.195 -1.1553 -2.4580  1.6570
  102MOL0     H13770  11.081  10.252   4.328 -2.1989 -2.3758 -0.6220
  103MOL0     O13771   2.989   2.371   4.667 -0.7575  0.2392 -0.2526
  103MOL0     C13772   2.984   2.297   4.764 -0.3045  0.6572 -0.6265
  103MOL0     O13773   2.878   2.208   4.794  0.0355 -0.2605  0.6764
  103MOL0     C13774   2.764   2.219   4.716  0.6536  0.1677  0.2290
  103MOL0     C13775   2.762   2.214   4.579 -0.3965 -0.8317 -0.3356
  103MOL0     C13776   2.648   2.242   4.515  0.4778  0.5493 -0.2985
  103MOL0     C13777   2.529   2.267   4.588 -0.2079 -0.5238 -0.1281
  103MOL0     O13778   2.425   2.289   4.497 -0.5678 -0.2209  0.0524
  103MOL0     C13779   2.331   2.402   4.514 -0.7830  0.2184  0.1552
  103MOL0     C13780   2.288   2.462   4.377 -0.7762 -0.5214 -0.4028
  103MOL0     C13781   2.249   2.357   4.270  0.3168  0.5874 -0.6726
  103MOL0     C13782   2.178   2.436   4.161 -0.8232  0.0462 -0.0824
  103MOL0     C13783   2.154   2.363   4.032 -0.1095 -0.2481  0.3715
  103MOL0     C13784   2.261   2.382   3.925  0.4272 -0.0867  0.4216
  103MOL0     C13785   2.403   2.309   3.935  1.0824 -0.0732 -1.0839
  103MOL0     C13786   2.507   2.411   4.001  0.2170 -0.5071  0.3760
  103MOL0     N13787   2.635   2.344   4.047 -0.1829 -0.1917 -0.1788
  103MOL0     C13788   2.737   2.421   4.100  0.1106  0.3203 -0.2527
  103MOL0     C13789   2.818   2.329   4.154  0.7101 -0.4345  0.0664
  103MOL0     C13790   2.938   2.369   4.228  0.3021  0.9562  0.4509
  103MOL0     C13791   3.053   2.293   4.157  0.1555  0.2101  0.7193
  103MOL0     C13792   3.190   2.330   4.234 -0.4171  0.4588 -0.3264
  103MOL0     C13793   3.213   2.260   4.369 -0.4622  0.4162 -0.0402
  103MOL0     O13794   3.267   2.126   4.357  0.0261 -0.3418  0.4078
  103MOL0     C13795   3.351   2.080   4.460  0.3889 -0.2273 -0.2554
  103MOL0     C13796   3.481   2.056   4.432 -0.4289 -0.1602  0.1234
  103MOL0     C13797   3.580   2.007   4.523 -0.4115 -0.4991 -0.5584
  103MOL0     C13798   3.708   1.956   4.468  0.1892  0.2436  0.8338
  103MOL0     C13799   3.540   2.005   4.664 -0.3523 -0.5733  1.1729
  103MOL0     C13800   3.619   1.955   4.770  0.4268  1.5513  0.5524
  103MOL0     O13801   3.562   1.921   4.891 -0.2653  0.1746 -0.5020
  103MOL0     C13802   3.641   1.867   4.994  0.5225  0.2430 -0.7136
  103MOL0     C13803   3.639   1.944   5.110 -0.4860  0.1411 -0.5473
  103MOL0     C13804   3.704   1.897   5.229 -0.0748 -0.7190  0.2464
  103MOL0     C13805   3.777   1.781   5.229 -0.4091 -0.4430  0.1225
  103MOL0     O13806   3.842   1.753   5.346 -0.7114 -0.2683 -0.1204
  103MOL0     C13807   3.902   1.624   5.366 -0.0273  0.5137 -0.5653
  103MOL0     C13808   4.053   1.623   5.314  0.5116 -0.4451  0.8519
  103MOL0     C13809   4.137   1.746   5.366  0.4096  0.6160 -0.2215
  103MOL0     C13810   4.221   1.798   5.247  0.4996 -0.3804  0.3267
  103MOL0     C13811   4.242   1.955   5.272 -0.1281 -0.9618  0.8141
  103MOL0     C13812   4.351   1.965   5.380  0.2673 -1.5049  0.5649
  103MOL0     C13813   4.384   2.118   5.419 -0.0782  0.1238  0.7619
  103MOL0     C13814   4.515   2.143   5.480  0.0955  0.3431  0.2861
  103MOL0    Cl13815   4.626   2.134   5.347 -0.3867 -0.1940 -0.1018
  103MOL0     C13816   3.773   1.710   5.117 -0.2454  0.2052  0.7485
  103MOL0     C13817   3.708   1.743   5.001  0.0722 -0.2669  0.6211
  103MOL0     O13818   3.739   1.960   4.753 -0.5604  0.6121 -0.1873
  103MOL0     C13819   3.402   2.028   4.693 -0.5583  0.7386 -0.0058
  103MOL0     C13820   3.310   2.067   4.596  0.1871  0.8384  0.5003
  103MOL0     N13821   2.760   2.201   4.138 -0.3123 -0.6735  0.1040
  103MOL0     N13822   2.649   2.211   4.077  0.6357 -0.5058 -0.6949
  103MOL0     C13823   2.523   2.273   4.726  0.4833  0.3260  0.3249
  103MOL0     C13824   2.647   2.248   4.786 -0.3605 -0.0202  0.2819
  103MOL0     C13825   3.101   2.288   4.845 -0.8420  0.4946  0.6276
  103MOL0     C13826   3.120   2.177   4.932 -0.5759 -0.0948 -0.9893
  103MOL0     C13827   3.228   2.175   5.012 -0.5251 -0.2803 -0.6430
  103MOL0     C13828   3.331   2.273   5.010  0.0599  0.0412 -0.1295
  103MOL0     O13829   3.449   2.247   5.088  0.2296 -0.0688  1.5387
  103MOL0     C13830   3.545   2.353   5.095 -0.4723  0.5284  0.1182
  103MOL0     C13831   3.655   2.298   5.190  0.4146  0.6954  0.0380
  103MOL0     C13832   3.602   2.271   5.331 -0.4559  0.0945 -0.6620
  103MOL0     C13833   3.707   2.301   5.437  0.1020 -0.0501 -0.2256
  103MOL0     C13834   3.843   2.250   5.414 -0.3093 -1.0267 -0.7024
  103MOL0     C13835   3.966   2.218   5.420  0.2769 -0.1847  0.1448
  103MOL0     C13836   3.313   2.375   4.920 -0.5060 -0.1420  0.2836
  103MOL0     C13837   3.203   2.380   4.843 -1.4423 -0.5609  0.4115
  103MOL0     H13838   2.847   2.195   4.515 -1.6163 -4.3496 -1.1507
  103MOL0     H13839   2.653   2.242   4.407  4.0833 -0.4725 -0.2303
  103MOL0     H13840   2.242   2.387   4.577 -0.7761  3.7046  1.1916
  103MOL0     H13841   2.396   2.481   4.554  0.5363 -0.9815  0.4467
  103MOL0     H13842   2.200   2.523   4.402  0.6761  0.7187  2.1486
  103MOL0     H13843   2.362   2.532   4.337  1.8356 -0.6603  3.6369
  103MOL0     H13844   2.330   2.297   4.228  0.2131 -0.1918  0.1883
  103MOL0     H13845   2.185   2.284   4.322  4.0568 -1.8368  0.9029
  103MOL0     H13846   2.083   2.467   4.205 -0.5123  0.5989  0.2081
  103MOL0     H13847   2.236   2.525   4.134 -0.9540 -0.7515 -3.4668
  103MOL0     H13848   2.119   2.260   4.039 -1.5522  0.1620 -0.2667
  103MOL0     H13849   2.066   2.411   3.987  2.8933  3.5158 -2.2610
  103MOL0     H13850   2.221   2.345   3.830  1.0867 -3.1015  1.2130
  103MOL0     H13851   2.273   2.488   3.903 -0.4115  0.2271  1.3914
  103MOL0     H13852   2.398   2.222   4.002  1.5888 -1.2958 -2.5744
  103MOL0     H13853   2.436   2.262   3.842  0.7907 -0.8995 -0.7836
  103MOL0     H13854   2.453   2.474   4.072 -2.0469 -1.6858 -0.2034
  103MOL0     H13855   2.536   2.481   3.921 -1.6110 -0.0658  0.0502
  103MOL0     H13856   2.730   2.529   4.101  0.2572  0.3652 -1.8867
  103MOL0     H13857   2.959   2.476   4.226  1.3035  0.7644 -1.2355
  103MOL0     H13858   2.924   2.346   4.334 -3.8628  2.1448  0.3362
  103MOL0     H13859   3.054   2.321   4.051 -2.2691 -0.3421  0.4943
  103MOL0     H13860   3.042   2.184   4.161 -0.5437  0.0104 -2.9616
  103MOL0     H13861   3.199   2.438   4.246  1.1420  0.1427  1.8063
  103MOL0     H13862   3.279   2.306   4.175 -0.3791  1.4884 -0.6998
  103MOL0     H13863   3.119   2.262   4.424 -0.6860  0.9038 -0.4319
  103MOL0     H13864   3.279   2.323   4.430  0.2565 -2.2188  2.0778
  103MOL0     H13865   3.519   2.071   4.332 -1.7468 -4.4521 -1.2179
  103MOL0     H13866   3.798   1.964   4.530 -0.5100 -0.0586  1.9164
  103MOL0     H13867   3.689   1.848   4.458 -4.0119  0.6272  2.4749
  103MOL0     H13868   3.733   1.993   4.368  3.1472  1.6064  1.9545
  103MOL0     H13869   3.577   2.033   5.101 -0.4137  0.3152  0.5656
  103MOL0     H13870   3.708   1.959   5.318 -0.2302 -0.0797 -0.1901
  103MOL0     H13871   3.904   1.613   5.475  0.6666  0.6890 -0.5577
  103MOL0     H13872   3.855   1.535   5.323  1.9726 -1.7020  1.5444
  103MOL0     H13873   4.101   1.528   5.338  0.2390 -1.3960 -2.0169
  103MOL0     H13874   4.048   1.618   5.205  2.5707  0.8169  0.6466
  103MOL0     H13875   4.204   1.713   5.447  1.5568 -0.2840 -1.4900
  103MOL0     H13876   4.075   1.825   5.408  0.1686 -0.2098  1.0501
  103MOL0     H13877   4.307   1.731   5.240 -0.0183 -0.9070 -1.5852
  103MOL0     H13878   4.182   1.790   5.145  0.3495  1.3975  0.2104
  103MOL0     H13879   4.153   2.000   5.316  0.9731  4.2642 -1.5200
  103MOL0     H13880   4.271   2.003   5.178 -2.1604  2.9482  1.9864
  103MOL0     H13881   4.336   1.915   5.476  1.2467  0.4686  1.8298
  103MOL0     H13882   4.430   1.909   5.330 -2.1837 -3.2147 -1.7082
  103MOL0     H13883   4.312   2.158   5.491  1.6240  3.8020  0.6458
  103MOL0     H13884   4.370   2.175   5.327  2.4013  2.8729  1.9037
  103MOL0     H13885   4.531   2.065   5.555  1.3498  1.7157  1.5050
  103MOL0     H13886   4.518   2.241   5.527  1.4824 -0.6192  2.3392
  103MOL0     H13887   3.842   1.630   5.093 -0.1106  0.0253  1.6809
  103MOL0     H13888   3.728   1.692   4.907  0.3137  1.0828 -0.0900
  103MOL0     H13889   3.347   2.023   4.786 -2.1777 -1.0964 -0.9678
  103MOL0     H13890   3.205   2.069   4.625 -1.1288 -2.2589 -3.0878
  103MOL0     H13891   2.438   2.290   4.791 -0.4008  3.0401 -1.3865
  103MOL0     H13892   2.641   2.264   4.893 -0.1584 -1.1822  0.4823
  103MOL0     H13893   3.053   2.094   4.952 -1.5167  0.5601 -1.3734
  103MOL0     H13894   3.239   2.086   5.074  0.2985 -0.5497 -1.1516
  103MOL0     H13895   3.584   2.371   4.995 -2.9440 -2.6949 -1.6548
  103MOL0     H13896   3.504   2.447   5.134  0.1222  0.6734  0.3982
  103MOL0     H13897   3.729   2.378   5.199  0.0531  0.8671  1.6560
  103MOL0     H13898   3.707   2.212   5.145  0.1004  1.3999 -1.7494
  103MOL0     H13899   3.570   2.166   5.339  3.1189 -1.1761 -1.2577
  103MOL0     H13900   3.511   2.332   5.338  1.0253  2.5025 -1.2096
  103MOL0     H13901   3.668   2.258   5.530  2.5285 -0.9253  0.4630
  103MOL0     H13902   3.721   2.405   5.467 -0.6983  0.2604 -0.8828
  103MOL0     H13903   4.067   2.193   5.445  0.3939  0.6923  0.6208
  103MOL0     H13904   3.375   2.463   4.903 -0.3290 -0.3435 -0.1254
  103MOL0     H13905   3.186   2.463   4.775  1.1747 -0.5190 -0.2902
  104MOL0     O13906  11.321  10.240   4.722 -0.6590 -0.0420 -0.4082
  104MOL0     C13907  11.369  10.337   4.778 -0.1284  0.2812 -0.0298
  104MOL0     O13908  11.320  10.460   4.765 -0.1331  0.3609 -0.5772
  104MOL0     C13909  11.209  10.484   4.699  0.1905  0.6378  0.2118
  104MOL0     C13910  11.180  10.467   4.566  0.0392  0.1289  0.4012
  104MOL0     C13911  11.067  10.532   4.505 -0.9422 -0.1578  0.3639
  104MOL0     C13912  10.985  10.608   4.587 -0.0783 -0.9579  0.9020
  104MOL0     O13913  10.886  10.669   4.518  0.3407  0.5094  0.5313
  104MOL0     C13914  10.796  10.756   4.578  0.4743 -0.0253  0.3057
  104MOL0     C13915  10.672  10.765   4.502  0.5140 -0.8022  0.2250
  104MOL0     C13916  10.623  10.620   4.482  0.3933  1.1908  0.5539
  104MOL0     C13917  10.501  10.613   4.374  0.5507  0.3892  0.7050
  104MOL0     C13918  10.443  10.470   4.375 -0.5870  0.1573  1.2917
  104MOL0     C13919  10.342  10.450   4.254  0.1528  0.4688  0.4463
  104MOL0     C13920  10.293  10.305   4.239  0.1915 -0.2546 -0.6452
  104MOL0     C13921  10.162  10.312   4.165 -0.8772  1.1794 -0.0835
  104MOL0     N13922  10.103  10.180   4.139  0.7221  0.3067 -0.4614
  104MOL0     C13923  10.151  10.087   4.056  0.3677 -0.1354  0.6046
  104MOL0     C13924  10.055   9.989   4.057 -0.5158  0.2311 -1.1131
  104MOL0     C13925  10.056   9.865   3.974 -0.2713  0.9161 -0.3002
  104MOL0     C13926  10.192   9.796   3.964  0.1161  0.1871  0.2472
  104MOL0     C13927  10.180   9.653   3.903 -0.4983  0.2648 -0.3125
  104MOL0     C13928  10.314   9.587   3.891 -1.1939  0.3339 -0.1107
  104MOL0     O13929  10.378   9.633   3.771 -0.4082 -0.1197  0.1309
  104MOL0     C13930  10.515   9.603   3.759  0.5976  0.0604  0.1550
  104MOL0     C13931  10.601   9.696   3.705  0.0845 -0.2931 -0.0430
  104MOL0     C13932  10.740   9.682   3.694 -0.4060  0.6217 -0.2768
  104MOL0     C13933  10.812   9.788   3.620  0.3828  0.4564  0.4241
  104MOL0     C13934  10.801   9.582   3.774 -1.2293 -0.5336 -0.7005
  104MOL0     C13935  10.944   9.558   3.774 -0.3390 -0.1893  0.7195
  104MOL0     O13936  11.019   9.613   3.672 -0.2274  0.3880  0.2032
  104MOL0     C13937  11.162   9.592   3.691  0.5351 -0.0045  0.2350
  104MOL0     C13938  11.229   9.659   3.793 -0.5256 -0.2638  0.7469
  104MOL0     C13939  11.373   9.657   3.811  0.3473 -0.2882 -0.6931
  104MOL0     C13940  11.446   9.561   3.733  0.6074 -0.3471  0.1063
  104MOL0     O13941  11.585   9.554   3.755 -0.0278  0.8272 -0.3966
  104MOL0     C13942  11.665   9.503   3.645  0.4831 -0.2583 -0.1021
  104MOL0     C13943  11.813   9.500   3.688 -0.2197  0.2192 -0.2781
  104MOL0     C13944  11.904   9.501   3.563  0.8119  0.0851 -0.4577
  104MOL0     C13945  12.048   9.505   3.605 -0.0370 -0.0045 -0.0129
  104MOL0     C13946  12.143   9.450   3.504  0.2268  0.3162  0.3260
  104MOL0     C13947  12.170   9.549   3.379  0.6775 -0.1448 -0.7760
  104MOL0     C13948  12.219   9.488   3.247 -0.8771  0.6500 -0.1747
  104MOL0     C13949  12.305   9.594   3.187 -0.4356 -0.2030  0.7554
  104MOL0    Cl13950  12.415   9.523   3.062  0.1504 -0.4582 -0.0626
  104MOL0     C13951  11.369   9.489   3.633 -0.4171 -0.1446 -0.1929
  104MOL0     C13952  11.233   9.500   3.612  0.1571 -0.6253  0.3085
  104MOL0     O13953  10.987   9.477   3.856 -1.4327  0.5492 -0.3672
  104MOL0     C13954  10.716   9.487   3.833  0.1624 -0.6727  0.1360
  104MOL0     C13955  10.575   9.493   3.819 -0.2035  0.1886 -0.0829
  104MOL0     N13956   9.957  10.016   4.155 -0.6428 -0.4712  0.0684
  104MOL0     N13957   9.987  10.132   4.201  0.1156 -0.4170  0.0755
  104MOL0     C13958  11.016  10.620   4.730  0.1720 -0.8866 -0.0675
  104MOL0     C13959  11.126  10.549   4.781  0.9793  0.6618  0.2819
  104MOL0     C13960  11.494  10.318   4.845  0.4348  0.0948  0.2926
  104MOL0     C13961  11.526  10.195   4.909  0.4591  1.0208  0.4762
  104MOL0     C13962  11.653  10.168   4.957  0.0474 -0.3381 -0.3442
  104MOL0     C13963  11.749  10.267   4.950  0.3686  0.6249 -0.0444
  104MOL0     O13964  11.876  10.231   4.992 -0.0581  0.3019 -0.5480
  104MOL0     C13965  11.984  10.261   4.902  0.4638  0.0437  0.0901
  104MOL0     C13966  12.068  10.142   4.851 -0.9236 -0.7385  0.2853
  104MOL0     C13967  11.985  10.028   4.801 -0.6984  1.0282  0.6851
  104MOL0     C13968  11.886  10.067   4.688 -1.4758  0.2880  0.9250
  104MOL0     C13969  11.826   9.946   4.621  0.8096 -0.0888 -0.5599
  104MOL0     C13970  11.780   9.853   4.564  0.7033  0.0900  0.3607
  104MOL0     C13971  11.722  10.398   4.900  0.0878  0.2706 -0.0747
  104MOL0     C13972  11.595  10.418   4.842  0.0192 -0.5159 -1.0494
  104MOL0     H13973  11.256  10.421   4.504 -1.5084 -1.4375 -0.4344
  104MOL0     H13974  11.055  10.519   4.397  4.5683  1.8995 -0.7938
  104MOL0     H13975  10.765  10.720   4.677 -0.0127 -2.3684 -0.6405
  104MOL0     H13976  10.843  10.855   4.585 -0.1078  0.2365  0.5335
  104MOL0     H13977  10.605  10.835   4.554 -0.6198 -1.3599 -0.4535
  104MOL0     H13978  10.706  10.808   4.407 -0.0259  0.1345  0.4432
  104MOL0     H13979  10.704  10.562   4.436 -1.7345 -0.6173 -1.1568
  104MOL0     H13980  10.586  10.575   4.574 -3.9372 -3.0694 -2.7106
  104MOL0     H13981  10.420  10.679   4.406  0.3496 -0.5911  2.3854
  104MOL0     H13982  10.548  10.644   4.281  1.4793 -0.0260  1.0261
  104MOL0     H13983  10.524  10.399   4.360 -1.1139 -0.1905 -0.0104
  104MOL0     H13984  10.374  10.456   4.459 -2.2521 -0.9075 -0.1672
  104MOL0     H13985  10.254  10.513   4.267  0.9700  2.3005 -2.1058
  104MOL0     H13986  10.381  10.484   4.158 -0.0736 -1.7022 -0.4664
  104MOL0     H13987  10.377  10.250   4.196  0.6478 -1.7062  1.8783
  104MOL0     H13988  10.279  10.260   4.338  4.3076  0.9190  0.6829
  104MOL0     H13989  10.182  10.360   4.069 -0.5510 -1.7827 -1.6088
  104MOL0     H13990  10.076  10.356   4.217 -2.3020 -2.2638  0.7247
  104MOL0     H13991  10.245  10.094   4.002 -0.4926  2.5374 -0.6849
  104MOL0     H13992   9.994   9.788   4.021 -0.0060  2.0764  2.0826
  104MOL0     H13993  10.004   9.880   3.879 -3.4160  0.3473  1.2045
  104MOL0     H13994  10.221   9.793   4.069 -1.5894  0.2404  0.7527
  104MOL0     H13995  10.261   9.853   3.901 -0.1563  1.0813  0.7397
  104MOL0     H13996  10.135   9.658   3.804  2.1054 -2.7145 -1.8189
  104MOL0     H13997  10.119   9.595   3.974 -1.6602  0.4926 -1.1026
  104MOL0     H13998  10.315   9.480   3.872  1.9787 -0.2521  2.4721
  104MOL0     H13999  10.379   9.595   3.978  2.4335  2.4992 -2.7345
  104MOL0     H14000  10.552   9.771   3.644  1.0197 -1.3584 -2.2070
  104MOL0     H14001  10.737   9.853   3.574 -4.2558  0.2863  6.4912
  104MOL0     H14002  10.862   9.844   3.698 -1.3399  0.8708  1.2910
  104MOL0     H14003  10.882   9.746   3.547 -2.1263  0.8880 -2.4257
  104MOL0     H14004  11.172   9.725   3.857  0.6130  1.4497  0.0773
  104MOL0     H14005  11.423   9.713   3.889 -1.2792  1.0128 -0.5273
  104MOL0     H14006  11.635   9.407   3.602  0.3941 -0.4958  0.4889
  104MOL0     H14007  11.664   9.583   3.570 -1.2770  1.4424  1.6167
  104MOL0     H14008  11.836   9.590   3.745  0.1301 -0.0451  0.0065
  104MOL0     H14009  11.839   9.414   3.750 -3.1359 -0.3211  0.3450
  104MOL0     H14010  11.875   9.592   3.509 -2.1091 -0.8599 -0.6784
  104MOL0     H14011  11.882   9.408   3.511 -0.2570 -0.8107  1.4741
  104MOL0     H14012  12.083   9.604   3.635  2.2030  0.1910 -2.8015
  104MOL0     H14013  12.055   9.442   3.694 -0.1657 -1.5474 -1.0414
  104MOL0     H14014  12.101   9.354   3.472  0.9669 -0.0792  0.5362
  104MOL0     H14015  12.232   9.418   3.559 -0.4346 -0.3239  1.0462
  104MOL0     H14016  12.082   9.610   3.360 -0.4970 -0.0479  3.9076
  104MOL0     H14017  12.245   9.619   3.418 -1.2832  1.2076  0.7150
  104MOL0     H14018  12.133   9.453   3.187  0.7406  0.9240 -2.8255
  104MOL0     H14019  12.278   9.397   3.263 -2.2970 -0.3283 -0.2710
  104MOL0     H14020  12.362   9.643   3.266  0.7143 -1.2289  0.5931
  104MOL0     H14021  12.237   9.663   3.134  0.5323 -0.4641 -0.9083
  104MOL0     H14022  11.414   9.417   3.566 -4.7386 -2.4638 -0.9489
  104MOL0     H14023  11.193   9.438   3.533 -1.1513  1.7166 -1.0056
  104MOL0     H14024  10.759   9.401   3.883 -1.4441 -0.9470  1.0960
  104MOL0     H14025  10.521   9.422   3.881  0.3955  0.2843  0.5631
  104MOL0     H14026  10.941  10.669   4.792  0.9517  0.5231 -0.1910
  104MOL0     H14027  11.138  10.558   4.888 -2.4578 -0.1292  0.8626
  104MOL0     H14028  11.447  10.122   4.920 -1.2501  2.9120  1.4873
  104MOL0     H14029  11.665  10.071   5.004 -0.2379 -0.3903 -0.3796
  104MOL0     H14030  11.952  10.324   4.818  2.4358  2.1024  0.7829
  104MOL0     H14031  12.043  10.339   4.951 -0.7583  0.7659  0.4602
  104MOL0     H14032  12.137  10.105   4.927  0.7863  1.9244  0.1661
  104MOL0     H14033  12.144  10.170   4.777  0.1737 -3.5005  0.2378
  104MOL0     H14034  11.928   9.981   4.883 -0.6859 -0.8591 -0.3369
  104MOL0     H14035  12.060   9.959   4.763  0.8224  2.2838  1.2686
  104MOL0     H14036  11.949  10.118   4.614  1.3087 -0.3818  2.7100
  104MOL0     H14037  11.804  10.127   4.728 -0.5661  2.7916 -0.6733
  104MOL0     H14038  11.749   9.765   4.510 -1.8586 -0.2224  2.1654
  104MOL0     H14039  11.803  10.469   4.884  2.0402 -1.7824  0.0185
  104MOL0     H14040  11.574  10.508   4.786  3.1049  1.9912  1.4052
  105MOL0     O14041   7.127   9.236   2.054  0.1189  0.4794 -0.2385
  105MOL0     C14042   7.081   9.150   1.985  0.2308 -0.2614  0.5618
  105MOL0     O14043   7.148   9.051   1.930 -0.5162  0.0787 -0.1030
  105MOL0     C14044   7.285   9.035   1.928  0.0832  0.2064 -1.3972
  105MOL0     C14045   7.392   9.112   1.981  0.6022  0.7823 -0.7294
  105MOL0     C14046   7.524   9.084   1.947  0.8202 -0.3124  1.2647
  105MOL0     C14047   7.559   8.979   1.851  0.4213  0.3911  0.0887
  105MOL0     O14048   7.690   8.963   1.812  0.3118 -0.1674  0.3518
  105MOL0     C14049   7.717   8.867   1.709 -0.8650  0.0441 -0.3928
  105MOL0     C14050   7.703   8.915   1.560  0.2586 -0.1107 -1.2037
  105MOL0     C14051   7.731   8.796   1.471 -0.1105 -0.2067 -0.9134
  105MOL0     C14052   7.775   8.842   1.328  0.4914  0.2513 -0.4411
  105MOL0     C14053   7.764   8.721   1.235  0.2529 -0.3278 -0.3182
  105MOL0     C14054   7.780   8.762   1.089  1.1738 -0.3071  0.5223
  105MOL0     C14055   7.725   8.657   0.991 -0.2512  0.5020  1.2072
  105MOL0     C14056   7.653   8.718   0.871 -0.7014 -0.6596  0.2498
  105MOL0     N14057   7.567   8.620   0.806  0.0734  0.5248  1.2795
  105MOL0     C14058   7.450   8.640   0.746  0.6966  0.3583  0.3432
  105MOL0     C14059   7.421   8.524   0.686 -0.2651  0.3066  1.0332
  105MOL0     C14060   7.301   8.485   0.599  0.1383 -0.7417  0.5701
  105MOL0     C14061   7.324   8.420   0.461  0.1055  0.2420  0.3091
  105MOL0     C14062   7.190   8.404   0.387  0.1230 -0.5901  0.6384
  105MOL0     C14063   7.085   8.309   0.454  1.2176  0.6851  0.1363
  105MOL0     O14064   7.014   8.234   0.348  0.1014  0.9349  0.1546
  105MOL0     C14065   6.922   8.301   0.279 -0.4931  0.0614 -0.7523
  105MOL0     C14066   6.927   8.316   0.144  0.0407  0.9023  0.5690
  105MOL0     C14067   6.834   8.390   0.074  1.3564  0.1001  0.1312
  105MOL0     C14068   6.862   8.399  -0.070 -0.7330  0.3518 -0.2170
  105MOL0     C14069   6.712   8.431   0.140 -0.9881 -0.7599 -0.1834
  105MOL0     C14070   6.610   8.509   0.070  0.1701 -0.8375 -0.0191
  105MOL0     O14071   6.582   8.477  -0.063 -0.1973 -0.0473 -1.3653
  105MOL0     C14072   6.513   8.568  -0.126  0.1498 -0.7859  0.7036
  105MOL0     C14073   6.564   8.700  -0.144  0.5917 -0.4246 -0.3281
  105MOL0     C14074   6.497   8.790  -0.224  0.5799 -0.0825  0.7901
  105MOL0     C14075   6.376   8.747  -0.289 -0.1598 -0.1843  0.0150
  105MOL0     O14076   6.326   8.826  -0.390  0.7496 -0.5595 -0.2289
  105MOL0     C14077   6.317   8.969  -0.376  0.2967  0.0655  0.8169
  105MOL0     C14078   6.185   9.026  -0.430  0.2035  0.6684  0.4634
  105MOL0     C14079   6.163   9.010  -0.589 -0.1910  0.4864 -0.3571
  105MOL0     C14080   6.012   8.992  -0.620  0.7033 -0.8540 -0.9167
  105MOL0     C14081   5.962   9.012  -0.765 -0.5416 -0.4747 -0.3318
  105MOL0     C14082   5.992   9.155  -0.819  0.6559  0.3140  0.6166
  105MOL0     C14083   5.914   9.182  -0.949  0.0905 -0.6788 -0.2379
  105MOL0     C14084   5.986   9.131  -1.078  0.3662 -0.4260  0.3856
  105MOL0    Cl14085   6.115   9.252  -1.110  0.3257  0.0599 -0.6940
  105MOL0     C14086   6.320   8.617  -0.264 -1.1275 -0.4589 -0.5096
  105MOL0     C14087   6.389   8.535  -0.171 -0.2694 -0.1927 -1.0100
  105MOL0     O14088   6.552   8.597   0.132 -0.2430 -0.5919 -0.1035
  105MOL0     C14089   6.703   8.413   0.282  0.0316  0.2056  0.5406
  105MOL0     C14090   6.810   8.350   0.347 -0.7820 -0.2078 -0.5494
  105MOL0     N14091   7.526   8.430   0.714 -0.3653  0.0814  0.4550
  105MOL0     N14092   7.609   8.492   0.784  0.0377  0.3494 -0.6765
  105MOL0     C14093   7.455   8.903   1.799 -0.3299 -0.2547 -0.7479
  105MOL0     C14094   7.326   8.927   1.852 -0.5071  1.3817  0.2493
  105MOL0     C14095   6.933   9.127   1.986  0.6876 -0.3973 -0.7710
  105MOL0     C14096   6.868   9.009   1.936 -0.8855 -0.8564 -0.3851
  105MOL0     C14097   6.731   8.985   1.963  0.0135  0.9084 -0.2984
  105MOL0     C14098   6.651   9.083   2.019 -0.3123  1.5096  0.0348
  105MOL0     O14099   6.525   9.036   2.044 -0.4938 -0.2104  0.3437
  105MOL0     C14100   6.436   9.127   2.116 -0.1476 -0.1156 -0.0993
  105MOL0     C14101   6.377   9.236   2.035  0.3531 -0.5423  0.6903
  105MOL0     C14102   6.306   9.182   1.910  0.3009 -0.1988 -0.0645
  105MOL0     C14103   6.210   9.073   1.935  0.6180 -0.3092  0.2401
  105MOL0     C14104   6.154   9.037   1.807  0.4091  0.2880 -0.9620
  105MOL0     C14105   6.107   8.993   1.703 -0.2521  0.2018  0.2085
  105MOL0     C14106   6.702   9.209   2.051 -0.1004  0.0492 -0.3961
  105MOL0     C14107   6.844   9.231   2.029 -0.2567 -0.2050  0.5063
  105MOL0     H14108   7.373   9.183   2.061 -2.2819  0.9116 -1.4008
  105MOL0     H14109   7.599   9.150   1.990  1.5916 -0.7203  0.5956
  105MOL0     H14110   7.823   8.842   1.723 -0.8629  0.6366  0.7435
  105MOL0     H14111   7.670   8.774   1.739  1.5678 -0.5861  1.8586
  105MOL0     H14112   7.605   8.962   1.547 -0.1230 -0.7215 -0.6435
  105MOL0     H14113   7.778   8.991   1.540  0.3895  0.0973  0.0056
  105MOL0     H14114   7.818   8.739   1.502 -1.2535 -2.1405 -1.0689
  105MOL0     H14115   7.648   8.726   1.483 -0.4925  0.7698  4.8081
  105MOL0     H14116   7.714   8.925   1.290 -2.1779 -1.3019  0.1913
  105MOL0     H14117   7.878   8.878   1.314  1.5405 -3.0253 -2.0599
  105MOL0     H14118   7.839   8.645   1.259  1.8552  0.4313 -2.5789
  105MOL0     H14119   7.666   8.674   1.245 -0.7747  1.8087  0.3492
  105MOL0     H14120   7.711   8.845   1.071 -2.5649 -2.4280  3.5003
  105MOL0     H14121   7.885   8.778   1.064  0.4905  0.3769 -2.1466
  105MOL0     H14122   7.815   8.607   0.954 -1.6976 -0.9577 -0.4608
  105MOL0     H14123   7.663   8.583   1.043 -0.1572 -1.6341 -1.5178
  105MOL0     H14124   7.730   8.751   0.801  1.4062 -2.2723  1.6639
  105MOL0     H14125   7.589   8.803   0.894 -0.4236 -0.7180  1.3092
  105MOL0     H14126   7.394   8.733   0.744 -0.2363 -0.1924  0.1584
  105MOL0     H14127   7.229   8.423   0.653 -0.3389 -2.5176 -1.9288
  105MOL0     H14128   7.250   8.580   0.580  3.5341  1.0171 -0.4674
  105MOL0     H14129   7.378   8.325   0.468  1.9468  1.2559  0.5823
  105MOL0     H14130   7.373   8.490   0.393 -0.0345  2.1950  2.1347
  105MOL0     H14131   7.207   8.373   0.283 -3.3344  1.2696 -0.6629
  105MOL0     H14132   7.145   8.503   0.372 -0.7064 -0.9958  0.3664
  105MOL0     H14133   7.027   8.373   0.520 -0.3974 -1.1957  0.6305
  105MOL0     H14134   7.123   8.230   0.520 -0.9979  1.2323  2.2280
  105MOL0     H14135   7.012   8.276   0.088 -0.1958 -0.1365  0.9273
  105MOL0     H14136   6.792   8.348  -0.137 -2.7753  3.3798 -0.5475
  105MOL0     H14137   6.854   8.500  -0.110  0.1977  1.4522  2.1796
  105MOL0     H14138   6.964   8.367  -0.094 -0.5751  1.5101 -1.1836
  105MOL0     H14139   6.658   8.743  -0.110 -0.2409  1.4834 -0.3259
  105MOL0     H14140   6.532   8.887  -0.257  0.6892 -1.1404 -2.5686
  105MOL0     H14141   6.333   9.003  -0.273  0.9997  0.0751  0.7152
  105MOL0     H14142   6.391   9.024  -0.436 -0.5097 -0.5888 -0.8452
  105MOL0     H14143   6.100   8.984  -0.376 -0.5529 -0.4512 -1.4932
  105MOL0     H14144   6.184   9.135  -0.416 -0.0121  0.5688  1.2866
  105MOL0     H14145   6.215   8.929  -0.641  0.3583  0.7822 -0.2671
  105MOL0     H14146   6.196   9.101  -0.638 -0.6102  1.9275  1.8824
  105MOL0     H14147   5.976   8.898  -0.577 -1.0469 -1.1749 -2.9300
  105MOL0     H14148   5.949   9.064  -0.567 -2.0656 -2.0947 -2.3469
  105MOL0     H14149   5.853   9.000  -0.762 -0.6968  0.7573  2.6257
  105MOL0     H14150   6.016   8.933  -0.818  0.6077 -0.7077  1.1215
  105MOL0     H14151   5.952   9.234  -0.755 -2.0942  2.0760 -2.8772
  105MOL0     H14152   6.098   9.176  -0.831  0.5211  1.0504  0.6748
  105MOL0     H14153   5.916   9.290  -0.965  0.2496 -0.8406 -1.3950
  105MOL0     H14154   5.810   9.150  -0.942 -0.2949  0.8554  3.8170
  105MOL0     H14155   5.927   9.119  -1.169 -0.7979  0.7152  0.9553
  105MOL0     H14156   6.039   9.038  -1.056  1.2639  0.2994  1.3560
  105MOL0     H14157   6.243   8.568  -0.321 -0.2531 -0.6130 -1.5885
  105MOL0     H14158   6.355   8.433  -0.157  0.8958 -0.7287 -1.9008
  105MOL0     H14159   6.616   8.430   0.345 -0.5473 -1.2359  0.1689
  105MOL0     H14160   6.815   8.324   0.452  0.8142 -3.5844 -1.3281
  105MOL0     H14161   7.469   8.833   1.717 -0.8067  0.6589 -1.6251
  105MOL0     H14162   7.255   8.849   1.828  1.4137 -0.1803 -0.6242
  105MOL0     H14163   6.930   8.931   1.893  1.9848  1.2931 -0.4768
  105MOL0     H14164   6.682   8.890   1.941 -1.6656  1.6299  0.1136
  105MOL0     H14165   6.355   9.071   2.164 -1.8026  2.3601  0.1482
  105MOL0     H14166   6.497   9.177   2.191 -1.0317  2.3526 -0.9304
  105MOL0     H14167   6.456   9.304   2.000  0.5562 -0.8338  0.5760
  105MOL0     H14168   6.301   9.300   2.081  3.0334  0.2207  4.5529
  105MOL0     H14169   6.375   9.145   1.833 -0.9436 -0.7108 -0.9828
  105MOL0     H14170   6.251   9.271   1.877  1.1318  0.4154  0.1692
  105MOL0     H14171   6.132   9.099   2.008 -0.0148  1.4763 -1.0040
  105MOL0     H14172   6.261   8.990   1.984  0.3440  0.7183  2.3774
  105MOL0     H14173   6.062   8.935   1.625  1.6965 -4.3837  2.1658
  105MOL0     H14174   6.640   9.292   2.084  0.3858  0.4738 -0.5380
  105MOL0     H14175   6.882   9.328   2.060  0.8511 -0.8825  1.2994
  106MOL0     O14176   4.174   7.855   1.586  0.0320 -0.8666 -0.0401
  106MOL0     C14177   4.273   7.820   1.647  0.8409 -0.0991  0.2340
  106MOL0     O14178   4.334   7.696   1.644 -0.4256 -0.4882  0.2329
  106MOL0     C14179   4.278   7.591   1.573 -0.3119 -0.5255  0.2315
  106MOL0     C14180   4.140   7.574   1.563  0.3161 -0.2972 -0.3147
  106MOL0     C14181   4.090   7.468   1.487  1.0471 -0.9377  1.1647
  106MOL0     C14182   4.178   7.380   1.424 -0.4409  0.4912  0.3693
  106MOL0     O14183   4.117   7.278   1.354  1.1457  0.1830  0.5174
  106MOL0     C14184   4.147   7.265   1.218 -1.2507  0.1370 -0.6816
  106MOL0     C14185   4.036   7.198   1.129  0.1323 -0.5625 -0.6376
  106MOL0     C14186   3.894   7.274   1.146 -0.6032  0.7131 -0.4889
  106MOL0     C14187   3.898   7.421   1.081  0.0821 -0.5166  0.7149
  106MOL0     C14188   3.772   7.511   1.127  0.1764 -0.4028  0.4543
  106MOL0     C14189   3.788   7.666   1.095  0.5664  0.1599  0.1605
  106MOL0     C14190   3.677   7.740   1.172 -0.3483  0.3079 -0.1208
  106MOL0     C14191   3.682   7.883   1.135  0.8853 -0.8631 -0.4241
  106MOL0     N14192   3.800   7.956   1.145  0.6847 -0.2145 -0.1846
  106MOL0     C14193   3.843   8.033   1.254  0.0118 -0.1483  0.3611
  106MOL0     C14194   3.966   8.069   1.218  0.1538 -1.0174  0.3743
  106MOL0     C14195   4.060   8.158   1.295 -0.5953  0.6472 -0.1964
  106MOL0     C14196   3.982   8.268   1.367  0.1384 -0.0259 -0.7545
  106MOL0     C14197   4.059   8.347   1.470  0.0507 -0.1486 -0.2033
  106MOL0     C14198   4.190   8.411   1.414  0.4765 -0.3750  1.0502
  106MOL0     O14199   4.244   8.502   1.513  0.3961 -0.5042  0.7178
  106MOL0     C14200   4.375   8.551   1.494 -0.5896  0.0859  0.4422
  106MOL0     C14201   4.429   8.627   1.601 -0.0500  0.3135  1.4264
  106MOL0     C14202   4.564   8.666   1.594  0.1254  0.9564  0.9842
  106MOL0     C14203   4.603   8.758   1.703  0.1789  0.6289  0.1128
  106MOL0     C14204   4.644   8.634   1.478 -0.1366 -0.1002 -0.0802
  106MOL0     C14205   4.790   8.658   1.470 -1.1755 -0.0135  0.7206
  106MOL0     O14206   4.861   8.566   1.396  0.6395 -0.3241 -0.3078
  106MOL0     C14207   5.000   8.565   1.403  0.1827 -0.0179  1.0207
  106MOL0     C14208   5.085   8.518   1.514 -0.2782 -0.1916  0.1815
  106MOL0     C14209   5.223   8.523   1.504 -0.1977  0.1963 -0.1584
  106MOL0     C14210   5.282   8.576   1.386  0.3442 -0.4258 -0.5786
  106MOL0     O14211   5.415   8.591   1.387 -0.8694 -0.0768 -0.6989
  106MOL0     C14212   5.486   8.586   1.265 -1.3043  0.2129  0.7734
  106MOL0     C14213   5.638   8.593   1.299  0.4464  0.5253  0.5985
  106MOL0     C14214   5.723   8.597   1.170  0.3381  0.4902 -0.3423
  106MOL0     C14215   5.698   8.472   1.078 -0.6855 -0.2682 -0.0634
  106MOL0     C14216   5.819   8.371   1.062 -0.4891 -0.0788  0.2396
  106MOL0     C14217   5.846   8.296   1.190 -0.4639 -0.1098 -0.0831
  106MOL0     C14218   5.932   8.174   1.166  0.7298 -0.4167 -0.1400
  106MOL0     C14219   5.947   8.086   1.291  0.1196 -0.5193 -0.9909
  106MOL0    Cl14220   6.040   8.194   1.409  0.1471  0.1822  0.1908
  106MOL0     C14221   5.206   8.637   1.289  0.3501  0.2132  0.1311
  106MOL0     C14222   5.065   8.634   1.294  0.2200 -0.4624 -1.3913
  106MOL0     O14223   4.836   8.763   1.512 -0.0310 -0.7328 -0.6733
  106MOL0     C14224   4.579   8.560   1.372  0.1763  0.4156  0.0641
  106MOL0     C14225   4.444   8.528   1.373 -0.4152  0.4714  1.1513
  106MOL0     N14226   3.980   8.046   1.085 -0.6249 -0.2267  0.8312
  106MOL0     N14227   3.879   7.972   1.036  0.2568 -0.4622 -0.3438
  106MOL0     C14228   4.314   7.397   1.427 -0.8948  0.3493 -0.0634
  106MOL0     C14229   4.364   7.517   1.488 -0.4406  0.4377  0.4868
  106MOL0     C14230   4.352   7.923   1.705 -0.1083 -0.4766 -1.2969
  106MOL0     C14231   4.327   8.064   1.674  0.6139  0.6892  0.0978
  106MOL0     C14232   4.403   8.169   1.728 -0.2818 -0.7159 -0.9473
  106MOL0     C14233   4.511   8.142   1.820 -0.2443  0.8716  0.6873
  106MOL0     O14234   4.606   8.232   1.864 -0.2783 -0.9468 -0.0683
  106MOL0     C14235   4.577   8.373   1.836 -0.4127  0.1512  0.7543
  106MOL0     C14236   4.674   8.454   1.916 -0.1442  0.0065  0.6344
  106MOL0     C14237   4.822   8.460   1.870 -0.5804  0.0800  0.0944
  106MOL0     C14238   4.900   8.593   1.912 -0.2103  0.4988  0.6056
  106MOL0     C14239   5.042   8.582   1.865  0.4456  0.6616 -0.0302
  106MOL0     C14240   5.164   8.570   1.838 -0.0683  0.7621 -0.0018
  106MOL0     C14241   4.545   8.002   1.839  0.5784  0.2754  0.7023
  106MOL0     C14242   4.465   7.896   1.786 -0.4607 -1.0908 -0.9816
  106MOL0     H14243   4.076   7.642   1.619 -0.9377  0.5605 -2.6368
  106MOL0     H14244   3.984   7.444   1.491  0.0820  2.6485 -0.0217
  106MOL0     H14245   4.182   7.355   1.168  0.0009 -0.3241 -0.6807
  106MOL0     H14246   4.235   7.200   1.210 -1.6860 -0.6511  0.6288
  106MOL0     H14247   4.062   7.187   1.024 -0.9205 -0.9732 -0.8734
  106MOL0     H14248   4.033   7.096   1.168  2.4973  0.1481  1.7153
  106MOL0     H14249   3.812   7.207   1.119  2.3336 -3.6845  0.5985
  106MOL0     H14250   3.871   7.288   1.253 -3.1531  0.4028 -0.9384
  106MOL0     H14251   3.990   7.473   1.108  1.8305 -1.7071 -2.3944
  106MOL0     H14252   3.906   7.411   0.972  0.0623  1.2860  0.5249
  106MOL0     H14253   3.678   7.468   1.090  1.0325 -1.6384 -0.4006
  106MOL0     H14254   3.776   7.505   1.236 -0.8604 -3.1452  0.4406
  106MOL0     H14255   3.884   7.700   1.133  0.9196  0.8809 -1.3033
  106MOL0     H14256   3.785   7.678   0.986 -0.9184 -0.2601  0.1347
  106MOL0     H14257   3.578   7.694   1.163 -1.1586  1.2596  2.7145
  106MOL0     H14258   3.692   7.734   1.281 -1.4612  0.9783  0.0896
  106MOL0     H14259   3.605   7.925   1.200  0.7786 -2.0330  0.2301
  106MOL0     H14260   3.648   7.893   1.032 -0.1705 -1.3903 -0.1373
  106MOL0     H14261   3.795   8.048   1.350 -1.6905 -0.3508 -0.4137
  106MOL0     H14262   4.107   8.097   1.373 -0.8244  2.1797  1.2031
  106MOL0     H14263   4.132   8.204   1.227  0.9409  0.8629  1.5200
  106MOL0     H14264   3.898   8.228   1.424  0.5237  0.1725 -0.0401
  106MOL0     H14265   3.925   8.338   1.304 -1.2453  3.2610  3.6124
  106MOL0     H14266   4.074   8.283   1.558 -0.5769 -1.2936 -0.9152
  106MOL0     H14267   3.997   8.426   1.514 -0.3047 -1.2100  1.2626
  106MOL0     H14268   4.179   8.444   1.311  0.3126 -0.2031  1.1213
  106MOL0     H14269   4.257   8.325   1.403  0.3562 -0.1833 -2.0079
  106MOL0     H14270   4.354   8.646   1.677 -0.8900 -2.2624  1.3524
  106MOL0     H14271   4.709   8.737   1.721 -0.1705 -2.3567 -0.6690
  106MOL0     H14272   4.601   8.860   1.664 -2.8548  0.2966 -0.9183
  106MOL0     H14273   4.555   8.749   1.801  0.1124 -0.7729 -0.0263
  106MOL0     H14274   5.032   8.478   1.600 -2.1738 -4.4786 -2.5959
  106MOL0     H14275   5.280   8.517   1.596  0.1470  0.2340 -0.3656
  106MOL0     H14276   5.445   8.495   1.220 -0.7917 -0.5470  1.7820
  106MOL0     H14277   5.467   8.671   1.199  1.4501  1.1935  1.1125
  106MOL0     H14278   5.651   8.691   1.346  3.4217  0.7113 -0.3573
  106MOL0     H14279   5.659   8.517   1.375  0.0682 -0.5397 -0.3330
  106MOL0     H14280   5.828   8.603   1.202  0.0657  0.2778  0.6054
  106MOL0     H14281   5.689   8.692   1.128 -0.6624  0.9230  1.3586
  106MOL0     H14282   5.608   8.411   1.092 -0.8102 -0.2930 -0.9080
  106MOL0     H14283   5.684   8.525   0.984  0.4112  0.0548 -0.0612
  106MOL0     H14284   5.914   8.418   1.034 -1.0386  1.0684  0.2152
  106MOL0     H14285   5.790   8.302   0.983 -1.4112  1.5890 -0.9514
  106MOL0     H14286   5.885   8.363   1.267 -2.9966 -0.7428  1.8959
  106MOL0     H14287   5.758   8.253   1.238 -1.2032  2.2122  0.7654
  106MOL0     H14288   6.037   8.198   1.145  1.4545  0.8253  3.9299
  106MOL0     H14289   5.901   8.115   1.080  1.0182 -0.9121  0.0921
  106MOL0     H14290   6.015   8.003   1.267  1.4609  0.5768 -1.0965
  106MOL0     H14291   5.858   8.043   1.339  1.0921 -1.6450 -0.1528
  106MOL0     H14292   5.247   8.699   1.210 -1.1327  0.5726 -0.3880
  106MOL0     H14293   5.003   8.676   1.216 -0.1514  2.3185  0.2801
  106MOL0     H14294   4.641   8.529   1.289  1.4095 -0.4263  1.2518
  106MOL0     H14295   4.406   8.479   1.284 -3.8880  0.8111  2.2970
  106MOL0     H14296   4.377   7.327   1.373 -0.3625  0.7314  0.0516
  106MOL0     H14297   4.470   7.533   1.471 -1.2392  2.7262 -3.6254
  106MOL0     H14298   4.243   8.088   1.610 -1.7301 -3.8457  1.1069
  106MOL0     H14299   4.372   8.268   1.697  0.2592 -0.7404 -1.6045
  106MOL0     H14300   4.594   8.400   1.731  0.0464  0.7125  0.9667
  106MOL0     H14301   4.480   8.407   1.874 -0.9090  0.7267 -0.9481
  106MOL0     H14302   4.687   8.412   2.016 -0.0893 -1.7691 -0.0879
  106MOL0     H14303   4.640   8.558   1.912 -0.6332 -0.1836 -1.5996
  106MOL0     H14304   4.831   8.449   1.761  2.1955  1.5003  0.1059
  106MOL0     H14305   4.869   8.371   1.913  2.5431  1.3155 -0.4821
  106MOL0     H14306   4.894   8.605   2.020 -1.8204 -0.6311  0.6664
  106MOL0     H14307   4.841   8.670   1.863  1.5582  0.8721 -1.0840
  106MOL0     H14308   5.270   8.558   1.834 -0.0347  0.5610  1.1353
  106MOL0     H14309   4.635   7.997   1.898 -1.3706 -2.2178  3.7833
  106MOL0     H14310   4.498   7.794   1.800 -0.5876 -1.3465 -2.3513
  107MOL0     O14311   0.457   8.681   0.518  0.4025  0.7965 -0.1077
  107MOL0     C14312   0.493   8.789   0.472  0.5788  0.0607  0.4696
  107MOL0     O14313   0.554   8.889   0.548 -0.2053  1.4851  0.9889
  107MOL0     C14314   0.566   8.873   0.679  0.5197  0.8638 -0.0180
  107MOL0     C14315   0.693   8.871   0.736  0.8945 -0.4946  0.4398
  107MOL0     C14316   0.705   8.865   0.872 -0.4383 -0.3493  0.0556
  107MOL0     C14317   0.593   8.866   0.959 -0.9031 -0.1453 -0.6375
  107MOL0     O14318   0.623   8.893   1.088  0.2781  0.2096  1.0806
  107MOL0     C14319   0.540   8.988   1.156  0.4008  0.5278  0.4464
  107MOL0     C14320   0.501   9.117   1.091  0.2545 -0.0979  0.4599
  107MOL0     C14321   0.494   9.227   1.197 -0.4728 -0.2113 -0.6587
  107MOL0     C14322   0.467   9.354   1.137  0.8071 -0.8327  0.9691
  107MOL0     C14323   0.532   9.470   1.209 -0.3253 -0.3793  0.9200
  107MOL0     C14324   0.451   9.503   1.334  0.8586 -0.4225 -0.2064
  107MOL0     C14325   0.508   9.616   1.410  0.0173 -0.1384 -0.1123
  107MOL0     C14326   0.399   9.663   1.508 -0.0493 -0.1323 -0.2899
  107MOL0     N14327   0.389   9.575   1.625  0.4387 -0.0131  0.9768
  107MOL0     C14328   0.290   9.480   1.622 -0.2172  0.6549 -0.0716
  107MOL0     C14329   0.315   9.407   1.735 -0.1813  0.0378  0.4488
  107MOL0     C14330   0.221   9.293   1.776 -1.1447 -0.7484  0.5412
  107MOL0     C14331   0.285   9.208   1.879 -0.6342  0.5510  0.0704
  107MOL0     C14332   0.206   9.078   1.902 -0.4857  0.3184  0.2315
  107MOL0     C14333   0.285   8.987   2.001  1.3490 -0.0434  0.6111
  107MOL0     O14334   0.187   8.883   2.029  0.2446 -0.3634 -0.7078
  107MOL0     C14335   0.236   8.762   2.068 -0.5115  0.9494  0.0970
  107MOL0     C14336   0.149   8.661   2.099  0.3447  0.5294 -0.6041
  107MOL0     C14337   0.198   8.539   2.156 -0.0915  0.0707  0.9722
  107MOL0     C14338   0.086   8.446   2.221  0.9625 -1.2920  0.5418
  107MOL0     C14339   0.342   8.509   2.167  0.4987  0.2168 -0.6422
  107MOL0     C14340   0.406   8.385   2.215  0.5049  0.5596  1.3202
  107MOL0     O14341   0.540   8.371   2.187  0.0039  0.1877 -0.7240
  107MOL0     C14342   0.587   8.248   2.219  0.8419  0.0925  0.3207
  107MOL0     C14343   0.599   8.213   2.346  0.4631 -0.5391 -0.2634
  107MOL0     C14344   0.661   8.098   2.395  0.2579  0.0626 -1.0880
  107MOL0     C14345   0.700   8.001   2.309 -0.2155  0.3420  0.1323
  107MOL0     O14346   0.753   7.883   2.362  0.0360  0.1149  0.3078
  107MOL0     C14347   0.807   7.787   2.271  0.3471  0.1741 -0.4282
  107MOL0     C14348   0.882   7.681   2.344 -0.6166 -0.1710 -0.5943
  107MOL0     C14349   0.803   7.618   2.452 -0.0330  0.2490 -0.4073
  107MOL0     C14350   0.687   7.546   2.389  0.0936  0.7960 -0.2336
  107MOL0     C14351   0.608   7.463   2.491  0.1893 -0.9105 -0.2177
  107MOL0     C14352   0.471   7.422   2.437 -0.3126 -0.2604 -0.3838
  107MOL0     C14353   0.464   7.347   2.312 -0.4090  0.3127 -0.4947
  107MOL0     C14354   0.327   7.298   2.277  0.1642 -0.2875 -0.5282
  107MOL0    Cl14355   0.186   7.407   2.318  0.1762  0.4398 -0.1609
  107MOL0     C14356   0.679   8.023   2.168 -0.2810  0.4666  0.5065
  107MOL0     C14357   0.618   8.141   2.127  0.3428 -0.1261 -0.2279
  107MOL0     O14358   0.335   8.323   2.295 -0.2556  0.5880  0.2244
  107MOL0     C14359   0.427   8.605   2.117 -0.1239  0.3417 -0.0864
  107MOL0     C14360   0.370   8.732   2.083 -1.4610  0.3956  0.6681
  107MOL0     N14361   0.428   9.450   1.793 -0.5303  0.8172  0.3002
  107MOL0     N14362   0.476   9.549   1.723  0.6544  0.4164  0.6396
  107MOL0     C14363   0.466   8.856   0.900  0.3992 -0.2685 -0.3703
  107MOL0     C14364   0.457   8.855   0.756 -0.1673 -0.7596 -1.1072
  107MOL0     C14365   0.474   8.809   0.320 -0.1758 -0.6154 -0.4160
  107MOL0     C14366   0.502   8.942   0.279  0.5647 -0.4798  0.3968
  107MOL0     C14367   0.499   8.967   0.135 -0.0275 -0.0895 -0.2422
  107MOL0     C14368   0.476   8.871   0.047 -0.2088 -1.0213 -0.4364
  107MOL0     O14369   0.450   8.889  -0.092  0.6720 -0.1887  0.4573
  107MOL0     C14370   0.483   9.006  -0.156  0.5995 -0.1280 -0.8135
  107MOL0     C14371   0.377   9.026  -0.268 -0.6515 -0.6822 -0.4631
  107MOL0     C14372   0.410   9.177  -0.323 -0.2665 -0.7749  0.7516
  107MOL0     C14373   0.419   9.176  -0.471 -0.0464  0.8374 -0.1672
  107MOL0     C14374   0.459   9.295  -0.538 -0.7463 -0.1151 -0.2470
  107MOL0     C14375   0.499   9.397  -0.585 -0.8395 -0.0616 -0.5142
  107MOL0     C14376   0.453   8.746   0.094 -0.0289  1.0392 -0.6849
  107MOL0     C14377   0.456   8.715   0.230 -0.8355  0.4704 -0.9262
  107MOL0     H14378   0.785   8.860   0.679  0.3394  1.2220 -0.8475
  107MOL0     H14379   0.809   8.860   0.904 -0.5913  1.2876  0.8787
  107MOL0     H14380   0.452   8.933   1.191  0.0643  2.7426  3.4908
  107MOL0     H14381   0.599   9.012   1.245  0.7715 -0.6256  0.5265
  107MOL0     H14382   0.571   9.154   1.015  1.8822  0.5329  2.1737
  107MOL0     H14383   0.400   9.109   1.049  0.0252  1.5510  0.6009
  107MOL0     H14384   0.439   9.191   1.285 -2.5807  1.8771 -1.0424
  107MOL0     H14385   0.598   9.230   1.231 -1.7829  0.9004  3.9578
  107MOL0     H14386   0.511   9.359   1.037  0.6031 -1.5622  0.8387
  107MOL0     H14387   0.361   9.376   1.122  1.0580  0.2219  0.6258
  107MOL0     H14388   0.629   9.444   1.253  0.3457 -2.4663 -1.5005
  107MOL0     H14389   0.534   9.559   1.146 -3.0815 -1.2207 -0.5435
  107MOL0     H14390   0.345   9.503   1.308  1.0559  1.5986 -1.1606
  107MOL0     H14391   0.459   9.413   1.396 -0.8706 -1.3904 -1.3011
  107MOL0     H14392   0.595   9.593   1.472 -1.2889 -0.9011  1.5187
  107MOL0     H14393   0.552   9.688   1.339 -1.0818 -0.5990 -1.3115
  107MOL0     H14394   0.300   9.670   1.461  0.2770 -0.4016 -1.0300
  107MOL0     H14395   0.419   9.765   1.542  0.0158  0.3004 -1.5753
  107MOL0     H14396   0.204   9.467   1.557  0.6736 -0.0751 -1.1201
  107MOL0     H14397   0.130   9.334   1.822  0.0147  0.5548  1.7643
  107MOL0     H14398   0.192   9.238   1.686  0.5871  1.0053 -1.1887
  107MOL0     H14399   0.302   9.254   1.976  0.8144  3.2944 -1.3719
  107MOL0     H14400   0.383   9.187   1.834 -1.0524 -1.6659  0.0587
  107MOL0     H14401   0.187   9.034   1.804 -0.0101 -1.6375  0.9630
  107MOL0     H14402   0.103   9.085   1.938 -0.0085  2.2236  1.3882
  107MOL0     H14403   0.322   9.030   2.094  0.7417 -0.2969  0.9759
  107MOL0     H14404   0.369   8.946   1.944  0.1542  0.4481 -1.6569
  107MOL0     H14405   0.041   8.662   2.090  0.0472 -5.2056 -0.9026
  107MOL0     H14406  -0.008   8.462   2.169  2.0018 -0.6776 -1.2556
  107MOL0     H14407   0.098   8.341   2.195  0.6131 -1.3402  0.5798
  107MOL0     H14408   0.085   8.465   2.329  2.5604  0.7592  0.2554
  107MOL0     H14409   0.578   8.287   2.423  1.2070  0.9403 -1.4302
  107MOL0     H14410   0.665   8.068   2.499  0.0580 -3.7640 -2.0507
  107MOL0     H14411   0.729   7.745   2.207 -0.2771 -2.3567  1.7853
  107MOL0     H14412   0.885   7.835   2.210  0.5953  0.6032  0.2109
  107MOL0     H14413   0.926   7.597   2.289  0.5050  0.2436 -0.3540
  107MOL0     H14414   0.962   7.734   2.396  0.3529 -1.0174 -1.1682
  107MOL0     H14415   0.770   7.701   2.515 -4.5933 -1.2547 -0.4325
  107MOL0     H14416   0.861   7.544   2.507 -3.2560 -0.7263  1.9712
  107MOL0     H14417   0.618   7.624   2.353 -0.1205 -0.0319 -1.6724
  107MOL0     H14418   0.708   7.484   2.301 -5.3437 -0.5168 -0.9761
  107MOL0     H14419   0.594   7.522   2.581  0.8824 -2.4655  0.9535
  107MOL0     H14420   0.664   7.371   2.511 -0.7154 -1.2429  0.8188
  107MOL0     H14421   0.433   7.346   2.507  0.2735  0.5385  0.8410
  107MOL0     H14422   0.394   7.496   2.460  0.4932  0.0679  1.4615
  107MOL0     H14423   0.532   7.262   2.318  0.9770  1.3750 -0.7069
  107MOL0     H14424   0.492   7.417   2.232  0.4687  3.3175  2.2343
  107MOL0     H14425   0.315   7.199   2.321  2.0256 -0.3733 -0.1389
  107MOL0     H14426   0.317   7.290   2.168  1.9895 -0.1626 -0.7376
  107MOL0     H14427   0.701   7.948   2.093  0.3132  1.7064 -0.6100
  107MOL0     H14428   0.601   8.154   2.020  0.4422 -2.3241 -0.5595
  107MOL0     H14429   0.535   8.594   2.110 -0.0381  0.5309  0.7868
  107MOL0     H14430   0.450   8.803   2.063 -0.2489 -0.4633  2.3275
  107MOL0     H14431   0.383   8.864   0.970  1.4980  3.3394  0.7319
  107MOL0     H14432   0.356   8.856   0.716 -1.3130 -0.2196  1.5512
  107MOL0     H14433   0.518   9.020   0.352 -1.2944 -1.6373  2.1474
  107MOL0     H14434   0.510   9.070   0.105 -1.9946  0.5227  1.0092
  107MOL0     H14435   0.478   9.096  -0.094  2.0944  1.8384 -3.3105
  107MOL0     H14436   0.580   9.015  -0.206  0.4317  0.1210 -1.0972
  107MOL0     H14437   0.273   9.021  -0.236 -0.7844  1.3617 -0.4369
  107MOL0     H14438   0.402   8.957  -0.348  1.9646 -0.5933  0.1770
  107MOL0     H14439   0.501   9.217  -0.277  3.6250  0.1253 -6.3141
  107MOL0     H14440   0.318   9.232  -0.300 -0.2871 -0.0383 -0.9308
  107MOL0     H14441   0.336   9.132  -0.527  1.3197  0.1034 -1.6861
  107MOL0     H14442   0.503   9.109  -0.488  1.3214  2.3084  0.4833
  107MOL0     H14443   0.548   9.488  -0.613 -1.5924  0.9154  1.2175
  107MOL0     H14444   0.424   8.672   0.020 -3.5980  1.5517  0.0074
  107MOL0     H14445   0.433   8.616   0.267  1.4527 -0.2385 -1.2750
  108MOL0     O14446   1.678   2.820   7.698 -0.1779 -0.5087  0.8809
  108MOL0     C14447   1.575   2.892   7.671  0.3921 -0.8100 -0.0990
  108MOL0     O14448   1.552   2.957   7.551 -0.1051 -0.1136  0.3409
  108MOL0     C14449   1.639   2.934   7.449 -0.6479 -0.0598 -0.4381
  108MOL0     C14450   1.729   3.045   7.420  1.1082  0.9708 -0.0892
  108MOL0     C14451   1.849   3.018   7.346 -0.0902 -0.5800  0.7520
  108MOL0     C14452   1.848   2.895   7.272  0.6976 -1.2950 -0.0234
  108MOL0     O14453   1.940   2.853   7.179  0.6184  0.3790 -1.1485
  108MOL0     C14454   2.033   2.943   7.118 -0.1309 -0.1363 -0.1203
  108MOL0     C14455   2.159   2.862   7.074 -0.4120  1.1583 -0.6723
  108MOL0     C14456   2.256   2.952   7.003  0.1501 -0.9365  0.2229
  108MOL0     C14457   2.391   2.891   6.957  0.8847  0.3780 -0.7930
  108MOL0     C14458   2.501   2.995   6.930 -0.9208  0.2228  0.1795
  108MOL0     C14459   2.648   2.939   6.945  0.1139  0.3673  0.9021
  108MOL0     C14460   2.668   2.841   6.825 -0.5784  1.1179 -0.0839
  108MOL0     C14461   2.818   2.794   6.820  0.0480  1.0957 -0.3973
  108MOL0     N14462   2.847   2.661   6.764  0.4219 -0.5075  0.7414
  108MOL0     C14463   2.809   2.546   6.827  0.4640  0.3273 -0.0079
  108MOL0     C14464   2.860   2.441   6.757  0.1619  0.0480 -0.5314
  108MOL0     C14465   2.851   2.306   6.812 -0.7157 -0.4896 -0.2144
  108MOL0     C14466   2.987   2.233   6.815 -0.3081 -0.3203 -1.2659
  108MOL0     C14467   3.079   2.304   6.920 -0.8751 -0.2977 -0.3125
  108MOL0     C14468   3.216   2.229   6.910 -0.2864  0.0110  0.9774
  108MOL0     O14469   3.284   2.242   6.779  0.3667  0.1693 -0.4386
  108MOL0     C14470   3.417   2.240   6.794  0.4985  0.1001 -0.4516
  108MOL0     C14471   3.475   2.121   6.840  0.8738 -0.3701 -0.7126
  108MOL0     C14472   3.613   2.106   6.826  0.6350  0.9714  0.6470
  108MOL0     C14473   3.661   1.969   6.863  0.2487  0.3714  0.0749
  108MOL0     C14474   3.686   2.207   6.757 -0.0028 -0.2513  0.0248
  108MOL0     C14475   3.831   2.191   6.719 -1.7690  0.2406 -0.1282
  108MOL0     O14476   3.885   2.298   6.661 -0.0127  0.0358  0.0521
  108MOL0     C14477   4.014   2.279   6.614  0.7860  0.1271  0.1927
  108MOL0     C14478   4.111   2.366   6.674  1.0871  0.0027  0.4317
  108MOL0     C14479   4.236   2.353   6.628 -0.4264  0.4825 -0.3410
  108MOL0     C14480   4.285   2.254   6.542 -1.0234  0.7736  0.9017
  108MOL0     O14481   4.418   2.230   6.503 -0.7069 -0.5270  0.2797
  108MOL0     C14482   4.501   2.228   6.627 -0.6310  0.1107  0.1109
  108MOL0     C14483   4.633   2.139   6.617  1.1553 -0.5056  0.7272
  108MOL0     C14484   4.720   2.139   6.743  0.6506 -0.2026  0.6808
  108MOL0     C14485   4.835   2.035   6.711 -0.2651 -0.0933 -0.7527
  108MOL0     C14486   4.949   2.039   6.813 -0.5467 -0.1449  1.2072
  108MOL0     C14487   5.004   2.175   6.837 -0.0629  0.1923  0.1234
  108MOL0     C14488   5.146   2.150   6.873 -0.8501 -0.8445  0.5626
  108MOL0     C14489   5.199   2.280   6.942 -0.0809  0.6079  0.6151
  108MOL0    Cl14490   5.108   2.320   7.086 -0.1851  0.0942  0.6277
  108MOL0     C14491   4.187   2.167   6.490  0.4888  0.2333  0.1667
  108MOL0     C14492   4.052   2.185   6.527 -0.8063 -0.1964 -0.3700
  108MOL0     O14493   3.884   2.077   6.718  0.4174 -0.0865  0.3323
  108MOL0     C14494   3.629   2.334   6.738  0.6617  0.4121  0.3205
  108MOL0     C14495   3.493   2.347   6.747  0.2950 -0.3859 -0.0009
  108MOL0     N14496   2.922   2.491   6.648  0.5856 -1.3076  0.4751
  108MOL0     N14497   2.932   2.626   6.665  0.3813 -0.0719  0.2399
  108MOL0     C14498   1.752   2.792   7.287  0.3005 -0.1150  0.2717
  108MOL0     C14499   1.654   2.816   7.384 -0.5034  0.4274  0.1590
  108MOL0     C14500   1.482   2.914   7.782 -1.0298 -1.3686  0.0527
  108MOL0     C14501   1.463   2.822   7.884  0.1508 -0.5837  0.7277
  108MOL0     C14502   1.359   2.830   7.977 -0.3106  0.0663  0.3121
  108MOL0     C14503   1.275   2.942   7.969  0.5345 -0.7022 -0.7149
  108MOL0     O14504   1.172   2.958   8.063  0.1858  0.5651  1.0949
  108MOL0     C14505   1.120   2.844   8.136  0.8609 -0.8118  0.0018
  108MOL0     C14506   1.169   2.857   8.275 -0.9470  0.0145 -0.4462
  108MOL0     C14507   1.149   2.729   8.347  0.7025 -0.1377  1.0514
  108MOL0     C14508   1.212   2.747   8.479 -0.3759 -0.5539 -0.6944
  108MOL0     C14509   1.201   2.623   8.558  0.4755  0.2781  0.1785
  108MOL0     C14510   1.192   2.512   8.592  0.2847 -0.0582  0.8503
  108MOL0     C14511   1.293   3.036   7.875  0.4431  0.3125  0.1725
  108MOL0     C14512   1.387   3.019   7.766  0.8629 -1.0588  0.1231
  108MOL0     H14513   1.711   3.132   7.481  0.1324  0.6259  0.1306
  108MOL0     H14514   1.935   3.084   7.343 -1.4192  1.2179 -0.0641
  108MOL0     H14515   1.987   2.985   7.028  1.0695  1.3437 -0.0882
  108MOL0     H14516   2.060   3.025   7.185 -2.0639  2.1246 -1.9208
  108MOL0     H14517   2.202   2.828   7.169 -0.7987  0.2071 -0.8383
  108MOL0     H14518   2.142   2.787   6.997  1.8746 -0.1277 -0.0094
  108MOL0     H14519   2.210   3.002   6.916  0.4718 -2.5545 -0.9246
  108MOL0     H14520   2.284   3.034   7.070  0.5267  1.0003 -2.1567
  108MOL0     H14521   2.427   2.820   7.032  2.1183 -0.1405 -1.8308
  108MOL0     H14522   2.372   2.836   6.864  0.4800  0.3707 -0.7065
  108MOL0     H14523   2.491   3.061   6.843 -0.5464  1.6398  1.1703
  108MOL0     H14524   2.503   3.064   7.015  2.6583 -0.9088  1.1920
  108MOL0     H14525   2.723   3.019   6.939 -1.5461  1.9306 -0.3095
  108MOL0     H14526   2.661   2.890   7.041  2.3711 -0.5567  0.1955
  108MOL0     H14527   2.604   2.754   6.837  0.5000  0.5551  2.0685
  108MOL0     H14528   2.652   2.897   6.732 -0.9574  2.0651  0.5250
  108MOL0     H14529   2.839   2.768   6.924 -0.2414 -1.2129 -0.8802
  108MOL0     H14530   2.876   2.872   6.770  0.6349 -1.0253 -3.2824
  108MOL0     H14531   2.746   2.552   6.915 -0.6034 -0.9020 -0.6349
  108MOL0     H14532   2.809   2.299   6.913 -1.4345 -3.6364 -0.6407
  108MOL0     H14533   2.780   2.250   6.751  0.0489 -0.6102 -0.9997
  108MOL0     H14534   3.047   2.244   6.724  2.0203 -1.3158  0.0622
  108MOL0     H14535   2.981   2.127   6.841  1.3836  0.2708  1.9573
  108MOL0     H14536   3.037   2.306   7.021 -0.8623  3.9237 -0.2230
  108MOL0     H14537   3.115   2.402   6.888  0.7171 -1.4837 -2.3877
  108MOL0     H14538   3.198   2.123   6.929 -1.1969 -0.0398 -0.0636
  108MOL0     H14539   3.285   2.269   6.985  1.6447  1.1708 -1.2532
  108MOL0     H14540   3.409   2.041   6.871  1.2316  0.0141  1.1252
  108MOL0     H14541   3.706   1.917   6.778  2.5530 -0.6103  1.7593
  108MOL0     H14542   3.736   1.962   6.943 -0.3629 -4.3768  0.5517
  108MOL0     H14543   3.579   1.911   6.906  0.8712  0.2568  1.1583
  108MOL0     H14544   4.078   2.426   6.758  1.7010  1.0292 -0.0362
  108MOL0     H14545   4.310   2.422   6.669 -0.6324 -0.2693  1.3703
  108MOL0     H14546   4.536   2.331   6.636  2.5292 -0.7500 -0.9158
  108MOL0     H14547   4.451   2.193   6.718 -0.9418  1.5495  0.5159
  108MOL0     H14548   4.597   2.037   6.599 -3.0055  0.3544  2.9413
  108MOL0     H14549   4.686   2.182   6.532 -1.6332 -0.0387 -0.9187
  108MOL0     H14550   4.671   2.118   6.838  1.6883  1.6863  1.6883
  108MOL0     H14551   4.758   2.241   6.753 -0.3010  0.1092  1.2178
  108MOL0     H14552   4.782   1.940   6.712 -3.5357  1.5782  0.1652
  108MOL0     H14553   4.881   2.061   6.615  0.6940  0.6815 -0.1068
  108MOL0     H14554   5.021   1.975   6.761 -1.8020  0.3625 -1.3084
  108MOL0     H14555   4.923   1.996   6.910 -1.8672 -2.7166 -0.1854
  108MOL0     H14556   5.004   2.247   6.755 -2.4574 -0.3206 -0.3993
  108MOL0     H14557   4.947   2.206   6.925  0.9501 -1.9739  1.6307
  108MOL0     H14558   5.198   2.135   6.778 -2.6029  1.4070 -0.8522
  108MOL0     H14559   5.145   2.075   6.952 -1.4360 -0.3000  1.0753
  108MOL0     H14560   5.190   2.363   6.871 -0.2472 -0.5107 -0.7146
  108MOL0     H14561   5.305   2.271   6.968 -0.0952  0.4198  0.6137
  108MOL0     H14562   4.209   2.092   6.416 -3.8544 -2.7028  1.4378
  108MOL0     H14563   3.980   2.123   6.474  0.0855 -2.6235  1.1365
  108MOL0     H14564   3.686   2.414   6.691 -1.0722  0.9306 -0.9812
  108MOL0     H14565   3.435   2.433   6.717  0.6759 -0.3886 -0.7845
  108MOL0     H14566   1.772   2.706   7.223 -0.5347 -0.1819  0.0921
  108MOL0     H14567   1.594   2.728   7.401 -0.4194  0.3095 -0.1433
  108MOL0     H14568   1.531   2.738   7.891  2.1349  0.5801 -2.3735
  108MOL0     H14569   1.351   2.745   8.043 -0.6315  0.7123  1.1219
  108MOL0     H14570   1.012   2.856   8.146  0.8149  0.0921 -1.2793
  108MOL0     H14571   1.144   2.751   8.083  2.3597  1.0935 -2.9290
  108MOL0     H14572   1.129   2.947   8.325  2.2284  2.3866 -1.8268
  108MOL0     H14573   1.275   2.883   8.279 -1.2621  1.5469  3.6368
  108MOL0     H14574   1.198   2.642   8.302  3.8180  0.6090  2.7493
  108MOL0     H14575   1.039   2.727   8.352  0.4941 -0.2172 -1.8569
  108MOL0     H14576   1.169   2.826   8.542  2.5353  1.8562 -1.4850
  108MOL0     H14577   1.320   2.762   8.466 -0.0394 -2.2359 -0.0976
  108MOL0     H14578   1.205   2.414   8.634 -0.1303 -1.1618 -1.4197
  108MOL0     H14579   1.234   3.126   7.887  0.7729  0.2803  2.2713
  108MOL0     H14580   1.394   3.096   7.689 -3.1629  1.2143  1.6807
  109MOL0     O14581   8.640   2.526   1.502  0.3171 -0.2056 -0.0260
  109MOL0     C14582   8.647   2.621   1.427 -0.3653 -0.6371  0.1460
  109MOL0     O14583   8.592   2.750   1.454 -0.8723 -0.1484  0.0926
  109MOL0     C14584   8.523   2.761   1.571 -1.3779  0.6566 -0.4661
  109MOL0     C14585   8.576   2.778   1.698 -0.1494  0.9269 -0.0240
  109MOL0     C14586   8.486   2.782   1.810  0.6380  0.4224 -0.1973
  109MOL0     C14587   8.347   2.771   1.799  0.5981 -0.5729 -0.2384
  109MOL0     O14588   8.277   2.774   1.916 -0.0653  0.1031  0.1910
  109MOL0     C14589   8.129   2.758   1.906  0.2238  1.0275  0.4743
  109MOL0     C14590   8.077   2.744   2.049 -0.6373  0.6354  1.1036
  109MOL0     C14591   8.087   2.598   2.096  0.4041 -0.3223  0.7751
  109MOL0     C14592   8.217   2.558   2.148 -0.3777 -0.1517 -0.5570
  109MOL0     C14593   8.198   2.421   2.227  0.0279 -0.5265 -0.2987
  109MOL0     C14594   8.282   2.397   2.348  0.1450  0.1004 -0.2039
  109MOL0     C14595   8.211   2.450   2.472 -0.3734 -0.0062 -0.1746
  109MOL0     C14596   8.286   2.415   2.616  0.3777 -0.2119  0.6251
  109MOL0     N14597   8.430   2.451   2.600  0.5942 -0.0434  0.4608
  109MOL0     C14598   8.536   2.366   2.630 -0.1899  0.3295 -0.0258
  109MOL0     C14599   8.640   2.453   2.618  0.5460 -0.7317  0.2285
  109MOL0     C14600   8.784   2.432   2.658  0.7264  0.4093 -0.9331
  109MOL0     C14601   8.894   2.472   2.560 -0.4384  0.0278  0.1187
  109MOL0     C14602   8.894   2.402   2.428 -0.5086  0.3744  0.1828
  109MOL0     C14603   9.029   2.419   2.344  0.2813 -1.0868 -1.3174
  109MOL0     O14604   9.037   2.321   2.235 -0.1508  0.2390 -0.4781
  109MOL0     C14605   9.153   2.299   2.170 -0.6987 -0.3188  0.3819
  109MOL0     C14606   9.274   2.374   2.194 -0.4786  0.6138  0.0706
  109MOL0     C14607   9.392   2.359   2.116 -0.0308 -0.1086 -0.2397
  109MOL0     C14608   9.503   2.447   2.127 -0.9213  1.0839  0.1735
  109MOL0     C14609   9.391   2.259   2.024  0.9159 -0.0556  1.0504
  109MOL0     C14610   9.502   2.221   1.936  0.8829 -0.8640  0.9813
  109MOL0     O14611   9.452   2.165   1.821  0.2583 -0.2434  0.6704
  109MOL0     C14612   9.531   2.156   1.708  0.0127  0.0236  0.1014
  109MOL0     C14613   9.503   2.041   1.627 -0.1208  0.2563  0.2837
  109MOL0     C14614   9.576   2.010   1.511 -0.3521 -0.6199  1.2712
  109MOL0     C14615   9.678   2.103   1.464  0.0546 -0.2611  0.1475
  109MOL0     O14616   9.748   2.087   1.346  0.3164 -0.2922  0.3401
  109MOL0     C14617   9.681   2.035   1.234  0.1676  0.2384 -0.8147
  109MOL0     C14618   9.750   1.906   1.179  0.5673  0.8155  0.4965
  109MOL0     C14619   9.717   1.790   1.271 -0.1067 -0.4248  1.0207
  109MOL0     C14620   9.779   1.664   1.212 -0.2724  0.9740 -0.7922
  109MOL0     C14621   9.731   1.545   1.293 -0.6854  0.6071  0.5153
  109MOL0     C14622   9.838   1.478   1.370 -0.3009  0.2159 -0.5109
  109MOL0     C14623   9.882   1.566   1.480  0.0537 -0.0381 -0.2331
  109MOL0     C14624   9.764   1.593   1.582 -0.1703 -0.0100 -0.1219
  109MOL0    Cl14625   9.835   1.655   1.723  0.2983  0.0389  0.2610
  109MOL0     C14626   9.694   2.223   1.537  0.0397  0.1919 -0.9688
  109MOL0     C14627   9.631   2.241   1.671 -0.2714 -0.0818 -0.2353
  109MOL0     O14628   9.618   2.240   1.962 -0.3587 -0.2463 -0.2706
  109MOL0     C14629   9.272   2.174   2.013  0.4737 -1.2047  0.0110
  109MOL0     C14630   9.158   2.187   2.090 -1.5057  1.1164 -0.3732
  109MOL0     N14631   8.592   2.583   2.587  0.4903 -0.5375  0.3998
  109MOL0     N14632   8.470   2.573   2.565 -0.3805  0.0338  0.0739
  109MOL0     C14633   8.302   2.745   1.672  0.0392 -0.1655 -0.1200
  109MOL0     C14634   8.385   2.739   1.563  0.1317 -0.6216 -0.7488
  109MOL0     C14635   8.722   2.621   1.297 -0.2830 -0.0597 -0.5164
  109MOL0     C14636   8.716   2.727   1.208 -0.7246 -0.1542  0.6658
  109MOL0     C14637   8.801   2.729   1.091  0.0065  0.0681 -0.4755
  109MOL0     C14638   8.876   2.623   1.056 -0.4433 -0.2029 -0.2858
  109MOL0     O14639   8.926   2.619   0.930  0.4774  0.0188 -0.1867
  109MOL0     C14640   9.067   2.576   0.911  0.0919 -0.5215 -0.1970
  109MOL0     C14641   9.079   2.420   0.875 -0.1038  0.0502 -0.2546
  109MOL0     C14642   8.989   2.381   0.760  0.3166  0.7741  0.0210
  109MOL0     C14643   8.999   2.228   0.730 -0.6451 -0.2021  0.2261
  109MOL0     C14644   8.871   2.169   0.718 -0.8640  0.6831  1.0985
  109MOL0     C14645   8.764   2.108   0.719  0.1969  0.3330 -0.8995
  109MOL0     C14646   8.876   2.517   1.150  0.4529  0.0103  0.5258
  109MOL0     C14647   8.817   2.525   1.273 -0.2582 -0.1903  0.5554
  109MOL0     H14648   8.683   2.794   1.702  0.2935 -1.0501 -1.9053
  109MOL0     H14649   8.513   2.815   1.909 -2.8212 -3.0948  2.2344
  109MOL0     H14650   8.086   2.847   1.858  1.8666  2.3437  1.3345
  109MOL0     H14651   8.108   2.667   1.850  3.6923  0.1133  0.4365
  109MOL0     H14652   8.144   2.802   2.114  2.1697  0.8129 -1.7261
  109MOL0     H14653   7.973   2.778   2.051  0.4001  4.3158  0.1967
  109MOL0     H14654   8.021   2.600   2.184 -1.6577  2.3170 -0.6594
  109MOL0     H14655   8.053   2.529   2.018  1.7661 -0.0171 -0.1166
  109MOL0     H14656   8.290   2.534   2.071  2.5736 -1.0594  2.2719
  109MOL0     H14657   8.269   2.643   2.194 -1.2247  1.5452 -2.5717
  109MOL0     H14658   8.091   2.403   2.244  0.0578 -2.3834 -1.7954
  109MOL0     H14659   8.214   2.335   2.161  1.8547 -0.8052  0.4499
  109MOL0     H14660   8.300   2.289   2.356 -0.0081  0.1237  0.6383
  109MOL0     H14661   8.380   2.443   2.331  0.4293  1.1210  3.2166
  109MOL0     H14662   8.218   2.558   2.465 -0.0587 -0.0672 -0.8485
  109MOL0     H14663   8.106   2.419   2.478 -0.1063 -1.4361 -1.9056
  109MOL0     H14664   8.259   2.318   2.658  0.3430  0.0193  1.1453
  109MOL0     H14665   8.244   2.485   2.690  1.2641 -0.0737  1.0256
  109MOL0     H14666   8.550   2.265   2.668  0.7449  0.4213 -0.1153
  109MOL0     H14667   8.798   2.491   2.749 -1.9277 -0.8081  0.3637
  109MOL0     H14668   8.791   2.330   2.696 -4.0444 -0.2968 -1.4169
  109MOL0     H14669   8.993   2.466   2.607  0.7718  3.8985 -1.5063
  109MOL0     H14670   8.883   2.580   2.549  0.7971 -0.0786 -2.8749
  109MOL0     H14671   8.804   2.423   2.368 -0.0052 -1.0793 -1.1664
  109MOL0     H14672   8.878   2.296   2.448 -0.8366  0.1825 -0.9841
  109MOL0     H14673   9.109   2.396   2.416  0.1545  3.1467  0.4438
  109MOL0     H14674   9.043   2.522   2.311 -0.3962 -0.5159  0.0925
  109MOL0     H14675   9.268   2.453   2.268 -2.8303 -0.4522  1.1189
  109MOL0     H14676   9.543   2.484   2.032  0.0514  3.7298  1.5097
  109MOL0     H14677   9.490   2.535   2.191  2.3840  1.7333  0.1503
  109MOL0     H14678   9.591   2.395   2.165 -0.5311 -0.0114 -2.0291
  109MOL0     H14679   9.422   1.974   1.655 -1.5217  1.2387 -1.2359
  109MOL0     H14680   9.549   1.923   1.453 -0.1534 -0.2780  0.6654
  109MOL0     H14681   9.575   2.017   1.252  0.4833 -1.6526 -0.6488
  109MOL0     H14682   9.685   2.118   1.163  3.8553  1.8974  1.0362
  109MOL0     H14683   9.710   1.895   1.078 -3.1497 -1.0722  1.9623
  109MOL0     H14684   9.859   1.914   1.178  0.7737 -1.1289  1.6419
  109MOL0     H14685   9.608   1.779   1.266 -0.0514 -1.3111  1.6890
  109MOL0     H14686   9.763   1.812   1.368  2.9219 -0.1572 -0.3646
  109MOL0     H14687   9.737   1.648   1.113  3.1157 -0.4606 -2.1648
  109MOL0     H14688   9.889   1.668   1.211  0.1810 -1.5837  4.4306
  109MOL0     H14689   9.713   1.473   1.213  3.9496  0.5680 -0.7874
  109MOL0     H14690   9.638   1.564   1.347 -2.3190 -0.6963 -1.6826
  109MOL0     H14691   9.806   1.382   1.413 -0.5853  1.0954  1.2957
  109MOL0     H14692   9.933   1.470   1.316  0.2908  0.5774  0.4614
  109MOL0     H14693   9.912   1.664   1.441 -0.1568  0.1092 -0.0245
  109MOL0     H14694   9.970   1.521   1.527  0.7020  0.0345 -1.3291
  109MOL0     H14695   9.710   1.500   1.600  1.2089 -0.7066  0.6628
  109MOL0     H14696   9.688   1.666   1.554 -0.2391 -0.7949 -2.1545
  109MOL0     H14697   9.767   2.301   1.522  1.6472 -0.3677  2.8051
  109MOL0     H14698   9.646   2.327   1.735 -1.0562  0.5964 -0.9272
  109MOL0     H14699   9.271   2.091   1.944  0.1424  1.1666 -3.0245
  109MOL0     H14700   9.088   2.104   2.083  0.5347 -0.5724 -2.0450
  109MOL0     H14701   8.200   2.720   1.643  0.5077  0.4042 -2.4699
  109MOL0     H14702   8.346   2.721   1.463 -0.4007  0.2709 -0.7104
  109MOL0     H14703   8.645   2.805   1.231 -0.4930 -0.0405  0.9961
  109MOL0     H14704   8.794   2.819   1.030  0.4355  2.3510  2.5878
  109MOL0     H14705   9.084   2.625   0.814  0.2885  0.3965  0.2915
  109MOL0     H14706   9.133   2.614   0.989  1.0893 -0.2993 -1.1275
  109MOL0     H14707   9.042   2.377   0.968  0.9263  3.2522  1.7942
  109MOL0     H14708   9.177   2.373   0.862 -0.7944 -1.6133  0.2092
  109MOL0     H14709   9.006   2.441   0.671  0.3452 -0.4413 -0.8183
  109MOL0     H14710   8.884   2.399   0.781 -1.0913 -3.0021 -2.6324
  109MOL0     H14711   9.058   2.176   0.805  3.1836  2.2902 -0.7536
  109MOL0     H14712   9.059   2.222   0.639 -0.5741  2.9148 -0.0416
  109MOL0     H14713   8.669   2.060   0.734  0.4748  0.0931  0.1940
  109MOL0     H14714   8.943   2.433   1.134  1.5207  0.3419  2.8577
  109MOL0     H14715   8.834   2.445   1.344 -1.2655 -0.9686 -0.0534
  110MOL0     O14716   6.811   0.585   3.372  0.3201  1.0860  0.7261
  110MOL0     C14717   6.696   0.557   3.400 -0.6247 -0.1021  0.3714
  110MOL0     O14718   6.606   0.514   3.305 -0.1097  1.1877  0.1938
  110MOL0     C14719   6.643   0.525   3.171 -0.2469 -0.0265 -0.3261
  110MOL0     C14720   6.760   0.475   3.113  0.4084 -0.1506 -0.3711
  110MOL0     C14721   6.796   0.515   2.984  0.4550  0.2545  0.0304
  110MOL0     C14722   6.699   0.580   2.900 -0.6398 -0.7512 -0.0785
  110MOL0     O14723   6.755   0.619   2.778  0.2355  0.3442  1.0423
  110MOL0     C14724   6.672   0.575   2.668 -0.4365 -0.4963  0.4509
  110MOL0     C14725   6.741   0.615   2.538 -0.9102 -0.6899  0.1670
  110MOL0     C14726   6.654   0.579   2.427  0.4790  0.2797  0.1615
  110MOL0     C14727   6.700   0.652   2.303 -0.3285  0.3540 -0.2975
  110MOL0     C14728   6.624   0.634   2.167 -0.2778 -0.1655 -0.5282
  110MOL0     C14729   6.668   0.512   2.091 -0.5550  1.0432 -0.4222
  110MOL0     C14730   6.797   0.535   2.021 -0.5163  0.0770 -0.0069
  110MOL0     C14731   6.856   0.406   1.949  0.7624  0.0986  0.6167
  110MOL0     N14732   6.894   0.299   2.044  1.3109 -0.3446 -0.3627
  110MOL0     C14733   6.812   0.196   2.077 -0.4380 -0.6044 -0.1801
  110MOL0     C14734   6.879   0.140   2.177 -0.3784 -0.0895 -0.9477
  110MOL0     C14735   6.816   0.027   2.261 -1.1660 -0.7458  0.4314
  110MOL0     C14736   6.718   0.094   2.358  0.1255  0.4462  0.8406
  110MOL0     C14737   6.778   0.176   2.484 -0.0611  0.7923  0.1683
  110MOL0     C14738   6.674   0.178   2.597  0.9774  0.4018  0.4042
  110MOL0     O14739   6.733   0.202   2.726  0.7194 -0.4313  0.1539
  110MOL0     C14740   6.746   0.112   2.819  1.5687 -0.2698 -0.4430
  110MOL0     C14741   6.822   0.162   2.931  0.0008  0.3834  1.0372
  110MOL0     C14742   6.856   0.081   3.044  1.1561 -0.4442  0.0782
  110MOL0     C14743   6.952   0.139   3.138  0.0152 -0.3035  0.3875
  110MOL0     C14744   6.805  -0.049   3.047  0.7425  0.1045  0.3434
  110MOL0     C14745   6.831  -0.154   3.161 -0.2817  0.0054  0.7797
  110MOL0     O14746   6.947  -0.148   3.234 -0.4447 -0.4294  0.7884
  110MOL0     C14747   6.953  -0.222   3.346  0.4708  0.6756 -1.1876
  110MOL0     C14748   7.012  -0.351   3.343 -0.1108  0.3511  0.8004
  110MOL0     C14749   7.050  -0.417   3.457  0.0253  0.2054  0.2601
  110MOL0     C14750   7.026  -0.360   3.581 -0.6218  0.2044  0.1789
  110MOL0     O14751   7.071  -0.426   3.694  0.1592  0.2037 -0.2234
  110MOL0     C14752   6.987  -0.536   3.735  1.0652  0.0119  0.4297
  110MOL0     C14753   7.084  -0.641   3.768  0.0229 -0.1762 -0.6453
  110MOL0     C14754   7.019  -0.783   3.789  0.5809 -0.1591 -0.9302
  110MOL0     C14755   7.059  -0.877   3.675 -0.4752 -0.4676  0.0767
  110MOL0     C14756   6.980  -1.004   3.659  0.9607 -0.3227  0.9230
  110MOL0     C14757   7.049  -1.134   3.623 -0.1836  0.5754 -0.2609
  110MOL0     C14758   7.145  -1.189   3.739 -0.4617 -0.1043 -0.4146
  110MOL0     C14759   7.277  -1.237   3.688 -0.8585 -0.6612  0.0410
  110MOL0    Cl14760   7.281  -1.357   3.549 -0.2612 -0.0970  0.0738
  110MOL0     C14761   6.965  -0.232   3.588  0.5570  0.1459 -0.5973
  110MOL0     C14762   6.916  -0.168   3.472 -0.0180  0.1665 -0.4723
  110MOL0     O14763   6.743  -0.238   3.190 -0.1894  0.0389  0.3198
  110MOL0     C14764   6.707  -0.088   2.951 -0.0625 -1.0641  0.1842
  110MOL0     C14765   6.687  -0.009   2.838  0.0754 -1.1186 -0.1451
  110MOL0     N14766   7.000   0.213   2.215 -0.2474 -0.3426 -0.1102
  110MOL0     N14767   7.002   0.301   2.125 -0.1175 -0.0187  0.1914
  110MOL0     C14768   6.579   0.625   2.957 -0.0756  0.0715 -0.3577
  110MOL0     C14769   6.555   0.600   3.096 -0.3002 -0.3094  0.1523
  110MOL0     C14770   6.659   0.570   3.542  0.1445  0.7529 -0.4524
  110MOL0     C14771   6.755   0.618   3.636 -0.2403 -0.3840  0.2184
  110MOL0     C14772   6.728   0.635   3.770 -0.1153  1.3151  0.3576
  110MOL0     C14773   6.598   0.596   3.817 -0.8329 -0.5117 -0.6516
  110MOL0     O14774   6.549   0.601   3.946  0.0034  0.5985  0.3616
  110MOL0     C14775   6.625   0.661   4.047 -0.4695 -0.0642  0.5505
  110MOL0     C14776   6.552   0.654   4.179  0.0366 -0.2450 -1.6690
  110MOL0     C14777   6.456   0.768   4.205 -0.4326  0.3583 -1.4138
  110MOL0     C14778   6.371   0.754   4.327  0.4295  0.2077 -0.8259
  110MOL0     C14779   6.447   0.791   4.452  0.4819 -0.5041 -0.1593
  110MOL0     C14780   6.497   0.815   4.559 -0.1084  0.6552 -0.3061
  110MOL0     C14781   6.504   0.546   3.725  0.3588 -0.7425  0.7602
  110MOL0     C14782   6.533   0.537   3.586 -0.5525  0.6288  0.2336
  110MOL0     H14783   6.833   0.423   3.175  0.7410 -0.0418 -0.6691
  110MOL0     H14784   6.896   0.492   2.948 -0.9313 -0.9865 -3.4492
  110MOL0     H14785   6.664   0.466   2.673 -1.3219 -0.3818  2.2519
  110MOL0     H14786   6.569   0.611   2.673 -1.6323 -3.7127  2.0359
  110MOL0     H14787   6.748   0.724   2.536  2.2755 -0.6727 -4.2003
  110MOL0     H14788   6.846   0.584   2.535 -0.3920  0.9921 -0.0573
  110MOL0     H14789   6.656   0.471   2.412 -3.1056  0.4759 -4.1167
  110MOL0     H14790   6.550   0.606   2.450 -1.5753 -2.6921 -4.2556
  110MOL0     H14791   6.694   0.760   2.317  0.6521  1.0618 -4.1353
  110MOL0     H14792   6.804   0.620   2.293 -1.8059 -5.5563 -0.7622
  110MOL0     H14793   6.518   0.647   2.188 -0.1176  1.0626 -0.4237
  110MOL0     H14794   6.653   0.713   2.097  1.3056 -0.3319 -0.1019
  110MOL0     H14795   6.664   0.426   2.159  0.3558  1.7206  0.5103
  110MOL0     H14796   6.595   0.509   2.009 -2.3033  0.4501  1.0785
  110MOL0     H14797   6.789   0.611   1.942 -3.5169 -1.1103 -1.0026
  110MOL0     H14798   6.876   0.563   2.091  0.4819  0.0605 -1.0988
  110MOL0     H14799   6.937   0.430   1.879  0.5961 -0.4433  0.2279
  110MOL0     H14800   6.769   0.372   1.891  0.9218 -0.6296  0.7890
  110MOL0     H14801   6.720   0.169   2.024 -0.1795 -1.1232 -0.3715
  110MOL0     H14802   6.773  -0.048   2.193  2.1440 -0.8806 -1.7624
  110MOL0     H14803   6.894  -0.027   2.316  0.4063 -0.6084 -1.5446
  110MOL0     H14804   6.659   0.015   2.405 -2.0475  1.7087  0.3739
  110MOL0     H14805   6.651   0.168   2.313  1.6411  1.4400  0.1267
  110MOL0     H14806   6.813   0.275   2.454 -2.6770  2.3376  1.8098
  110MOL0     H14807   6.860   0.117   2.527 -0.6128  0.2252  0.4585
  110MOL0     H14808   6.612   0.088   2.604  2.2800 -0.8095 -2.1702
  110MOL0     H14809   6.604   0.261   2.581  0.0668 -0.3707  0.2530
  110MOL0     H14810   6.864   0.262   2.930  2.6874 -0.6442 -0.0652
  110MOL0     H14811   7.049   0.118   3.092 -0.8783 -0.1157 -1.7014
  110MOL0     H14812   6.927   0.245   3.132 -0.9221 -0.5968 -2.4402
  110MOL0     H14813   6.940   0.095   3.237 -1.4012 -2.5699 -0.7098
  110MOL0     H14814   7.023  -0.398   3.245  2.0278 -1.4971  1.8475
  110MOL0     H14815   7.091  -0.518   3.457  1.5939  0.7714 -1.8454
  110MOL0     H14816   6.923  -0.513   3.820 -2.4956 -0.9442 -1.7732
  110MOL0     H14817   6.919  -0.563   3.654  1.5993 -3.0164  0.8790
  110MOL0     H14818   7.173  -0.663   3.709 -0.1192 -1.2852 -0.4788
  110MOL0     H14819   7.115  -0.607   3.867  0.1232 -1.1782 -0.3129
  110MOL0     H14820   6.911  -0.770   3.786  0.6634  0.4274 -1.5304
  110MOL0     H14821   7.044  -0.825   3.887 -0.2268  1.6042  0.0874
  110MOL0     H14822   7.055  -0.829   3.576  0.3706 -3.0059 -1.2919
  110MOL0     H14823   7.163  -0.901   3.698 -0.4604  1.0513  1.7670
  110MOL0     H14824   6.903  -0.995   3.582  0.7675 -0.9939  1.0235
  110MOL0     H14825   6.924  -1.013   3.752 -3.1300  2.3863 -1.0099
  110MOL0     H14826   6.981  -1.217   3.604 -2.7533  1.5278  3.6164
  110MOL0     H14827   7.104  -1.097   3.536  1.8381  0.8363  1.0774
  110MOL0     H14828   7.104  -1.273   3.797 -1.1515  0.9851  0.7323
  110MOL0     H14829   7.151  -1.111   3.816 -2.3094  1.8053 -2.0829
  110MOL0     H14830   7.324  -1.293   3.770  0.8220  0.6190  0.0058
  110MOL0     H14831   7.338  -1.148   3.672  1.9645 -2.1818  1.4887
  110MOL0     H14832   6.948  -0.183   3.683 -2.3304 -1.1892 -0.3233
  110MOL0     H14833   6.859  -0.075   3.469 -0.0599  0.1402 -3.6951
  110MOL0     H14834   6.651  -0.180   2.963 -0.6816 -0.6840  0.2683
  110MOL0     H14835   6.630  -0.054   2.758 -0.9721 -0.9777  0.5129
  110MOL0     H14836   6.514   0.681   2.890  2.6565  3.1113 -0.6930
  110MOL0     H14837   6.472   0.651   3.145  1.4156  2.9347 -0.0393
  110MOL0     H14838   6.857   0.642   3.606  0.1800 -0.4711  1.5105
  110MOL0     H14839   6.798   0.667   3.846 -1.7861  4.4378  0.7185
  110MOL0     H14840   6.715   0.599   4.051 -0.3578  0.0705  0.2169
  110MOL0     H14841   6.662   0.760   4.020 -2.4136  0.3920 -0.6329
  110MOL0     H14842   6.629   0.659   4.257 -0.4027 -1.1961 -1.1597
  110MOL0     H14843   6.493   0.564   4.198  1.1117 -0.5375  0.6615
  110MOL0     H14844   6.400   0.775   4.111 -1.8226  1.1126 -0.5617
  110MOL0     H14845   6.521   0.856   4.215  1.0095 -0.8476  0.3988
  110MOL0     H14846   6.323   0.656   4.337 -0.7815  0.6965 -1.7181
  110MOL0     H14847   6.283   0.818   4.319 -0.1918 -0.4209  0.5659
  110MOL0     H14848   6.555   0.808   4.648  1.8472  0.3562 -1.5384
  110MOL0     H14849   6.408   0.506   3.754 -0.0956 -0.7830 -0.7268
  110MOL0     H14850   6.461   0.496   3.517 -3.1485  2.2149  1.8382
  111MOL0     O14851   5.259   0.004  10.726 -0.2020 -0.3396 -0.3482
  111MOL0     C14852   5.212   0.025  10.840  0.6017 -0.9139 -0.0702
  111MOL0     O14853   5.216   0.154  10.906  0.3528  0.5290  1.1576
  111MOL0     C14854   5.271   0.264  10.844 -0.3654  0.0140 -0.2647
  111MOL0     C14855   5.401   0.263  10.790 -0.9237 -0.1471 -0.9169
  111MOL0     C14856   5.472   0.384  10.767  0.5408  0.2750  0.5442
  111MOL0     C14857   5.411   0.507  10.779 -0.8264  0.3446  0.3829
  111MOL0     O14858   5.483   0.615  10.734  0.0665  0.6083 -0.1503
  111MOL0     C14859   5.419   0.739  10.718 -0.9680 -0.2428  1.2212
  111MOL0     C14860   5.537   0.836  10.683 -0.3807 -0.1075 -0.2493
  111MOL0     C14861   5.613   0.805  10.548  0.4669  0.8658 -0.2235
  111MOL0     C14862   5.766   0.798  10.553  0.9194  0.1185 -0.7611
  111MOL0     C14863   5.838   0.929  10.571  0.4979  0.5561  1.5572
  111MOL0     C14864   5.990   0.923  10.583  1.2282  0.2345 -0.9332
  111MOL0     C14865   6.062   0.854  10.470 -0.3988  0.5167 -0.0451
  111MOL0     C14866   6.219   0.860  10.493  0.8787 -0.7877  0.7214
  111MOL0     N14867   6.261   0.774  10.602 -0.7189  0.2445 -0.6024
  111MOL0     C14868   6.268   0.636  10.618  0.0744 -0.3192  0.9671
  111MOL0     C14869   6.332   0.615  10.733 -0.0505 -0.4797  0.4406
  111MOL0     C14870   6.360   0.480  10.790 -0.1277  0.3905  0.5258
  111MOL0     C14871   6.231   0.384  10.774  0.2575 -0.5594  0.5141
  111MOL0     C14872   6.261   0.239  10.784 -0.2385  0.4990  0.9675
  111MOL0     C14873   6.140   0.151  10.767  0.6107 -0.0462  0.0470
  111MOL0     O14874   6.022   0.178  10.859 -0.5553  0.2334  1.2473
  111MOL0     C14875   5.934   0.084  10.869  0.7485  0.3654 -0.4700
  111MOL0     C14876   5.824   0.108  10.965  0.5504  0.7523  0.1910
  111MOL0     C14877   5.726   0.011  10.973  0.3181  0.7114 -0.1853
  111MOL0     C14878   5.622   0.040  11.074 -0.1338 -1.8549 -0.5602
  111MOL0     C14879   5.712  -0.104  10.888 -0.0438 -0.7871 -0.2584
  111MOL0     C14880   5.598  -0.202  10.889  0.4150  0.1417 -0.3577
  111MOL0     O14881   5.623  -0.319  10.835 -0.7293 -0.8718  0.1561
  111MOL0     C14882   5.536  -0.415  10.824  0.8887  0.2913  0.8877
  111MOL0     C14883   5.520  -0.468  10.699 -0.0112 -0.3653  0.7295
  111MOL0     C14884   5.418  -0.566  10.687 -0.0656 -0.0317  0.9118
  111MOL0     C14885   5.347  -0.617  10.796  0.1364 -0.3976 -1.1826
  111MOL0     O14886   5.286  -0.730  10.780  0.1517  0.3119  0.8197
  111MOL0     C14887   5.201  -0.778  10.880  0.0334 -0.2376 -0.6314
  111MOL0     C14888   5.102  -0.869  10.811 -0.5097  0.4607  0.1916
  111MOL0     C14889   5.034  -0.952  10.918 -0.1239 -0.7682  1.0551
  111MOL0     C14890   4.915  -1.029  10.866  0.2663  1.1134 -0.4394
  111MOL0     C14891   4.852  -1.120  10.974  0.3728 -0.5215  0.4482
  111MOL0     C14892   4.696  -1.141  10.947 -0.5255 -0.5228 -0.1451
  111MOL0     C14893   4.594  -1.025  10.975  0.1565  0.1763  0.0955
  111MOL0     C14894   4.588  -0.969  11.112 -0.7757 -0.1942  1.3514
  111MOL0    Cl14895   4.526  -1.089  11.227  0.0661  0.1522  0.4256
  111MOL0     C14896   5.352  -0.556  10.918 -1.1508  0.5146 -0.0272
  111MOL0     C14897   5.452  -0.461  10.933 -0.2140  0.0650  0.6296
  111MOL0     O14898   5.486  -0.151  10.899  0.1853  0.2397  0.1929
  111MOL0     C14899   5.815  -0.116  10.784  0.1512  0.0409 -0.0370
  111MOL0     C14900   5.920  -0.023  10.779 -0.1750 -0.7039 -0.5795
  111MOL0     N14901   6.350   0.734  10.805 -0.6883  0.0779 -0.0139
  111MOL0     N14902   6.302   0.826  10.724 -0.0265 -0.3897 -0.5674
  111MOL0     C14903   5.278   0.507  10.828 -1.3704  0.3595 -0.7246
  111MOL0     C14904   5.211   0.388  10.858  0.0353 -0.9865 -0.8521
  111MOL0     C14905   5.141  -0.076  10.909 -0.2742 -0.1302 -0.8182
  111MOL0     C14906   5.120  -0.201  10.859 -0.2421 -1.0585 -0.5882
  111MOL0     C14907   5.086  -0.305  10.946  0.8514 -0.2455 -0.7430
  111MOL0     C14908   5.061  -0.283  11.085  0.8373  0.3815 -0.5256
  111MOL0     O14909   5.033  -0.389  11.164  0.0276 -0.0603  0.2236
  111MOL0     C14910   5.031  -0.362  11.297 -0.3127 -0.1019 -0.8819
  111MOL0     C14911   5.009  -0.498  11.370 -0.5199  0.0621 -0.0281
  111MOL0     C14912   4.892  -0.567  11.310 -0.9634 -0.3127  0.3687
  111MOL0     C14913   4.833  -0.698  11.378  0.2066 -1.1606  0.2472
  111MOL0     C14914   4.732  -0.673  11.484 -0.8816 -1.4990 -0.2279
  111MOL0     C14915   4.641  -0.673  11.569 -0.5274  0.2926  0.4935
  111MOL0     C14916   5.058  -0.147  11.117  0.0487 -0.1074  0.1460
  111MOL0     C14917   5.103  -0.046  11.038  0.4919  0.0238 -0.5345
  111MOL0     H14918   5.441   0.162  10.781  0.3695  0.1531  0.8624
  111MOL0     H14919   5.571   0.365  10.729  0.3770  1.1639 -0.3791
  111MOL0     H14920   5.334   0.732  10.649 -1.4400  1.1329  1.6428
  111MOL0     H14921   5.378   0.776  10.812  0.4468  3.0826  0.6805
  111MOL0     H14922   5.487   0.933  10.668  2.6251  1.2932 -2.2292
  111MOL0     H14923   5.608   0.831  10.765  1.1392  1.7708 -1.3519
  111MOL0     H14924   5.581   0.703  10.529  0.4687 -0.1937  4.4254
  111MOL0     H14925   5.587   0.865  10.460  1.0113  1.2460 -0.1351
  111MOL0     H14926   5.809   0.735  10.632 -0.4644 -1.0275 -0.8773
  111MOL0     H14927   5.790   0.750  10.458  0.4279 -3.3567  0.6970
  111MOL0     H14928   5.812   0.998  10.490 -1.3315 -0.8338  0.9054
  111MOL0     H14929   5.795   0.967  10.664  1.2860 -1.0079  2.6164
  111MOL0     H14930   6.032   1.023  10.599  1.1228  0.0106  1.0578
  111MOL0     H14931   6.016   0.867  10.674  4.7796  0.3287 -1.7554
  111MOL0     H14932   6.015   0.755  10.461 -0.0395  0.4536 -1.4737
  111MOL0     H14933   6.052   0.914  10.379  1.3237 -0.7744 -1.1540
  111MOL0     H14934   6.248   0.960  10.527 -1.4521  0.6319 -1.1554
  111MOL0     H14935   6.275   0.850  10.400 -0.0159  3.9672 -0.5925
  111MOL0     H14936   6.231   0.574  10.537  1.0108 -0.6994  0.8198
  111MOL0     H14937   6.439   0.428  10.734 -3.2095 -2.6776 -1.3210
  111MOL0     H14938   6.388   0.497  10.895  3.1768  2.3554 -0.4944
  111MOL0     H14939   6.171   0.400  10.684  0.0624  0.8810  0.8716
  111MOL0     H14940   6.169   0.407  10.861 -0.0783  2.8906 -0.4612
  111MOL0     H14941   6.302   0.219  10.884 -1.7483  2.7613  2.1427
  111MOL0     H14942   6.342   0.232  10.711 -0.3529 -0.9150  0.9544
  111MOL0     H14943   6.178   0.050  10.783 -0.2710 -0.5668 -0.9730
  111MOL0     H14944   6.099   0.173  10.668  0.8231 -0.8876 -0.2298
  111MOL0     H14945   5.812   0.189  11.036 -1.3166 -1.2881  2.3871
  111MOL0     H14946   5.668   0.088  11.161 -2.0756 -4.5377  2.1925
  111MOL0     H14947   5.546   0.110  11.036  0.4734 -0.0306  1.4128
  111MOL0     H14948   5.572  -0.051  11.109 -1.2418 -0.7991  0.7285
  111MOL0     H14949   5.582  -0.436  10.616 -1.2584  2.8671  0.9226
  111MOL0     H14950   5.393  -0.618  10.595 -2.6439  1.2534  0.7764
  111MOL0     H14951   5.249  -0.841  10.955 -1.3059 -1.0020 -0.3708
  111MOL0     H14952   5.141  -0.697  10.925 -0.1340 -0.9945  0.5655
  111MOL0     H14953   5.023  -0.817  10.756 -0.4759  0.8094  0.4697
  111MOL0     H14954   5.152  -0.932  10.737 -0.8196 -0.1116  0.4581
  111MOL0     H14955   4.997  -0.885  10.996 -1.9274 -2.1799  1.4772
  111MOL0     H14956   5.108  -1.024  10.957  1.0137  0.3083  0.9543
  111MOL0     H14957   4.834  -0.960  10.846 -0.9693 -0.4883 -1.1767
  111MOL0     H14958   4.958  -1.087  10.783  1.7132  0.7526  0.5140
  111MOL0     H14959   4.873  -1.068  11.068  2.2303  1.0664 -0.7682
  111MOL0     H14960   4.903  -1.215  10.988  3.8279  1.1168  0.1018
  111MOL0     H14961   4.695  -1.161  10.839  1.6145 -0.2764 -0.2470
  111MOL0     H14962   4.660  -1.231  10.997  0.7916 -0.0241  1.8297
  111MOL0     H14963   4.494  -1.063  10.953  1.7034 -2.4138 -3.4600
  111MOL0     H14964   4.614  -0.950  10.898  0.7821 -1.1559 -1.0808
  111MOL0     H14965   4.540  -0.871  11.107  1.6954  1.0673  0.6096
  111MOL0     H14966   4.687  -0.938  11.147  0.4613  0.2314 -2.1454
  111MOL0     H14967   5.297  -0.586  11.007 -0.7371 -0.8751 -0.2141
  111MOL0     H14968   5.471  -0.414  11.029 -0.9031 -1.9705  1.8218
  111MOL0     H14969   5.816  -0.202  10.719 -0.1947  0.9165 -1.2301
  111MOL0     H14970   5.999  -0.032  10.706  0.8936  4.3181 -0.3951
  111MOL0     H14971   5.234   0.603  10.855 -2.0206 -0.2921  0.5993
  111MOL0     H14972   5.111   0.369  10.895 -0.8609 -0.8696 -3.0418
  111MOL0     H14973   5.138  -0.217  10.753  3.3485 -0.7008 -0.1773
  111MOL0     H14974   5.079  -0.394  10.884 -1.7193  0.6448 -1.8931
  111MOL0     H14975   5.121  -0.317  11.339 -1.7435  0.7423  1.4249
  111MOL0     H14976   4.950  -0.291  11.317  0.2559  0.0585  0.9746
  111MOL0     H14977   4.996  -0.463  11.473 -0.7428  2.4842 -0.8249
  111MOL0     H14978   5.104  -0.547  11.348  0.1796  2.1911 -2.2212
  111MOL0     H14979   4.919  -0.593  11.207 -0.8635 -0.1284  0.3486
  111MOL0     H14980   4.811  -0.493  11.307  0.0095  0.8985  2.0081
  111MOL0     H14981   4.917  -0.763  11.405  3.7128  3.4946  2.0391
  111MOL0     H14982   4.771  -0.750  11.305 -1.4011  1.1908 -0.1668
  111MOL0     H14983   4.560  -0.680  11.638 -0.6796 -0.9996  0.2230
  111MOL0     H14984   5.030  -0.116  11.217 -1.8243 -0.5350 -0.2129
  111MOL0     H14985   5.106   0.052  11.085 -5.7837 -0.5655  2.0881
  112MOL0     O14986  11.213   8.609   3.480 -0.3812  0.3932  0.3358
  112MOL0     C14987  11.196   8.697   3.393  0.1512 -0.2826  0.1634
  112MOL0     O14988  11.076   8.723   3.326 -0.2158 -0.7467  0.2570
  112MOL0     C14989  10.963   8.685   3.388  0.0383 -0.6550  0.2086
  112MOL0     C14990  10.867   8.616   3.308  0.4345  0.0121 -0.5272
  112MOL0     C14991  10.738   8.595   3.361 -0.5109 -0.1286  0.1384
  112MOL0     C14992  10.705   8.634   3.482  0.1293 -0.5050 -1.1294
  112MOL0     O14993  10.579   8.597   3.524  0.0704 -0.5780 -0.1141
  112MOL0     C14994  10.500   8.692   3.596  0.0542  0.3693 -0.0890
  112MOL0     C14995  10.360   8.669   3.536  0.5497  0.4546 -0.1175
  112MOL0     C14996  10.254   8.779   3.565 -0.0392  0.6064  0.0306
  112MOL0     C14997  10.182   8.797   3.699  0.1398 -0.4910 -0.6286
  112MOL0     C14998  10.050   8.862   3.686  0.3216  0.7177  0.3387
  112MOL0     C14999   9.983   8.871   3.820 -1.4293  0.9092  0.2644
  112MOL0     C15000   9.836   8.902   3.809 -0.2644 -0.4861 -1.1214
  112MOL0     C15001   9.755   8.871   3.938 -0.0086  0.5555 -0.5621
  112MOL0     N15002   9.802   8.953   4.054 -0.3855  0.8009  0.4510
  112MOL0     C15003   9.812   9.087   4.058  0.0154 -0.1551  0.4018
  112MOL0     C15004   9.865   9.117   4.171 -0.1566 -0.7588 -0.9283
  112MOL0     C15005   9.897   9.260   4.206 -0.0604  0.0482  0.5086
  112MOL0     C15006  10.005   9.296   4.305 -0.4092 -1.3618 -0.9059
  112MOL0     C15007  10.076   9.424   4.247  0.7562 -1.1123 -0.8832
  112MOL0     C15008   9.984   9.560   4.249 -0.8020  0.0307 -0.4637
  112MOL0     O15009   9.882   9.551   4.147 -0.3180  0.4480 -0.3611
  112MOL0     C15010   9.758   9.584   4.187 -0.6946 -0.2462 -0.7222
  112MOL0     C15011   9.684   9.632   4.089 -0.0582 -0.1462  0.4630
  112MOL0     C15012   9.553   9.669   4.091 -0.7025 -0.4438 -0.6106
  112MOL0     C15013   9.488   9.721   3.973 -1.7462  0.0425  0.4181
  112MOL0     C15014   9.494   9.654   4.227 -0.1340 -0.2486 -0.5411
  112MOL0     C15015   9.354   9.698   4.272  0.2311  0.3028  0.4628
  112MOL0     O15016   9.348   9.768   4.388  0.1962  0.5758  0.3851
  112MOL0     C15017   9.236   9.848   4.413 -0.3266 -0.0569 -0.7231
  112MOL0     C15018   9.195   9.868   4.553 -0.0420 -0.3761  0.3768
  112MOL0     C15019   9.081   9.954   4.575  0.6326 -0.7179 -0.7642
  112MOL0     C15020   9.019  10.024   4.473  1.1522 -0.3769 -0.8571
  112MOL0     O15021   8.940  10.128   4.503 -0.0706  0.3452 -0.5943
  112MOL0     C15022   8.886  10.225   4.409  0.4232  0.4183  0.7419
  112MOL0     C15023   8.804  10.336   4.477  0.8298  0.0959  0.1318
  112MOL0     C15024   8.896  10.428   4.559  0.7640  1.1091  0.0713
  112MOL0     C15025   8.864  10.408   4.708 -0.7153 -0.9129  0.4538
  112MOL0     C15026   8.947  10.516   4.791 -0.3166 -0.2658  0.0355
  112MOL0     C15027   8.903  10.518   4.933 -0.7592  0.1723  0.5640
  112MOL0     C15028   8.757  10.537   4.969 -0.3323 -0.0008 -0.8396
  112MOL0     C15029   8.734  10.570   5.115 -0.3092 -0.6702 -0.3317
  112MOL0    Cl15030   8.746  10.428   5.224  0.0179  0.3725 -0.1758
  112MOL0     C15031   9.062  10.000   4.337 -0.1965  0.9631 -0.8330
  112MOL0     C15032   9.172   9.918   4.311  0.1378 -0.2909 -0.2499
  112MOL0     O15033   9.258   9.663   4.204  0.8660  0.6638 -0.2620
  112MOL0     C15034   9.560   9.586   4.326  0.3408 -0.0053  0.4781
  112MOL0     C15035   9.697   9.546   4.306 -0.3946 -0.2695  0.3670
  112MOL0     N15036   9.866   9.006   4.255 -0.9549 -0.4768  0.2047
  112MOL0     N15037   9.829   8.911   4.185 -0.4848  0.6586 -0.4201
  112MOL0     C15038  10.797   8.692   3.577 -0.0188  0.0630  0.1036
  112MOL0     C15039  10.921   8.736   3.516  1.2061  0.2456  0.1254
  112MOL0     C15040  11.319   8.760   3.331 -0.2917 -0.0211 -0.0686
  112MOL0     C15041  11.443   8.732   3.386  0.6056  0.0187 -0.1681
  112MOL0     C15042  11.561   8.777   3.318  1.0144 -0.2707  0.8786
  112MOL0     C15043  11.545   8.851   3.195  0.3611  0.6736 -0.1049
  112MOL0     O15044  11.670   8.882   3.144 -0.8645  0.1655 -0.5223
  112MOL0     C15045  11.667   8.932   3.012 -0.1574 -0.2596 -0.0126
  112MOL0     C15046  11.805   8.926   2.946  0.1715 -0.2510 -0.2424
  112MOL0     C15047  11.917   9.002   3.010  0.0105 -0.6488 -0.1262
  112MOL0     C15048  12.051   8.969   2.946 -0.2202 -0.2866  0.5015
  112MOL0     C15049  12.138   9.076   2.981 -0.7990 -0.0219 -0.6164
  112MOL0     C15050  12.226   9.163   2.997 -0.0728  0.4048  1.2024
  112MOL0     C15051  11.419   8.904   3.157  0.0404  0.0154  0.1470
  112MOL0     C15052  11.299   8.857   3.225  0.6182 -0.4624 -0.1354
  112MOL0     H15053  10.889   8.577   3.210  0.1088 -0.7901 -0.2856
  112MOL0     H15054  10.659   8.547   3.304 -2.0900 -1.4624  3.1863
  112MOL0     H15055  10.512   8.670   3.703  0.2917  1.5017  0.1301
  112MOL0     H15056  10.525   8.797   3.579  0.9725  0.1379 -0.2015
  112MOL0     H15057  10.377   8.665   3.428  0.1766  1.9785 -0.2675
  112MOL0     H15058  10.311   8.577   3.566 -0.2820  0.7867 -0.4263
  112MOL0     H15059  10.293   8.873   3.526  2.1259 -0.9006 -1.6784
  112MOL0     H15060  10.175   8.759   3.492  0.8184  0.8466 -0.9866
  112MOL0     H15061  10.172   8.698   3.746  1.0307 -0.8506 -1.1605
  112MOL0     H15062  10.251   8.854   3.762  1.6606 -0.9972 -1.7895
  112MOL0     H15063  10.048   8.966   3.652 -3.1531  1.0078  1.0348
  112MOL0     H15064   9.991   8.816   3.606  1.9402  0.2841 -0.6347
  112MOL0     H15065   9.986   8.772   3.865  0.3620  0.0960 -1.4863
  112MOL0     H15066  10.028   8.946   3.886 -0.4963  1.3480 -0.8182
  112MOL0     H15067   9.819   9.006   3.783 -1.8106 -0.6383 -0.8509
  112MOL0     H15068   9.792   8.843   3.728 -1.3954  0.6136 -1.3406
  112MOL0     H15069   9.769   8.767   3.969 -5.3135 -1.4002 -3.5065
  112MOL0     H15070   9.647   8.874   3.926 -0.0129 -0.9656 -1.1462
  112MOL0     H15071   9.785   9.165   3.988  1.6042 -0.3705 -0.4987
  112MOL0     H15072   9.926   9.310   4.114 -2.9770  2.0065  0.5432
  112MOL0     H15073   9.800   9.295   4.243  0.1390 -0.2753  1.3801
  112MOL0     H15074  10.079   9.221   4.334  0.7995  0.5676  1.3041
  112MOL0     H15075   9.957   9.329   4.398  2.8461  2.6841 -0.3416
  112MOL0     H15076  10.122   9.414   4.148  3.4149  2.3057 -0.1744
  112MOL0     H15077  10.153   9.446   4.321 -2.1278 -3.3178  3.1204
  112MOL0     H15078  10.040   9.649   4.219  0.3883 -0.2676  0.7723
  112MOL0     H15079   9.939   9.588   4.345 -1.3197  2.4201 -1.3331
  112MOL0     H15080   9.733   9.630   3.992  0.1006 -2.4801  0.5339
  112MOL0     H15081   9.550   9.720   3.884 -1.4750  1.4564  0.5786
  112MOL0     H15082   9.397   9.665   3.947  0.0602 -1.3446 -3.6354
  112MOL0     H15083   9.450   9.823   3.984 -2.5798 -0.1568 -0.4396
  112MOL0     H15084   9.237   9.811   4.635 -0.4814 -1.3211 -0.0423
  112MOL0     H15085   9.054   9.973   4.678  1.2597 -3.5555  0.0145
  112MOL0     H15086   8.977  10.269   4.367  2.2273 -0.2211  3.7145
  112MOL0     H15087   8.818  10.175   4.340 -0.3275 -0.4331  2.0588
  112MOL0     H15088   8.741  10.390   4.406 -0.5018  0.0663  1.2665
  112MOL0     H15089   8.734  10.295   4.550  1.1443 -3.0374 -1.1597
  112MOL0     H15090   8.883  10.532   4.528  3.6300  2.6696  3.4957
  112MOL0     H15091   8.993  10.388   4.531 -0.1321  0.2917 -2.0636
  112MOL0     H15092   8.763  10.444   4.729 -0.2000  0.4906  0.6243
  112MOL0     H15093   8.870  10.306   4.747 -1.2216 -2.6547 -3.5311
  112MOL0     H15094   8.954  10.618   4.750 -1.6433  0.1982  0.9125
  112MOL0     H15095   9.046  10.470   4.791 -0.2609 -0.1580 -0.5132
  112MOL0     H15096   8.943  10.429   4.982  2.6134  0.9243 -0.5237
  112MOL0     H15097   8.977  10.584   4.979  0.6819 -2.9671  3.1307
  112MOL0     H15098   8.700  10.444   4.963  0.5704 -0.9135  2.5089
  112MOL0     H15099   8.710  10.604   4.897 -1.7614  0.4868  0.4908
  112MOL0     H15100   8.637  10.617   5.133  0.7508  0.3990  3.6725
  112MOL0     H15101   8.801  10.650   5.148 -0.9523 -1.1560  2.3800
  112MOL0     H15102   9.029  10.060   4.253  2.6210 -0.1638 -2.8845
  112MOL0     H15103   9.204   9.914   4.208  1.5335 -0.2617  0.1627
  112MOL0     H15104   9.510   9.579   4.422 -0.0912 -1.3134  0.1913
  112MOL0     H15105   9.765   9.499   4.377  0.5074  0.0940 -0.2439
  112MOL0     H15106  10.764   8.718   3.677 -3.5330  0.3736 -0.9960
  112MOL0     H15107  11.004   8.781   3.569  3.8068 -1.5480 -2.0974
  112MOL0     H15108  11.456   8.677   3.478  1.8593 -1.0994 -0.9696
  112MOL0     H15109  11.655   8.745   3.361  1.2536 -1.4341 -0.4294
  112MOL0     H15110  11.605   8.862   2.955 -1.3616  0.1268  0.7767
  112MOL0     H15111  11.630   9.035   3.012 -0.4403 -0.3585 -0.1776
  112MOL0     H15112  11.789   8.983   2.854 -1.0745  2.8892  1.7570
  112MOL0     H15113  11.823   8.818   2.944  0.1875 -0.2425 -0.6236
  112MOL0     H15114  11.912   8.980   3.117 -1.2522 -2.5394 -0.5353
  112MOL0     H15115  11.893   9.108   2.998 -3.4132 -0.9682  2.4482
  112MOL0     H15116  12.047   8.969   2.837  1.4513 -0.3208  0.4213
  112MOL0     H15117  12.094   8.877   2.987  0.6991  0.7815  2.0534
  112MOL0     H15118  12.297   9.241   3.012  1.3915 -0.7146  0.2919
  112MOL0     H15119  11.402   8.966   3.070  1.0530  1.8703  1.2138
  112MOL0     H15120  11.206   8.893   3.181  0.5206 -1.2831 -0.6269
  113MOL0     O15121   9.690  10.248   3.376  0.8683  0.0219  1.0830
  113MOL0     C15122   9.708  10.374   3.373 -0.7706  0.3762 -0.4061
  113MOL0     O15123   9.810  10.436   3.303  0.0249  1.0032  0.0910
  113MOL0     C15124   9.861  10.372   3.205 -0.7401 -0.5783  0.9737
  113MOL0     C15125   9.932  10.247   3.226 -0.1096  0.2316 -0.7867
  113MOL0     C15126  10.000  10.185   3.112  0.7931 -0.2745  0.0347
  113MOL0     C15127   9.997  10.248   2.988  0.0834  1.1199 -0.4787
  113MOL0     O15128  10.059  10.186   2.879  0.3738 -0.4105 -0.7441
  113MOL0     C15129   9.972  10.113   2.795 -0.1609 -0.3915  0.0650
  113MOL0     C15130  10.057  10.042   2.692  0.0879 -0.7081 -0.0189
  113MOL0     C15131   9.975   9.932   2.614  0.2386 -1.0070  0.5078
  113MOL0     C15132  10.071   9.825   2.565  0.3046  1.0868 -0.0629
  113MOL0     C15133  10.063   9.706   2.673  0.9978 -0.0173  0.1305
  113MOL0     C15134  10.153   9.591   2.628  0.2720  1.0497 -0.3099
  113MOL0     C15135  10.106   9.509   2.504  0.2969  0.2938  0.3431
  113MOL0     C15136  10.216   9.404   2.481 -0.2011 -0.7978 -0.2514
  113MOL0     N15137  10.187   9.325   2.365  0.4993  0.2103  0.1592
  113MOL0     C15138  10.106   9.221   2.364  0.6438  1.5292  0.4226
  113MOL0     C15139  10.139   9.147   2.256  0.0522  1.5165 -0.7145
  113MOL0     C15140  10.085   9.014   2.214  0.2705  0.9705  0.1405
  113MOL0     C15141   9.934   8.995   2.242  0.1625 -0.3401 -0.0546
  113MOL0     C15142   9.849   9.107   2.177  0.9067 -0.8128 -0.0324
  113MOL0     C15143   9.872   9.136   2.025  0.1429  0.8697 -0.8718
  113MOL0     O15144   9.848   9.010   1.959  0.3147 -0.4524 -0.3109
  113MOL0     C15145   9.868   8.998   1.825  0.1042  0.7025 -0.9968
  113MOL0     C15146   9.886   9.104   1.738 -0.4911 -0.5277 -0.0688
  113MOL0     C15147   9.920   9.073   1.604  0.0722 -0.5630 -0.5500
  113MOL0     C15148   9.952   9.191   1.513  0.2853 -0.5006  1.1091
  113MOL0     C15149   9.924   8.938   1.558 -0.6874  0.3225 -0.9501
  113MOL0     C15150   9.959   8.889   1.425  0.1067 -0.2901  0.4136
  113MOL0     O15151  10.003   8.980   1.330 -0.4192  0.5994 -0.2991
  113MOL0     C15152  10.042   8.936   1.204 -0.1145  0.1542  0.7396
  113MOL0     C15153  10.172   8.878   1.171  0.5432 -1.1249 -0.0133
  113MOL0     C15154  10.191   8.810   1.048  0.3963  0.2119  0.7203
  113MOL0     C15155  10.097   8.812   0.950 -0.0770 -0.0928 -0.4147
  113MOL0     O15156  10.120   8.771   0.823  0.8170 -0.1153  0.8716
  113MOL0     C15157  10.232   8.838   0.766 -0.7356 -0.3244  0.5416
  113MOL0     C15158  10.221   8.825   0.618 -0.0916 -0.1715 -0.4545
  113MOL0     C15159  10.084   8.855   0.568  0.4585 -0.2118  0.2643
  113MOL0     C15160  10.069   8.798   0.422  1.2701 -0.2803  0.1007
  113MOL0     C15161   9.925   8.804   0.383  1.2046 -0.4590  0.8229
  113MOL0     C15162   9.894   8.942   0.312 -1.3093  0.7298  0.3612
  113MOL0     C15163   9.779   8.930   0.216 -0.1806 -0.8224  0.6992
  113MOL0     C15164   9.732   9.076   0.180  0.7831  0.6339 -0.3060
  113MOL0    Cl15165   9.616   9.059   0.035  0.5160  0.3211 -0.0570
  113MOL0     C15166   9.976   8.880   0.971 -0.3007  0.5030  0.0782
  113MOL0     C15167   9.949   8.940   1.098 -0.0804 -0.2078 -0.2605
  113MOL0     O15168   9.930   8.772   1.399  0.9820 -0.6162 -0.6455
  113MOL0     C15169   9.908   8.836   1.656 -1.1507 -0.1954 -0.4997
  113MOL0     C15170   9.878   8.863   1.785 -0.0656  0.1057  0.2913
  113MOL0     N15171  10.231   9.227   2.187  0.4758  0.6844 -0.4626
  113MOL0     N15172  10.250   9.334   2.250 -0.3175  0.1636 -0.0091
  113MOL0     C15173   9.926  10.364   2.974 -0.3426 -0.8039  0.7416
  113MOL0     C15174   9.867  10.429   3.080  0.3371 -0.3779  0.3809
  113MOL0     C15175   9.637  10.468   3.456 -0.0417 -0.0452  0.6988
  113MOL0     C15176   9.545  10.419   3.548 -0.3054 -0.1478  0.7509
  113MOL0     C15177   9.479  10.497   3.632 -0.2507  0.2457 -0.8774
  113MOL0     C15178   9.503  10.632   3.628  0.4689 -0.0677 -0.8305
  113MOL0     O15179   9.449  10.718   3.724 -0.4830 -0.2280 -0.3977
  113MOL0     C15180   9.420  10.861   3.704  0.5718  0.6001  0.2440
  113MOL0     C15181   9.490  10.933   3.821  0.4737  0.7161  0.2154
  113MOL0     C15182   9.642  10.941   3.795  1.4072 -0.4292 -0.0229
  113MOL0     C15183   9.674  11.065   3.718 -0.1892 -0.1137 -0.4507
  113MOL0     C15184   9.660  11.055   3.565  0.0162 -0.1972 -0.6788
  113MOL0     C15185   9.645  11.045   3.449 -0.6593  0.9377 -0.4823
  113MOL0     C15186   9.590  10.690   3.534 -0.8125  0.1067  0.4969
  113MOL0     C15187   9.665  10.604   3.449 -0.3219  0.1775  0.8202
  113MOL0     H15188   9.932  10.200   3.324  0.3159 -0.5161 -1.1354
  113MOL0     H15189  10.036  10.085   3.131 -1.2217 -1.5487 -2.3175
  113MOL0     H15190   9.905  10.049   2.854 -0.8804 -0.3618 -0.6975
  113MOL0     H15191   9.893  10.166   2.742 -0.6797 -3.1095 -2.1266
  113MOL0     H15192  10.105  10.112   2.624 -0.0275  1.2726  1.8367
  113MOL0     H15193  10.129   9.986   2.752  0.1632 -3.7917 -2.7283
  113MOL0     H15194   9.893   9.879   2.663 -1.2596 -2.2668 -2.9912
  113MOL0     H15195   9.927   9.974   2.524  0.5891  4.5862  2.5161
  113MOL0     H15196  10.028   9.775   2.477  0.9324 -2.9461  1.6839
  113MOL0     H15197  10.172   9.866   2.559  0.4394  0.5863 -2.0336
  113MOL0     H15198  10.090   9.755   2.767  3.0888  1.4766 -1.1584
  113MOL0     H15199   9.961   9.673   2.696  1.1140  0.5672  1.5483
  113MOL0     H15200  10.258   9.621   2.618 -0.2490  3.5629  0.9356
  113MOL0     H15201  10.162   9.529   2.718  0.7009  1.1126 -0.3057
  113MOL0     H15202  10.004   9.470   2.509  0.0638  0.8076 -0.1621
  113MOL0     H15203  10.120   9.580   2.421  1.3755  3.6057  3.1085
  113MOL0     H15204  10.235   9.347   2.573  2.3913  1.6348  0.8561
  113MOL0     H15205  10.312   9.455   2.468  0.8092 -1.8662  2.2474
  113MOL0     H15206  10.024   9.194   2.429 -0.1191 -0.9727 -1.4331
  113MOL0     H15207  10.117   8.994   2.111  2.5777  2.0080  0.6009
  113MOL0     H15208  10.129   8.944   2.286 -2.4433  0.9103  1.8977
  113MOL0     H15209   9.919   8.985   2.350  4.3141  0.7403  0.8020
  113MOL0     H15210   9.910   8.897   2.200 -3.0817  0.4293 -0.2249
  113MOL0     H15211   9.870   9.197   2.234  1.5323 -0.3996 -0.8913
  113MOL0     H15212   9.745   9.080   2.197  1.4907 -1.7379  2.0723
  113MOL0     H15213   9.978   9.165   2.022 -0.5731  4.2915  1.3304
  113MOL0     H15214   9.802   9.212   1.989 -0.8023 -0.3621 -1.7089
  113MOL0     H15215   9.895   9.204   1.777  2.1254 -0.7008 -0.0436
  113MOL0     H15216  10.043   9.186   1.452  0.3925  2.8010  0.8234
  113MOL0     H15217   9.870   9.198   1.441 -0.8285 -1.2587  2.2613
  113MOL0     H15218   9.967   9.274   1.583  2.4788 -2.4745  3.1834
  113MOL0     H15219  10.248   8.889   1.248 -1.8898  2.1115  2.1960
  113MOL0     H15220  10.291   8.772   1.037  1.1002  1.3832  2.5652
  113MOL0     H15221  10.230   8.945   0.787  0.7231 -0.2084  0.1943
  113MOL0     H15222  10.329   8.800   0.800  0.0534  2.2843  1.3742
  113MOL0     H15223  10.285   8.889   0.556 -1.7623 -0.4040 -2.5497
  113MOL0     H15224  10.252   8.720   0.608  0.2480 -0.4934  2.9467
  113MOL0     H15225  10.067   8.963   0.564  3.0081  0.2279 -1.7437
  113MOL0     H15226  10.011   8.798   0.625  0.2174 -1.4344 -1.2024
  113MOL0     H15227  10.132   8.849   0.349  0.1349 -2.4862 -2.6438
  113MOL0     H15228  10.089   8.690   0.421  3.7993  0.0861  1.8386
  113MOL0     H15229   9.869   8.789   0.476  2.1405 -0.0921  1.4567
  113MOL0     H15230   9.895   8.730   0.308 -0.5121 -2.2026  3.0770
  113MOL0     H15231   9.895   9.029   0.379  0.3765  1.9141 -1.0881
  113MOL0     H15232   9.971   8.961   0.236 -2.5123 -1.3641 -1.4813
  113MOL0     H15233   9.701   8.867   0.259 -1.1490 -2.3925 -2.9654
  113MOL0     H15234   9.817   8.883   0.125 -2.0755  1.6195 -1.4976
  113MOL0     H15235   9.815   9.145   0.163  2.6103 -1.1741  0.7766
  113MOL0     H15236   9.676   9.107   0.268  2.7061  1.6390  0.6352
  113MOL0     H15237   9.906   8.876   0.888 -0.4254 -1.1171  0.2219
  113MOL0     H15238   9.849   8.977   1.117 -1.3528 -3.7908  0.7849
  113MOL0     H15239   9.919   8.730   1.635 -2.1086 -0.4370  0.1444
  113MOL0     H15240   9.864   8.784   1.859  0.2737  0.5176  0.8019
  113MOL0     H15241   9.919  10.408   2.876  0.7867 -2.2982 -0.0529
  113MOL0     H15242   9.815  10.521   3.057  0.7276 -0.3212 -0.3209
  113MOL0     H15243   9.519  10.314   3.560 -2.3127  0.5866  3.9916
  113MOL0     H15244   9.399  10.462   3.696  1.1436  1.8798  1.9875
  113MOL0     H15245   9.441  10.898   3.603 -0.8506 -1.0251 -0.7019
  113MOL0     H15246   9.314  10.877   3.721  0.7177  1.1814  0.6299
  113MOL0     H15247   9.469  10.876   3.912  1.6472  0.2697  0.2121
  113MOL0     H15248   9.454  11.036   3.830  0.6242  0.8697 -0.8091
  113MOL0     H15249   9.676  10.857   3.734  0.2607  0.9085 -2.6662
  113MOL0     H15250   9.694  10.948   3.891 -0.9658  1.4883  1.2311
  113MOL0     H15251   9.779  11.090   3.735 -0.2982  1.0881 -1.3984
  113MOL0     H15252   9.611  11.146   3.756  0.4790 -0.4487  1.4945
  113MOL0     H15253   9.629  11.029   3.345  0.4005 -1.4027 -0.3638
  113MOL0     H15254   9.608  10.797   3.527 -1.9889  0.2438 -0.8871
  113MOL0     H15255   9.736  10.648   3.379  0.2723 -2.8114 -0.6249
  114MOL0     O15256  11.013   8.335   4.233  0.2893 -0.2954 -0.0994
  114MOL0     C15257  11.123   8.313   4.186 -1.1485 -0.4560 -0.0376
  114MOL0     O15258  11.158   8.216   4.104 -0.3014 -0.2904  0.3973
  114MOL0     C15259  11.069   8.122   4.067 -0.5507  0.6006 -0.0121
  114MOL0     C15260  11.121   7.994   4.062 -0.6586  0.3723  0.1828
  114MOL0     C15261  11.045   7.893   4.008  1.1800 -0.1681 -0.9397
  114MOL0     C15262  10.917   7.917   3.958 -0.7710  0.0112  0.5404
  114MOL0     O15263  10.846   7.811   3.916 -0.8010  0.2350 -0.7067
  114MOL0     C15264  10.703   7.810   3.933  0.1550 -0.0936  0.3064
  114MOL0     C15265  10.664   7.672   3.960 -0.2917 -0.1778 -0.6281
  114MOL0     C15266  10.551   7.662   4.074  0.3997 -0.5722 -0.6856
  114MOL0     C15267  10.526   7.518   4.105  0.3406  0.2668 -0.8556
  114MOL0     C15268  10.475   7.439   3.983 -0.9861  0.2123  0.0652
  114MOL0     C15269  10.337   7.484   3.934 -0.5846  0.1814  0.4260
  114MOL0     C15270  10.271   7.390   3.829 -1.0096 -0.0372 -0.4292
  114MOL0     C15271  10.158   7.449   3.749  0.1386  0.0511  0.5993
  114MOL0     N15272  10.143   7.400   3.615  0.0342  0.1351 -0.3797
  114MOL0     C15273  10.070   7.296   3.563 -0.1825  0.1034  0.7602
  114MOL0     C15274  10.110   7.280   3.439 -0.1906  0.6634  0.1751
  114MOL0     C15275  10.087   7.151   3.355  0.0707  0.6308 -0.4047
  114MOL0     C15276  10.089   7.178   3.203 -0.0221 -0.9621 -0.3613
  114MOL0     C15277   9.979   7.277   3.159  0.6448  1.2399 -0.1840
  114MOL0     C15278   9.940   7.251   3.022 -0.3978  0.1742  0.9604
  114MOL0     O15279   9.967   7.375   2.955  0.2908  0.3084  0.1482
  114MOL0     C15280   9.926   7.398   2.829  0.1889  0.5289 -0.2520
  114MOL0     C15281   9.956   7.529   2.797  0.1688 -0.9368  0.0080
  114MOL0     C15282   9.896   7.577   2.669 -1.1728 -1.3112  0.5733
  114MOL0     C15283   9.904   7.733   2.639 -0.6082 -0.1802  0.0314
  114MOL0     C15284   9.815   7.487   2.596 -0.4090 -0.3701  0.1879
  114MOL0     C15285   9.745   7.528   2.470  0.2145 -0.3593 -0.1832
  114MOL0     O15286   9.719   7.664   2.454 -0.4143  1.3095  0.2283
  114MOL0     C15287   9.647   7.698   2.346 -0.5476  0.6931  0.2685
  114MOL0     C15288   9.511   7.716   2.338  1.4409 -0.0305 -0.5152
  114MOL0     C15289   9.455   7.777   2.222 -0.1206 -0.2548 -0.3368
  114MOL0     C15290   9.530   7.803   2.110 -0.6967  0.5321 -1.0489
  114MOL0     O15291   9.474   7.839   2.000  0.0680  0.0273 -0.5188
  114MOL0     C15292   9.331   7.833   1.967 -0.0523  0.7183 -0.2878
  114MOL0     C15293   9.298   7.975   1.930 -0.3711  0.2072 -0.2242
  114MOL0     C15294   9.147   8.004   1.925 -0.2332  0.0550  0.2123
  114MOL0     C15295   9.127   8.158   1.932 -0.4252 -0.2296  0.4320
  114MOL0     C15296   8.979   8.178   1.962 -0.0927 -0.0447  0.4237
  114MOL0     C15297   8.937   8.328   1.994  0.1561  0.5870  0.5548
  114MOL0     C15298   9.039   8.387   2.093 -0.1688 -0.1784 -0.0482
  114MOL0     C15299   8.977   8.498   2.178  1.0119 -0.4730 -0.0188
  114MOL0    Cl15300   9.095   8.581   2.287  0.1349 -0.0820 -0.0981
  114MOL0     C15301   9.665   7.767   2.121  1.2616  0.3259  0.1499
  114MOL0     C15302   9.725   7.722   2.238  0.8098 -1.2810  1.5569
  114MOL0     O15303   9.721   7.432   2.388  0.4293 -1.0719 -0.4390
  114MOL0     C15304   9.795   7.351   2.631 -0.9666  0.3192  0.4654
  114MOL0     C15305   9.855   7.308   2.745 -0.7008 -0.1675 -0.3199
  114MOL0     N15306  10.197   7.390   3.399  0.8934 -0.6664  0.4702
  114MOL0     N15307  10.211   7.456   3.512  0.0633 -0.0448  0.3800
  114MOL0     C15308  10.877   8.048   3.946  0.2255 -0.1219  0.1095
  114MOL0     C15309  10.946   8.154   4.008  0.3457 -0.1592 -0.6377
  114MOL0     C15310  11.243   8.393   4.232  0.0841 -0.1650 -0.2756
  114MOL0     C15311  11.235   8.492   4.333 -0.5832  1.0908  0.0567
  114MOL0     C15312  11.349   8.557   4.383 -0.5253  0.2817 -0.0316
  114MOL0     C15313  11.482   8.528   4.335  0.3648  0.7730  0.3591
  114MOL0     O15314  11.601   8.583   4.371 -0.1400  0.0400  0.1167
  114MOL0     C15315  11.618   8.615   4.514  0.6958  0.0541 -0.1418
  114MOL0     C15316  11.745   8.692   4.538 -0.3747  0.5562  0.2949
  114MOL0     C15317  11.874   8.620   4.495  0.3885 -1.0542  0.4665
  114MOL0     C15318  12.004   8.696   4.522  0.4840 -0.2692 -0.6111
  114MOL0     C15319  12.117   8.619   4.471  0.2202 -2.1802  0.2148
  114MOL0     C15320  12.213   8.570   4.430 -0.2109  1.1397 -0.6749
  114MOL0     C15321  11.480   8.437   4.218  0.5753 -0.1270 -0.3142
  114MOL0     C15322  11.367   8.366   4.175 -0.5939 -0.8091  0.7190
  114MOL0     H15323  11.223   7.966   4.087 -0.2104 -1.2077 -2.8675
  114MOL0     H15324  11.090   7.795   3.998  3.6426  1.0142 -2.3087
  114MOL0     H15325  10.669   7.877   4.013 -1.6176  1.1450 -1.3763
  114MOL0     H15326  10.646   7.846   3.847 -4.2890 -0.9019  2.6252
  114MOL0     H15327  10.617   7.639   3.867 -2.7712 -1.1058  0.8437
  114MOL0     H15328  10.741   7.595   3.974  0.2802  0.0167 -2.5211
  114MOL0     H15329  10.582   7.712   4.166 -2.6231  2.3767 -1.0778
  114MOL0     H15330  10.458   7.712   4.046  0.7102 -1.0270 -2.6699
  114MOL0     H15331  10.619   7.471   4.137  0.6076 -0.5383 -2.6539
  114MOL0     H15332  10.453   7.496   4.183 -1.7088  1.6885 -2.2575
  114MOL0     H15333  10.544   7.439   3.898  2.2597 -0.4666  2.5495
  114MOL0     H15334  10.483   7.337   4.022 -0.6792 -0.3085 -1.2970
  114MOL0     H15335  10.269   7.511   4.016  0.4976 -0.3946  1.5528
  114MOL0     H15336  10.360   7.571   3.872 -0.0141  0.0509  0.4492
  114MOL0     H15337  10.348   7.377   3.752  2.5949 -2.0229  3.0994
  114MOL0     H15338  10.250   7.293   3.875  1.2337 -0.7153 -0.6978
  114MOL0     H15339  10.165   7.558   3.739 -4.8425  0.4119 -3.6650
  114MOL0     H15340  10.059   7.422   3.786  0.8703 -0.3890  2.3072
  114MOL0     H15341  10.014   7.227   3.626 -0.9654 -1.1715 -1.2330
  114MOL0     H15342  10.167   7.082   3.384  1.5526  1.9105 -1.2816
  114MOL0     H15343   9.992   7.101   3.378  0.4501 -0.2646 -0.7242
  114MOL0     H15344  10.072   7.079   3.159 -2.1882  0.1040 -2.1313
  114MOL0     H15345  10.187   7.217   3.176 -0.3751  0.0038 -0.2881
  114MOL0     H15346  10.034   7.370   3.178  2.4874  0.2590 -0.4617
  114MOL0     H15347   9.886   7.275   3.215 -0.4415 -2.5385 -1.8005
  114MOL0     H15348   9.835   7.220   3.024 -0.6332  0.8563  0.1077
  114MOL0     H15349  10.000   7.173   2.973 -2.4989  0.0507 -1.6757
  114MOL0     H15350  10.020   7.589   2.862 -1.2614 -0.3201  0.9015
  114MOL0     H15351   9.924   7.745   2.532  1.4154 -1.3457  0.2336
  114MOL0     H15352   9.811   7.786   2.660  0.2284  1.5543 -0.4225
  114MOL0     H15353   9.988   7.781   2.690 -1.9889  0.6203  1.6555
  114MOL0     H15354   9.447   7.681   2.419  2.3247  0.7022  0.5343
  114MOL0     H15355   9.347   7.788   2.224  0.1055  2.5069 -0.3992
  114MOL0     H15356   9.300   7.769   1.884 -0.1149 -0.3069  0.5032
  114MOL0     H15357   9.275   7.817   2.060 -0.1093  0.1062 -0.4263
  114MOL0     H15358   9.350   8.038   2.002  0.9082 -3.3434  2.2364
  114MOL0     H15359   9.335   7.988   1.828 -3.2032 -1.9767 -1.6763
  114MOL0     H15360   9.094   7.952   2.005 -0.1510 -0.9321 -0.3534
  114MOL0     H15361   9.116   7.954   1.832  1.4986  0.6648 -0.7465
  114MOL0     H15362   9.193   8.207   2.003  0.9007 -0.7629 -0.3922
  114MOL0     H15363   9.161   8.186   1.832  1.2477 -1.4949  0.5954
  114MOL0     H15364   8.952   8.115   2.048 -0.7266 -0.3750 -0.0099
  114MOL0     H15365   8.927   8.138   1.875 -1.8864  3.1568 -0.1649
  114MOL0     H15366   8.952   8.389   1.905  0.8286 -0.5058 -0.0934
  114MOL0     H15367   8.839   8.324   2.042  0.7632 -2.9535  1.8326
  114MOL0     H15368   9.124   8.428   2.038  0.7040 -1.8438  0.0065
  114MOL0     H15369   9.073   8.315   2.168 -0.1617  0.4298  0.5500
  114MOL0     H15370   8.911   8.456   2.255  0.3069  0.7580  0.0922
  114MOL0     H15371   8.915   8.562   2.114  0.4752  0.4171  1.3426
  114MOL0     H15372   9.728   7.773   2.032  0.9978  0.3062 -0.0410
  114MOL0     H15373   9.830   7.694   2.238  0.2484 -3.6420  0.1002
  114MOL0     H15374   9.727   7.284   2.580 -1.6432  0.5561  1.0353
  114MOL0     H15375   9.849   7.207   2.783  0.6366  0.3327  1.3805
  114MOL0     H15376  10.786   8.076   3.894  0.0108 -1.5952 -0.3733
  114MOL0     H15377  10.918   8.258   4.010 -1.4794 -0.6206  0.1946
  114MOL0     H15378  11.136   8.515   4.371  0.3027  1.7845  2.0991
  114MOL0     H15379  11.338   8.628   4.464  0.6669  3.1489 -2.2267
  114MOL0     H15380  11.533   8.677   4.545 -1.8279 -3.4134  0.4078
  114MOL0     H15381  11.630   8.525   4.575  0.6979 -1.8835 -2.7956
  114MOL0     H15382  11.761   8.703   4.646 -3.6923 -0.3863  1.0034
  114MOL0     H15383  11.740   8.787   4.483  1.8729 -1.1361 -3.1953
  114MOL0     H15384  11.864   8.611   4.386  0.5261  1.2069  0.2230
  114MOL0     H15385  11.879   8.516   4.530  1.2524 -0.5358  1.9562
  114MOL0     H15386  12.032   8.708   4.627 -0.3901 -1.5992 -0.1982
  114MOL0     H15387  12.013   8.794   4.474  0.0974 -0.7529 -1.6912
  114MOL0     H15388  12.300   8.524   4.387  1.0879  2.5283  0.3729
  114MOL0     H15389  11.569   8.421   4.158  0.3463  2.6088 -1.5643
  114MOL0     H15390  11.389   8.299   4.092  0.9643  1.3190 -0.7162
  115MOL0     O15391  10.077   7.432   7.189 -0.1415  0.2445 -0.2246
  115MOL0     C15392  10.016   7.331   7.145 -0.3689  0.9351 -0.1354
  115MOL0     O15393   9.931   7.323   7.037 -0.2976  0.4584 -0.1838
  115MOL0     C15394   9.925   7.429   6.957  0.7024 -0.5058  0.3565
  115MOL0     C15395   9.825   7.524   6.981 -0.2953 -1.0103 -0.2861
  115MOL0     C15396   9.824   7.644   6.905  0.0892  0.4692 -0.0673
  115MOL0     C15397   9.918   7.677   6.801 -0.5026  0.1948 -0.5011
  115MOL0     O15398   9.890   7.786   6.721  0.8177 -0.2675 -0.3013
  115MOL0     C15399   9.986   7.863   6.658  0.0385  0.3011  0.3067
  115MOL0     C15400   9.921   7.969   6.566 -0.3406  1.2498 -0.3971
  115MOL0     C15401  10.025   8.033   6.475 -0.3707 -0.0893  0.4576
  115MOL0     C15402   9.964   8.096   6.344 -0.7190 -0.4767  0.8396
  115MOL0     C15403   9.964   8.251   6.356 -0.0829  1.0184  0.0213
  115MOL0     C15404  10.107   8.315   6.318 -0.3546 -0.0790 -0.2819
  115MOL0     C15405  10.236   8.298   6.410 -0.3783 -0.1753  0.0091
  115MOL0     C15406  10.228   8.386   6.539  0.3893 -0.4947 -0.3759
  115MOL0     N15407  10.215   8.530   6.527  0.1123 -0.0038  0.4864
  115MOL0     C15408  10.313   8.611   6.473 -0.0957  0.7558  0.0200
  115MOL0     C15409  10.277   8.738   6.507  0.2018 -0.3351  0.4302
  115MOL0     C15410  10.367   8.857   6.477 -0.0796  0.2477 -0.3036
  115MOL0     C15411  10.341   8.909   6.334  0.1071  0.0812  0.2458
  115MOL0     C15412  10.392   8.817   6.219  0.1756 -0.6900  0.3020
  115MOL0     C15413  10.500   8.882   6.141 -0.3023  0.6260  0.1415
  115MOL0     O15414  10.636   8.844   6.172  0.0634 -0.1897 -0.2742
  115MOL0     C15415  10.722   8.945   6.153  0.0634  0.4625  0.0433
  115MOL0     C15416  10.751   9.007   6.033 -0.4459  0.5443  0.7968
  115MOL0     C15417  10.870   9.095   6.011 -0.2242 -0.3537 -0.3140
  115MOL0     C15418  10.894   9.170   5.884 -0.1320  0.8539 -0.1015
  115MOL0     C15419  10.958   9.105   6.128 -0.4846 -0.5260 -0.1746
  115MOL0     C15420  11.071   9.189   6.127 -0.1212  0.5142 -0.3747
  115MOL0     O15421  11.189   9.130   6.152 -0.4124  0.3996  0.4101
  115MOL0     C15422  11.314   9.202   6.148  1.3843  0.7127 -0.3554
  115MOL0     C15423  11.404   9.200   6.250 -0.7655 -0.0046  0.1226
  115MOL0     C15424  11.517   9.287   6.254  0.9641 -0.3360  0.5203
  115MOL0     C15425  11.541   9.368   6.136  1.0560  0.0799  0.1140
  115MOL0     O15426  11.660   9.445   6.116 -0.2589 -0.3386  1.1277
  115MOL0     C15427  11.778   9.373   6.085 -1.3054  0.6225  0.0392
  115MOL0     C15428  11.899   9.467   6.081  0.3180 -0.1385 -1.1890
  115MOL0     C15429  12.036   9.402   6.075 -0.4952 -0.2259  0.8759
  115MOL0     C15430  12.150   9.499   6.079 -0.2635  0.0897 -0.3984
  115MOL0     C15431  12.185   9.562   6.214 -0.2498 -0.5995  0.6732
  115MOL0     C15432  12.277   9.476   6.308  0.2064  0.2284  0.6737
  115MOL0     C15433  12.331   9.549   6.432  0.6393  0.0498 -0.7303
  115MOL0     C15434  12.374   9.450   6.543 -0.7534 -0.3647  0.6843
  115MOL0    Cl15435  12.515   9.365   6.480  0.3758 -0.0073 -0.1650
  115MOL0     C15436  11.450   9.367   6.032  0.2618  0.0322  0.6903
  115MOL0     C15437  11.336   9.285   6.037  0.1164 -0.8040  0.1705
  115MOL0     O15438  11.057   9.299   6.093 -0.4496 -0.6580  0.3452
  115MOL0     C15439  10.924   9.037   6.248  0.1477 -0.8589  0.1502
  115MOL0     C15440  10.809   8.965   6.264  0.1021 -0.5805 -0.3904
  115MOL0     N15441  10.156   8.735   6.575 -0.5782  0.3034 -0.0807
  115MOL0     N15442  10.123   8.610   6.586  0.1060 -0.2204 -0.1794
  115MOL0     C15443  10.015   7.575   6.783  0.1271 -0.1358 -0.6121
  115MOL0     C15444  10.008   7.457   6.849 -0.9635 -0.0349 -0.9000
  115MOL0     C15445  10.030   7.219   7.234  0.3451 -0.2610  0.1398
  115MOL0     C15446   9.996   7.091   7.195  0.2900 -0.5723 -0.1265
  115MOL0     C15447  10.030   6.985   7.272 -0.0761  0.2712 -0.5764
  115MOL0     C15448  10.068   6.996   7.410  0.8844 -1.0780  0.7343
  115MOL0     O15449  10.098   6.896   7.498 -0.7640 -0.4201 -0.1235
  115MOL0     C15450  10.100   6.756   7.444 -0.2660  0.4983 -0.9336
  115MOL0     C15451  10.230   6.737   7.366 -0.0658  0.1491  0.2977
  115MOL0     C15452  10.347   6.675   7.445 -0.3544 -0.8440 -0.0334
  115MOL0     C15453  10.325   6.544   7.512  0.3846 -0.0024 -0.3326
  115MOL0     C15454  10.268   6.442   7.421  0.6892 -0.5919 -0.6675
  115MOL0     C15455  10.212   6.359   7.365  0.2778  0.6440  0.0739
  115MOL0     C15456  10.087   7.124   7.457 -0.8285 -0.7658  0.3803
  115MOL0     C15457  10.072   7.235   7.372  0.1591  0.0324  0.2056
  115MOL0     H15458   9.747   7.520   7.056 -1.3268  1.5307 -1.0965
  115MOL0     H15459   9.749   7.722   6.910 -0.3453  0.0456  0.0771
  115MOL0     H15460  10.046   7.909   6.737 -0.6912 -0.6331  1.4527
  115MOL0     H15461  10.047   7.796   6.597 -0.1959 -3.2631  3.5755
  115MOL0     H15462   9.853   7.913   6.500 -2.4237  2.1764  0.8681
  115MOL0     H15463   9.869   8.044   6.626  1.6512  1.4755  1.1599
  115MOL0     H15464  10.077   8.106   6.537  2.7921  0.0537 -2.0930
  115MOL0     H15465  10.091   7.954   6.437  0.5691  0.4744  0.8976
  115MOL0     H15466  10.011   8.064   6.251 -1.5139 -1.2189  0.6753
  115MOL0     H15467   9.864   8.052   6.339  0.0117 -2.0907 -2.1230
  115MOL0     H15468   9.883   8.283   6.289 -1.0282 -1.2045  0.0424
  115MOL0     H15469   9.943   8.288   6.456  0.0561  0.1604  0.3714
  115MOL0     H15470  10.124   8.259   6.225  0.7798  0.7567 -0.5819
  115MOL0     H15471  10.095   8.413   6.272  0.4511 -1.5577 -3.9995
  115MOL0     H15472  10.270   8.195   6.427 -0.0537  0.1901  1.8254
  115MOL0     H15473  10.316   8.339   6.349 -0.2489 -2.1529 -1.2214
  115MOL0     H15474  10.309   8.365   6.608 -0.8587 -0.3982  1.1653
  115MOL0     H15475  10.137   8.344   6.583  0.8996  0.1487  1.3740
  115MOL0     H15476  10.395   8.589   6.407 -0.4368  2.4192 -0.9931
  115MOL0     H15477  10.346   8.943   6.540 -0.3450 -1.8628  2.7266
  115MOL0     H15478  10.471   8.829   6.497 -0.3414  0.3374  1.2352
  115MOL0     H15479  10.371   9.014   6.330 -1.5832  0.5781 -0.3066
  115MOL0     H15480  10.232   8.920   6.331  0.0555 -0.6099 -0.6883
  115MOL0     H15481  10.302   8.795   6.161  0.5742  1.2134 -1.1310
  115MOL0     H15482  10.437   8.730   6.269  0.7559 -0.1315  0.7826
  115MOL0     H15483  10.488   8.991   6.140  2.9369  1.0569  0.2570
  115MOL0     H15484  10.494   8.847   6.037  1.1161 -0.3428  0.3583
  115MOL0     H15485  10.688   9.003   5.945 -0.5115 -1.4215  0.8935
  115MOL0     H15486  10.822   9.145   5.805  3.1962 -0.4118 -2.9595
  115MOL0     H15487  10.874   9.277   5.896  3.5844  1.6148  0.3276
  115MOL0     H15488  10.992   9.153   5.839 -0.0096 -4.2707  1.4388
  115MOL0     H15489  11.390   9.139   6.338  0.5104  1.1617  1.1894
  115MOL0     H15490  11.588   9.286   6.336  2.3636  0.6246 -0.6364
  115MOL0     H15491  11.796   9.300   6.165 -1.4291 -0.1112 -0.5842
  115MOL0     H15492  11.785   9.309   5.996  4.8178 -0.1472  0.6019
  115MOL0     H15493  11.878   9.535   5.998 -0.2713  0.5078 -0.5228
  115MOL0     H15494  11.895   9.530   6.170 -1.1649 -1.4874 -0.2362
  115MOL0     H15495  12.043   9.366   5.972 -0.0167  4.5890 -1.0684
  115MOL0     H15496  12.057   9.324   6.148  0.9999 -2.9420 -2.1840
  115MOL0     H15497  12.233   9.447   6.030 -0.5957 -0.9930  0.1580
  115MOL0     H15498  12.131   9.575   6.002 -3.8781  2.5578  2.5610
  115MOL0     H15499  12.103   9.607   6.271  2.7016  1.0583  3.9818
  115MOL0     H15500  12.251   9.645   6.186 -0.9080 -0.4535 -0.5583
  115MOL0     H15501  12.219   9.386   6.331  1.0114 -0.3669  0.4419
  115MOL0     H15502  12.364   9.445   6.250  1.5125  2.6114  1.2341
  115MOL0     H15503  12.258   9.618   6.475  2.4202  2.3687 -1.2207
  115MOL0     H15504  12.419   9.611   6.412 -0.6576  2.0199 -0.6027
  115MOL0     H15505  12.293   9.380   6.564 -0.4371 -0.5479  1.3327
  115MOL0     H15506  12.396   9.500   6.638 -0.8469  0.3357  0.3420
  115MOL0     H15507  11.463   9.439   5.952 -0.8656  0.6718  1.0618
  115MOL0     H15508  11.260   9.296   5.960  0.8490  1.6607 -0.2981
  115MOL0     H15509  10.990   9.048   6.333 -0.7482 -2.2927  1.0723
  115MOL0     H15510  10.797   8.924   6.363 -0.1477  2.1267  0.7729
  115MOL0     H15511  10.076   7.571   6.693 -0.5813 -2.4199 -1.0464
  115MOL0     H15512  10.085   7.387   6.819 -0.7196  0.1612 -0.7456
  115MOL0     H15513   9.962   7.085   7.092  0.3489  0.8882 -0.2505
  115MOL0     H15514  10.023   6.885   7.231  1.0620 -1.4537  3.0784
  115MOL0     H15515  10.086   6.685   7.525 -1.1460  1.9173  0.2097
  115MOL0     H15516  10.021   6.739   7.370 -2.0082  0.7260  0.8076
  115MOL0     H15517  10.260   6.833   7.321 -0.2860 -0.1890 -0.6033
  115MOL0     H15518  10.203   6.672   7.282 -0.1290  2.1873 -1.3585
  115MOL0     H15519  10.367   6.749   7.522 -3.5390  1.7098 -1.4122
  115MOL0     H15520  10.428   6.662   7.372 -0.8588  0.3181 -0.8391
  115MOL0     H15521  10.266   6.558   7.603  3.0582 -3.3970  2.2085
  115MOL0     H15522  10.419   6.515   7.560 -0.2432  2.5647  2.7943
  115MOL0     H15523  10.179   6.269   7.317  1.4522 -0.5111  1.3622
  115MOL0     H15524  10.129   7.141   7.556 -1.4201 -0.1885  0.5442
  115MOL0     H15525  10.099   7.332   7.411  3.3760 -1.1064  1.1376
  116MOL0     O15526   5.067   9.409   6.409  0.3346 -0.8452 -0.6906
  116MOL0     C15527   5.016   9.473   6.319  0.5384  0.1358  0.0905
  116MOL0     O15528   4.924   9.423   6.227 -0.1424 -0.4149  0.5441
  116MOL0     C15529   4.901   9.291   6.226 -0.2978 -0.4712 -0.4255
  116MOL0     C15530   4.946   9.217   6.116  0.2958 -0.3372 -0.0318
  116MOL0     C15531   4.908   9.085   6.105  0.2550  0.5183  0.3056
  116MOL0     C15532   4.857   9.012   6.219  1.5637 -0.5271  0.2411
  116MOL0     O15533   4.845   8.880   6.205  0.5505 -0.6573  0.2429
  116MOL0     C15534   4.716   8.830   6.245  0.7622  0.0900 -0.2308
  116MOL0     C15535   4.721   8.682   6.297 -1.6125 -0.2040  0.8275
  116MOL0     C15536   4.768   8.583   6.195 -0.2755  0.8560 -0.3830
  116MOL0     C15537   4.773   8.443   6.253  0.1416  0.3594  1.1928
  116MOL0     C15538   4.778   8.332   6.156  0.7416  0.8225  1.4221
  116MOL0     C15539   4.641   8.256   6.133 -0.5237  0.3208  0.4880
  116MOL0     C15540   4.669   8.121   6.053 -0.5828 -0.5288  0.3507
  116MOL0     C15541   4.548   8.020   6.054  1.0914  0.6159 -0.1351
  116MOL0     N15542   4.509   7.973   6.194 -0.1879 -0.1294 -0.7977
  116MOL0     C15543   4.586   7.952   6.310  0.3857 -0.5929  0.4757
  116MOL0     C15544   4.505   7.910   6.414  0.7492  0.0118  1.0387
  116MOL0     C15545   4.552   7.879   6.553 -0.3305 -1.0194  0.4068
  116MOL0     C15546   4.521   7.989   6.662 -0.0816 -0.0777 -0.6022
  116MOL0     C15547   4.619   8.111   6.656  1.3224 -0.3597  0.1613
  116MOL0     C15548   4.572   8.215   6.552 -0.1671  1.0192  0.4485
  116MOL0     O15549   4.434   8.264   6.561 -0.7222 -0.2277  0.2725
  116MOL0     C15550   4.381   8.328   6.444 -0.4488  0.0711  0.0192
  116MOL0     C15551   4.305   8.260   6.351 -0.4899 -0.6719 -0.0579
  116MOL0     C15552   4.276   8.322   6.224  0.1098 -0.3175 -0.0885
  116MOL0     C15553   4.212   8.231   6.132  0.5412 -0.2372  0.3301
  116MOL0     C15554   4.314   8.447   6.183 -0.5867  0.1398  0.0599
  116MOL0     C15555   4.289   8.516   6.055 -0.5013  0.7189  0.1740
  116MOL0     O15556   4.371   8.626   6.021  0.3836 -0.3020 -0.2625
  116MOL0     C15557   4.347   8.726   5.930 -0.5281 -0.4925  0.8309
  116MOL0     C15558   4.225   8.745   5.860  0.4952  0.4964 -0.0345
  116MOL0     C15559   4.218   8.845   5.756  0.6298 -0.0922 -0.4183
  116MOL0     C15560   4.323   8.925   5.727  0.0185  0.2623 -1.0071
  116MOL0     O15561   4.299   9.023   5.638  0.2171  0.0841 -0.5503
  116MOL0     C15562   4.411   9.112   5.612 -0.3603  0.2527  0.4115
  116MOL0     C15563   4.381   9.192   5.482  0.5393 -0.5273  0.5240
  116MOL0     C15564   4.487   9.291   5.437  0.4823  0.9542 -0.2821
  116MOL0     C15565   4.446   9.374   5.312 -0.5694 -0.0367 -0.5427
  116MOL0     C15566   4.549   9.489   5.290 -0.0515  0.0285  0.1304
  116MOL0     C15567   4.678   9.431   5.237  0.6503 -0.1997 -0.8744
  116MOL0     C15568   4.777   9.539   5.191  0.8313 -0.4244  0.5138
  116MOL0     C15569   4.806   9.648   5.301 -0.0827  0.5594  0.3149
  116MOL0    Cl15570   4.909   9.580   5.439 -0.3231  0.4756  0.5006
  116MOL0     C15571   4.442   8.911   5.801  0.5486 -0.1818 -0.5166
  116MOL0     C15572   4.458   8.812   5.894 -0.2709  0.3667  0.1303
  116MOL0     O15573   4.209   8.469   5.973  0.0163 -0.7680 -0.1454
  116MOL0     C15574   4.377   8.520   6.285 -0.6146 -0.0172  0.0444
  116MOL0     C15575   4.404   8.466   6.413 -0.4465 -0.4740  1.1702
  116MOL0     N15576   4.377   7.915   6.355  0.0260  0.9218  0.4893
  116MOL0     N15577   4.387   7.937   6.232 -0.3912  0.2239  0.4256
  116MOL0     C15578   4.823   9.086   6.326  0.0743 -0.3203 -0.0807
  116MOL0     C15579   4.842   9.219   6.330  0.6576 -0.0910 -0.1987
  116MOL0     C15580   5.044   9.613   6.290  1.0493  0.0284  0.5581
  116MOL0     C15581   4.960   9.691   6.206 -0.4292  0.1432 -0.0848
  116MOL0     C15582   4.989   9.827   6.181 -0.0628  0.0861 -0.3258
  116MOL0     C15583   5.106   9.879   6.224  0.2828  0.4939 -0.6553
  116MOL0     O15584   5.138  10.003   6.188 -0.3259 -0.4492 -0.1511
  116MOL0     C15585   5.210  10.089   6.271  0.2959 -0.7241 -0.9378
  116MOL0     C15586   5.173  10.246   6.230  0.0508 -0.2335 -0.3512
  116MOL0     C15587   5.244  10.346   6.328  0.7905  0.4317  0.7293
  116MOL0     C15588   5.255  10.483   6.260 -0.0709  0.2130  0.2689
  116MOL0     C15589   5.370  10.499   6.177 -0.1386 -0.0667  0.7607
  116MOL0     C15590   5.464  10.506   6.096 -0.1501 -0.1525 -0.6119
  116MOL0     C15591   5.191   9.807   6.313  0.2868 -0.7203 -0.3514
  116MOL0     C15592   5.154   9.671   6.352 -0.4449 -0.1136 -0.8706
  116MOL0     H15593   5.012   9.261   6.042 -1.3413  1.1457 -0.6840
  116MOL0     H15594   4.944   9.016   6.030  0.8221 -2.7528  3.3411
  116MOL0     H15595   4.669   8.867   6.336  1.5033 -3.5850  1.8611
  116MOL0     H15596   4.634   8.825   6.173 -0.0303 -2.0372  0.7208
  116MOL0     H15597   4.800   8.678   6.372 -0.5666  0.0413 -0.2462
  116MOL0     H15598   4.617   8.661   6.325 -3.2878  2.9378 -2.2338
  116MOL0     H15599   4.698   8.587   6.111 -0.3438 -0.6574 -0.4245
  116MOL0     H15600   4.863   8.615   6.152  0.9567  0.2700  1.7539
  116MOL0     H15601   4.863   8.438   6.315 -0.8846 -1.0262  2.6393
  116MOL0     H15602   4.694   8.418   6.324 -3.6096  3.4692 -1.4781
  116MOL0     H15603   4.790   8.373   6.056 -0.9058 -3.8065 -0.9758
  116MOL0     H15604   4.867   8.272   6.175  1.2872  1.2431  0.2461
  116MOL0     H15605   4.575   8.236   6.218 -0.0701  1.2174  1.0702
  116MOL0     H15606   4.575   8.316   6.069  0.9749 -0.3433 -1.7806
  116MOL0     H15607   4.674   8.148   5.947  0.9457  0.6066  0.6859
  116MOL0     H15608   4.769   8.079   6.072  0.9336  1.8391 -1.8150
  116MOL0     H15609   4.581   7.924   6.013 -4.6412 -2.1953  0.8117
  116MOL0     H15610   4.464   8.046   5.989  1.2723 -1.0879 -1.1068
  116MOL0     H15611   4.693   7.971   6.317  0.3577 -0.5135  0.7095
  116MOL0     H15612   4.495   7.792   6.585 -0.2884 -1.2278 -0.0699
  116MOL0     H15613   4.659   7.854   6.547  0.3653  1.5580 -5.8128
  116MOL0     H15614   4.517   7.937   6.758 -1.0389 -1.4491 -1.3525
  116MOL0     H15615   4.415   8.008   6.647 -0.6700 -3.2234 -1.2071
  116MOL0     H15616   4.706   8.064   6.611 -0.2917 -3.0110 -0.4208
  116MOL0     H15617   4.629   8.164   6.752  0.5880  5.9031 -2.6997
  116MOL0     H15618   4.582   8.168   6.454  0.3623  2.8308 -0.4035
  116MOL0     H15619   4.643   8.298   6.556 -0.6290  1.3609  2.4251
  116MOL0     H15620   4.275   8.159   6.377 -2.1119 -0.7790 -2.1300
  116MOL0     H15621   4.231   8.125   6.151 -0.2239 -0.2718  0.9165
  116MOL0     H15622   4.105   8.250   6.146  0.5683 -1.5420  2.7754
  116MOL0     H15623   4.253   8.252   6.032  1.5131  4.1266  1.4201
  116MOL0     H15624   4.141   8.682   5.886  1.4051 -0.2353  1.2559
  116MOL0     H15625   4.133   8.855   5.690 -2.9073 -2.2681  3.2835
  116MOL0     H15626   4.425   9.177   5.699  0.3244  2.6720 -1.4083
  116MOL0     H15627   4.498   9.048   5.591 -1.8263 -2.0143  0.9003
  116MOL0     H15628   4.367   9.123   5.398 -4.5737  0.1499  0.4772
  116MOL0     H15629   4.286   9.246   5.483  0.1740 -0.9591 -2.0833
  116MOL0     H15630   4.578   9.232   5.425 -0.6684 -0.6450 -1.4600
  116MOL0     H15631   4.500   9.366   5.516  0.0403  0.2819  0.4401
  116MOL0     H15632   4.438   9.309   5.224 -0.2257 -0.4908 -0.2461
  116MOL0     H15633   4.352   9.426   5.333 -0.4054  0.7927 -1.7199
  116MOL0     H15634   4.573   9.536   5.385  1.0224  0.7910 -0.4926
  116MOL0     H15635   4.512   9.564   5.220 -1.9940  0.3377  1.4128
  116MOL0     H15636   4.730   9.373   5.314  0.8117 -0.2425 -1.0129
  116MOL0     H15637   4.650   9.363   5.155 -1.6268  0.0792 -0.3883
  116MOL0     H15638   4.749   9.589   5.098  1.1224  0.6105  0.9614
  116MOL0     H15639   4.870   9.489   5.163 -0.5784 -1.9240 -1.7566
  116MOL0     H15640   4.712   9.685   5.342  0.2572  0.2357  1.4281
  116MOL0     H15641   4.855   9.738   5.263  2.2235 -0.1475  1.4493
  116MOL0     H15642   4.532   8.972   5.792 -0.6854  1.7364 -0.2644
  116MOL0     H15643   4.547   8.802   5.956 -2.0100  0.1349  2.7278
  116MOL0     H15644   4.406   8.622   6.262 -2.8578 -0.1039 -4.2482
  116MOL0     H15645   4.447   8.536   6.484 -0.1678 -0.6404  1.1659
  116MOL0     H15646   4.781   9.036   6.412 -0.1281 -1.7693 -0.9834
  116MOL0     H15647   4.799   9.280   6.408 -3.2087  0.9033 -2.7785
  116MOL0     H15648   4.868   9.655   6.160 -0.9052  0.5387  0.5314
  116MOL0     H15649   4.927   9.881   6.110  0.1484 -0.6138 -1.0473
  116MOL0     H15650   5.206  10.071   6.379 -0.1559 -0.0184 -0.8262
  116MOL0     H15651   5.314  10.093   6.238  0.6970  0.4809  0.3368
  116MOL0     H15652   5.064  10.246   6.227  0.0223  2.0841 -3.0301
  116MOL0     H15653   5.199  10.261   6.125 -0.2726  0.5196 -0.3310
  116MOL0     H15654   5.342  10.315   6.366  1.2676  0.0425 -0.7624
  116MOL0     H15655   5.180  10.358   6.415  0.2906 -0.8745  0.5613
  116MOL0     H15656   5.249  10.566   6.331 -1.9177  1.8296 -1.6379
  116MOL0     H15657   5.167  10.480   6.195 -0.6495 -1.8644  1.0840
  116MOL0     H15658   5.538  10.515   6.019 -2.0480  2.0706 -2.3507
  116MOL0     H15659   5.285   9.841   6.354  0.7642 -1.3667 -0.8812
  116MOL0     H15660   5.222   9.607   6.408  0.2556 -0.0898 -1.6813
  117MOL0     O15661  11.384   5.851   4.519 -0.1582 -0.5643 -0.5653
  117MOL0     C15662  11.284   5.787   4.486  0.3316 -0.3128  0.3205
  117MOL0     O15663  11.155   5.789   4.546 -0.7070  0.5117 -0.1640
  117MOL0     C15664  11.141   5.877   4.651  0.3082 -0.5358  0.5996
  117MOL0     C15665  11.146   5.823   4.782 -0.6898  0.3831 -0.9764
  117MOL0     C15666  11.098   5.900   4.887 -0.0163  0.6999  0.1534
  117MOL0     C15667  11.056   6.040   4.875 -0.3556  0.8237  0.8479
  117MOL0     O15668  11.005   6.098   4.985 -0.5712  0.0844 -0.1827
  117MOL0     C15669  10.936   6.221   4.956 -0.8623  0.0070 -0.3103
  117MOL0     C15670  10.863   6.279   5.084  0.2724 -1.0754  0.1144
  117MOL0     C15671  10.746   6.188   5.111 -0.3478 -0.3925 -0.1862
  117MOL0     C15672  10.691   6.228   5.253  0.3425 -0.0600  0.5158
  117MOL0     C15673  10.639   6.365   5.278  0.7103  0.0458  0.3089
  117MOL0     C15674  10.544   6.364   5.403 -0.5011  0.3323 -0.7433
  117MOL0     C15675  10.612   6.361   5.536 -0.3945 -0.0287 -0.5056
  117MOL0     C15676  10.513   6.413   5.656  0.2676  0.2285 -0.5165
  117MOL0     N15677  10.593   6.475   5.767 -0.3524  0.7907  0.1565
  117MOL0     C15678  10.656   6.600   5.774 -0.0848  0.8643 -0.5139
  117MOL0     C15679  10.730   6.588   5.891 -0.3591  0.8674  0.0572
  117MOL0     C15680  10.834   6.687   5.933 -0.6514  0.3057 -0.0847
  117MOL0     C15681  10.972   6.679   5.860 -0.2543  0.3448 -0.0996
  117MOL0     C15682  11.078   6.754   5.942 -0.3224  0.5056  0.7789
  117MOL0     C15683  11.052   6.907   5.958  0.6714  0.5480  0.3048
  117MOL0     O15684  11.022   6.961   5.830  0.0393 -0.5030 -0.3359
  117MOL0     C15685  10.982   7.090   5.828  0.1637  0.4908 -0.3657
  117MOL0     C15686  11.073   7.193   5.839  0.5493  1.1389  0.7716
  117MOL0     C15687  11.038   7.327   5.838 -0.2599 -0.7482 -1.1533
  117MOL0     C15688  11.149   7.434   5.852 -0.4692  0.6228  0.7017
  117MOL0     C15689  10.899   7.378   5.817 -0.4322 -0.8176 -1.4667
  117MOL0     C15690  10.842   7.514   5.787 -0.2487  0.1540 -0.7186
  117MOL0     O15691  10.709   7.535   5.812 -0.1024  0.2446  0.4657
  117MOL0     C15692  10.648   7.637   5.745 -0.1126 -0.6310  0.7655
  117MOL0     C15693  10.544   7.610   5.641  0.7435 -0.0356 -0.0778
  117MOL0     C15694  10.490   7.720   5.579  1.0956  0.8440  0.5356
  117MOL0     C15695  10.528   7.849   5.590  0.2865 -0.1203 -0.0674
  117MOL0     O15696  10.465   7.954   5.521 -0.1135 -0.0307  0.1731
  117MOL0     C15697  10.369   7.921   5.425 -0.0896 -0.2073 -0.3930
  117MOL0     C15698  10.313   8.035   5.341  0.1469 -0.4779  0.3237
  117MOL0     C15699  10.279   8.166   5.423 -0.2818 -0.8474 -0.3002
  117MOL0     C15700  10.224   8.281   5.338  0.0273 -0.3719 -0.2139
  117MOL0     C15701  10.229   8.408   5.422  0.2348  0.0945  0.3167
  117MOL0     C15702  10.097   8.425   5.501 -0.4742  0.5657  0.7609
  117MOL0     C15703  10.120   8.551   5.598  0.7916 -0.7205  0.3791
  117MOL0     C15704  10.114   8.527   5.750  0.1010  0.2671 -0.5995
  117MOL0    Cl15705  10.141   8.680   5.848 -0.2746  0.4313  0.0618
  117MOL0     C15706  10.628   7.878   5.687 -0.8270 -0.6838 -0.2111
  117MOL0     C15707  10.679   7.775   5.767  1.0000  0.0391 -0.7333
  117MOL0     O15708  10.911   7.601   5.747  0.1695 -0.7281 -0.0506
  117MOL0     C15709  10.809   7.266   5.806  0.5664  0.1845 -0.0213
  117MOL0     C15710  10.847   7.129   5.809 -0.7299  0.2621  0.0441
  117MOL0     N15711  10.704   6.472   5.952 -0.1859 -0.7787  0.7604
  117MOL0     N15712  10.621   6.408   5.879  0.1940 -0.2344  0.3110
  117MOL0     C15713  11.068   6.088   4.740  0.7913 -0.2328  0.1562
  117MOL0     C15714  11.119   6.017   4.638 -0.3593  0.2344  0.2911
  117MOL0     C15715  11.310   5.683   4.381 -0.3259 -1.0205 -0.8724
  117MOL0     C15716  11.433   5.680   4.306  0.1400 -0.4406  0.3544
  117MOL0     C15717  11.441   5.591   4.204 -0.5928 -0.7119  0.2547
  117MOL0     C15718  11.347   5.496   4.175 -0.5035  0.7337 -1.0963
  117MOL0     O15719  11.346   5.390   4.083  0.6786 -0.5807  0.4708
  117MOL0     C15720  11.474   5.371   4.014  0.3721 -1.0534  0.3876
  117MOL0     C15721  11.461   5.267   3.906  0.0500 -0.3224 -0.0555
  117MOL0     C15722  11.439   5.122   3.939 -0.2045  0.3196 -0.4105
  117MOL0     C15723  11.296   5.095   3.986 -1.0479 -0.0132 -0.0065
  117MOL0     C15724  11.284   4.945   4.012 -0.0912  0.5343  0.6068
  117MOL0     C15725  11.284   4.829   4.060 -0.3269  0.5016  1.1274
  117MOL0     C15726  11.223   5.509   4.241  0.5239  0.1969  0.5704
  117MOL0     C15727  11.205   5.597   4.346  0.3110 -0.6911 -0.2943
  117MOL0     H15728  11.183   5.722   4.799 -1.0276  0.6688  1.9083
  117MOL0     H15729  11.111   5.867   4.990 -0.7216  2.1876  0.7467
  117MOL0     H15730  11.020   6.281   4.922  0.7803 -2.5249 -1.0535
  117MOL0     H15731  10.858   6.225   4.879 -1.7886  2.6185  0.6719
  117MOL0     H15732  10.933   6.289   5.167 -0.4032  2.0291  0.3939
  117MOL0     H15733  10.819   6.374   5.054  0.0720 -0.7399  1.4496
  117MOL0     H15734  10.670   6.216   5.038  2.1165  1.2556 -2.2969
  117MOL0     H15735  10.771   6.082   5.106  0.9362 -0.0908 -0.7136
  117MOL0     H15736  10.607   6.161   5.273 -0.4633  0.7480 -0.1013
  117MOL0     H15737  10.770   6.210   5.328 -0.1199 -0.8330  0.8319
  117MOL0     H15738  10.710   6.448   5.273  0.4745  0.1896 -0.9008
  117MOL0     H15739  10.569   6.384   5.196 -1.7882  0.4436  2.3691
  117MOL0     H15740  10.485   6.456   5.396 -0.9113  0.1804  0.4321
  117MOL0     H15741  10.464   6.289   5.405 -1.3636  1.2310  0.8452
  117MOL0     H15742  10.663   6.266   5.559  0.2976  0.1699 -1.1698
  117MOL0     H15743  10.703   6.422   5.529  0.5672 -1.4865 -1.1889
  117MOL0     H15744  10.451   6.333   5.697  0.2431  0.5289  0.0342
  117MOL0     H15745  10.437   6.480   5.617 -1.3276 -1.8129 -1.1213
  117MOL0     H15746  10.656   6.674   5.695 -3.2177  2.2612  0.6393
  117MOL0     H15747  10.788   6.785   5.917 -2.4631 -0.2228  1.4303
  117MOL0     H15748  10.852   6.680   6.041 -3.0194  0.6958  0.4108
  117MOL0     H15749  10.965   6.729   5.763  0.4031  0.0138 -0.3295
  117MOL0     H15750  10.996   6.573   5.861 -2.2813 -0.1555 -1.0025
  117MOL0     H15751  11.180   6.749   5.904 -0.2325  2.6263  0.6514
  117MOL0     H15752  11.094   6.709   6.041  1.6113 -0.1255  0.2297
  117MOL0     H15753  11.133   6.962   6.005  0.2562 -0.1081  1.8564
  117MOL0     H15754  10.964   6.928   6.020  1.0368 -1.3218  1.5246
  117MOL0     H15755  11.176   7.165   5.857 -0.0717 -0.6074  1.8051
  117MOL0     H15756  11.186   7.476   5.758 -1.5965  0.0386 -0.0272
  117MOL0     H15757  11.122   7.522   5.911 -1.0208  1.3406 -0.5847
  117MOL0     H15758  11.241   7.387   5.889 -0.7981  0.0400  0.7846
  117MOL0     H15759  10.522   7.504   5.631  2.8850 -0.7217  1.6897
  117MOL0     H15760  10.400   7.704   5.520  1.0667  1.5926  0.3684
  117MOL0     H15761  10.417   7.854   5.353  2.8624  0.7310  0.5394
  117MOL0     H15762  10.281   7.872   5.465  1.2994 -2.3747  0.1566
  117MOL0     H15763  10.400   8.053   5.277  1.9366  2.5170  3.3228
  117MOL0     H15764  10.218   8.021   5.288  0.3860  1.3095 -0.6517
  117MOL0     H15765  10.376   8.193   5.466 -0.1203 -1.7175 -0.1046
  117MOL0     H15766  10.208   8.142   5.502  0.0049  0.6015  0.4370
  117MOL0     H15767  10.293   8.297   5.254  1.5575  0.8542  1.1988
  117MOL0     H15768  10.119   8.261   5.315 -1.0985  1.5169  2.7541
  117MOL0     H15769  10.244   8.482   5.343 -1.2568  0.7857  0.6588
  117MOL0     H15770  10.315   8.413   5.490 -1.0816 -0.7194  2.1071
  117MOL0     H15771  10.021   8.446   5.425  1.3087  2.3952 -0.6059
  117MOL0     H15772  10.068   8.333   5.553  1.2210 -1.4365 -1.5645
  117MOL0     H15773  10.052   8.630   5.567  2.0470  0.3812  0.3428
  117MOL0     H15774  10.221   8.593   5.587  0.6295 -0.4420 -0.0388
  117MOL0     H15775  10.197   8.459   5.774  0.8690  1.8700  1.5829
  117MOL0     H15776  10.019   8.487   5.787 -1.6110  2.2597 -2.5879
  117MOL0     H15777  10.653   7.982   5.703 -3.2104 -0.1553  0.4804
  117MOL0     H15778  10.760   7.792   5.838 -1.7727 -0.4274  2.8557
  117MOL0     H15779  10.701   7.276   5.797  0.5426  0.1142  0.2028
  117MOL0     H15780  10.764   7.062   5.793 -0.4197  0.2768 -1.8907
  117MOL0     H15781  11.045   6.191   4.715 -1.4056 -0.2940  1.6940
  117MOL0     H15782  11.119   6.046   4.533  2.2814  0.0779  0.1761
  117MOL0     H15783  11.506   5.760   4.305 -1.0916  0.7249  0.2354
  117MOL0     H15784  11.532   5.595   4.145 -0.6567  0.9975  0.2439
  117MOL0     H15785  11.489   5.467   3.963 -2.2015 -2.0987 -2.7322
  117MOL0     H15786  11.543   5.336   4.091 -0.0186 -2.3856  0.1500
  117MOL0     H15787  11.552   5.280   3.847 -0.9619 -2.1967 -2.2313
  117MOL0     H15788  11.389   5.302   3.831  2.3678 -0.4876 -2.5306
  117MOL0     H15789  11.510   5.090   4.015 -1.0130 -1.4673 -0.3527
  117MOL0     H15790  11.461   5.055   3.855  1.0783  0.4622 -0.1983
  117MOL0     H15791  11.229   5.121   3.903  0.4844 -3.0856 -2.4074
  117MOL0     H15792  11.274   5.149   4.079 -1.2091  3.9950 -2.1336
  117MOL0     H15793  11.291   4.729   4.100 -1.9230 -1.1093 -2.2166
  117MOL0     H15794  11.137   5.454   4.206  0.0612  1.0210  0.3812
  117MOL0     H15795  11.105   5.606   4.386 -0.2760  0.0503 -1.8826
  118MOL0     O15796   1.659   6.551   5.205  0.3904 -0.0964  0.0357
  118MOL0     C15797   1.759   6.621   5.194  1.2451  0.0056  0.2951
  118MOL0     O15798   1.873   6.594   5.125 -0.0768  0.3338 -0.6910
  118MOL0     C15799   1.909   6.464   5.120  0.6647  0.1477 -0.5673
  118MOL0     C15800   1.838   6.382   5.032  0.4516 -0.7339  0.2226
  118MOL0     C15801   1.885   6.259   4.993  0.0862 -0.2040  0.4453
  118MOL0     C15802   1.997   6.201   5.061  1.4150  0.0498  0.6816
  118MOL0     O15803   2.065   6.083   5.040 -0.0976  0.1222 -0.6205
  118MOL0     C15804   2.043   6.006   4.926  1.1066  1.0763  0.5854
  118MOL0     C15805   2.165   5.914   4.897  0.3051  0.3720  0.6709
  118MOL0     C15806   2.269   5.980   4.802 -0.2058 -1.0612  0.2270
  118MOL0     C15807   2.420   5.936   4.829 -0.1421 -0.0195  0.0517
  118MOL0     C15808   2.521   5.970   4.714  0.1055 -0.5001  0.2396
  118MOL0     C15809   2.443   5.959   4.577 -0.6766  0.9743  0.0019
  118MOL0     C15810   2.547   5.970   4.455  0.2553  0.9384 -0.9326
  118MOL0     C15811   2.478   6.014   4.326 -0.1582  0.1293  0.2041
  118MOL0     N15812   2.356   5.940   4.304  0.3222 -0.1086 -0.6734
  118MOL0     C15813   2.346   5.845   4.202  0.1776 -0.0619  0.2616
  118MOL0     C15814   2.219   5.834   4.173  0.7393 -0.1768  0.7589
  118MOL0     C15815   2.153   5.769   4.068  0.1896 -0.3422  0.6491
  118MOL0     C15816   2.148   5.844   3.929 -0.3784  0.2184  0.5802
  118MOL0     C15817   2.124   5.752   3.806 -0.6892 -0.1811 -0.6155
  118MOL0     C15818   2.098   5.825   3.678  0.4439 -0.3284 -1.3923
  118MOL0     O15819   1.967   5.888   3.680 -0.3791 -0.4046 -0.7100
  118MOL0     C15820   1.934   5.973   3.578  0.8099  0.2033 -0.2373
  118MOL0     C15821   1.811   6.037   3.591 -0.0208 -0.0937 -0.5922
  118MOL0     C15822   1.760   6.131   3.503  0.1407 -0.5003 -0.4625
  118MOL0     C15823   1.627   6.200   3.535  0.2973 -0.6281 -0.3571
  118MOL0     C15824   1.849   6.173   3.391 -0.1362  0.9031 -0.8087
  118MOL0     C15825   1.824   6.284   3.301 -0.1594  0.5077  0.1272
  118MOL0     O15826   1.820   6.247   3.178  0.4323 -0.0861 -0.2814
  118MOL0     C15827   1.833   6.344   3.088  0.2711 -0.2976  0.5961
  118MOL0     C15828   1.735   6.358   2.992  0.8914 -1.0808 -0.0187
  118MOL0     C15829   1.742   6.446   2.876 -0.3604  0.8761 -0.9374
  118MOL0     C15830   1.859   6.522   2.858  0.3443 -0.3969 -1.2022
  118MOL0     O15831   1.890   6.584   2.751  0.0638 -0.7046  0.5282
  118MOL0     C15832   1.783   6.667   2.704  0.0156 -0.1428  0.6773
  118MOL0     C15833   1.821   6.742   2.581  0.0467 -0.9049  0.1113
  118MOL0     C15834   1.834   6.660   2.454 -1.2045 -0.0324  0.8283
  118MOL0     C15835   1.829   6.742   2.323  0.0795  1.0059  0.0711
  118MOL0     C15836   1.933   6.847   2.302 -0.6622 -0.1338  0.1011
  118MOL0     C15837   2.068   6.787   2.299 -1.0076 -0.5846  0.1084
  118MOL0     C15838   2.176   6.889   2.319 -0.8612 -0.1647 -0.9274
  118MOL0     C15839   2.209   6.966   2.199 -0.3799 -0.3951 -0.2949
  118MOL0    Cl15840   2.266   6.848   2.066  0.0485 -0.1952 -0.3072
  118MOL0     C15841   1.961   6.504   2.961 -0.3894 -0.2290  0.4607
  118MOL0     C15842   1.957   6.412   3.064  0.8752 -0.3996 -0.4013
  118MOL0     O15843   1.781   6.391   3.345 -0.8703  0.2521 -0.8040
  118MOL0     C15844   1.972   6.096   3.375  0.2115 -2.0510 -0.5653
  118MOL0     C15845   2.012   5.992   3.461  0.0204 -0.0616  0.4100
  118MOL0     N15846   2.149   5.915   4.258 -0.3272 -0.0919 -0.0416
  118MOL0     N15847   2.231   5.966   4.350  0.1690  0.0682  0.1688
  118MOL0     C15848   2.058   6.279   5.156 -0.2451  0.4093 -0.9795
  118MOL0     C15849   2.023   6.411   5.182 -0.1052 -0.4577 -1.3424
  118MOL0     C15850   1.754   6.752   5.257 -0.4410 -0.4187 -0.1410
  118MOL0     C15851   1.849   6.847   5.220 -0.2656  0.2339 -1.5708
  118MOL0     C15852   1.862   6.968   5.282 -0.6818 -0.0137  0.5835
  118MOL0     C15853   1.779   7.005   5.391 -0.1044  0.1941  1.2351
  118MOL0     O15854   1.800   7.128   5.445 -0.0275  0.7129  0.1913
  118MOL0     C15855   1.706   7.172   5.552  0.0671 -0.1012 -1.2198
  118MOL0     C15856   1.764   7.303   5.617 -0.9362  0.1957  0.1494
  118MOL0     C15857   1.674   7.371   5.720 -0.2773 -0.0769  0.2103
  118MOL0     C15858   1.739   7.332   5.861  0.5505  0.2817  0.4256
  118MOL0     C15859   1.687   7.436   5.951  0.5628 -0.1623  0.1504
  118MOL0     C15860   1.645   7.535   6.001 -0.0074 -0.1929 -0.0022
  118MOL0     C15861   1.683   6.910   5.424  0.4441  0.0014 -0.9048
  118MOL0     C15862   1.665   6.790   5.355 -0.3100  0.4100 -0.0768
  118MOL0     H15863   1.745   6.413   4.985 -0.3770  0.7130  2.6467
  118MOL0     H15864   1.834   6.198   4.918 -0.3042  0.7033 -0.0406
  118MOL0     H15865   1.951   5.948   4.934 -0.4483  2.7774 -2.7540
  118MOL0     H15866   2.035   6.075   4.841 -0.3940 -1.8413 -1.8256
  118MOL0     H15867   2.205   5.894   4.997 -4.2100 -0.9720  2.4767
  118MOL0     H15868   2.127   5.814   4.876  1.3316 -0.3128  1.9612
  118MOL0     H15869   2.234   5.960   4.700 -0.9434  0.0858  0.2374
  118MOL0     H15870   2.275   6.088   4.820  1.0150 -1.0224 -0.3608
  118MOL0     H15871   2.456   5.986   4.919 -1.6067 -0.2377  0.7990
  118MOL0     H15872   2.419   5.827   4.838 -0.0158  0.0793  1.4946
  118MOL0     H15873   2.543   6.077   4.717 -0.5848 -0.2886 -1.3100
  118MOL0     H15874   2.607   5.903   4.711  1.4565  1.1774 -1.8434
  118MOL0     H15875   2.406   5.856   4.582 -0.7311  1.0208  0.5876
  118MOL0     H15876   2.367   6.037   4.567 -1.5858 -0.2009 -4.2720
  118MOL0     H15877   2.625   6.037   4.493  0.6393 -0.9437  1.9056
  118MOL0     H15878   2.584   5.867   4.446 -1.4325  0.4620 -3.1191
  118MOL0     H15879   2.543   6.015   4.237 -1.6977 -2.0507 -1.0242
  118MOL0     H15880   2.456   6.121   4.333  0.9949  0.4392 -0.4389
  118MOL0     H15881   2.426   5.803   4.141 -1.4124 -2.3697 -0.3873
  118MOL0     H15882   2.186   5.666   4.060 -2.0429 -1.3906  3.2432
  118MOL0     H15883   2.048   5.761   4.101  0.7359 -3.0787  1.9991
  118MOL0     H15884   2.243   5.897   3.919  1.2063 -2.3874  1.0684
  118MOL0     H15885   2.065   5.915   3.922 -0.1013  0.7234  2.0994
  118MOL0     H15886   2.039   5.685   3.823 -1.5747  0.4401 -2.3380
  118MOL0     H15887   2.214   5.690   3.802 -0.8023 -0.8293  3.0611
  118MOL0     H15888   2.088   5.745   3.604 -1.3928 -1.5111  0.0342
  118MOL0     H15889   2.176   5.899   3.657  0.6661 -0.2355 -0.2736
  118MOL0     H15890   1.751   6.019   3.681  3.2803 -0.3176  1.7438
  118MOL0     H15891   1.592   6.280   3.469 -6.8132 -3.1172 -0.4932
  118MOL0     H15892   1.549   6.128   3.509  1.1296 -0.0733 -5.4728
  118MOL0     H15893   1.629   6.237   3.638  1.8904 -0.3881 -0.4505
  118MOL0     H15894   1.645   6.298   3.003  0.1711  0.0651  0.4599
  118MOL0     H15895   1.661   6.444   2.805 -1.0265 -5.0234 -0.4783
  118MOL0     H15896   1.707   6.599   2.663  2.2401 -1.2195 -2.0354
  118MOL0     H15897   1.746   6.726   2.788  0.0813  2.1771 -0.8067
  118MOL0     H15898   1.760   6.832   2.568  1.6908  0.2288 -0.0726
  118MOL0     H15899   1.920   6.782   2.605 -1.8704  2.8195  3.1084
  118MOL0     H15900   1.738   6.608   2.461 -0.8460 -0.5062  2.5150
  118MOL0     H15901   1.908   6.580   2.444 -2.1825 -1.1125  1.9394
  118MOL0     H15902   1.823   6.680   2.233  0.9964  0.1913  0.5465
  118MOL0     H15903   1.738   6.803   2.322 -0.1358  0.7405 -2.5289
  118MOL0     H15904   1.918   6.918   2.384  0.7655  0.0635  0.2220
  118MOL0     H15905   1.921   6.893   2.204  0.6458 -0.1355 -0.0764
  118MOL0     H15906   2.079   6.704   2.368  0.7856 -0.9168 -0.5258
  118MOL0     H15907   2.086   6.737   2.203 -0.9423  0.0581 -0.2255
  118MOL0     H15908   2.270   6.840   2.346  0.3814  2.3760 -0.3408
  118MOL0     H15909   2.154   6.946   2.410  0.6817 -2.3197  0.9037
  118MOL0     H15910   2.291   7.035   2.220  0.9180 -1.4428 -1.6853
  118MOL0     H15911   2.115   7.012   2.167 -1.1613  1.2263  3.7757
  118MOL0     H15912   2.046   6.568   2.937 -2.3599  1.3287 -3.2216
  118MOL0     H15913   2.051   6.392   3.113  0.5075 -0.8402  0.1369
  118MOL0     H15914   2.050   6.118   3.303  0.7464 -0.5297  0.4490
  118MOL0     H15915   2.103   5.938   3.434 -0.8752 -0.9083 -0.9895
  118MOL0     H15916   2.158   6.248   5.182 -1.0137  0.5201  2.5666
  118MOL0     H15917   2.088   6.465   5.250 -1.1103 -1.5761  0.6337
  118MOL0     H15918   1.917   6.834   5.136  1.3781  1.4798 -0.5018
  118MOL0     H15919   1.922   7.052   5.248 -1.8662  1.7060  2.4852
  118MOL0     H15920   1.601   7.190   5.526 -0.0589  0.8361 -0.1245
  118MOL0     H15921   1.697   7.091   5.626 -3.3328  0.7440 -0.5238
  118MOL0     H15922   1.782   7.370   5.533  0.1207 -0.7273 -0.3846
  118MOL0     H15923   1.856   7.267   5.665 -3.1676 -1.4233  3.6747
  118MOL0     H15924   1.570   7.347   5.696 -0.2339  1.2574 -1.4687
  118MOL0     H15925   1.680   7.480   5.713 -1.3309 -0.1030 -2.4933
  118MOL0     H15926   1.848   7.330   5.853  0.5055  0.9387 -0.6221
  118MOL0     H15927   1.694   7.236   5.887  0.2158  0.5684  0.9269
  118MOL0     H15928   1.600   7.623   6.043  0.8985 -0.1755  0.9799
  118MOL0     H15929   1.627   6.922   5.516  0.4247  2.9879 -1.2106
  118MOL0     H15930   1.610   6.704   5.392  3.1092 -1.8534  0.3183
  119MOL0     O15931   6.053   3.124  11.332 -0.8166  0.4184  0.3850
  119MOL0     C15932   6.158   3.071  11.295 -0.2004  0.4600 -0.3015
  119MOL0     O15933   6.264   3.144  11.243 -0.1819 -0.1054  0.1275
  119MOL0     C15934   6.278   3.280  11.237  0.9353 -0.4396  0.2306
  119MOL0     C15935   6.172   3.364  11.195  0.3803  0.1392 -0.5478
  119MOL0     C15936   6.190   3.499  11.171  0.6353  0.2721 -0.7460
  119MOL0     C15937   6.313   3.552  11.209 -0.2901  0.1172  0.2402
  119MOL0     O15938   6.338   3.685  11.198  0.1995  0.8280  0.0881
  119MOL0     C15939   6.259   3.785  11.124  0.2494  0.5742  0.0159
  119MOL0     C15940   6.351   3.900  11.078  0.7217 -0.1404 -0.0732
  119MOL0     C15941   6.446   3.852  10.963  0.8914 -0.6197 -0.1405
  119MOL0     C15942   6.555   3.759  11.008  0.6489  0.2130 -0.0821
  119MOL0     C15943   6.622   3.802  11.138 -0.4200  0.2526 -0.6090
  119MOL0     C15944   6.731   3.701  11.165 -0.8734  0.4257 -0.5825
  119MOL0     C15945   6.798   3.711  11.300  0.3423 -0.2566  0.6804
  119MOL0     C15946   6.865   3.582  11.335  0.1132  0.4066 -0.2121
  119MOL0     N15947   6.950   3.596  11.451  0.0142 -0.2650 -0.0385
  119MOL0     C15948   6.910   3.605  11.580  0.6219  0.1555  0.3052
  119MOL0     C15949   7.005   3.674  11.643 -0.5527  0.3391 -0.1180
  119MOL0     C15950   7.021   3.725  11.781 -0.9577  0.2707  0.5436
  119MOL0     C15951   7.023   3.881  11.791  0.0375  0.4899  0.8525
  119MOL0     C15952   7.076   3.923  11.932  0.4731 -0.0481 -0.3938
  119MOL0     C15953   7.029   4.071  11.980 -0.6531  0.8986  0.6892
  119MOL0     O15954   6.890   4.085  11.944  0.4132  0.2370 -0.3563
  119MOL0     C15955   6.834   4.208  11.926 -1.9821  0.0396  1.0709
  119MOL0     C15956   6.900   4.328  11.951 -0.6406  1.1414 -0.3271
  119MOL0     C15957   6.851   4.454  11.931  0.1769  0.8720 -0.6105
  119MOL0     C15958   6.937   4.569  11.975 -0.3378  0.2589  0.2172
  119MOL0     C15959   6.717   4.456  11.886 -0.4906 -0.4191  0.0820
  119MOL0     C15960   6.643   4.582  11.854 -0.4631  0.6256  0.1385
  119MOL0     O15961   6.510   4.577  11.865  0.4455 -0.2617 -0.0161
  119MOL0     C15962   6.444   4.704  11.846 -0.2196  0.2094 -0.3196
  119MOL0     C15963   6.419   4.786  11.952 -0.5506  0.8064  0.3586
  119MOL0     C15964   6.357   4.912  11.928 -0.0455  0.3565  0.2388
  119MOL0     C15965   6.317   4.948  11.799 -0.3377  0.5384 -0.9576
  119MOL0     O15966   6.267   5.075  11.789  0.0525  0.0815  0.0774
  119MOL0     C15967   6.236   5.119  11.652 -0.2398 -1.0166 -1.4304
  119MOL0     C15968   6.356   5.215  11.605  0.4445 -0.0677  0.2488
  119MOL0     C15969   6.343   5.288  11.474  0.4253  0.2926  1.0337
  119MOL0     C15970   6.468   5.356  11.414 -0.3730  0.6726 -0.7759
  119MOL0     C15971   6.558   5.248  11.356 -0.2155 -0.9753 -0.3887
  119MOL0     C15972   6.699   5.309  11.337 -0.5026 -0.2001  0.0125
  119MOL0     C15973   6.784   5.209  11.257  0.0671  0.0868  0.5695
  119MOL0     C15974   6.935   5.229  11.271 -0.3439 -0.8985  0.3307
  119MOL0    Cl15975   7.005   5.394  11.290  0.1095  0.1157 -0.1649
  119MOL0     C15976   6.337   4.858  11.695 -0.3345  0.0712 -0.4950
  119MOL0     C15977   6.413   4.741  11.717  0.0706  0.1882 -0.6102
  119MOL0     O15978   6.712   4.678  11.812  0.1171  0.5660 -0.4402
  119MOL0     C15979   6.639   4.339  11.854  0.0847  0.7620 -0.5507
  119MOL0     C15980   6.707   4.219  11.872 -0.2914  0.0546  0.6938
  119MOL0     N15981   7.110   3.699  11.563  0.8958 -1.1719 -0.6962
  119MOL0     N15982   7.075   3.652  11.449 -0.3025 -0.2365  0.2540
  119MOL0     C15983   6.425   3.473  11.247  0.6147  0.7458  0.8291
  119MOL0     C15984   6.404   3.335  11.266  0.2227 -0.6343  0.1492
  119MOL0     C15985   6.155   2.924  11.307 -0.3292  0.3300 -0.2650
  119MOL0     C15986   6.220   2.842  11.209  0.3139  0.1815  0.2249
  119MOL0     C15987   6.216   2.705  11.217  0.3254  0.8819  0.4769
  119MOL0     C15988   6.148   2.637  11.317  0.2288  0.1717 -0.6409
  119MOL0     O15989   6.154   2.508  11.357 -0.1009  0.7103  1.0623
  119MOL0     C15990   6.270   2.442  11.297  0.0531  0.8639 -0.2844
  119MOL0     C15991   6.392   2.447  11.370  0.2426  0.3974 -0.6100
  119MOL0     C15992   6.371   2.399  11.522 -0.5882 -0.1812 -0.3914
  119MOL0     C15993   6.313   2.504  11.618 -0.4627 -0.7568 -1.2157
  119MOL0     C15994   6.397   2.530  11.734  0.1729  1.4974 -0.3977
  119MOL0     C15995   6.475   2.535  11.828 -0.6645 -0.2914  0.3005
  119MOL0     C15996   6.081   2.718  11.405  0.5703 -0.0699 -0.5726
  119MOL0     C15997   6.073   2.861  11.397 -0.3448  0.5973 -0.7932
  119MOL0     H15998   6.074   3.329  11.167 -0.1244  0.8836  0.2280
  119MOL0     H15999   6.108   3.560  11.134  1.5653  2.2423  0.2755
  119MOL0     H16000   6.221   3.740  11.033  0.2615  1.0803 -0.2436
  119MOL0     H16001   6.175   3.826  11.182 -2.7365 -2.1743 -2.0414
  119MOL0     H16002   6.290   3.980  11.035  1.8200 -0.1988 -1.8252
  119MOL0     H16003   6.394   3.945  11.168  2.6187  1.9231 -1.8811
  119MOL0     H16004   6.381   3.813  10.884 -0.6259 -0.1365  0.8165
  119MOL0     H16005   6.493   3.947  10.936  1.7738  0.2646  3.8573
  119MOL0     H16006   6.519   3.656  11.002  0.7801 -0.1113  3.1040
  119MOL0     H16007   6.626   3.771  10.925 -1.1557  1.8075 -1.4833
  119MOL0     H16008   6.662   3.903  11.130 -0.3325  0.0523 -4.7707
  119MOL0     H16009   6.562   3.807  11.229 -0.1744  1.5191 -0.4977
  119MOL0     H16010   6.692   3.600  11.153  1.2375 -0.8876  2.4740
  119MOL0     H16011   6.798   3.726  11.081 -0.9324  2.0741 -0.1680
  119MOL0     H16012   6.869   3.793  11.284  1.3374 -1.6918 -3.9662
  119MOL0     H16013   6.726   3.741  11.376 -2.0912 -0.8831 -1.2404
  119MOL0     H16014   6.927   3.538  11.256 -0.3240  0.1987 -0.4410
  119MOL0     H16015   6.792   3.507  11.367  1.2890 -1.7069 -2.1136
  119MOL0     H16016   6.817   3.567  11.622 -0.1307  2.4340  0.8409
  119MOL0     H16017   6.933   3.693  11.838 -1.6275  2.0929  0.6081
  119MOL0     H16018   7.112   3.684  11.826 -1.0566  0.8175  1.2608
  119MOL0     H16019   6.923   3.912  11.761  1.0184  1.7086 -1.4164
  119MOL0     H16020   7.088   3.925  11.715  1.3957 -1.3908  0.8615
  119MOL0     H16021   7.183   3.909  11.947  0.4879  1.3913  1.2565
  119MOL0     H16022   7.037   3.857  12.010  0.4713  3.1957  2.6375
  119MOL0     H16023   7.091   4.143  11.927 -0.5703 -0.2703 -0.8832
  119MOL0     H16024   7.050   4.070  12.087 -3.7986  0.8191  1.4093
  119MOL0     H16025   7.003   4.319  11.985 -1.0763 -1.0303  0.6112
  119MOL0     H16026   6.985   4.625  11.893 -2.1133  2.1863  0.4105
  119MOL0     H16027   6.884   4.642  12.037 -0.1966 -0.2505  0.9499
  119MOL0     H16028   7.024   4.545  12.037  0.4625  0.8902 -0.6271
  119MOL0     H16029   6.451   4.755  12.051  0.1993 -1.2961 -0.4774
  119MOL0     H16030   6.340   4.983  12.008  1.5300 -0.2941  1.2110
  119MOL0     H16031   6.212   5.043  11.577 -3.6978  0.7453 -2.3331
  119MOL0     H16032   6.155   5.191  11.665  1.5135  1.0526 -1.3907
  119MOL0     H16033   6.372   5.289  11.684  2.6978 -0.1952 -0.0206
  119MOL0     H16034   6.449   5.157  11.600 -0.1583 -1.0948  0.5858
  119MOL0     H16035   6.266   5.362  11.494 -1.1936 -1.8509  3.3837
  119MOL0     H16036   6.297   5.224  11.398  2.0331  0.0280  0.2338
  119MOL0     H16037   6.446   5.435  11.341 -0.7909  1.9429  0.6740
  119MOL0     H16038   6.518   5.397  11.502  0.4180 -1.4375 -0.1975
  119MOL0     H16039   6.523   5.208  11.261  2.2040  0.4013 -1.9436
  119MOL0     H16040   6.565   5.166  11.428  1.2060 -0.2205  0.3788
  119MOL0     H16041   6.686   5.409  11.294 -2.9531  0.5665  2.2577
  119MOL0     H16042   6.742   5.324  11.437  1.2685  0.7677 -0.8473
  119MOL0     H16043   6.766   5.212  11.149 -1.4558  2.2385  0.8119
  119MOL0     H16044   6.745   5.115  11.295 -1.3361  0.0464 -0.8567
  119MOL0     H16045   6.983   5.207  11.176  1.3183 -0.5832  1.0614
  119MOL0     H16046   6.981   5.166  11.348 -1.1452 -0.1417  1.4655
  119MOL0     H16047   6.303   4.866  11.593  0.4352 -1.1067 -0.8729
  119MOL0     H16048   6.435   4.672  11.636  2.8053 -0.7623  0.8154
  119MOL0     H16049   6.539   4.345  11.813  0.1124  1.0218 -0.5832
  119MOL0     H16050   6.663   4.122  11.850  0.7774 -0.4692  0.8045
  119MOL0     H16051   6.518   3.525  11.267  0.7103  0.4434  1.1746
  119MOL0     H16052   6.483   3.268  11.299  0.4216 -0.5951 -0.2427
  119MOL0     H16053   6.281   2.878  11.128 -0.4965  2.6892  0.6562
  119MOL0     H16054   6.289   2.656  11.154  1.3050  0.5993  1.7778
  119MOL0     H16055   6.246   2.337  11.277 -2.0662  1.5090 -1.4922
  119MOL0     H16056   6.272   2.474  11.192 -4.1876 -1.4130 -1.3292
  119MOL0     H16057   6.424   2.551  11.371 -0.6338  0.8090  3.7933
  119MOL0     H16058   6.470   2.381  11.330 -0.6501 -0.2473 -1.3275
  119MOL0     H16059   6.470   2.365  11.555 -1.1539 -1.6508 -0.1663
  119MOL0     H16060   6.312   2.308  11.521  1.3573 -1.5040 -0.2876
  119MOL0     H16061   6.211   2.473  11.644  0.6034 -0.7499  3.9023
  119MOL0     H16062   6.294   2.599  11.568 -0.5739 -0.4359 -0.5716
  119MOL0     H16063   6.552   2.543  11.902  0.2511  1.1104 -0.7354
  119MOL0     H16064   6.027   2.689  11.495 -1.2796 -2.6928 -2.3958
  119MOL0     H16065   6.016   2.917  11.470  1.0555  2.0693 -0.7824
  120MOL0     O16066   0.403   8.854   7.330 -0.1407  0.2663 -0.4985
  120MOL0     C16067   0.361   8.753   7.265 -0.5108 -0.5144  0.2724
  120MOL0     O16068   0.386   8.622   7.299 -0.4433 -0.4166 -0.3997
  120MOL0     C16069   0.452   8.606   7.422 -0.2307 -0.3095 -0.1380
  120MOL0     C16070   0.387   8.618   7.540 -0.0732  0.1469 -0.2062
  120MOL0     C16071   0.450   8.583   7.664 -0.7618  0.4390 -1.7812
  120MOL0     C16072   0.579   8.539   7.665 -0.2273  0.4051 -1.6836
  120MOL0     O16073   0.652   8.488   7.778  0.3713 -0.2947  0.0734
  120MOL0     C16074   0.617   8.535   7.916  0.1295  0.2448  0.3522
  120MOL0     C16075   0.685   8.460   8.027 -0.2760  0.1143  0.2032
  120MOL0     C16076   0.599   8.349   8.079  0.4107 -0.3848  0.1774
  120MOL0     C16077   0.499   8.278   7.979 -0.4596 -0.6940 -0.1814
  120MOL0     C16078   0.431   8.152   8.035 -0.0619 -0.6607 -0.2664
  120MOL0     C16079   0.534   8.032   8.055  0.3744  0.1156  0.1523
  120MOL0     C16080   0.464   7.906   8.105  0.0583  0.6755 -0.1547
  120MOL0     C16081   0.440   7.906   8.255  0.0596  0.2368  0.0731
  120MOL0     N16082   0.565   7.890   8.340 -0.1641  0.0804  0.6095
  120MOL0     C16083   0.633   7.776   8.362 -0.4035  0.3750  0.2753
  120MOL0     C16084   0.699   7.785   8.480 -1.0242  0.7666 -0.1176
  120MOL0     C16085   0.787   7.687   8.543 -0.0726 -0.4944 -0.5246
  120MOL0     C16086   0.943   7.705   8.521 -0.2050 -0.8826  0.4358
  120MOL0     C16087   1.011   7.836   8.566 -0.0540 -0.7808 -0.0539
  120MOL0     C16088   1.037   7.815   8.721 -0.0549 -0.0920  0.8035
  120MOL0     O16089   1.072   7.929   8.796  0.3615  0.2787  0.2904
  120MOL0     C16090   0.971   8.028   8.809 -0.1729  1.4459 -1.2693
  120MOL0     C16091   0.835   7.986   8.795  0.1502 -0.1961 -0.7682
  120MOL0     C16092   0.731   8.081   8.828  0.3946 -1.0175 -0.6239
  120MOL0     C16093   0.587   8.040   8.844 -0.1774  0.3388  0.4216
  120MOL0     C16094   0.769   8.219   8.828 -0.8766  0.0717 -0.2692
  120MOL0     C16095   0.668   8.327   8.844  0.2718  0.5251 -0.3404
  120MOL0     O16096   0.643   8.427   8.756 -0.0337  0.1098 -0.2862
  120MOL0     C16097   0.686   8.425   8.621  0.3143 -0.3728  0.9361
  120MOL0     C16098   0.742   8.540   8.576 -0.9154  0.1506 -0.1665
  120MOL0     C16099   0.823   8.536   8.467  0.3829 -0.4946  0.7940
  120MOL0     C16100   0.835   8.426   8.387 -0.7173  0.8740  0.0147
  120MOL0     O16101   0.928   8.413   8.285  0.2962 -0.1079  0.1182
  120MOL0     C16102   0.981   8.530   8.233  0.0862 -0.4658  0.5198
  120MOL0     C16103   1.075   8.504   8.123  0.2468 -0.1538  0.1396
  120MOL0     C16104   1.181   8.610   8.110  0.1293  1.2013 -0.5233
  120MOL0     C16105   1.117   8.744   8.078 -0.3319 -0.3126  0.6541
  120MOL0     C16106   1.048   8.762   7.947  0.1254  0.4508 -0.1256
  120MOL0     C16107   1.139   8.737   7.834 -0.0714 -0.6046 -0.2221
  120MOL0     C16108   1.082   8.787   7.699  0.1299  0.3689  0.3877
  120MOL0     C16109   0.947   8.729   7.661  0.0221 -0.1224  0.2997
  120MOL0    Cl16110   0.870   8.841   7.553 -0.0036 -0.0551 -0.0967
  120MOL0     C16111   0.763   8.318   8.428  0.2414 -0.4259 -0.2497
  120MOL0     C16112   0.684   8.316   8.539 -1.5238 -0.3768 -0.5914
  120MOL0     O16113   0.615   8.333   8.953  0.0222 -0.9870 -0.6231
  120MOL0     C16114   0.909   8.261   8.835  0.0754  0.2394  0.5625
  120MOL0     C16115   1.004   8.162   8.830 -0.5984 -0.1878  0.2198
  120MOL0     N16116   0.684   7.918   8.522 -0.0514 -0.0785 -0.7768
  120MOL0     N16117   0.599   7.975   8.442  0.3411 -0.2286  0.8238
  120MOL0     C16118   0.645   8.538   7.543  0.0021 -0.9859  0.0442
  120MOL0     C16119   0.581   8.572   7.424 -0.3881 -0.0785  0.6795
  120MOL0     C16120   0.291   8.775   7.139  0.0479  0.0262  0.4357
  120MOL0     C16121   0.295   8.693   7.027  0.2022 -0.8514 -0.3845
  120MOL0     C16122   0.211   8.713   6.918 -0.4730 -0.4252  0.0762
  120MOL0     C16123   0.130   8.824   6.912 -0.7481 -0.2565  0.2563
  120MOL0     O16124   0.053   8.838   6.794 -0.4525  0.2459 -0.6014
  120MOL0     C16125  -0.064   8.918   6.799  0.3082  0.1212 -0.5616
  120MOL0     C16126  -0.177   8.882   6.709  0.7062  0.0699  0.2244
  120MOL0     C16127  -0.137   8.880   6.564 -0.5202  0.3518 -1.4273
  120MOL0     C16128  -0.245   8.824   6.480 -0.3529 -0.4426 -0.9790
  120MOL0     C16129  -0.217   8.843   6.336 -0.3779 -0.6535  0.4477
  120MOL0     C16130  -0.206   8.874   6.221  0.2608 -0.9140 -0.5938
  120MOL0     C16131   0.131   8.918   7.019 -0.1563 -0.6018 -0.3499
  120MOL0     C16132   0.210   8.895   7.135  0.9215  0.3941 -0.0147
  120MOL0     H16133   0.290   8.667   7.541  0.4428  1.3522 -2.6992
  120MOL0     H16134   0.393   8.574   7.756 -1.7306 -0.5833 -2.4494
  120MOL0     H16135   0.645   8.640   7.929 -0.9277  0.2898  2.8092
  120MOL0     H16136   0.509   8.533   7.928  0.0002 -0.5126 -0.8287
  120MOL0     H16137   0.783   8.426   7.990  0.9908  3.6491 -0.0878
  120MOL0     H16138   0.709   8.530   8.107 -1.2944 -0.6530  1.1967
  120MOL0     H16139   0.666   8.279   8.130  1.0069 -1.5950 -2.1411
  120MOL0     H16140   0.528   8.393   8.149  0.3092 -1.0713  0.5145
  120MOL0     H16141   0.422   8.349   7.947 -1.4327 -1.5120  0.3383
  120MOL0     H16142   0.553   8.237   7.893  0.4036 -1.3113  0.6260
  120MOL0     H16143   0.396   8.190   8.132 -3.0947  1.7738 -2.1222
  120MOL0     H16144   0.352   8.115   7.969 -0.1830 -1.2909  0.2201
  120MOL0     H16145   0.581   8.012   7.958 -0.5498 -1.0863 -0.0773
  120MOL0     H16146   0.606   8.068   8.129  0.7395  0.6063 -0.4265
  120MOL0     H16147   0.370   7.899   8.049  0.0043  1.4018 -0.1621
  120MOL0     H16148   0.519   7.814   8.086  0.0128  0.6962 -0.3913
  120MOL0     H16149   0.364   7.831   8.278  0.2240 -0.3602 -1.2048
  120MOL0     H16150   0.399   7.996   8.300 -0.7364 -1.3169  2.7171
  120MOL0     H16151   0.632   7.696   8.289 -3.6089  1.3979 -1.0117
  120MOL0     H16152   0.770   7.700   8.650  3.1683 -1.1862  0.1898
  120MOL0     H16153   0.764   7.582   8.522 -1.1621 -0.2122 -0.8281
  120MOL0     H16154   0.964   7.706   8.413  1.5638  1.3433  0.7284
  120MOL0     H16155   0.990   7.613   8.558 -0.7442 -1.1141  0.5595
  120MOL0     H16156   0.952   7.928   8.560 -0.3599 -0.8060  1.9470
  120MOL0     H16157   1.100   7.860   8.508 -0.6034 -0.9352 -0.9847
  120MOL0     H16158   1.125   7.752   8.733  0.1851 -0.1156 -0.8995
  120MOL0     H16159   0.954   7.753   8.757  1.3579 -1.3359  2.0696
  120MOL0     H16160   0.798   7.885   8.783  0.3200 -0.3739  0.1310
  120MOL0     H16161   0.529   8.111   8.905 -0.8822  1.0186 -0.9981
  120MOL0     H16162   0.542   8.046   8.744 -2.2371  0.4552  1.3041
  120MOL0     H16163   0.567   7.935   8.869  0.5908 -0.6248 -2.6194
  120MOL0     H16164   0.741   8.630   8.636  1.2374 -0.6103  1.1287
  120MOL0     H16165   0.872   8.632   8.450 -0.8372  0.1617  0.9153
  120MOL0     H16166   0.900   8.596   8.203  0.1387 -0.2238  0.9017
  120MOL0     H16167   1.042   8.579   8.310  0.2422  0.6323 -0.2667
  120MOL0     H16168   1.119   8.405   8.142 -0.1700 -0.7389 -1.7747
  120MOL0     H16169   1.021   8.500   8.028  0.1317  0.8264  0.1604
  120MOL0     H16170   1.236   8.584   8.019  0.0994  3.7181 -1.3239
  120MOL0     H16171   1.255   8.607   8.190 -2.4050 -1.6935  1.9800
  120MOL0     H16172   1.049   8.764   8.161 -0.6089 -0.4090  0.4541
  120MOL0     H16173   1.189   8.825   8.087 -0.0782 -0.6000  1.2321
  120MOL0     H16174   1.008   8.863   7.957 -1.4743 -0.3296  2.0056
  120MOL0     H16175   0.966   8.691   7.935  0.4812  0.1208 -0.6818
  120MOL0     H16176   1.230   8.790   7.861 -1.0792 -0.4695  3.4944
  120MOL0     H16177   1.159   8.630   7.822  0.5169 -0.3639 -1.5898
  120MOL0     H16178   1.149   8.779   7.613 -2.9985  0.5116 -2.2630
  120MOL0     H16179   1.063   8.893   7.715  3.2597  1.3243 -1.4606
  120MOL0     H16180   0.883   8.722   7.749 -0.4831  0.3566 -0.0215
  120MOL0     H16181   0.961   8.634   7.609  0.5432 -1.6191  3.0338
  120MOL0     H16182   0.769   8.225   8.372 -2.9871  0.1695 -1.8850
  120MOL0     H16183   0.609   8.238   8.552 -2.6258  0.1722 -3.0936
  120MOL0     H16184   0.942   8.361   8.859  1.6149  0.0574 -0.6619
  120MOL0     H16185   1.106   8.189   8.859 -0.4314  2.1645 -2.1755
  120MOL0     H16186   0.751   8.516   7.537  0.0539 -1.4750  2.0846
  120MOL0     H16187   0.634   8.582   7.329 -1.2305  0.4301  0.2394
  120MOL0     H16188   0.348   8.600   7.011  1.6589  0.0594 -1.0616
  120MOL0     H16189   0.211   8.649   6.830 -2.7979 -0.6363  0.1783
  120MOL0     H16190  -0.101   8.914   6.902 -0.6129 -0.8117 -0.9185
  120MOL0     H16191  -0.038   9.022   6.777  0.4119  0.5770  1.4469
  120MOL0     H16192  -0.258   8.955   6.721  2.2566  1.7804  0.6721
  120MOL0     H16193  -0.205   8.776   6.715  0.7022  0.1099  1.1523
  120MOL0     H16194  -0.053   8.810   6.557 -0.3430  0.2137  1.3206
  120MOL0     H16195  -0.120   8.983   6.532  0.7998  0.6482  0.1290
  120MOL0     H16196  -0.336   8.883   6.497 -1.4549 -1.8810 -1.6336
  120MOL0     H16197  -0.265   8.722   6.514  1.8674  0.1839  2.8113
  120MOL0     H16198  -0.195   8.907   6.119  2.0691  1.5916  0.3328
  120MOL0     H16199   0.081   9.014   7.008 -0.0761 -0.5189  0.0122
  120MOL0     H16200   0.217   8.968   7.215 -0.3583  0.8176 -0.2616
  121MOL0     O16201   5.704   9.471   6.242  0.4212  1.0961  0.3247
  121MOL0     C16202   5.821   9.449   6.209  0.7497  0.4190 -0.3018
  121MOL0     O16203   5.929   9.443   6.296 -0.4358 -0.5461  0.4703
  121MOL0     C16204   5.913   9.470   6.422  0.7907  0.7064 -0.6816
  121MOL0     C16205   5.801   9.440   6.510 -0.2856  0.1524  0.0252
  121MOL0     C16206   5.824   9.469   6.647  0.8122  0.1412 -0.4039
  121MOL0     C16207   5.933   9.540   6.695 -0.0267 -0.3702  0.5750
  121MOL0     O16208   5.957   9.572   6.822  0.2698 -0.8910  0.0348
  121MOL0     C16209   5.852   9.628   6.900 -0.2351 -0.3053  0.2950
  121MOL0     C16210   5.851   9.781   6.875  0.2804 -0.3514 -0.2771
  121MOL0     C16211   5.756   9.838   6.973  0.3602 -0.4005  0.7944
  121MOL0     C16212   5.803   9.845   7.123  0.0856  0.7563  0.4568
  121MOL0     C16213   5.893   9.970   7.140  0.3675  0.0814 -0.5683
  121MOL0     C16214   5.910  10.000   7.295 -0.0852  1.6824  0.9910
  121MOL0     C16215   6.016  10.100   7.314  0.5516  0.1697 -0.3934
  121MOL0     C16216   6.107  10.079   7.439 -0.4300 -0.0338 -0.4365
  121MOL0     N16217   6.184  10.192   7.470  0.1890  0.0090  0.1810
  121MOL0     C16218   6.147  10.325   7.448 -0.0986  0.8273  0.2605
  121MOL0     C16219   6.245  10.397   7.513  0.5609 -0.2289  0.6972
  121MOL0     C16220   6.243  10.545   7.545 -0.8981  0.2536 -0.1840
  121MOL0     C16221   6.248  10.640   7.418 -0.0863  0.3014  0.4293
  121MOL0     C16222   6.255  10.788   7.464  0.0344  0.6514  0.7472
  121MOL0     C16223   6.400  10.831   7.469 -0.2651  0.5621 -0.1201
  121MOL0     O16224   6.434  10.883   7.339  0.1342 -0.4521 -0.1231
  121MOL0     C16225   6.539  10.971   7.326 -0.7051 -0.3166  0.4580
  121MOL0     C16226   6.613  11.002   7.441 -0.4440  0.5364  0.5605
  121MOL0     C16227   6.708  11.102   7.429  0.6920  0.2683  0.6998
  121MOL0     C16228   6.790  11.150   7.541 -0.2019 -0.3658 -0.9266
  121MOL0     C16229   6.729  11.171   7.299  0.0916  0.5365  0.6881
  121MOL0     C16230   6.809  11.297   7.276 -0.7117 -0.1746 -0.9722
  121MOL0     O16231   6.856  11.314   7.146 -0.1406 -0.1654  0.2753
  121MOL0     C16232   6.938  11.424   7.128  0.2134  0.2107  0.2412
  121MOL0     C16233   6.880  11.543   7.080  0.3643 -0.4676  0.0912
  121MOL0     C16234   6.946  11.670   7.071  0.3862  0.4067  0.5301
  121MOL0     C16235   7.078  11.671   7.109 -0.9693 -0.4998  0.1009
  121MOL0     O16236   7.146  11.797   7.082  0.5803  0.0443 -0.9673
  121MOL0     C16237   7.283  11.786   7.078  0.1007  0.9149 -1.1738
  121MOL0     C16238   7.354  11.884   6.980  0.4576  0.9545 -0.1374
  121MOL0     C16239   7.502  11.874   6.964 -0.3421 -1.2205 -0.1203
  121MOL0     C16240   7.557  11.948   6.837 -0.1450 -0.2320 -0.2178
  121MOL0     C16241   7.709  11.951   6.850  0.4510  0.0396 -0.4126
  121MOL0     C16242   7.774  12.048   6.746 -0.2649 -0.6494  0.7423
  121MOL0     C16243   7.925  12.034   6.741  0.8430 -0.2576 -0.1243
  121MOL0     C16244   7.980  12.104   6.612  0.5356 -0.5989 -0.1554
  121MOL0    Cl16245   8.160  12.107   6.604 -0.6489  0.1994  0.2975
  121MOL0     C16246   7.140  11.551   7.158  0.5095 -0.4309 -0.1348
  121MOL0     C16247   7.072  11.431   7.171  0.2941  0.0183  0.2813
  121MOL0     O16248   6.849  11.372   7.368 -0.0887 -0.5101 -0.6875
  121MOL0     C16249   6.652  11.125   7.190  0.4618 -0.4332 -1.0472
  121MOL0     C16250   6.556  11.034   7.208  0.7208  0.1386  0.9586
  121MOL0     N16251   6.333  10.307   7.577  0.7767  0.1070 -0.5185
  121MOL0     N16252   6.304  10.187   7.546  0.7406 -0.3538  0.4684
  121MOL0     C16253   6.041   9.557   6.605  0.0209  0.1554  0.2789
  121MOL0     C16254   6.031   9.515   6.467 -0.5541 -0.1929 -0.7344
  121MOL0     C16255   5.846   9.411   6.066 -0.2647  0.3747 -0.0800
  121MOL0     C16256   5.970   9.417   5.997 -0.2884 -0.8466  0.6766
  121MOL0     C16257   5.992   9.390   5.865 -0.0205 -0.8628 -0.5002
  121MOL0     C16258   5.880   9.343   5.795 -1.1867  0.8990  0.7776
  121MOL0     O16259   5.910   9.277   5.673 -0.0228  0.6321 -0.0425
  121MOL0     C16260   5.804   9.300   5.577 -0.8305  0.3673  0.1801
  121MOL0     C16261   5.877   9.381   5.461  0.6043 -1.1040  0.0871
  121MOL0     C16262   5.786   9.362   5.341 -0.0209 -0.2184 -0.0336
  121MOL0     C16263   5.810   9.483   5.247  0.3119  0.3699 -0.2548
  121MOL0     C16264   5.743   9.459   5.117 -0.7438 -0.2261  0.1774
  121MOL0     C16265   5.700   9.415   5.013 -0.1265 -0.1840  0.8842
  121MOL0     C16266   5.757   9.350   5.852  0.1187  0.3118 -0.7764
  121MOL0     C16267   5.738   9.379   5.990  0.3371  0.3163 -0.6637
  121MOL0     H16268   5.704   9.409   6.471  0.6250 -1.8600 -0.7304
  121MOL0     H16269   5.740   9.446   6.712  0.9651 -0.9651 -0.5741
  121MOL0     H16270   5.747   9.599   6.884 -1.7743  2.9423  3.3633
  121MOL0     H16271   5.871   9.608   7.006 -1.4538  1.1560  0.8194
  121MOL0     H16272   5.949   9.821   6.904 -0.0031  1.4695 -1.6500
  121MOL0     H16273   5.821   9.801   6.772 -1.2447 -2.7940 -0.3905
  121MOL0     H16274   5.722   9.936   6.939  0.1228 -0.8475 -0.3109
  121MOL0     H16275   5.665   9.777   6.982  0.4033 -0.3397  1.7515
  121MOL0     H16276   5.723   9.854   7.197  0.0489 -2.7897  1.0258
  121MOL0     H16277   5.858   9.756   7.154  1.3011  1.1779 -0.4434
  121MOL0     H16278   5.998   9.945   7.120  0.4698  0.0730 -0.0355
  121MOL0     H16279   5.861  10.062   7.090 -3.0804  1.5038  3.6703
  121MOL0     H16280   5.812  10.035   7.330 -1.4465 -1.7634  0.9807
  121MOL0     H16281   5.922   9.908   7.353 -3.0553  0.6137  0.1259
  121MOL0     H16282   6.078  10.112   7.225  1.2945  0.4817  0.1601
  121MOL0     H16283   5.961  10.193   7.332 -0.2614 -0.6263  1.4708
  121MOL0     H16284   6.171   9.994   7.414  1.0486 -0.0719  3.0284
  121MOL0     H16285   6.045  10.058   7.526 -1.3829  1.6210 -0.6822
  121MOL0     H16286   6.061  10.361   7.393 -0.2224 -0.9210 -0.7841
  121MOL0     H16287   6.147  10.550   7.598 -0.7096 -0.5610  0.2476
  121MOL0     H16288   6.317  10.570   7.621 -2.2830  1.0900  0.9446
  121MOL0     H16289   6.154  10.622   7.364  0.4530  1.7356 -1.0544
  121MOL0     H16290   6.330  10.612   7.352 -1.2906 -0.0631 -0.9676
  121MOL0     H16291   6.200  10.799   7.558 -2.7211 -0.4363 -0.6155
  121MOL0     H16292   6.196  10.839   7.387 -1.7787 -3.4340 -0.8682
  121MOL0     H16293   6.465  10.750   7.503 -0.1801  0.5177 -0.3836
  121MOL0     H16294   6.401  10.902   7.552 -2.3069  0.7636 -0.2231
  121MOL0     H16295   6.603  10.949   7.535 -0.0186  0.2847  0.4661
  121MOL0     H16296   6.720  11.218   7.591 -2.6245 -4.3136  1.6147
  121MOL0     H16297   6.801  11.065   7.609 -0.4650 -0.5843 -1.1525
  121MOL0     H16298   6.886  11.182   7.499  0.2550 -0.6488 -0.1132
  121MOL0     H16299   6.779  11.534   7.041  0.8681 -2.6023 -0.8984
  121MOL0     H16300   6.896  11.763   7.047 -2.3893 -0.2390  3.1611
  121MOL0     H16301   7.321  11.795   7.180  2.6515 -2.0343 -1.6961
  121MOL0     H16302   7.304  11.691   7.029 -1.7086  1.3465 -2.9423
  121MOL0     H16303   7.318  11.854   6.881  1.1763 -4.0840  0.8805
  121MOL0     H16304   7.304  11.975   7.014 -2.2923 -2.3501  6.4440
  121MOL0     H16305   7.531  11.769   6.965  0.2411 -1.1134  2.9197
  121MOL0     H16306   7.534  11.926   7.055  1.0239  0.9320 -1.7106
  121MOL0     H16307   7.518  11.909   6.742 -0.0273  1.3877 -0.9752
  121MOL0     H16308   7.519  12.050   6.829 -0.5122 -0.3745 -0.2988
  121MOL0     H16309   7.752  11.855   6.820  1.1892  0.2791 -0.1443
  121MOL0     H16310   7.745  11.973   6.951  0.8115  1.6287 -0.8577
  121MOL0     H16311   7.730  12.021   6.649  2.0438  0.0732 -0.5934
  121MOL0     H16312   7.737  12.149   6.768 -1.4822  0.3155 -4.3608
  121MOL0     H16313   7.955  11.929   6.731  1.0762 -0.0044 -3.1776
  121MOL0     H16314   7.963  12.071   6.836  1.6772  2.8673 -1.5596
  121MOL0     H16315   7.938  12.205   6.619 -0.3950 -1.0770  2.2210
  121MOL0     H16316   7.929  12.052   6.531 -2.8215  0.9091  0.7831
  121MOL0     H16317   7.244  11.564   7.186  0.4370  1.7689 -0.6202
  121MOL0     H16318   7.105  11.337   7.214 -2.6023 -1.4240 -0.4024
  121MOL0     H16319   6.659  11.171   7.092 -3.6509  1.1798 -0.8006
  121MOL0     H16320   6.485  11.011   7.129  2.2187  0.7628 -0.6167
  121MOL0     H16321   6.137   9.599   6.634 -0.6022  0.8343  1.4313
  121MOL0     H16322   6.116   9.530   6.401 -1.6781  0.7234 -2.0268
  121MOL0     H16323   6.052   9.435   6.066 -2.0779  1.2955  2.4096
  121MOL0     H16324   6.092   9.372   5.825 -0.0221 -2.3705  0.0926
  121MOL0     H16325   5.773   9.201   5.544  3.8360 -0.9882 -0.9084
  121MOL0     H16326   5.720   9.362   5.610  1.7030  1.9237  4.5167
  121MOL0     H16327   5.977   9.342   5.442  0.3968 -1.0665 -1.1620
  121MOL0     H16328   5.895   9.484   5.496  1.1970 -1.2115  0.1027
  121MOL0     H16329   5.681   9.355   5.372 -1.0275  2.1304 -2.5337
  121MOL0     H16330   5.802   9.264   5.296 -2.8377 -1.0106  0.4770
  121MOL0     H16331   5.914   9.509   5.227 -0.1265  1.4021 -1.3682
  121MOL0     H16332   5.766   9.574   5.289  1.8144  1.0582 -0.1213
  121MOL0     H16333   5.667   9.367   4.923 -0.0226 -1.8740  1.7116
  121MOL0     H16334   5.663   9.309   5.816  1.1318 -1.8148 -1.1074
  121MOL0     H16335   5.636   9.387   6.025 -0.1313  0.1755 -1.9475
  122MOL0     O16336  11.353   7.886  10.043 -0.2022 -0.0781  0.0439
  122MOL0     C16337  11.423   7.899   9.947  0.6307  0.4436  0.0935
  122MOL0     O16338  11.559   7.879   9.953 -0.0327  0.1223 -0.1238
  122MOL0     C16339  11.632   7.903  10.071  0.0361  0.5467 -0.5712
  122MOL0     C16340  11.768   7.868  10.069  0.1176 -0.0215  0.1601
  122MOL0     C16341  11.854   7.889  10.177 -0.7345 -0.0720 -1.3765
  122MOL0     C16342  11.807   7.932  10.301  0.5280 -0.0859 -0.0229
  122MOL0     O16343  11.902   7.946  10.399 -0.0084  0.1903 -0.2015
  122MOL0     C16344  11.935   7.830  10.479 -0.4054 -0.6525  0.4865
  122MOL0     C16345  11.921   7.696  10.405  0.0023 -0.3718  0.9690
  122MOL0     C16346  11.984   7.581  10.484  0.1760 -0.2062  0.3334
  122MOL0     C16347  11.910   7.556  10.615  0.3073 -0.0160  0.2977
  122MOL0     C16348  11.989   7.506  10.735  0.6317 -0.8137  0.8304
  122MOL0     C16349  11.994   7.346  10.733 -0.6407  0.4591 -0.3087
  122MOL0     C16350  12.033   7.266  10.862 -0.2510  0.2532  0.5878
  122MOL0     C16351  11.900   7.253  10.941 -0.2389 -0.7135 -0.0294
  122MOL0     N16352  11.943   7.197  11.077  0.3767 -0.2334 -0.6630
  122MOL0     C16353  11.976   7.071  11.116 -0.6712  1.0746 -0.5267
  122MOL0     C16354  11.996   7.073  11.251  0.5397  0.3592 -0.6145
  122MOL0     C16355  12.065   6.970  11.336  0.2244  0.6465 -0.7114
  122MOL0     C16356  11.971   6.921  11.438  0.7454  0.2824  0.0881
  122MOL0     C16357  11.958   6.764  11.435 -0.7773 -0.2536  0.5254
  122MOL0     C16358  12.070   6.687  11.517  0.3583  0.4083  0.8904
  122MOL0     O16359  12.178   6.667  11.428 -0.0011  0.6428 -0.3836
  122MOL0     C16360  12.305   6.657  11.484 -0.6664 -0.0850  0.0621
  122MOL0     C16361  12.366   6.771  11.525 -0.6296  0.0319 -0.5807
  122MOL0     C16362  12.497   6.762  11.577 -0.7249  0.0226  0.1713
  122MOL0     C16363  12.577   6.888  11.617  0.5666 -0.1163 -1.2475
  122MOL0     C16364  12.557   6.627  11.596  1.2118 -0.0326  0.1989
  122MOL0     C16365  12.684   6.589  11.670  0.5229  0.1275  0.4467
  122MOL0     O16366  12.702   6.455  11.692 -0.2230 -0.1243  0.2426
  122MOL0     C16367  12.808   6.422  11.769 -0.3451  0.0216 -0.4863
  122MOL0     C16368  12.927   6.382  11.705 -0.5865  0.3067 -0.0400
  122MOL0     C16369  13.041   6.357  11.779  0.7878  0.1924 -1.3762
  122MOL0     C16370  13.031   6.343  11.918  0.2930 -0.0663 -0.3132
  122MOL0     O16371  13.143   6.303  11.991 -0.3954 -0.1719  0.3284
  122MOL0     C16372  13.183   6.171  11.965  0.4630  0.1293  0.2787
  122MOL0     C16373  13.330   6.144  12.002 -0.5590  0.2461  0.3092
  122MOL0     C16374  13.367   5.993  11.973  0.7477  0.6568  0.2381
  122MOL0     C16375  13.511   5.971  12.004  0.1887  0.3524  0.7544
  122MOL0     C16376  13.559   5.822  12.024  0.6898  0.9630  0.5638
  122MOL0     C16377  13.699   5.811  12.091  0.3125  0.3083  0.8280
  122MOL0     C16378  13.712   5.871  12.230  1.4342 -0.4502  1.0063
  122MOL0     C16379  13.837   5.825  12.294 -0.1208 -0.1264 -0.0493
  122MOL0    Cl16380  13.986   5.874  12.200  0.0293 -0.1420 -0.6770
  122MOL0     C16381  12.914   6.376  11.986 -0.6888 -0.3863  0.8720
  122MOL0     C16382  12.802   6.419  11.914 -0.0684  0.3556  0.8016
  122MOL0     O16383  12.767   6.680  11.694  1.3223  1.0831 -1.1981
  122MOL0     C16384  12.484   6.513  11.541 -0.1346 -0.1003 -0.9302
  122MOL0     C16385  12.356   6.533  11.488 -0.3958  0.1553 -0.1656
  122MOL0     N16386  11.967   7.202  11.294 -0.2284 -0.4465  0.5433
  122MOL0     N16387  11.931   7.267  11.191  0.5917 -0.4250 -0.6801
  122MOL0     C16388  11.667   7.963  10.310  0.8708  0.5970  0.4471
  122MOL0     C16389  11.584   7.939  10.206 -0.4139  0.4919  0.0609
  122MOL0     C16390  11.366   7.907   9.816 -0.2594 -0.0870  0.9217
  122MOL0     C16391  11.451   7.894   9.706 -0.9642  0.2075 -0.4023
  122MOL0     C16392  11.416   7.931   9.572  0.5639  0.6188 -1.6617
  122MOL0     C16393  11.298   7.997   9.564 -0.2037  0.8123 -0.6495
  122MOL0     O16394  11.257   8.060   9.452  0.5288  1.0383 -0.5471
  122MOL0     C16395  11.363   8.084   9.352 -0.8307 -1.1686 -0.0456
  122MOL0     C16396  11.351   8.206   9.271  0.0667 -0.3957 -0.0142
  122MOL0     C16397  11.259   8.184   9.144  0.7730 -0.0945 -0.8676
  122MOL0     C16398  11.113   8.179   9.170  0.3899 -0.9792 -0.4608
  122MOL0     C16399  11.051   8.306   9.226 -0.1504 -0.5913 -0.5195
  122MOL0     C16400  11.015   8.423   9.252  0.8676 -0.1299 -0.4716
  122MOL0     C16401  11.202   8.002   9.664  0.8428  1.1590 -0.0495
  122MOL0     C16402  11.233   7.956   9.790  0.3117 -0.3219  0.3458
  122MOL0     H16403  11.817   7.829   9.980  2.7100 -2.1645  2.3553
  122MOL0     H16404  11.959   7.865  10.164 -0.2104  1.5663 -0.4312
  122MOL0     H16405  12.034   7.845  10.524 -1.9285  1.7581  3.3117
  122MOL0     H16406  11.878   7.831  10.572  0.4368  3.6218  1.1722
  122MOL0     H16407  11.817   7.676  10.376  0.3717 -1.2934  0.2125
  122MOL0     H16408  11.986   7.694  10.317  2.2482 -1.3254  2.5546
  122MOL0     H16409  11.986   7.487  10.427 -4.2220 -2.0200  2.6178
  122MOL0     H16410  12.078   7.625  10.519  0.1796  0.3558 -0.3558
  122MOL0     H16411  11.858   7.648  10.646 -0.1983 -0.5357  1.0298
  122MOL0     H16412  11.827   7.493  10.582 -0.2835  0.7231  0.3283
  122MOL0     H16413  12.091   7.542  10.745 -0.3455  1.5926  3.9560
  122MOL0     H16414  11.945   7.530  10.833  1.2459  0.8065  0.7326
  122MOL0     H16415  11.906   7.298  10.689  0.3047 -2.6405  0.9138
  122MOL0     H16416  12.079   7.319  10.669 -0.9011 -1.3978  0.0970
  122MOL0     H16417  12.062   7.161  10.848  0.6782  0.5371  0.3361
  122MOL0     H16418  12.120   7.317  10.904  2.3113 -1.6909 -1.9173
  122MOL0     H16419  11.819   7.192  10.900 -1.2563  1.0034 -0.6809
  122MOL0     H16420  11.841   7.340  10.972  0.5363 -0.7133  1.5430
  122MOL0     H16421  12.012   6.989  11.054 -0.0653  0.0144  1.1623
  122MOL0     H16422  12.098   6.892  11.266 -1.5042 -0.6942 -0.1253
  122MOL0     H16423  12.145   7.007  11.400  0.9791 -2.4168  0.2752
  122MOL0     H16424  11.879   6.975  11.413  1.7944  1.7315 -0.8189
  122MOL0     H16425  12.005   6.942  11.540 -1.0531 -1.5922  1.1515
  122MOL0     H16426  11.953   6.732  11.331 -2.6036  0.6825  0.2766
  122MOL0     H16427  11.860   6.728  11.468 -2.2636  1.0927 -2.1058
  122MOL0     H16428  12.041   6.590  11.558 -0.0525  0.0977 -0.1028
  122MOL0     H16429  12.101   6.743  11.606  0.4477 -4.5478  4.3299
  122MOL0     H16430  12.316   6.867  11.528 -3.8745 -1.5347 -0.4593
  122MOL0     H16431  12.682   6.888  11.586  0.6928 -1.6782 -0.9041
  122MOL0     H16432  12.529   6.973  11.567 -2.2496 -0.1715  1.1177
  122MOL0     H16433  12.568   6.903  11.725 -0.6499 -0.5458 -1.2732
  122MOL0     H16434  12.934   6.374  11.597  1.4660 -0.3167  0.0907
  122MOL0     H16435  13.136   6.335  11.732  1.1913  1.3405 -1.1113
  122MOL0     H16436  13.108   6.109  12.014  0.7305 -1.1947 -0.9095
  122MOL0     H16437  13.177   6.150  11.858  1.9138  0.9972 -0.0153
  122MOL0     H16438  13.385   6.200  11.926  0.7853 -1.3884  0.0176
  122MOL0     H16439  13.355   6.177  12.104  0.5770  2.8271 -0.7363
  122MOL0     H16440  13.334   5.976  11.870 -2.6489 -1.0528  1.4453
  122MOL0     H16441  13.299   5.933  12.034 -0.6255 -0.3713 -2.1521
  122MOL0     H16442  13.573   6.017  11.926  0.8836 -2.1765 -0.3001
  122MOL0     H16443  13.521   6.021  12.100  1.6473  1.3861  0.1098
  122MOL0     H16444  13.564   5.779  11.923  2.0630 -1.4297  1.5646
  122MOL0     H16445  13.491   5.768  12.090  0.8701  1.0719  0.8393
  122MOL0     H16446  13.727   5.706  12.080  0.2858  0.5674 -2.8675
  122MOL0     H16447  13.765   5.863  12.021 -1.3933 -0.0563 -1.1490
  122MOL0     H16448  13.628   5.850  12.296 -0.2972 -2.8627 -1.7328
  122MOL0     H16449  13.718   5.979  12.209 -1.6352 -0.7439 -2.3766
  122MOL0     H16450  13.836   5.715  12.300 -0.2958 -0.1786 -0.8797
  122MOL0     H16451  13.841   5.872  12.392 -0.2410 -2.4581  1.1590
  122MOL0     H16452  12.898   6.367  12.093  1.0371 -0.4693  1.1501
  122MOL0     H16453  12.715   6.436  11.975 -0.5430 -0.8166  0.4863
  122MOL0     H16454  12.521   6.411  11.542 -0.3811 -0.1835 -0.1988
  122MOL0     H16455  12.292   6.450  11.461  2.3017 -1.7924 -0.9871
  122MOL0     H16456  11.611   8.000  10.396 -1.5823 -1.0656 -0.3211
  122MOL0     H16457  11.481   7.968  10.223 -1.1021 -2.1996  0.8081
  122MOL0     H16458  11.553   7.861   9.721 -1.0073  1.0759  2.3946
  122MOL0     H16459  11.487   7.926   9.490  0.9132  0.6785 -1.3677
  122MOL0     H16460  11.462   8.096   9.398  0.7840 -0.6467 -3.3325
  122MOL0     H16461  11.369   7.997   9.286  1.4892 -1.0837 -0.0280
  122MOL0     H16462  11.450   8.237   9.236  0.1623 -1.2058 -0.4870
  122MOL0     H16463  11.311   8.291   9.327  0.9443 -1.9979  3.2830
  122MOL0     H16464  11.277   8.082   9.109 -0.9141 -1.3852  1.6813
  122MOL0     H16465  11.294   8.249   9.063  3.7233  0.1978  0.5088
  122MOL0     H16466  11.077   8.099   9.235 -0.2669 -2.2970 -2.3405
  122MOL0     H16467  11.046   8.172   9.083 -2.0579 -0.6670  1.3014
  122MOL0     H16468  10.985   8.523   9.277  1.5566 -0.0660  0.1081
  122MOL0     H16469  11.099   8.030   9.646 -0.8752 -4.0059 -0.0672
  122MOL0     H16470  11.163   7.971   9.872 -0.0253  4.2562 -0.4950
  123MOL0     O16471   0.469   5.661   7.127  0.0531  0.8566 -0.3544
  123MOL0     C16472   0.490   5.717   7.231 -0.9897 -0.0958  0.2841
  123MOL0     O16473   0.593   5.784   7.258  0.4593 -0.2567  0.6266
  123MOL0     C16474   0.673   5.838   7.161 -0.4282  0.5425 -0.2612
  123MOL0     C16475   0.686   5.975   7.136  0.1370 -0.3155  0.2867
  123MOL0     C16476   0.771   6.019   7.034  0.9850 -0.6128 -0.7125
  123MOL0     C16477   0.857   5.934   6.958 -0.3104 -0.1793 -0.0094
  123MOL0     O16478   0.958   5.970   6.872  0.0002 -0.0286 -0.1497
  123MOL0     C16479   0.915   6.066   6.770 -0.0264 -0.0935 -0.3391
  123MOL0     C16480   1.017   6.186   6.788  0.5024  0.1598 -0.0756
  123MOL0     C16481   0.988   6.291   6.677  0.0134 -0.1045  0.4149
  123MOL0     C16482   1.090   6.289   6.564  0.1853  0.2824  0.1864
  123MOL0     C16483   1.221   6.336   6.614 -0.5312  0.0536 -0.0495
  123MOL0     C16484   1.336   6.238   6.580 -0.1493  0.1444 -0.2342
  123MOL0     C16485   1.465   6.289   6.657  0.6954  0.3404 -0.3572
  123MOL0     C16486   1.603   6.261   6.578 -0.3406 -1.0252  0.2474
  123MOL0     N16487   1.711   6.344   6.630 -0.0331 -0.7752  0.4561
  123MOL0     C16488   1.760   6.448   6.561 -0.9861  0.5564  0.4952
  123MOL0     C16489   1.870   6.487   6.638  0.5537 -0.7000 -0.1368
  123MOL0     C16490   1.960   6.597   6.581 -0.1324  1.0447  0.3111
  123MOL0     C16491   1.922   6.741   6.631  0.3423  0.1721  0.4185
  123MOL0     C16492   1.910   6.766   6.772 -0.3712  0.1594 -0.7419
  123MOL0     C16493   2.029   6.729   6.857 -0.2141  0.6217  0.1072
  123MOL0     O16494   2.136   6.815   6.802  0.0461  0.0846 -0.7294
  123MOL0     C16495   2.258   6.810   6.861  0.6610 -0.3113  0.3810
  123MOL0     C16496   2.341   6.917   6.856 -0.3574 -1.0698 -0.9693
  123MOL0     C16497   2.479   6.914   6.903 -0.2647  0.5054 -0.3752
  123MOL0     C16498   2.563   7.035   6.872 -0.9107 -0.2102  0.3685
  123MOL0     C16499   2.537   6.789   6.938  0.0521 -0.0497  0.1496
  123MOL0     C16500   2.683   6.762   6.963  0.4127 -0.6366 -0.2450
  123MOL0     O16501   2.713   6.633   6.989 -0.0034  1.2354 -0.2730
  123MOL0     C16502   2.836   6.582   6.994 -0.8825  0.1529  0.3702
  123MOL0     C16503   2.931   6.632   7.080  0.5665 -0.7290  0.3731
  123MOL0     C16504   3.051   6.569   7.090  1.3190  0.2327 -0.0042
  123MOL0     C16505   3.074   6.451   7.031  0.6632 -0.2193  0.8557
  123MOL0     O16506   3.196   6.405   7.060 -0.3825  0.3971  0.3788
  123MOL0     C16507   3.215   6.263   7.039 -0.0978  0.2923 -0.1507
  123MOL0     C16508   3.356   6.212   7.071  0.6890  0.0174  0.3212
  123MOL0     C16509   3.376   6.076   7.005 -0.3913  0.5692 -0.6124
  123MOL0     C16510   3.520   6.029   7.043  0.5876  0.8527  0.1890
  123MOL0     C16511   3.550   5.900   6.958 -0.0486  0.4998  0.0794
  123MOL0     C16512   3.684   5.852   7.007 -0.6717  0.5065  0.1141
  123MOL0     C16513   3.722   5.723   6.926  0.3136  0.1838 -0.3635
  123MOL0     C16514   3.853   5.670   6.991 -0.2858  0.3576  0.4228
  123MOL0    Cl16515   3.999   5.747   6.932  0.8730 -0.3631  0.1847
  123MOL0     C16516   2.969   6.388   6.955  0.2638  0.2983  0.8385
  123MOL0     C16517   2.850   6.457   6.935  0.5023  0.2480  0.8215
  123MOL0     O16518   2.766   6.853   6.948  0.7867 -0.3063 -0.6239
  123MOL0     C16519   2.450   6.675   6.939  0.4356  0.6327  0.9871
  123MOL0     C16520   2.317   6.685   6.893  0.0202 -0.0653  0.3081
  123MOL0     N16521   1.864   6.426   6.757  0.4994  0.2378  0.6201
  123MOL0     N16522   1.772   6.337   6.754  1.0189  0.6890  0.0723
  123MOL0     C16523   0.840   5.795   6.991 -0.2167  0.0847  0.0933
  123MOL0     C16524   0.748   5.750   7.088  0.3488 -0.5500 -0.8692
  123MOL0     C16525   0.381   5.726   7.340 -0.3163 -0.3037 -0.4836
  123MOL0     C16526   0.383   5.819   7.444 -1.0237  0.1923 -0.2727
  123MOL0     C16527   0.277   5.822   7.538 -0.5808  0.6342  0.0326
  123MOL0     C16528   0.163   5.732   7.523  0.5232 -0.9112  0.0881
  123MOL0     O16529   0.057   5.722   7.610 -1.1107 -0.4669 -0.1677
  123MOL0     C16530   0.001   5.848   7.661 -0.4393  0.7008 -0.3993
  123MOL0     C16531  -0.131   5.809   7.719 -0.0668 -0.6999  0.5889
  123MOL0     C16532  -0.234   5.814   7.618 -0.0845 -0.1092 -0.1157
  123MOL0     C16533  -0.251   5.681   7.554 -0.0142 -0.1588 -0.2885
  123MOL0     C16534  -0.345   5.682   7.434  1.1444  0.2559  0.1394
  123MOL0     C16535  -0.426   5.691   7.343  0.2098  0.5159 -0.6151
  123MOL0     C16536   0.163   5.638   7.424  0.2267 -0.5857  0.5410
  123MOL0     C16537   0.275   5.632   7.336  0.3777  0.1476  0.2424
  123MOL0     H16538   0.617   6.038   7.192 -0.6735  0.4942 -1.5499
  123MOL0     H16539   0.769   6.126   7.020  2.3282 -0.3616  0.7658
  123MOL0     H16540   0.931   6.012   6.676 -0.0741  0.5453 -0.7197
  123MOL0     H16541   0.813   6.105   6.777  1.1030  3.0357 -0.0681
  123MOL0     H16542   1.006   6.219   6.892 -1.8920 -0.8801  0.0883
  123MOL0     H16543   1.110   6.130   6.779  0.9005  0.3642  2.2440
  123MOL0     H16544   0.887   6.277   6.637  0.9795 -2.1499 -1.4971
  123MOL0     H16545   0.997   6.390   6.723  5.2296 -1.1945  2.4582
  123MOL0     H16546   1.087   6.189   6.521 -0.0408  0.3028  0.1504
  123MOL0     H16547   1.058   6.360   6.487 -1.1345  2.7798  2.8340
  123MOL0     H16548   1.247   6.432   6.569  1.2113 -0.1570  0.4007
  123MOL0     H16549   1.217   6.357   6.722  1.0306 -5.0939  1.3408
  123MOL0     H16550   1.300   6.141   6.616 -1.2261  1.0376  1.1969
  123MOL0     H16551   1.354   6.240   6.472  0.7559  0.4581 -0.0895
  123MOL0     H16552   1.460   6.397   6.669 -1.8115  0.3285 -0.8995
  123MOL0     H16553   1.468   6.259   6.762 -0.6899  3.7934  0.8071
  123MOL0     H16554   1.576   6.286   6.475  0.8364 -0.5716  0.0352
  123MOL0     H16555   1.625   6.154   6.586 -0.2781 -0.8726  4.3028
  123MOL0     H16556   1.723   6.476   6.463 -2.3810 -0.8352  0.5881
  123MOL0     H16557   2.056   6.552   6.609 -1.6586 -2.6272  0.1636
  123MOL0     H16558   1.948   6.590   6.473 -2.4189 -0.5982  0.5902
  123MOL0     H16559   1.827   6.770   6.585 -1.1297 -1.7728  2.0917
  123MOL0     H16560   2.006   6.799   6.591  1.4642 -0.2058  2.1203
  123MOL0     H16561   1.826   6.705   6.805  0.8587  0.8179  4.5325
  123MOL0     H16562   1.890   6.871   6.796 -0.1587  0.2593 -0.9964
  123MOL0     H16563   2.051   6.623   6.841 -1.9629 -0.1431  2.3462
  123MOL0     H16564   2.018   6.745   6.965  0.8278 -3.4265  0.9902
  123MOL0     H16565   2.304   7.014   6.822  5.5172  2.2315  0.5894
  123MOL0     H16566   2.501   7.115   6.829 -1.4666 -0.1083  1.3319
  123MOL0     H16567   2.607   7.074   6.964 -1.6343 -1.8486  1.4605
  123MOL0     H16568   2.639   7.022   6.795 -0.9495 -1.2273  0.4915
  123MOL0     H16569   2.920   6.730   7.124  2.7971  1.3384 -3.1447
  123MOL0     H16570   3.136   6.609   7.144  3.7227  0.6430 -3.7577
  123MOL0     H16571   3.144   6.214   7.107 -0.9408  0.5363 -0.8303
  123MOL0     H16572   3.175   6.237   6.941 -1.3294  2.6045 -0.3446
  123MOL0     H16573   3.428   6.280   7.023  2.0836 -1.0742  0.8023
  123MOL0     H16574   3.366   6.210   7.180 -0.2949 -0.2501  0.4079
  123MOL0     H16575   3.364   6.081   6.897  0.6157  2.1883 -0.6834
  123MOL0     H16576   3.304   6.002   7.040  0.1896  0.5395  0.5658
  123MOL0     H16577   3.602   6.101   7.035  1.6246 -0.2741  0.3442
  123MOL0     H16578   3.517   6.020   7.152  0.2579  0.4133  0.1440
  123MOL0     H16579   3.547   5.907   6.849 -0.1873 -2.6212 -0.2346
  123MOL0     H16580   3.484   5.815   6.980  0.8929 -0.3964 -0.4577
  123MOL0     H16581   3.749   5.937   6.984  1.2341 -0.9224 -0.0330
  123MOL0     H16582   3.683   5.827   7.113 -2.4437  1.5964  0.4068
  123MOL0     H16583   3.743   5.733   6.819  1.2009  1.7502 -0.0834
  123MOL0     H16584   3.639   5.653   6.931  0.9494 -0.5262  0.6392
  123MOL0     H16585   3.857   5.562   6.976 -0.7197  0.2356  1.1202
  123MOL0     H16586   3.843   5.699   7.096  1.8540  2.9440  0.0158
  123MOL0     H16587   2.966   6.293   6.903  0.5888  1.6554 -1.8887
  123MOL0     H16588   2.770   6.400   6.890  0.7324 -0.8233  1.7351
  123MOL0     H16589   2.494   6.577   6.948  1.7078  1.1281  0.4381
  123MOL0     H16590   2.262   6.592   6.880 -3.3015  1.8595 -0.5217
  123MOL0     H16591   0.891   5.710   6.947 -1.2934  0.5932 -2.2792
  123MOL0     H16592   0.749   5.644   7.111  0.4030 -0.4036 -0.1886
  123MOL0     H16593   0.459   5.894   7.462 -3.0897  2.6984 -1.3194
  123MOL0     H16594   0.273   5.890   7.623 -0.4538  0.4263  0.2069
  123MOL0     H16595   0.071   5.861   7.744 -0.4940  1.6982 -0.5039
  123MOL0     H16596  -0.004   5.933   7.592 -0.9032 -0.1663 -1.4688
  123MOL0     H16597  -0.156   5.886   7.793 -0.9112 -0.2676 -0.1319
  123MOL0     H16598  -0.136   5.710   7.766 -2.1819  0.3611  2.7816
  123MOL0     H16599  -0.217   5.883   7.534 -1.2611 -0.8649 -1.0057
  123MOL0     H16600  -0.329   5.835   7.668 -1.3781 -0.7133 -2.1872
  123MOL0     H16601  -0.287   5.612   7.631 -0.5279  2.7407  2.2665
  123MOL0     H16602  -0.154   5.640   7.526  0.1692 -2.1383  2.7979
  123MOL0     H16603  -0.499   5.706   7.266 -1.4988 -2.4093  0.3012
  123MOL0     H16604   0.076   5.575   7.412  0.5419 -0.7037 -1.4108
  123MOL0     H16605   0.272   5.569   7.248  0.7736  2.8849 -1.8234
  124MOL0     O16606   1.011   4.852   2.578  0.5013 -0.3455  0.2900
  124MOL0     C16607   1.086   4.768   2.627  0.3831 -0.3246 -0.3151
  124MOL0     O16608   1.057   4.636   2.630 -0.1607  0.1378 -0.1324
  124MOL0     C16609   0.960   4.583   2.545  0.3176  0.2682 -0.0549
  124MOL0     C16610   0.889   4.473   2.595 -0.9241 -0.1646  0.0876
  124MOL0     C16611   0.794   4.402   2.519  0.2357  0.2843  0.1503
  124MOL0     C16612   0.764   4.443   2.389 -0.1993 -0.2481  0.3984
  124MOL0     O16613   0.679   4.377   2.308 -0.7096  1.1248 -0.3903
  124MOL0     C16614   0.709   4.318   2.184  0.4399  0.7240 -0.8399
  124MOL0     C16615   0.584   4.240   2.142  0.6042 -0.5067 -0.5648
  124MOL0     C16616   0.485   4.346   2.078 -0.2452 -0.2946 -0.3312
  124MOL0     C16617   0.360   4.274   2.012  0.2354  0.7225  0.2432
  124MOL0     C16618   0.279   4.222   2.132 -0.3601  0.7163 -0.8205
  124MOL0     C16619   0.142   4.182   2.070  0.4876 -0.1713  1.0103
  124MOL0     C16620   0.037   4.103   2.154  0.2269 -0.1429 -0.0605
  124MOL0     C16621   0.080   3.951   2.152  0.1076  0.0500 -0.1479
  124MOL0     N16622   0.003   3.862   2.240  1.2329 -0.1377  0.1909
  124MOL0     C16623  -0.137   3.871   2.233  0.0862  1.4692 -0.5327
  124MOL0     C16624  -0.173   3.753   2.304 -0.6908 -0.5159  0.4811
  124MOL0     C16625  -0.309   3.679   2.310 -0.5187  0.3958 -0.8038
  124MOL0     C16626  -0.404   3.734   2.417 -0.3778 -0.3040  0.3351
  124MOL0     C16627  -0.513   3.631   2.468  0.8045 -0.3670 -0.5272
  124MOL0     C16628  -0.549   3.647   2.618 -0.5120  0.5413  0.2829
  124MOL0     O16629  -0.639   3.538   2.660  0.4987 -0.4164 -0.1723
  124MOL0     C16630  -0.665   3.519   2.791 -0.5178  0.0814 -1.5148
  124MOL0     C16631  -0.767   3.425   2.823  1.0981 -0.1530 -0.0472
  124MOL0     C16632  -0.775   3.376   2.950  0.6801 -1.3465 -0.1941
  124MOL0     C16633  -0.860   3.253   2.981  0.5273 -0.2360  0.1802
  124MOL0     C16634  -0.695   3.439   3.054  0.7433  0.4259 -1.1080
  124MOL0     C16635  -0.725   3.438   3.204  0.0876  0.8828  0.3514
  124MOL0     O16636  -0.627   3.447   3.291 -0.2441  0.2897  0.1351
  124MOL0     C16637  -0.654   3.439   3.428  0.3973  0.2606  0.5953
  124MOL0     C16638  -0.678   3.537   3.512 -0.3268 -0.9681 -0.4909
  124MOL0     C16639  -0.704   3.507   3.648 -0.0356  0.7677  0.0404
  124MOL0     C16640  -0.713   3.371   3.690  0.2691  0.7131  0.1194
  124MOL0     O16641  -0.742   3.326   3.823  0.3501  0.2271 -0.0306
  124MOL0     C16642  -0.753   3.419   3.925  1.0070  0.3649  0.1942
  124MOL0     C16643  -0.785   3.350   4.058 -0.6822  0.2153  1.2376
  124MOL0     C16644  -0.781   3.449   4.181  0.2392 -0.4947  0.0006
  124MOL0     C16645  -0.744   3.361   4.293  0.4194 -0.8526 -0.1463
  124MOL0     C16646  -0.709   3.443   4.416 -0.4124 -0.0122  0.6088
  124MOL0     C16647  -0.680   3.358   4.542  0.0953  0.3274 -0.4032
  124MOL0     C16648  -0.625   3.450   4.656  0.3621 -1.0284 -0.3672
  124MOL0     C16649  -0.600   3.398   4.789 -0.5831  0.2959 -0.0869
  124MOL0    Cl16650  -0.470   3.270   4.788  0.1989  0.3148 -0.0961
  124MOL0     C16651  -0.682   3.273   3.597 -0.8889  0.9144 -0.5970
  124MOL0     C16652  -0.647   3.303   3.470 -0.1096 -0.8643  1.1605
  124MOL0     O16653  -0.845   3.421   3.238 -0.5664  0.0387 -0.1575
  124MOL0     C16654  -0.605   3.537   3.026 -0.9137  0.2344 -0.8904
  124MOL0     C16655  -0.584   3.575   2.895  0.1585 -0.1501  0.1362
  124MOL0     N16656  -0.056   3.694   2.354  0.6751  0.2193 -0.3514
  124MOL0     N16657   0.043   3.750   2.310  0.1575 -0.2327  0.8071
  124MOL0     C16658   0.832   4.550   2.343  0.8460 -0.5744  0.0751
  124MOL0     C16659   0.927   4.626   2.417 -1.1634 -1.0253  0.7983
  124MOL0     C16660   1.214   4.831   2.669 -0.3734  0.2585 -0.5447
  124MOL0     C16661   1.333   4.756   2.659 -0.0675  0.8831  0.5574
  124MOL0     C16662   1.455   4.806   2.702 -0.6444 -0.3832  0.3307
  124MOL0     C16663   1.469   4.941   2.749  0.7248  0.3733 -0.6725
  124MOL0     O16664   1.596   4.978   2.785  0.5221  0.7305  0.1523
  124MOL0     C16665   1.617   5.112   2.834  0.4008  0.0038  0.6696
  124MOL0     C16666   1.572   5.117   2.981 -0.5450 -0.2125 -0.4607
  124MOL0     C16667   1.624   5.242   3.064 -0.2800 -0.3832  0.3299
  124MOL0     C16668   1.773   5.231   3.100  0.6722 -0.6520  0.2873
  124MOL0     C16669   1.798   5.128   3.206 -0.8027  0.9185 -0.1097
  124MOL0     C16670   1.771   5.048   3.294 -0.5123  0.6933 -1.1728
  124MOL0     C16671   1.341   5.012   2.762 -0.9481  0.6627  0.4418
  124MOL0     C16672   1.224   4.961   2.713 -0.4026  0.4128  0.2051
  124MOL0     H16673   0.907   4.428   2.693 -0.1939 -1.2705 -0.5372
  124MOL0     H16674   0.738   4.321   2.566  0.6127  0.5869  1.1513
  124MOL0     H16675   0.733   4.398   2.114  0.0068  3.5790  2.0412
  124MOL0     H16676   0.795   4.250   2.191  0.5441  0.7372 -1.8759
  124MOL0     H16677   0.622   4.162   2.075 -0.5976 -2.3738  0.8086
  124MOL0     H16678   0.540   4.192   2.230  0.5297  0.1912 -0.2191
  124MOL0     H16679   0.452   4.420   2.151 -1.5781 -0.2186 -0.9888
  124MOL0     H16680   0.540   4.398   1.999  0.4870 -0.7518 -0.1373
  124MOL0     H16681   0.309   4.354   1.959 -1.7167 -0.7992 -0.2909
  124MOL0     H16682   0.378   4.187   1.949  0.0485 -0.0991  1.2918
  124MOL0     H16683   0.336   4.137   2.171  1.3964  2.3587  0.3684
  124MOL0     H16684   0.270   4.298   2.210  3.4469  0.3934  0.1030
  124MOL0     H16685   0.091   4.277   2.051 -2.9237 -2.1063 -0.4230
  124MOL0     H16686   0.162   4.136   1.973 -0.1560 -0.3213  0.9475
  124MOL0     H16687   0.032   4.138   2.258 -0.0475  2.4769 -0.8773
  124MOL0     H16688  -0.058   4.126   2.103  1.2541  0.5455 -1.7476
  124MOL0     H16689   0.186   3.935   2.170  0.1927  1.2691  0.5595
  124MOL0     H16690   0.056   3.926   2.048  1.5725 -1.5289 -0.1406
  124MOL0     H16691  -0.205   3.932   2.176 -3.0857 -3.4121 -2.6332
  124MOL0     H16692  -0.355   3.689   2.211  1.9673 -1.1461 -2.2182
  124MOL0     H16693  -0.284   3.573   2.312  5.6305  1.5275 -0.4855
  124MOL0     H16694  -0.455   3.820   2.372  0.5295  0.3302  0.4839
  124MOL0     H16695  -0.345   3.761   2.505  1.3529 -0.4389 -0.7528
  124MOL0     H16696  -0.467   3.532   2.468  1.4022 -0.0951 -0.8613
  124MOL0     H16697  -0.609   3.637   2.415  0.3927  1.8113  0.3537
  124MOL0     H16698  -0.605   3.740   2.634 -1.7841 -0.3025  0.8564
  124MOL0     H16699  -0.452   3.659   2.668  0.6059  0.7980 -1.8232
  124MOL0     H16700  -0.831   3.380   2.747  2.8691 -2.1811 -0.4317
  124MOL0     H16701  -0.829   3.159   2.934  0.2343 -0.1783 -0.1397
  124MOL0     H16702  -0.857   3.233   3.088  1.9931  0.9505  0.3977
  124MOL0     H16703  -0.962   3.275   2.949 -0.6119 -2.4960  1.9785
  124MOL0     H16704  -0.678   3.640   3.477  2.0992  1.0729  4.5208
  124MOL0     H16705  -0.732   3.592   3.710  1.0307  0.7150  0.6119
  124MOL0     H16706  -0.651   3.458   3.931  1.6261 -1.0616 -0.5766
  124MOL0     H16707  -0.832   3.493   3.909  1.5466  1.0799  0.7667
  124MOL0     H16708  -0.880   3.299   4.039 -1.0135  1.6174 -1.2616
  124MOL0     H16709  -0.707   3.274   4.064  1.9618  2.6469  0.0150
  124MOL0     H16710  -0.875   3.500   4.203 -1.2833 -3.8448  2.0459
  124MOL0     H16711  -0.702   3.522   4.159 -0.8158  0.7148  0.1001
  124MOL0     H16712  -0.838   3.311   4.317 -1.3404  2.0028 -0.5433
  124MOL0     H16713  -0.655   3.300   4.274  1.7682  1.4388 -1.8291
  124MOL0     H16714  -0.794   3.512   4.428 -2.0692 -1.8913  0.1633
  124MOL0     H16715  -0.621   3.503   4.393 -0.7242 -0.4860 -2.0528
  124MOL0     H16716  -0.770   3.302   4.568 -0.0833  0.8081  0.0486
  124MOL0     H16717  -0.597   3.288   4.527  0.4764  0.2708  1.6051
  124MOL0     H16718  -0.694   3.531   4.679  3.4765  1.7214  0.1338
  124MOL0     H16719  -0.533   3.496   4.618 -0.6416  0.7553 -0.7042
  124MOL0     H16720  -0.688   3.352   4.834  0.6795 -1.2519  0.9159
  124MOL0     H16721  -0.564   3.475   4.858  3.2761  1.1092 -2.6523
  124MOL0     H16722  -0.685   3.172   3.636  0.9766  1.5657  1.5104
  124MOL0     H16723  -0.639   3.222   3.398  0.5124 -0.7704  1.1150
  124MOL0     H16724  -0.549   3.598   3.096  0.1282  0.3782 -1.8185
  124MOL0     H16725  -0.520   3.661   2.876  0.1025  0.1653  1.3470
  124MOL0     H16726   0.806   4.596   2.248 -1.6533  0.0583  0.9880
  124MOL0     H16727   0.985   4.704   2.368  3.2440 -3.9858  0.6160
  124MOL0     H16728   1.334   4.658   2.612 -1.8032  3.2941 -5.4247
  124MOL0     H16729   1.538   4.735   2.700 -0.7294 -0.4666 -0.9100
  124MOL0     H16730   1.725   5.131   2.827  0.7755 -1.3244  2.3339
  124MOL0     H16731   1.568   5.180   2.763 -0.6486  0.0342  1.4047
  124MOL0     H16732   1.612   5.029   3.032 -1.6217 -1.5909 -1.8993
  124MOL0     H16733   1.463   5.113   2.988 -0.9755  0.8800 -4.2175
  124MOL0     H16734   1.567   5.246   3.157  0.5885  2.5003  0.8474
  124MOL0     H16735   1.602   5.334   3.009 -1.0992 -1.1313 -0.6314
  124MOL0     H16736   1.799   5.326   3.149 -1.7461 -0.2411  0.9113
  124MOL0     H16737   1.819   5.204   3.005 -0.9724 -1.5080 -0.2972
  124MOL0     H16738   1.756   4.975   3.371 -1.9174  0.1899 -1.8866
  124MOL0     H16739   1.326   5.119   2.765 -1.8937  0.5663 -0.1566
  124MOL0     H16740   1.132   5.018   2.714 -0.9394 -0.4524  1.1776
  125MOL0     O16741   0.357   2.108   6.265 -0.7297  0.7958 -0.6738
  125MOL0     C16742   0.436   2.073   6.174 -1.2279  0.7229 -0.6291
  125MOL0     O16743   0.397   2.029   6.052 -0.0717 -0.6688 -0.6436
  125MOL0     C16744   0.262   2.017   6.027 -0.0940 -0.1544 -0.6168
  125MOL0     C16745   0.241   1.927   5.924 -0.7905  0.5722  0.3389
  125MOL0     C16746   0.111   1.915   5.862 -0.2582  0.6550 -0.8019
  125MOL0     C16747   0.009   1.996   5.899  0.0580 -0.1296  0.0966
  125MOL0     O16748  -0.122   1.978   5.859 -1.1174  0.4838  0.4060
  125MOL0     C16749  -0.134   2.017   5.716 -0.6816 -0.6997 -1.0118
  125MOL0     C16750  -0.282   2.033   5.679 -0.2999  0.2024 -0.9805
  125MOL0     C16751  -0.352   2.144   5.759 -0.1387 -0.2310  0.3717
  125MOL0     C16752  -0.264   2.271   5.784  0.4675  0.2269  0.3786
  125MOL0     C16753  -0.347   2.390   5.842 -0.3739 -0.8717  0.3676
  125MOL0     C16754  -0.448   2.443   5.738 -0.2192 -0.2458 -0.8612
  125MOL0     C16755  -0.380   2.496   5.615  1.3143 -0.5003 -0.5274
  125MOL0     C16756  -0.433   2.642   5.580  0.4425  0.6244 -0.4902
  125MOL0     N16757  -0.397   2.745   5.669  0.8418 -0.1956 -0.6304
  125MOL0     C16758  -0.449   2.876   5.668  0.7853 -0.3967  0.2048
  125MOL0     C16759  -0.363   2.932   5.752 -0.2901 -0.5562 -0.0353
  125MOL0     C16760  -0.359   3.084   5.767  0.1113 -1.0687  0.0668
  125MOL0     C16761  -0.374   3.164   5.642  0.2095  0.0875 -0.2485
  125MOL0     C16762  -0.340   3.315   5.670  0.8185  0.3418  1.1072
  125MOL0     C16763  -0.399   3.409   5.549 -0.3185  0.2232 -1.4173
  125MOL0     O16764  -0.389   3.548   5.584  0.2161 -0.0683 -0.2763
  125MOL0     C16765  -0.387   3.641   5.474  0.6993  0.6138  0.0229
  125MOL0     C16766  -0.386   3.771   5.510  0.3721  0.5884  0.5831
  125MOL0     C16767  -0.382   3.875   5.427  1.1865 -0.0283 -0.2499
  125MOL0     C16768  -0.383   4.005   5.505  0.2291  0.3050 -0.2458
  125MOL0     C16769  -0.364   3.854   5.288  0.1569 -0.1530  0.0864
  125MOL0     C16770  -0.361   3.962   5.192 -0.3287 -0.4092  0.7237
  125MOL0     O16771  -0.332   3.933   5.062  0.3077  0.4421 -0.2346
  125MOL0     C16772  -0.324   4.027   4.959  0.2512 -0.3945  0.6847
  125MOL0     C16773  -0.377   4.159   4.962  0.2274 -0.7721 -0.3863
  125MOL0     C16774  -0.385   4.248   4.847 -0.9189 -0.1277  0.9043
  125MOL0     C16775  -0.335   4.205   4.722 -0.2600 -0.5431 -0.2620
  125MOL0     O16776  -0.341   4.286   4.613 -0.4328 -0.1549 -0.4379
  125MOL0     C16777  -0.425   4.403   4.602 -0.5416 -0.4586 -0.5852
  125MOL0     C16778  -0.380   4.538   4.636  0.0921 -0.4918 -0.9237
  125MOL0     C16779  -0.491   4.635   4.657  0.6134 -0.7927  0.9252
  125MOL0     C16780  -0.553   4.628   4.797 -0.1997 -1.0809 -0.3376
  125MOL0     C16781  -0.693   4.693   4.824  0.0658  0.5334  0.2067
  125MOL0     C16782  -0.801   4.588   4.791 -0.0952 -0.1368  0.7136
  125MOL0     C16783  -0.941   4.644   4.800 -0.9802 -1.0089 -0.0201
  125MOL0     C16784  -1.031   4.551   4.875  0.3586  0.5805 -0.0679
  125MOL0    Cl16785  -1.089   4.421   4.758 -0.2045  0.4369 -0.1160
  125MOL0     C16786  -0.282   4.069   4.718  0.1982 -0.2879 -0.0454
  125MOL0     C16787  -0.278   3.988   4.826  0.8921  1.2216  0.1805
  125MOL0     O16788  -0.355   4.076   5.238 -0.3584  0.1452  0.1787
  125MOL0     C16789  -0.369   3.721   5.245  0.7543 -0.1347 -0.5240
  125MOL0     C16790  -0.383   3.614   5.335  0.7327  0.7131  0.8709
  125MOL0     N16791  -0.264   2.848   5.813  0.1811 -0.0677  0.6755
  125MOL0     N16792  -0.286   2.742   5.750 -0.3834  0.1738 -0.3818
  125MOL0     C16793   0.035   2.095   5.996 -0.1315  0.0930 -0.0946
  125MOL0     C16794   0.166   2.113   6.054  0.6227  0.6832  0.2502
  125MOL0     C16795   0.580   2.074   6.211 -0.0228 -1.0316  0.9767
  125MOL0     C16796   0.638   2.139   6.330  1.1523 -0.1431 -0.0679
  125MOL0     C16797   0.771   2.151   6.342 -0.1930  0.3065  0.8434
  125MOL0     C16798   0.861   2.092   6.249 -0.8736 -0.5787  0.3922
  125MOL0     O16799   0.995   2.112   6.269  0.3716 -0.4233 -0.7567
  125MOL0     C16800   1.083   2.022   6.200  1.0959 -0.5983  0.2805
  125MOL0     C16801   1.222   2.023   6.258  0.0281 -0.5575 -0.0090
  125MOL0     C16802   1.236   1.971   6.406  0.7859  0.5332 -0.5571
  125MOL0     C16803   1.190   1.816   6.407  0.1657 -0.8497 -0.4798
  125MOL0     C16804   1.053   1.796   6.456 -0.0832 -1.0383 -0.5158
  125MOL0     C16805   0.946   1.768   6.504 -0.1250  0.1565  0.8386
  125MOL0     C16806   0.808   2.030   6.136  0.6777  0.3724  0.8269
  125MOL0     C16807   0.669   2.013   6.121  0.0428  0.7535  0.4554
  125MOL0     H16808   0.330   1.871   5.897 -1.9881 -1.0749 -0.3066
  125MOL0     H16809   0.100   1.846   5.779 -0.0658 -0.3209 -0.0319
  125MOL0     H16810  -0.078   2.108   5.697  2.4211 -1.9660  1.1421
  125MOL0     H16811  -0.092   1.932   5.662  3.8515  0.8379 -0.2943
  125MOL0     H16812  -0.295   2.038   5.570  0.9879  3.6396 -1.0873
  125MOL0     H16813  -0.330   1.937   5.705 -1.9892  1.1513 -0.4205
  125MOL0     H16814  -0.441   2.168   5.700  1.9639  3.0686 -1.8280
  125MOL0     H16815  -0.376   2.101   5.856 -2.0208 -0.6246 -0.2207
  125MOL0     H16816  -0.192   2.234   5.858 -0.9023 -0.2115  1.5623
  125MOL0     H16817  -0.214   2.296   5.691 -1.7085 -0.4595 -1.0505
  125MOL0     H16818  -0.412   2.359   5.924 -2.1418 -0.3690 -0.8034
  125MOL0     H16819  -0.273   2.462   5.881  0.3608 -1.2550 -0.2916
  125MOL0     H16820  -0.524   2.368   5.718 -0.5909  0.1858 -1.0821
  125MOL0     H16821  -0.507   2.523   5.783 -2.5411 -2.6499  0.6894
  125MOL0     H16822  -0.272   2.493   5.631  0.9814 -2.6281  2.0928
  125MOL0     H16823  -0.413   2.429   5.535  0.1279  1.4060 -1.6886
  125MOL0     H16824  -0.541   2.633   5.568  0.5704 -1.2005 -0.6872
  125MOL0     H16825  -0.388   2.661   5.482  0.3275 -2.7247 -1.3119
  125MOL0     H16826  -0.525   2.931   5.613 -0.1753  1.4727  3.2000
  125MOL0     H16827  -0.423   3.107   5.853 -0.1079 -1.1112 -0.0861
  125MOL0     H16828  -0.253   3.105   5.787 -0.1454 -1.2920  1.8145
  125MOL0     H16829  -0.474   3.166   5.596  1.3653 -3.2279 -3.3233
  125MOL0     H16830  -0.309   3.119   5.567 -1.2138 -2.9786  0.1788
  125MOL0     H16831  -0.235   3.330   5.694  0.9124 -0.4426  1.2093
  125MOL0     H16832  -0.407   3.346   5.751 -1.2587 -1.1386  0.0501
  125MOL0     H16833  -0.503   3.383   5.528 -2.2204  2.2905  3.7852
  125MOL0     H16834  -0.340   3.382   5.461 -0.8867 -3.4037 -0.8775
  125MOL0     H16835  -0.399   3.794   5.615  0.2039  4.3787 -0.1424
  125MOL0     H16836  -0.476   4.058   5.481  0.5659  0.1893 -1.9837
  125MOL0     H16837  -0.375   3.991   5.613  1.4702 -0.8652 -0.4726
  125MOL0     H16838  -0.295   4.063   5.475 -0.5513  2.0007  0.6123
  125MOL0     H16839  -0.417   4.199   5.055  2.6632  1.6553 -0.2553
  125MOL0     H16840  -0.430   4.346   4.856 -0.8955  0.1504 -1.3648
  125MOL0     H16841  -0.439   4.418   4.495  2.0335  0.9649 -0.7982
  125MOL0     H16842  -0.522   4.387   4.650  0.2453 -0.0416  1.2332
  125MOL0     H16843  -0.305   4.557   4.713  0.2957  3.7631 -1.8926
  125MOL0     H16844  -0.331   4.577   4.547  2.2564 -0.9079  0.0331
  125MOL0     H16845  -0.568   4.604   4.586  1.3735  1.4183 -0.9910
  125MOL0     H16846  -0.453   4.733   4.626 -1.1481 -0.6605 -0.9962
  125MOL0     H16847  -0.555   4.520   4.816  2.8103 -0.8549  1.9754
  125MOL0     H16848  -0.480   4.669   4.867 -1.5428 -2.3503  1.9621
  125MOL0     H16849  -0.709   4.780   4.760  0.0158 -0.0223 -0.5505
  125MOL0     H16850  -0.692   4.718   4.930  2.2136  2.5506 -0.1870
  125MOL0     H16851  -0.782   4.544   4.693 -1.1805 -0.6392  0.7249
  125MOL0     H16852  -0.783   4.509   4.864 -1.9931  1.9401  3.6395
  125MOL0     H16853  -0.968   4.671   4.697  3.5687  0.6033 -1.0214
  125MOL0     H16854  -0.938   4.739   4.855  2.8722 -1.5707  1.0271
  125MOL0     H16855  -1.122   4.602   4.908 -2.7432 -2.9761 -2.2852
  125MOL0     H16856  -0.977   4.500   4.956 -1.6851  0.5747  1.3727
  125MOL0     H16857  -0.237   4.019   4.633  1.4578 -0.9911  1.0035
  125MOL0     H16858  -0.229   3.892   4.811 -0.2819  1.1170 -4.4558
  125MOL0     H16859  -0.384   3.706   5.139  0.6711 -0.5811 -0.4540
  125MOL0     H16860  -0.394   3.511   5.304 -3.3761  1.5236 -0.9812
  125MOL0     H16861  -0.042   2.159   6.039  0.4672  0.5032  0.3971
  125MOL0     H16862   0.185   2.199   6.116  0.5621  2.5745 -2.2034
  125MOL0     H16863   0.570   2.179   6.404  0.2822  0.6970 -1.2947
  125MOL0     H16864   0.810   2.201   6.430 -1.8662 -1.5950  2.7779
  125MOL0     H16865   1.040   1.923   6.186  3.1951 -1.4630 -0.3224
  125MOL0     H16866   1.096   2.047   6.095 -0.5416 -2.6570 -0.4701
  125MOL0     H16867   1.242   2.130   6.251 -1.8439 -0.3062 -4.2779
  125MOL0     H16868   1.282   1.955   6.196  0.4236 -0.7317  0.5517
  125MOL0     H16869   1.179   2.035   6.473  1.9350 -1.3523  2.4407
  125MOL0     H16870   1.340   1.996   6.430  0.2549  2.0793  0.2310
  125MOL0     H16871   1.253   1.754   6.471 -2.1738 -2.3386  0.4950
  125MOL0     H16872   1.184   1.786   6.301 -0.2524  2.0868 -1.3685
  125MOL0     H16873   0.856   1.734   6.552  0.0901  0.7582  1.6733
  125MOL0     H16874   0.877   1.992   6.061  0.8955  1.7805  0.2689
  125MOL0     H16875   0.635   1.955   6.036  1.2757 -0.9864  1.0940
  126MOL0     O16876   6.010   6.918   2.948  0.0552 -0.4178  0.0626
  126MOL0     C16877   6.034   6.842   2.857  0.2368  0.0305 -0.7566
  126MOL0     O16878   6.099   6.721   2.873 -0.1034 -0.1246  0.0219
  126MOL0     C16879   6.095   6.656   2.995  0.1338  1.3170  0.2085
  126MOL0     C16880   5.963   6.631   3.050 -0.2782  0.2799 -0.0352
  126MOL0     C16881   5.967   6.588   3.182  0.2664  1.0901 -0.5717
  126MOL0     C16882   6.085   6.547   3.256  0.4104 -0.8888 -0.0441
  126MOL0     O16883   6.083   6.500   3.388 -0.5904 -1.2415 -0.3503
  126MOL0     C16884   5.955   6.462   3.440  0.0882  0.5001 -0.5391
  126MOL0     C16885   5.945   6.385   3.571 -0.5470 -0.2235  0.0428
  126MOL0     C16886   6.066   6.296   3.599 -0.0785  0.6364 -0.2432
  126MOL0     C16887   6.047   6.218   3.732  0.6626  0.3138 -0.7826
  126MOL0     C16888   6.167   6.130   3.769 -0.0374 -0.5139 -0.0388
  126MOL0     C16889   6.288   6.227   3.813  0.0924  0.2075 -0.1106
  126MOL0     C16890   6.406   6.142   3.881 -0.5208  0.4966  0.0450
  126MOL0     C16891   6.525   6.223   3.911 -0.4518  0.8244 -0.0491
  126MOL0     N16892   6.608   6.151   4.003  0.4965  0.7765 -0.3939
  126MOL0     C16893   6.635   6.195   4.137 -0.2142 -0.6335 -0.1211
  126MOL0     C16894   6.738   6.110   4.174  0.5970 -0.6809  0.9700
  126MOL0     C16895   6.819   6.110   4.306 -0.3009 -0.2196 -0.1702
  126MOL0     C16896   6.954   6.171   4.289  0.4507  0.0448 -0.0215
  126MOL0     C16897   7.039   6.177   4.411 -0.1439 -0.4624  0.1048
  126MOL0     C16898   7.111   6.039   4.459 -0.1369 -0.0892 -0.4259
  126MOL0     O16899   7.171   5.977   4.344  0.0427 -0.7982 -0.9244
  126MOL0     C16900   7.243   5.865   4.367  0.4667  0.1547  0.3248
  126MOL0     C16901   7.277   5.813   4.494 -0.1258 -0.5146  0.8431
  126MOL0     C16902   7.348   5.692   4.504 -1.0379 -0.2428  1.0004
  126MOL0     C16903   7.370   5.645   4.652 -0.1892  0.3959  0.2700
  126MOL0     C16904   7.401   5.627   4.378  0.2447 -0.0305 -0.2250
  126MOL0     C16905   7.494   5.514   4.372  0.1937  0.3143 -0.3711
  126MOL0     O16906   7.561   5.486   4.489 -1.2640 -0.9620  0.3255
  126MOL0     C16907   7.664   5.393   4.485 -0.0335  0.4891 -0.3389
  126MOL0     C16908   7.770   5.425   4.411 -0.3158  0.7083 -0.3534
  126MOL0     C16909   7.868   5.329   4.396 -0.3910 -0.8292  0.1095
  126MOL0     C16910   7.859   5.203   4.466 -0.0979  0.5095 -0.2544
  126MOL0     O16911   7.937   5.093   4.464  0.8937 -0.0258  0.3464
  126MOL0     C16912   8.054   5.120   4.382  0.2225  1.0281 -1.0171
  126MOL0     C16913   8.144   4.994   4.372 -0.6756 -0.6820  0.1174
  126MOL0     C16914   8.262   5.003   4.273  0.1299 -0.4874  0.1423
  126MOL0     C16915   8.221   5.058   4.137  0.1139 -0.6768 -0.0116
  126MOL0     C16916   8.324   5.048   4.024  0.4762 -1.1124 -0.0541
  126MOL0     C16917   8.246   5.066   3.887 -0.1581  0.1126  0.2917
  126MOL0     C16918   8.174   5.193   3.869  1.6978 -0.0994 -0.5041
  126MOL0     C16919   8.267   5.311   3.849  0.5441 -0.2470 -0.7017
  126MOL0    Cl16920   8.149   5.445   3.794 -0.1145  0.0697 -0.0237
  126MOL0     C16921   7.761   5.178   4.553  1.1646  0.7144  0.2476
  126MOL0     C16922   7.660   5.275   4.555  0.4795 -0.7574 -0.2504
  126MOL0     O16923   7.488   5.437   4.274  0.0377  0.4291 -0.2163
  126MOL0     C16924   7.371   5.690   4.254  0.0742 -0.6153 -0.6584
  126MOL0     C16925   7.298   5.805   4.253 -0.4597  0.4167 -0.1069
  126MOL0     N16926   6.769   6.019   4.068  0.2013  0.7875  0.1088
  126MOL0     N16927   6.689   6.041   3.964 -0.4090  0.2333 -0.6791
  126MOL0     C16928   6.214   6.563   3.200 -0.3164  0.4419  0.7789
  126MOL0     C16929   6.220   6.622   3.067  0.4024  0.0281  0.4355
  126MOL0     C16930   6.003   6.889   2.728 -0.0012 -0.0258 -0.7063
  126MOL0     C16931   5.938   6.807   2.637 -0.4226 -0.3821  0.2161
  126MOL0     C16932   5.912   6.843   2.506 -0.4798 -0.3253 -0.0337
  126MOL0     C16933   5.940   6.978   2.466  0.0743  0.4466  0.5860
  126MOL0     O16934   5.910   7.019   2.346 -0.0246 -0.2375  0.1983
  126MOL0     C16935   5.943   7.150   2.301 -0.1159 -0.8575 -0.5795
  126MOL0     C16936   5.920   7.164   2.147 -0.4764  0.1169  0.2660
  126MOL0     C16937   5.783   7.125   2.105 -0.6768 -0.6858 -0.5410
  126MOL0     C16938   5.671   7.213   2.159 -0.4396 -0.0203 -1.1067
  126MOL0     C16939   5.552   7.210   2.070  0.3057 -0.5473  0.0887
  126MOL0     C16940   5.448   7.193   2.006  1.0357 -0.2173  0.1387
  126MOL0     C16941   6.011   7.061   2.551  0.1620  0.8645 -0.3928
  126MOL0     C16942   6.042   7.014   2.680 -0.6053 -0.2496 -0.1338
  126MOL0     H16943   5.875   6.646   2.988  0.5149  2.6593 -0.7080
  126MOL0     H16944   5.865   6.565   3.212  0.2557 -0.0289 -1.4167
  126MOL0     H16945   5.897   6.554   3.454 -0.2863  0.1750  0.0957
  126MOL0     H16946   5.908   6.406   3.358 -1.3775 -1.2472  1.3793
  126MOL0     H16947   5.931   6.451   3.658 -1.5300  0.3566 -0.5396
  126MOL0     H16948   5.854   6.325   3.574 -1.6330  1.2686 -1.2028
  126MOL0     H16949   6.097   6.222   3.525  2.2063 -0.3017  1.5302
  126MOL0     H16950   6.155   6.358   3.619  2.1584 -2.8957  1.7435
  126MOL0     H16951   6.019   6.292   3.808  0.6464  1.1039 -1.5347
  126MOL0     H16952   5.959   6.154   3.727  2.2588 -2.0861 -0.0288
  126MOL0     H16953   6.160   6.070   3.861 -1.6692 -1.3669 -0.6726
  126MOL0     H16954   6.205   6.075   3.682 -1.2864 -0.8101 -0.4176
  126MOL0     H16955   6.329   6.287   3.732  1.5986  0.4080  0.7703
  126MOL0     H16956   6.251   6.295   3.890 -2.8191 -3.3674  1.9755
  126MOL0     H16957   6.379   6.122   3.985  0.8571  2.9084  0.9531
  126MOL0     H16958   6.427   6.048   3.830  1.1550  1.7531 -1.7151
  126MOL0     H16959   6.497   6.323   3.945 -1.0473  0.2250  1.2965
  126MOL0     H16960   6.572   6.215   3.813 -0.8960 -4.0539 -0.0957
  126MOL0     H16961   6.591   6.279   4.190  1.6181  0.7761 -0.7448
  126MOL0     H16962   6.764   6.175   4.374  2.8150 -1.0008  3.4373
  126MOL0     H16963   6.822   6.005   4.338  0.2222 -0.4385 -0.8974
  126MOL0     H16964   6.944   6.270   4.242 -1.1960 -0.1542 -0.1190
  126MOL0     H16965   7.003   6.117   4.207 -1.3725  0.0695 -1.1727
  126MOL0     H16966   6.991   6.217   4.501 -2.9394 -0.5765 -1.2271
  126MOL0     H16967   7.122   6.243   4.383 -0.5177  0.2876  0.7267
  126MOL0     H16968   7.042   5.975   4.516 -1.7245  2.0818  0.2273
  126MOL0     H16969   7.184   6.062   4.537 -0.3341 -0.6058 -0.0783
  126MOL0     H16970   7.265   5.864   4.590 -4.2877  0.1656  0.1516
  126MOL0     H16971   7.461   5.696   4.686  0.1477  0.6225 -0.9243
  126MOL0     H16972   7.284   5.672   4.714  1.3153  1.6976  1.8943
  126MOL0     H16973   7.384   5.536   4.658 -1.3591  0.3186  2.7678
  126MOL0     H16974   7.776   5.516   4.352  1.9781  1.4953  0.9715
  126MOL0     H16975   7.940   5.345   4.318 -1.1575 -1.2474 -0.6983
  126MOL0     H16976   8.019   5.151   4.282 -1.2456  0.1531 -0.8031
  126MOL0     H16977   8.109   5.204   4.424 -0.1902  0.3668  0.9159
  126MOL0     H16978   8.184   4.976   4.472  4.2900 -0.8824 -1.6311
  126MOL0     H16979   8.077   4.908   4.359 -2.1200  0.4842 -0.4989
  126MOL0     H16980   8.292   4.898   4.265 -2.1316 -1.1834 -0.1694
  126MOL0     H16981   8.346   5.057   4.316 -1.5605  1.1243  1.6204
  126MOL0     H16982   8.135   5.002   4.098 -0.5737  0.0722  0.4031
  126MOL0     H16983   8.186   5.161   4.150 -1.7996 -1.4744  1.7709
  126MOL0     H16984   8.384   4.960   4.050 -0.1210 -1.2342  0.9821
  126MOL0     H16985   8.387   5.135   4.042 -0.8900  0.0809 -0.8524
  126MOL0     H16986   8.320   5.047   3.808 -1.0021  0.3872 -0.5822
  126MOL0     H16987   8.169   4.988   3.897  0.9560 -0.7457  5.0761
  126MOL0     H16988   8.113   5.210   3.958 -0.3838 -2.1090 -1.4396
  126MOL0     H16989   8.106   5.178   3.784 -0.0514  0.4318  0.7327
  126MOL0     H16990   8.343   5.304   3.771  1.1942 -0.4235 -0.0592
  126MOL0     H16991   8.323   5.340   3.938  0.5676 -1.7205 -0.2165
  126MOL0     H16992   7.752   5.083   4.605  0.1703 -0.3980 -1.8498
  126MOL0     H16993   7.579   5.269   4.627  2.7716  0.4636  2.6044
  126MOL0     H16994   7.396   5.646   4.158 -4.6162 -0.8066 -2.0721
  126MOL0     H16995   7.262   5.839   4.156 -0.4437  1.9124  0.3933
  126MOL0     H16996   6.302   6.554   3.262  0.5289  2.4988 -0.0427
  126MOL0     H16997   6.305   6.670   3.018  0.0431  0.7945  0.5512
  126MOL0     H16998   5.900   6.707   2.657 -3.7970  0.7284 -0.1465
  126MOL0     H16999   5.864   6.778   2.434  1.2338  0.1428 -1.6942
  126MOL0     H17000   5.881   7.215   2.363 -0.9154 -1.7352 -0.4493
  126MOL0     H17001   6.051   7.167   2.302  0.5443 -3.8717 -3.2258
  126MOL0     H17002   5.996   7.099   2.102 -2.0733 -1.0991 -0.7924
  126MOL0     H17003   5.936   7.262   2.102  0.0845 -0.5609 -1.0813
  126MOL0     H17004   5.763   7.019   2.123  4.0436 -1.6132  0.6028
  126MOL0     H17005   5.784   7.146   1.998 -1.4060  2.9865  0.0322
  126MOL0     H17006   5.714   7.313   2.167  1.8245 -0.9921  0.0387
  126MOL0     H17007   5.650   7.168   2.256 -0.3878 -1.0369 -1.5473
  126MOL0     H17008   5.354   7.196   1.954  1.5058  0.0787 -0.7220
  126MOL0     H17009   6.048   7.158   2.521  2.0851  1.4380  3.2119
  126MOL0     H17010   6.100   7.073   2.751 -1.1685 -0.3588  0.4267
  127MOL0     O17011   1.988  10.450   3.957 -0.0015  0.1381  0.7060
  127MOL0     C17012   1.969  10.327   3.974  0.3809 -0.3784 -0.4181
  127MOL0     O17013   1.935  10.245   3.867  0.8700  0.4134  0.0916
  127MOL0     C17014   1.941  10.293   3.739 -0.7418  0.4912 -0.2749
  127MOL0     C17015   1.829  10.347   3.672 -0.4410 -0.0020 -0.0130
  127MOL0     C17016   1.855  10.411   3.551  0.3365 -0.5146 -0.6216
  127MOL0     C17017   1.983  10.422   3.493 -0.1787 -1.2995  0.2071
  127MOL0     O17018   1.989  10.469   3.361 -0.2204  0.4368 -0.6354
  127MOL0     C17019   1.957  10.607   3.335  1.0972 -0.2943 -0.0480
  127MOL0     C17020   1.807  10.652   3.329 -0.0965 -0.1679 -0.6333
  127MOL0     C17021   1.734  10.597   3.220  0.8038  0.7291  0.3879
  127MOL0     C17022   1.588  10.632   3.224  1.9781 -0.8281  1.2043
  127MOL0     C17023   1.527  10.599   3.084 -0.2647 -0.0922  0.3476
  127MOL0     C17024   1.410  10.686   3.049  0.2665  1.0252  0.8420
  127MOL0     C17025   1.292  10.670   3.146  0.4601 -0.9434 -0.0014
  127MOL0     C17026   1.159  10.713   3.079 -0.0823 -0.0683 -0.3811
  127MOL0     N17027   1.160  10.861   3.071 -0.0970  1.1489 -0.7675
  127MOL0     C17028   1.202  10.933   2.968 -0.1123  1.3357 -0.5546
  127MOL0     C17029   1.220  11.056   3.018  1.0111 -0.2006 -0.8577
  127MOL0     C17030   1.246  11.181   2.942  0.0408  0.2128  0.9128
  127MOL0     C17031   1.116  11.227   2.870  0.2897  0.4158 -0.4877
  127MOL0     C17032   1.010  11.290   2.971 -0.3616 -0.9782 -0.3375
  127MOL0     C17033   1.069  11.410   3.053  0.3631 -0.2341  0.0128
  127MOL0     O17034   1.128  11.512   2.973 -0.0927 -1.0487 -0.8987
  127MOL0     C17035   1.042  11.610   2.926 -0.1177 -0.1395 -0.6089
  127MOL0     C17036   0.974  11.586   2.801  0.0400  0.4382  0.6096
  127MOL0     C17037   0.898  11.680   2.736  0.0228 -0.7388  0.6100
  127MOL0     C17038   0.836  11.622   2.608 -0.0379  0.3109 -0.2536
  127MOL0     C17039   0.871  11.802   2.805 -0.5630  0.2613  0.2348
  127MOL0     C17040   0.784  11.917   2.750  0.3219 -0.2604  0.5826
  127MOL0     O17041   0.752  11.908   2.615 -0.1479 -0.4028  0.2856
  127MOL0     C17042   0.662  12.003   2.552 -0.0772  0.6336 -0.7676
  127MOL0     C17043   0.532  12.006   2.601 -0.5000  0.4620  0.1237
  127MOL0     C17044   0.442  12.086   2.530  0.4484  0.0108 -0.7989
  127MOL0     C17045   0.479  12.168   2.420  0.4147 -0.2660 -0.4429
  127MOL0     O17046   0.394  12.265   2.370 -0.9151  0.4260  0.2895
  127MOL0     C17047   0.432  12.401   2.379  0.0417 -0.5655 -0.2232
  127MOL0     C17048   0.423  12.469   2.522  0.0425 -0.0342  0.6552
  127MOL0     C17049   0.279  12.519   2.542 -0.5880 -0.1839 -0.4128
  127MOL0     C17050   0.253  12.605   2.663  0.3365 -0.2541  0.5978
  127MOL0     C17051   0.260  12.556   2.804 -1.0519  0.4525  0.9448
  127MOL0     C17052   0.260  12.683   2.895  0.5054  0.6316  0.9447
  127MOL0     C17053   0.299  12.657   3.035  0.5187  0.2155  0.4593
  127MOL0     C17054   0.300  12.776   3.133 -0.1583 -0.4086 -0.3557
  127MOL0    Cl17055   0.389  12.911   3.055  0.0688 -0.3377 -0.3534
  127MOL0     C17056   0.620  12.169   2.391  0.6887 -0.3670  0.4500
  127MOL0     C17057   0.710  12.081   2.450  0.1519  0.2483  0.2244
  127MOL0     O17058   0.764  12.018   2.817 -0.0522 -0.5287 -0.4032
  127MOL0     C17059   0.931  11.831   2.931  1.1290  0.3401 -0.1935
  127MOL0     C17060   1.010  11.731   2.992 -0.0826  0.7722 -0.9369
  127MOL0     N17061   1.195  11.059   3.154 -0.0696  0.2879  0.8994
  127MOL0     N17062   1.157  10.937   3.190  0.0237 -1.1219 -0.3923
  127MOL0     C17063   2.095  10.368   3.560 -0.1520 -0.4711  0.4744
  127MOL0     C17064   2.074  10.302   3.678  1.3813 -0.0752 -0.5723
  127MOL0     C17065   1.936  10.287   4.118  0.4438  1.0776  1.2116
  127MOL0     C17066   1.936  10.150   4.155  0.6303 -0.1558  0.0971
  127MOL0     C17067   1.924  10.112   4.285 -0.2941  0.5260 -0.9011
  127MOL0     C17068   1.896  10.210   4.383 -0.0789 -0.8632  0.0217
  127MOL0     O17069   1.888  10.181   4.516  0.4773 -0.4692  0.5246
  127MOL0     C17070   1.925  10.064   4.578  0.2646  0.4178 -0.0063
  127MOL0     C17071   1.825   9.949   4.571  0.1360  0.5190  0.3137
  127MOL0     C17072   1.696   9.955   4.652  0.1897 -0.4782  0.2929
  127MOL0     C17073   1.597   9.837   4.653  0.3252 -0.5347 -0.2814
  127MOL0     C17074   1.582   9.755   4.527 -0.5258  0.0592 -1.0452
  127MOL0     C17075   1.564   9.706   4.422 -0.0182  0.7759  0.2156
  127MOL0     C17076   1.887  10.349   4.350 -0.9902 -0.6280  0.5191
  127MOL0     C17077   1.921  10.380   4.215  0.1869 -0.0264 -0.4839
  127MOL0     H17078   1.735  10.326   3.721  1.0978 -3.4502  1.7768
  127MOL0     H17079   1.769  10.439   3.492 -0.8478  2.2372  2.1087
  127MOL0     H17080   2.011  10.665   3.410 -0.1989  0.6936  0.1479
  127MOL0     H17081   2.003  10.643   3.243 -0.5338  0.6166 -0.5522
  127MOL0     H17082   1.761  10.625   3.425  0.1684 -2.8980 -1.1718
  127MOL0     H17083   1.803  10.761   3.325 -0.4570 -0.0376  1.8975
  127MOL0     H17084   1.786  10.615   3.125 -1.1949 -1.2577 -1.2101
  127MOL0     H17085   1.737  10.488   3.231  0.6946  0.4239 -1.9355
  127MOL0     H17086   1.526  10.582   3.299 -1.8254 -0.1145 -1.1873
  127MOL0     H17087   1.578  10.741   3.234 -0.8573 -0.6348 -1.8455
  127MOL0     H17088   1.600  10.624   3.006 -1.1454  3.5495  0.5089
  127MOL0     H17089   1.514  10.491   3.074  0.6545 -0.0369 -2.3915
  127MOL0     H17090   1.430  10.792   3.032  1.8806  0.4299 -1.6197
  127MOL0     H17091   1.388  10.658   2.945 -0.5933  2.9349  0.4782
  127MOL0     H17092   1.292  10.561   3.154 -0.8998 -0.9833 -0.2123
  127MOL0     H17093   1.307  10.712   3.246 -0.9948 -1.9621  0.6737
  127MOL0     H17094   1.072  10.675   3.133 -2.2123  0.7199 -3.0010
  127MOL0     H17095   1.153  10.683   2.974  1.4077  0.6241 -0.6824
  127MOL0     H17096   1.226  10.903   2.866  1.8722  1.8634 -0.2801
  127MOL0     H17097   1.290  11.266   2.995  0.5570 -0.4398  1.5548
  127MOL0     H17098   1.317  11.152   2.864 -1.3772  1.1167 -0.7825
  127MOL0     H17099   1.070  11.137   2.827 -1.4497  0.2198  1.5994
  127MOL0     H17100   1.152  11.302   2.799  0.7100 -1.8042 -2.7497
  127MOL0     H17101   0.970  11.220   3.045 -0.8601  0.9951  1.3606
  127MOL0     H17102   0.915  11.315   2.924 -0.6695  4.6084  2.4337
  127MOL0     H17103   1.140  11.361   3.121 -0.6515 -1.7268  0.0251
  127MOL0     H17104   0.999  11.465   3.117  0.1198  1.5811 -1.7363
  127MOL0     H17105   1.008  11.491   2.760 -0.0445  0.5906  0.1864
  127MOL0     H17106   0.900  11.646   2.522  2.8512 -0.0394  1.6980
  127MOL0     H17107   0.834  11.513   2.614 -0.1767  0.1393 -2.5361
  127MOL0     H17108   0.734  11.656   2.588  0.7680  2.3961 -1.2101
  127MOL0     H17109   0.508  11.960   2.696  1.1073 -0.5025  0.1083
  127MOL0     H17110   0.342  12.094   2.573  0.6628  1.6803 -0.5289
  127MOL0     H17111   0.534  12.426   2.348 -0.7434  0.4692 -2.1406
  127MOL0     H17112   0.369  12.457   2.309 -2.9554 -0.9568  1.9562
  127MOL0     H17113   0.444  12.389   2.594  4.5393  0.1858 -0.1304
  127MOL0     H17114   0.492  12.552   2.538  0.8061 -0.4103 -0.5972
  127MOL0     H17115   0.218  12.428   2.540  2.8441 -2.7308  0.1101
  127MOL0     H17116   0.243  12.578   2.457  0.8271 -0.0952 -0.9852
  127MOL0     H17117   0.322  12.689   2.654 -1.1811  1.2271  2.0704
  127MOL0     H17118   0.150  12.642   2.653  0.1137 -0.8784  0.5237
  127MOL0     H17119   0.347  12.490   2.813 -0.8478  1.0326  4.3650
  127MOL0     H17120   0.163  12.507   2.820  0.2207 -2.1346  1.2222
  127MOL0     H17121   0.324  12.758   2.849  1.9545 -0.9373  0.2724
  127MOL0     H17122   0.155  12.711   2.908  0.9733  2.2814  1.3664
  127MOL0     H17123   0.402  12.620   3.038  0.7450  0.3782 -2.6340
  127MOL0     H17124   0.227  12.595   3.089  0.9204 -1.5316 -0.9572
  127MOL0     H17125   0.347  12.744   3.226  1.3191 -0.8506 -1.2144
  127MOL0     H17126   0.199  12.809   3.160 -0.1823 -0.1731 -0.7155
  127MOL0     H17127   0.656  12.232   2.310  0.0623  1.4103  1.5060
  127MOL0     H17128   0.814  12.056   2.430 -0.2507 -1.1207 -0.2524
  127MOL0     H17129   0.903  11.915   2.994  0.8094 -0.7593  1.1973
  127MOL0     H17130   1.046  11.739   3.094 -1.0153  0.4195 -0.5690
  127MOL0     H17131   2.195  10.385   3.519  0.5270 -2.0264  1.4079
  127MOL0     H17132   2.157  10.260   3.734  0.0903 -1.3656  0.4832
  127MOL0     H17133   1.957  10.076   4.079 -0.8486  2.2105 -2.8475
  127MOL0     H17134   1.954  10.012   4.315 -1.2741  0.0774 -1.3650
  127MOL0     H17135   2.018  10.032   4.530  1.2188 -1.0076  2.5723
  127MOL0     H17136   1.948  10.086   4.683  1.3726  1.0722 -0.3774
  127MOL0     H17137   1.880   9.865   4.614  0.8436  0.9840  0.3378
  127MOL0     H17138   1.801   9.935   4.465  0.4873  0.8912  0.1820
  127MOL0     H17139   1.630  10.034   4.615 -1.0502 -1.7892 -0.3805
  127MOL0     H17140   1.745   9.974   4.748  4.0987  0.6588 -1.6820
  127MOL0     H17141   1.496   9.879   4.659 -0.7549 -2.6356 -2.2102
  127MOL0     H17142   1.615   9.767   4.735  2.5404  0.3300  0.0401
  127MOL0     H17143   1.541   9.663   4.326 -2.0456  4.2810 -1.0653
  127MOL0     H17144   1.865  10.428   4.421 -1.4505  0.4678 -0.7870
  127MOL0     H17145   1.929  10.488   4.208  1.6448  0.2121  2.8887
  128MOL0     O17146   5.856  10.903   4.897 -0.4537  0.1387  0.1258
  128MOL0     C17147   5.755  10.841   4.873 -0.0810 -0.1184 -0.0339
  128MOL0     O17148   5.737  10.717   4.810  0.4763  0.2200 -0.9848
  128MOL0     C17149   5.831  10.656   4.727 -0.5936  0.4706  0.7324
  128MOL0     C17150   5.971  10.663   4.733  0.4078 -0.0389  0.1139
  128MOL0     C17151   6.062  10.597   4.643  0.2754  0.0172  0.3432
  128MOL0     C17152   6.005  10.526   4.534 -0.4755  0.0748 -0.0710
  128MOL0     O17153   6.088  10.467   4.443 -0.3241  0.6829 -0.7557
  128MOL0     C17154   6.228  10.459   4.461 -0.3039  0.9237 -0.3164
  128MOL0     C17155   6.280  10.340   4.384 -0.6623 -0.9831  0.1836
  128MOL0     C17156   6.227  10.205   4.425 -0.5020 -0.2432 -0.1640
  128MOL0     C17157   6.232  10.099   4.321  0.4442 -0.6573  0.6409
  128MOL0     C17158   6.348   9.998   4.321 -0.4313 -0.3088  0.0202
  128MOL0     C17159   6.317   9.878   4.248 -0.4303  0.6389  0.2048
  128MOL0     C17160   6.344   9.900   4.090 -0.7693 -0.0155  0.0160
  128MOL0     C17161   6.256   9.828   3.990 -0.0866  0.2944 -0.6794
  128MOL0     N17162   6.260   9.889   3.857 -0.1997 -0.7812  0.4376
  128MOL0     C17163   6.159   9.977   3.822  0.0491 -0.1873  0.1807
  128MOL0     C17164   6.197  10.015   3.697 -0.2127  0.6207 -0.4478
  128MOL0     C17165   6.122  10.110   3.612 -0.0312 -0.1329 -0.3433
  128MOL0     C17166   6.038  10.063   3.490  0.1406 -0.5822  0.0235
  128MOL0     C17167   5.910  10.016   3.553  0.6241 -0.0366  0.6244
  128MOL0     C17168   5.830   9.934   3.445 -0.0572 -0.7024  0.4188
  128MOL0     O17169   5.906   9.827   3.393 -0.2867 -0.1937  0.2807
  128MOL0     C17170   5.868   9.737   3.288 -0.0637 -0.1258  0.1302
  128MOL0     C17171   5.752   9.751   3.214 -0.4971  0.8910  0.8510
  128MOL0     C17172   5.719   9.654   3.118  0.3521 -0.0685  0.0415
  128MOL0     C17173   5.590   9.677   3.057 -0.1381  0.8562  0.2675
  128MOL0     C17174   5.801   9.544   3.087  0.4999 -0.4661 -0.7266
  128MOL0     C17175   5.771   9.454   2.974 -1.1682 -1.2290  0.0734
  128MOL0     O17176   5.727   9.506   2.862  0.3937  0.4631  0.4259
  128MOL0     C17177   5.710   9.423   2.756 -0.5851  0.3269  0.3476
  128MOL0     C17178   5.756   9.465   2.633  0.0000  0.0732  0.5997
  128MOL0     C17179   5.737   9.383   2.515  0.4629  0.6345  0.6945
  128MOL0     C17180   5.665   9.257   2.531  0.1415  0.2675  0.0425
  128MOL0     O17181   5.636   9.173   2.426  0.3509 -0.3562  0.8693
  128MOL0     C17182   5.677   9.200   2.289  0.4418  0.7900 -0.7676
  128MOL0     C17183   5.599   9.112   2.194 -0.6476 -0.3156 -0.6602
  128MOL0     C17184   5.484   9.187   2.134  1.0194  0.1096  0.7384
  128MOL0     C17185   5.384   9.236   2.242  0.0963  0.2943 -0.0131
  128MOL0     C17186   5.257   9.285   2.172 -0.2610  0.0903  0.4544
  128MOL0     C17187   5.135   9.280   2.269 -0.2330 -1.2602 -0.1536
  128MOL0     C17188   5.006   9.263   2.191  0.2414  0.0781  0.0423
  128MOL0     C17189   4.886   9.205   2.273 -1.0449  0.2664  0.4982
  128MOL0    Cl17190   4.825   9.336   2.371  0.1564 -0.0513  0.3943
  128MOL0     C17191   5.603   9.233   2.653 -0.3910  0.0735  0.0867
  128MOL0     C17192   5.630   9.314   2.768  0.0620  0.2028  1.0594
  128MOL0     O17193   5.788   9.337   3.006 -0.2848 -0.1516  0.8862
  128MOL0     C17194   5.917   9.536   3.169  0.3847 -0.6517  1.0900
  128MOL0     C17195   5.945   9.630   3.266  0.3655  0.7231  0.3444
  128MOL0     N17196   6.313   9.948   3.670 -0.5358  0.6364  0.5532
  128MOL0     N17197   6.347   9.865   3.758  0.0533  0.1737  0.5938
  128MOL0     C17198   5.871  10.510   4.520  0.5985  0.1939  0.0723
  128MOL0     C17199   5.786  10.572   4.619  0.1588 -0.0793 -0.0094
  128MOL0     C17200   5.630  10.909   4.922 -0.4877  0.0614 -0.0539
  128MOL0     C17201   5.515  10.832   4.919  0.0372 -0.9904 -0.3283
  128MOL0     C17202   5.396  10.902   4.934  0.8618  0.5443 -0.7621
  128MOL0     C17203   5.390  11.035   4.974  0.6253 -0.3499  0.7935
  128MOL0     O17204   5.264  11.094   4.986  0.1174 -0.2227  0.6159
  128MOL0     C17205   5.244  11.170   5.104  0.5543  0.2257  0.8838
  128MOL0     C17206   5.105  11.187   5.147  1.4760  0.4716  0.3715
  128MOL0     C17207   5.032  11.053   5.175 -0.7647 -0.2640 -0.4594
  128MOL0     C17208   4.890  11.075   5.228  0.4540  0.6311 -0.0609
  128MOL0     C17209   4.897  11.131   5.367 -0.3614  0.2556  0.2529
  128MOL0     C17210   4.914  11.185   5.471 -0.7451 -0.3600  0.0926
  128MOL0     C17211   5.508  11.104   4.993  0.0881  0.0821  0.1479
  128MOL0     C17212   5.624  11.035   4.975  0.1272  0.4290  0.1342
  128MOL0     H17213   6.010  10.738   4.801  1.1419  0.5630 -0.9386
  128MOL0     H17214   6.167  10.614   4.660  0.5741  0.0244 -1.3544
  128MOL0     H17215   6.265  10.547   4.408 -0.1903  1.3995  0.5423
  128MOL0     H17216   6.257  10.448   4.565  0.8893 -2.2474 -0.8482
  128MOL0     H17217   6.259  10.348   4.277  2.6636 -0.3470 -0.5229
  128MOL0     H17218   6.389  10.341   4.387 -0.1074  1.3766 -6.1251
  128MOL0     H17219   6.288  10.181   4.513 -0.6797 -1.8496 -0.4505
  128MOL0     H17220   6.122  10.228   4.443 -0.3061  0.2793  0.3555
  128MOL0     H17221   6.143  10.038   4.337 -1.4538  1.7310 -0.1316
  128MOL0     H17222   6.215  10.155   4.228 -0.1544  0.8806  1.6294
  128MOL0     H17223   6.439  10.051   4.290 -1.4381  2.6326  1.7072
  128MOL0     H17224   6.366   9.965   4.423  2.5115 -0.2100 -0.3631
  128MOL0     H17225   6.381   9.795   4.281  1.0979  0.4383 -2.8766
  128MOL0     H17226   6.214   9.849   4.268 -1.5265  4.3837  0.6738
  128MOL0     H17227   6.336  10.006   4.064 -0.6511 -1.0753 -5.3484
  128MOL0     H17228   6.443   9.859   4.065 -1.8243 -2.6504 -0.1464
  128MOL0     H17229   6.152   9.838   4.024  0.7284  0.0309  2.1810
  128MOL0     H17230   6.293   9.725   3.990  1.1693  0.7262 -1.4003
  128MOL0     H17231   6.071  10.009   3.877 -1.1601 -2.8519 -0.0738
  128MOL0     H17232   6.066  10.179   3.675 -0.6360  1.0256 -2.0866
  128MOL0     H17233   6.202  10.178   3.581  1.2142 -1.1724  0.4461
  128MOL0     H17234   6.088   9.998   3.418  2.8187  2.7167 -1.3724
  128MOL0     H17235   6.022  10.153   3.431  0.2796 -0.8310 -0.3966
  128MOL0     H17236   5.858  10.102   3.597  1.5305 -0.2707  2.2266
  128MOL0     H17237   5.942   9.965   3.644 -3.1594  1.2074  2.8664
  128MOL0     H17238   5.804  10.001   3.363  1.1595 -0.3409  0.3071
  128MOL0     H17239   5.740   9.898   3.497  1.0622 -2.1547  1.4417
  128MOL0     H17240   5.695   9.840   3.240 -2.3946 -0.2009  0.6116
  128MOL0     H17241   5.541   9.580   3.041  0.7167  0.7926 -2.7003
  128MOL0     H17242   5.534   9.739   3.126 -1.4364 -0.5968  0.5854
  128MOL0     H17243   5.599   9.720   2.956 -1.4447 -0.8050 -0.6174
  128MOL0     H17244   5.800   9.564   2.632  0.4686 -0.1349  0.0326
  128MOL0     H17245   5.775   9.425   2.422  0.2318 -1.5281 -0.4352
  128MOL0     H17246   5.654   9.305   2.268  2.5001  1.5344  0.4092
  128MOL0     H17247   5.782   9.169   2.289 -0.7389 -4.0397 -0.3481
  128MOL0     H17248   5.671   9.096   2.113  1.6407  1.3981  0.9156
  128MOL0     H17249   5.569   9.018   2.241  3.0722 -0.0011  2.8904
  128MOL0     H17250   5.430   9.126   2.061 -2.3968  0.2779  2.9053
  128MOL0     H17251   5.520   9.270   2.071 -0.4348  0.2536  0.0554
  128MOL0     H17252   5.355   9.155   2.310 -1.4026  1.0380  0.2711
  128MOL0     H17253   5.431   9.317   2.298 -0.1879  0.7158 -0.3834
  128MOL0     H17254   5.240   9.223   2.084 -1.5716  0.1206  0.6582
  128MOL0     H17255   5.266   9.383   2.124 -1.3664 -0.6971 -1.4549
  128MOL0     H17256   5.141   9.207   2.351 -1.9167 -0.0077  1.1555
  128MOL0     H17257   5.128   9.377   2.318  3.8900 -1.2334  0.7876
  128MOL0     H17258   5.032   9.194   2.111 -1.8668 -0.2026 -0.4553
  128MOL0     H17259   4.967   9.348   2.135 -1.4871 -2.3531 -2.7261
  128MOL0     H17260   4.913   9.126   2.344  1.4877  0.2884 -0.3449
  128MOL0     H17261   4.807   9.165   2.209 -2.2375 -0.4110  2.2924
  128MOL0     H17262   5.534   9.149   2.659 -2.7014  1.8864  0.3641
  128MOL0     H17263   5.590   9.277   2.861  1.2862 -2.5807  0.5831
  128MOL0     H17264   5.991   9.458   3.155  1.6656  0.5926  0.6536
  128MOL0     H17265   6.037   9.620   3.323 -0.4457 -1.4946  1.3810
  128MOL0     H17266   5.827  10.462   4.433  2.4528  1.4289 -1.6133
  128MOL0     H17267   5.679  10.573   4.604  0.0644 -0.1946  0.6212
  128MOL0     H17268   5.512  10.724   4.903 -0.6785 -1.6205  3.1523
  128MOL0     H17269   5.298  10.857   4.947  0.7359  1.1301  0.5287
  128MOL0     H17270   5.294  11.130   5.193 -2.0511 -1.1693  1.8121
  128MOL0     H17271   5.276  11.271   5.078 -1.6753  0.2418 -2.3671
  128MOL0     H17272   5.045  11.253   5.084  1.1233  1.7003  1.9290
  128MOL0     H17273   5.105  11.247   5.239 -0.1296  0.3404  0.5017
  128MOL0     H17274   5.077  11.001   5.260 -4.3814 -3.1958 -0.0979
  128MOL0     H17275   5.051  10.989   5.089  1.6727 -1.6175  0.9843
  128MOL0     H17276   4.834  10.981   5.231  0.0881  0.8278 -0.5764
  128MOL0     H17277   4.832  11.145   5.167  0.9480  0.5519 -0.6279
  128MOL0     H17278   4.942  11.243   5.557  2.5375  1.2429 -1.8188
  128MOL0     H17279   5.518  11.211   5.003 -1.4056  0.3075 -0.4018
  128MOL0     H17280   5.718  11.089   4.986  0.0637  0.9013 -1.4059
  129MOL0     O17281   1.059   3.372   9.591  0.0478  0.2971 -0.6882
  129MOL0     C17282   1.166   3.318   9.603 -0.3562  0.1557  0.1999
  129MOL0     O17283   1.192   3.184   9.593 -0.6018 -0.1827 -1.0555
  129MOL0     C17284   1.087   3.106   9.547 -0.9750 -0.4074  0.0742
  129MOL0     C17285   0.958   3.094   9.614  0.3562  0.5501  0.7845
  129MOL0     C17286   0.858   3.002   9.562  1.1591  0.3889 -0.5361
  129MOL0     C17287   0.897   2.908   9.472 -0.6449 -0.1928 -0.0360
  129MOL0     O17288   0.805   2.818   9.433 -0.6497  0.3471 -0.3794
  129MOL0     C17289   0.774   2.810   9.291 -0.3394 -0.9499  0.9332
  129MOL0     C17290   0.632   2.766   9.269 -0.2567 -0.1040 -0.7818
  129MOL0     C17291   0.527   2.861   9.320  0.4117  0.4566  0.5058
  129MOL0     C17292   0.390   2.827   9.257 -0.6052 -0.2945 -0.9584
  129MOL0     C17293   0.399   2.832   9.103  0.3459 -0.9373  0.0991
  129MOL0     C17294   0.255   2.802   9.043  0.8131 -0.2039  0.0117
  129MOL0     C17295   0.221   2.824   8.889  0.0679  0.9259  0.3254
  129MOL0     C17296   0.245   2.966   8.838 -0.3667  0.4400  0.6373
  129MOL0     N17297   0.192   2.983   8.698 -1.0390  0.5401 -0.5395
  129MOL0     C17298   0.075   3.042   8.651 -0.8236 -0.7967 -0.2712
  129MOL0     C17299   0.084   3.048   8.519 -0.4602  0.4513 -0.1556
  129MOL0     C17300  -0.021   3.108   8.426 -0.6835  0.2450  0.0225
  129MOL0     C17301   0.032   3.229   8.344 -0.0994  0.0219  0.3260
  129MOL0     C17302   0.125   3.184   8.228  0.6992 -0.1652 -0.4811
  129MOL0     C17303   0.170   3.315   8.146  0.4604  0.0765 -0.0430
  129MOL0     O17304   0.265   3.277   8.046  0.1212  0.6793 -0.3228
  129MOL0     C17305   0.377   3.362   8.046 -0.6761 -0.4077  0.3418
  129MOL0     C17306   0.361   3.503   8.073  0.3276 -0.5857 -0.5525
  129MOL0     C17307   0.470   3.584   8.080 -0.7128 -0.4287  0.5085
  129MOL0     C17308   0.444   3.738   8.104 -0.2539  0.5270  0.1388
  129MOL0     C17309   0.603   3.539   8.054  0.8299 -0.7523  0.2077
  129MOL0     C17310   0.718   3.636   8.048  0.4663  0.4492 -0.1619
  129MOL0     O17311   0.802   3.622   7.943 -0.3004  0.0104  0.6965
  129MOL0     C17312   0.925   3.680   7.962 -0.2296 -1.2365  1.2305
  129MOL0     C17313   0.983   3.735   7.851 -0.7584 -0.4109  0.4634
  129MOL0     C17314   1.106   3.801   7.853  0.0737 -0.4257 -0.4941
  129MOL0     C17315   1.169   3.831   7.970 -0.6773  0.6715 -0.2932
  129MOL0     O17316   1.289   3.889   7.982 -0.4755  0.4371 -0.5011
  129MOL0     C17317   1.367   3.914   7.864  0.6062  0.4667 -0.4910
  129MOL0     C17318   1.503   3.967   7.909  0.6153 -0.5415 -0.5498
  129MOL0     C17319   1.603   4.013   7.798 -0.0731 -0.0919 -0.0133
  129MOL0     C17320   1.705   4.115   7.850  0.0539 -0.4566 -1.1291
  129MOL0     C17321   1.775   4.190   7.736 -0.7881 -0.2978 -0.5165
  129MOL0     C17322   1.886   4.276   7.790  0.3698 -0.0256  0.9444
  129MOL0     C17323   1.977   4.351   7.680  0.0931  0.8505 -0.2170
  129MOL0     C17324   2.105   4.409   7.760 -0.6318  0.7807 -0.0918
  129MOL0    Cl17325   2.179   4.555   7.694  0.2001 -0.1314  0.2486
  129MOL0     C17326   1.118   3.763   8.082 -0.5832  0.7339 -1.0079
  129MOL0     C17327   1.000   3.696   8.078  0.0839 -0.6566 -0.3467
  129MOL0     O17328   0.736   3.706   8.153  0.5631  0.4583  0.2585
  129MOL0     C17329   0.610   3.406   8.022 -0.4740  0.7940 -0.3738
  129MOL0     C17330   0.503   3.317   8.025 -0.1931 -0.5676  0.2894
  129MOL0     N17331   0.214   3.006   8.489  0.1759 -0.2170  0.5939
  129MOL0     N17332   0.273   2.968   8.589 -0.5211  1.1706  0.8560
  129MOL0     C17333   1.034   2.915   9.425  0.3698  0.4274  0.0053
  129MOL0     C17334   1.120   3.018   9.446 -0.3813 -0.1473 -0.4858
  129MOL0     C17335   1.276   3.395   9.644  0.2257  1.0040  0.5455
  129MOL0     C17336   1.410   3.348   9.626  0.7178 -1.0799  0.0496
  129MOL0     C17337   1.520   3.427   9.678  0.8685  0.4009  0.5561
  129MOL0     C17338   1.499   3.544   9.742  0.1935 -0.4270  0.2236
  129MOL0     O17339   1.606   3.618   9.782 -0.1786  1.1089  0.0660
  129MOL0     C17340   1.674   3.553   9.899 -0.0427  0.1164 -0.2173
  129MOL0     C17341   1.600   3.578  10.030 -0.5735  0.0855  0.0817
  129MOL0     C17342   1.579   3.731  10.046 -0.5019 -0.3215 -0.4026
  129MOL0     C17343   1.607   3.776  10.192  0.3765  0.2618 -0.4814
  129MOL0     C17344   1.746   3.740  10.238  0.2723 -0.3850  0.0160
  129MOL0     C17345   1.858   3.717  10.283 -1.6018  0.1194  0.7870
  129MOL0     C17346   1.366   3.583   9.757  1.0185  0.1609 -0.8545
  129MOL0     C17347   1.255   3.512   9.712  0.4376  0.1677 -0.1956
  129MOL0     H17348   0.935   3.165   9.693 -3.6055 -0.7038  0.9860
  129MOL0     H17349   0.757   2.992   9.598  0.9814  2.1810 -0.4350
  129MOL0     H17350   0.780   2.907   9.241  0.8349 -1.7975 -0.6185
  129MOL0     H17351   0.838   2.737   9.242  4.3473  3.5589 -0.5149
  129MOL0     H17352   0.613   2.732   9.167  0.1006  0.0066 -0.8857
  129MOL0     H17353   0.632   2.680   9.337 -2.6185  2.0373  2.2332
  129MOL0     H17354   0.515   2.836   9.426 -0.6405  0.1064  0.3057
  129MOL0     H17355   0.566   2.962   9.299  3.1043 -0.4546  0.7228
  129MOL0     H17356   0.343   2.732   9.282 -0.4183  0.1815  1.4105
  129MOL0     H17357   0.323   2.904   9.298 -0.8063 -0.6234 -0.6702
  129MOL0     H17358   0.431   2.931   9.068 -0.7825  1.1401  4.2952
  129MOL0     H17359   0.459   2.753   9.057 -0.0278 -3.7129  3.8829
  129MOL0     H17360   0.237   2.698   9.073 -1.3441 -0.0307 -0.4836
  129MOL0     H17361   0.181   2.863   9.095  0.3998  1.1449 -2.0436
  129MOL0     H17362   0.289   2.756   8.837 -0.5308 -0.7448  1.6132
  129MOL0     H17363   0.124   2.782   8.862  1.2187 -1.1751 -0.8611
  129MOL0     H17364   0.352   2.987   8.849 -0.6192  1.6055  1.0620
  129MOL0     H17365   0.192   3.037   8.902 -2.0162 -1.2248  1.1962
  129MOL0     H17366   0.006   3.083   8.725  3.8071  1.3039  3.4547
  129MOL0     H17367  -0.062   3.026   8.365 -3.3244 -1.1067  3.2738
  129MOL0     H17368  -0.108   3.146   8.481 -0.5392  1.9039 -0.8331
  129MOL0     H17369   0.095   3.291   8.408  1.3488 -2.3297  1.3390
  129MOL0     H17370  -0.057   3.281   8.307 -0.7563  0.7620  2.7553
  129MOL0     H17371   0.076   3.111   8.163 -0.6463 -0.0409  0.3540
  129MOL0     H17372   0.216   3.138   8.267  1.1862  1.0782 -0.0971
  129MOL0     H17373   0.204   3.393   8.215  2.4415  1.5877 -2.5587
  129MOL0     H17374   0.078   3.351   8.098  1.1582  1.0671 -0.6703
  129MOL0     H17375   0.263   3.539   8.102  0.9356 -2.1101  4.1333
  129MOL0     H17376   0.337   3.762   8.097 -0.6489 -1.2870 -0.9128
  129MOL0     H17377   0.475   3.753   8.208  1.0229 -0.0936 -0.1295
  129MOL0     H17378   0.501   3.798   8.033  1.4402  0.2725  1.2347
  129MOL0     H17379   0.927   3.745   7.759 -1.4051  0.6210  0.9485
  129MOL0     H17380   1.155   3.817   7.757 -0.4772  0.4511 -0.6474
  129MOL0     H17381   1.388   3.826   7.803  4.7081  0.7500  0.2035
  129MOL0     H17382   1.313   3.990   7.808  2.1948  3.6890  1.9986
  129MOL0     H17383   1.494   4.058   7.969  3.2710 -0.9014  0.5503
  129MOL0     H17384   1.549   3.894   7.977  1.9219  1.1917  0.5123
  129MOL0     H17385   1.547   4.035   7.707 -0.0511  0.3953  0.0883
  129MOL0     H17386   1.661   3.928   7.761 -1.4113 -1.0057 -0.0845
  129MOL0     H17387   1.655   4.186   7.918 -0.8591 -1.5520 -0.6221
  129MOL0     H17388   1.779   4.068   7.914  2.6661  2.4070 -1.7926
  129MOL0     H17389   1.703   4.248   7.676 -1.6282 -1.5590 -0.7781
  129MOL0     H17390   1.819   4.113   7.672 -1.7757 -1.2972 -0.0230
  129MOL0     H17391   1.840   4.347   7.861 -2.0730 -0.1658 -0.3752
  129MOL0     H17392   1.952   4.220   7.856  0.0966 -0.5794  0.7503
  129MOL0     H17393   1.918   4.436   7.644  2.2469  2.0661 -1.0750
  129MOL0     H17394   2.012   4.283   7.602  0.4138  0.1813  0.4970
  129MOL0     H17395   2.185   4.337   7.783 -2.4161 -0.8961  1.2158
  129MOL0     H17396   2.056   4.434   7.855 -1.0097  0.4867 -0.2091
  129MOL0     H17397   1.179   3.776   8.172 -1.5047  1.8052 -0.5251
  129MOL0     H17398   0.958   3.645   8.165  3.4369 -1.9941  0.6553
  129MOL0     H17399   0.710   3.366   8.006 -0.9524 -0.2509 -0.8520
  129MOL0     H17400   0.522   3.211   8.008 -0.4379 -0.5398 -0.1937
  129MOL0     H17401   1.064   2.831   9.363  2.9777 -0.0858  1.8008
  129MOL0     H17402   1.210   3.024   9.386 -0.2227  1.9102 -0.1102
  129MOL0     H17403   1.436   3.259   9.570  1.5366 -2.4249  2.4039
  129MOL0     H17404   1.615   3.377   9.666 -0.3180 -1.2941 -3.3553
  129MOL0     H17405   1.652   3.446   9.894  0.6113 -0.0550  0.4022
  129MOL0     H17406   1.782   3.570   9.895  0.1103 -0.9197 -3.9737
  129MOL0     H17407   1.644   3.529  10.117 -0.1212 -1.2484 -0.8720
  129MOL0     H17408   1.504   3.528  10.014  0.7114 -2.0516 -1.5557
  129MOL0     H17409   1.477   3.760  10.022 -0.5117  0.8042  0.8823
  129MOL0     H17410   1.641   3.782   9.971  2.8853 -1.3224  1.4869
  129MOL0     H17411   1.540   3.726  10.263 -2.1867 -1.4798 -3.8311
  129MOL0     H17412   1.601   3.886  10.193 -1.8154  0.2398  2.2324
  129MOL0     H17413   1.950   3.684  10.326  0.0600  2.3345 -0.8393
  129MOL0     H17414   1.360   3.683   9.799 -0.0450 -0.9834  1.9235
  129MOL0     H17415   1.162   3.565   9.726  1.2669  1.7715 -0.5152
  130MOL0     O17416  11.133   0.917   9.162 -0.0618  0.0899  0.1973
  130MOL0     C17417  11.228   0.929   9.237  0.4493  0.3516 -0.4161
  130MOL0     O17418  11.326   1.022   9.233  0.7392  0.2179  0.4336
  130MOL0     C17419  11.292   1.148   9.176  0.6045 -0.2755  0.0052
  130MOL0     C17420  11.297   1.169   9.038 -0.2828  1.0545  0.3266
  130MOL0     C17421  11.273   1.291   8.979  0.7421 -0.4122 -0.2588
  130MOL0     C17422  11.250   1.410   9.056 -0.7283  0.6514 -0.4615
  130MOL0     O17423  11.246   1.526   8.976 -0.0229 -0.1564  0.2668
  130MOL0     C17424  11.185   1.650   9.030 -1.1819 -0.6007  0.2687
  130MOL0     C17425  11.040   1.638   9.073 -0.2780 -0.2365  0.1806
  130MOL0     C17426  10.992   1.780   9.118  0.2927  0.2866  0.2775
  130MOL0     C17427  10.843   1.771   9.136  0.4298 -0.0761  0.2303
  130MOL0     C17428  10.767   1.767   8.999 -0.0387  0.4183  1.2900
  130MOL0     C17429  10.724   1.910   8.951 -0.0428  0.1496  0.0904
  130MOL0     C17430  10.568   1.923   8.929  0.2388 -0.0171  0.3876
  130MOL0     C17431  10.523   1.826   8.831  0.5646 -0.4511 -0.2271
  130MOL0     N17432  10.391   1.875   8.779  0.8783 -0.4186 -0.4084
  130MOL0     C17433  10.272   1.872   8.854  0.0433 -0.1191 -0.6234
  130MOL0     C17434  10.170   1.901   8.770 -0.0545 -0.2642 -0.3920
  130MOL0     C17435  10.029   1.916   8.816 -0.5012  0.8409 -0.4706
  130MOL0     C17436   9.978   1.775   8.852 -0.2596  0.2368  0.3844
  130MOL0     C17437   9.847   1.784   8.932 -0.7668  0.3341 -0.1220
  130MOL0     C17438   9.756   1.655   8.942 -0.3467  0.2268 -0.4690
  130MOL0     O17439   9.636   1.676   9.021  0.5878 -0.5372  0.1187
  130MOL0     C17440   9.553   1.567   9.030  0.0289  1.3956  0.2753
  130MOL0     C17441   9.489   1.545   9.155 -1.5690  0.0284 -0.4247
  130MOL0     C17442   9.409   1.433   9.179  0.0676  0.5792 -0.6038
  130MOL0     C17443   9.344   1.439   9.314  0.7298  0.0968  0.7786
  130MOL0     C17444   9.381   1.335   9.082  0.0738 -0.5825 -0.0201
  130MOL0     C17445   9.287   1.214   9.091  0.1045  0.7578 -0.1628
  130MOL0     O17446   9.264   1.150   8.981  0.3521 -0.1124 -0.3656
  130MOL0     C17447   9.161   1.057   8.961 -0.0166 -0.3118 -0.3482
  130MOL0     C17448   9.163   1.018   8.827 -0.6296  0.7707 -1.6968
  130MOL0     C17449   9.050   0.941   8.774  0.1417 -0.2465 -1.8286
  130MOL0     C17450   8.943   0.902   8.860 -1.1356  0.1681  0.2992
  130MOL0     O17451   8.841   0.819   8.833  1.0411  0.5436  0.5274
  130MOL0     C17452   8.815   0.776   8.705 -0.1005 -0.0865  0.3473
  130MOL0     C17453   8.894   0.649   8.652  0.0058  0.7088 -0.7647
  130MOL0     C17454   8.865   0.527   8.741 -0.0246  0.8876  0.2026
  130MOL0     C17455   8.897   0.394   8.668 -0.7180  0.3699 -0.5012
  130MOL0     C17456   8.948   0.294   8.772 -0.4270  0.0557  0.1889
  130MOL0     C17457   9.025   0.168   8.703  0.2213 -0.6605 -1.1169
  130MOL0     C17458   8.942   0.086   8.625 -0.7734 -1.2310  0.3961
  130MOL0     C17459   8.799   0.050   8.667 -0.3207 -0.7987 -0.1528
  130MOL0    Cl17460   8.793   0.003   8.854 -0.2335 -0.1241  0.0727
  130MOL0     C17461   8.958   0.939   8.994  0.3988 -1.0589 -0.1670
  130MOL0     C17462   9.064   1.009   9.044  0.3276 -0.4962 -0.6292
  130MOL0     O17463   9.220   1.211   9.194 -0.2522 -0.4977 -0.1835
  130MOL0     C17464   9.454   1.353   8.967  0.5443 -0.6801  0.9465
  130MOL0     C17465   9.537   1.466   8.942  0.4765  0.0068 -0.7984
  130MOL0     N17466  10.222   1.900   8.637 -0.1523 -0.9397  0.2488
  130MOL0     N17467  10.348   1.889   8.646  0.3188 -0.7189 -0.1014
  130MOL0     C17468  11.250   1.400   9.194  0.4731  0.0893 -0.9330
  130MOL0     C17469  11.278   1.269   9.253  0.8878 -1.1832  0.0787
  130MOL0     C17470  11.249   0.836   9.351 -0.0901  0.8310  0.3081
  130MOL0     C17471  11.159   0.727   9.373 -0.2066  0.3302  0.8868
  130MOL0     C17472  11.160   0.644   9.485  0.4434 -0.3737 -0.8792
  130MOL0     C17473  11.255   0.670   9.589  0.6968 -0.0294  0.4706
  130MOL0     O17474  11.262   0.587   9.697  0.6915 -0.5377 -0.1951
  130MOL0     C17475  11.345   0.615   9.807  0.5573  0.0745 -0.3312
  130MOL0     C17476  11.269   0.573   9.935  0.1959 -0.1802 -0.6451
  130MOL0     C17477  11.361   0.614  10.059  0.5564  1.0369  0.8319
  130MOL0     C17478  11.313   0.576  10.194  0.7244  0.1372 -0.5141
  130MOL0     C17479  11.440   0.555  10.276 -0.1466  0.0718  0.6281
  130MOL0     C17480  11.543   0.556  10.335 -0.2719  0.5187  0.0184
  130MOL0     C17481  11.347   0.775   9.566 -0.0993  0.2912  0.5497
  130MOL0     C17482  11.354   0.852   9.445  0.2011  0.3215 -0.2971
  130MOL0     H17483  11.315   1.087   8.970 -3.2784  1.1828 -0.7451
  130MOL0     H17484  11.272   1.295   8.870  0.3408 -2.4758 -0.3647
  130MOL0     H17485  11.235   1.677   9.123 -2.1007 -1.0208  0.9034
  130MOL0     H17486  11.187   1.745   8.976  1.5732  1.2127  3.2224
  130MOL0     H17487  10.982   1.589   8.993 -1.9903  0.6544  0.8252
  130MOL0     H17488  11.029   1.584   9.168  1.2019 -0.3990  0.2784
  130MOL0     H17489  11.042   1.798   9.213 -0.2223 -1.0916  0.8410
  130MOL0     H17490  11.037   1.861   9.061 -0.8422 -0.8151 -2.3652
  130MOL0     H17491  10.813   1.688   9.201 -3.4631  2.3317  1.8680
  130MOL0     H17492  10.811   1.859   9.193  4.9063  0.7674  1.8109
  130MOL0     H17493  10.824   1.720   8.918  2.1151  5.2854 -0.3729
  130MOL0     H17494  10.682   1.699   9.012  0.7391 -1.2805 -1.4233
  130MOL0     H17495  10.752   1.986   9.024  0.4996  1.1663 -1.1484
  130MOL0     H17496  10.770   1.933   8.854 -2.5156 -3.2981 -2.1541
  130MOL0     H17497  10.508   1.910   9.020 -0.0076  3.4836  0.8456
  130MOL0     H17498  10.549   2.025   8.895  0.4067  0.0745  0.5664
  130MOL0     H17499  10.505   1.729   8.879  0.7756 -0.0659  0.6456
  130MOL0     H17500  10.596   1.818   8.750 -0.5992 -1.5103 -1.2141
  130MOL0     H17501  10.270   1.848   8.959 -2.7297  0.7718 -0.3874
  130MOL0     H17502  10.050   1.974   8.906  1.9995  0.0796 -0.4771
  130MOL0     H17503   9.965   1.974   8.749  1.9034  2.4876 -1.5063
  130MOL0     H17504  10.044   1.713   8.913  1.7913  2.6533  0.7935
  130MOL0     H17505   9.968   1.724   8.756 -0.3368 -1.2822  1.1657
  130MOL0     H17506   9.798   1.872   8.890  1.2625  2.6711  2.0926
  130MOL0     H17507   9.867   1.813   9.036  1.0634  0.5150 -0.4879
  130MOL0     H17508   9.803   1.567   8.987 -0.8301  0.4908  0.5891
  130MOL0     H17509   9.731   1.627   8.839  0.2582  0.3388 -0.6511
  130MOL0     H17510   9.508   1.607   9.242 -0.0311 -2.6003  1.2821
  130MOL0     H17511   9.246   1.485   9.294 -0.0957 -2.4457 -1.7057
  130MOL0     H17512   9.318   1.348   9.369 -2.1040 -0.9610 -2.0081
  130MOL0     H17513   9.395   1.511   9.379 -0.9233  3.5881 -1.4799
  130MOL0     H17514   9.238   1.046   8.754 -0.9788 -0.5604 -2.6028
  130MOL0     H17515   9.053   0.919   8.668 -1.0393  0.2041 -1.9738
  130MOL0     H17516   8.711   0.746   8.695 -0.2536  0.9042 -1.3445
  130MOL0     H17517   8.835   0.857   8.635 -0.9541  1.4674  1.8334
  130MOL0     H17518   8.866   0.620   8.551  0.0796 -1.6483 -0.1574
  130MOL0     H17519   8.999   0.677   8.663  0.0015  0.4576  0.0101
  130MOL0     H17520   8.758   0.539   8.757 -0.0792  0.5072  0.1302
  130MOL0     H17521   8.911   0.536   8.840 -0.2976  0.4459  0.3729
  130MOL0     H17522   8.814   0.360   8.606  0.5753  0.1540 -2.2135
  130MOL0     H17523   8.974   0.404   8.591  0.6007 -0.1143  0.7066
  130MOL0     H17524   8.867   0.262   8.839 -1.5257 -2.1219 -2.0235
  130MOL0     H17525   9.023   0.336   8.839  0.6394  0.8370 -1.4347
  130MOL0     H17526   9.108   0.202   8.641  0.8576 -3.0513 -1.6651
  130MOL0     H17527   9.063   0.104   8.784 -2.0046  1.9484  2.3154
  130MOL0     H17528   8.987  -0.013   8.612 -0.0594 -0.7919 -0.6414
  130MOL0     H17529   8.944   0.132   8.525  1.4306 -2.0249  0.0060
  130MOL0     H17530   8.774  -0.042   8.614  3.7895 -1.2589 -1.7341
  130MOL0     H17531   8.727   0.131   8.655 -2.4304 -2.6690 -0.5918
  130MOL0     H17532   8.877   0.912   9.061 -2.8529  2.7331 -2.1950
  130MOL0     H17533   9.060   1.030   9.150  1.3981 -2.1823 -0.2208
  130MOL0     H17534   9.456   1.282   8.885  0.6412 -2.0646  2.1197
  130MOL0     H17535   9.584   1.467   8.844  1.2673 -0.1479 -0.4276
  130MOL0     H17536  11.237   1.492   9.250  1.7441  0.4695 -1.2289
  130MOL0     H17537  11.286   1.241   9.358  1.2761 -0.3937  0.2652
  130MOL0     H17538  11.083   0.717   9.297  1.1998  1.8792 -0.8206
  130MOL0     H17539  11.095   0.560   9.508  1.5135 -0.5419  1.9184
  130MOL0     H17540  11.440   0.561   9.798 -0.2872 -1.3875 -0.8310
  130MOL0     H17541  11.375   0.720   9.820  2.8795 -0.7759  2.0910
  130MOL0     H17542  11.251   0.465   9.934 -1.6219  0.0568  0.9760
  130MOL0     H17543  11.171   0.620   9.938 -0.1888 -1.0108  1.3664
  130MOL0     H17544  11.382   0.721  10.051 -0.4258  1.3743  2.4720
  130MOL0     H17545  11.462   0.575  10.038 -0.0467  1.3645 -3.6057
  130MOL0     H17546  11.251   0.486  10.198 -0.7388  1.1454  0.8712
  130MOL0     H17547  11.255   0.651  10.248  0.4413 -0.7426  0.4230
  130MOL0     H17548  11.626   0.556  10.404  2.7237  2.4146 -3.2479
  130MOL0     H17549  11.433   0.795   9.629  1.9672  1.4196 -2.3817
  130MOL0     H17550  11.424   0.932   9.423  0.8180 -0.3199 -0.7515
  131MOL0     O17551   3.011   6.139   3.399  0.0928 -0.2616  0.2431
  131MOL0     C17552   2.979   6.221   3.309 -0.5620  0.1531 -0.3418
  131MOL0     O17553   3.038   6.236   3.185 -0.0918 -0.0524 -0.0889
  131MOL0     C17554   3.146   6.154   3.139  0.1012 -0.1718  1.0851
  131MOL0     C17555   3.158   6.145   2.997  0.7183  1.1278  0.4507
  131MOL0     C17556   3.266   6.075   2.944 -0.5476  0.2238  0.3902
  131MOL0     C17557   3.369   6.007   3.014 -0.2116 -1.2848  0.4658
  131MOL0     O17558   3.476   5.934   2.954  0.0139 -1.0173 -0.5809
  131MOL0     C17559   3.510   5.967   2.820  0.4382 -0.7084  0.4656
  131MOL0     C17560   3.637   5.908   2.767  0.4560 -0.0771 -0.1844
  131MOL0     C17561   3.754   6.004   2.743  0.3194  0.2164 -0.9402
  131MOL0     C17562   3.873   5.921   2.689 -0.2543  0.1501 -0.0361
  131MOL0     C17563   4.009   5.989   2.658  0.0058 -0.0763 -0.5791
  131MOL0     C17564   3.991   6.135   2.619  0.5837  1.3074  0.3402
  131MOL0     C17565   4.125   6.194   2.562 -1.1683  0.7559  0.3258
  131MOL0     C17566   4.091   6.329   2.509  0.5147 -0.3362 -0.1940
  131MOL0     N17567   4.205   6.394   2.442 -0.5971 -0.8864 -0.3865
  131MOL0     C17568   4.322   6.452   2.501  1.2961 -0.8387  1.0551
  131MOL0     C17569   4.391   6.507   2.399  0.6461 -1.0435  0.0827
  131MOL0     C17570   4.529   6.566   2.396 -0.1329 -0.0176  0.2389
  131MOL0     C17571   4.536   6.721   2.402  0.1421  0.2637  0.6913
  131MOL0     C17572   4.686   6.763   2.410 -0.4706 -0.6807  0.0080
  131MOL0     C17573   4.696   6.884   2.498 -0.7542  0.3620 -0.0823
  131MOL0     O17574   4.833   6.921   2.527  1.4410  0.1833  0.3357
  131MOL0     C17575   4.894   6.834   2.619  0.1198 -0.3729 -0.3825
  131MOL0     C17576   4.991   6.748   2.565  0.6746 -0.3801 -0.2960
  131MOL0     C17577   5.063   6.662   2.642 -0.2496 -0.0282  0.2206
  131MOL0     C17578   5.168   6.587   2.560 -0.1189  0.0597  0.2355
  131MOL0     C17579   5.038   6.655   2.787 -0.0281 -0.6850 -0.5768
  131MOL0     C17580   5.125   6.587   2.883 -0.2972 -0.3717 -0.0971
  131MOL0     O17581   5.091   6.584   3.021  0.4870 -0.2577 -0.1986
  131MOL0     C17582   5.175   6.526   3.109  0.0261  0.3546  0.1267
  131MOL0     C17583   5.296   6.584   3.140 -0.9531 -0.0335 -2.5121
  131MOL0     C17584   5.365   6.534   3.243 -0.2946 -0.3671 -0.3586
  131MOL0     C17585   5.330   6.413   3.311  0.1953  0.4141 -0.6003
  131MOL0     O17586   5.414   6.347   3.398  0.9872  0.3810  0.3175
  131MOL0     C17587   5.422   6.424   3.523 -0.1951  0.5348  0.4843
  131MOL0     C17588   5.506   6.355   3.618  0.0441  0.2086  1.1733
  131MOL0     C17589   5.556   6.450   3.733 -0.1981  0.3924 -0.9511
  131MOL0     C17590   5.611   6.374   3.855  0.0100  0.0559  0.4948
  131MOL0     C17591   5.626   6.457   3.976 -0.4424 -0.9971 -0.2780
  131MOL0     C17592   5.764   6.519   3.995  0.9438  0.1070  0.4925
  131MOL0     C17593   5.871   6.406   4.032  0.3032  0.3331 -0.8177
  131MOL0     C17594   6.000   6.464   4.061 -0.0249  0.1782 -0.6093
  131MOL0    Cl17595   6.091   6.518   3.919  0.1628  0.1735  0.1498
  131MOL0     C17596   5.208   6.350   3.275  0.0072  0.1990 -0.1967
  131MOL0     C17597   5.129   6.410   3.176  0.4188 -0.1847 -1.3007
  131MOL0     O17598   5.215   6.519   2.833  0.3416 -1.0584  0.3751
  131MOL0     C17599   4.942   6.742   2.839 -0.7551 -0.3679 -1.0635
  131MOL0     C17600   4.869   6.831   2.758  0.7191 -0.0096 -0.4114
  131MOL0     N17601   4.331   6.472   2.276  0.1597 -0.5538 -0.4921
  131MOL0     N17602   4.213   6.427   2.310 -0.5987 -0.0939  0.4630
  131MOL0     C17603   3.351   6.012   3.160  0.0234 -0.4238  0.3757
  131MOL0     C17604   3.247   6.086   3.218 -0.5399 -0.6478 -0.2995
  131MOL0     C17605   2.881   6.324   3.343  0.2484  1.2566  0.7746
  131MOL0     C17606   2.815   6.399   3.244  0.7005  1.2890 -0.4927
  131MOL0     C17607   2.699   6.468   3.283 -0.0277  0.1177  0.2077
  131MOL0     C17608   2.669   6.501   3.418  0.1880  0.3883 -0.5667
  131MOL0     O17609   2.569   6.595   3.429  0.2933 -0.2748 -0.2388
  131MOL0     C17610   2.527   6.602   3.569 -0.9192 -0.1848  0.4907
  131MOL0     C17611   2.408   6.698   3.587 -0.4251  0.4629 -0.0926
  131MOL0     C17612   2.353   6.709   3.738 -0.9104  0.7383 -0.6898
  131MOL0     C17613   2.248   6.815   3.732 -0.2367  0.7337 -0.1323
  131MOL0     C17614   2.205   6.853   3.872 -0.0932  0.7861  0.1074
  131MOL0     C17615   2.180   6.887   3.988 -0.2765 -0.5246 -0.5537
  131MOL0     C17616   2.741   6.426   3.517  0.8066  0.2175 -0.2420
  131MOL0     C17617   2.835   6.336   3.477 -0.2984  0.0764  0.2642
  131MOL0     H17618   3.076   6.182   2.936 -0.9881 -1.1813  1.1885
  131MOL0     H17619   3.263   6.072   2.835 -2.9792 -1.1316  0.4362
  131MOL0     H17620   3.431   5.929   2.754  1.1005 -2.3703  0.5758
  131MOL0     H17621   3.506   6.075   2.802  0.1840 -0.8228 -0.2235
  131MOL0     H17622   3.666   5.822   2.827  0.8188  0.4720  0.4490
  131MOL0     H17623   3.611   5.871   2.668 -2.1804 -3.5006  1.5830
  131MOL0     H17624   3.725   6.078   2.667 -1.1166 -1.2459 -1.9065
  131MOL0     H17625   3.774   6.056   2.837 -1.0106 -0.7961 -0.0614
  131MOL0     H17626   3.883   5.838   2.760 -0.4398  0.1082 -0.0591
  131MOL0     H17627   3.844   5.876   2.593  0.0136 -4.1799  1.6717
  131MOL0     H17628   4.062   5.973   2.752  1.1643 -0.0444 -1.2067
  131MOL0     H17629   4.062   5.944   2.573  0.8084 -0.4637  0.1195
  131MOL0     H17630   3.917   6.142   2.539  2.3980  3.4107 -1.2878
  131MOL0     H17631   3.958   6.182   2.711 -1.5045 -0.6633  0.6936
  131MOL0     H17632   4.194   6.209   2.645 -1.8047 -0.4135  1.0939
  131MOL0     H17633   4.165   6.120   2.492 -0.7322 -0.3848  1.7319
  131MOL0     H17634   4.053   6.405   2.578 -1.2112  0.5146 -1.9982
  131MOL0     H17635   4.003   6.314   2.446 -3.2334 -1.0999  4.5871
  131MOL0     H17636   4.351   6.482   2.601  0.6243  2.3081  0.3994
  131MOL0     H17637   4.574   6.528   2.488 -1.5087  2.2508  1.9375
  131MOL0     H17638   4.592   6.530   2.313  0.5148 -2.1916  1.5839
  131MOL0     H17639   4.488   6.741   2.499  1.0130  3.3827  0.5872
  131MOL0     H17640   4.493   6.774   2.317 -0.1172 -0.0943  0.5961
  131MOL0     H17641   4.718   6.800   2.312 -2.6770  1.0451 -0.1332
  131MOL0     H17642   4.747   6.682   2.451  1.4039  0.2414 -0.8528
  131MOL0     H17643   4.640   6.871   2.591  3.0230  0.7328  2.4882
  131MOL0     H17644   4.657   6.974   2.449 -0.5629 -0.1665 -1.2594
  131MOL0     H17645   5.022   6.765   2.462  1.8128 -0.3144  0.0404
  131MOL0     H17646   5.260   6.571   2.616 -2.2866 -5.3895  2.9555
  131MOL0     H17647   5.128   6.488   2.538 -0.8966 -0.1337  2.3176
  131MOL0     H17648   5.191   6.634   2.464 -0.0366  0.0533  0.2518
  131MOL0     H17649   5.347   6.663   3.086  1.7732 -0.8408 -1.3022
  131MOL0     H17650   5.463   6.576   3.267  0.4314 -0.4490 -2.8821
  131MOL0     H17651   5.461   6.525   3.512  1.7038 -0.3155 -1.3757
  131MOL0     H17652   5.319   6.438   3.555 -1.2977  1.4524 -3.0083
  131MOL0     H17653   5.468   6.259   3.653 -1.0169 -0.6926 -2.0417
  131MOL0     H17654   5.592   6.324   3.557 -1.9638 -0.7827 -1.3440
  131MOL0     H17655   5.479   6.520   3.768 -0.2425 -0.0178 -0.2147
  131MOL0     H17656   5.638   6.497   3.678 -0.6919 -0.0350 -2.0674
  131MOL0     H17657   5.532   6.304   3.883 -2.4259  2.4557  0.0408
  131MOL0     H17658   5.702   6.315   3.841 -0.2234  0.1330 -1.7511
  131MOL0     H17659   5.608   6.390   4.061 -0.3594  1.0841  1.4830
  131MOL0     H17660   5.553   6.539   3.978  1.8172  1.2438 -2.7277
  131MOL0     H17661   5.782   6.579   3.905  1.0759  1.8938  1.6546
  131MOL0     H17662   5.754   6.586   4.081 -1.6118 -1.5946  1.6682
  131MOL0     H17663   5.870   6.335   3.949  0.7892  0.7242 -1.1613
  131MOL0     H17664   5.836   6.347   4.118 -2.9581  1.5874 -1.1237
  131MOL0     H17665   6.056   6.395   4.125  2.3977  0.6398 -2.1061
  131MOL0     H17666   5.980   6.548   4.128  3.0261 -0.1047  0.8560
  131MOL0     H17667   5.186   6.254   3.320 -0.7457 -0.3800 -1.7135
  131MOL0     H17668   5.040   6.357   3.142  0.1633  1.1989 -2.9712
  131MOL0     H17669   4.933   6.759   2.946 -1.0754 -2.4826 -0.7063
  131MOL0     H17670   4.792   6.896   2.797  1.3011  0.4262  0.0344
  131MOL0     H17671   3.432   5.963   3.214 -0.1817 -0.5777  0.5463
  131MOL0     H17672   3.236   6.097   3.325 -3.9838  0.3246 -0.6451
  131MOL0     H17673   2.845   6.402   3.140  3.0261 -1.2189 -0.0114
  131MOL0     H17674   2.655   6.515   3.196 -0.2110  0.2885  0.3902
  131MOL0     H17675   2.496   6.503   3.602  2.8958 -1.1079  1.7945
  131MOL0     H17676   2.604   6.634   3.640  0.0795  1.2781 -1.1419
  131MOL0     H17677   2.333   6.680   3.509  1.0921 -0.1151 -1.4622
  131MOL0     H17678   2.445   6.798   3.561  0.5160 -0.2867 -1.7886
  131MOL0     H17679   2.423   6.748   3.813  1.3870  2.9491 -3.7468
  131MOL0     H17680   2.301   6.616   3.764 -3.1194  1.3735 -2.5161
  131MOL0     H17681   2.164   6.776   3.674  1.0002  0.0386 -1.5344
  131MOL0     H17682   2.291   6.905   3.686  0.4818  1.6215  2.1596
  131MOL0     H17683   2.162   6.926   4.086 -3.5047  0.4258 -1.3994
  131MOL0     H17684   2.726   6.433   3.624  0.3948 -0.0818 -0.2775
  131MOL0     H17685   2.877   6.277   3.558 -3.2535 -1.7333  0.6196
  132MOL0     O17686   7.310   4.263   5.032  0.4769  0.5075 -0.2371
  132MOL0     C17687   7.367   4.163   5.072  0.5584  0.2587 -0.0968
  132MOL0     O17688   7.308   4.065   5.149  0.1755 -0.0953 -0.5687
  132MOL0     C17689   7.175   4.071   5.196  0.0430 -0.2045 -0.3172
  132MOL0     C17690   7.145   4.119   5.325 -0.6595  1.2299 -0.4131
  132MOL0     C17691   7.020   4.104   5.376  1.0271  1.1284 -0.4662
  132MOL0     C17692   6.924   4.039   5.300 -1.5563 -0.6112 -1.0362
  132MOL0     O17693   6.804   4.031   5.362 -0.0367 -0.1127  0.6507
  132MOL0     C17694   6.680   4.010   5.283 -0.4449  0.0262  0.2717
  132MOL0     C17695   6.628   4.155   5.254  0.0512  0.0859 -0.2994
  132MOL0     C17696   6.477   4.167   5.213 -0.0212  0.1529 -0.5810
  132MOL0     C17697   6.445   4.084   5.083 -0.4545 -0.5526 -0.3137
  132MOL0     C17698   6.310   4.097   5.025  0.8758 -0.2650  0.3696
  132MOL0     C17699   6.298   4.236   4.958 -0.5408 -1.0050  0.3516
  132MOL0     C17700   6.155   4.260   4.902 -0.5324 -0.7181  0.0870
  132MOL0     C17701   6.042   4.274   5.012  0.6819 -0.2541  0.2189
  132MOL0     N17702   5.915   4.308   4.949 -1.0813 -0.0577 -0.2181
  132MOL0     C17703   5.843   4.217   4.870 -0.4904  0.4574 -0.3215
  132MOL0     C17704   5.735   4.280   4.820 -0.1687 -0.8246 -1.1496
  132MOL0     C17705   5.629   4.209   4.740  0.5910  0.0106  0.1530
  132MOL0     C17706   5.635   4.247   4.597 -0.2070 -0.2087 -0.4737
  132MOL0     C17707   5.536   4.364   4.576 -0.5523  0.1962  0.4092
  132MOL0     C17708   5.558   4.438   4.451 -0.8084  0.0415  0.2593
  132MOL0     O17709   5.463   4.550   4.438  0.4696  0.3888 -0.1808
  132MOL0     C17710   5.332   4.529   4.394 -0.7475  0.9345  0.2377
  132MOL0     C17711   5.259   4.644   4.404 -0.1600 -0.3177  0.2531
  132MOL0     C17712   5.126   4.647   4.347 -0.2077 -0.5308  0.1833
  132MOL0     C17713   5.069   4.781   4.330 -0.3640  0.2356 -0.4584
  132MOL0     C17714   5.064   4.527   4.290  0.5554  0.6161  0.6406
  132MOL0     C17715   4.956   4.528   4.194 -0.0638  0.8579  0.1963
  132MOL0     O17716   4.890   4.407   4.195 -0.2370  0.0233 -0.2914
  132MOL0     C17717   4.769   4.421   4.133  0.7761  0.2450 -0.0189
  132MOL0     C17718   4.643   4.444   4.188  0.5315 -0.1561  0.3716
  132MOL0     C17719   4.526   4.437   4.120 -0.1273  0.2367  0.8581
  132MOL0     C17720   4.523   4.403   3.982  0.0593 -0.7907 -1.5024
  132MOL0     O17721   4.404   4.371   3.912 -0.3731 -0.2850  0.3386
  132MOL0     C17722   4.273   4.397   3.967 -0.3625 -0.2335  0.1580
  132MOL0     C17723   4.177   4.422   3.856  0.6528  0.7637  0.5095
  132MOL0     C17724   4.114   4.289   3.803 -0.0159 -0.0021 -1.5991
  132MOL0     C17725   4.216   4.227   3.708 -0.7770  0.4507 -0.0019
  132MOL0     C17726   4.146   4.121   3.621 -0.1713 -0.3193  0.4115
  132MOL0     C17727   4.236   4.087   3.503  0.1519  0.1885 -0.4699
  132MOL0     C17728   4.173   3.970   3.434 -0.6368 -0.5644  0.1373
  132MOL0     C17729   4.254   3.920   3.315  0.3897  0.3453  0.3214
  132MOL0    Cl17730   4.259   4.059   3.200 -0.1647  0.4153  0.0600
  132MOL0     C17731   4.651   4.380   3.920  0.9872 -0.3840  0.3344
  132MOL0     C17732   4.772   4.395   3.992  0.1703  1.0283  0.5914
  132MOL0     O17733   4.943   4.623   4.117  0.4750  0.1008  0.7671
  132MOL0     C17734   5.141   4.405   4.306  0.4122  0.0091  0.6047
  132MOL0     C17735   5.277   4.410   4.348  0.2845  0.7567 -1.1300
  132MOL0     N17736   5.748   4.416   4.864 -1.1689 -0.1214  0.4525
  132MOL0     N17737   5.871   4.430   4.916  0.1792 -0.7938  0.3605
  132MOL0     C17738   6.956   3.998   5.171  0.1809 -0.0709  0.1120
  132MOL0     C17739   7.085   4.009   5.120  1.4558 -0.4424  0.2532
  132MOL0     C17740   7.513   4.141   5.026 -0.2943 -1.2382  0.7335
  132MOL0     C17741   7.578   4.026   5.054  0.1243  0.7115 -0.4152
  132MOL0     C17742   7.703   3.989   4.995 -0.1853 -0.2130  0.2996
  132MOL0     C17743   7.761   4.080   4.905  0.1051  0.5993 -0.3027
  132MOL0     O17744   7.885   4.040   4.860 -0.3542 -0.6335 -1.4241
  132MOL0     C17745   7.975   4.140   4.812  0.9557 -0.4149 -0.1217
  132MOL0     C17746   8.095   4.084   4.738 -0.4791 -0.1996 -0.0556
  132MOL0     C17747   8.166   4.172   4.636  0.1737 -0.4422  0.5091
  132MOL0     C17748   8.294   4.127   4.575  0.0084 -0.0118  0.6826
  132MOL0     C17749   8.266   4.034   4.472 -0.3158 -0.1056 -0.4026
  132MOL0     C17750   8.242   3.950   4.387 -1.5728  0.0025  0.2578
  132MOL0     C17751   7.695   4.208   4.874  0.2583 -0.0000 -0.2408
  132MOL0     C17752   7.570   4.232   4.930  0.2931 -0.2109 -1.0990
  132MOL0     H17753   7.221   4.174   5.378 -0.8775 -0.8388  2.2521
  132MOL0     H17754   6.982   4.130   5.474  4.2777  0.6009  1.0413
  132MOL0     H17755   6.697   3.944   5.197  1.4490 -0.1441  0.7264
  132MOL0     H17756   6.608   3.948   5.337 -0.7145 -0.7715 -0.9656
  132MOL0     H17757   6.631   4.225   5.338 -1.5159  1.9480 -1.6962
  132MOL0     H17758   6.668   4.206   5.166 -3.4625 -0.4524 -2.4049
  132MOL0     H17759   6.412   4.151   5.299  1.5106  0.4271  0.6823
  132MOL0     H17760   6.466   4.271   5.183 -0.4098  0.0397 -0.8350
  132MOL0     H17761   6.519   4.102   5.004 -0.5311  2.5244  0.2061
  132MOL0     H17762   6.473   3.980   5.100 -0.4166 -0.7615 -1.5475
  132MOL0     H17763   6.286   4.022   4.949 -0.5401  1.0170 -0.5084
  132MOL0     H17764   6.236   4.081   5.105  3.7334 -1.9549  2.9191
  132MOL0     H17765   6.323   4.314   5.030 -2.6624  2.7108 -2.5368
  132MOL0     H17766   6.369   4.246   4.876 -1.3136  0.0582 -0.2143
  132MOL0     H17767   6.170   4.348   4.839  2.2342 -1.0421  0.1439
  132MOL0     H17768   6.141   4.173   4.839  0.2112  1.8188 -3.9541
  132MOL0     H17769   6.073   4.350   5.085  1.2085 -0.3557  0.1065
  132MOL0     H17770   6.040   4.173   5.053 -0.9174 -1.6680 -2.9986
  132MOL0     H17771   5.872   4.112   4.865 -0.3500  0.5161 -0.7250
  132MOL0     H17772   5.653   4.102   4.748  0.3597  0.1001  3.5660
  132MOL0     H17773   5.531   4.214   4.789  0.4527 -5.1837  1.0467
  132MOL0     H17774   5.601   4.161   4.538 -1.0800 -0.4749  0.3958
  132MOL0     H17775   5.741   4.257   4.574  0.2855 -4.1178 -0.5198
  132MOL0     H17776   5.536   4.430   4.663  0.6476 -0.6754  1.0860
  132MOL0     H17777   5.438   4.315   4.572  0.2356 -1.3713 -2.7821
  132MOL0     H17778   5.550   4.366   4.369  1.0617 -1.8583  1.6141
  132MOL0     H17779   5.664   4.465   4.458 -0.0008 -2.5505 -0.7054
  132MOL0     H17780   5.290   4.740   4.443 -2.1482  0.7639 -0.6494
  132MOL0     H17781   4.960   4.772   4.326 -0.3865  0.7116 -0.9994
  132MOL0     H17782   5.095   4.845   4.414 -2.3935  1.2479 -0.5220
  132MOL0     H17783   5.102   4.817   4.232 -2.2089 -3.3666 -2.6612
  132MOL0     H17784   4.651   4.477   4.291  1.9112 -1.3140  0.6788
  132MOL0     H17785   4.448   4.453   4.194 -0.2617 -2.2542  1.3521
  132MOL0     H17786   4.225   4.319   4.028 -0.1899 -2.5502 -2.4591
  132MOL0     H17787   4.271   4.495   4.014 -1.2655  0.7753 -1.8841
  132MOL0     H17788   4.101   4.483   3.905  0.7972 -0.5864  2.5467
  132MOL0     H17789   4.229   4.476   3.776  1.1005  2.7553  2.0371
  132MOL0     H17790   4.022   4.319   3.752 -2.2492 -1.7361  1.1210
  132MOL0     H17791   4.078   4.222   3.882 -1.3288  1.5296 -0.8406
  132MOL0     H17792   4.271   4.297   3.645 -0.6468  1.0899  0.8035
  132MOL0     H17793   4.290   4.170   3.766 -2.1962 -1.2083  0.2730
  132MOL0     H17794   4.056   4.158   3.570 -0.0256 -1.0174 -0.3821
  132MOL0     H17795   4.121   4.031   3.677  0.0645  0.3948  1.6863
  132MOL0     H17796   4.251   4.175   3.440  3.6167  0.6688  0.7909
  132MOL0     H17797   4.333   4.053   3.541 -0.3091  0.4625  1.0273
  132MOL0     H17798   4.078   3.987   3.384 -1.0723 -1.9361  0.4618
  132MOL0     H17799   4.177   3.888   3.507  2.7546  2.5098  3.9300
  132MOL0     H17800   4.195   3.841   3.269  0.4980  0.9038 -0.8023
  132MOL0     H17801   4.357   3.891   3.339  0.1861  1.1015  2.3655
  132MOL0     H17802   4.648   4.350   3.816  2.0793 -0.4340  0.3065
  132MOL0     H17803   4.857   4.363   3.934 -0.5049 -1.1503  0.7261
  132MOL0     H17804   5.104   4.307   4.278  3.1473 -1.6615  2.3514
  132MOL0     H17805   5.330   4.316   4.356 -1.4097 -0.0466  3.0301
  132MOL0     H17806   6.876   3.945   5.119 -2.0638  1.8967  1.3608
  132MOL0     H17807   7.112   3.961   5.026 -0.9795  0.3714 -0.9489
  132MOL0     H17808   7.540   3.953   5.125 -1.2280 -0.8753 -2.6422
  132MOL0     H17809   7.759   3.899   5.016  3.6965  1.4559 -1.7785
  132MOL0     H17810   7.921   4.210   4.748  1.4958  0.7658  0.6768
  132MOL0     H17811   8.010   4.206   4.892  1.8739  0.2308 -1.0345
  132MOL0     H17812   8.052   3.999   4.684  0.7190 -1.5083  0.9725
  132MOL0     H17813   8.167   4.037   4.805 -2.0360 -1.3464  0.8938
  132MOL0     H17814   8.195   4.267   4.681  1.6562  1.2969 -3.5669
  132MOL0     H17815   8.097   4.196   4.554 -0.2663  1.2109  1.3429
  132MOL0     H17816   8.377   4.110   4.644  1.5305  0.4384 -0.9876
  132MOL0     H17817   8.329   4.210   4.515 -0.8061  0.3001  0.6183
  132MOL0     H17818   8.218   3.859   4.335  1.8945 -0.7158 -0.2892
  132MOL0     H17819   7.746   4.286   4.819  3.0177 -0.5458  1.3416
  132MOL0     H17820   7.508   4.317   4.903 -0.3060  0.0469  0.9095
  133MOL0     O17821   3.664   9.430   6.981  0.3271  0.6564 -0.7014
  133MOL0     C17822   3.639   9.548   6.986 -0.0176 -0.5173 -0.4179
  133MOL0     O17823   3.742   9.636   7.001 -0.4868 -0.5905  0.5600
  133MOL0     C17824   3.870   9.589   6.975 -0.4435  0.6735 -0.0514
  133MOL0     C17825   3.956   9.674   6.901 -0.4377  0.4201  0.7399
  133MOL0     C17826   4.088   9.643   6.896 -1.0055 -0.4487  0.9171
  133MOL0     C17827   4.155   9.534   6.964  0.5102  0.2767  0.2118
  133MOL0     O17828   4.286   9.504   6.973 -0.2397 -0.5070 -0.3840
  133MOL0     C17829   4.346   9.507   6.844 -0.5647  0.2292 -0.3299
  133MOL0     C17830   4.488   9.448   6.860  0.0657 -0.2798  0.1313
  133MOL0     C17831   4.488   9.305   6.919 -0.1412  0.0909 -1.0037
  133MOL0     C17832   4.613   9.224   6.895  0.2546  0.2820  0.0848
  133MOL0     C17833   4.623   9.095   6.981 -0.0749 -0.6948  0.1355
  133MOL0     C17834   4.620   9.129   7.132 -0.1803  0.4113 -0.5134
  133MOL0     C17835   4.675   8.996   7.195  0.1288  0.7156  0.1661
  133MOL0     C17836   4.710   9.022   7.336 -0.1773  0.2046 -0.3429
  133MOL0     N17837   4.754   8.904   7.398  0.4758  0.3513 -0.8050
  133MOL0     C17838   4.672   8.843   7.495 -0.3470 -0.7687 -0.8057
  133MOL0     C17839   4.744   8.731   7.524 -0.3592  0.5554 -0.9856
  133MOL0     C17840   4.711   8.621   7.624 -0.2474 -0.1641 -0.2466
  133MOL0     C17841   4.829   8.587   7.716  0.8421 -0.6116  1.0752
  133MOL0     C17842   4.794   8.481   7.820 -0.8302 -0.0395  0.0911
  133MOL0     C17843   4.793   8.344   7.756 -0.6763  0.1179 -0.7701
  133MOL0     O17844   4.820   8.234   7.852  0.0460  0.3103 -0.0835
  133MOL0     C17845   4.716   8.143   7.871 -0.1999  0.1646  0.2332
  133MOL0     C17846   4.596   8.204   7.922 -0.1016 -0.2323 -0.1919
  133MOL0     C17847   4.480   8.120   7.934 -0.3967 -0.4415 -0.1142
  133MOL0     C17848   4.363   8.204   7.976 -0.6472 -0.5957 -0.5255
  133MOL0     C17849   4.491   7.981   7.921  0.6806 -0.5329 -0.3251
  133MOL0     C17850   4.379   7.884   7.931  0.1352 -1.0356 -0.4168
  133MOL0     O17851   4.397   7.751   7.943 -0.4504  0.1474  0.0450
  133MOL0     C17852   4.296   7.667   7.993 -0.0370  0.0178 -0.0508
  133MOL0     C17853   4.342   7.561   8.075  0.0301 -0.2693  0.3032
  133MOL0     C17854   4.265   7.458   8.119 -0.0453  0.1982  0.2678
  133MOL0     C17855   4.127   7.473   8.107  0.3950 -0.7248  0.1785
  133MOL0     O17856   4.038   7.392   8.172 -0.1454 -0.1395 -0.2085
  133MOL0     C17857   4.088   7.306   8.278  0.2139  0.9415  0.5917
  133MOL0     C17858   3.970   7.246   8.365 -0.1320  0.8553  0.6267
  133MOL0     C17859   3.850   7.197   8.285  1.3704 -0.6633  0.0041
  133MOL0     C17860   3.895   7.094   8.180  0.1540  0.1844 -0.4730
  133MOL0     C17861   3.922   6.957   8.237 -0.7650 -0.8018  0.5556
  133MOL0     C17862   3.927   6.849   8.137 -0.7086  0.9202 -0.6356
  133MOL0     C17863   3.786   6.808   8.086  1.1270 -0.3444  0.2594
  133MOL0     C17864   3.699   6.730   8.186 -0.2748 -0.3236  0.0845
  133MOL0    Cl17865   3.757   6.570   8.229  0.1060 -0.2334  0.0686
  133MOL0     C17866   4.076   7.579   8.034 -0.4105 -0.3622  0.1146
  133MOL0     C17867   4.162   7.671   7.968 -0.4474 -0.0903 -0.2270
  133MOL0     O17868   4.268   7.934   7.944 -0.1617  0.1639  0.6248
  133MOL0     C17869   4.617   7.927   7.897  0.2253  0.6742  0.2160
  133MOL0     C17870   4.725   8.004   7.864  0.5536 -1.0872  0.3965
  133MOL0     N17871   4.851   8.724   7.436 -0.3383  0.5613  1.1531
  133MOL0     N17872   4.862   8.831   7.364 -0.7736 -0.5491 -0.0157
  133MOL0     C17873   4.066   9.454   7.040  1.3899  0.2898 -0.2347
  133MOL0     C17874   3.923   9.476   7.045 -0.2178 -0.3677  0.5431
  133MOL0     C17875   3.501   9.599   6.974 -0.2304  0.0227 -0.1703
  133MOL0     C17876   3.394   9.511   6.938 -0.5296 -0.3747  0.4061
  133MOL0     C17877   3.264   9.561   6.933 -0.5832  0.0060 -0.3995
  133MOL0     C17878   3.226   9.696   6.962 -0.6457 -0.2613 -0.5082
  133MOL0     O17879   3.100   9.747   6.951 -0.1242  0.4254 -1.1024
  133MOL0     C17880   2.979   9.680   7.003  0.0396 -0.6467  0.6922
  133MOL0     C17881   2.956   9.703   7.146 -0.3942 -0.7676  0.9255
  133MOL0     C17882   2.899   9.850   7.176 -0.9504  0.1609 -0.0947
  133MOL0     C17883   2.898   9.874   7.327 -0.6132 -1.3332 -0.2687
  133MOL0     C17884   2.827   9.768   7.406 -0.6563 -0.4702  0.8650
  133MOL0     C17885   2.778   9.674   7.457 -0.2856  0.7233  0.4795
  133MOL0     C17886   3.334   9.784   6.998 -0.5777 -0.0694 -0.1756
  133MOL0     C17887   3.465   9.730   7.000 -0.3622 -0.2513 -0.0826
  133MOL0     H17888   3.926   9.761   6.843  0.6376 -0.0176 -0.5244
  133MOL0     H17889   4.148   9.698   6.824 -1.6556 -1.1791 -0.2087
  133MOL0     H17890   4.296   9.444   6.770 -0.1844 -0.9286  0.3662
  133MOL0     H17891   4.362   9.604   6.797  1.2290 -0.2201 -0.7271
  133MOL0     H17892   4.542   9.460   6.766 -1.4999 -1.3372 -0.9548
  133MOL0     H17893   4.536   9.511   6.936 -1.2049 -1.9199  2.4136
  133MOL0     H17894   4.463   9.318   7.025  0.5423 -3.6668 -0.2478
  133MOL0     H17895   4.401   9.253   6.877  0.3869 -0.6854 -1.1559
  133MOL0     H17896   4.621   9.193   6.791  0.7159 -1.5648  0.6333
  133MOL0     H17897   4.702   9.285   6.914  1.3929 -1.6643  1.4799
  133MOL0     H17898   4.539   9.029   6.959 -2.5691  2.2299  0.2247
  133MOL0     H17899   4.720   9.055   6.948  0.4792  0.2522  0.5637
  133MOL0     H17900   4.698   9.198   7.164 -0.3195  0.4476 -0.2525
  133MOL0     H17901   4.525   9.159   7.177 -0.0013  0.0878  0.0983
  133MOL0     H17902   4.597   8.922   7.172 -0.0077  0.5764  1.0284
  133MOL0     H17903   4.764   8.970   7.138  0.1404 -1.2935  1.0231
  133MOL0     H17904   4.619   9.058   7.385  0.3752  0.4755  0.5098
  133MOL0     H17905   4.785   9.101   7.347 -0.7101  0.6753 -0.0202
  133MOL0     H17906   4.576   8.873   7.535 -0.1671  0.4413 -1.2349
  133MOL0     H17907   4.619   8.662   7.666 -1.6429  0.7736 -3.7949
  133MOL0     H17908   4.686   8.532   7.566 -1.8722  1.2565 -1.8419
  133MOL0     H17909   4.853   8.678   7.772 -0.3171 -0.1057  0.7680
  133MOL0     H17910   4.913   8.550   7.656 -0.7023 -2.1341 -0.2500
  133MOL0     H17911   4.695   8.504   7.861 -1.7288 -3.2599  0.0023
  133MOL0     H17912   4.874   8.493   7.894  0.0196  3.6595 -1.2148
  133MOL0     H17913   4.876   8.338   7.686  0.4760 -4.0869  0.6979
  133MOL0     H17914   4.704   8.337   7.693 -0.0956  1.5197 -1.7958
  133MOL0     H17915   4.589   8.309   7.948  0.9309 -0.0229 -0.7489
  133MOL0     H17916   4.400   8.306   7.987  0.3747 -1.1211  1.4521
  133MOL0     H17917   4.284   8.214   7.901 -1.0195 -0.1310 -0.0773
  133MOL0     H17918   4.318   8.183   8.074  1.0688 -1.3105  0.1419
  133MOL0     H17919   4.450   7.554   8.076  0.1095  0.9488  0.9746
  133MOL0     H17920   4.319   7.378   8.170  1.6447 -1.0892 -3.2014
  133MOL0     H17921   4.157   7.228   8.246  0.6314  0.9468  1.4481
  133MOL0     H17922   4.146   7.364   8.350  3.4426  1.8205 -2.4906
  133MOL0     H17923   4.014   7.166   8.426  1.7765  1.4273  0.0672
  133MOL0     H17924   3.935   7.331   8.424 -0.2022  0.9877  0.3929
  133MOL0     H17925   3.810   7.284   8.233 -4.5933 -2.8617  0.0906
  133MOL0     H17926   3.767   7.149   8.338  2.6324 -1.4915  1.3046
  133MOL0     H17927   3.799   7.081   8.131 -0.7248 -2.4188  1.7133
  133MOL0     H17928   3.979   7.139   8.126  0.3789  3.5727  2.3178
  133MOL0     H17929   3.846   6.929   8.311 -1.4390 -2.6533 -0.7548
  133MOL0     H17930   4.019   6.964   8.287  0.5817 -1.8544 -1.7446
  133MOL0     H17931   3.990   6.883   8.055 -1.1214  1.2424 -0.8191
  133MOL0     H17932   3.979   6.766   8.186  1.1517  0.6946 -2.8476
  133MOL0     H17933   3.805   6.748   7.996 -0.6554 -1.7638  0.7693
  133MOL0     H17934   3.728   6.895   8.051  1.5791 -0.7262 -1.5680
  133MOL0     H17935   3.595   6.730   8.152  0.3048 -0.0140 -1.8084
  133MOL0     H17936   3.689   6.781   8.282  2.7339 -0.4604  0.5829
  133MOL0     H17937   3.969   7.599   8.026 -0.6489 -1.2347  1.0160
  133MOL0     H17938   4.119   7.741   7.897 -1.6627  0.3334  0.8800
  133MOL0     H17939   4.630   7.820   7.882  1.1955  0.5643  1.6559
  133MOL0     H17940   4.810   7.961   7.812 -0.0222  1.2537 -2.8191
  133MOL0     H17941   4.100   9.371   7.100 -2.3796 -1.0832  0.2608
  133MOL0     H17942   3.868   9.404   7.105  0.2813 -2.2398 -1.1172
  133MOL0     H17943   3.424   9.407   6.922 -0.9323 -0.9558  3.0596
  133MOL0     H17944   3.180   9.504   6.895  0.2732 -0.9017 -0.9708
  133MOL0     H17945   2.890   9.722   6.956  1.8343  0.7089 -1.7849
  133MOL0     H17946   2.981   9.571   6.993  0.5690 -1.2697  5.4675
  133MOL0     H17947   3.047   9.679   7.202 -0.5114 -0.3461  1.3032
  133MOL0     H17948   2.882   9.636   7.192 -3.6167  2.8039  1.3976
  133MOL0     H17949   2.799   9.871   7.135 -0.1878  0.4009 -1.9370
  133MOL0     H17950   2.960   9.926   7.126 -0.0940  0.0217  0.7180
  133MOL0     H17951   2.845   9.968   7.345  1.0500 -0.7994  2.3979
  133MOL0     H17952   2.999   9.887   7.367 -0.5761  0.3903 -0.8424
  133MOL0     H17953   2.739   9.581   7.494  3.6519 -1.4232 -0.2216
  133MOL0     H17954   3.303   9.888   7.005 -1.3481  0.0020 -3.1276
  133MOL0     H17955   3.548   9.796   7.025 -0.1589 -1.5565  3.1821
  134MOL0     O17956   5.443   6.461   9.239  0.0655  0.6663  0.2385
  134MOL0     C17957   5.437   6.350   9.289 -0.7441  0.2852  0.8512
  134MOL0     O17958   5.528   6.305   9.375 -0.0648 -1.2171  0.4634
  134MOL0     C17959   5.650   6.367   9.365 -0.0218 -0.4379 -0.8681
  134MOL0     C17960   5.689   6.500   9.408  0.5725 -0.0511 -0.1233
  134MOL0     C17961   5.823   6.543   9.405 -0.6072  0.3280 -0.1634
  134MOL0     C17962   5.929   6.468   9.345  1.2192  0.6708 -0.6102
  134MOL0     O17963   6.049   6.517   9.340  0.0342 -0.3760 -0.0044
  134MOL0     C17964   6.151   6.470   9.242 -0.7188  0.6531 -0.5824
  134MOL0     C17965   6.101   6.501   9.110 -0.1952  0.3693  0.0634
  134MOL0     C17966   6.130   6.648   9.089 -0.0925  0.7433 -0.2264
  134MOL0     C17967   6.061   6.703   8.966  0.4213  0.9230 -0.0035
  134MOL0     C17968   5.971   6.828   8.991  0.4483 -0.3756  0.3258
  134MOL0     C17969   5.837   6.807   9.061 -0.7813 -0.3793  0.0272
  134MOL0     C17970   5.767   6.684   8.996 -0.0634 -0.8555 -0.5749
  134MOL0     C17971   5.636   6.637   9.056  0.2846  1.2168 -0.2449
  134MOL0     N17972   5.513   6.716   9.030 -0.4100  0.5185  0.5658
  134MOL0     C17973   5.464   6.806   9.122 -0.6827 -0.0102 -0.0295
  134MOL0     C17974   5.375   6.879   9.047 -0.2027  0.0183 -0.6732
  134MOL0     C17975   5.282   6.976   9.118 -0.3226  0.3585 -0.1723
  134MOL0     C17976   5.216   7.076   9.028 -0.7532 -0.7615  0.3072
  134MOL0     C17977   5.116   7.163   9.110 -0.1236  0.6856  0.5220
  134MOL0     C17978   5.181   7.278   9.190 -0.4663  0.1011  0.2364
  134MOL0     O17979   5.095   7.328   9.294  0.7328 -0.9067  0.3397
  134MOL0     C17980   5.143   7.438   9.363  0.0370  0.4242  0.5544
  134MOL0     C17981   5.051   7.486   9.446  0.3726 -0.7879 -0.1001
  134MOL0     C17982   5.071   7.592   9.536  0.5300 -0.6032  0.0049
  134MOL0     C17983   4.956   7.651   9.612 -0.6365 -0.5959  0.1639
  134MOL0     C17984   5.206   7.645   9.537  0.3808  0.6354 -0.5476
  134MOL0     C17985   5.247   7.749   9.636  0.1891  1.0649 -0.0742
  134MOL0     O17986   5.169   7.815   9.716 -0.7724 -0.5602 -0.4813
  134MOL0     C17987   5.191   7.937   9.772  0.0222  1.4538  0.7943
  134MOL0     C17988   5.318   7.968   9.817  0.1890 -0.5068 -0.3097
  134MOL0     C17989   5.329   8.093   9.883  0.2971  0.9340 -0.4881
  134MOL0     C17990   5.221   8.185   9.893 -0.4496  0.4033 -0.3611
  134MOL0     O17991   5.254   8.303   9.952 -0.1675 -0.2254 -0.2737
  134MOL0     C17992   5.172   8.411   9.909 -0.7842 -0.8750 -0.1101
  134MOL0     C17993   5.269   8.522   9.851 -0.4275  1.1167 -0.5135
  134MOL0     C17994   5.297   8.471   9.714 -0.7445 -0.5829  0.3657
  134MOL0     C17995   5.398   8.551   9.629 -0.1087  0.1344 -0.8222
  134MOL0     C17996   5.549   8.513   9.659  0.9419  0.1333 -0.0382
  134MOL0     C17997   5.650   8.565   9.562 -0.5260  0.1300  0.2016
  134MOL0     C17998   5.644   8.480   9.433  0.1322  0.1449  0.2837
  134MOL0     C17999   5.714   8.549   9.319 -0.0782 -0.4060 -0.0019
  134MOL0    Cl18000   5.648   8.719   9.295  0.4081 -0.1281  0.1831
  134MOL0     C18001   5.103   8.152   9.844  0.0771 -0.4452 -0.0630
  134MOL0     C18002   5.087   8.029   9.791  0.1740  0.2297  0.7304
  134MOL0     O18003   5.370   7.767   9.632  0.4583  0.0537 -0.3498
  134MOL0     C18004   5.300   7.602   9.439  0.0914 -0.7228  1.2840
  134MOL0     C18005   5.268   7.498   9.346  0.6996  0.1998 -1.3051
  134MOL0     N18006   5.369   6.833   8.916 -0.8620  0.1755  0.1812
  134MOL0     N18007   5.451   6.734   8.913 -0.7028 -0.8023 -0.1216
  134MOL0     C18008   5.887   6.347   9.288 -0.5540  0.3240  0.2449
  134MOL0     C18009   5.756   6.297   9.305 -0.1762 -0.7092  0.4496
  134MOL0     C18010   5.332   6.259   9.240  0.0964 -0.0479 -0.8130
  134MOL0     C18011   5.248   6.289   9.140 -0.0107 -0.4725  0.2041
  134MOL0     C18012   5.157   6.199   9.092  0.7484 -0.2844 -0.0125
  134MOL0     C18013   5.135   6.071   9.153 -0.3556 -0.2531 -0.5943
  134MOL0     O18014   5.046   5.984   9.097  0.1930 -0.3858 -0.0384
  134MOL0     C18015   5.026   5.843   9.130 -0.0487 -0.1464  0.2740
  134MOL0     C18016   4.936   5.821   9.249 -0.8233  0.6452 -0.3330
  134MOL0     C18017   4.799   5.897   9.240  1.2765 -0.6826 -0.4211
  134MOL0     C18018   4.707   5.861   9.119  0.7597 -0.3813 -1.3976
  134MOL0     C18019   4.603   5.762   9.157 -0.0363  0.7230  0.2560
  134MOL0     C18020   4.522   5.672   9.192  0.5966 -0.5737 -0.3628
  134MOL0     C18021   5.211   6.044   9.271  0.7134  0.1794  0.4749
  134MOL0     C18022   5.313   6.134   9.307 -0.7497  0.0390 -0.8447
  134MOL0     H18023   5.614   6.570   9.442  1.0252  0.5620 -0.3613
  134MOL0     H18024   5.849   6.644   9.436 -2.1091  1.5217 -2.5752
  134MOL0     H18025   6.250   6.509   9.264  0.4617 -1.9561 -0.8447
  134MOL0     H18026   6.174   6.363   9.249  1.8026  1.0835 -1.3088
  134MOL0     H18027   6.146   6.450   9.024 -2.2133  0.7584 -1.2943
  134MOL0     H18028   5.996   6.474   9.095  0.4962 -1.0673 -3.1237
  134MOL0     H18029   6.117   6.718   9.172 -1.5166  1.3033 -0.8807
  134MOL0     H18030   6.238   6.647   9.070 -0.4907 -1.7293 -3.1616
  134MOL0     H18031   6.141   6.736   8.899  1.6603  0.7664  1.3381
  134MOL0     H18032   6.008   6.624   8.912 -1.9984  0.9417  2.1750
  134MOL0     H18033   6.017   6.911   9.046 -0.1269 -0.1408  0.4639
  134MOL0     H18034   5.938   6.874   8.898 -3.2762 -2.6520  0.3216
  134MOL0     H18035   5.854   6.782   9.166  0.5214 -1.9583 -0.5277
  134MOL0     H18036   5.779   6.899   9.055 -2.3921 -1.4087 -0.8488
  134MOL0     H18037   5.752   6.713   8.891  2.2333 -3.2846 -1.6820
  134MOL0     H18038   5.829   6.594   9.007  1.7117  0.4323  0.4329
  134MOL0     H18039   5.649   6.630   9.164  0.3815  3.7296 -0.0201
  134MOL0     H18040   5.615   6.536   9.021 -3.6141  0.6870  2.9031
  134MOL0     H18041   5.481   6.823   9.228  1.1196  1.5267 -0.5100
  134MOL0     H18042   5.206   6.922   9.174 -0.5426  0.1531 -0.6564
  134MOL0     H18043   5.334   7.032   9.196  0.9107 -0.2237 -0.5386
  134MOL0     H18044   5.165   7.015   8.953 -1.4816 -1.3753  1.2793
  134MOL0     H18045   5.286   7.147   8.982 -2.8644  0.4416 -1.2204
  134MOL0     H18046   5.074   7.100   9.189  2.0969 -2.0590 -0.3170
  134MOL0     H18047   5.043   7.214   9.046 -0.8177  0.7428  1.3384
  134MOL0     H18048   5.211   7.360   9.125 -0.4000  0.0451  0.1952
  134MOL0     H18049   5.271   7.238   9.238  1.5149 -4.3587 -5.9366
  134MOL0     H18050   4.947   7.455   9.448  0.8234 -2.5689 -1.8065
  134MOL0     H18051   4.871   7.583   9.614 -0.3565 -0.9669 -0.4424
  134MOL0     H18052   4.966   7.672   9.719 -3.5462 -0.0539  0.4341
  134MOL0     H18053   4.929   7.742   9.557  1.7440 -0.6654 -1.2398
  134MOL0     H18054   5.411   7.912   9.821  1.7921  1.7408 -2.6671
  134MOL0     H18055   5.428   8.130   9.904  1.4514 -0.4665 -2.9834
  134MOL0     H18056   5.088   8.394   9.841 -2.0811  1.0687  0.8929
  134MOL0     H18057   5.134   8.447  10.006  3.9290  0.7413  1.4375
  134MOL0     H18058   5.217   8.618   9.840  0.2938  1.6967  0.8957
  134MOL0     H18059   5.357   8.531   9.915 -0.0258  5.5831 -1.3323
  134MOL0     H18060   5.198   8.476   9.668 -0.3702  0.1046 -0.3812
  134MOL0     H18061   5.328   8.366   9.707 -0.8369 -0.5153 -1.8885
  134MOL0     H18062   5.375   8.537   9.523 -3.0802 -0.3306 -0.2090
  134MOL0     H18063   5.372   8.654   9.654  0.8049 -0.6491  4.6004
  134MOL0     H18064   5.553   8.404   9.665  1.2296  0.2120  2.7765
  134MOL0     H18065   5.581   8.542   9.760  2.7545 -1.0655 -0.2170
  134MOL0     H18066   5.623   8.669   9.541  0.1560 -0.2127 -2.9180
  134MOL0     H18067   5.750   8.556   9.607 -0.0810  2.0237 -0.3095
  134MOL0     H18068   5.541   8.475   9.398  0.7089 -0.9797 -1.4299
  134MOL0     H18069   5.685   8.379   9.443  2.6020  1.0505  0.1080
  134MOL0     H18070   5.707   8.490   9.228 -0.3152 -3.8818  2.0880
  134MOL0     H18071   5.820   8.548   9.346 -0.6931  0.3676  2.7924
  134MOL0     H18072   5.016   8.217   9.841  0.7881  0.5102 -1.8624
  134MOL0     H18073   4.992   7.997   9.748 -0.9263  0.2590  3.0136
  134MOL0     H18074   5.403   7.636   9.441  0.2282 -0.9452 -0.6891
  134MOL0     H18075   5.339   7.474   9.268 -0.8878  1.8659 -3.4126
  134MOL0     H18076   5.963   6.279   9.252 -0.6063 -0.6629  1.9043
  134MOL0     H18077   5.723   6.206   9.255  0.0514 -0.4878 -0.1195
  134MOL0     H18078   5.264   6.370   9.070 -1.8266 -0.0174  0.2804
  134MOL0     H18079   5.113   6.220   8.995  3.4739 -0.4805 -1.3808
  134MOL0     H18080   4.990   5.782   9.046 -1.0302 -0.7907  1.1355
  134MOL0     H18081   5.122   5.806   9.168 -1.4137 -0.8868  3.2654
  134MOL0     H18082   4.983   5.859   9.341 -1.9495 -0.9745  0.9652
  134MOL0     H18083   4.928   5.713   9.266 -0.1311  1.1059  4.1391
  134MOL0     H18084   4.810   6.006   9.234  2.3998 -0.7729 -0.1933
  134MOL0     H18085   4.765   5.877   9.342  1.9053 -0.4270 -0.1573
  134MOL0     H18086   4.754   5.836   9.023 -3.3482 -0.4299 -3.6289
  134MOL0     H18087   4.652   5.953   9.098  0.3980 -0.6201 -1.5072
  134MOL0     H18088   4.445   5.598   9.202  1.5429 -1.3539  1.8071
  134MOL0     H18089   5.191   5.947   9.316 -1.9215 -1.0528 -2.8594
  134MOL0     H18090   5.375   6.114   9.394  0.5918 -1.0881 -2.0009
  135MOL0     O18091   0.736   5.927   1.436  0.0001 -0.2547  0.7074
  135MOL0     C18092   0.761   5.888   1.322  0.0564 -0.2515  0.3475
  135MOL0     O18093   0.671   5.830   1.227  0.1445  0.0683 -0.6089
  135MOL0     C18094   0.534   5.835   1.246  0.2618  0.1559  0.9578
  135MOL0     C18095   0.460   5.934   1.310 -0.8273  0.6136  0.1121
  135MOL0     C18096   0.322   5.927   1.315  0.2391 -0.5205  0.4669
  135MOL0     C18097   0.244   5.833   1.249 -0.5168 -0.5177  1.3502
  135MOL0     O18098   0.102   5.834   1.266 -0.6223 -0.2055  0.6508
  135MOL0     C18099   0.053   5.721   1.332  0.1138  1.2411 -0.4480
  135MOL0     C18100  -0.093   5.735   1.372 -0.3728 -0.9962 -0.1753
  135MOL0     C18101  -0.145   5.628   1.478 -0.1867  0.1672 -0.6312
  135MOL0     C18102  -0.091   5.483   1.460 -1.5468 -0.1591  0.8323
  135MOL0     C18103  -0.155   5.385   1.551  0.3178 -0.0880  1.2557
  135MOL0     C18104  -0.138   5.417   1.703  0.4583  0.1724 -1.0833
  135MOL0     C18105  -0.226   5.326   1.784 -0.3742 -0.6897 -0.9277
  135MOL0     C18106  -0.197   5.177   1.801 -0.9173  0.3224 -0.1958
  135MOL0     N18107  -0.059   5.142   1.834  0.1657  0.2691  0.2425
  135MOL0     C18108   0.060   5.146   1.755 -0.5901  0.3687  0.3491
  135MOL0     C18109   0.146   5.066   1.810  0.3920 -0.3199  1.2162
  135MOL0     C18110   0.282   5.036   1.760 -0.4037  1.0955 -0.0530
  135MOL0     C18111   0.378   5.161   1.742  0.2714  0.2809 -0.1163
  135MOL0     C18112   0.527   5.131   1.766  1.0438  0.8662 -0.5481
  135MOL0     C18113   0.596   5.047   1.662  0.8175 -0.1130 -0.0893
  135MOL0     O18114   0.746   5.055   1.673  0.3385 -0.3318 -0.3749
  135MOL0     C18115   0.813   5.027   1.563 -0.4138  0.4558  0.3268
  135MOL0     C18116   0.763   4.960   1.451 -0.4505 -0.2966 -0.1046
  135MOL0     C18117   0.822   4.941   1.329 -0.0879 -0.5160 -1.2162
  135MOL0     C18118   0.755   4.840   1.244  0.6522 -0.0874  0.0596
  135MOL0     C18119   0.949   5.001   1.304  0.1229  0.3302 -0.1310
  135MOL0     C18120   1.022   4.989   1.178  0.2401 -0.5947 -0.1557
  135MOL0     O18121   0.944   4.962   1.056  0.0156 -0.6013 -0.6694
  135MOL0     C18122   1.010   4.980   0.936 -0.8564 -0.3064 -0.2416
  135MOL0     C18123   1.071   5.108   0.903  0.1794 -0.8220 -0.6659
  135MOL0     C18124   1.129   5.120   0.771 -0.1545  0.2183 -0.1276
  135MOL0     C18125   1.122   5.011   0.681 -0.7316  0.2096  1.0402
  135MOL0     O18126   1.177   5.009   0.558 -0.6766  0.8347 -0.2931
  135MOL0     C18127   1.297   5.071   0.525 -0.4658  0.2799 -1.1806
  135MOL0     C18128   1.365   5.007   0.404 -0.2004 -0.1044  0.9769
  135MOL0     C18129   1.268   5.028   0.283 -0.9543 -0.0605 -0.6978
  135MOL0     C18130   1.322   4.945   0.174  0.2964 -0.3150 -0.4581
  135MOL0     C18131   1.256   4.974   0.038 -0.8218  0.2055 -0.0434
  135MOL0     C18132   1.333   4.892  -0.070  0.7177  0.0357  0.7430
  135MOL0     C18133   1.471   4.946  -0.125 -0.9281  0.8593 -0.3274
  135MOL0     C18134   1.587   4.856  -0.129 -0.7827 -0.7677 -0.5049
  135MOL0    Cl18135   1.633   4.827   0.041 -0.4609  0.1566  0.2160
  135MOL0     C18136   1.068   4.891   0.724  0.1733 -0.3129  0.1758
  135MOL0     C18137   1.010   4.874   0.843 -0.7011  0.3711  0.0109
  135MOL0     O18138   1.140   5.028   1.176  0.4031 -0.4202  0.0052
  135MOL0     C18139   1.004   5.070   1.414  1.0881 -0.4750  0.7569
  135MOL0     C18140   0.934   5.080   1.537  0.7576  0.7609  0.1355
  135MOL0     N18141   0.093   5.013   1.921 -0.8912 -0.2402  0.7560
  135MOL0     N18142  -0.027   5.061   1.942 -0.5295 -0.5267 -0.0652
  135MOL0     C18143   0.320   5.729   1.186 -0.1538  0.1137 -1.1047
  135MOL0     C18144   0.463   5.731   1.185  0.4475  0.0759  0.2955
  135MOL0     C18145   0.897   5.882   1.281  0.2876  0.1777  0.5701
  135MOL0     C18146   0.920   5.878   1.138  0.1526  1.1135 -0.6307
  135MOL0     C18147   1.051   5.875   1.090 -0.2817 -0.7524 -0.1722
  135MOL0     C18148   1.162   5.870   1.176  0.4724 -0.1244 -0.6712
  135MOL0     O18149   1.289   5.861   1.128  0.1831  0.8947 -0.1382
  135MOL0     C18150   1.357   5.745   1.190  0.1016 -0.7168 -0.1138
  135MOL0     C18151   1.498   5.751   1.156  0.2200 -0.3544 -0.8235
  135MOL0     C18152   1.566   5.885   1.211  0.6749 -0.1556  0.3101
  135MOL0     C18153   1.638   5.871   1.341  0.7075 -0.2451 -0.3953
  135MOL0     C18154   1.751   5.782   1.343 -0.3565 -0.7751  0.7310
  135MOL0     C18155   1.845   5.709   1.354 -0.1712  0.4842  0.6636
  135MOL0     C18156   1.140   5.883   1.314 -0.8065 -0.0071  0.6983
  135MOL0     C18157   1.011   5.895   1.366  0.6037 -0.2292 -0.1999
  135MOL0     H18158   0.509   6.019   1.356  1.9825  0.2741 -1.9707
  135MOL0     H18159   0.266   6.010   1.357 -1.8523 -2.7747  2.4593
  135MOL0     H18160   0.057   5.629   1.274  1.8974  0.5989  0.5894
  135MOL0     H18161   0.113   5.732   1.423 -0.1914  1.5683 -0.2818
  135MOL0     H18162  -0.107   5.830   1.424 -1.5079  0.1912 -2.5054
  135MOL0     H18163  -0.152   5.748   1.281 -3.4593  4.2368  2.1724
  135MOL0     H18164  -0.127   5.674   1.576  2.0118  0.8772 -1.3047
  135MOL0     H18165  -0.254   5.627   1.468 -0.1053 -1.8056 -1.7890
  135MOL0     H18166  -0.101   5.450   1.357  2.9761 -0.1884  0.1816
  135MOL0     H18167   0.017   5.485   1.479 -1.9301  2.8852  3.8677
  135MOL0     H18168  -0.260   5.388   1.519  1.2100 -1.3684 -2.2206
  135MOL0     H18169  -0.123   5.282   1.535 -2.0478 -0.6823 -0.2136
  135MOL0     H18170  -0.033   5.422   1.733  0.2992  1.1863 -0.6298
  135MOL0     H18171  -0.173   5.521   1.711  4.2475  1.4245  2.9473
  135MOL0     H18172  -0.231   5.363   1.886  1.2600 -0.6272 -0.8532
  135MOL0     H18173  -0.324   5.331   1.735 -2.1833 -1.1722  2.3456
  135MOL0     H18174  -0.212   5.127   1.705 -0.9859  1.0869 -0.5940
  135MOL0     H18175  -0.269   5.141   1.874  2.3262  1.9167  4.2288
  135MOL0     H18176   0.083   5.209   1.670  0.8037 -2.3283 -1.4015
  135MOL0     H18177   0.339   4.971   1.827 -1.3728  0.7449  0.4541
  135MOL0     H18178   0.277   4.985   1.664 -2.0247 -1.6973  1.3785
  135MOL0     H18179   0.359   5.241   1.815  0.2867 -1.2137  1.5785
  135MOL0     H18180   0.378   5.191   1.637 -2.2525  2.3346  0.3635
  135MOL0     H18181   0.545   5.082   1.862  1.8327  1.4069 -0.4080
  135MOL0     H18182   0.577   5.228   1.760  4.3359 -0.5239  1.6627
  135MOL0     H18183   0.558   5.076   1.564 -2.7109  1.5266  1.6002
  135MOL0     H18184   0.559   4.946   1.679 -0.3928  0.2697 -0.3688
  135MOL0     H18185   0.661   4.924   1.461 -0.7883  0.7141  0.2119
  135MOL0     H18186   0.710   4.887   1.157 -2.5684  2.2168  2.7126
  135MOL0     H18187   0.829   4.770   1.204 -0.3557 -1.0828 -0.0960
  135MOL0     H18188   0.676   4.775   1.283 -4.0722  2.1580 -4.5729
  135MOL0     H18189   1.071   5.187   0.978  0.1087 -1.2884 -0.1685
  135MOL0     H18190   1.172   5.217   0.746 -0.0149  0.5109  1.2006
  135MOL0     H18191   1.282   5.177   0.502  1.3511  1.2415  1.5949
  135MOL0     H18192   1.368   5.062   0.607  0.2993 -1.6600 -2.0045
  135MOL0     H18193   1.460   5.057   0.387 -0.4518  1.1407  2.9640
  135MOL0     H18194   1.375   4.899   0.419 -2.5021 -0.5102  0.1154
  135MOL0     H18195   1.249   5.135   0.271  3.0819  1.1992  2.0548
  135MOL0     H18196   1.173   4.981   0.311  2.1019 -4.1351  4.8398
  135MOL0     H18197   1.427   4.974   0.159  0.7869 -0.8725  1.5867
  135MOL0     H18198   1.319   4.840   0.204 -1.4277 -0.2942 -0.4624
  135MOL0     H18199   1.255   5.083   0.023 -2.0958 -0.1605 -3.6465
  135MOL0     H18200   1.152   4.939   0.043 -1.2790  1.6941  3.1323
  135MOL0     H18201   1.353   4.791  -0.032  0.1148  0.1415  1.3646
  135MOL0     H18202   1.265   4.901  -0.155 -2.8645  4.7284  3.6288
  135MOL0     H18203   1.499   5.019  -0.048  0.5675  1.2383 -1.2025
  135MOL0     H18204   1.459   4.995  -0.222 -2.0494  0.0086 -0.6302
  135MOL0     H18205   1.668   4.901  -0.188 -1.8754  0.2156 -1.3097
  135MOL0     H18206   1.557   4.761  -0.173 -1.9557 -1.7555  2.1669
  135MOL0     H18207   1.070   4.812   0.650 -2.8381 -2.6231  2.3172
  135MOL0     H18208   0.989   4.772   0.871  0.5135  0.2382  0.5163
  135MOL0     H18209   1.106   5.105   1.408  0.0254  2.7843 -0.3039
  135MOL0     H18210   0.990   5.128   1.616  0.0535 -2.0863  2.4884
  135MOL0     H18211   0.267   5.637   1.166  0.3274  0.3631 -3.8673
  135MOL0     H18212   0.517   5.649   1.140  0.5944 -0.1571  0.8950
  135MOL0     H18213   0.837   5.881   1.067 -1.0172  1.1826  0.6832
  135MOL0     H18214   1.075   5.862   0.985  1.0378  0.1732 -0.0096
  135MOL0     H18215   1.348   5.747   1.299  3.4310 -2.0375  0.3010
  135MOL0     H18216   1.312   5.650   1.158  2.7983 -1.5536 -1.8046
  135MOL0     H18217   1.524   5.738   1.050 -2.8613  0.3275 -1.7480
  135MOL0     H18218   1.548   5.661   1.193  0.2851 -0.9673 -2.2994
  135MOL0     H18219   1.494   5.966   1.226  0.2912 -0.5923  0.8840
  135MOL0     H18220   1.640   5.915   1.137 -0.2407 -1.1222 -1.0562
  135MOL0     H18221   1.555   5.833   1.400  1.8622 -0.8044  0.9241
  135MOL0     H18222   1.680   5.966   1.375  0.6080 -0.1981 -0.4068
  135MOL0     H18223   1.932   5.648   1.368  1.1577  2.2149  0.4236
  135MOL0     H18224   1.226   5.889   1.380 -0.6944  0.5837  0.5047
  135MOL0     H18225   0.987   5.907   1.471 -0.7195  3.3675 -0.7592
  136MOL0     O18226   5.653   4.844   2.237 -0.0422  0.4657  0.1443
  136MOL0     C18227   5.591   4.750   2.186  0.0563 -0.3064  0.2298
  136MOL0     O18228   5.485   4.757   2.103  0.5538 -0.0080 -0.1768
  136MOL0     C18229   5.443   4.880   2.061 -0.9049  0.0321  0.2469
  136MOL0     C18230   5.515   4.950   1.964  0.7704  0.5844 -0.1375
  136MOL0     C18231   5.453   5.059   1.906 -0.2587  0.2981 -0.6850
  136MOL0     C18232   5.329   5.108   1.959 -0.4076  1.0632 -0.2783
  136MOL0     O18233   5.283   5.218   1.899  0.0676 -0.8260 -0.4601
  136MOL0     C18234   5.140   5.244   1.876  0.3756 -0.0092 -0.4744
  136MOL0     C18235   5.095   5.364   1.960 -0.8465  0.4419  0.9349
  136MOL0     C18236   5.068   5.482   1.859  0.0500  0.2903  0.6810
  136MOL0     C18237   4.925   5.456   1.804 -0.6607 -0.8207  0.0821
  136MOL0     C18238   4.887   5.554   1.701 -0.0903  0.7583 -0.1052
  136MOL0     C18239   4.737   5.531   1.677 -0.8549  0.9655  0.6861
  136MOL0     C18240   4.686   5.627   1.566 -0.2178 -0.7639 -0.1126
  136MOL0     C18241   4.644   5.767   1.622 -0.1985 -0.1185  0.5886
  136MOL0     N18242   4.550   5.754   1.732 -0.1738  0.4138 -0.7723
  136MOL0     C18243   4.410   5.743   1.711 -0.4699  1.0294 -0.4195
  136MOL0     C18244   4.348   5.715   1.833  0.1490 -0.4849 -0.0986
  136MOL0     C18245   4.204   5.694   1.882 -0.5702 -0.1082  0.4050
  136MOL0     C18246   4.199   5.604   2.001  0.1976 -0.8088  0.8012
  136MOL0     C18247   4.049   5.557   2.021  0.3822  0.7206  0.3965
  136MOL0     C18248   4.029   5.470   2.142 -0.7093 -0.2540 -0.6504
  136MOL0     O18249   4.125   5.363   2.158 -0.6648 -0.1502  0.4043
  136MOL0     C18250   4.128   5.252   2.084  0.3740  0.1828 -0.1740
  136MOL0     C18251   4.230   5.156   2.106  0.8614 -0.0732 -0.6585
  136MOL0     C18252   4.252   5.052   2.023 -0.1267  0.0764  0.2049
  136MOL0     C18253   4.379   4.974   2.065 -0.0258 -0.2317  0.2252
  136MOL0     C18254   4.174   5.037   1.902  0.0029  0.3556  0.0580
  136MOL0     C18255   4.188   4.931   1.800  1.0671  0.2773  0.2447
  136MOL0     O18256   4.120   4.934   1.682  0.2283 -0.4279  0.2727
  136MOL0     C18257   4.117   4.821   1.602  0.2436 -1.0186  0.0651
  136MOL0     C18258   4.074   4.698   1.649 -0.1730 -0.1423 -0.0059
  136MOL0     C18259   4.086   4.576   1.577  0.6893  0.1660 -0.9783
  136MOL0     C18260   4.141   4.590   1.451  0.6159  0.4182  0.2636
  136MOL0     O18261   4.151   4.488   1.361  0.2430  0.3075 -0.2576
  136MOL0     C18262   4.130   4.355   1.408 -0.4625 -0.3327  0.8547
  136MOL0     C18263   4.148   4.248   1.311 -0.7565 -0.3251  0.5390
  136MOL0     C18264   4.026   4.228   1.224 -0.4597 -0.3912 -0.3274
  136MOL0     C18265   3.994   4.365   1.162  0.5812  0.0317 -0.1054
  136MOL0     C18266   3.888   4.344   1.048 -0.1727 -0.2339 -0.5730
  136MOL0     C18267   3.826   4.484   0.999  0.3158  0.1688 -0.5893
  136MOL0     C18268   3.718   4.456   0.886  0.5341 -0.9862 -0.0215
  136MOL0     C18269   3.676   4.584   0.806 -0.4860  0.4266 -0.3607
  136MOL0    Cl18270   3.613   4.710   0.929 -0.0814  0.4387  0.1746
  136MOL0     C18271   4.165   4.719   1.396  1.1344  0.1528  0.6577
  136MOL0     C18272   4.165   4.834   1.474  0.0570 -0.9265  0.0225
  136MOL0     O18273   4.264   4.844   1.833  0.6167 -0.2845 -0.3325
  136MOL0     C18274   4.063   5.121   1.888 -1.0789  0.5246 -0.8127
  136MOL0     C18275   4.041   5.225   1.983  0.0919 -0.1557 -0.0709
  136MOL0     N18276   4.459   5.726   1.927  0.9560 -0.0418  0.9813
  136MOL0     N18277   4.571   5.735   1.864  0.0378  0.6936  0.1276
  136MOL0     C18278   5.268   5.041   2.066  0.4122 -0.1794 -0.1014
  136MOL0     C18279   5.323   4.923   2.113 -1.2854 -0.5647 -0.5865
  136MOL0     C18280   5.633   4.615   2.223 -0.2490  0.4112 -0.0395
  136MOL0     C18281   5.543   4.500   2.239 -0.2202  0.4471  0.3478
  136MOL0     C18282   5.597   4.371   2.255  0.8460 -0.0284 -0.7977
  136MOL0     C18283   5.734   4.348   2.258 -0.6259 -1.1481  0.6710
  136MOL0     O18284   5.804   4.226   2.250 -0.0479  0.0164 -0.1530
  136MOL0     C18285   5.726   4.105   2.281 -0.4712 -0.4821  0.9878
  136MOL0     C18286   5.813   3.989   2.243 -0.9997  0.4108 -0.1679
  136MOL0     C18287   5.933   3.993   2.350  0.1786  0.1287 -0.3571
  136MOL0     C18288   5.904   3.903   2.480  0.3805 -1.3249  0.5508
  136MOL0     C18289   6.003   3.918   2.591  0.9221 -0.3470  0.0216
  136MOL0     C18290   6.072   3.941   2.681  0.8208 -0.4523  0.0130
  136MOL0     C18291   5.822   4.458   2.250  0.4534  0.0560 -0.2838
  136MOL0     C18292   5.772   4.591   2.248 -0.4946 -0.7467 -0.3472
  136MOL0     H18293   5.603   4.905   1.919 -0.7441 -0.9276 -1.7577
  136MOL0     H18294   5.506   5.116   1.831  1.7341 -0.8316 -0.1993
  136MOL0     H18295   5.113   5.251   1.770  0.9976  0.8573 -0.5838
  136MOL0     H18296   5.083   5.153   1.897 -0.8143  0.6143 -0.9050
  136MOL0     H18297   5.009   5.329   2.018  0.2631 -1.9044  1.2615
  136MOL0     H18298   5.170   5.394   2.035  2.4202 -1.8701 -1.1413
  136MOL0     H18299   5.061   5.578   1.911 -1.4742  0.4202  0.2904
  136MOL0     H18300   5.141   5.489   1.778 -0.9584  2.3691 -0.1304
  136MOL0     H18301   4.917   5.354   1.766 -0.9153 -1.7242  2.3724
  136MOL0     H18302   4.848   5.467   1.881 -1.9538 -1.0123 -1.1610
  136MOL0     H18303   4.906   5.656   1.734  0.5440  1.3499 -2.1563
  136MOL0     H18304   4.942   5.550   1.607 -2.9871  0.1509 -1.9104
  136MOL0     H18305   4.735   5.430   1.635  1.7811  1.1068  0.0362
  136MOL0     H18306   4.672   5.533   1.765 -0.7589  2.0577  0.7448
  136MOL0     H18307   4.754   5.635   1.482  0.8358 -3.8008  0.3284
  136MOL0     H18308   4.608   5.566   1.520  1.7748 -5.3718  1.9533
  136MOL0     H18309   4.613   5.830   1.538 -1.4855  1.5351  2.2139
  136MOL0     H18310   4.737   5.803   1.667 -0.7695 -2.3989  4.0214
  136MOL0     H18311   4.355   5.733   1.618 -2.1528  2.7940  0.3224
  136MOL0     H18312   4.170   5.795   1.908  1.9241  2.6671 -5.3484
  136MOL0     H18313   4.139   5.651   1.805 -1.5168 -0.9912  1.6779
  136MOL0     H18314   4.217   5.677   2.081 -4.8433 -0.6678  2.1841
  136MOL0     H18315   4.256   5.512   1.987 -0.6529 -1.2662  0.2396
  136MOL0     H18316   3.998   5.514   1.934  1.4609  2.8085 -1.3728
  136MOL0     H18317   4.000   5.650   2.049  0.7179  0.4788  1.8752
  136MOL0     H18318   3.930   5.423   2.141  0.2956 -3.4748  5.3787
  136MOL0     H18319   4.038   5.536   2.228 -0.5011  0.0328 -0.8886
  136MOL0     H18320   4.302   5.186   2.182 -0.8676  0.2816  0.9197
  136MOL0     H18321   4.445   5.027   2.134  2.1965 -0.9505 -1.2574
  136MOL0     H18322   4.351   4.875   2.104 -0.6705 -0.3531 -0.5294
  136MOL0     H18323   4.432   4.948   1.973 -2.6350 -0.1349 -1.4260
  136MOL0     H18324   4.029   4.687   1.748 -2.3897  2.6834 -0.5706
  136MOL0     H18325   4.055   4.477   1.610 -2.0442  0.6462 -1.8396
  136MOL0     H18326   4.210   4.346   1.483 -1.0569  3.2384  2.1475
  136MOL0     H18327   4.032   4.349   1.455 -0.3995  2.3006  1.4640
  136MOL0     H18328   4.237   4.273   1.252  0.2117 -1.4591  1.4616
  136MOL0     H18329   4.172   4.162   1.374  0.9853  0.9283  1.7132
  136MOL0     H18330   3.947   4.193   1.290  2.0461 -1.3075  2.4079
  136MOL0     H18331   4.042   4.153   1.146 -0.2013  2.4990 -3.2875
  136MOL0     H18332   3.956   4.439   1.233  2.0649 -0.6764  1.5028
  136MOL0     H18333   4.079   4.412   1.112  0.2525 -1.4950 -2.2324
  136MOL0     H18334   3.809   4.277   1.083 -1.1447  0.5931 -1.1582
  136MOL0     H18335   3.939   4.314   0.957 -0.0355  0.8370 -0.8588
  136MOL0     H18336   3.773   4.526   1.085  0.0570  0.5728 -0.9412
  136MOL0     H18337   3.903   4.554   0.963 -0.7314 -0.0376 -3.5615
  136MOL0     H18338   3.625   4.413   0.924  1.1219  0.2961  3.2103
  136MOL0     H18339   3.763   4.379   0.823  1.4978 -1.6673  1.4575
  136MOL0     H18340   3.591   4.565   0.741  0.1343  2.1126 -1.7258
  136MOL0     H18341   3.760   4.625   0.750 -1.9152  1.2878 -1.9373
  136MOL0     H18342   4.194   4.729   1.292 -1.1595  2.5323  0.1432
  136MOL0     H18343   4.186   4.931   1.430  1.3727 -0.9884  0.4766
  136MOL0     H18344   4.002   5.123   1.798 -0.2788  0.0776 -1.3795
  136MOL0     H18345   3.954   5.286   1.962 -0.9769 -1.5854 -0.0037
  136MOL0     H18346   5.180   5.085   2.113 -0.1244  0.0868 -1.3180
  136MOL0     H18347   5.285   4.857   2.191 -1.6274 -1.1346 -1.2313
  136MOL0     H18348   5.436   4.518   2.233 -0.6300 -1.9277 -0.3842
  136MOL0     H18349   5.534   4.289   2.288 -1.7876  2.6949  1.4708
  136MOL0     H18350   5.690   4.096   2.384 -1.0207 -4.3187  0.5806
  136MOL0     H18351   5.638   4.097   2.217 -0.0046  0.5269  0.1968
  136MOL0     H18352   5.859   3.996   2.144  0.6854  0.3619  0.5828
  136MOL0     H18353   5.768   3.890   2.257 -1.3930  0.9629  3.2920
  136MOL0     H18354   5.960   4.092   2.388  2.6705  0.3664 -2.4095
  136MOL0     H18355   6.025   3.951   2.307  1.2042  0.3637  1.4898
  136MOL0     H18356   5.887   3.795   2.471 -0.0235 -1.2930  0.8757
  136MOL0     H18357   5.813   3.945   2.523 -0.5055  2.7544 -4.5110
  136MOL0     H18358   6.122   3.959   2.775 -2.5876  0.4860  1.8396
  136MOL0     H18359   5.927   4.435   2.237  0.6231  0.8067 -0.2911
  136MOL0     H18360   5.847   4.670   2.254  1.0882 -2.3131  2.6093
  137MOL0     O18361   1.826   2.972   9.867  0.1506  0.0998 -0.6215
  137MOL0     C18362   1.872   2.944   9.983  0.0537  0.1434  0.2187
  137MOL0     O18363   1.890   2.821  10.037 -0.0475  0.2357 -0.2840
  137MOL0     C18364   1.870   2.714   9.964 -0.8258  0.1860  0.3023
  137MOL0     C18365   1.983   2.637   9.951  0.2945 -0.1945 -0.1492
  137MOL0     C18366   1.978   2.522   9.873  0.0372  0.6055  0.6900
  137MOL0     C18367   1.866   2.491   9.790  0.2258  0.1146  0.1646
  137MOL0     O18368   1.863   2.388   9.703 -0.1257 -0.4244 -0.5221
  137MOL0     C18369   1.973   2.300   9.732  0.6751  0.1351  0.0424
  137MOL0     C18370   1.955   2.158   9.677  0.0610 -1.2073 -0.5459
  137MOL0     C18371   1.822   2.103   9.726 -0.4944 -0.1383  0.0668
  137MOL0     C18372   1.809   1.953   9.713 -0.7866 -0.3220  0.9853
  137MOL0     C18373   1.863   1.902   9.581 -0.0510  0.0514  0.4953
  137MOL0     C18374   1.847   1.748   9.561 -0.2568  0.2341  0.1597
  137MOL0     C18375   1.705   1.713   9.538  0.1439 -0.3022  0.5374
  137MOL0     C18376   1.626   1.773   9.423  0.0980 -0.5019 -0.5268
  137MOL0     N18377   1.482   1.776   9.448 -0.3972  0.4202 -0.1108
  137MOL0     C18378   1.435   1.875   9.528 -0.3444  0.3154  0.0812
  137MOL0     C18379   1.302   1.852   9.535 -0.0436  0.6989 -0.5707
  137MOL0     C18380   1.200   1.940   9.601  0.7384 -0.3260 -0.0022
  137MOL0     C18381   1.099   1.858   9.683 -0.4127 -0.7764 -0.3341
  137MOL0     C18382   1.016   1.961   9.772 -0.3738  0.9939 -0.8937
  137MOL0     C18383   0.882   1.892   9.818  0.2756 -0.3898  0.1347
  137MOL0     O18384   0.803   1.837   9.709  1.0461 -0.3135  0.5295
  137MOL0     C18385   0.694   1.750   9.746  0.2872 -0.1378  0.0261
  137MOL0     C18386   0.657   1.721   9.879 -0.2882 -0.3175  0.6455
  137MOL0     C18387   0.555   1.623   9.904 -0.2669 -0.0095  0.2905
  137MOL0     C18388   0.522   1.597  10.047 -0.3842  0.7411 -0.9834
  137MOL0     C18389   0.493   1.553   9.791  0.4727 -0.1983  0.1345
  137MOL0     C18390   0.400   1.437   9.796  0.1932 -0.4038 -0.1760
  137MOL0     O18391   0.304   1.446   9.691  0.8075 -0.7611 -0.1255
  137MOL0     C18392   0.173   1.400   9.725 -0.0215  0.9774  0.5451
  137MOL0     C18393   0.151   1.262   9.714 -0.1186  0.6880  0.0068
  137MOL0     C18394   0.019   1.210   9.743  0.1145  0.3870  0.4953
  137MOL0     C18395  -0.080   1.291   9.780  0.5080  0.7988 -0.2275
  137MOL0     O18396  -0.212   1.250   9.800  1.0898 -0.2643  0.2249
  137MOL0     C18397  -0.250   1.114   9.787  0.5881 -0.2238 -0.7739
  137MOL0     C18398  -0.392   1.120   9.855  0.0031 -0.5173 -0.1802
  137MOL0     C18399  -0.464   0.995   9.859 -1.3072 -0.2558 -0.1506
  137MOL0     C18400  -0.573   1.001   9.960 -0.3402  0.6774  0.3775
  137MOL0     C18401  -0.678   0.903   9.934  0.9480 -1.3154  0.6346
  137MOL0     C18402  -0.640   0.756   9.901  0.5041  0.1158 -0.4370
  137MOL0     C18403  -0.624   0.713   9.750 -0.1061 -0.1271 -0.1453
  137MOL0     C18404  -0.647   0.558   9.748  0.0072 -0.0629  0.9055
  137MOL0    Cl18405  -0.539   0.458   9.853 -0.3381  0.1239  0.3706
  137MOL0     C18406  -0.056   1.434   9.791 -0.1272  0.5492  0.0802
  137MOL0     C18407   0.072   1.487   9.767  0.0912 -0.4970  0.8996
  137MOL0     O18408   0.410   1.350   9.880  0.1485  0.6567 -0.0836
  137MOL0     C18409   0.519   1.600   9.660 -0.4613 -0.3816  0.5905
  137MOL0     C18410   0.627   1.695   9.641  0.1288  0.3485  0.0239
  137MOL0     N18411   1.276   1.737   9.477  0.2224  0.8478  0.0127
  137MOL0     N18412   1.382   1.688   9.434 -1.1678 -0.4834  0.5618
  137MOL0     C18413   1.753   2.568   9.813 -1.0917 -0.5442  0.1483
  137MOL0     C18414   1.753   2.679   9.902  0.1227  0.5251  0.5524
  137MOL0     C18415   1.888   3.054  10.073 -0.4629  0.1944  0.2907
  137MOL0     C18416   1.898   3.038  10.215  1.1514  0.0587 -0.4204
  137MOL0     C18417   1.915   3.143  10.306 -0.1607  0.0240  0.9925
  137MOL0     C18418   1.917   3.278  10.255  0.5412  0.0454  0.0286
  137MOL0     O18419   1.928   3.391  10.330  0.7741 -0.9192 -0.1610
  137MOL0     C18420   1.992   3.372  10.461 -0.2745 -1.2303  0.3640
  137MOL0     C18421   2.075   3.492  10.517  1.1537  0.5042 -0.1482
  137MOL0     C18422   2.088   3.465  10.666 -0.0432 -0.3696 -0.0520
  137MOL0     C18423   2.180   3.567  10.740 -0.4873 -0.2055  0.5243
  137MOL0     C18424   2.288   3.646  10.673  0.1324  1.0088  0.2598
  137MOL0     C18425   2.383   3.701  10.615  0.3088 -0.0838 -1.0972
  137MOL0     C18426   1.888   3.296  10.117  0.6939 -0.8294  0.3506
  137MOL0     C18427   1.881   3.191  10.025  0.6866  0.4261 -0.4258
  137MOL0     H18428   2.072   2.666  10.007 -0.7867 -0.5698  1.8772
  137MOL0     H18429   2.074   2.470   9.872  0.8454  2.0404 -1.0255
  137MOL0     H18430   2.062   2.342   9.685  0.2809  2.2991  1.1196
  137MOL0     H18431   2.002   2.283   9.836  3.8695 -1.8273 -1.0210
  137MOL0     H18432   1.942   2.174   9.570 -0.5221 -1.2532 -0.4847
  137MOL0     H18433   2.039   2.090   9.694  2.4827  1.1472 -2.0822
  137MOL0     H18434   1.824   2.129   9.833  2.0288  2.3534 -0.4946
  137MOL0     H18435   1.744   2.150   9.667  1.8946  1.9594 -1.6365
  137MOL0     H18436   1.857   1.902   9.796  0.4460 -1.3295 -0.2996
  137MOL0     H18437   1.702   1.929   9.717 -1.9294  2.8196 -3.3188
  137MOL0     H18438   1.826   1.961   9.497 -1.8056 -0.0102  1.1813
  137MOL0     H18439   1.970   1.920   9.581 -0.3654  2.2333 -0.6715
  137MOL0     H18440   1.908   1.701   9.483 -0.4834  0.3605 -0.0971
  137MOL0     H18441   1.866   1.696   9.655  2.2636  0.8601  0.0609
  137MOL0     H18442   1.706   1.606   9.516 -1.3220 -0.6418  1.9400
  137MOL0     H18443   1.637   1.718   9.623  0.5632  2.8940  0.7997
  137MOL0     H18444   1.649   1.710   9.336  1.9457 -0.2712 -0.2447
  137MOL0     H18445   1.647   1.878   9.401  0.2191 -0.1438  1.1705
  137MOL0     H18446   1.494   1.960   9.558  0.0188  0.1224 -0.0729
  137MOL0     H18447   1.251   2.016   9.661 -1.9419  2.5245 -1.0582
  137MOL0     H18448   1.145   1.989   9.521 -1.2066 -0.1837  1.3487
  137MOL0     H18449   1.148   1.796   9.759  0.2883  1.4878  1.1653
  137MOL0     H18450   1.038   1.796   9.617 -1.9676 -0.7779  1.0342
  137MOL0     H18451   0.999   2.044   9.703  0.1724 -0.5949 -3.0246
  137MOL0     H18452   1.072   1.985   9.863 -3.8963 -0.1206  1.8079
  137MOL0     H18453   0.812   1.968   9.855 -3.0897 -1.6046 -3.0297
  137MOL0     H18454   0.892   1.818   9.897  1.7932  0.4246  0.7295
  137MOL0     H18455   0.704   1.762   9.968  1.7109  0.4230 -0.6765
  137MOL0     H18456   0.547   1.497  10.084 -2.4137  1.1704  1.9627
  137MOL0     H18457   0.570   1.667  10.116  0.3556 -0.0204 -0.7055
  137MOL0     H18458   0.413   1.607  10.051 -0.3698  0.9379  2.3826
  137MOL0     H18459   0.238   1.200   9.693 -2.5005 -1.9823 -2.9528
  137MOL0     H18460  -0.002   1.104   9.743 -2.3459  0.5876 -4.6235
  137MOL0     H18461  -0.244   1.085   9.682  2.4642 -1.4773 -0.3676
  137MOL0     H18462  -0.168   1.058   9.834  2.4889  0.5079 -3.0274
  137MOL0     H18463  -0.381   1.154   9.958 -0.4564 -0.4283 -0.1594
  137MOL0     H18464  -0.457   1.187   9.797  0.5554 -0.4598 -0.7481
  137MOL0     H18465  -0.397   0.913   9.886 -3.2966 -2.3854 -1.3935
  137MOL0     H18466  -0.504   0.975   9.759 -0.1729  1.3466 -0.9845
  137MOL0     H18467  -0.525   0.983  10.056 -0.0010  0.5031  0.1784
  137MOL0     H18468  -0.623   1.098   9.951  1.8461  1.7251 -1.3143
  137MOL0     H18469  -0.740   0.942   9.853  1.4412  0.0362  0.8805
  137MOL0     H18470  -0.730   0.901  10.030 -1.5920 -0.5015 -0.6378
  137MOL0     H18471  -0.548   0.725   9.951  3.0859  0.0369 -4.6865
  137MOL0     H18472  -0.724   0.701   9.944  1.3084 -1.2496 -0.5382
  137MOL0     H18473  -0.522   0.739   9.719 -1.0142  1.7187 -1.7936
  137MOL0     H18474  -0.706   0.758   9.695  0.8256  1.0600 -0.5931
  137MOL0     H18475  -0.649   0.525   9.643 -1.0009 -2.8158  1.7026
  137MOL0     H18476  -0.752   0.530   9.764 -1.5621  2.9913 -2.4955
  137MOL0     H18477  -0.137   1.501   9.818 -1.7815 -0.9392 -0.9502
  137MOL0     H18478   0.087   1.594   9.769 -0.6603 -0.3716  0.3124
  137MOL0     H18479   0.484   1.555   9.567 -0.5033 -1.3392  1.0567
  137MOL0     H18480   0.657   1.709   9.538 -0.6810 -0.4788 -0.3396
  137MOL0     H18481   1.663   2.559   9.754 -1.7393 -3.0385  1.3948
  137MOL0     H18482   1.654   2.724   9.902 -1.4288 -2.6201  1.4485
  137MOL0     H18483   1.886   2.937  10.251  3.4782 -0.1667 -0.1424
  137MOL0     H18484   1.935   3.122  10.410 -0.0143  4.2732  2.0123
  137MOL0     H18485   1.919   3.334  10.534 -0.3441 -2.8974 -0.5173
  137MOL0     H18486   2.068   3.293  10.454  1.4230  0.3059  0.7881
  137MOL0     H18487   2.011   3.579  10.497 -2.7127 -2.2662 -0.8365
  137MOL0     H18488   2.169   3.492  10.460 -0.7452 -0.1514 -3.5770
  137MOL0     H18489   2.134   3.366  10.676  3.0104  0.9587 -0.0359
  137MOL0     H18490   1.996   3.473  10.725  0.3203  0.5507  0.4062
  137MOL0     H18491   2.224   3.508  10.821  1.9942  1.5456  0.5419
  137MOL0     H18492   2.116   3.639  10.794  0.1818  0.1781  0.8168
  137MOL0     H18493   2.457   3.762  10.567  2.7016 -2.1820 -0.3245
  137MOL0     H18494   1.887   3.398  10.082  0.0127 -1.1949 -0.7269
  137MOL0     H18495   1.860   3.213   9.921  2.9147  1.2209 -0.7417
  138MOL0     O18496   9.110   5.954  10.224  0.6118  0.0005 -0.6189
  138MOL0     C18497   9.025   6.039  10.262 -0.7977 -0.0574 -0.9224
  138MOL0     O18498   8.948   6.106  10.178 -0.3791  0.6202 -0.6696
  138MOL0     C18499   8.964   6.070  10.042 -0.0163  1.0046 -0.5419
  138MOL0     C18500   9.067   6.129   9.972  0.7478  0.0186  0.0583
  138MOL0     C18501   9.088   6.098   9.839 -0.1717 -0.0464  0.4917
  138MOL0     C18502   8.989   6.034   9.767 -0.2891  0.0420 -0.5906
  138MOL0     O18503   8.987   6.011   9.629  0.7617  0.9692 -0.4399
  138MOL0     C18504   9.105   5.954   9.560 -0.1706  0.6849 -0.5530
  138MOL0     C18505   9.117   5.800   9.589  0.3743  0.3492 -0.3124
  138MOL0     C18506   8.990   5.722   9.545  0.0966 -0.9800  0.4498
  138MOL0     C18507   8.937   5.757   9.406 -0.5026  0.9870 -0.6330
  138MOL0     C18508   8.829   5.649   9.364  0.0868 -0.4617 -0.3844
  138MOL0     C18509   8.780   5.672   9.215  0.5240 -0.0897  0.3123
  138MOL0     C18510   8.673   5.572   9.163 -0.1591  0.2175 -0.3048
  138MOL0     C18511   8.749   5.450   9.099  0.7568  0.0145  0.2873
  138MOL0     N18512   8.697   5.318   9.149 -0.0481  0.1591  0.4297
  138MOL0     C18513   8.730   5.257   9.266  0.3284 -0.8561  0.3790
  138MOL0     C18514   8.660   5.142   9.277 -0.2725 -0.5546  0.8398
  138MOL0     C18515   8.659   5.037   9.379  1.0992  0.0978 -0.4369
  138MOL0     C18516   8.758   4.933   9.349 -0.3933  1.2267 -1.1760
  138MOL0     C18517   8.764   4.830   9.464 -0.3408  0.0320  0.5302
  138MOL0     C18518   8.867   4.731   9.444 -1.6262 -0.0508 -1.0534
  138MOL0     O18519   8.831   4.668   9.318 -0.7823 -0.0391 -0.4762
  138MOL0     C18520   8.842   4.533   9.312 -0.0087  0.0720 -0.2246
  138MOL0     C18521   8.750   4.448   9.247  0.3689  0.1597  0.6111
  138MOL0     C18522   8.768   4.312   9.226 -0.3824 -0.0466 -0.1567
  138MOL0     C18523   8.671   4.241   9.138  0.0806  0.3262  1.0082
  138MOL0     C18524   8.885   4.257   9.282  0.0664  1.2318  0.3228
  138MOL0     C18525   8.888   4.105   9.281 -1.1980 -0.4555 -0.3443
  138MOL0     O18526   8.861   4.026   9.159 -0.0999 -0.1356 -0.1365
  138MOL0     C18527   8.867   3.895   9.166  0.2140  0.3105 -0.2497
  138MOL0     C18528   8.957   3.820   9.237  0.6192  0.4451  0.0622
  138MOL0     C18529   8.962   3.678   9.217  0.0774 -0.1583  0.3552
  138MOL0     C18530   8.868   3.610   9.129  0.8054 -0.5340 -0.2938
  138MOL0     O18531   8.856   3.479   9.101 -0.5951  1.1058  0.0953
  138MOL0     C18532   8.877   3.392   9.208  0.0657 -0.4854  0.4104
  138MOL0     C18533   8.767   3.417   9.320 -0.7255 -0.8494  0.6130
  138MOL0     C18534   8.628   3.370   9.283 -0.0309  0.5632  0.8708
  138MOL0     C18535   8.524   3.418   9.383  1.1440  0.4746 -0.4091
  138MOL0     C18536   8.376   3.392   9.359  0.4901 -0.0400 -0.2094
  138MOL0     C18537   8.308   3.449   9.234 -0.4371 -0.2238  0.5523
  138MOL0     C18538   8.153   3.416   9.222 -0.5262 -0.0475  0.8035
  138MOL0     C18539   8.088   3.452   9.087  0.0683  0.3353  0.6544
  138MOL0    Cl18540   8.138   3.323   8.968 -0.1787 -0.7454  0.1789
  138MOL0     C18541   8.772   3.690   9.065  0.8959  0.8795 -0.9691
  138MOL0     C18542   8.777   3.838   9.079 -0.4567  0.0586  0.2103
  138MOL0     O18543   8.899   4.058   9.396  0.5332 -0.4145  0.1517
  138MOL0     C18544   8.975   4.337   9.354  0.4325  0.2172 -0.4273
  138MOL0     C18545   8.961   4.471   9.368  0.5026 -1.2390 -0.0638
  138MOL0     N18546   8.592   5.136   9.152  0.2866  0.6246  0.2397
  138MOL0     N18547   8.616   5.235   9.085 -0.3881  0.1367 -0.7003
  138MOL0     C18548   8.869   5.999   9.844 -0.5454 -0.0662  0.2689
  138MOL0     C18549   8.860   6.010   9.977  0.0046  0.1832  0.0205
  138MOL0     C18550   8.991   6.055  10.414  0.4095  0.4755  0.0711
  138MOL0     C18551   8.907   6.155  10.463  0.5332 -0.3882 -0.6926
  138MOL0     C18552   8.891   6.177  10.595  0.6026 -0.1990  0.2095
  138MOL0     C18553   8.961   6.096  10.689 -0.0561  0.5163  0.2958
  138MOL0     O18554   8.936   6.099  10.823 -0.1404  0.6673 -0.1658
  138MOL0     C18555   8.853   6.189  10.888  0.7403  0.9146 -0.6270
  138MOL0     C18556   8.916   6.313  10.941  0.5753 -0.3082  0.1931
  138MOL0     C18557   9.026   6.281  11.059  0.5846 -0.1715  0.8785
  138MOL0     C18558   9.111   6.407  11.070 -0.2004 -0.3883  0.0950
  138MOL0     C18559   9.231   6.381  11.160  0.9548 -0.2998  0.4341
  138MOL0     C18560   9.329   6.374  11.237 -0.2503  0.3293  0.5199
  138MOL0     C18561   9.051   5.998  10.648 -0.1460  0.0187  0.3978
  138MOL0     C18562   9.069   5.988  10.510 -0.3329  0.1259 -0.1022
  138MOL0     H18563   9.143   6.185  10.027 -0.0244  0.2750  0.8920
  138MOL0     H18564   9.176   6.142   9.792 -1.2302  0.2589 -1.2814
  138MOL0     H18565   9.093   5.974   9.454 -0.4837  1.6594 -0.3486
  138MOL0     H18566   9.203   6.000   9.577  0.6018  0.4111 -3.7592
  138MOL0     H18567   9.193   5.760   9.521 -1.0629  1.2084 -2.5639
  138MOL0     H18568   9.124   5.772   9.694  1.9112 -1.8304 -0.9264
  138MOL0     H18569   8.997   5.613   9.541  0.2149 -0.9612 -2.9525
  138MOL0     H18570   8.913   5.741   9.620  1.3571 -0.6898  1.7198
  138MOL0     H18571   8.898   5.859   9.407  2.6340  2.2841  0.5815
  138MOL0     H18572   9.016   5.766   9.330 -3.1212  0.4355 -3.6395
  138MOL0     H18573   8.868   5.548   9.383 -0.5603 -0.1193  3.5645
  138MOL0     H18574   8.745   5.660   9.432  0.3645  2.8881 -0.4193
  138MOL0     H18575   8.741   5.772   9.195 -0.2493 -0.8802 -2.6459
  138MOL0     H18576   8.873   5.655   9.160 -1.5699 -1.6002 -3.0804
  138MOL0     H18577   8.605   5.536   9.239  1.2393 -2.8178 -0.3428
  138MOL0     H18578   8.615   5.622   9.085  1.8575  0.3662 -1.8026
  138MOL0     H18579   8.853   5.470   9.125 -0.3248  2.7688  3.1823
  138MOL0     H18580   8.751   5.448   8.989  2.4819 -2.2549  0.2853
  138MOL0     H18581   8.795   5.283   9.350 -2.6692 -0.3957  2.7075
  138MOL0     H18582   8.683   5.078   9.478  2.0204  2.7556 -1.6523
  138MOL0     H18583   8.562   4.987   9.374 -0.1032  2.3474 -1.1666
  138MOL0     H18584   8.858   4.978   9.341  0.3186  0.3048  1.4402
  138MOL0     H18585   8.736   4.889   9.251  4.0096  0.5046 -2.0806
  138MOL0     H18586   8.668   4.779   9.474 -1.8912  2.6499  0.1374
  138MOL0     H18587   8.792   4.886   9.554  2.0511 -0.7107  0.3300
  138MOL0     H18588   8.860   4.670   9.535 -0.2442  4.1624  2.2120
  138MOL0     H18589   8.966   4.777   9.433 -2.6684  2.7202  0.2587
  138MOL0     H18590   8.659   4.494   9.210 -0.7542 -0.9053  1.9244
  138MOL0     H18591   8.590   4.309   9.111 -0.1752 -0.7759 -1.2331
  138MOL0     H18592   8.708   4.211   9.039  0.1920  3.0109  0.1627
  138MOL0     H18593   8.630   4.156   9.193 -1.9196 -0.9026 -2.0622
  138MOL0     H18594   9.019   3.887   9.294 -0.6777  2.9876 -1.3184
  138MOL0     H18595   9.030   3.613   9.271  0.0673 -0.6004 -0.1595
  138MOL0     H18596   8.876   3.288   9.175  2.9288 -0.8677  1.2990
  138MOL0     H18597   8.978   3.420   9.239  0.3301 -0.2415 -0.6262
  138MOL0     H18598   8.803   3.379   9.416 -0.8555 -5.3600 -0.8706
  138MOL0     H18599   8.751   3.524   9.333 -2.9597 -0.8153 -1.6603
  138MOL0     H18600   8.642   3.263   9.269  2.1593  0.9723 -0.5598
  138MOL0     H18601   8.608   3.419   9.187  1.1475  1.7101  1.1878
  138MOL0     H18602   8.553   3.367   9.475  3.8656  4.8353  1.4181
  138MOL0     H18603   8.520   3.525   9.406 -2.9180  0.2103  1.0176
  138MOL0     H18604   8.316   3.457   9.423  0.1971  4.3033 -4.3476
  138MOL0     H18605   8.367   3.283   9.362 -1.2078  0.0842  0.5769
  138MOL0     H18606   8.327   3.557   9.235  0.8086 -0.3871 -1.2673
  138MOL0     H18607   8.364   3.413   9.147 -0.7853  1.0303 -0.2198
  138MOL0     H18608   8.091   3.459   9.301 -3.1162 -1.4404 -0.3597
  138MOL0     H18609   8.137   3.309   9.241 -3.8433 -0.2177 -1.9414
  138MOL0     H18610   8.117   3.550   9.048  1.3192 -0.4583 -0.4726
  138MOL0     H18611   7.980   3.448   9.104  0.3025 -4.9393  2.9953
  138MOL0     H18612   8.688   3.654   9.007 -0.4178 -0.3914  1.5793
  138MOL0     H18613   8.712   3.910   9.031  0.1205  2.3322  2.6281
  138MOL0     H18614   9.062   4.288   9.395  0.9704  1.0240 -0.5803
  138MOL0     H18615   9.024   4.528   9.435 -0.5027 -1.8657  1.4917
  138MOL0     H18616   8.776   5.963   9.801 -1.3953  1.7045  0.5314
  138MOL0     H18617   8.784   5.963  10.040  2.7815 -0.0933  3.5202
  138MOL0     H18618   8.854   6.221  10.395 -2.8711 -2.2292 -0.0603
  138MOL0     H18619   8.840   6.267  10.628  0.4076  0.1145 -0.8907
  138MOL0     H18620   8.775   6.227  10.822 -0.0910  3.2349  1.4898
  138MOL0     H18621   8.810   6.122  10.963  4.7599 -2.3903 -0.9350
  138MOL0     H18622   8.831   6.363  10.989  0.1191 -0.7943 -0.1023
  138MOL0     H18623   8.970   6.373  10.867  1.2729  1.6077  2.1645
  138MOL0     H18624   9.089   6.199  11.022  1.3128 -0.1095  1.9546
  138MOL0     H18625   8.971   6.246  11.147 -0.9907 -1.2511 -0.4626
  138MOL0     H18626   9.051   6.496  11.091  2.2111  0.9763  1.6778
  138MOL0     H18627   9.164   6.423  10.975 -1.5453 -0.2318 -0.6570
  138MOL0     H18628   9.416   6.379  11.299 -0.3851  0.6917  0.6794
  138MOL0     H18629   9.115   5.947  10.719 -1.5358  0.5179  2.1071
  138MOL0     H18630   9.153   5.926  10.478  0.1574  1.5122 -1.6438
  139MOL0     O18631   8.827  11.421   2.608  0.1335  0.6852  0.3565
  139MOL0     C18632   8.777  11.395   2.718 -0.4039  0.0314 -0.5063
  139MOL0     O18633   8.653  11.403   2.750 -0.5366  0.4536  0.5616
  139MOL0     C18634   8.552  11.417   2.659 -0.2370 -0.1374  0.0098
  139MOL0     C18635   8.448  11.488   2.707 -0.9966  0.8214 -0.3260
  139MOL0     C18636   8.325  11.496   2.636 -0.1446  0.4333 -0.6215
  139MOL0     C18637   8.308  11.429   2.517  0.2407 -0.2129 -0.3041
  139MOL0     O18638   8.192  11.417   2.439  0.0342 -0.6343 -0.5983
  139MOL0     C18639   8.079  11.514   2.455  0.0408  0.3143  0.3524
  139MOL0     C18640   7.943  11.481   2.389  0.1666 -0.1732 -0.3896
  139MOL0     C18641   7.941  11.404   2.256 -1.0867  0.7776 -0.0108
  139MOL0     C18642   7.799  11.369   2.218  0.4743  0.0969  0.1822
  139MOL0     C18643   7.798  11.287   2.089  0.0741  0.2503  0.0411
  139MOL0     C18644   7.681  11.194   2.062 -1.0692  0.5782  0.4587
  139MOL0     C18645   7.676  11.055   2.127 -0.0035 -0.2393 -0.1776
  139MOL0     C18646   7.774  10.957   2.062 -0.1738 -0.1901  0.4612
  139MOL0     N18647   7.807  10.846   2.149 -0.8764  0.1356 -0.1976
  139MOL0     C18648   7.882  10.855   2.265  0.5573  0.3349 -0.2162
  139MOL0     C18649   7.911  10.728   2.303  0.3594 -0.0741  0.3304
  139MOL0     C18650   7.984  10.687   2.434 -0.6871 -0.3340  0.3713
  139MOL0     C18651   8.081  10.558   2.422  0.4909 -0.1304  0.2067
  139MOL0     C18652   7.994  10.436   2.406 -0.1341 -0.2306 -0.0442
  139MOL0     C18653   8.072  10.303   2.395  0.3574 -0.6982 -0.2212
  139MOL0     O18654   8.142  10.285   2.516  0.1512 -0.1078 -0.7532
  139MOL0     C18655   8.260  10.222   2.507 -1.0088  0.2525 -0.4150
  139MOL0     C18656   8.272  10.094   2.446  0.3119 -0.6051  0.2525
  139MOL0     C18657   8.392  10.027   2.453  0.7097 -0.5114 -0.7004
  139MOL0     C18658   8.389   9.884   2.398  0.5791 -1.3786 -0.4361
  139MOL0     C18659   8.503  10.077   2.520 -0.0250 -0.5990  0.4702
  139MOL0     C18660   8.630  10.005   2.552 -0.0313 -0.3572 -1.4931
  139MOL0     O18661   8.726  10.077   2.624  0.3373  0.1306 -0.1110
  139MOL0     C18662   8.848  10.029   2.650  0.5537  0.1894  0.1265
  139MOL0     C18663   8.896  10.060   2.779 -0.6590 -0.3588  0.4333
  139MOL0     C18664   9.011  10.003   2.832 -0.3231  1.0889 -0.8657
  139MOL0     C18665   9.075   9.897   2.763 -0.7250  0.3000  0.2848
  139MOL0     O18666   9.190   9.836   2.812 -0.1796 -0.0233 -0.3492
  139MOL0     C18667   9.187   9.772   2.940  0.4296  0.6381  0.5463
  139MOL0     C18668   9.318   9.696   2.942  0.4909  0.8642  0.3200
  139MOL0     C18669   9.322   9.629   3.075 -0.3958  1.0454 -1.0007
  139MOL0     C18670   9.462   9.561   3.098  0.8012 -0.2792 -0.1657
  139MOL0     C18671   9.452   9.475   3.229  0.1209  1.1375 -0.6803
  139MOL0     C18672   9.559   9.367   3.240 -0.5230  0.1092 -0.4114
  139MOL0     C18673   9.524   9.288   3.370 -0.0772  0.6926 -0.0262
  139MOL0     C18674   9.620   9.176   3.402 -0.0711  0.1315 -0.1438
  139MOL0    Cl18675   9.550   9.080   3.536  0.1286 -0.3758  0.4415
  139MOL0     C18676   9.043   9.878   2.626  1.5594 -0.0237 -0.0255
  139MOL0     C18677   8.922   9.942   2.570  0.2750 -0.5683 -0.1571
  139MOL0     O18678   8.637   9.885   2.528 -0.1836  0.5797  0.1504
  139MOL0     C18679   8.496  10.213   2.555 -0.7756 -0.6178 -0.7852
  139MOL0     C18680   8.375  10.281   2.557  1.0909  0.1338 -0.2975
  139MOL0     N18681   7.856  10.641   2.203  0.4126 -0.1909 -0.3711
  139MOL0     N18682   7.784  10.705   2.120 -0.5425 -0.3646  0.4083
  139MOL0     C18683   8.418  11.344   2.471  0.9290  0.1695 -0.6225
  139MOL0     C18684   8.544  11.347   2.537  0.5270 -0.7156 -0.8037
  139MOL0     C18685   8.868  11.367   2.824 -0.3104 -0.3026  0.5762
  139MOL0     C18686   8.822  11.359   2.958 -0.3124 -0.7617 -0.3411
  139MOL0     C18687   8.906  11.326   3.062  0.4876 -0.5204 -0.5589
  139MOL0     C18688   9.048  11.310   3.046  0.1432  0.3755  0.2555
  139MOL0     O18689   9.109  11.275   3.158 -0.0520  0.4482 -0.0936
  139MOL0     C18690   9.216  11.173   3.149  0.3469 -1.0248 -0.4146
  139MOL0     C18691   9.146  11.033   3.171 -0.0808  0.7567 -0.9185
  139MOL0     C18692   9.227  10.909   3.130  0.5018 -0.7292  0.0603
  139MOL0     C18693   9.349  10.885   3.233  0.2182 -0.0942  0.1061
  139MOL0     C18694   9.461  10.820   3.150  0.2851 -0.0239  1.2131
  139MOL0     C18695   9.542  10.755   3.090 -0.9107  0.0075 -0.4721
  139MOL0     C18696   9.098  11.311   2.910  0.7766 -0.6499 -0.1846
  139MOL0     C18697   9.008  11.343   2.803 -0.0795  0.2299 -0.1041
  139MOL0     H18698   8.451  11.531   2.807 -0.7057 -1.3211  0.6512
  139MOL0     H18699   8.243  11.559   2.670 -0.3869 -0.3579  0.2979
  139MOL0     H18700   8.077  11.555   2.556 -1.0040 -0.2900  0.5893
  139MOL0     H18701   8.109  11.604   2.400  2.2905  1.1719  2.7932
  139MOL0     H18702   7.876  11.430   2.458 -0.2683 -0.9033 -1.3227
  139MOL0     H18703   7.903  11.579   2.361  0.8359  0.0268 -0.6847
  139MOL0     H18704   7.996  11.465   2.184  4.0857  0.8857  3.4903
  139MOL0     H18705   7.991  11.308   2.271 -1.5760  0.4896 -0.2206
  139MOL0     H18706   7.752  11.311   2.298  0.0940  1.5414  1.0389
  139MOL0     H18707   7.732  11.455   2.210  2.7887  2.3007  2.5469
  139MOL0     H18708   7.811  11.351   2.002  2.0669 -0.7354 -0.4486
  139MOL0     H18709   7.889  11.225   2.088 -0.3692 -0.5522  2.3522
  139MOL0     H18710   7.591  11.248   2.093 -3.6044 -3.5889  1.0142
  139MOL0     H18711   7.663  11.188   1.954 -1.2413  2.1809  0.3707
  139MOL0     H18712   7.706  11.067   2.231 -0.3696 -2.0998  0.1772
  139MOL0     H18713   7.571  11.023   2.125  0.0722 -0.6917  1.5604
  139MOL0     H18714   7.859  11.016   2.027 -0.7628 -0.0348 -0.7371
  139MOL0     H18715   7.716  10.913   1.981 -1.1887  1.4952  0.2061
  139MOL0     H18716   7.916  10.949   2.310  1.3444  0.3892 -0.8908
  139MOL0     H18717   8.052  10.770   2.457 -3.2586  2.3518 -1.0520
  139MOL0     H18718   7.918  10.697   2.520 -2.0827  1.0589 -0.8057
  139MOL0     H18719   8.130  10.552   2.519 -0.0418  1.6575  0.6271
  139MOL0     H18720   8.155  10.572   2.343  3.0868  1.2163  2.6721
  139MOL0     H18721   7.921  10.452   2.326  2.6329  4.5738 -2.0108
  139MOL0     H18722   7.925  10.423   2.491 -1.5867  0.6855 -1.0250
  139MOL0     H18723   8.138  10.322   2.310 -0.5194 -0.8599 -0.9518
  139MOL0     H18724   8.010  10.218   2.365  1.5061 -1.1971 -1.2919
  139MOL0     H18725   8.180  10.047   2.413 -0.5020  0.3302  1.1246
  139MOL0     H18726   8.323   9.882   2.311 -2.3436  2.2845  1.3842
  139MOL0     H18727   8.487   9.851   2.364  2.1056 -0.7391  2.8909
  139MOL0     H18728   8.333   9.827   2.473 -2.0393  0.0999 -1.1347
  139MOL0     H18729   8.850  10.131   2.846 -0.8167 -0.5057  0.4812
  139MOL0     H18730   9.045  10.022   2.933 -1.8561  1.0795 -0.3149
  139MOL0     H18731   9.178   9.844   3.022  0.6075  0.4661  0.7172
  139MOL0     H18732   9.106   9.699   2.943  1.1912 -0.3378 -1.1010
  139MOL0     H18733   9.320   9.624   2.859  0.5542  4.2856 -2.8772
  139MOL0     H18734   9.396   9.772   2.935 -1.9267  3.7917  2.5620
  139MOL0     H18735   9.244   9.553   3.070  0.2407  0.2801  0.3176
  139MOL0     H18736   9.299   9.698   3.156 -0.0999  1.0249 -0.8989
  139MOL0     H18737   9.485   9.490   3.018  0.0296 -0.5719 -0.1297
  139MOL0     H18738   9.541   9.637   3.104 -0.6532  1.2085  1.3499
  139MOL0     H18739   9.355   9.424   3.228  1.2982 -1.2823  0.0660
  139MOL0     H18740   9.456   9.541   3.316  4.4352 -0.9281  1.0143
  139MOL0     H18741   9.557   9.305   3.150 -0.1128  1.2103 -1.1996
  139MOL0     H18742   9.664   9.396   3.234 -0.7094  0.7443 -0.6606
  139MOL0     H18743   9.426   9.240   3.362  0.1219 -0.1604  2.1494
  139MOL0     H18744   9.496   9.353   3.453 -0.7228  1.4437 -0.8077
  139MOL0     H18745   9.719   9.216   3.428 -0.4780  0.3720  1.0655
  139MOL0     H18746   9.652   9.107   3.323  1.5466 -1.0079  1.4338
  139MOL0     H18747   9.092   9.797   2.572  3.8820 -0.8477  3.0698
  139MOL0     H18748   8.898   9.911   2.469 -1.0369  0.7348 -0.2735
  139MOL0     H18749   8.582  10.269   2.591 -1.5048  1.2156 -1.7826
  139MOL0     H18750   8.362  10.388   2.571 -1.0667  0.3853 -3.3193
  139MOL0     H18751   8.406  11.280   2.384  0.5108 -0.8996  0.1929
  139MOL0     H18752   8.628  11.296   2.492  1.9571  0.7591  0.0781
  139MOL0     H18753   8.715  11.360   2.979 -0.1571  0.9447  0.5657
  139MOL0     H18754   8.852  11.302   3.153 -1.6708  2.1324 -1.0098
  139MOL0     H18755   9.268  11.167   3.052  3.3139 -0.6924  1.0373
  139MOL0     H18756   9.301  11.189   3.216  1.2005  0.6691 -1.7994
  139MOL0     H18757   9.045  11.029   3.131 -2.3246  1.0842  3.9720
  139MOL0     H18758   9.131  11.013   3.278  1.3723 -0.6847 -0.9466
  139MOL0     H18759   9.257  10.928   3.026 -1.4228  1.5811 -0.1415
  139MOL0     H18760   9.163  10.820   3.130  1.1447 -1.3057 -2.9399
  139MOL0     H18761   9.314  10.800   3.292  1.2775 -0.4843  0.2012
  139MOL0     H18762   9.375  10.969   3.297  3.1331 -1.9888  1.6458
  139MOL0     H18763   9.610  10.700   3.028 -0.5486 -0.9331  0.7193
  139MOL0     H18764   9.204  11.297   2.894  0.8050  0.5700 -1.2378
  139MOL0     H18765   9.055  11.338   2.706 -1.2755  3.1278 -0.9481
  140MOL0     O18766   9.546   6.349  10.402 -0.8087  0.9332 -0.5343
  140MOL0     C18767   9.431   6.377  10.372 -0.0352  1.2857  0.7539
  140MOL0     O18768   9.320   6.311  10.418 -0.3022 -0.2136 -0.8427
  140MOL0     C18769   9.329   6.225  10.525 -1.7897 -0.2463  0.1787
  140MOL0     C18770   9.408   6.106  10.526 -0.0066 -0.0599 -0.1111
  140MOL0     C18771   9.434   6.038  10.643  0.1159  1.1053  0.1695
  140MOL0     C18772   9.347   6.061  10.754 -0.2019  0.4660  0.2956
  140MOL0     O18773   9.350   5.970  10.858 -0.1541  0.0731  0.3690
  140MOL0     C18774   9.252   5.987  10.967  0.2695  0.3404 -0.7074
  140MOL0     C18775   9.302   5.883  11.071 -0.3555 -0.4350 -0.2969
  140MOL0     C18776   9.449   5.894  11.123  0.3360 -0.0198  0.1832
  140MOL0     C18777   9.463   6.019  11.187  0.8892  0.1620  0.2144
  140MOL0     C18778   9.587   6.024  11.284  0.5985  0.9812 -0.1146
  140MOL0     C18779   9.590   6.131  11.398  1.2709  0.8956  0.7431
  140MOL0     C18780   9.724   6.157  11.472  0.0317  0.4208 -0.2941
  140MOL0     C18781   9.752   6.027  11.563  0.0017 -0.5078  0.6789
  140MOL0     N18782   9.866   6.048  11.648  0.0262 -0.3369 -0.8339
  140MOL0     C18783   9.856   6.027  11.788  0.0160  0.0953 -0.1863
  140MOL0     C18784   9.984   6.050  11.828 -0.0723  0.0970  0.9133
  140MOL0     C18785  10.029   6.042  11.971 -0.9107 -0.1156  0.1352
  140MOL0     C18786  10.075   6.183  12.025 -0.4875 -0.7919  1.1582
  140MOL0     C18787  10.145   6.170  12.161  0.8650 -0.2492 -0.3690
  140MOL0     C18788  10.294   6.184  12.149  0.5466  0.2290  0.0765
  140MOL0     O18789  10.371   6.180  12.273  0.6057 -0.7234  0.5527
  140MOL0     C18790  10.508   6.186  12.267 -0.6885 -0.0784 -0.2845
  140MOL0     C18791  10.590   6.180  12.154 -0.5765 -0.6341  0.1108
  140MOL0     C18792  10.730   6.190  12.155 -0.3871  0.1701  0.3614
  140MOL0     C18793  10.794   6.184  12.023  0.3208 -0.6219  0.0293
  140MOL0     C18794  10.789   6.195  12.283  0.3492 -0.5677  1.2318
  140MOL0     C18795  10.938   6.209  12.290 -0.4434  1.1131  0.5187
  140MOL0     O18796  10.998   6.152  12.397 -0.0054 -0.4895  0.0528
  140MOL0     C18797  11.134   6.121  12.372  0.0050 -0.0397 -0.7823
  140MOL0     C18798  11.168   5.991  12.345  0.3200 -0.4269  0.0773
  140MOL0     C18799  11.308   5.961  12.320 -0.2446 -0.3732  0.8681
  140MOL0     C18800  11.410   6.062  12.330  1.1530 -0.4097 -0.2368
  140MOL0     O18801  11.543   6.037  12.315 -0.3027 -0.0054  0.2882
  140MOL0     C18802  11.603   5.933  12.398  0.1882 -0.3443  0.5518
  140MOL0     C18803  11.758   5.935  12.389  0.5000  0.9476  0.6487
  140MOL0     C18804  11.813   6.057  12.452 -0.2672 -0.2710 -0.3046
  140MOL0     C18805  11.954   6.081  12.481 -0.9052 -0.3492 -0.2796
  140MOL0     C18806  11.978   6.217  12.552 -0.0462 -0.8038 -0.5673
  140MOL0     C18807  12.126   6.238  12.548 -0.2166  1.3470  0.1626
  140MOL0     C18808  12.168   6.373  12.619 -1.2621  0.4467 -0.0926
  140MOL0     C18809  12.163   6.353  12.776 -0.1326 -0.0026 -0.7341
  140MOL0    Cl18810  12.259   6.464  12.854 -0.3487  0.3741  0.2547
  140MOL0     C18811  11.363   6.191  12.355  0.2831 -0.6140  0.7563
  140MOL0     C18812  11.232   6.214  12.394 -0.6645 -0.4799 -0.9385
  140MOL0     O18813  11.000   6.270  12.199  0.3238 -0.5450 -0.2651
  140MOL0     C18814  10.708   6.175  12.401  0.6925  0.1794  0.5350
  140MOL0     C18815  10.567   6.189  12.389  0.3041 -0.8490 -0.5095
  140MOL0     N18816  10.067   6.063  11.716 -0.1376 -0.0895  0.9213
  140MOL0     N18817   9.992   6.079  11.616 -1.1260  0.2171  0.8422
  140MOL0     C18818   9.266   6.184  10.753 -0.4213  0.2463 -0.1805
  140MOL0     C18819   9.267   6.265  10.641  0.1672 -0.2562 -0.0021
  140MOL0     C18820   9.410   6.497  10.281 -0.4597  0.4579 -0.6572
  140MOL0     C18821   9.484   6.621  10.284  0.6439  0.0251  0.4694
  140MOL0     C18822   9.452   6.727  10.206 -0.3177 -0.8409  0.3103
  140MOL0     C18823   9.346   6.712  10.120  0.5881  0.2819  0.0328
  140MOL0     O18824   9.299   6.818  10.045  0.6902  0.1525 -0.5989
  140MOL0     C18825   9.221   6.803   9.921  0.7377 -0.2028 -0.1166
  140MOL0     C18826   9.220   6.925   9.826  0.1847 -0.3373 -0.0847
  140MOL0     C18827   9.134   7.046   9.881  0.3906  0.9661 -0.3122
  140MOL0     C18828   9.147   7.164   9.784 -0.5851 -0.3115 -0.1035
  140MOL0     C18829   9.086   7.140   9.657  0.1039 -0.2197 -0.5560
  140MOL0     C18830   9.045   7.116   9.555  0.5722  0.0850  1.0112
  140MOL0     C18831   9.280   6.590  10.103  0.7951 -0.5526 -0.8490
  140MOL0     C18832   9.301   6.488  10.186 -0.1254 -0.3260 -0.4634
  140MOL0     H18833   9.452   6.074  10.432  1.1662 -0.2766  0.4933
  140MOL0     H18834   9.494   5.948  10.636 -1.7305 -0.0155 -2.6739
  140MOL0     H18835   9.259   6.093  10.993 -0.0796  0.2523 -0.2511
  140MOL0     H18836   9.152   5.963  10.929  0.4555 -3.8382  0.9467
  140MOL0     H18837   9.239   5.890  11.160  0.6781  2.8925  0.3211
  140MOL0     H18838   9.293   5.783  11.027 -2.6484  1.0473 -3.5489
  140MOL0     H18839   9.471   5.808  11.187 -0.8698 -1.2930 -1.0443
  140MOL0     H18840   9.508   5.882  11.032 -2.5257  1.1896 -1.9872
  140MOL0     H18841   9.485   6.101  11.117  1.3874  2.5391  2.9805
  140MOL0     H18842   9.371   6.050  11.237  1.0035 -0.1408  0.6181
  140MOL0     H18843   9.610   5.930  11.334  3.1870  1.8424  0.4503
  140MOL0     H18844   9.678   6.037  11.225  1.7496  0.4117  1.4579
  140MOL0     H18845   9.568   6.224  11.344 -0.7307  1.0436  1.7314
  140MOL0     H18846   9.507   6.099  11.462 -2.1383 -2.4201 -4.5813
  140MOL0     H18847   9.802   6.159  11.395 -0.2218 -0.9591 -0.6278
  140MOL0     H18848   9.717   6.249  11.530  0.2520  0.5088 -0.4055
  140MOL0     H18849   9.773   5.941  11.500  1.9778  0.7165 -0.4345
  140MOL0     H18850   9.671   5.998  11.631  1.7771 -2.5505  2.0563
  140MOL0     H18851   9.778   6.012  11.861 -0.2944 -1.6555 -0.8203
  140MOL0     H18852   9.950   5.999  12.033  0.1188 -4.1899 -1.0808
  140MOL0     H18853  10.117   5.979  11.976 -2.1052 -1.7246  2.7230
  140MOL0     H18854   9.993   6.255  12.040 -0.2949 -0.1330 -0.7554
  140MOL0     H18855  10.140   6.233  11.953 -1.8268 -0.5362  0.0684
  140MOL0     H18856  10.121   6.070  12.199  2.7590 -0.3581  0.6743
  140MOL0     H18857  10.106   6.252  12.222  0.2450 -0.9673  0.2061
  140MOL0     H18858  10.323   6.281  12.107  0.4749 -0.1068 -0.7645
  140MOL0     H18859  10.326   6.109  12.076 -0.2397 -0.3411  0.2964
  140MOL0     H18860  10.544   6.192  12.056 -0.6827  1.8973  0.3931
  140MOL0     H18861  10.726   6.158  11.941  1.0545  1.0941 -1.1736
  140MOL0     H18862  10.834   6.284  12.006 -2.8115  0.5194 -1.3312
  140MOL0     H18863  10.883   6.120  12.017  2.1926  1.4587  2.9897
  140MOL0     H18864  11.102   5.909  12.320 -1.3287  1.2193 -1.1827
  140MOL0     H18865  11.335   5.866  12.275 -1.3502  0.3143 -1.4103
  140MOL0     H18866  11.569   5.928  12.502 -0.1395  0.9470  0.5189
  140MOL0     H18867  11.571   5.836  12.359 -0.3838  0.5562 -1.3364
  140MOL0     H18868  11.780   5.840  12.438 -1.8902 -2.0676 -3.4793
  140MOL0     H18869  11.792   5.923  12.285 -2.7587 -2.2681 -0.2701
  140MOL0     H18870  11.762   6.043  12.549  1.1422 -2.4208  0.2025
  140MOL0     H18871  11.771   6.143  12.399 -2.2340  1.2547  3.3350
  140MOL0     H18872  12.001   6.004  12.544 -3.0760  0.1686  2.1488
  140MOL0     H18873  12.005   6.072  12.384  0.1829 -2.6848  0.4405
  140MOL0     H18874  11.947   6.208  12.656  1.8420 -0.1414  0.0888
  140MOL0     H18875  11.930   6.298  12.497  0.4240  0.0536  0.2586
  140MOL0     H18876  12.162   6.144  12.591 -5.1256 -0.5360  0.8793
  140MOL0     H18877  12.158   6.235  12.443 -2.2593  1.2864 -0.5200
  140MOL0     H18878  12.099   6.455  12.597 -1.9614 -0.3066 -0.7482
  140MOL0     H18879  12.270   6.395  12.586 -1.8980  0.7808 -1.9032
  140MOL0     H18880  12.195   6.254  12.811  4.3188  1.1030 -1.0781
  140MOL0     H18881  12.057   6.360  12.802  0.2572 -0.7415  1.2814
  140MOL0     H18882  11.439   6.268  12.345 -1.5773  1.0512 -1.7695
  140MOL0     H18883  11.193   6.312  12.420  4.1198  1.4182  0.2159
  140MOL0     H18884  10.755   6.187  12.499 -0.6248  0.0805  1.2056
  140MOL0     H18885  10.505   6.188  12.478 -1.0273 -1.0656 -1.4164
  140MOL0     H18886   9.192   6.208  10.829  0.3162  1.8401  0.0637
  140MOL0     H18887   9.196   6.348  10.639 -0.8210 -1.0648  0.5634
  140MOL0     H18888   9.571   6.631  10.349 -0.0735 -1.3872  1.7039
  140MOL0     H18889   9.510   6.817  10.226 -1.1693 -0.1424 -0.2749
  140MOL0     H18890   9.264   6.720   9.863  2.9716  0.2000  0.8565
  140MOL0     H18891   9.120   6.769   9.944  0.3978  1.2688  0.6447
  140MOL0     H18892   9.192   6.907   9.722  2.6568  0.6321 -0.9746
  140MOL0     H18893   9.322   6.961   9.814 -0.2949  0.3343 -2.7971
  140MOL0     H18894   9.167   7.065   9.984  0.5787 -1.2011  0.0598
  140MOL0     H18895   9.031   7.010   9.893  0.2895  1.7233  1.4347
  140MOL0     H18896   9.256   7.174   9.774 -0.2057  1.5784  3.9491
  140MOL0     H18897   9.092   7.254   9.815 -1.4297 -0.4197 -1.2300
  140MOL0     H18898   8.994   7.081   9.467 -3.3771  3.1257  1.7699
  140MOL0     H18899   9.202   6.571  10.030 -0.2725 -0.5444  0.2539
  140MOL0     H18900   9.239   6.400  10.181 -0.1196 -0.3329 -0.4099
  141MOL0     O18901   5.324   7.165   2.859  0.1397 -0.1209 -0.1657
  141MOL0     C18902   5.386   7.077   2.923 -0.3020 -0.1719  0.2040
  141MOL0     O18903   5.460   6.974   2.860 -0.6661  0.5394  0.4970
  141MOL0     C18904   5.446   6.954   2.726  0.3201  1.1215 -0.4501
  141MOL0     C18905   5.326   6.920   2.659  0.4149 -1.0550  0.3984
  141MOL0     C18906   5.317   6.914   2.524  0.5577 -0.0017 -0.5858
  141MOL0     C18907   5.426   6.944   2.454  0.9580 -0.3607 -0.3455
  141MOL0     O18908   5.416   6.969   2.319  0.1195  0.0246 -0.1882
  141MOL0     C18909   5.503   6.886   2.242  0.1149  0.9117  0.4766
  141MOL0     C18910   5.405   6.797   2.162  0.0550  0.2927  0.5510
  141MOL0     C18911   5.308   6.875   2.086  0.5848 -0.3445 -0.1390
  141MOL0     C18912   5.207   6.778   2.023 -0.5386  0.9335 -1.5415
  141MOL0     C18913   5.143   6.851   1.907 -0.9279 -0.6124 -0.4180
  141MOL0     C18914   5.024   6.777   1.850  1.1102  0.2487  0.3502
  141MOL0     C18915   5.041   6.647   1.798 -1.0927  1.5600 -0.0377
  141MOL0     C18916   4.911   6.604   1.725  0.4831  0.1915 -0.8233
  141MOL0     N18917   4.887   6.462   1.709 -0.6881  0.1334 -0.0933
  141MOL0     C18918   4.801   6.383   1.779  0.5363  0.1772 -0.3557
  141MOL0     C18919   4.820   6.252   1.739  0.2161 -0.4122 -0.3850
  141MOL0     C18920   4.764   6.121   1.763 -0.2359  0.1132 -0.6697
  141MOL0     C18921   4.617   6.133   1.809 -0.0081  0.3152  0.5374
  141MOL0     C18922   4.623   6.112   1.965  0.9794  0.0373  0.3827
  141MOL0     C18923   4.491   6.063   2.015  0.4012 -0.8291  0.1934
  141MOL0     O18924   4.377   6.148   1.960 -0.1092  0.2565 -0.7647
  141MOL0     C18925   4.260   6.128   2.032  0.5316 -0.8430  0.3804
  141MOL0     C18926   4.239   6.011   2.106 -0.8289 -0.6898  0.2876
  141MOL0     C18927   4.132   5.998   2.196 -1.3293 -0.5052  0.0446
  141MOL0     C18928   4.125   5.869   2.276 -0.0388 -0.1533 -0.2703
  141MOL0     C18929   4.029   6.100   2.200 -0.4897  0.6471  0.9115
  141MOL0     C18930   3.893   6.087   2.272 -0.5192 -0.5328  0.6071
  141MOL0     O18931   3.793   6.182   2.256 -0.2477 -0.2098  0.0128
  141MOL0     C18932   3.685   6.173   2.346 -0.5965  0.2209  0.2991
  141MOL0     C18933   3.589   6.066   2.337  0.4206 -0.4413 -0.2667
  141MOL0     C18934   3.471   6.062   2.420  0.2659  1.0861  0.6541
  141MOL0     C18935   3.466   6.146   2.532 -0.7729  0.5990 -0.7205
  141MOL0     O18936   3.371   6.137   2.627 -0.0682 -1.2911 -0.4689
  141MOL0     C18937   3.243   6.205   2.597 -0.2823  0.8113 -0.5729
  141MOL0     C18938   3.223   6.316   2.502 -0.7553  0.1117 -0.1959
  141MOL0     C18939   3.087   6.379   2.475 -0.1748  0.2110 -0.2023
  141MOL0     C18940   3.032   6.434   2.602 -0.2653  0.1712 -0.0444
  141MOL0     C18941   2.899   6.517   2.600  0.1808 -0.4547  0.8499
  141MOL0     C18942   2.858   6.554   2.454 -0.0662 -0.7079 -0.4911
  141MOL0     C18943   2.718   6.596   2.452  0.4018 -0.1460 -0.9619
  141MOL0     C18944   2.669   6.693   2.566 -0.0897 -0.7944 -0.4316
  141MOL0    Cl18945   2.507   6.734   2.540 -0.0242  0.1041  0.0043
  141MOL0     C18946   3.556   6.254   2.539 -0.8246  0.0291 -0.2470
  141MOL0     C18947   3.667   6.262   2.452  0.0759  0.1857  0.4054
  141MOL0     O18948   3.882   5.988   2.343 -0.8929 -0.9959 -0.0488
  141MOL0     C18949   4.045   6.201   2.106  0.5274  0.4313 -0.1559
  141MOL0     C18950   4.157   6.228   2.030 -0.2396 -0.4467 -0.3496
  141MOL0     N18951   4.919   6.251   1.647 -1.1347  0.6270  0.1946
  141MOL0     N18952   4.969   6.376   1.636  0.3211  0.0240 -0.1863
  141MOL0     C18953   5.548   6.966   2.513 -0.2950 -0.5868  0.7688
  141MOL0     C18954   5.562   6.974   2.655  0.4215 -0.5404  0.7423
  141MOL0     C18955   5.353   7.074   3.071 -0.4126 -0.8319  0.8141
  141MOL0     C18956   5.247   7.141   3.119 -0.5946  0.9948 -0.2321
  141MOL0     C18957   5.204   7.117   3.250  0.2785  0.6256 -0.2090
  141MOL0     C18958   5.277   7.027   3.342 -0.5695  0.0397 -0.8673
  141MOL0     O18959   5.256   7.004   3.479 -0.0727 -0.2869 -0.1672
  141MOL0     C18960   5.150   7.075   3.549  0.2909  0.4140 -0.3456
  141MOL0     C18961   5.006   7.032   3.524  0.1988  0.1836  0.8884
  141MOL0     C18962   4.917   7.135   3.593 -0.3456  0.7167  0.7201
  141MOL0     C18963   4.777   7.088   3.595 -0.7828 -0.0054 -0.2130
  141MOL0     C18964   4.763   6.981   3.695  0.3859 -0.6091 -0.2937
  141MOL0     C18965   4.751   6.880   3.772  0.9638 -0.2634  0.1812
  141MOL0     C18966   5.381   6.959   3.284 -0.1373 -0.4131 -0.2202
  141MOL0     C18967   5.422   6.990   3.149 -0.5190 -0.0574  0.1145
  141MOL0     H18968   5.237   6.895   2.717 -1.7849  4.7795  0.2233
  141MOL0     H18969   5.226   6.902   2.465 -0.6120 -0.3130  1.2098
  141MOL0     H18970   5.557   6.953   2.175  1.5752  1.6773  2.3287
  141MOL0     H18971   5.576   6.824   2.295 -1.2241 -1.4513 -0.2438
  141MOL0     H18972   5.470   6.737   2.098  0.0950  1.5257 -0.5989
  141MOL0     H18973   5.349   6.737   2.235  0.9521 -0.7995  0.3739
  141MOL0     H18974   5.261   6.949   2.151 -1.7196 -1.1282 -0.8420
  141MOL0     H18975   5.346   6.939   2.006 -0.6403 -1.1403 -1.4010
  141MOL0     H18976   5.266   6.694   1.984  2.3013  0.9098  2.2434
  141MOL0     H18977   5.133   6.744   2.096  1.4456 -4.3618 -1.5308
  141MOL0     H18978   5.123   6.957   1.927  0.6725 -0.7157  2.4405
  141MOL0     H18979   5.214   6.863   1.825  0.2098  0.4870  0.6708
  141MOL0     H18980   4.942   6.758   1.919 -2.8358  1.2392 -3.5910
  141MOL0     H18981   4.993   6.845   1.770 -0.7293 -1.6883 -0.6876
  141MOL0     H18982   5.117   6.647   1.719 -1.5751  0.2712 -0.5249
  141MOL0     H18983   5.071   6.575   1.875 -3.1002  0.0451 -0.5939
  141MOL0     H18984   4.923   6.646   1.624  1.2143  3.6058  0.5347
  141MOL0     H18985   4.824   6.651   1.771  1.4574 -0.2333  1.6010
  141MOL0     H18986   4.726   6.399   1.856  2.4738 -2.1920  2.2191
  141MOL0     H18987   4.760   6.067   1.668 -1.9343  0.2129 -0.6821
  141MOL0     H18988   4.833   6.070   1.830 -0.5432  1.6492  0.8782
  141MOL0     H18989   4.561   6.046   1.772  2.7218 -2.0425  1.5236
  141MOL0     H18990   4.576   6.231   1.785 -1.7438 -0.6033 -0.4655
  141MOL0     H18991   4.666   6.197   2.019  2.1424  0.5367 -1.2726
  141MOL0     H18992   4.689   6.030   1.997 -1.4438 -1.8900  0.8185
  141MOL0     H18993   4.495   6.071   2.124  0.3678 -2.3033  0.3286
  141MOL0     H18994   4.481   5.957   1.989 -1.2292 -0.4188 -0.9816
  141MOL0     H18995   4.310   5.929   2.110 -1.7092 -1.4472  1.0103
  141MOL0     H18996   4.219   5.812   2.275  0.0290 -0.1305  1.6191
  141MOL0     H18997   4.099   5.891   2.380 -1.3589 -2.4250 -0.0651
  141MOL0     H18998   4.051   5.797   2.239 -0.3661 -3.6712  5.8694
  141MOL0     H18999   3.605   5.982   2.271 -0.9595 -1.0389  0.1166
  141MOL0     H19000   3.401   5.983   2.395  0.4130  1.6748 -1.8355
  141MOL0     H19001   3.171   6.131   2.560 -0.5586  0.8131 -0.0552
  141MOL0     H19002   3.210   6.240   2.695  0.8982  1.1334 -0.2769
  141MOL0     H19003   3.284   6.401   2.534 -0.7698  1.4593 -3.3556
  141MOL0     H19004   3.261   6.282   2.405  0.9897 -0.9886  0.8297
  141MOL0     H19005   3.019   6.308   2.426  2.9071 -1.8563 -1.8125
  141MOL0     H19006   3.104   6.472   2.420 -0.6478  0.9182  0.8196
  141MOL0     H19007   3.015   6.344   2.662  0.7864  2.0052  3.2596
  141MOL0     H19008   3.109   6.485   2.660 -1.6185 -0.7244  2.7270
  141MOL0     H19009   2.922   6.614   2.646 -1.3453  0.7729 -0.8487
  141MOL0     H19010   2.815   6.469   2.650 -1.8936 -0.7235 -2.5753
  141MOL0     H19011   2.913   6.641   2.417  1.7982 -0.4708  2.4897
  141MOL0     H19012   2.863   6.467   2.388  4.7078 -0.5717 -0.6031
  141MOL0     H19013   2.656   6.506   2.450  3.5233 -2.4820  0.3215
  141MOL0     H19014   2.701   6.636   2.351  1.4193  1.9823 -0.3473
  141MOL0     H19015   2.726   6.787   2.569 -0.4685 -0.5656  2.0088
  141MOL0     H19016   2.669   6.638   2.661 -1.5203  4.3090  2.9893
  141MOL0     H19017   3.541   6.315   2.627  0.1313  0.1040 -0.1189
  141MOL0     H19018   3.721   6.351   2.483 -0.0690 -0.4879  2.7958
  141MOL0     H19019   3.967   6.277   2.104 -1.5506 -1.5712  0.4484
  141MOL0     H19020   4.155   6.326   1.983  1.5582 -0.7899 -1.2147
  141MOL0     H19021   5.631   6.990   2.448 -0.9106 -0.7410 -0.0900
  141MOL0     H19022   5.657   6.990   2.705  1.8585 -0.6766 -1.7433
  141MOL0     H19023   5.210   7.219   3.053 -0.9624  0.0061 -1.2408
  141MOL0     H19024   5.124   7.182   3.283 -0.2482  0.2810 -0.7870
  141MOL0     H19025   5.183   7.063   3.653 -2.6697 -2.4688  0.4495
  141MOL0     H19026   5.139   7.179   3.520 -4.2604  0.0901 -0.4865
  141MOL0     H19027   4.986   6.936   3.573 -0.2027  0.8270  2.0255
  141MOL0     H19028   4.988   7.020   3.417 -1.0119 -0.0664  1.1110
  141MOL0     H19029   4.926   7.222   3.527 -3.2139  0.3091 -0.3523
  141MOL0     H19030   4.952   7.153   3.695  1.6473  0.0144  0.2070
  141MOL0     H19031   4.757   7.048   3.495 -1.8957 -1.4836  0.5583
  141MOL0     H19032   4.703   7.165   3.616 -0.0729  0.0483  2.4180
  141MOL0     H19033   4.760   6.790   3.829  1.4832  0.1232  0.7223
  141MOL0     H19034   5.440   6.898   3.353 -0.2337  1.7614  1.9120
  141MOL0     H19035   5.501   6.930   3.105 -0.1131 -0.9263  1.9073
  142MOL0     O19036   1.156   4.085   2.809  0.2502 -0.6381  0.2475
  142MOL0     C19037   1.030   4.110   2.824  0.9468  0.0505  0.0319
  142MOL0     O19038   0.986   4.218   2.893  0.0201 -0.9479  0.4619
  142MOL0     C19039   1.091   4.303   2.933  0.0111  0.3497  0.1174
  142MOL0     C19040   1.124   4.300   3.069 -0.1347  0.3956  0.0082
  142MOL0     C19041   1.219   4.382   3.120  0.1176 -0.1426 -0.5612
  142MOL0     C19042   1.280   4.479   3.035 -0.5120  0.7622 -1.0305
  142MOL0     O19043   1.386   4.549   3.088 -0.6610 -0.4923 -0.3359
  142MOL0     C19044   1.500   4.579   3.001  0.2995 -0.3599  0.3594
  142MOL0     C19045   1.618   4.628   3.087  0.4889 -0.7429  0.7847
  142MOL0     C19046   1.755   4.631   3.019  0.7542 -0.2448 -0.3779
  142MOL0     C19047   1.770   4.749   2.924  0.6216  0.3365 -0.0507
  142MOL0     C19048   1.922   4.779   2.890 -0.3350  0.2999 -0.0765
  142MOL0     C19049   1.933   4.889   2.784  0.0082 -0.6076  0.0918
  142MOL0     C19050   2.064   4.888   2.706 -0.2597  0.3399 -0.0216
  142MOL0     C19051   2.043   4.865   2.558  0.0518  0.5417 -0.8802
  142MOL0     N19052   2.002   4.985   2.481 -0.4550  0.1043 -0.9963
  142MOL0     C19053   1.883   5.037   2.479 -0.4031 -0.4443 -0.1802
  142MOL0     C19054   1.896   5.172   2.442  0.0162  0.6761  0.9620
  142MOL0     C19055   1.782   5.261   2.440 -0.0249 -0.6712 -0.8805
  142MOL0     C19056   1.678   5.236   2.326  0.2109  0.1576 -0.6610
  142MOL0     C19057   1.700   5.313   2.200 -0.5102 -0.7638 -0.0397
  142MOL0     C19058   1.647   5.253   2.076  0.4162 -0.1379 -0.5596
  142MOL0     O19059   1.504   5.255   2.070 -1.1176 -0.0376  0.4320
  142MOL0     C19060   1.437   5.136   2.083  0.8604  0.1622 -0.7448
  142MOL0     C19061   1.359   5.116   2.195 -0.1951 -0.4905 -0.4842
  142MOL0     C19062   1.288   4.997   2.215  0.8245 -0.0933 -0.0101
  142MOL0     C19063   1.211   4.993   2.339  0.2825  0.6652 -0.1722
  142MOL0     C19064   1.301   4.884   2.126  0.2391 -0.0351  0.1012
  142MOL0     C19065   1.246   4.743   2.144 -0.0799  0.1116 -0.6026
  142MOL0     O19066   1.252   4.670   2.024  0.0620 -0.4089 -0.2306
  142MOL0     C19067   1.172   4.558   2.013  0.3532  0.0152 -0.3940
  142MOL0     C19068   1.046   4.588   1.964  0.4466  0.0456 -1.3506
  142MOL0     C19069   0.953   4.486   1.945  0.5690 -0.3087 -1.0947
  142MOL0     C19070   1.003   4.351   1.958  0.2868  0.5777  0.4341
  142MOL0     O19071   0.918   4.247   1.937 -0.0775  0.2700 -0.5203
  142MOL0     C19072   0.858   4.234   1.804  1.0860  1.0488 -0.2426
  142MOL0     C19073   0.809   4.084   1.780 -0.4187 -0.0746 -0.3604
  142MOL0     C19074   0.766   4.080   1.636 -0.3105 -0.6687 -0.4374
  142MOL0     C19075   0.746   3.931   1.588 -0.3916 -0.0158  0.0753
  142MOL0     C19076   0.695   3.926   1.442 -0.0103  0.4568  0.6644
  142MOL0     C19077   0.589   3.819   1.430  0.6066 -0.2411 -0.2423
  142MOL0     C19078   0.559   3.786   1.278  0.6804 -0.4345  1.7415
  142MOL0     C19079   0.467   3.669   1.256  0.6255  0.0266 -0.4413
  142MOL0    Cl19080   0.413   3.668   1.086 -0.1309  0.1864  0.0681
  142MOL0     C19081   1.132   4.323   2.017  0.5780  0.4866  0.3283
  142MOL0     C19082   1.219   4.429   2.023 -0.9876 -0.2470  1.0175
  142MOL0     O19083   1.213   4.695   2.254  0.1969 -1.2447  0.0898
  142MOL0     C19084   1.390   4.903   2.014  0.5213 -0.0654  0.2042
  142MOL0     C19085   1.449   5.033   1.989 -0.1329  0.1357  0.6763
  142MOL0     N19086   2.030   5.197   2.416 -0.8872 -0.2064  0.9647
  142MOL0     N19087   2.093   5.085   2.435  0.3252 -0.1816  0.0179
  142MOL0     C19088   1.250   4.482   2.900 -0.0211  0.0707 -0.0025
  142MOL0     C19089   1.151   4.394   2.848 -0.4042 -0.8502 -0.1267
  142MOL0     C19090   0.935   4.002   2.783  0.4541 -0.6906 -0.4947
  142MOL0     C19091   0.975   3.870   2.750 -0.0793  0.4849  0.8428
  142MOL0     C19092   0.881   3.772   2.721  0.6747 -0.3968  0.2469
  142MOL0     C19093   0.745   3.806   2.722 -0.7194 -0.2838  0.4226
  142MOL0     O19094   0.638   3.732   2.691 -0.8968 -0.1792  0.0232
  142MOL0     C19095   0.660   3.606   2.626 -0.1955  0.7577  0.1645
  142MOL0     C19096   0.523   3.558   2.568  0.2102  0.5540  0.4229
  142MOL0     C19097   0.404   3.545   2.659  1.0510 -0.2102  0.1947
  142MOL0     C19098   0.421   3.471   2.800 -0.7174 -0.2175  0.7881
  142MOL0     C19099   0.464   3.337   2.788  0.2238 -0.1657 -0.8955
  142MOL0     C19100   0.491   3.219   2.772  0.1184 -0.5628 -0.3773
  142MOL0     C19101   0.706   3.942   2.754  0.5278  0.5185 -0.4589
  142MOL0     C19102   0.803   4.035   2.780  0.0064  0.6129  0.0199
  142MOL0     H19103   1.059   4.231   3.123  1.0652 -3.1496 -2.6718
  142MOL0     H19104   1.250   4.374   3.223 -0.3119  0.9269 -0.3363
  142MOL0     H19105   1.535   4.489   2.950 -0.4442 -0.6147  0.2859
  142MOL0     H19106   1.473   4.655   2.927 -2.6385  0.2811  1.9303
  142MOL0     H19107   1.605   4.735   3.108  3.2581  0.0136 -0.7947
  142MOL0     H19108   1.624   4.569   3.179  0.5661  0.3673  1.5197
  142MOL0     H19109   1.819   4.651   3.105 -0.8562  1.0549  0.5852
  142MOL0     H19110   1.781   4.537   2.970  1.9943  0.3149 -0.8135
  142MOL0     H19111   1.714   4.724   2.833 -1.9521 -2.5528  2.1146
  142MOL0     H19112   1.731   4.845   2.959 -1.5183  0.4845 -2.5396
  142MOL0     H19113   1.969   4.812   2.983 -0.9907 -1.6091  0.9899
  142MOL0     H19114   1.968   4.686   2.855 -1.2936 -0.4895  0.6820
  142MOL0     H19115   1.859   4.877   2.703  2.0621 -2.6028 -1.6224
  142MOL0     H19116   1.922   4.989   2.825  0.0341  0.4213 -2.2236
  142MOL0     H19117   2.112   4.986   2.709  2.1439 -0.7543 -0.5255
  142MOL0     H19118   2.138   4.821   2.751  0.5561 -0.5647 -2.5645
  142MOL0     H19119   1.980   4.782   2.525 -0.0328  0.3865 -0.3337
  142MOL0     H19120   2.145   4.850   2.521 -0.0137  0.7430 -1.1549
  142MOL0     H19121   1.792   4.990   2.513 -0.4262 -1.3496 -1.4172
  142MOL0     H19122   1.730   5.253   2.536  3.5687 -0.0421  1.2752
  142MOL0     H19123   1.813   5.364   2.422 -1.4177  0.2871  1.6666
  142MOL0     H19124   1.579   5.257   2.368  1.0734  1.1183  0.9843
  142MOL0     H19125   1.695   5.134   2.290  3.4563  0.0864  0.7307
  142MOL0     H19126   1.808   5.330   2.186 -0.2161 -2.6191 -0.2687
  142MOL0     H19127   1.655   5.410   2.222  1.6183  1.2160 -3.4236
  142MOL0     H19128   1.677   5.148   2.069 -0.0762 -0.4413  1.4070
  142MOL0     H19129   1.683   5.307   1.988  0.0960  1.5022  0.2729
  142MOL0     H19130   1.348   5.201   2.262  0.1467 -0.8122 -0.0068
  142MOL0     H19131   1.112   4.949   2.321 -0.0178  0.8961  0.8696
  142MOL0     H19132   1.260   4.926   2.409 -0.1013  0.1971 -0.3463
  142MOL0     H19133   1.202   5.091   2.387 -2.8463 -0.4743  1.8771
  142MOL0     H19134   1.014   4.689   1.939  3.8370  2.2141  2.0418
  142MOL0     H19135   0.856   4.483   1.897 -0.0046  0.9077 -0.0733
  142MOL0     H19136   0.760   4.283   1.798 -0.6500 -1.6009  3.1959
  142MOL0     H19137   0.930   4.261   1.726  0.1998  1.1311 -1.0567
  142MOL0     H19138   0.892   4.015   1.797 -1.6163 -1.3501  0.5521
  142MOL0     H19139   0.734   4.059   1.856 -0.0289 -0.7476 -0.1907
  142MOL0     H19140   0.843   4.130   1.577  0.0903  2.6762  2.5755
  142MOL0     H19141   0.674   4.135   1.617  0.2923  1.5863  2.4065
  142MOL0     H19142   0.840   3.877   1.605  0.1889  1.6641  2.9620
  142MOL0     H19143   0.675   3.894   1.662 -1.2672  2.1421  0.3949
  142MOL0     H19144   0.784   3.905   1.382 -0.8294 -2.1761  0.2856
  142MOL0     H19145   0.647   4.017   1.405  2.6760  1.1507 -1.4652
  142MOL0     H19146   0.610   3.729   1.489  0.1504 -1.2061 -1.4842
  142MOL0     H19147   0.496   3.860   1.470 -0.2057 -0.3530 -1.9436
  142MOL0     H19148   0.653   3.756   1.231 -0.6611 -2.3139  0.1301
  142MOL0     H19149   0.514   3.877   1.238 -2.5468 -3.4634 -2.3777
  142MOL0     H19150   0.392   3.683   1.333 -1.1736 -0.5572 -1.9983
  142MOL0     H19151   0.533   3.583   1.273  0.3653  0.2425  1.8751
  142MOL0     H19152   1.170   4.223   2.037  0.0228 -0.1939 -1.7908
  142MOL0     H19153   1.317   4.436   2.070 -1.4097 -2.0990  2.3057
  142MOL0     H19154   1.401   4.826   1.938  2.6198 -1.5251  1.8671
  142MOL0     H19155   1.507   5.064   1.902  0.2867  1.2368  1.3294
  142MOL0     H19156   1.284   4.565   2.839  0.4513 -0.0081  0.1504
  142MOL0     H19157   1.142   4.403   2.740 -0.5210  1.8724  0.0305
  142MOL0     H19158   1.082   3.856   2.740  0.2201  2.3968  0.8702
  142MOL0     H19159   0.901   3.667   2.703 -3.3895 -1.1367 -1.0985
  142MOL0     H19160   0.730   3.609   2.542 -0.5098 -1.8278 -0.2803
  142MOL0     H19161   0.688   3.539   2.707  1.6722  1.2466 -0.0385
  142MOL0     H19162   0.518   3.471   2.502  1.7446 -1.1577  2.4665
  142MOL0     H19163   0.491   3.638   2.500 -0.4905 -0.5158 -0.5420
  142MOL0     H19164   0.318   3.510   2.600 -0.2524  0.5970  1.5459
  142MOL0     H19165   0.378   3.646   2.692  2.1492  0.3347 -0.5716
  142MOL0     H19166   0.325   3.460   2.851 -1.2913 -1.2705 -0.4459
  142MOL0     H19167   0.494   3.523   2.862  0.9379 -3.8265  2.1807
  142MOL0     H19168   0.531   3.120   2.762  2.5780  0.3068  0.0780
  142MOL0     H19169   0.598   3.955   2.762 -0.0778 -3.1489 -0.9229
  142MOL0     H19170   0.762   4.134   2.797 -5.4333 -1.2961 -0.0307
  143MOL0     O19171   1.368   2.781   3.119 -0.5477 -0.8084 -0.3814
  143MOL0     C19172   1.475   2.825   3.086 -0.3668  0.6181 -0.2222
  143MOL0     O19173   1.510   2.958   3.099  0.0669 -0.2466  0.7192
  143MOL0     C19174   1.427   3.056   3.148  0.4189  0.3938 -0.2223
  143MOL0     C19175   1.291   3.066   3.115 -1.0722  0.0984 -0.4388
  143MOL0     C19176   1.218   3.176   3.168 -1.3048 -0.1130 -0.3843
  143MOL0     C19177   1.278   3.267   3.254 -0.9906 -0.7811  0.0717
  143MOL0     O19178   1.199   3.373   3.295  0.0633  0.7761  0.3367
  143MOL0     C19179   1.239   3.451   3.406 -0.6466  0.3966  0.1236
  143MOL0     C19180   1.114   3.527   3.438  0.8944  0.3429 -0.8582
  143MOL0     C19181   1.104   3.606   3.573  0.9036  0.0386 -1.1651
  143MOL0     C19182   1.004   3.728   3.558 -0.6958 -0.3686 -1.0615
  143MOL0     C19183   1.031   3.845   3.651 -0.1044 -1.3219 -0.6313
  143MOL0     C19184   0.928   3.963   3.665 -0.4598 -1.1625 -0.0485
  143MOL0     C19185   0.908   4.055   3.533  0.1020 -0.4588 -0.8481
  143MOL0     C19186   0.816   4.179   3.569 -0.5965  0.1787 -0.1440
  143MOL0     N19187   0.814   4.267   3.457  0.0318  0.0267 -0.0760
  143MOL0     C19188   0.807   4.233   3.322 -0.3563 -0.1591  0.4168
  143MOL0     C19189   0.780   4.346   3.261 -1.2529 -0.4765  0.1516
  143MOL0     C19190   0.749   4.364   3.111 -0.2011  0.0143 -0.2761
  143MOL0     C19191   0.798   4.506   3.069 -1.2215  0.8815  0.4622
  143MOL0     C19192   0.771   4.522   2.919 -0.9505  0.5520  1.2932
  143MOL0     C19193   0.833   4.657   2.869  0.2720 -0.0686  1.2049
  143MOL0     O19194   0.790   4.757   2.957  0.4223 -0.0639  0.5320
  143MOL0     C19195   0.860   4.876   2.984 -0.6859 -0.9466 -0.0193
  143MOL0     C19196   0.787   4.987   3.040  0.0777  0.9545 -0.3027
  143MOL0     C19197   0.848   5.112   3.051  0.2203  0.1098  0.7984
  143MOL0     C19198   0.743   5.226   3.059 -0.0310  0.0716 -0.5953
  143MOL0     C19199   0.992   5.129   3.028 -0.3688 -0.8258 -0.1971
  143MOL0     C19200   1.064   5.260   3.038 -0.0769  0.6611  0.5052
  143MOL0     O19201   1.181   5.280   2.962 -0.0185  0.3230  0.0326
  143MOL0     C19202   1.268   5.374   3.004  0.1261  0.1913  0.2198
  143MOL0     C19203   1.321   5.392   3.147  0.1192 -0.0618  0.4957
  143MOL0     C19204   1.401   5.504   3.188 -0.2832 -0.8100  1.2651
  143MOL0     C19205   1.454   5.591   3.092  0.1028 -0.4140 -1.0358
  143MOL0     O19206   1.539   5.699   3.114 -0.0046  0.1493  0.2231
  143MOL0     C19207   1.612   5.701   3.241  0.3825  0.3250 -0.2612
  143MOL0     C19208   1.730   5.793   3.223 -0.8041 -0.5064 -0.5078
  143MOL0     C19209   1.846   5.739   3.133  0.3180 -0.3348 -0.7584
  143MOL0     C19210   1.913   5.622   3.192  0.4334  0.2076 -0.0165
  143MOL0     C19211   2.003   5.655   3.310  0.6451 -1.0112 -0.4190
  143MOL0     C19212   2.096   5.544   3.352  0.3514  0.7285 -0.5120
  143MOL0     C19213   2.027   5.416   3.383  1.0552  0.1644  0.8353
  143MOL0     C19214   2.117   5.311   3.439  0.2323 -0.9016 -0.2478
  143MOL0    Cl19215   2.168   5.364   3.615 -0.2403  0.2035 -0.5599
  143MOL0     C19216   1.422   5.568   2.958  0.0602  0.4601 -1.1227
  143MOL0     C19217   1.332   5.463   2.913 -0.6166 -0.0050 -0.3483
  143MOL0     O19218   1.024   5.336   3.127 -0.2044 -0.3706  0.0244
  143MOL0     C19219   1.072   5.016   2.994  0.2308  0.3422 -0.9033
  143MOL0     C19220   1.000   4.892   2.969 -0.3841 -0.3984 -0.5664
  143MOL0     N19221   0.736   4.433   3.360  0.4924  0.2976  0.6553
  143MOL0     N19222   0.766   4.392   3.483  0.2468 -0.6894 -0.5410
  143MOL0     C19223   1.410   3.263   3.287 -0.6190  0.4884 -0.3602
  143MOL0     C19224   1.487   3.155   3.231 -0.3396  0.4413 -0.0747
  143MOL0     C19225   1.571   2.718   3.062 -1.2534 -0.7420 -0.5957
  143MOL0     C19226   1.553   2.587   3.106 -0.3529 -0.3900 -0.1487
  143MOL0     C19227   1.646   2.492   3.053  0.4175  0.0546  0.0771
  143MOL0     C19228   1.760   2.522   2.966  0.1305  0.6236  0.0827
  143MOL0     O19229   1.843   2.434   2.899 -0.0847 -0.6674  0.2170
  143MOL0     C19230   1.796   2.305   2.889  1.0128  0.1846  0.8652
  143MOL0     C19231   1.908   2.231   2.817 -0.2350  0.1636 -0.1788
  143MOL0     C19232   1.981   2.143   2.917  0.9891 -0.6138 -0.2874
  143MOL0     C19233   2.119   2.103   2.874 -0.6285 -1.0856 -0.2831
  143MOL0     C19234   2.150   1.955   2.886 -0.3089 -0.9834  0.5113
  143MOL0     C19235   2.139   1.835   2.896 -0.7753 -0.4146 -0.5658
  143MOL0     C19236   1.778   2.660   2.947 -0.1891 -0.1516 -0.4855
  143MOL0     C19237   1.685   2.754   2.993  0.4417 -0.1921  0.2274
  143MOL0     H19238   1.246   2.996   3.045  1.4275 -2.9207  0.7344
  143MOL0     H19239   1.116   3.202   3.140 -0.8880  1.6664 -0.4193
  143MOL0     H19240   1.278   3.385   3.484 -2.8051 -1.9238 -0.6119
  143MOL0     H19241   1.320   3.516   3.372 -1.7554  1.5160 -0.4210
  143MOL0     H19242   1.105   3.585   3.346  4.5559  1.7272 -0.5089
  143MOL0     H19243   1.028   3.460   3.450  0.2812  0.6226 -3.2144
  143MOL0     H19244   1.077   3.539   3.655  1.5267  0.0876 -0.9143
  143MOL0     H19245   1.208   3.638   3.579  1.6038 -2.2218  0.2152
  143MOL0     H19246   1.001   3.764   3.455  1.4848 -1.2386 -1.4681
  143MOL0     H19247   0.909   3.680   3.583  0.1351 -2.0999 -1.1246
  143MOL0     H19248   1.045   3.808   3.753 -0.8857 -1.7691 -0.6829
  143MOL0     H19249   1.122   3.897   3.620  0.1263 -1.4537 -0.1795
  143MOL0     H19250   0.828   3.925   3.691 -0.2492 -2.0956 -0.5921
  143MOL0     H19251   0.975   4.021   3.745  2.1358 -2.6951 -0.3481
  143MOL0     H19252   1.008   4.090   3.506 -0.2835  2.3222  0.9301
  143MOL0     H19253   0.871   3.994   3.451  0.3092  0.8910 -1.9920
  143MOL0     H19254   0.846   4.236   3.658  2.6306  1.6305 -2.0035
  143MOL0     H19255   0.712   4.151   3.591 -1.2310  2.1896 -0.3780
  143MOL0     H19256   0.814   4.145   3.258  0.4440 -0.8855  1.4664
  143MOL0     H19257   0.778   4.280   3.048 -5.6236 -0.9910 -1.9783
  143MOL0     H19258   0.640   4.369   3.104 -0.1147  0.1287 -1.8485
  143MOL0     H19259   0.905   4.517   3.089 -0.5905  0.1941 -2.2215
  143MOL0     H19260   0.746   4.585   3.125 -3.1128  1.3834 -1.8370
  143MOL0     H19261   0.664   4.522   2.900 -0.5678 -4.7077 -3.1205
  143MOL0     H19262   0.808   4.433   2.867  3.0476  1.9369  1.3869
  143MOL0     H19263   0.800   4.670   2.766  3.7263 -2.7867 -0.4465
  143MOL0     H19264   0.938   4.654   2.838  0.3427  0.2131  1.4075
  143MOL0     H19265   0.679   4.971   3.037  0.1660 -0.5848  2.0336
  143MOL0     H19266   0.722   5.246   3.165  3.2801 -2.7916  0.8154
  143MOL0     H19267   0.793   5.316   3.020  3.4261 -1.6241 -0.4402
  143MOL0     H19268   0.660   5.206   2.991 -1.5072  0.8836  0.8944
  143MOL0     H19269   1.289   5.317   3.219  2.0694 -2.2532 -0.7994
  143MOL0     H19270   1.413   5.509   3.296  1.0812  0.3743  1.0790
  143MOL0     H19271   1.544   5.742   3.316 -1.0052 -0.1001 -1.2501
  143MOL0     H19272   1.640   5.602   3.278 -1.0954 -0.5674 -1.4086
  143MOL0     H19273   1.689   5.888   3.186 -2.5714  0.1556  2.7909
  143MOL0     H19274   1.773   5.811   3.322 -0.6068 -2.4079 -0.2280
  143MOL0     H19275   1.917   5.822   3.127 -1.8408  1.6856 -0.0789
  143MOL0     H19276   1.809   5.717   3.032  1.8196 -1.9004 -1.0210
  143MOL0     H19277   1.842   5.544   3.222 -4.2282  1.9410 -4.9010
  143MOL0     H19278   1.979   5.582   3.115  1.0316  0.5881  0.2994
  143MOL0     H19279   1.950   5.681   3.402 -0.0437 -0.1627 -1.0378
  143MOL0     H19280   2.064   5.738   3.273  1.0490 -0.8406  0.5843
  143MOL0     H19281   2.163   5.517   3.269 -1.5902 -0.7342 -1.7008
  143MOL0     H19282   2.162   5.569   3.435  0.9083  3.2423 -1.6199
  143MOL0     H19283   1.976   5.370   3.298 -1.6453  1.3526  1.7229
  143MOL0     H19284   1.945   5.434   3.453 -1.2694 -2.0913 -1.1122
  143MOL0     H19285   2.209   5.306   3.380 -0.5067  0.0503 -1.5360
  143MOL0     H19286   2.065   5.217   3.421 -0.8816 -0.3354 -0.0425
  143MOL0     H19287   1.474   5.623   2.880  1.8868 -1.7198 -1.5776
  143MOL0     H19288   1.318   5.439   2.808  2.4989  2.3595 -1.4418
  143MOL0     H19289   1.180   5.014   2.994  0.2288 -1.1995 -0.8685
  143MOL0     H19290   1.043   4.799   2.935  0.2121  0.2260 -1.5687
  143MOL0     H19291   1.456   3.349   3.336 -0.5216  0.0906  0.2552
  143MOL0     H19292   1.594   3.143   3.241  0.1812  2.9785 -1.6049
  143MOL0     H19293   1.468   2.553   3.165 -0.5922  2.3325  1.2087
  143MOL0     H19294   1.619   2.388   3.069  2.0140 -0.3993 -0.0405
  143MOL0     H19295   1.776   2.268   2.990 -3.3607  1.2264  0.5882
  143MOL0     H19296   1.702   2.302   2.833  2.3897  1.8051 -1.7547
  143MOL0     H19297   1.984   2.297   2.773 -1.3993  1.5777 -0.1824
  143MOL0     H19298   1.868   2.169   2.736  1.3408  0.2699 -1.0894
  143MOL0     H19299   1.922   2.057   2.949  1.3895 -1.2366 -1.1695
  143MOL0     H19300   1.985   2.198   3.011  1.0243  2.9359 -2.1909
  143MOL0     H19301   2.185   2.174   2.925  0.9098 -1.0760 -2.1706
  143MOL0     H19302   2.130   2.137   2.770 -2.5574 -2.7891 -1.0989
  143MOL0     H19303   2.134   1.734   2.931 -0.2933  0.4785  2.3439
  143MOL0     H19304   1.856   2.688   2.877 -1.3155  0.3927 -1.5537
  143MOL0     H19305   1.708   2.858   2.974 -0.9203  0.1387  0.2467
  144MOL0     O19306   2.281   7.710   7.801  0.0617 -0.1081  1.1530
  144MOL0     C19307   2.337   7.755   7.700  0.2889  0.2850 -0.1453
  144MOL0     O19308   2.319   7.701   7.578 -0.4973  0.3376  0.8041
  144MOL0     C19309   2.240   7.590   7.572  0.2571 -0.1642 -0.9153
  144MOL0     C19310   2.108   7.621   7.584  0.7455 -0.7013  0.5316
  144MOL0     C19311   2.016   7.513   7.593 -0.2195  0.1229 -0.4807
  144MOL0     C19312   2.059   7.375   7.594  0.7604  0.4636  0.4763
  144MOL0     O19313   1.953   7.287   7.612 -0.4617 -0.1619 -0.2903
  144MOL0     C19314   1.996   7.150   7.612 -0.2431  0.2023 -0.4219
  144MOL0     C19315   1.867   7.070   7.607 -0.3497 -0.0189  0.7279
  144MOL0     C19316   1.906   6.926   7.618  0.1628 -0.2460 -0.8525
  144MOL0     C19317   1.796   6.826   7.581  0.5372 -0.3563  0.4633
  144MOL0     C19318   1.837   6.682   7.612  0.0001  0.4743 -0.5652
  144MOL0     C19319   1.728   6.584   7.601  0.1119  0.0883 -0.2652
  144MOL0     C19320   1.597   6.610   7.687 -0.4539 -0.4542 -0.0571
  144MOL0     C19321   1.485   6.521   7.627  0.0517  0.4940 -0.3699
  144MOL0     N19322   1.520   6.374   7.636 -0.7724 -0.0741  0.0869
  144MOL0     C19323   1.537   6.292   7.739  0.5041  0.1763 -0.2310
  144MOL0     C19324   1.573   6.173   7.688 -0.1573  0.4811  0.6656
  144MOL0     C19325   1.563   6.040   7.767 -0.7417 -0.3055 -0.6435
  144MOL0     C19326   1.462   6.040   7.889 -0.9226  0.5723 -0.5220
  144MOL0     C19327   1.441   5.891   7.943 -0.1108  0.2828 -0.1116
  144MOL0     C19328   1.560   5.793   7.931 -0.0978 -0.3913  0.1040
  144MOL0     O19329   1.524   5.668   8.001  0.8627  0.8398 -0.5359
  144MOL0     C19330   1.629   5.579   8.030 -1.2088 -0.3720 -0.2327
  144MOL0     C19331   1.763   5.594   7.990  0.3741  0.4082 -0.1698
  144MOL0     C19332   1.860   5.497   8.009  0.2245  0.8633 -0.2615
  144MOL0     C19333   2.005   5.536   7.988  0.5948 -0.6851  0.2682
  144MOL0     C19334   1.820   5.370   8.061  0.9546  0.5880  0.4031
  144MOL0     C19335   1.912   5.251   8.068  0.0171  0.0264  0.0504
  144MOL0     O19336   2.051   5.257   8.068 -0.0429 -0.0012 -0.3835
  144MOL0     C19337   2.124   5.145   8.046 -0.5268 -0.1330 -0.0713
  144MOL0     C19338   2.083   5.023   7.987  0.1570 -0.1519 -0.7323
  144MOL0     C19339   2.170   4.918   7.959 -0.5019  0.2383 -0.1345
  144MOL0     C19340   2.305   4.928   7.994 -0.1520 -0.0980  0.2430
  144MOL0     O19341   2.399   4.827   7.962  0.4742  0.6535 -0.1522
  144MOL0     C19342   2.369   4.725   7.867  0.4344  0.6287  0.2161
  144MOL0     C19343   2.485   4.630   7.842  0.6114 -0.0917 -0.5161
  144MOL0     C19344   2.618   4.698   7.831 -1.1733  0.0133  0.0148
  144MOL0     C19345   2.739   4.605   7.858  0.5023 -0.7348  1.1239
  144MOL0     C19346   2.881   4.674   7.880  0.3744 -0.1236  0.1705
  144MOL0     C19347   2.906   4.725   8.020 -0.2157 -0.0851  0.5631
  144MOL0     C19348   3.039   4.779   8.049  0.3796 -0.5786 -0.1980
  144MOL0     C19349   3.079   4.778   8.196  0.5503  0.2323  0.7952
  144MOL0    Cl19350   3.118   4.613   8.269  0.4777 -0.9353 -0.0257
  144MOL0     C19351   2.352   5.048   8.049 -0.0765  0.3764  0.0678
  144MOL0     C19352   2.262   5.153   8.072  0.9336  0.0067 -0.2865
  144MOL0     O19353   1.849   5.152   8.071  0.2583  0.7020  0.3786
  144MOL0     C19354   1.687   5.358   8.092  0.8155 -0.2110  0.0108
  144MOL0     C19355   1.589   5.456   8.081  0.4698 -0.2989  0.7035
  144MOL0     N19356   1.585   6.182   7.551  0.1110 -0.3664 -0.7229
  144MOL0     N19357   1.537   6.304   7.522  0.2831  0.0666  0.1256
  144MOL0     C19358   2.198   7.351   7.568 -0.2135 -0.8619 -0.4873
  144MOL0     C19359   2.288   7.463   7.570 -0.3635  0.6547  0.2839
  144MOL0     C19360   2.416   7.881   7.714 -0.8121 -0.3157 -0.2651
  144MOL0     C19361   2.452   7.930   7.840 -0.4695  1.0268 -0.1113
  144MOL0     C19362   2.522   8.043   7.854  0.1769 -0.3365 -0.0456
  144MOL0     C19363   2.566   8.122   7.746  0.5241 -0.0153  0.4764
  144MOL0     O19364   2.633   8.234   7.761  0.5496 -0.3941  0.2461
  144MOL0     C19365   2.649   8.323   7.647  0.0418 -0.1812 -0.8844
  144MOL0     C19366   2.660   8.468   7.699  0.6714  0.3501 -0.3207
  144MOL0     C19367   2.780   8.508   7.766 -0.5735  0.6530 -0.2092
  144MOL0     C19368   2.785   8.648   7.808 -0.4441  0.3010  0.5521
  144MOL0     C19369   2.899   8.674   7.898 -0.9536 -0.3482 -0.2046
  144MOL0     C19370   3.002   8.699   7.965  0.0706  0.2726 -0.1807
  144MOL0     C19371   2.536   8.066   7.616 -0.1293  0.0745  0.9336
  144MOL0     C19372   2.450   7.961   7.602  0.8192 -0.3857 -0.1977
  144MOL0     H19373   2.083   7.726   7.579  0.7404 -0.7757 -2.3040
  144MOL0     H19374   1.911   7.533   7.616  0.2348  0.5424  1.3507
  144MOL0     H19375   2.058   7.142   7.522  0.1605  2.0580 -0.3648
  144MOL0     H19376   2.052   7.132   7.704  0.7972 -1.1951 -1.2953
  144MOL0     H19377   1.800   7.098   7.689 -1.4761  1.0506 -0.4917
  144MOL0     H19378   1.816   7.089   7.512  0.8215 -1.3500 -0.2144
  144MOL0     H19379   1.987   6.907   7.546  0.3579 -1.4395 -0.3518
  144MOL0     H19380   1.950   6.911   7.717 -0.8877  0.2122 -0.3033
  144MOL0     H19381   1.706   6.859   7.633  0.1466 -0.3496 -0.2039
  144MOL0     H19382   1.776   6.830   7.473  0.3339  2.3931  0.5346
  144MOL0     H19383   1.915   6.647   7.544  2.2161 -0.4652  2.2360
  144MOL0     H19384   1.889   6.673   7.708 -1.4950  1.3957  0.3781
  144MOL0     H19385   1.698   6.576   7.496 -1.4871  0.3091  0.1518
  144MOL0     H19386   1.758   6.482   7.628  1.1425  0.9102  1.8999
  144MOL0     H19387   1.626   6.598   7.792 -0.2937  0.7881  0.0619
  144MOL0     H19388   1.568   6.714   7.666 -0.4877 -0.1828  1.2181
  144MOL0     H19389   1.461   6.544   7.522  0.8426 -0.5037 -0.7891
  144MOL0     H19390   1.390   6.544   7.675  0.2743  4.6393 -1.5157
  144MOL0     H19391   1.538   6.322   7.843  0.0498  1.6946 -0.6341
  144MOL0     H19392   1.543   5.960   7.695  2.9424 -0.0218 -2.2181
  144MOL0     H19393   1.665   6.032   7.805 -0.6457  0.4891 -0.7104
  144MOL0     H19394   1.364   6.086   7.873 -1.5563 -0.6883 -0.3576
  144MOL0     H19395   1.519   6.090   7.969  2.5749  0.5038 -2.7702
  144MOL0     H19396   1.357   5.853   7.885  1.6014  2.0716 -4.2177
  144MOL0     H19397   1.415   5.907   8.048  2.0684  0.7518  0.4142
  144MOL0     H19398   1.646   5.829   7.988 -0.0831  0.2151 -0.2880
  144MOL0     H19399   1.593   5.774   7.829  2.1557 -2.7028  1.1581
  144MOL0     H19400   1.797   5.692   7.957  0.9097  0.7146  1.2341
  144MOL0     H19401   2.042   5.496   7.893 -0.5982  1.7308 -1.3086
  144MOL0     H19402   2.018   5.645   7.995 -1.6711 -0.4284  1.2090
  144MOL0     H19403   2.062   5.506   8.076 -2.8442  0.5805  3.1578
  144MOL0     H19404   1.982   5.006   7.951 -0.7464  0.6812  1.2544
  144MOL0     H19405   2.118   4.835   7.911  0.0240  0.4226 -1.0493
  144MOL0     H19406   2.287   4.669   7.912  1.5678 -0.1592  1.3593
  144MOL0     H19407   2.355   4.766   7.766  3.9314 -2.6163 -1.8670
  144MOL0     H19408   2.488   4.557   7.923  1.5301  1.5797  1.0335
  144MOL0     H19409   2.457   4.579   7.749 -2.0757 -0.4678  0.3989
  144MOL0     H19410   2.630   4.770   7.912  1.2843 -0.1587 -0.1312
  144MOL0     H19411   2.630   4.744   7.733 -2.1519  1.4141  0.5278
  144MOL0     H19412   2.708   4.552   7.948  0.0185 -0.6528  1.0050
  144MOL0     H19413   2.750   4.527   7.782  0.6342  1.0684 -0.8050
  144MOL0     H19414   2.885   4.764   7.817  0.1686  1.8563  2.8214
  144MOL0     H19415   2.949   4.594   7.851  0.5390  0.0598  0.0516
  144MOL0     H19416   2.825   4.793   8.049 -0.8590 -0.8736  0.6577
  144MOL0     H19417   2.888   4.633   8.077 -1.9792 -0.4264 -0.4693
  144MOL0     H19418   3.052   4.880   8.009  1.5512 -0.1962  1.0786
  144MOL0     H19419   3.103   4.713   7.989 -1.8708 -1.9009 -1.2754
  144MOL0     H19420   2.996   4.829   8.246  4.1054  2.1511  5.5396
  144MOL0     H19421   3.169   4.837   8.216  0.3484  0.7275  0.2641
  144MOL0     H19422   2.459   5.065   8.056 -0.2365  1.6221 -0.3658
  144MOL0     H19423   2.300   5.247   8.111 -0.7184  0.0976  1.2045
  144MOL0     H19424   1.660   5.273   8.155  0.9763 -0.4055 -0.1816
  144MOL0     H19425   1.488   5.441   8.118 -1.0508  1.9477 -2.1280
  144MOL0     H19426   2.243   7.254   7.551 -0.0519 -0.6854 -1.1159
  144MOL0     H19427   2.393   7.436   7.572 -0.7900 -1.1406  0.2621
  144MOL0     H19428   2.406   7.882   7.927  1.4563  0.4706  0.6412
  144MOL0     H19429   2.548   8.076   7.954  2.4530  1.8650 -1.2512
  144MOL0     H19430   2.745   8.297   7.602  0.4935  0.5057 -0.3420
  144MOL0     H19431   2.579   8.317   7.563  2.5646 -2.2183 -2.9876
  144MOL0     H19432   2.574   8.504   7.756  0.6379  1.3348 -0.9664
  144MOL0     H19433   2.657   8.535   7.613 -0.8005 -0.2512 -0.7849
  144MOL0     H19434   2.865   8.499   7.699 -0.4346 -0.2789  0.0806
  144MOL0     H19435   2.819   8.439   7.841 -0.8684 -4.6992 -4.3754
  144MOL0     H19436   2.693   8.667   7.864 -0.2970 -1.2284  1.3759
  144MOL0     H19437   2.790   8.712   7.720  1.0885  0.5142  0.7623
  144MOL0     H19438   3.092   8.715   8.022 -0.6428  1.9477  0.5442
  144MOL0     H19439   2.582   8.087   7.520 -1.0980 -0.1855  0.4003
  144MOL0     H19440   2.421   7.916   7.508 -0.9816  0.7397 -0.2425
  145MOL0     O19441   6.118   6.860  11.329  0.1953 -0.6738  0.2993
  145MOL0     C19442   6.006   6.908  11.301 -1.3399  0.3194 -0.7879
  145MOL0     O19443   5.967   6.944  11.175 -0.4688  0.4641  0.0667
  145MOL0     C19444   6.028   6.934  11.055 -0.9095  0.0237  0.7342
  145MOL0     C19445   5.978   7.001  10.937 -0.2020 -1.2037  0.1215
  145MOL0     C19446   6.027   6.994  10.808 -0.0636 -0.8140  0.0371
  145MOL0     C19447   6.135   6.905  10.779  1.1503  0.0963  0.0313
  145MOL0     O19448   6.190   6.883  10.660  0.0391  0.2860 -0.7563
  145MOL0     C19449   6.098   6.881  10.547  0.1190  0.3070  0.6454
  145MOL0     C19450   6.142   6.772  10.449  0.8634 -0.6603  0.0245
  145MOL0     C19451   6.252   6.833  10.361  0.0635  0.9733 -0.4960
  145MOL0     C19452   6.296   6.743  10.250 -0.7365 -0.2635 -0.4094
  145MOL0     C19453   6.406   6.808  10.167 -1.3037  0.0600 -0.4330
  145MOL0     C19454   6.363   6.944  10.090  0.2194 -1.1412 -0.5675
  145MOL0     C19455   6.456   6.970   9.966 -0.7414 -0.4069 -0.3231
  145MOL0     C19456   6.453   7.116   9.930  0.2552 -0.5446  0.0441
  145MOL0     N19457   6.585   7.161   9.895  0.2212 -0.0495  0.4426
  145MOL0     C19458   6.686   7.188   9.983  0.3731  0.8858  0.1519
  145MOL0     C19459   6.778   7.253   9.907 -0.0462 -0.3224  0.7971
  145MOL0     C19460   6.917   7.310   9.943 -0.0099 -0.0001 -0.9332
  145MOL0     C19461   6.921   7.461   9.914  0.6234 -0.1930  0.4934
  145MOL0     C19462   7.065   7.523   9.938  0.5009  1.0253  0.2160
  145MOL0     C19463   7.060   7.674   9.932  0.2058 -0.8181  0.1488
  145MOL0     O19464   7.044   7.716   9.795 -0.3328  0.7626 -0.6323
  145MOL0     C19465   7.155   7.730   9.717 -1.0671  0.6955  0.8140
  145MOL0     C19466   7.157   7.658   9.593 -0.2537  1.3434  0.0899
  145MOL0     C19467   7.261   7.672   9.497  0.6114  0.4117  0.8097
  145MOL0     C19468   7.239   7.590   9.371 -0.2088  0.4854 -0.1334
  145MOL0     C19469   7.366   7.766   9.520  1.0599  0.9323 -0.2696
  145MOL0     C19470   7.471   7.804   9.419  1.0254  0.8147  0.2318
  145MOL0     O19471   7.574   7.885   9.463  0.6315  0.3739  0.0525
  145MOL0     C19472   7.671   7.930   9.384  0.3582 -0.5065  0.4653
  145MOL0     C19473   7.645   8.050   9.314  0.3131 -0.5478 -0.4860
  145MOL0     C19474   7.727   8.096   9.211  0.6614 -0.6879  0.8923
  145MOL0     C19475   7.842   8.026   9.178 -0.4401  0.4242 -0.7040
  145MOL0     O19476   7.927   8.065   9.075  0.0545  1.1327  0.2689
  145MOL0     C19477   7.901   8.184   9.010  0.4733 -0.5627  0.4352
  145MOL0     C19478   7.957   8.176   8.867 -0.4597 -0.2444  0.1316
  145MOL0     C19479   7.914   8.047   8.799 -0.4446 -0.9491  0.2699
  145MOL0     C19480   7.939   8.043   8.656  0.7048 -1.1705  0.4379
  145MOL0     C19481   7.842   8.134   8.566 -0.7864  0.5602  0.1984
  145MOL0     C19482   7.905   8.182   8.441 -0.4853  0.3379 -0.7192
  145MOL0     C19483   7.992   8.304   8.454  0.5211 -0.5518  0.0890
  145MOL0     C19484   8.047   8.342   8.316  0.1590  0.1905  0.4606
  145MOL0    Cl19485   8.154   8.208   8.261 -0.0638 -0.1983  0.0861
  145MOL0     C19486   7.876   7.905   9.253 -0.4817 -0.4942  0.3435
  145MOL0     C19487   7.787   7.868   9.354  0.5227  0.0392 -0.2466
  145MOL0     O19488   7.451   7.766   9.305  0.2999  0.5450 -0.3015
  145MOL0     C19489   7.367   7.822   9.653 -0.9881  0.5962 -0.0166
  145MOL0     C19490   7.269   7.801   9.747  1.1112 -0.7437  0.7665
  145MOL0     N19491   6.726   7.267   9.773 -0.9629 -0.9003  0.3362
  145MOL0     N19492   6.617   7.216   9.775 -0.7085 -0.0226  0.8330
  145MOL0     C19493   6.197   6.846  10.890  0.2684 -0.4533  0.0132
  145MOL0     C19494   6.143   6.857  11.022 -0.4516 -0.3625 -0.4446
  145MOL0     C19495   5.925   6.952  11.411 -0.5517  0.1406 -0.7875
  145MOL0     C19496   5.963   6.954  11.546  0.6675 -1.1040  0.7279
  145MOL0     C19497   5.873   7.002  11.647 -0.4456 -0.3234  0.3417
  145MOL0     C19498   5.740   7.043  11.613  0.7223  0.1751  0.2667
  145MOL0     O19499   5.659   7.090  11.711  0.1401 -0.5080 -0.0386
  145MOL0     C19500   5.551   7.006  11.763  0.2710  0.4350  0.6056
  145MOL0     C19501   5.413   7.050  11.708 -0.3953  1.0826  0.8071
  145MOL0     C19502   5.387   7.206  11.743  0.7774  1.1099  0.0884
  145MOL0     C19503   5.239   7.216  11.770  0.0485  0.7247  0.0781
  145MOL0     C19504   5.163   7.166  11.655  0.0665  0.7965 -0.0591
  145MOL0     C19505   5.078   7.128  11.574 -0.0562  0.4409  0.1178
  145MOL0     C19506   5.694   7.036  11.482 -0.2854 -0.6226  0.1135
  145MOL0     C19507   5.785   6.986  11.385 -0.7136  0.5703  0.1570
  145MOL0     H19508   5.890   7.062  10.959  0.7609 -0.9392  3.8800
  145MOL0     H19509   5.971   7.047  10.731 -0.7267 -0.4105  0.7833
  145MOL0     H19510   6.007   6.842  10.593  1.8035 -1.4910  2.6711
  145MOL0     H19511   6.078   6.978  10.500 -0.4795  0.0990  0.4695
  145MOL0     H19512   6.161   6.684  10.510 -4.8249 -1.6265  0.9574
  145MOL0     H19513   6.064   6.745  10.377  2.1691 -0.3553 -1.5633
  145MOL0     H19514   6.213   6.925  10.318 -1.3058 -0.2218 -1.9112
  145MOL0     H19515   6.331   6.853  10.434 -1.3161 -0.3219  1.4830
  145MOL0     H19516   6.336   6.658  10.306 -1.7963  0.9177  2.3283
  145MOL0     H19517   6.207   6.708  10.197 -3.2840  0.5642  2.9496
  145MOL0     H19518   6.501   6.842  10.209 -1.7041 -1.0104  1.4467
  145MOL0     H19519   6.437   6.724  10.104  1.3862 -2.2544  3.5482
  145MOL0     H19520   6.262   6.952  10.050  1.3533  1.4275 -3.3323
  145MOL0     H19521   6.377   7.028  10.158 -0.8426 -0.8579 -0.6830
  145MOL0     H19522   6.557   6.934   9.986  0.1651  1.4558 -1.2310
  145MOL0     H19523   6.432   6.900   9.885 -1.1354 -1.1913  0.4585
  145MOL0     H19524   6.422   7.181  10.013  2.1341 -0.6961  0.8976
  145MOL0     H19525   6.387   7.138   9.845 -0.3284  0.0961  0.6457
  145MOL0     H19526   6.718   7.159  10.082  1.9536 -3.1390 -1.3289
  145MOL0     H19527   6.937   7.288  10.048  2.0899 -2.6707 -1.7725
  145MOL0     H19528   6.985   7.251   9.881  1.9900 -1.1764  2.1291
  145MOL0     H19529   6.840   7.516   9.964 -0.4548  2.8427 -3.9821
  145MOL0     H19530   6.887   7.487   9.813  0.5156  2.6247  1.1521
  145MOL0     H19531   7.127   7.486   9.855 -1.9773 -0.3558 -1.1359
  145MOL0     H19532   7.099   7.493  10.037  0.4358 -2.0401 -0.5724
  145MOL0     H19533   7.157   7.716   9.958  0.1325  0.0784 -0.9375
  145MOL0     H19534   6.982   7.710   9.999  0.2326  1.0547 -0.7591
  145MOL0     H19535   7.073   7.595   9.565 -1.6278  2.9635  0.3302
  145MOL0     H19536   7.163   7.513   9.382 -1.3472  1.3268 -1.6621
  145MOL0     H19537   7.213   7.645   9.280 -0.9835 -0.9385 -0.8097
  145MOL0     H19538   7.335   7.542   9.349  0.2659  0.9643  0.8428
  145MOL0     H19539   7.553   8.105   9.332  1.9803  1.7573  1.7601
  145MOL0     H19540   7.696   8.191   9.170  1.1031 -1.6043 -1.7826
  145MOL0     H19541   7.792   8.194   8.998  0.4886 -0.7523  0.1095
  145MOL0     H19542   7.945   8.269   9.062 -1.2067  0.3179  0.4880
  145MOL0     H19543   7.932   8.270   8.816  0.0410  0.9857  2.0280
  145MOL0     H19544   8.065   8.179   8.882 -0.3328  3.2841 -0.4298
  145MOL0     H19545   7.809   8.038   8.828 -1.2078  2.9833 -0.7196
  145MOL0     H19546   7.972   7.968   8.847  2.5908  1.1170  0.3181
  145MOL0     H19547   8.041   8.075   8.634  1.2703 -2.1610  1.4967
  145MOL0     H19548   7.918   7.942   8.619 -1.9303 -0.7550  0.5846
  145MOL0     H19549   7.808   8.223   8.619  2.4811  2.6139 -0.8406
  145MOL0     H19550   7.752   8.075   8.550 -1.1560  0.8234  1.2371
  145MOL0     H19551   7.955   8.094   8.397  1.0469  0.3171  0.9263
  145MOL0     H19552   7.825   8.202   8.369 -0.6755 -0.0717 -0.6240
  145MOL0     H19553   8.079   8.275   8.515  0.0604  1.5994  1.8859
  145MOL0     H19554   7.948   8.395   8.494  1.2851 -1.2437  2.7661
  145MOL0     H19555   8.100   8.437   8.311 -2.0024  1.4173 -0.6558
  145MOL0     H19556   7.971   8.342   8.237 -1.6872 -1.5866  2.1171
  145MOL0     H19557   7.961   7.842   9.231 -2.5266 -3.5284  0.4584
  145MOL0     H19558   7.822   7.771   9.389 -0.3927 -0.4207 -0.5631
  145MOL0     H19559   7.447   7.887   9.686  1.3175 -3.3001  2.9107
  145MOL0     H19560   7.262   7.839   9.848 -0.6062  1.2774 -0.0623
  145MOL0     H19561   6.293   6.797  10.874  0.0424 -0.1843 -2.5264
  145MOL0     H19562   6.198   6.800  11.097 -0.8221  1.4200  1.2556
  145MOL0     H19563   6.065   6.928  11.576  2.2567  2.5212 -0.9307
  145MOL0     H19564   5.905   7.021  11.749 -0.0935  1.6162 -0.0952
  145MOL0     H19565   5.555   6.897  11.748  0.6174  0.7418 -1.9955
  145MOL0     H19566   5.547   7.027  11.870  0.4946  1.0320  0.5019
  145MOL0     H19567   5.350   6.982  11.766  1.6985  0.3657  2.3470
  145MOL0     H19568   5.382   7.031  11.605  0.6673 -1.7143  0.9163
  145MOL0     H19569   5.425   7.273  11.666  4.7161  0.1946  1.0067
  145MOL0     H19570   5.449   7.231  11.830 -0.4570  0.4270  1.2119
  145MOL0     H19571   5.213   7.320  11.792  4.7250  2.5991 -2.0641
  145MOL0     H19572   5.220   7.155  11.859  2.3309  0.1295  0.2207
  145MOL0     H19573   5.020   7.104  11.487  1.2455 -0.4866 -0.5314
  145MOL0     H19574   5.597   7.063  11.443 -1.1663 -1.0049  1.9316
  145MOL0     H19575   5.751   6.977  11.283 -3.7463  3.0116  0.7759
  146MOL0     O19576   2.520   1.654   7.636 -0.1926 -0.0846  1.1248
  146MOL0     C19577   2.455   1.553   7.648 -0.5802 -0.3611 -0.2200
  146MOL0     O19578   2.347   1.545   7.737  0.3432  0.6923 -0.1094
  146MOL0     C19579   2.329   1.647   7.835  0.0544  0.2347  0.0567
  146MOL0     C19580   2.203   1.662   7.892 -0.6085 -0.1868 -0.5840
  146MOL0     C19581   2.188   1.762   7.989 -1.0121  0.4163  1.2413
  146MOL0     C19582   2.298   1.839   8.037  0.5827  1.0080  0.3448
  146MOL0     O19583   2.268   1.948   8.115 -0.3566 -0.7400  0.0819
  146MOL0     C19584   2.375   2.034   8.153 -0.5870 -0.2412 -0.1768
  146MOL0     C19585   2.436   2.135   8.044 -0.3090 -0.5279  0.1137
  146MOL0     C19586   2.572   2.195   8.092 -0.1102  0.0461  0.4640
  146MOL0     C19587   2.559   2.331   8.159 -0.1063  0.2713 -0.1094
  146MOL0     C19588   2.683   2.379   8.236  0.5364  0.0475  0.1644
  146MOL0     C19589   2.664   2.515   8.286 -0.9073 -1.6789  0.0452
  146MOL0     C19590   2.792   2.581   8.340 -0.0677 -0.5462  0.3342
  146MOL0     C19591   2.784   2.734   8.366 -0.1632 -0.7017  0.0694
  146MOL0     N19592   2.904   2.806   8.399  0.5726 -0.6994 -0.3330
  146MOL0     C19593   3.013   2.811   8.322  0.3123  0.2950  0.5703
  146MOL0     C19594   3.105   2.867   8.395 -0.0515 -0.1207 -0.3587
  146MOL0     C19595   3.252   2.859   8.363  0.5604 -0.9010  0.3973
  146MOL0     C19596   3.300   2.884   8.212 -0.1746  0.9805  0.6519
  146MOL0     C19597   3.319   2.757   8.131  0.0445 -0.3062 -1.1150
  146MOL0     C19598   3.449   2.685   8.167  0.5362  0.1073  0.2312
  146MOL0     O19599   3.453   2.574   8.071  0.4261 -1.0250 -0.0431
  146MOL0     C19600   3.518   2.471   8.100 -0.2350  1.1087 -0.0329
  146MOL0     C19601   3.461   2.349   8.079  0.1346  0.0115  0.3548
  146MOL0     C19602   3.524   2.228   8.119  1.0515  0.4093 -1.6484
  146MOL0     C19603   3.448   2.095   8.097  1.3280  1.4337 -0.1850
  146MOL0     C19604   3.656   2.230   8.166  0.5225  0.2271  0.1423
  146MOL0     C19605   3.739   2.120   8.220 -0.3242  0.6646  0.2656
  146MOL0     O19606   3.692   1.986   8.224 -0.4279 -1.0018 -0.3277
  146MOL0     C19607   3.782   1.884   8.212  0.4641  0.8206 -0.4464
  146MOL0     C19608   3.805   1.825   8.091  0.1545 -0.4355  0.3116
  146MOL0     C19609   3.900   1.726   8.083  0.1419  0.3782  0.2401
  146MOL0     C19610   3.994   1.702   8.181  0.4865  0.7957 -0.1103
  146MOL0     O19611   4.093   1.611   8.138  0.3371  0.5700  1.3475
  146MOL0     C19612   4.172   1.545   8.231  0.2436 -0.3715 -0.7702
  146MOL0     C19613   4.254   1.447   8.158  0.1168  0.4364 -0.9548
  146MOL0     C19614   4.172   1.340   8.079 -0.7359 -0.1813  0.0802
  146MOL0     C19615   4.244   1.209   8.051  0.6669 -1.1448  1.2820
  146MOL0     C19616   4.303   1.134   8.169 -0.2245  0.6483 -0.2488
  146MOL0     C19617   4.212   1.128   8.292  0.4201 -0.2431 -0.6692
  146MOL0     C19618   4.258   1.025   8.407 -0.0998 -0.5222  0.3568
  146MOL0     C19619   4.204   1.069   8.540 -0.4244 -0.4252  0.6937
  146MOL0    Cl19620   4.272   0.970   8.660  0.3508  0.1399 -0.1208
  146MOL0     C19621   3.977   1.770   8.303 -0.9103  1.0042 -0.2504
  146MOL0     C19622   3.868   1.852   8.328 -0.2139  0.1874  0.6318
  146MOL0     O19623   3.862   2.144   8.242 -0.1385 -0.3467 -0.3281
  146MOL0     C19624   3.710   2.358   8.175 -0.8846  0.9724  0.3220
  146MOL0     C19625   3.644   2.469   8.142  0.3918  0.2041  0.0810
  146MOL0     N19626   3.054   2.908   8.515  0.9013  0.3891 -0.1994
  146MOL0     N19627   2.936   2.856   8.523 -0.2885 -0.2928 -0.9288
  146MOL0     C19628   2.429   1.812   7.995 -0.6195  1.0253 -0.0217
  146MOL0     C19629   2.442   1.711   7.906  0.7649  0.3926  0.5671
  146MOL0     C19630   2.503   1.430   7.583 -0.2584 -0.6907 -0.3564
  146MOL0     C19631   2.621   1.420   7.504  0.2265 -0.2649  0.3790
  146MOL0     C19632   2.670   1.298   7.465 -0.3250 -0.2772 -0.2209
  146MOL0     C19633   2.611   1.179   7.487  0.0649  0.6042  0.0752
  146MOL0     O19634   2.678   1.070   7.453  0.8906 -0.4286  0.2781
  146MOL0     C19635   2.609   0.939   7.454 -0.7642 -0.2413 -0.0510
  146MOL0     C19636   2.720   0.838   7.440  0.5319 -0.0024 -1.0303
  146MOL0     C19637   2.741   0.781   7.300 -0.5580 -0.4829  0.2763
  146MOL0     C19638   2.813   0.651   7.289 -0.4093  1.0722 -0.5969
  146MOL0     C19639   2.717   0.547   7.328  0.4331 -0.0901  0.0514
  146MOL0     C19640   2.644   0.465   7.370 -0.0104  0.3900  0.5599
  146MOL0     C19641   2.484   1.189   7.550  0.3189 -0.6192 -0.2621
  146MOL0     C19642   2.435   1.314   7.599 -0.1369  0.6071  1.1752
  146MOL0     H19643   2.112   1.609   7.865 -1.0387  0.1433  0.1821
  146MOL0     H19644   2.095   1.784   8.040 -0.3912 -1.2915  3.2608
  146MOL0     H19645   2.339   2.106   8.228 -0.8974 -1.2399  0.6533
  146MOL0     H19646   2.458   1.973   8.189 -1.7013 -2.8502 -1.7639
  146MOL0     H19647   2.460   2.080   7.952  1.6542 -0.7685  0.7218
  146MOL0     H19648   2.360   2.213   8.035 -1.1167 -1.3503 -0.4429
  146MOL0     H19649   2.616   2.123   8.162 -0.7186 -1.3140 -0.4936
  146MOL0     H19650   2.645   2.205   8.012  1.1966  0.3161  1.6524
  146MOL0     H19651   2.544   2.406   8.080  1.1752  0.4842 -0.1701
  146MOL0     H19652   2.468   2.331   8.220  0.2041 -2.3520  0.4664
  146MOL0     H19653   2.709   2.307   8.315  0.6966 -1.0926 -0.8927
  146MOL0     H19654   2.760   2.375   8.159 -1.3972  1.3944 -2.0004
  146MOL0     H19655   2.621   2.575   8.204 -2.2833 -1.7529  0.6928
  146MOL0     H19656   2.601   2.521   8.375 -3.0863  3.4643 -1.4015
  146MOL0     H19657   2.833   2.525   8.425  1.6574  1.5872  1.0147
  146MOL0     H19658   2.867   2.578   8.259 -1.0552 -1.1099 -0.5852
  146MOL0     H19659   2.719   2.752   8.452  0.8102 -1.9769  1.1157
  146MOL0     H19660   2.730   2.783   8.285 -0.6709 -0.2096  0.6949
  146MOL0     H19661   3.031   2.765   8.226  1.7089 -2.5740  2.0944
  146MOL0     H19662   3.309   2.925   8.430  0.8579 -0.1409 -0.5764
  146MOL0     H19663   3.279   2.761   8.403 -0.1458 -1.5250 -0.6252
  146MOL0     H19664   3.393   2.942   8.214  1.5464 -1.6140  0.7673
  146MOL0     H19665   3.229   2.938   8.150 -0.4992 -0.9278 -0.7414
  146MOL0     H19666   3.332   2.793   8.029  1.9859  2.5228 -0.0006
  146MOL0     H19667   3.235   2.689   8.148  0.7202 -0.8824  0.0511
  146MOL0     H19668   3.422   2.655   8.269 -0.6688 -0.7275 -0.3012
  146MOL0     H19669   3.540   2.745   8.162  1.3787 -1.2313 -1.8684
  146MOL0     H19670   3.367   2.356   8.026  0.7622 -1.3813 -1.0358
  146MOL0     H19671   3.516   2.015   8.065 -2.5992 -2.0678 -0.6187
  146MOL0     H19672   3.390   2.057   8.181 -1.4647  0.0894 -2.5276
  146MOL0     H19673   3.370   2.093   8.020  0.1716 -3.9555  0.6814
  146MOL0     H19674   3.746   1.851   8.004  0.0752 -0.0218  0.4907
  146MOL0     H19675   3.915   1.682   7.984 -0.6069 -1.0189  0.7229
  146MOL0     H19676   4.231   1.618   8.287  0.5305 -2.1538  1.4097
  146MOL0     H19677   4.105   1.495   8.301  0.9412  0.0551  0.2335
  146MOL0     H19678   4.315   1.496   8.081  0.7363  1.5176  0.1827
  146MOL0     H19679   4.326   1.398   8.224  1.7289  0.5422 -2.5427
  146MOL0     H19680   4.144   1.377   7.979 -0.7705  0.2336  0.2399
  146MOL0     H19681   4.081   1.321   8.136  0.9243 -2.5952  2.1518
  146MOL0     H19682   4.164   1.152   8.003 -4.7788  4.4323  2.3523
  146MOL0     H19683   4.324   1.222   7.977  1.2053 -0.9356  1.8920
  146MOL0     H19684   4.399   1.177   8.199  0.4968 -1.6392  0.9563
  146MOL0     H19685   4.327   1.033   8.135 -1.6914 -0.4735  1.7944
  146MOL0     H19686   4.198   1.227   8.336  1.6080 -1.0072  1.5637
  146MOL0     H19687   4.118   1.083   8.257 -0.1279  0.0201  0.4185
  146MOL0     H19688   4.367   1.023   8.411 -0.0877 -3.0455  0.8222
  146MOL0     H19689   4.223   0.929   8.369 -0.7349  0.4742 -1.7161
  146MOL0     H19690   4.097   1.050   8.533 -0.6016  0.8938 -0.7648
  146MOL0     H19691   4.210   1.177   8.555  0.5740 -0.4938  0.8486
  146MOL0     H19692   4.054   1.769   8.379  0.7835 -0.3358 -1.8928
  146MOL0     H19693   3.852   1.898   8.425  1.0794  1.3674  0.3124
  146MOL0     H19694   3.807   2.375   8.221 -1.2036  0.0461  1.3931
  146MOL0     H19695   3.691   2.566   8.154 -0.5642  0.5726  1.0904
  146MOL0     H19696   2.517   1.851   8.045  0.1141 -2.2117  1.4580
  146MOL0     H19697   2.545   1.680   7.892  0.0716 -0.7590 -2.7554
  146MOL0     H19698   2.668   1.515   7.482  0.5933 -0.6642 -0.6240
  146MOL0     H19699   2.758   1.302   7.402 -0.0828  1.5110  0.1712
  146MOL0     H19700   2.567   0.923   7.554 -1.4890 -1.2111 -0.4895
  146MOL0     H19701   2.520   0.933   7.390 -1.2718  1.3988  0.4666
  146MOL0     H19702   2.690   0.754   7.504  2.4484  1.3165  1.8012
  146MOL0     H19703   2.807   0.886   7.484  0.6735  1.8520 -3.1848
  146MOL0     H19704   2.801   0.859   7.254  0.7864 -1.4723  0.2915
  146MOL0     H19705   2.649   0.781   7.241  0.9476 -1.9297 -2.2422
  146MOL0     H19706   2.903   0.648   7.351  0.0973  0.9121 -1.3163
  146MOL0     H19707   2.843   0.638   7.184  1.5798  1.4565 -0.1142
  146MOL0     H19708   2.586   0.379   7.396 -0.5093 -0.5227 -3.0450
  146MOL0     H19709   2.412   1.109   7.569 -0.8473  0.5726  0.5081
  146MOL0     H19710   2.336   1.318   7.645 -0.4286  2.4527  0.4880
  147MOL0     O19711   5.419   6.386   0.059 -0.3214  0.0093 -0.0526
  147MOL0     C19712   5.348   6.487   0.087 -0.0407  1.3307 -0.6480
  147MOL0     O19713   5.291   6.511   0.212 -0.2585  0.2709 -0.5012
  147MOL0     C19714   5.273   6.398   0.284  0.5106 -0.3320 -0.1724
  147MOL0     C19715   5.167   6.306   0.255  0.3296 -0.7197  0.6872
  147MOL0     C19716   5.149   6.188   0.322 -0.8164  0.7736  0.1166
  147MOL0     C19717   5.253   6.146   0.411  1.2320  0.3175 -0.4469
  147MOL0     O19718   5.257   6.020   0.465 -1.1073  0.0651 -0.1655
  147MOL0     C19719   5.131   5.976   0.529 -0.5613  0.8267  0.3692
  147MOL0     C19720   5.169   5.907   0.655 -0.7497  0.0235 -0.4543
  147MOL0     C19721   5.144   5.757   0.641  0.1617  0.1573  0.6168
  147MOL0     C19722   5.222   5.690   0.753  0.6156  0.3167  0.1647
  147MOL0     C19723   5.194   5.541   0.742 -0.9386 -0.9778 -1.0157
  147MOL0     C19724   5.068   5.489   0.813  0.1729  0.8984 -0.2976
  147MOL0     C19725   5.054   5.332   0.817 -0.3671 -0.0489 -0.2126
  147MOL0     C19726   5.048   5.274   0.685  0.3799  0.4321  0.6516
  147MOL0     N19727   4.991   5.143   0.668 -0.1461  0.3170  0.9907
  147MOL0     C19728   5.059   5.035   0.624 -0.0692  0.1514  0.8931
  147MOL0     C19729   4.959   4.944   0.616  0.1629  0.6285 -1.0923
  147MOL0     C19730   4.986   4.807   0.573  0.0801  0.2854  0.2102
  147MOL0     C19731   5.111   4.745   0.639  0.5134  0.3245  0.0092
  147MOL0     C19732   5.100   4.596   0.593 -0.0857  0.3649 -0.6822
  147MOL0     C19733   5.232   4.537   0.641  0.5973  0.0962  0.8376
  147MOL0     O19734   5.334   4.598   0.555  0.2781  0.2931 -0.7053
  147MOL0     C19735   5.444   4.535   0.531 -0.5222  0.1279  0.4431
  147MOL0     C19736   5.489   4.418   0.586  1.1009  0.2023 -0.9164
  147MOL0     C19737   5.617   4.362   0.565  0.5640  0.0222  0.1303
  147MOL0     C19738   5.640   4.242   0.644 -0.5313 -0.4949  0.7341
  147MOL0     C19739   5.705   4.423   0.469 -0.4625 -0.6184 -0.0781
  147MOL0     C19740   5.836   4.365   0.431  0.4235 -0.5597  0.0508
  147MOL0     O19741   5.884   4.430   0.325  0.2830  0.7568  0.0517
  147MOL0     C19742   5.991   4.372   0.261  0.3451 -0.0569 -0.2402
  147MOL0     C19743   5.988   4.245   0.208 -0.2544  0.1540  0.1701
  147MOL0     C19744   6.097   4.195   0.146  0.0536  0.4710  0.6242
  147MOL0     C19745   6.221   4.273   0.142  0.7018  0.5118 -0.8367
  147MOL0     O19746   6.349   4.242   0.101 -0.3475  0.5162 -0.1299
  147MOL0     C19747   6.344   4.123   0.017 -0.0399  1.3290 -0.2146
  147MOL0     C19748   6.481   4.113  -0.050  0.8987  0.1251  0.5799
  147MOL0     C19749   6.542   4.245  -0.103 -0.4683 -0.7037  0.1016
  147MOL0     C19750   6.464   4.326  -0.217  0.4255  0.6680 -1.2349
  147MOL0     C19751   6.404   4.248  -0.332 -0.1668 -0.0237 -0.1964
  147MOL0     C19752   6.515   4.186  -0.415 -0.2685  0.3700 -0.2372
  147MOL0     C19753   6.610   4.290  -0.474 -0.5945 -0.0972 -0.1967
  147MOL0     C19754   6.691   4.219  -0.586  0.6433 -0.7301  1.0509
  147MOL0    Cl19755   6.811   4.125  -0.498 -0.2625  0.3278 -0.2350
  147MOL0     C19756   6.217   4.401   0.190 -1.0884 -0.0237 -0.5434
  147MOL0     C19757   6.102   4.455   0.257 -0.4934  0.0483  0.5267
  147MOL0     O19758   5.888   4.277   0.501 -0.6519  0.5191 -0.3917
  147MOL0     C19759   5.662   4.555   0.421 -0.9941  0.1964  0.2484
  147MOL0     C19760   5.539   4.605   0.446 -0.1774  0.1150  0.0469
  147MOL0     N19761   4.841   5.000   0.669  0.1088  0.4972 -0.5640
  147MOL0     N19762   4.860   5.121   0.689  0.0024  0.4024  0.8351
  147MOL0     C19763   5.356   6.231   0.446  0.3442 -0.4570  0.7407
  147MOL0     C19764   5.361   6.359   0.385  0.0768 -0.3098 -0.7603
  147MOL0     C19765   5.335   6.611  -0.007 -0.2542 -0.1338  0.0778
  147MOL0     C19766   5.300   6.740   0.032  0.2512 -0.2302 -0.5330
  147MOL0     C19767   5.308   6.844  -0.067  0.4001  0.2060  0.0586
  147MOL0     C19768   5.369   6.828  -0.191  1.0217 -0.0629  1.3210
  147MOL0     O19769   5.371   6.946  -0.276  0.7724  0.0711  1.0132
  147MOL0     C19770   5.418   6.946  -0.411  1.0163 -0.3827  0.8520
  147MOL0     C19771   5.364   7.064  -0.500 -0.2790  0.9416 -0.0304
  147MOL0     C19772   5.207   7.067  -0.502  0.4061  1.0241  1.3130
  147MOL0     C19773   5.160   7.199  -0.561  0.0209 -0.4291  0.0403
  147MOL0     C19774   5.190   7.205  -0.705 -0.2460  0.8383 -0.4228
  147MOL0     C19775   5.236   7.200  -0.818  0.5234 -0.3792  1.3254
  147MOL0     C19776   5.410   6.699  -0.230  0.0865 -0.9643  0.3394
  147MOL0     C19777   5.388   6.595  -0.133 -0.1368  0.3664 -0.1883
  147MOL0     H19778   5.107   6.338   0.171  2.2320  0.4757 -0.2747
  147MOL0     H19779   5.069   6.121   0.290  1.8305 -1.0216 -3.5469
  147MOL0     H19780   5.062   6.055   0.561 -1.9928  0.0442 -0.6570
  147MOL0     H19781   5.075   5.914   0.459  1.8433 -2.8496  1.4142
  147MOL0     H19782   5.277   5.921   0.665 -0.5050 -0.1924 -2.4326
  147MOL0     H19783   5.117   5.961   0.735 -3.5542 -2.1031 -0.6547
  147MOL0     H19784   5.036   5.741   0.637  0.2655 -0.4803  0.2046
  147MOL0     H19785   5.176   5.727   0.541 -0.3476  5.9614 -1.7178
  147MOL0     H19786   5.330   5.709   0.756  0.7949 -0.2689  4.6958
  147MOL0     H19787   5.172   5.720   0.845 -0.5826 -1.8821  0.3148
  147MOL0     H19788   5.202   5.519   0.635 -3.5748  0.1413 -1.5069
  147MOL0     H19789   5.278   5.487   0.786 -0.4822  0.7905  0.4357
  147MOL0     H19790   5.089   5.524   0.914 -1.4199  1.0461 -0.0052
  147MOL0     H19791   4.971   5.534   0.790 -2.7435 -4.3173  0.2846
  147MOL0     H19792   5.135   5.292   0.878 -0.0769  1.8363  0.7097
  147MOL0     H19793   4.958   5.305   0.862 -1.6329 -1.7133 -3.5573
  147MOL0     H19794   5.153   5.274   0.652  0.3135 -0.9985  0.3932
  147MOL0     H19795   4.988   5.346   0.628 -0.8874 -0.4173  0.8992
  147MOL0     H19796   5.165   5.017   0.606  0.2649  0.4978  2.3577
  147MOL0     H19797   4.900   4.750   0.608 -0.3436 -0.2065 -1.5475
  147MOL0     H19798   4.992   4.802   0.464 -0.3549  0.9616  0.1503
  147MOL0     H19799   5.108   4.748   0.748  1.3679  3.2276  0.0411
  147MOL0     H19800   5.199   4.797   0.600  1.1159 -1.9535 -1.8315
  147MOL0     H19801   5.102   4.584   0.485  1.8628 -1.6198 -0.5125
  147MOL0     H19802   5.006   4.555   0.630  0.4373 -1.1920 -0.9950
  147MOL0     H19803   5.215   4.430   0.629 -1.7911  0.4300  0.6170
  147MOL0     H19804   5.263   4.562   0.743  1.9935  1.5785  0.0887
  147MOL0     H19805   5.422   4.375   0.660  3.0279 -3.5123 -1.0541
  147MOL0     H19806   5.550   4.207   0.695  0.0231 -1.3285  1.1797
  147MOL0     H19807   5.666   4.166   0.570 -0.9337  2.4097 -2.6132
  147MOL0     H19808   5.710   4.257   0.728  0.2663  2.4949 -0.3561
  147MOL0     H19809   5.893   4.192   0.212 -0.7828  1.0430 -0.2122
  147MOL0     H19810   6.076   4.104   0.091 -1.4680  1.5083 -0.6034
  147MOL0     H19811   6.336   4.029   0.072 -1.1862  1.3783 -0.2709
  147MOL0     H19812   6.270   4.125  -0.063 -0.7745 -1.2912  0.3133
  147MOL0     H19813   6.552   4.080   0.026  0.6989  0.4095  0.8953
  147MOL0     H19814   6.467   4.036  -0.126  2.5743  0.3791 -0.0387
  147MOL0     H19815   6.643   4.227  -0.140  0.5772 -1.1442  2.9039
  147MOL0     H19816   6.553   4.320  -0.024  1.9831 -1.1830  0.3061
  147MOL0     H19817   6.386   4.372  -0.156  0.3037 -1.8555  0.6768
  147MOL0     H19818   6.524   4.404  -0.265 -0.9362  2.7066  0.2026
  147MOL0     H19819   6.357   4.323  -0.396  0.8742 -0.5266 -1.6021
  147MOL0     H19820   6.337   4.168  -0.299  3.2799 -3.7953 -1.4255
  147MOL0     H19821   6.582   4.126  -0.353 -1.3408  1.0707  1.6837
  147MOL0     H19822   6.468   4.137  -0.501  1.8671 -4.1018  0.8796
  147MOL0     H19823   6.691   4.328  -0.411  0.1113  0.1682 -1.2257
  147MOL0     H19824   6.557   4.373  -0.522  1.9266  1.5593 -0.2992
  147MOL0     H19825   6.737   4.282  -0.663 -2.0873  1.0528  0.7334
  147MOL0     H19826   6.633   4.155  -0.654  0.7150  2.4792 -2.3392
  147MOL0     H19827   6.305   4.461   0.171 -1.0301  1.1607  2.7323
  147MOL0     H19828   6.092   4.552   0.304 -1.5798  1.4459 -2.3014
  147MOL0     H19829   5.720   4.610   0.349 -0.5823 -0.7922 -0.1965
  147MOL0     H19830   5.519   4.696   0.391  0.0682  0.4032  0.4323
  147MOL0     H19831   5.434   6.197   0.513  1.6551 -0.1527 -0.5846
  147MOL0     H19832   5.428   6.436   0.423 -0.6365 -0.5801  1.1482
  147MOL0     H19833   5.278   6.763   0.136  1.4713 -3.9655  0.7316
  147MOL0     H19834   5.269   6.942  -0.042 -2.6341 -0.0936 -2.7986
  147MOL0     H19835   5.527   6.948  -0.409  1.1655  0.4105 -2.2776
  147MOL0     H19836   5.397   6.853  -0.466 -0.1416  1.6049 -2.4028
  147MOL0     H19837   5.407   7.049  -0.600  1.3656 -0.4024  0.8283
  147MOL0     H19838   5.398   7.160  -0.460 -0.3848  1.3302 -0.8498
  147MOL0     H19839   5.173   7.050  -0.399  0.1062 -0.9244  0.9367
  147MOL0     H19840   5.187   6.980  -0.566  3.1782 -0.2327  2.0274
  147MOL0     H19841   5.213   7.281  -0.511 -0.7181 -0.7108  1.3246
  147MOL0     H19842   5.052   7.218  -0.556  0.1731  0.5953 -0.2507
  147MOL0     H19843   5.247   7.192  -0.925 -0.8248 -0.2169  1.1529
  147MOL0     H19844   5.463   6.681  -0.323  0.8056 -0.1065  0.5651
  147MOL0     H19845   5.423   6.494  -0.157 -0.3700 -0.6179  3.0820
  148MOL0     O19846   1.803   8.502   3.796  0.4991 -0.8739 -1.2434
  148MOL0     C19847   1.907   8.540   3.852  0.4716  0.2304  0.0298
  148MOL0     O19848   1.922   8.653   3.922  0.4204  0.0260 -0.5260
  148MOL0     C19849   1.818   8.738   3.929  0.5696 -0.3459  0.3682
  148MOL0     C19850   1.758   8.791   3.815  0.9722  1.6695  0.2499
  148MOL0     C19851   1.675   8.900   3.818 -0.1538  0.4232 -0.1099
  148MOL0     C19852   1.647   8.963   3.941  1.2026  0.5001  0.6855
  148MOL0     O19853   1.559   9.064   3.953 -0.7104  0.0191  0.1172
  148MOL0     C19854   1.440   9.046   3.879 -0.3062  0.5197  0.0847
  148MOL0     C19855   1.358   8.919   3.924 -0.2262 -0.7176  0.5736
  148MOL0     C19856   1.318   8.941   4.069 -0.7618  0.6661 -0.1206
  148MOL0     C19857   1.235   8.831   4.132 -0.6775  0.8227 -0.2419
  148MOL0     C19858   1.143   8.884   4.244 -0.5088 -0.1518  0.5147
  148MOL0     C19859   1.065   8.764   4.291  0.0345 -0.6335  0.3115
  148MOL0     C19860   1.000   8.782   4.433 -0.7454 -0.2689  0.0007
  148MOL0     C19861   0.890   8.885   4.461 -0.4649  0.1397  0.4764
  148MOL0     N19862   0.855   8.888   4.602 -0.3527  0.2278 -0.4346
  148MOL0     C19863   0.832   8.776   4.677  1.0782  0.1739  0.0085
  148MOL0     C19864   0.828   8.823   4.799  0.3772 -0.5077  0.5240
  148MOL0     C19865   0.790   8.748   4.919 -0.3724  0.0660  0.6021
  148MOL0     C19866   0.638   8.754   4.943  0.4673  0.1032  0.2842
  148MOL0     C19867   0.581   8.697   5.064 -1.2165  0.0126  0.1433
  148MOL0     C19868   0.581   8.546   5.085 -0.0735  0.4443 -0.1461
  148MOL0     O19869   0.503   8.482   4.987 -0.2182  0.2323  0.6246
  148MOL0     C19870   0.367   8.472   4.990  0.4539  0.7455  1.3541
  148MOL0     C19871   0.297   8.516   5.104  0.1615 -0.7325  0.2485
  148MOL0     C19872   0.161   8.538   5.102 -0.1141 -0.1050  0.6088
  148MOL0     C19873   0.103   8.619   5.218  0.5239 -0.6453  0.1039
  148MOL0     C19874   0.093   8.487   4.991  0.3491 -0.1795 -0.9486
  148MOL0     C19875  -0.055   8.511   4.963 -0.8963  0.1205  0.6265
  148MOL0     O19876  -0.102   8.544   4.827  0.0644 -0.0169 -0.2595
  148MOL0     C19877  -0.232   8.559   4.793 -0.0015  0.5710  0.2988
  148MOL0     C19878  -0.282   8.470   4.696  0.1492  0.5366  0.7823
  148MOL0     C19879  -0.413   8.477   4.653  0.1561  0.1129  0.8411
  148MOL0     C19880  -0.502   8.564   4.723 -0.1562  0.2477 -0.0414
  148MOL0     O19881  -0.634   8.578   4.693  0.2758 -0.5340  0.5650
  148MOL0     C19882  -0.716   8.493   4.613  0.2892  0.6095  0.3026
  148MOL0     C19883  -0.845   8.562   4.560 -0.4712  0.1230  0.3821
  148MOL0     C19884  -0.889   8.487   4.432  0.0614 -0.1845 -0.1987
  148MOL0     C19885  -0.992   8.556   4.341  1.1426 -0.2719 -0.3171
  148MOL0     C19886  -1.132   8.539   4.414 -0.9814  1.2164 -1.2890
  148MOL0     C19887  -1.242   8.565   4.320 -1.1154  1.1747 -0.0486
  148MOL0     C19888  -1.263   8.718   4.296  0.1762 -0.0529 -0.0128
  148MOL0     C19889  -1.366   8.748   4.190 -0.0120  0.1369 -0.0912
  148MOL0    Cl19890  -1.279   8.726   4.052 -0.9068 -0.6820 -0.3261
  148MOL0     C19891  -0.458   8.647   4.825 -0.2803  0.4499  0.9215
  148MOL0     C19892  -0.325   8.642   4.860 -1.0349 -0.8963  0.1358
  148MOL0     O19893  -0.128   8.524   5.060  0.3697  0.1911 -0.2188
  148MOL0     C19894   0.160   8.434   4.885 -0.5533  0.3857  0.3083
  148MOL0     C19895   0.297   8.430   4.877  0.4846 -0.3374  0.2658
  148MOL0     N19896   0.874   8.953   4.805 -0.3847  0.5053  0.8542
  148MOL0     N19897   0.896   8.988   4.686  0.2441  0.2179  0.1397
  148MOL0     C19898   1.713   8.915   4.053  0.7457 -0.1256  0.1255
  148MOL0     C19899   1.798   8.814   4.049 -0.0877  0.6033  0.1628
  148MOL0     C19900   2.025   8.452   3.862  0.3210  0.5005  0.3247
  148MOL0     C19901   2.008   8.311   3.861  0.9476 -0.7575 -0.3372
  148MOL0     C19902   2.115   8.222   3.883  0.6143  0.0639  0.4365
  148MOL0     C19903   2.240   8.268   3.902  0.5393 -0.2408  1.2258
  148MOL0     O19904   2.345   8.188   3.910 -1.3414  0.3322 -0.2675
  148MOL0     C19905   2.345   8.049   3.920 -0.5977 -0.1601  0.0504
  148MOL0     C19906   2.351   8.010   4.069 -0.6446  0.3184  0.1458
  148MOL0     C19907   2.460   8.074   4.148 -0.0177 -0.2763  1.4661
  148MOL0     C19908   2.482   8.013   4.282 -0.3721  0.5297 -0.2828
  148MOL0     C19909   2.566   8.106   4.370 -0.0739  0.1389  0.3424
  148MOL0     C19910   2.626   8.172   4.446 -0.3195 -0.8180  0.3742
  148MOL0     C19911   2.259   8.406   3.898  0.4959 -0.2270 -0.0473
  148MOL0     C19912   2.156   8.502   3.867  0.0770  0.6805 -0.1760
  148MOL0     H19913   1.764   8.728   3.727 -0.3505 -2.2542  2.7193
  148MOL0     H19914   1.642   8.925   3.718  5.2183 -1.4145 -2.7114
  148MOL0     H19915   1.376   9.134   3.897 -3.2007 -0.8352 -2.6801
  148MOL0     H19916   1.438   9.029   3.771 -0.8785 -0.7871  0.2814
  148MOL0     H19917   1.267   8.916   3.863  0.6026 -0.3227 -0.7312
  148MOL0     H19918   1.417   8.828   3.936 -1.3281 -1.4853  0.2331
  148MOL0     H19919   1.408   8.945   4.130 -0.6010 -1.5408 -0.1312
  148MOL0     H19920   1.264   9.035   4.078 -1.8120 -0.0584  1.4849
  148MOL0     H19921   1.174   8.780   4.057  2.1151 -2.1248 -0.7363
  148MOL0     H19922   1.300   8.754   4.175 -1.1114  0.9687  0.6817
  148MOL0     H19923   1.207   8.925   4.323  0.3603  1.8668 -1.1252
  148MOL0     H19924   1.077   8.968   4.216  1.7143  1.1637 -1.1106
  148MOL0     H19925   0.985   8.724   4.228 -0.5421  1.6180 -0.4677
  148MOL0     H19926   1.143   8.686   4.294 -0.1415 -1.0950 -3.0455
  148MOL0     H19927   0.979   8.676   4.450  2.6980 -1.0350  0.2510
  148MOL0     H19928   1.082   8.798   4.504  0.3791 -1.7157 -0.9152
  148MOL0     H19929   0.807   8.853   4.397  0.9510 -1.5783 -0.6012
  148MOL0     H19930   0.923   8.982   4.423  2.5946  0.2156  2.9906
  148MOL0     H19931   0.807   8.676   4.644 -0.9135  0.6720 -0.1038
  148MOL0     H19932   0.824   8.645   4.907 -0.6687  0.2753 -3.6601
  148MOL0     H19933   0.837   8.798   5.004  2.6778 -1.3104 -0.1222
  148MOL0     H19934   0.584   8.699   4.866  0.9893 -0.1248  0.0754
  148MOL0     H19935   0.596   8.853   4.922 -0.6597 -0.6967 -1.4824
  148MOL0     H19936   0.480   8.737   5.068  0.4771  4.8270  0.9768
  148MOL0     H19937   0.637   8.745   5.145  0.1206 -1.8930  0.4141
  148MOL0     H19938   0.552   8.522   5.188 -1.6788  0.8112 -0.4882
  148MOL0     H19939   0.678   8.495   5.081 -0.1974  0.0053  1.5016
  148MOL0     H19940   0.355   8.561   5.184 -0.8768  2.4561 -0.6300
  148MOL0     H19941   0.042   8.558   5.285 -2.4007  2.7106  0.7886
  148MOL0     H19942   0.172   8.671   5.284 -0.4900  1.3032 -0.2934
  148MOL0     H19943   0.047   8.703   5.176  1.2430 -0.0486  0.3198
  148MOL0     H19944  -0.215   8.405   4.640 -0.9308  1.1020 -1.2879
  148MOL0     H19945  -0.451   8.411   4.576  1.3212 -0.2921  0.5985
  148MOL0     H19946  -0.659   8.457   4.527 -1.4099  1.5016 -1.2560
  148MOL0     H19947  -0.751   8.410   4.676  3.3834  0.0005  1.4111
  148MOL0     H19948  -0.921   8.563   4.638 -3.2299  1.9808 -2.1182
  148MOL0     H19949  -0.821   8.667   4.540  1.6181 -0.3539  0.0900
  148MOL0     H19950  -0.923   8.390   4.470  1.8412 -0.6942  0.1856
  148MOL0     H19951  -0.806   8.475   4.362 -2.1255 -0.5599 -2.9150
  148MOL0     H19952  -0.964   8.660   4.322 -1.1080 -0.0244 -2.8353
  148MOL0     H19953  -0.990   8.511   4.241  1.9300  1.2093 -0.9954
  148MOL0     H19954  -1.134   8.597   4.507 -2.6718 -1.0951  0.2111
  148MOL0     H19955  -1.145   8.438   4.454  1.5265  1.2681 -0.1201
  148MOL0     H19956  -1.206   8.521   4.227  2.0360  2.0331  0.6434
  148MOL0     H19957  -1.341   8.526   4.348  0.3618 -0.5561  3.4229
  148MOL0     H19958  -1.164   8.762   4.286  0.1535 -0.1173 -0.6159
  148MOL0     H19959  -1.299   8.748   4.394 -3.1734 -1.5081 -0.6337
  148MOL0     H19960  -1.411   8.847   4.194 -0.2053  0.0199  2.0400
  148MOL0     H19961  -1.453   8.682   4.200 -0.0582  0.3627  1.2346
  148MOL0     H19962  -0.532   8.717   4.864 -0.2603  0.5456  0.7870
  148MOL0     H19963  -0.284   8.703   4.941  2.7969 -0.9200 -1.5681
  148MOL0     H19964   0.104   8.399   4.798  1.7285 -2.3921 -0.1671
  148MOL0     H19965   0.341   8.400   4.783 -2.4354  0.1414 -1.3460
  148MOL0     H19966   1.699   8.951   4.155 -2.9458  2.2385 -1.0187
  148MOL0     H19967   1.849   8.775   4.136 -1.5774 -1.2785  0.2441
  148MOL0     H19968   1.906   8.275   3.860 -0.2743  2.2780 -2.1131
  148MOL0     H19969   2.076   8.121   3.886  0.1322  0.1629  5.2902
  148MOL0     H19970   2.259   7.995   3.879 -1.1901 -1.7977  3.1515
  148MOL0     H19971   2.433   8.013   3.866 -1.4584 -2.9958  0.3763
  148MOL0     H19972   2.380   7.905   4.063 -1.1789  0.2110 -4.8278
  148MOL0     H19973   2.257   8.024   4.124 -0.8892  1.0704 -0.4366
  148MOL0     H19974   2.426   8.177   4.163  0.1208 -0.1122  0.6881
  148MOL0     H19975   2.551   8.081   4.087  0.7021  0.1490  2.5550
  148MOL0     H19976   2.529   7.914   4.275  0.6961  0.8619  1.5135
  148MOL0     H19977   2.389   7.999   4.338 -0.1460 -0.3147 -0.0896
  148MOL0     H19978   2.661   8.233   4.527 -3.5905 -0.3553  1.5667
  148MOL0     H19979   2.354   8.446   3.933  0.7811 -0.8763 -0.0593
  148MOL0     H19980   2.183   8.606   3.883  0.4428  0.8237 -1.5532
  149MOL0     O19981   7.354   2.893   1.749  0.6037 -0.7818  0.2750
  149MOL0     C19982   7.303   2.885   1.640  0.1256  0.6414  0.3587
  149MOL0     O19983   7.296   2.769   1.568 -0.7737 -0.4007  0.0179
  149MOL0     C19984   7.332   2.647   1.628 -0.3127 -0.3953 -0.6849
  149MOL0     C19985   7.267   2.541   1.567  0.6941 -1.1148 -0.1672
  149MOL0     C19986   7.294   2.404   1.603  0.5165 -0.5871  0.6767
  149MOL0     C19987   7.383   2.376   1.707  0.0710 -1.1220  0.8384
  149MOL0     O19988   7.395   2.246   1.742  0.1011  0.2420 -0.0677
  149MOL0     C19989   7.508   2.201   1.822  0.5066  0.3979 -0.5318
  149MOL0     C19990   7.482   2.059   1.835  0.4969  0.5048 -0.4755
  149MOL0     C19991   7.377   2.013   1.941  0.4729  0.2234 -0.0533
  149MOL0     C19992   7.247   1.980   1.859  0.3276  0.2814 -0.8540
  149MOL0     C19993   7.123   1.982   1.949 -1.1261 -0.0906 -0.5807
  149MOL0     C19994   7.134   1.877   2.054  0.4538 -0.8960 -0.4719
  149MOL0     C19995   7.000   1.843   2.119 -0.5272  0.3907  0.1649
  149MOL0     C19996   6.920   1.758   2.022 -0.0203 -0.3455  0.0317
  149MOL0     N19997   6.807   1.701   2.093  0.8125  0.0274 -0.1102
  149MOL0     C19998   6.696   1.757   2.143 -0.2581 -0.4976 -0.0825
  149MOL0     C19999   6.604   1.658   2.161  0.0822 -0.1517  0.5164
  149MOL0     C20000   6.470   1.662   2.224 -0.0532  0.8735 -0.8796
  149MOL0     C20001   6.366   1.724   2.136 -0.4184  0.2479 -0.6689
  149MOL0     C20002   6.268   1.800   2.223 -0.4859 -0.3472 -0.2643
  149MOL0     C20003   6.283   1.943   2.245 -0.0835 -0.8364  0.2970
  149MOL0     O20004   6.280   1.999   2.109  0.6735 -0.3933 -0.8560
  149MOL0     C20005   6.287   2.136   2.109 -0.4805 -0.1635 -0.1246
  149MOL0     C20006   6.390   2.206   2.179 -0.1291  0.5319 -0.3355
  149MOL0     C20007   6.414   2.346   2.159  0.3155 -0.2188  0.3716
  149MOL0     C20008   6.519   2.424   2.232  0.9556 -0.3930 -0.8605
  149MOL0     C20009   6.332   2.412   2.066  0.8183 -0.4623 -0.3203
  149MOL0     C20010   6.356   2.559   2.033 -0.6195 -0.1434  0.8142
  149MOL0     O20011   6.380   2.594   1.903  0.3336 -0.1253  0.1527
  149MOL0     C20012   6.414   2.728   1.889  0.2905 -0.0189  0.1556
  149MOL0     C20013   6.320   2.820   1.831 -0.1767  0.6636 -0.8090
  149MOL0     C20014   6.330   2.960   1.834 -0.3267  0.4921  0.1902
  149MOL0     C20015   6.458   3.005   1.866  0.2888 -0.8641  0.1714
  149MOL0     O20016   6.496   3.136   1.854  0.1601 -0.0544  0.0785
  149MOL0     C20017   6.446   3.209   1.745 -1.1085 -0.4095 -0.4648
  149MOL0     C20018   6.483   3.365   1.739 -0.3014 -0.1540  1.0662
  149MOL0     C20019   6.389   3.447   1.636  0.4680  0.2563 -0.4984
  149MOL0     C20020   6.367   3.598   1.670 -0.5831  0.0539 -0.0164
  149MOL0     C20021   6.250   3.672   1.595 -0.7847  0.0052  0.7212
  149MOL0     C20022   6.237   3.633   1.450  0.3957 -0.4353  0.0309
  149MOL0     C20023   6.118   3.696   1.383  1.1293 -1.1378  0.0326
  149MOL0     C20024   6.104   3.846   1.405 -0.5082 -0.7270 -0.4772
  149MOL0    Cl20025   6.234   3.953   1.331 -0.0605 -0.0857  0.1083
  149MOL0     C20026   6.548   2.917   1.930  0.3043  0.7457 -0.7036
  149MOL0     C20027   6.524   2.785   1.948 -0.3338  0.0410 -0.0531
  149MOL0     O20028   6.324   2.640   2.126 -0.3746 -0.4061  0.5607
  149MOL0     C20029   6.236   2.343   1.996 -0.2784 -0.4309  0.3912
  149MOL0     C20030   6.216   2.211   2.016  0.7397 -0.7278 -0.2611
  149MOL0     N20031   6.678   1.535   2.147 -0.6403 -0.1281  0.7666
  149MOL0     N20032   6.794   1.567   2.087  0.5828 -0.0709  0.5834
  149MOL0     C20033   7.461   2.479   1.752 -1.6629  0.0954 -1.3072
  149MOL0     C20034   7.441   2.614   1.713 -0.2136  0.2692  0.8050
  149MOL0     C20035   7.274   3.002   1.568  0.4267  0.8595  0.9226
  149MOL0     C20036   7.259   3.127   1.626  0.2589  0.0309 -0.1369
  149MOL0     C20037   7.208   3.247   1.560 -0.4081  0.2230 -0.0935
  149MOL0     C20038   7.177   3.247   1.422  0.4365 -0.4703 -0.0492
  149MOL0     O20039   7.134   3.368   1.376 -0.3104 -0.1843 -0.3635
  149MOL0     C20040   7.117   3.367   1.228 -0.3670 -0.3785  0.4774
  149MOL0     C20041   7.102   3.517   1.192 -0.5666  0.3698  0.0807
  149MOL0     C20042   7.170   3.567   1.063 -0.5288 -0.5475  0.0691
  149MOL0     C20043   7.175   3.728   1.053  1.0501  0.9402  0.6626
  149MOL0     C20044   7.260   3.782   1.151  0.6084  0.3419  0.1588
  149MOL0     C20045   7.326   3.846   1.231  0.5873  0.2222 -0.0041
  149MOL0     C20046   7.186   3.116   1.358  0.4852  0.1220 -0.5951
  149MOL0     C20047   7.239   3.000   1.426  0.4863 -0.0751 -0.8981
  149MOL0     H20048   7.195   2.555   1.487 -1.2279  2.2559  1.8978
  149MOL0     H20049   7.257   2.322   1.541 -1.7051  0.0845  1.0110
  149MOL0     H20050   7.598   2.206   1.760  0.7877 -2.3465 -0.4664
  149MOL0     H20051   7.526   2.248   1.918  1.3323  1.5596 -1.2423
  149MOL0     H20052   7.461   2.006   1.742  0.5341 -2.3934  1.0229
  149MOL0     H20053   7.580   2.020   1.867  0.8770  0.8836 -1.1607
  149MOL0     H20054   7.413   1.925   1.995 -1.4373 -1.5329 -1.4694
  149MOL0     H20055   7.367   2.095   2.012 -1.4781  1.3615 -1.5526
  149MOL0     H20056   7.226   2.053   1.779 -0.6237  1.1750  0.1736
  149MOL0     H20057   7.264   1.885   1.808  0.7316  0.0888 -0.3719
  149MOL0     H20058   7.110   2.084   1.986 -1.4396 -0.0065 -0.9180
  149MOL0     H20059   7.038   1.965   1.882 -0.7607 -3.6182 -0.3213
  149MOL0     H20060   7.180   1.785   2.016  0.1257 -1.6781  0.9595
  149MOL0     H20061   7.194   1.927   2.130 -0.3555 -1.0455  0.2796
  149MOL0     H20062   7.032   1.775   2.199 -1.5472 -1.8533 -1.2490
  149MOL0     H20063   6.947   1.924   2.171  1.3466  1.4642  0.5010
  149MOL0     H20064   6.986   1.677   1.991  1.8542  0.3912  1.8901
  149MOL0     H20065   6.889   1.825   1.941  4.1878  2.9214  0.7721
  149MOL0     H20066   6.670   1.862   2.153  0.4799 -0.3401  0.2494
  149MOL0     H20067   6.436   1.559   2.241 -2.4041  1.7910  0.5851
  149MOL0     H20068   6.480   1.708   2.323  1.5865 -2.8982  0.9403
  149MOL0     H20069   6.314   1.653   2.071 -0.3752 -2.1106  1.6805
  149MOL0     H20070   6.420   1.795   2.073 -0.8248  0.0979 -1.1910
  149MOL0     H20071   6.257   1.745   2.317  1.8240 -0.5722 -0.0610
  149MOL0     H20072   6.173   1.804   2.170 -0.8894  1.9133  0.5230
  149MOL0     H20073   6.373   1.954   2.307 -0.2374 -2.5965  0.8894
  149MOL0     H20074   6.203   1.987   2.306  0.1667  0.0810 -0.0172
  149MOL0     H20075   6.441   2.144   2.252 -2.1008  2.2205  2.7297
  149MOL0     H20076   6.474   2.504   2.292  1.9765  1.3237 -2.2934
  149MOL0     H20077   6.584   2.361   2.294  1.9911  2.6179  1.3320
  149MOL0     H20078   6.590   2.465   2.160 -0.7686  1.6974 -1.4595
  149MOL0     H20079   6.226   2.791   1.786 -0.4214 -0.5758  0.4381
  149MOL0     H20080   6.242   3.009   1.793 -1.2776 -1.2614  0.0431
  149MOL0     H20081   6.499   3.163   1.661 -2.0385  1.5229 -2.1863
  149MOL0     H20082   6.338   3.192   1.741 -0.8054 -2.3927 -2.6395
  149MOL0     H20083   6.464   3.399   1.841  2.2536  0.8292  1.2890
  149MOL0     H20084   6.592   3.371   1.730 -0.3256 -1.4157 -0.5184
  149MOL0     H20085   6.298   3.388   1.654  0.2061 -0.0181 -2.4760
  149MOL0     H20086   6.420   3.433   1.532  0.4833  0.8173 -0.5709
  149MOL0     H20087   6.354   3.610   1.779 -3.0108 -2.8736  0.1458
  149MOL0     H20088   6.456   3.648   1.632 -0.9029 -0.0085 -0.8561
  149MOL0     H20089   6.264   3.779   1.613  5.5113  0.3335 -3.1963
  149MOL0     H20090   6.152   3.644   1.635 -1.5523 -1.0433 -1.7295
  149MOL0     H20091   6.338   3.648   1.409  1.6842  0.6814  3.2665
  149MOL0     H20092   6.226   3.525   1.438 -0.0144 -0.2430 -1.6152
  149MOL0     H20093   6.025   3.655   1.423  1.3656 -0.7892  0.9610
  149MOL0     H20094   6.123   3.672   1.277  0.4653 -2.3069  0.2466
  149MOL0     H20095   6.093   3.862   1.513 -0.4967  0.9112 -0.7069
  149MOL0     H20096   6.002   3.876   1.377 -0.3016  0.9639  0.4577
  149MOL0     H20097   6.643   2.957   1.965 -0.5121  2.7039 -0.6092
  149MOL0     H20098   6.610   2.729   1.983 -2.3572 -2.2531  1.6081
  149MOL0     H20099   6.175   2.401   1.927  2.6139  2.2904 -0.1156
  149MOL0     H20100   6.144   2.155   1.958 -0.9266  1.1877 -0.1464
  149MOL0     H20101   7.534   2.461   1.831 -0.4336  2.6156 -1.7694
  149MOL0     H20102   7.496   2.692   1.765  3.9308 -2.5563  1.2018
  149MOL0     H20103   7.269   3.144   1.733  0.1153  5.2640 -0.7299
  149MOL0     H20104   7.196   3.341   1.613 -1.0299 -0.0294  0.2267
  149MOL0     H20105   7.198   3.325   1.167  1.1580 -1.6688  3.2199
  149MOL0     H20106   7.024   3.317   1.200  0.1667  0.2040 -2.8002
  149MOL0     H20107   7.143   3.574   1.276  1.8899  1.6067 -1.8092
  149MOL0     H20108   6.996   3.540   1.181 -0.2572  1.7150 -0.2662
  149MOL0     H20109   7.106   3.539   0.978 -2.0570  1.5985  0.4315
  149MOL0     H20110   7.269   3.523   1.054  1.4132  3.2968  0.8382
  149MOL0     H20111   7.073   3.766   1.057  0.3963 -0.4884 -1.0284
  149MOL0     H20112   7.220   3.740   0.953 -0.3536 -1.4571 -0.3374
  149MOL0     H20113   7.379   3.909   1.299 -0.8769  0.4667  0.9360
  149MOL0     H20114   7.167   3.105   1.252  0.0871  0.4858 -0.5668
  149MOL0     H20115   7.251   2.912   1.363 -3.1025 -1.8458  0.5962
  150MOL0     O20116   6.711   1.826   3.054 -0.2791  0.1421 -1.2685
  150MOL0     C20117   6.779   1.884   2.969  0.3673 -0.2976  0.3741
  150MOL0     O20118   6.858   1.821   2.871 -0.3219  0.4701 -0.6733
  150MOL0     C20119   6.869   1.683   2.868  0.4162 -0.2190  0.5709
  150MOL0     C20120   6.777   1.581   2.903 -0.1700  0.2599 -0.6711
  150MOL0     C20121   6.819   1.443   2.884  0.0869 -0.2257  0.5889
  150MOL0     C20122   6.946   1.407   2.844 -0.1094  0.3308  0.7307
  150MOL0     O20123   6.987   1.276   2.828  0.0235 -0.8163  0.5764
  150MOL0     C20124   7.084   1.242   2.723  0.4028 -0.2262 -0.6202
  150MOL0     C20125   7.082   1.098   2.683  0.3997 -0.1988  0.1756
  150MOL0     C20126   6.935   1.062   2.627 -0.3128  0.1284 -0.2680
  150MOL0     C20127   6.911   1.072   2.471 -0.1472  1.4283  0.0437
  150MOL0     C20128   6.767   1.047   2.424 -0.8441  0.8745  0.2773
  150MOL0     C20129   6.699   1.178   2.433  0.2254 -0.7490  0.4748
  150MOL0     C20130   6.554   1.157   2.384  0.1610  0.1731 -0.2321
  150MOL0     C20131   6.472   1.293   2.382  0.3190 -0.0354  0.3808
  150MOL0     N20132   6.442   1.366   2.503  0.0880  1.0483 -0.4717
  150MOL0     C20133   6.351   1.318   2.603  1.4597 -0.7024 -0.0060
  150MOL0     C20134   6.377   1.382   2.719 -0.1271  0.3704 -0.4153
  150MOL0     C20135   6.337   1.366   2.862 -0.2815  0.0284  1.0699
  150MOL0     C20136   6.200   1.315   2.878  0.3876 -0.1774  0.3514
  150MOL0     C20137   6.095   1.427   2.859 -0.0109  0.4009 -0.0453
  150MOL0     C20138   5.963   1.357   2.847  0.0550  0.9596  0.3435
  150MOL0     O20139   5.860   1.464   2.855 -0.6282  0.0447 -0.6052
  150MOL0     C20140   5.737   1.417   2.861  0.1096  0.6268  0.8483
  150MOL0     C20141   5.696   1.289   2.813 -0.4509  0.0360 -0.3414
  150MOL0     C20142   5.563   1.256   2.813 -0.2987  0.0704 -0.2107
  150MOL0     C20143   5.521   1.134   2.735  0.0425  1.0628  0.8082
  150MOL0     C20144   5.464   1.349   2.858  0.0856  1.6212 -0.2495
  150MOL0     C20145   5.325   1.321   2.830 -0.1986 -0.0073  0.1368
  150MOL0     O20146   5.282   1.370   2.714 -0.3094  0.2043  0.1467
  150MOL0     C20147   5.154   1.340   2.690 -0.4719  0.2042 -0.1031
  150MOL0     C20148   5.058   1.441   2.722 -0.9001  0.4873 -0.6247
  150MOL0     C20149   4.929   1.424   2.689  0.2439 -0.2343  0.1301
  150MOL0     C20150   4.882   1.296   2.635 -0.4096  0.1204  0.8159
  150MOL0     O20151   4.749   1.258   2.601 -0.5164  0.3171 -0.4250
  150MOL0     C20152   4.647   1.333   2.661 -0.3696 -0.2972  0.2004
  150MOL0     C20153   4.525   1.292   2.578 -0.2671 -0.2737 -0.4253
  150MOL0     C20154   4.407   1.377   2.622 -0.3254 -0.4877 -0.2138
  150MOL0     C20155   4.354   1.352   2.769 -0.3271 -0.6094 -0.1632
  150MOL0     C20156   4.217   1.409   2.793 -0.8008  0.5393  0.2784
  150MOL0     C20157   4.105   1.376   2.694 -0.3692  0.0187  0.6036
  150MOL0     C20158   3.974   1.442   2.747 -0.2327 -0.9859  0.1799
  150MOL0     C20159   3.855   1.380   2.676  0.4844  0.1386 -0.8083
  150MOL0    Cl20160   3.710   1.464   2.713  0.3027 -0.2389 -0.0607
  150MOL0     C20161   4.987   1.208   2.597  0.4424 -0.1780 -0.3506
  150MOL0     C20162   5.115   1.233   2.608 -0.9742 -0.0407 -0.3156
  150MOL0     O20163   5.256   1.291   2.924  0.4603  0.4160  0.1088
  150MOL0     C20164   5.501   1.474   2.915 -0.2995  0.1832  0.0582
  150MOL0     C20165   5.644   1.499   2.918  0.4286 -0.0031  1.0934
  150MOL0     N20166   6.476   1.474   2.682  0.7172  0.7083  0.0859
  150MOL0     N20167   6.514   1.468   2.558  0.1615  0.2870 -0.3405
  150MOL0     C20168   7.025   1.510   2.800  0.2850  0.1884  0.1046
  150MOL0     C20169   6.989   1.643   2.813 -0.1801  0.6712 -0.5946
  150MOL0     C20170   6.789   2.035   2.969  0.2646  0.0254  0.7233
  150MOL0     C20171   6.917   2.087   2.947 -0.4509 -0.5977  0.0115
  150MOL0     C20172   6.936   2.228   2.960 -0.9411 -0.4808  1.0664
  150MOL0     C20173   6.825   2.307   2.993  0.7917  0.4829 -0.1371
  150MOL0     O20174   6.843   2.445   2.993  0.2069  0.0110 -0.5552
  150MOL0     C20175   6.871   2.521   3.106 -0.9442 -0.8890 -0.0307
  150MOL0     C20176   6.747   2.555   3.190  0.0752 -1.1574 -0.1731
  150MOL0     C20177   6.788   2.649   3.301  0.5407 -0.3783 -1.1693
  150MOL0     C20178   6.691   2.674   3.415 -0.0889  0.2165  0.5704
  150MOL0     C20179   6.666   2.545   3.484 -0.1824  0.3239  0.6039
  150MOL0     C20180   6.652   2.438   3.545  0.0290 -0.3936 -0.1286
  150MOL0     C20181   6.699   2.248   3.019 -1.0139 -0.0007  1.3239
  150MOL0     C20182   6.684   2.117   3.007  0.3989  0.2413  0.5221
  150MOL0     H20183   6.672   1.595   2.925 -0.7693 -0.5999 -2.7520
  150MOL0     H20184   6.748   1.366   2.912  0.1277 -0.0113  1.3140
  150MOL0     H20185   7.056   1.303   2.636  2.3638  1.3623 -0.2023
  150MOL0     H20186   7.183   1.273   2.758  1.5520 -3.5538 -0.6597
  150MOL0     H20187   7.158   1.081   2.606 -1.2846  2.4919 -2.2977
  150MOL0     H20188   7.104   1.028   2.764  0.0832  0.3638  0.7583
  150MOL0     H20189   6.907   0.961   2.658  3.0221 -0.5801  0.9158
  150MOL0     H20190   6.859   1.127   2.671 -0.9024 -1.1413  0.6520
  150MOL0     H20191   6.946   1.173   2.447  1.8361  0.9340  0.7029
  150MOL0     H20192   6.976   1.006   2.414  0.6130  1.3234  1.0101
  150MOL0     H20193   6.764   1.017   2.319  1.5344 -0.7755  0.6031
  150MOL0     H20194   6.705   0.969   2.471 -2.6398  2.1133  0.0903
  150MOL0     H20195   6.693   1.209   2.538 -0.1630 -2.0434  0.8577
  150MOL0     H20196   6.752   1.251   2.372 -0.6003 -1.6482 -1.4083
  150MOL0     H20197   6.545   1.112   2.285 -2.1026  1.6143 -0.7420
  150MOL0     H20198   6.514   1.087   2.458  0.8694 -0.1856 -0.1798
  150MOL0     H20199   6.369   1.274   2.352  0.3364 -0.5586  0.6293
  150MOL0     H20200   6.524   1.361   2.314  1.0596 -2.1485 -1.2987
  150MOL0     H20201   6.281   1.236   2.587 -1.9412  1.7633  1.0417
  150MOL0     H20202   6.407   1.298   2.912  0.1083  0.3022  0.9081
  150MOL0     H20203   6.345   1.468   2.902  0.1542  0.4986 -0.1919
  150MOL0     H20204   6.191   1.271   2.978  1.1142  0.7158  0.8211
  150MOL0     H20205   6.182   1.242   2.798 -1.9473 -0.1066  0.7413
  150MOL0     H20206   6.125   1.484   2.770 -0.6895 -1.2534 -1.3983
  150MOL0     H20207   6.093   1.499   2.941 -0.3457  1.6810 -1.1249
  150MOL0     H20208   5.948   1.284   2.927 -3.1344  0.4014 -0.6104
  150MOL0     H20209   5.967   1.309   2.749 -1.6060  0.0793  0.6639
  150MOL0     H20210   5.765   1.217   2.769  0.6535 -0.4177  1.9921
  150MOL0     H20211   5.467   1.168   2.646  1.8264 -0.6988 -1.0538
  150MOL0     H20212   5.602   1.070   2.699  0.2306  1.7616 -0.0482
  150MOL0     H20213   5.457   1.066   2.791  0.4090  0.0965  0.0846
  150MOL0     H20214   5.086   1.537   2.764 -1.8679 -0.2826  1.9505
  150MOL0     H20215   4.855   1.499   2.714 -0.8922 -0.7615 -1.5191
  150MOL0     H20216   4.632   1.291   2.761  0.2890 -0.2989  0.3008
  150MOL0     H20217   4.666   1.439   2.646 -0.9984 -0.6463 -4.4481
  150MOL0     H20218   4.541   1.335   2.479  1.2881 -1.5008 -0.7546
  150MOL0     H20219   4.512   1.184   2.573  1.0459 -1.1031  5.7559
  150MOL0     H20220   4.325   1.362   2.551 -0.0265 -0.4642 -0.5708
  150MOL0     H20221   4.427   1.484   2.622 -0.5313 -0.4453 -0.7170
  150MOL0     H20222   4.344   1.245   2.790  3.1656 -1.6283 -2.8152
  150MOL0     H20223   4.421   1.396   2.843 -0.6519  1.6530 -1.1210
  150MOL0     H20224   4.236   1.515   2.779  0.9000  0.1548 -0.6484
  150MOL0     H20225   4.185   1.388   2.896  1.4682 -1.0985  0.7306
  150MOL0     H20226   4.115   1.411   2.591 -5.6158 -1.3984 -0.6969
  150MOL0     H20227   4.093   1.267   2.683 -2.8551  0.3204 -0.3068
  150MOL0     H20228   3.977   1.550   2.729 -0.2220 -0.1580  4.0693
  150MOL0     H20229   3.960   1.450   2.856  0.8667 -0.2998  0.2830
  150MOL0     H20230   3.857   1.272   2.688 -1.0715 -0.2737 -3.5607
  150MOL0     H20231   3.870   1.405   2.571 -0.0356 -0.4953 -1.0360
  150MOL0     H20232   4.947   1.120   2.548  1.0588 -0.0912 -1.0256
  150MOL0     H20233   5.185   1.161   2.567 -0.9800  0.6646 -1.6355
  150MOL0     H20234   5.424   1.544   2.947 -1.1920 -1.9794  3.1749
  150MOL0     H20235   5.674   1.595   2.959 -1.8766  1.5565 -0.5341
  150MOL0     H20236   7.122   1.496   2.755  1.5352 -0.3074  2.8056
  150MOL0     H20237   7.060   1.723   2.792 -1.4860  1.3568 -2.6926
  150MOL0     H20238   7.010   2.031   2.943  0.0328  0.1137  0.7841
  150MOL0     H20239   7.030   2.281   2.957 -0.8244 -0.1855  4.9562
  150MOL0     H20240   6.945   2.477   3.174 -0.9598  3.6631  3.4354
  150MOL0     H20241   6.932   2.610   3.091 -0.3961 -0.7452  2.6052
  150MOL0     H20242   6.713   2.463   3.239  1.9196 -0.3079  3.0033
  150MOL0     H20243   6.676   2.614   3.131  1.5969  1.7062  0.6947
  150MOL0     H20244   6.804   2.745   3.251  3.6116  1.8005  3.3338
  150MOL0     H20245   6.883   2.619   3.343  2.1614  0.4324 -3.9675
  150MOL0     H20246   6.601   2.721   3.374 -1.1189  0.0579  2.5125
  150MOL0     H20247   6.731   2.749   3.483 -2.2234  1.0114  1.0390
  150MOL0     H20248   6.649   2.343   3.596  1.2883 -0.2056  0.3333
  150MOL0     H20249   6.620   2.309   3.062  0.2730 -0.0978  4.0395
  150MOL0     H20250   6.590   2.072   3.038  0.0236 -1.2085 -2.4288
  151MOL0     O20251   7.273   6.664  10.783 -0.0918  0.0621 -0.4006
  151MOL0     C20252   7.269   6.573  10.866 -0.2623 -0.2594 -0.7541
  151MOL0     O20253   7.373   6.538  10.953  0.0500 -0.4969  0.1994
  151MOL0     C20254   7.451   6.641  11.012  0.6856  1.1783  0.9923
  151MOL0     C20255   7.411   6.773  11.022 -0.0285 -0.4666  0.2146
  151MOL0     C20256   7.490   6.865  11.083 -0.2357 -1.0991 -0.5173
  151MOL0     C20257   7.613   6.828  11.127 -0.8327  0.1242 -0.2036
  151MOL0     O20258   7.694   6.933  11.172 -0.4708  0.1201 -0.2815
  151MOL0     C20259   7.832   6.906  11.215  0.9415  0.0171 -0.7985
  151MOL0     C20260   7.843   6.854  11.356 -0.8272 -0.1049  0.4293
  151MOL0     C20261   7.982   6.799  11.380 -0.2696 -0.0347  0.2309
  151MOL0     C20262   8.111   6.869  11.339 -1.2510 -0.2187 -0.5951
  151MOL0     C20263   8.248   6.797  11.365  0.3737 -0.2860  0.0156
  151MOL0     C20264   8.270   6.762  11.510 -0.4565 -0.2586 -0.6375
  151MOL0     C20265   8.386   6.671  11.528 -0.9284  0.1159  1.0602
  151MOL0     C20266   8.422   6.662  11.674 -0.0449 -0.2699  0.1967
  151MOL0     N20267   8.333   6.562  11.744 -1.0891  0.4302  0.2302
  151MOL0     C20268   8.354   6.428  11.722  0.3551  0.0882 -0.3293
  151MOL0     C20269   8.238   6.376  11.778 -0.6070 -1.2455 -0.1993
  151MOL0     C20270   8.209   6.227  11.785  0.2309 -0.3459  0.0899
  151MOL0     C20271   8.081   6.179  11.704 -1.1292  0.3181 -0.4423
  151MOL0     C20272   8.033   6.027  11.707  0.7437 -0.2347 -0.2507
  151MOL0     C20273   8.148   5.926  11.689  0.1106  0.2745  0.0721
  151MOL0     O20274   8.107   5.789  11.683  0.2596 -0.7728 -0.1400
  151MOL0     C20275   8.033   5.747  11.569 -1.5564  0.5808 -0.7449
  151MOL0     C20276   7.975   5.617  11.588  0.0997 -0.1159 -0.2948
  151MOL0     C20277   7.907   5.556  11.480 -0.0031 -0.0420 -0.6662
  151MOL0     C20278   7.876   5.413  11.498  0.1209 -0.7414  0.6838
  151MOL0     C20279   7.877   5.631  11.368 -0.0825 -0.3950 -0.7557
  151MOL0     C20280   7.802   5.580  11.258  0.3600  0.4728 -0.6257
  151MOL0     O20281   7.734   5.676  11.183 -0.8664  0.4148  0.2595
  151MOL0     C20282   7.670   5.618  11.073 -0.3778 -0.7236 -0.9323
  151MOL0     C20283   7.564   5.522  11.083  0.0201  0.7502 -0.7581
  151MOL0     C20284   7.476   5.505  10.975 -0.3510 -0.2036  0.8592
  151MOL0     C20285   7.499   5.579  10.860  0.1336 -0.2525  0.0663
  151MOL0     O20286   7.410   5.575  10.758  0.0591  0.1816  0.3161
  151MOL0     C20287   7.283   5.516  10.773  1.1634  0.1411  0.1914
  151MOL0     C20288   7.199   5.496  10.645  0.0553 -1.0877  1.3990
  151MOL0     C20289   7.289   5.452  10.524  0.1572 -0.0082  0.9431
  151MOL0     C20290   7.199   5.420  10.404 -0.3898 -0.9315  0.4219
  151MOL0     C20291   7.253   5.337  10.287  1.0539  0.0916  0.4773
  151MOL0     C20292   7.384   5.386  10.231 -0.1222 -0.5640  0.1159
  151MOL0     C20293   7.465   5.285  10.155 -0.7221 -0.2189  0.1791
  151MOL0     C20294   7.550   5.339  10.044  0.8250  0.0879 -0.8821
  151MOL0    Cl20295   7.434   5.379   9.919 -0.1483 -0.1688 -0.0986
  151MOL0     C20296   7.609   5.662  10.845 -0.1180 -0.2325  0.0680
  151MOL0     C20297   7.701   5.678  10.951 -0.3372 -0.0131  0.3197
  151MOL0     O20298   7.808   5.460  11.228  0.9660 -0.2453  0.7368
  151MOL0     C20299   7.921   5.765  11.358 -0.4925 -0.0449 -0.5433
  151MOL0     C20300   8.013   5.822  11.447 -0.2008 -0.5395 -0.7074
  151MOL0     N20301   8.158   6.480  11.824 -0.2617 -0.7862 -0.0292
  151MOL0     N20302   8.220   6.591  11.807 -1.3443 -0.9825  0.3295
  151MOL0     C20303   7.655   6.693  11.122  0.6148  0.5933 -0.5318
  151MOL0     C20304   7.574   6.598  11.058 -0.2423  0.1053  0.3441
  151MOL0     C20305   7.149   6.497  10.869 -0.0138  0.4458  0.0665
  151MOL0     C20306   7.145   6.377  10.943  0.5866  0.9906  0.3674
  151MOL0     C20307   7.033   6.298  10.934  0.0181 -0.9142 -0.1723
  151MOL0     C20308   6.916   6.347  10.877 -0.0063 -0.1891  0.1560
  151MOL0     O20309   6.791   6.280  10.896 -0.5254 -0.4081 -0.7272
  151MOL0     C20310   6.689   6.304  10.801 -0.3812 -0.7601  1.1398
  151MOL0     C20311   6.598   6.178  10.781  0.1389 -0.6516  0.4207
  151MOL0     C20312   6.482   6.208  10.684 -0.0431  0.6489  0.8008
  151MOL0     C20313   6.408   6.081  10.646  0.5220 -0.3038  0.4251
  151MOL0     C20314   6.486   5.961  10.611 -0.2425 -0.3522  0.3755
  151MOL0     C20315   6.548   5.864  10.575 -0.6691  0.6276  0.3739
  151MOL0     C20316   6.918   6.467  10.810 -0.0408 -0.4479 -0.9211
  151MOL0     C20317   7.031   6.545  10.811  0.0083 -0.3308 -0.3410
  151MOL0     H20318   7.322   6.817  10.979  0.2752  0.5704  0.6137
  151MOL0     H20319   7.454   6.966  11.098  2.0685 -0.1017 -1.3157
  151MOL0     H20320   7.883   6.833  11.152  0.6737 -0.7727 -0.1303
  151MOL0     H20321   7.885   7.001  11.210  0.1952  0.9635  4.0444
  151MOL0     H20322   7.822   6.934  11.427 -1.9335 -1.4084  1.6385
  151MOL0     H20323   7.779   6.766  11.367 -2.2255  0.5661 -1.5817
  151MOL0     H20324   7.972   6.776  11.486 -1.1134  0.3696  0.2440
  151MOL0     H20325   7.982   6.704  11.326 -0.5849  0.7745 -1.2657
  151MOL0     H20326   8.096   6.870  11.231 -2.4772  0.9016 -0.4298
  151MOL0     H20327   8.117   6.972  11.375 -0.3079 -0.2785 -0.5606
  151MOL0     H20328   8.253   6.698  11.319  0.6510 -3.0077  5.1837
  151MOL0     H20329   8.330   6.855  11.321  0.8950 -1.1961 -0.2440
  151MOL0     H20330   8.288   6.850  11.572 -1.2220  0.3735 -1.2918
  151MOL0     H20331   8.189   6.695  11.539 -0.4514 -0.6647 -1.5448
  151MOL0     H20332   8.379   6.573  11.479 -0.6820  1.9573 -3.1572
  151MOL0     H20333   8.473   6.719  11.481  0.8984 -2.9796  0.9846
  151MOL0     H20334   8.401   6.751  11.735  1.2374 -0.8605  1.5750
  151MOL0     H20335   8.530   6.652  11.684  0.5379  3.2788 -0.9459
  151MOL0     H20336   8.445   6.382  11.686 -0.1426 -3.2495  2.2109
  151MOL0     H20337   8.301   6.187  11.743 -0.0005  0.2270 -0.9911
  151MOL0     H20338   8.204   6.194  11.889  2.4544 -1.7284 -0.1794
  151MOL0     H20339   8.114   6.203  11.603  0.4100 -2.0562 -0.5838
  151MOL0     H20340   7.990   6.237  11.720 -1.5846 -0.5321  0.1366
  151MOL0     H20341   7.967   6.010  11.622  1.0818  0.9766 -0.7760
  151MOL0     H20342   7.977   5.998  11.796 -0.9656 -0.8580 -1.4675
  151MOL0     H20343   8.205   5.929  11.782 -2.8858  1.0728  2.0535
  151MOL0     H20344   8.209   5.956  11.603 -0.3639 -1.4400 -0.8960
  151MOL0     H20345   7.990   5.565  11.682  2.4403  1.4277  0.2857
  151MOL0     H20346   7.944   5.353  11.436  1.8173  1.1138  0.6702
  151MOL0     H20347   7.891   5.380  11.601 -1.7951 -1.5700  0.7410
  151MOL0     H20348   7.772   5.395  11.472  0.4289 -2.1835  0.3410
  151MOL0     H20349   7.541   5.474  11.178 -1.8387 -0.2607 -1.6637
  151MOL0     H20350   7.391   5.438  10.985 -1.0751  0.8779  2.3973
  151MOL0     H20351   7.284   5.415  10.815 -0.2840 -0.0186 -0.1052
  151MOL0     H20352   7.221   5.577  10.841 -3.5371 -0.4234 -3.0613
  151MOL0     H20353   7.119   5.422  10.659  0.6254 -1.5638  2.2408
  151MOL0     H20354   7.151   5.584  10.604 -2.1630 -3.1982 -0.8592
  151MOL0     H20355   7.346   5.363  10.551  0.5607 -0.0608 -0.0363
  151MOL0     H20356   7.354   5.535  10.494  0.8807 -0.1349  2.1041
  151MOL0     H20357   7.100   5.381  10.433 -0.4694 -0.3912  0.8934
  151MOL0     H20358   7.178   5.520  10.364  1.2282  0.5804  3.0790
  151MOL0     H20359   7.186   5.339  10.201  1.5410  0.6272  0.0988
  151MOL0     H20360   7.268   5.237  10.330 -1.3350 -0.2433  0.6448
  151MOL0     H20361   7.357   5.474  10.171  0.2305  1.5501  2.8680
  151MOL0     H20362   7.443   5.429  10.312  1.1319  0.8639 -1.4888
  151MOL0     H20363   7.391   5.219  10.107  0.7634 -4.1649  2.7436
  151MOL0     H20364   7.531   5.235  10.227 -0.4839 -0.0712  0.0637
  151MOL0     H20365   7.610   5.263   9.993 -0.5462 -1.0229 -0.9224
  151MOL0     H20366   7.613   5.427  10.062 -0.0951  0.7040 -0.6070
  151MOL0     H20367   7.620   5.712  10.749 -0.8505  1.1086  0.6731
  151MOL0     H20368   7.778   5.754  10.966  0.2169 -0.3937 -0.5411
  151MOL0     H20369   7.900   5.819  11.266  0.1378 -0.3982 -0.9035
  151MOL0     H20370   8.048   5.924  11.441 -1.0389  0.0136  2.1210
  151MOL0     H20371   7.748   6.656  11.163  2.0350  2.1192 -2.2046
  151MOL0     H20372   7.611   6.497  11.060  1.5729  0.7367  1.7408
  151MOL0     H20373   7.233   6.327  10.983 -1.1228 -4.1152 -1.4986
  151MOL0     H20374   7.021   6.209  10.994 -0.9736 -0.4752  0.3006
  151MOL0     H20375   6.631   6.395  10.819 -1.0749 -1.2630  1.5182
  151MOL0     H20376   6.736   6.323  10.704  1.9188  0.9596  2.4692
  151MOL0     H20377   6.563   6.170  10.884  1.7515  0.8890  1.1369
  151MOL0     H20378   6.661   6.091  10.756  1.0753 -0.4350  1.9197
  151MOL0     H20379   6.529   6.251  10.594  0.0305 -0.0330  0.5096
  151MOL0     H20380   6.405   6.273  10.727 -1.3222 -0.8684  0.8592
  151MOL0     H20381   6.347   6.113  10.561 -2.0898  1.1199  2.6862
  151MOL0     H20382   6.344   6.065  10.733  1.2072  0.3201  1.0544
  151MOL0     H20383   6.610   5.787  10.532  0.9819  1.5580  0.9811
  151MOL0     H20384   6.829   6.520  10.776 -2.8095 -2.3925  2.6410
  151MOL0     H20385   7.037   6.636  10.752 -0.7604 -1.5998 -2.4810
  152MOL0     O20386   7.266   6.144  10.817  0.0213  0.1317  0.1029
  152MOL0     C20387   7.208   6.075  10.728  0.5139  0.5945  0.8576
  152MOL0     O20388   7.119   5.981  10.754 -0.4919 -0.9844  0.2053
  152MOL0     C20389   7.083   5.945  10.884  1.0334  0.1236  0.0130
  152MOL0     C20390   7.173   5.904  10.975 -0.4224 -0.1649 -0.3449
  152MOL0     C20391   7.127   5.867  11.099 -1.0114 -0.0607 -0.8997
  152MOL0     C20392   6.991   5.863  11.127  0.4581 -0.0041  0.4318
  152MOL0     O20393   6.953   5.817  11.246  0.7494 -0.3108 -0.4057
  152MOL0     C20394   6.820   5.837  11.309 -0.7028  0.6806  0.1106
  152MOL0     C20395   6.810   5.705  11.393 -0.5399  0.1059  0.2073
  152MOL0     C20396   6.689   5.703  11.485  0.6210  0.2884 -0.2533
  152MOL0     C20397   6.708   5.713  11.633 -0.5388  0.9004  0.0489
  152MOL0     C20398   6.781   5.590  11.696  0.0454 -0.3392 -0.1850
  152MOL0     C20399   6.842   5.639  11.824 -0.2904  0.5430  1.0248
  152MOL0     C20400   6.883   5.524  11.922 -0.5319  0.5473 -0.3704
  152MOL0     C20401   6.957   5.575  12.049  0.0615  0.6502  0.2002
  152MOL0     N20402   6.999   5.477  12.148 -0.2789 -0.2209  0.0239
  152MOL0     C20403   7.089   5.373  12.121 -0.1883  0.0563 -0.0833
  152MOL0     C20404   7.109   5.310  12.236 -0.5727  0.8596  0.3904
  152MOL0     C20405   7.198   5.185  12.269  0.4636 -0.0292 -0.9305
  152MOL0     C20406   7.098   5.065  12.268 -0.1654 -1.1335  0.5344
  152MOL0     C20407   7.135   4.949  12.359  0.0801  1.2990  0.3145
  152MOL0     C20408   7.283   4.916  12.322  0.6053  0.2348  0.7047
  152MOL0     O20409   7.292   4.781  12.362  0.3029 -0.0994  0.1987
  152MOL0     C20410   7.413   4.734  12.378 -0.9285  0.4318  0.2438
  152MOL0     C20411   7.507   4.783  12.471  0.8602  0.2162 -0.0413
  152MOL0     C20412   7.626   4.730  12.504 -0.2624 -0.6343  0.4507
  152MOL0     C20413   7.713   4.795  12.613 -0.0360 -0.3942 -0.2005
  152MOL0     C20414   7.662   4.607  12.436  0.7150  0.9097  0.2477
  152MOL0     C20415   7.790   4.538  12.454  0.7546  0.5371  0.4748
  152MOL0     O20416   7.817   4.437  12.365 -0.1440 -0.8240  0.0673
  152MOL0     C20417   7.938   4.371  12.375 -0.5467  0.1529 -0.1028
  152MOL0     C20418   7.947   4.239  12.430 -0.1105  0.2248  0.4021
  152MOL0     C20419   8.065   4.163  12.428  0.4027  0.7275  0.3532
  152MOL0     C20420   8.189   4.215  12.387  0.8306 -0.6482  0.2125
  152MOL0     O20421   8.298   4.139  12.394 -0.0203  0.4438  0.2802
  152MOL0     C20422   8.414   4.190  12.324 -0.0160 -1.5206  0.5427
  152MOL0     C20423   8.545   4.120  12.385  0.3523 -0.4458  0.3194
  152MOL0     C20424   8.664   4.148  12.288  0.2513  0.7889 -0.9831
  152MOL0     C20425   8.783   4.058  12.331 -0.1163  0.5791 -0.7550
  152MOL0     C20426   8.899   4.082  12.232 -0.3121 -0.0072 -1.0692
  152MOL0     C20427   8.961   3.942  12.207 -0.0205  0.1286 -0.5403
  152MOL0     C20428   9.064   3.947  12.092 -0.1125 -0.5460  0.9511
  152MOL0     C20429   9.188   3.861  12.093 -0.3808 -0.0549 -0.3660
  152MOL0    Cl20430   9.242   3.846  11.922 -0.1773  0.6549  0.0683
  152MOL0     C20431   8.178   4.349  12.334 -0.2186 -0.0761  0.1695
  152MOL0     C20432   8.061   4.424  12.339  0.7014  0.0047  0.1799
  152MOL0     O20433   7.871   4.565  12.544 -0.8209  0.1451  0.2611
  152MOL0     C20434   7.566   4.561  12.335 -0.8079  0.1869 -0.2319
  152MOL0     C20435   7.446   4.620  12.308  0.6627  0.4953 -0.3830
  152MOL0     N20436   7.031   5.385  12.321  1.5810  0.0225 -0.9928
  152MOL0     N20437   6.963   5.481  12.276 -0.0120  0.7372 -0.5692
  152MOL0     C20438   6.900   5.928  11.039 -0.0032 -0.0148  0.8753
  152MOL0     C20439   6.949   5.961  10.921 -0.2961  0.0221 -0.1710
  152MOL0     C20440   7.253   6.074  10.593  0.2594 -1.3199 -0.1384
  152MOL0     C20441   7.365   6.151  10.547  0.0815  0.0090 -0.2467
  152MOL0     C20442   7.399   6.149  10.418 -0.5246  0.1920 -1.1603
  152MOL0     C20443   7.322   6.101  10.316 -0.0991 -0.2022 -0.3775
  152MOL0     O20444   7.357   6.098  10.186  1.2157  0.4223 -0.0329
  152MOL0     C20445   7.477   6.157  10.133  0.0626 -0.3358 -0.6684
  152MOL0     C20446   7.451   6.310  10.111  0.0291 -0.5556  0.0493
  152MOL0     C20447   7.551   6.379  10.013 -1.2034  0.4177 -1.1704
  152MOL0     C20448   7.515   6.513   9.949  0.4801 -0.0497 -0.7636
  152MOL0     C20449   7.460   6.606  10.051  0.7428  0.4119  0.4909
  152MOL0     C20450   7.426   6.689  10.134 -0.5707  0.0514  0.7003
  152MOL0     C20451   7.203   6.037  10.356 -0.5626 -0.6655 -0.5092
  152MOL0     C20452   7.170   6.025  10.493 -0.3413 -0.3220  0.9149
  152MOL0     H20453   7.278   5.886  10.953  0.0821  1.9352  0.1436
  152MOL0     H20454   7.193   5.833  11.178 -0.8845  1.6564 -0.2253
  152MOL0     H20455   6.803   5.927  11.368 -0.5182  1.5966 -1.1901
  152MOL0     H20456   6.747   5.853  11.229 -0.9069 -0.7814 -0.0265
  152MOL0     H20457   6.805   5.615  11.330 -1.9321  0.3993 -0.1500
  152MOL0     H20458   6.906   5.692  11.443  1.7134  0.8441 -3.5451
  152MOL0     H20459   6.621   5.785  11.462 -0.8404 -0.2775  1.7447
  152MOL0     H20460   6.636   5.614  11.449  0.7360  0.4729 -0.8803
  152MOL0     H20461   6.772   5.800  11.650 -0.5120  1.5854 -2.9371
  152MOL0     H20462   6.611   5.717  11.683 -2.0338 -1.3407 -2.3844
  152MOL0     H20463   6.704   5.514  11.714 -0.4007  0.2089  0.2835
  152MOL0     H20464   6.854   5.553  11.624  2.6260  0.6700  1.7310
  152MOL0     H20465   6.937   5.687  11.799 -0.7915  1.8442  1.5473
  152MOL0     H20466   6.772   5.710  11.870  1.3490  2.7623  0.2728
  152MOL0     H20467   6.798   5.456  11.939  0.5395 -0.4763  1.1428
  152MOL0     H20468   6.961   5.456  11.888  2.3401  2.4457  1.9519
  152MOL0     H20469   6.890   5.638  12.108 -0.6615  0.2543 -0.1765
  152MOL0     H20470   7.047   5.630  12.021  0.2344  1.7040  2.5826
  152MOL0     H20471   7.142   5.344  12.032 -0.6527 -0.2636 -0.2598
  152MOL0     H20472   7.280   5.169  12.199  1.9672  0.3732  0.6732
  152MOL0     H20473   7.242   5.200  12.368  1.4378  2.3435 -1.6587
  152MOL0     H20474   7.096   5.036  12.162  0.9292  2.8251 -0.7751
  152MOL0     H20475   6.997   5.093  12.299  0.6310 -1.2870  3.5549
  152MOL0     H20476   7.072   4.861  12.344  1.6157  0.4614 -1.6069
  152MOL0     H20477   7.137   4.986  12.462 -0.1924  0.3649  0.6577
  152MOL0     H20478   7.358   4.976  12.374  0.2972  1.1053  0.1688
  152MOL0     H20479   7.290   4.917  12.212  0.3423  1.0615  0.6965
  152MOL0     H20480   7.474   4.860  12.540  0.0592 -1.5047  1.5982
  152MOL0     H20481   7.806   4.834  12.572 -0.4079  1.6149  0.7617
  152MOL0     H20482   7.656   4.882  12.645  0.7050  0.9330 -2.3344
  152MOL0     H20483   7.730   4.716  12.688 -0.5065 -1.8824 -1.5954
  152MOL0     H20484   7.855   4.204  12.478  0.2846  0.7109  1.5541
  152MOL0     H20485   8.061   4.062  12.468 -1.1955  1.2394  1.6238
  152MOL0     H20486   8.400   4.149  12.223  1.7485 -0.8723 -0.0011
  152MOL0     H20487   8.432   4.296  12.339  0.9872 -2.1611  5.9858
  152MOL0     H20488   8.564   4.166  12.482  0.2955  0.5661 -0.1372
  152MOL0     H20489   8.524   4.014  12.401 -1.4403  0.1702  2.4683
  152MOL0     H20490   8.688   4.254  12.281 -2.3263  1.4964 -0.1594
  152MOL0     H20491   8.642   4.115  12.186 -1.2782  2.1759 -1.1306
  152MOL0     H20492   8.815   4.087  12.432 -1.9963 -1.7503  0.6082
  152MOL0     H20493   8.744   3.956  12.334 -1.2336  0.9952 -0.6922
  152MOL0     H20494   8.980   4.141  12.275 -0.2523  0.0053 -1.1988
  152MOL0     H20495   8.879   4.135  12.138  1.8734  2.1926 -0.3808
  152MOL0     H20496   8.997   3.902  12.302 -0.8608  0.9255  0.1352
  152MOL0     H20497   8.881   3.875  12.176  1.0712 -0.9123 -1.1555
  152MOL0     H20498   9.100   4.049  12.075 -2.5164  0.0078 -1.6178
  152MOL0     H20499   8.999   3.923  12.007  0.1030 -1.8485  1.1428
  152MOL0     H20500   9.175   3.763  12.139  0.4988  1.1434  2.7272
  152MOL0     H20501   9.275   3.901  12.147 -0.1675  0.9748 -1.4155
  152MOL0     H20502   8.261   4.405  12.293 -1.1094  3.5779  2.9266
  152MOL0     H20503   8.071   4.516  12.283  4.2176  0.7130  1.6722
  152MOL0     H20504   7.600   4.482  12.268 -0.6430  0.1479 -0.1028
  152MOL0     H20505   7.380   4.581  12.231  2.8287 -0.6728 -1.7394
  152MOL0     H20506   6.794   5.941  11.056 -0.9168  0.5685 -3.9881
  152MOL0     H20507   6.873   5.989  10.849 -0.2030 -2.0190 -1.1146
  152MOL0     H20508   7.430   6.203  10.618  0.1316  3.1152 -2.3970
  152MOL0     H20509   7.494   6.197  10.395 -0.2245  0.9154  1.3215
  152MOL0     H20510   7.564   6.142  10.198  0.9486 -2.2760 -2.2208
  152MOL0     H20511   7.499   6.112  10.036 -1.9669 -1.0776 -0.8560
  152MOL0     H20512   7.430   6.361  10.205 -2.2068 -0.0157 -0.6948
  152MOL0     H20513   7.356   6.309  10.057 -0.5724 -1.9609  1.0784
  152MOL0     H20514   7.581   6.317   9.928 -1.1929  2.0590 -2.4119
  152MOL0     H20515   7.644   6.404  10.066 -2.4653  6.3461 -1.1060
  152MOL0     H20516   7.439   6.491   9.873  0.2043 -1.3820 -0.1460
  152MOL0     H20517   7.604   6.544   9.895  1.8973  0.5298  1.7587
  152MOL0     H20518   7.396   6.765  10.203 -1.8499  0.0844  0.1258
  152MOL0     H20519   7.139   5.996  10.279 -0.6927 -0.4997 -0.4908
  152MOL0     H20520   7.084   5.964  10.517 -0.4481  0.1043  1.6540
  153MOL0     O20521   3.490   7.130   2.166  0.1365  0.4001 -0.0349
  153MOL0     C20522   3.588   7.139   2.242  0.8076 -0.2732  0.0941
  153MOL0     O20523   3.582   7.190   2.365 -0.3411 -0.1673 -0.4831
  153MOL0     C20524   3.470   7.258   2.401  0.6121 -0.0091  1.4195
  153MOL0     C20525   3.442   7.380   2.331  0.6644  0.1083  1.3721
  153MOL0     C20526   3.335   7.462   2.367 -0.9524  0.1859  0.0863
  153MOL0     C20527   3.252   7.426   2.471 -0.6120 -0.9141  0.6051
  153MOL0     O20528   3.149   7.498   2.514  0.2734 -0.0871 -0.2950
  153MOL0     C20529   3.157   7.642   2.523 -0.3091  0.3040  0.2619
  153MOL0     C20530   3.026   7.685   2.577  0.6014 -0.4514  0.0646
  153MOL0     C20531   3.027   7.818   2.650  0.0106  0.3675 -1.3882
  153MOL0     C20532   3.034   7.948   2.564  0.0835  0.5952 -0.1321
  153MOL0     C20533   2.996   8.079   2.641  0.7797 -0.9585  0.6168
  153MOL0     C20534   3.078   8.114   2.770  0.4564  0.4008  0.9016
  153MOL0     C20535   3.235   8.127   2.760  0.1887 -0.5753  0.2150
  153MOL0     C20536   3.292   8.115   2.908  0.3160  0.7778  0.3214
  153MOL0     N20537   3.232   8.200   3.006  0.2012 -0.8176  0.3629
  153MOL0     C20538   3.239   8.332   3.006  0.3933 -0.2756  1.0005
  153MOL0     C20539   3.166   8.378   3.108  0.2779 -0.8656  0.8227
  153MOL0     C20540   3.118   8.516   3.134  0.5547 -0.2992  0.4968
  153MOL0     C20541   3.157   8.568   3.275  0.6360 -0.3681 -0.4968
  153MOL0     C20542   3.304   8.570   3.305  1.6634  0.1576 -0.3903
  153MOL0     C20543   3.345   8.646   3.440  0.2988 -0.6269 -0.2949
  153MOL0     O20544   3.345   8.790   3.419  0.3917 -0.5737  0.1572
  153MOL0     C20545   3.418   8.870   3.504 -0.1774 -0.8563  0.1081
  153MOL0     C20546   3.469   8.990   3.450 -0.7225  1.8088 -0.0170
  153MOL0     C20547   3.533   9.083   3.533 -0.4153 -0.9407  0.2585
  153MOL0     C20548   3.574   9.223   3.479 -0.1845 -0.2322 -0.2050
  153MOL0     C20549   3.547   9.048   3.672 -0.6329 -0.3413 -0.0095
  153MOL0     C20550   3.623   9.141   3.767  0.2502 -1.0441 -0.1619
  153MOL0     O20551   3.656   9.079   3.884 -0.0747 -0.5601  0.3927
  153MOL0     C20552   3.711   9.168   3.975 -0.4656 -0.5973  0.6302
  153MOL0     C20553   3.842   9.219   3.952 -0.2469 -0.1006 -0.2325
  153MOL0     C20554   3.891   9.311   4.039 -0.5642 -0.0722 -1.5620
  153MOL0     C20555   3.818   9.349   4.154  0.1309 -0.4020 -0.2676
  153MOL0     O20556   3.884   9.436   4.236  0.0374 -0.2293 -0.8786
  153MOL0     C20557   3.790   9.534   4.291 -0.4210 -0.3277 -0.5082
  153MOL0     C20558   3.875   9.650   4.326 -0.8364 -0.2575 -0.1558
  153MOL0     C20559   3.808   9.767   4.407 -0.4265 -0.5075 -0.7247
  153MOL0     C20560   3.742   9.734   4.542  0.3763  0.3059 -0.2371
  153MOL0     C20561   3.649   9.849   4.586  0.5167  0.1506  0.1735
  153MOL0     C20562   3.604   9.830   4.735  0.7571 -0.2631 -0.4907
  153MOL0     C20563   3.708   9.774   4.845 -0.0066 -0.0632  0.2998
  153MOL0     C20564   3.642   9.743   4.986  0.3668  0.2419 -0.1218
  153MOL0    Cl20565   3.550   9.595   4.980  0.4193 -0.5777 -0.2194
  153MOL0     C20566   3.690   9.293   4.176  0.8764  0.7155 -0.3882
  153MOL0     C20567   3.639   9.202   4.084 -0.5384  0.1508  0.1742
  153MOL0     O20568   3.642   9.255   3.743 -0.4059 -0.2801 -0.0029
  153MOL0     C20569   3.499   8.923   3.721  0.4414 -0.6133 -0.0735
  153MOL0     C20570   3.430   8.836   3.638  0.0500  0.7784  0.3105
  153MOL0     N20571   3.099   8.263   3.155  0.6881 -0.2670  0.1048
  153MOL0     N20572   3.140   8.158   3.092 -0.8380  0.5838  0.7943
  153MOL0     C20573   3.269   7.289   2.523  0.1473 -0.1952 -0.1728
  153MOL0     C20574   3.385   7.212   2.495  0.1526  0.7561  0.3427
  153MOL0     C20575   3.718   7.084   2.205  0.5075 -1.6907  0.7220
  153MOL0     C20576   3.819   7.049   2.302 -0.7714 -0.1252 -0.1950
  153MOL0     C20577   3.937   6.988   2.259  0.4572 -0.5421 -0.6075
  153MOL0     C20578   3.958   6.969   2.120  0.5662 -0.0121  0.2601
  153MOL0     O20579   4.075   6.931   2.073 -0.1508  0.0788  0.1524
  153MOL0     C20580   4.156   7.037   2.012 -0.1506  1.1085 -0.0723
  153MOL0     C20581   4.238   7.126   2.115  0.6733  0.6393 -0.1696
  153MOL0     C20582   4.333   7.220   2.035 -0.5608 -0.1195  0.3586
  153MOL0     C20583   4.272   7.311   1.920 -0.0524 -0.2355 -0.1636
  153MOL0     C20584   4.366   7.405   1.864 -0.4122  0.7960 -0.4713
  153MOL0     C20585   4.470   7.452   1.840 -0.5639 -0.4076 -0.9307
  153MOL0     C20586   3.856   7.002   2.030 -0.0031 -1.1457  0.2587
  153MOL0     C20587   3.738   7.060   2.071  0.4395  0.6883  1.1655
  153MOL0     H20588   3.500   7.415   2.245 -0.9602 -1.0137 -0.2589
  153MOL0     H20589   3.316   7.556   2.317 -0.8580 -0.2846 -0.8588
  153MOL0     H20590   3.237   7.668   2.593 -2.7614 -1.2408  3.9593
  153MOL0     H20591   3.172   7.684   2.423  1.9467 -2.0021 -0.4502
  153MOL0     H20592   2.950   7.678   2.499  0.9107 -3.1307 -0.1058
  153MOL0     H20593   2.981   7.609   2.642  0.5187 -2.8786 -2.6638
  153MOL0     H20594   2.932   7.826   2.704  0.3310 -1.8862 -0.4030
  153MOL0     H20595   3.110   7.811   2.720  0.4932 -0.0974 -2.0028
  153MOL0     H20596   3.133   7.951   2.518  0.4414 -2.3270  0.2757
  153MOL0     H20597   2.966   7.937   2.479 -0.7866  1.4365  0.4175
  153MOL0     H20598   3.006   8.164   2.574 -1.2373 -0.8373  0.3921
  153MOL0     H20599   2.891   8.071   2.671 -0.4833  3.2648 -1.9528
  153MOL0     H20600   3.045   8.214   2.798 -0.2296  1.1824 -2.3373
  153MOL0     H20601   3.052   8.046   2.852  2.2762  1.6229  2.5821
  153MOL0     H20602   3.275   8.051   2.692  0.4229  0.3575 -0.7119
  153MOL0     H20603   3.267   8.225   2.726  2.7713 -2.1054 -2.1310
  153MOL0     H20604   3.397   8.144   2.903 -0.0565  1.9592 -1.8939
  153MOL0     H20605   3.270   8.013   2.942 -0.8297  0.8756 -0.0802
  153MOL0     H20606   3.291   8.389   2.930 -0.8979 -1.2188 -0.6698
  153MOL0     H20607   3.138   8.580   3.047 -0.8113 -0.7448 -0.1878
  153MOL0     H20608   3.010   8.501   3.128  0.5055 -0.5497  1.7479
  153MOL0     H20609   3.104   8.506   3.347 -1.9723  0.4963 -1.5527
  153MOL0     H20610   3.122   8.671   3.282  0.3201 -0.5817  1.8635
  153MOL0     H20611   3.355   8.615   3.220  0.2817  1.7639 -0.4152
  153MOL0     H20612   3.334   8.467   3.325  0.5019 -0.2130 -0.4581
  153MOL0     H20613   3.445   8.613   3.471  1.0192  3.5827  2.8369
  153MOL0     H20614   3.269   8.629   3.517  1.0727 -1.0105  0.3913
  153MOL0     H20615   3.465   9.004   3.342 -1.1425  2.0934  0.0340
  153MOL0     H20616   3.546   9.309   3.540  2.0587 -0.7525  1.7162
  153MOL0     H20617   3.683   9.221   3.474 -0.2148 -1.2133 -0.7267
  153MOL0     H20618   3.534   9.223   3.377  0.4835 -1.1882 -0.4817
  153MOL0     H20619   3.891   9.193   3.859  2.5349 -1.6410  1.5168
  153MOL0     H20620   3.994   9.346   4.040 -1.1700  1.8649 -1.6774
  153MOL0     H20621   3.710   9.564   4.222  0.4330  1.1485 -0.8989
  153MOL0     H20622   3.752   9.493   4.385 -0.1287 -3.4792 -1.6223
  153MOL0     H20623   3.941   9.613   4.405 -2.6087 -0.1158  1.4826
  153MOL0     H20624   3.936   9.684   4.243  0.9524  0.6786  1.4730
  153MOL0     H20625   3.736   9.797   4.329  0.1976 -0.6023 -1.3435
  153MOL0     H20626   3.879   9.850   4.411 -2.9590  1.8081 -0.1262
  153MOL0     H20627   3.670   9.653   4.528 -0.6869  1.1680  0.0917
  153MOL0     H20628   3.822   9.709   4.613 -0.2081 -1.2653 -0.1001
  153MOL0     H20629   3.564   9.855   4.518  1.5292  0.7430 -1.0735
  153MOL0     H20630   3.701   9.944   4.570  0.1348  0.1920 -0.9426
  153MOL0     H20631   3.574   9.927   4.775  1.5451  1.0176 -2.8046
  153MOL0     H20632   3.511   9.773   4.733  1.4014 -1.3355 -0.8388
  153MOL0     H20633   3.784   9.853   4.852  0.7100 -0.8659  2.0363
  153MOL0     H20634   3.747   9.681   4.802  0.5978 -0.1638  1.0440
  153MOL0     H20635   3.567   9.818   5.014  0.6943  0.4411  0.2320
  153MOL0     H20636   3.721   9.742   5.061  2.7957  5.2039 -2.1227
  153MOL0     H20637   3.622   9.319   4.256  3.0907 -2.7973  2.9642
  153MOL0     H20638   3.535   9.173   4.094 -0.4537 -0.1834  0.0975
  153MOL0     H20639   3.494   8.908   3.828  0.8059 -1.1071 -0.1227
  153MOL0     H20640   3.374   8.749   3.671 -1.2274  1.4021 -0.1376
  153MOL0     H20641   3.196   7.257   2.597 -0.0722  4.6833  2.1432
  153MOL0     H20642   3.412   7.122   2.550 -0.7621  0.0740 -0.2994
  153MOL0     H20643   3.801   7.075   2.405 -0.3325 -1.6397  0.2878
  153MOL0     H20644   4.017   6.962   2.328  1.1270  0.6626 -0.8968
  153MOL0     H20645   4.224   6.982   1.947 -1.2550 -0.7787  0.3098
  153MOL0     H20646   4.088   7.090   1.945 -2.1079 -4.8730 -3.4797
  153MOL0     H20647   4.283   7.057   2.186 -1.5764 -1.9938 -1.0973
  153MOL0     H20648   4.168   7.192   2.167  0.0123  0.9144 -1.3619
  153MOL0     H20649   4.399   7.157   1.974  1.0055 -0.6066  2.4659
  153MOL0     H20650   4.403   7.270   2.102  1.2129 -1.9537 -0.0263
  153MOL0     H20651   4.196   7.365   1.978 -0.0408 -0.3714 -0.0212
  153MOL0     H20652   4.216   7.246   1.851  0.0706  0.6849 -1.1571
  153MOL0     H20653   4.557   7.509   1.812 -0.7708 -0.7540 -2.3670
  153MOL0     H20654   3.874   6.961   1.932  0.5146  0.8309 -0.5167
  153MOL0     H20655   3.662   7.059   1.994 -0.7462 -3.0034  2.1754
  154MOL0     O20656   2.521  11.505   7.565  0.4980 -0.4279 -0.5676
  154MOL0     C20657   2.483  11.444   7.472 -0.5966  0.0982  0.7535
  154MOL0     O20658   2.426  11.321   7.478  0.5910 -0.4566 -0.6294
  154MOL0     C20659   2.407  11.262   7.601  0.1273 -0.4309  0.1000
  154MOL0     C20660   2.307  11.301   7.698 -1.2722 -0.6523  0.6806
  154MOL0     C20661   2.279  11.218   7.806 -0.5400 -0.4498 -0.2805
  154MOL0     C20662   2.364  11.106   7.831  0.2020  0.7483  0.0910
  154MOL0     O20663   2.376  11.031   7.945 -0.6311  0.8337  0.0028
  154MOL0     C20664   2.371  11.091   8.075  1.3477  0.6064 -0.0840
  154MOL0     C20665   2.491  11.042   8.164 -0.3407 -0.3918  0.7972
  154MOL0     C20666   2.620  11.040   8.080  0.3854 -0.1698 -0.3897
  154MOL0     C20667   2.738  11.012   8.169  0.2034 -0.1237  0.3921
  154MOL0     C20668   2.859  11.045   8.073 -0.4423  0.6158  0.3069
  154MOL0     C20669   2.985  10.970   8.131  0.3952 -0.2225 -0.4250
  154MOL0     C20670   3.111  11.037   8.077  0.0540  0.2329  0.0227
  154MOL0     C20671   3.108  11.047   7.921 -0.0166 -0.1592  0.4777
  154MOL0     N20672   3.187  11.163   7.879 -0.3862 -0.8596  0.5046
  154MOL0     C20673   3.289  11.153   7.789 -0.5504 -0.6866  0.6626
  154MOL0     C20674   3.324  11.280   7.759 -0.2480  0.3406 -0.9721
  154MOL0     C20675   3.436  11.325   7.669  0.2650 -0.5447 -0.5441
  154MOL0     C20676   3.371  11.376   7.534 -0.3858 -0.4975 -0.2381
  154MOL0     C20677   3.473  11.381   7.407 -0.3727  0.4597 -1.8771
  154MOL0     C20678   3.559  11.249   7.377  0.1018 -0.7015  0.9306
  154MOL0     O20679   3.482  11.140   7.345 -0.3185 -0.2742  0.2842
  154MOL0     C20680   3.401  11.155   7.236  0.9305 -0.0281 -0.5201
  154MOL0     C20681   3.281  11.088   7.226 -0.4802 -0.2965 -0.2490
  154MOL0     C20682   3.204  11.073   7.109 -0.2516  0.3590  0.2143
  154MOL0     C20683   3.094  10.971   7.105  0.4820 -0.5391 -0.6286
  154MOL0     C20684   3.239  11.160   6.999 -0.2345 -0.3156  0.6068
  154MOL0     C20685   3.169  11.170   6.870 -0.7595  0.2160 -0.8745
  154MOL0     O20686   3.218  11.275   6.798 -0.2406  0.5007 -1.1204
  154MOL0     C20687   3.193  11.302   6.668 -0.1338  0.0172 -0.1246
  154MOL0     C20688   3.080  11.269   6.589 -0.6320  0.8363 -0.1776
  154MOL0     C20689   3.079  11.297   6.455 -0.1719 -0.3707  0.4273
  154MOL0     C20690   3.189  11.370   6.401 -0.4630  0.1465 -0.2692
  154MOL0     O20691   3.177  11.386   6.267 -0.5961  0.3604  0.1435
  154MOL0     C20692   3.285  11.438   6.189  0.1919 -0.3249 -0.2521
  154MOL0     C20693   3.410  11.351   6.181  0.5332  0.3027 -0.3051
  154MOL0     C20694   3.367  11.224   6.100  0.3090 -0.2083 -0.0317
  154MOL0     C20695   3.467  11.109   6.139  0.3833 -0.6144 -0.1329
  154MOL0     C20696   3.611  11.131   6.084  0.4975  0.1904 -1.0531
  154MOL0     C20697   3.709  11.013   6.099 -0.7264  0.6657  0.3005
  154MOL0     C20698   3.648  10.883   6.072  0.3547 -0.5313 -0.1999
  154MOL0     C20699   3.761  10.783   6.041  0.0199 -0.5312 -0.5352
  154MOL0    Cl20700   3.705  10.621   6.023 -0.1905  0.0994 -0.3014
  154MOL0     C20701   3.304  11.398   6.477  0.1816 -0.8044  0.8585
  154MOL0     C20702   3.299  11.365   6.608  0.2737 -0.8499  0.7353
  154MOL0     O20703   3.102  11.082   6.822  0.2699 -0.5830  0.2516
  154MOL0     C20704   3.350  11.247   7.012  0.6055 -0.1988  1.1471
  154MOL0     C20705   3.432  11.237   7.126  1.1832 -1.2522 -0.2648
  154MOL0     N20706   3.237  11.362   7.822  0.4324  0.0401 -0.6333
  154MOL0     N20707   3.163  11.294   7.901  0.5683 -0.0570 -0.4507
  154MOL0     C20708   2.468  11.069   7.738 -0.5048 -0.1242 -0.3544
  154MOL0     C20709   2.487  11.148   7.620  0.2727 -1.0476 -0.4469
  154MOL0     C20710   2.506  11.501   7.344  0.1394 -0.2055  0.2625
  154MOL0     C20711   2.588  11.614   7.338 -0.6355 -0.4125 -0.5497
  154MOL0     C20712   2.611  11.676   7.222  0.3422 -0.4026 -0.2867
  154MOL0     C20713   2.536  11.641   7.112 -0.2034 -0.3012 -0.2408
  154MOL0     O20714   2.539  11.708   6.997  0.1318  0.5590  0.1152
  154MOL0     C20715   2.613  11.837   6.989  0.3647 -0.1323 -1.3635
  154MOL0     C20716   2.628  11.886   6.845 -0.0976  0.5837  0.4955
  154MOL0     C20717   2.509  11.960   6.790 -0.2823 -0.9581 -0.8979
  154MOL0     C20718   2.395  11.868   6.765  0.1151  0.2229  0.0304
  154MOL0     C20719   2.414  11.782   6.645 -0.1505 -0.6323 -0.4183
  154MOL0     C20720   2.431  11.703   6.556  0.4338  1.2382  1.0402
  154MOL0     C20721   2.462  11.515   7.114  0.0877  0.5193  0.0755
  154MOL0     C20722   2.441  11.455   7.230 -0.5280  0.9116 -0.2007
  154MOL0     H20723   2.243  11.389   7.696  0.2444  0.5767  2.3453
  154MOL0     H20724   2.206  11.249   7.880  2.1819  0.9623  1.9433
  154MOL0     H20725   2.379  11.200   8.071  0.1793  0.6913 -0.8428
  154MOL0     H20726   2.284  11.046   8.123  0.6540  1.2666 -0.6983
  154MOL0     H20727   2.497  11.115   8.246 -1.7201 -0.8788  1.3700
  154MOL0     H20728   2.478  10.942   8.208 -5.4993 -0.1683  0.3812
  154MOL0     H20729   2.621  10.987   7.984  1.8722  0.5940 -0.8316
  154MOL0     H20730   2.637  11.140   8.038  0.7862 -0.5876 -1.2601
  154MOL0     H20731   2.745  11.071   8.261 -0.3261  1.3826 -0.5027
  154MOL0     H20732   2.744  10.904   8.184  2.0138  0.3465  4.4608
  154MOL0     H20733   2.837  11.017   7.970 -0.4384  0.5142  0.3328
  154MOL0     H20734   2.874  11.153   8.075 -2.2048  0.9062 -0.4738
  154MOL0     H20735   2.970  10.966   8.239 -1.6276  0.2475 -0.6475
  154MOL0     H20736   2.973  10.865   8.099  0.3222 -0.9043  1.6789
  154MOL0     H20737   3.106  11.135   8.126 -1.7412 -1.0917  2.7232
  154MOL0     H20738   3.202  10.981   8.100  1.2593  1.1039 -2.3264
  154MOL0     H20739   3.013  11.068   7.873  0.0730  1.3315  0.9100
  154MOL0     H20740   3.145  10.949   7.887 -2.0171 -0.7693 -0.0681
  154MOL0     H20741   3.331  11.059   7.754  1.3592 -0.4472  2.1585
  154MOL0     H20742   3.491  11.409   7.712 -2.7819  0.7761  1.0417
  154MOL0     H20743   3.497  11.239   7.641  1.4373  0.8369 -2.4444
  154MOL0     H20744   3.319  11.469   7.560 -1.7130 -1.1347 -0.5096
  154MOL0     H20745   3.285  11.313   7.509 -2.1628  1.7737 -0.2577
  154MOL0     H20746   3.543  11.464   7.421 -1.2863  1.0889 -0.8100
  154MOL0     H20747   3.407  11.401   7.322  0.4935  0.3635 -2.5823
  154MOL0     H20748   3.625  11.225   7.460  0.1967 -0.6742  0.8647
  154MOL0     H20749   3.622  11.278   7.292 -0.0272 -1.3441  0.6104
  154MOL0     H20750   3.258  11.021   7.308 -0.7393 -0.9040 -0.8048
  154MOL0     H20751   3.104  10.875   7.053  3.8941 -0.2586 -0.6834
  154MOL0     H20752   3.070  10.950   7.210  1.1185 -2.1870 -0.7797
  154MOL0     H20753   3.012  11.023   7.054  0.6754  0.5837  0.1632
  154MOL0     H20754   2.989  11.230   6.634 -0.9888  0.0801 -1.5028
  154MOL0     H20755   3.001  11.268   6.385  0.5120 -0.2188 -0.4089
  154MOL0     H20756   3.250  11.467   6.090  1.1676 -0.1366 -0.5589
  154MOL0     H20757   3.331  11.527   6.234 -1.5411  0.0664  0.8267
  154MOL0     H20758   3.494  11.393   6.125  0.2901 -2.3699 -2.9351
  154MOL0     H20759   3.441  11.325   6.282 -3.3877  0.2573  1.0674
  154MOL0     H20760   3.362  11.267   6.000  1.1533 -2.4154 -1.0903
  154MOL0     H20761   3.265  11.192   6.123 -0.7076  3.9578  2.3958
  154MOL0     H20762   3.467  11.094   6.247 -1.1141 -1.1164 -0.1685
  154MOL0     H20763   3.419  11.025   6.087 -2.4320  1.1769 -0.6907
  154MOL0     H20764   3.661  11.210   6.140  0.0734 -2.1897  3.0619
  154MOL0     H20765   3.607  11.163   5.979 -0.6790 -0.1450 -1.1235
  154MOL0     H20766   3.781  11.027   6.018  2.0630 -4.8540  1.3521
  154MOL0     H20767   3.742  11.018   6.203 -2.0245 -1.1272  0.8528
  154MOL0     H20768   3.584  10.897   5.984  0.2263 -0.9739 -0.1782
  154MOL0     H20769   3.597  10.851   6.163 -0.6104 -1.7276 -1.1235
  154MOL0     H20770   3.818  10.796   6.133 -1.4601 -1.2858  0.5249
  154MOL0     H20771   3.815  10.805   5.948 -1.7032  1.7349 -1.0903
  154MOL0     H20772   3.368  11.476   6.436 -2.5093  0.2459 -1.7190
  154MOL0     H20773   3.393  11.386   6.658  1.2034 -0.5895 -1.0317
  154MOL0     H20774   3.381  11.327   6.945 -1.1851 -0.5219 -0.1364
  154MOL0     H20775   3.521  11.298   7.113  0.7346 -0.3520  0.7315
  154MOL0     H20776   2.533  10.989   7.771 -1.3676  0.4682  3.2582
  154MOL0     H20777   2.560  11.127   7.543  1.6767 -0.4777  0.6723
  154MOL0     H20778   2.654  11.637   7.422  0.2581 -2.3720 -0.6705
  154MOL0     H20779   2.679  11.760   7.216  1.0765 -0.8432  1.3047
  154MOL0     H20780   2.586  11.922   7.053 -0.2971 -0.6914 -0.8779
  154MOL0     H20781   2.712  11.816   7.030  0.5738  1.0695 -1.2101
  154MOL0     H20782   2.639  11.793   6.788 -0.1217  2.1919 -2.3444
  154MOL0     H20783   2.714  11.953   6.839  0.3857 -0.1297 -1.3249
  154MOL0     H20784   2.535  12.018   6.701 -3.8682  2.3064 -0.0780
  154MOL0     H20785   2.476  12.046   6.849  0.9999 -0.5970 -0.6880
  154MOL0     H20786   2.310  11.936   6.751 -0.5365  0.0123  2.4332
  154MOL0     H20787   2.380  11.807   6.855 -2.3133 -0.6293 -0.8921
  154MOL0     H20788   2.427  11.640   6.469 -0.5805  2.4619  0.1650
  154MOL0     H20789   2.408  11.478   7.028  1.0850 -2.2291  0.5297
  154MOL0     H20790   2.375  11.369   7.231 -1.9379  1.8774  2.8150
  155MOL0     O20791  10.666   3.132   9.737 -0.0206  0.1851  0.8354
  155MOL0     C20792  10.712   3.058   9.825 -0.6026 -0.0550 -0.0936
  155MOL0     O20793  10.678   2.930   9.853  0.3450  0.7119 -0.8282
  155MOL0     C20794  10.590   2.876   9.769  0.5760 -0.6153 -0.4609
  155MOL0     C20795  10.639   2.790   9.672  1.0397  0.1184  0.1126
  155MOL0     C20796  10.553   2.732   9.575  0.4279  0.0782  0.1770
  155MOL0     C20797  10.423   2.782   9.577 -0.2740 -0.0180  0.2681
  155MOL0     O20798  10.330   2.744   9.486  0.0221 -0.5916  0.6921
  155MOL0     C20799  10.328   2.606   9.450  0.2322 -1.0937  0.2697
  155MOL0     C20800  10.345   2.593   9.301  0.2683  1.0944 -0.6136
  155MOL0     C20801  10.217   2.622   9.226 -0.7670  0.0159 -0.1108
  155MOL0     C20802  10.242   2.726   9.112 -1.2534  0.4673 -0.6877
  155MOL0     C20803  10.120   2.751   9.017  0.3287  0.7239 -1.4023
  155MOL0     C20804  10.125   2.858   8.918 -0.1301 -0.6444  0.2222
  155MOL0     C20805   9.990   2.887   8.878  0.0027  0.0233 -0.7163
  155MOL0     C20806   9.985   2.969   8.759 -0.1118  0.4130 -0.2675
  155MOL0     N20807  10.036   3.108   8.772 -0.2582  0.4127 -0.8714
  155MOL0     C20808   9.954   3.217   8.793 -0.1677 -0.0841 -0.3334
  155MOL0     C20809  10.027   3.327   8.760 -0.2760  1.4969  1.1170
  155MOL0     C20810   9.990   3.470   8.771  0.3501 -0.0718 -0.1804
  155MOL0     C20811  10.021   3.515   8.912  0.2942 -0.0024  0.5994
  155MOL0     C20812   9.984   3.665   8.922 -0.0289  0.1228  0.3585
  155MOL0     C20813   9.989   3.716   9.061 -0.2741 -0.3809 -0.8728
  155MOL0     O20814   9.865   3.687   9.123  0.9218 -0.2425  0.1424
  155MOL0     C20815   9.840   3.700   9.262  0.2175 -0.5710 -0.2817
  155MOL0     C20816   9.711   3.667   9.309 -1.0043  0.4862  0.3337
  155MOL0     C20817   9.681   3.681   9.450  0.1519  0.9230 -1.1539
  155MOL0     C20818   9.548   3.621   9.486 -0.1750 -0.9917 -0.0069
  155MOL0     C20819   9.780   3.716   9.541  0.0432 -0.1276  0.1310
  155MOL0     C20820   9.747   3.719   9.685  0.1280 -0.1105 -0.0735
  155MOL0     O20821   9.623   3.728   9.736 -0.1572  0.4982 -0.1085
  155MOL0     C20822   9.602   3.715   9.867 -1.1207 -0.0637 -0.8412
  155MOL0     C20823   9.522   3.616   9.922 -0.0219 -0.1647 -0.3044
  155MOL0     C20824   9.497   3.611  10.062 -0.4111  0.2789  0.1947
  155MOL0     C20825   9.550   3.704  10.147 -0.2214 -0.1255  0.0885
  155MOL0     O20826   9.512   3.700  10.276 -0.1954  0.5163 -0.4398
  155MOL0     C20827   9.529   3.579  10.349  0.9429 -0.4528 -0.4994
  155MOL0     C20828   9.532   3.632  10.502 -0.4590 -0.0820  0.3467
  155MOL0     C20829   9.530   3.518  10.609 -0.2484  0.2899  0.2240
  155MOL0     C20830   9.537   3.574  10.750 -0.9308 -0.6914  0.3963
  155MOL0     C20831   9.417   3.652  10.796 -0.5593  0.5124  0.4985
  155MOL0     C20832   9.442   3.706  10.940 -0.7212  0.2072  0.6232
  155MOL0     C20833   9.320   3.786  10.987  0.3587  0.0485 -0.9004
  155MOL0     C20834   9.315   3.803  11.143 -0.2443 -0.9930 -0.6635
  155MOL0    Cl20835   9.300   3.643  11.219  0.3880  0.3344 -0.1011
  155MOL0     C20836   9.628   3.810  10.101  0.5140 -0.1488  0.7532
  155MOL0     C20837   9.656   3.811   9.963 -0.1623 -0.1141 -0.5048
  155MOL0     O20838   9.851   3.729   9.752  0.1691  0.8223  0.7866
  155MOL0     C20839   9.907   3.744   9.492  0.6765  0.4094  0.0890
  155MOL0     C20840   9.940   3.737   9.355  0.1536 -0.4721 -0.1597
  155MOL0     N20841  10.144   3.281   8.714 -0.6163  1.1657  0.4209
  155MOL0     N20842  10.151   3.144   8.711  0.2588 -0.3559  0.4191
  155MOL0     C20843  10.372   2.876   9.666  0.3694  0.9034 -1.0555
  155MOL0     C20844  10.453   2.919   9.767 -0.0115 -0.1730  0.5637
  155MOL0     C20845  10.801   3.130   9.915  0.9081 -0.4715 -1.1942
  155MOL0     C20846  10.850   3.261   9.884 -0.0756  0.0181 -0.6140
  155MOL0     C20847  10.915   3.339   9.990  0.9171 -0.9774  0.7693
  155MOL0     C20848  10.923   3.288  10.120 -0.5066  0.5010 -0.8088
  155MOL0     O20849  10.965   3.355  10.226  0.5693  0.7287 -0.1561
  155MOL0     C20850  11.005   3.491  10.220  0.1817 -0.0936 -0.0204
  155MOL0     C20851  10.994   3.536  10.373 -0.3335  0.6217  0.1115
  155MOL0     C20852  11.120   3.497  10.444 -0.8729 -0.7743 -0.9423
  155MOL0     C20853  11.109   3.557  10.590 -0.1611 -0.5422 -0.6779
  155MOL0     C20854  11.219   3.505  10.678 -0.3166  0.1003  0.0167
  155MOL0     C20855  11.310   3.446  10.739 -0.0472 -0.2787  0.3271
  155MOL0     C20856  10.880   3.154  10.140  0.1955  0.3449 -0.7011
  155MOL0     C20857  10.823   3.075  10.039 -0.0510  0.1111 -0.7946
  155MOL0     H20858  10.740   2.755   9.689  0.4432 -0.0193  4.7182
  155MOL0     H20859  10.600   2.675   9.496  0.0180  0.9432 -0.7144
  155MOL0     H20860  10.407   2.552   9.503  0.3159 -0.4768  0.7846
  155MOL0     H20861  10.234   2.560   9.483  0.2460 -2.6032 -1.6331
  155MOL0     H20862  10.422   2.668   9.280  0.1074  0.9177 -1.9057
  155MOL0     H20863  10.384   2.494   9.272 -1.3959 -0.3643  1.7904
  155MOL0     H20864  10.180   2.525   9.193 -1.1633  0.0336  0.2677
  155MOL0     H20865  10.147   2.672   9.294 -0.2202  1.9500 -0.8892
  155MOL0     H20866  10.259   2.825   9.154 -1.1883  0.4957 -0.7814
  155MOL0     H20867  10.323   2.707   9.041 -0.8809  1.6642 -0.6092
  155MOL0     H20868  10.083   2.657   8.974 -0.0279  1.6327 -3.1719
  155MOL0     H20869  10.037   2.765   9.087 -0.4185 -5.3169 -0.5580
  155MOL0     H20870  10.152   2.954   8.963 -0.5332 -0.5235  0.2165
  155MOL0     H20871  10.191   2.829   8.836  0.9541  0.3934  0.6958
  155MOL0     H20872   9.945   2.788   8.864 -0.5020  0.3065 -1.1378
  155MOL0     H20873   9.945   2.942   8.961  0.1368 -2.7466  1.3320
  155MOL0     H20874   9.879   2.978   8.733 -1.5035 -2.0924  3.6195
  155MOL0     H20875  10.038   2.917   8.679 -0.2326  3.2841 -2.3826
  155MOL0     H20876   9.864   3.225   8.852 -2.2221  0.7506 -3.3547
  155MOL0     H20877  10.042   3.534   8.699  0.7257  1.1358  1.1251
  155MOL0     H20878   9.882   3.484   8.757  0.1768 -1.0459  0.0955
  155MOL0     H20879  10.128   3.511   8.935  0.7739 -1.7614 -1.6835
  155MOL0     H20880   9.970   3.458   8.990 -3.8587  1.3675 -0.8622
  155MOL0     H20881   9.882   3.683   8.885 -0.4470 -4.1080 -1.0893
  155MOL0     H20882  10.058   3.721   8.865  0.9490 -0.7719  0.7122
  155MOL0     H20883  10.014   3.822   9.064  3.3517 -1.1338  1.4410
  155MOL0     H20884  10.069   3.660   9.111  0.0346 -0.0017 -0.9438
  155MOL0     H20885   9.640   3.632   9.235  2.1669 -2.9836 -1.4203
  155MOL0     H20886   9.548   3.566   9.581 -1.7924 -0.8686  0.0941
  155MOL0     H20887   9.487   3.710   9.505  0.2592 -0.9872  1.5273
  155MOL0     H20888   9.505   3.556   9.409 -1.5833 -0.4375  0.2741
  155MOL0     H20889   9.470   3.536   9.871 -2.3061  0.9346  0.1664
  155MOL0     H20890   9.438   3.532  10.108  3.2574 -0.9106  3.4108
  155MOL0     H20891   9.441   3.514  10.338  0.1402  0.0710  2.1362
  155MOL0     H20892   9.618   3.523  10.319 -0.3072 -2.1003 -1.3374
  155MOL0     H20893   9.625   3.689  10.513  2.1271 -3.6882 -0.8945
  155MOL0     H20894   9.445   3.695  10.521  1.5169  2.0619  3.0082
  155MOL0     H20895   9.608   3.446  10.584 -0.0237  0.4654  0.4098
  155MOL0     H20896   9.443   3.453  10.595  2.3104 -3.1898 -0.8502
  155MOL0     H20897   9.549   3.497  10.826  3.2217 -2.2994 -1.5545
  155MOL0     H20898   9.629   3.631  10.767 -0.2054 -1.5929 -0.3547
  155MOL0     H20899   9.327   3.591  10.797 -0.5296  0.4700  1.0231
  155MOL0     H20900   9.403   3.741  10.733  2.2983  0.8851  0.2314
  155MOL0     H20901   9.455   3.616  10.999  3.9598 -0.5964 -1.1908
  155MOL0     H20902   9.533   3.769  10.940 -0.6584  0.1320  1.8360
  155MOL0     H20903   9.228   3.731  10.962 -0.0033  0.2414 -0.0173
  155MOL0     H20904   9.323   3.890  10.955  0.9893  0.5287  0.6345
  155MOL0     H20905   9.234   3.873  11.167  1.4562  0.9929 -0.4021
  155MOL0     H20906   9.409   3.850  11.172 -0.2497 -2.3740  1.7938
  155MOL0     H20907   9.659   3.883  10.175 -2.4052 -0.5196  2.5176
  155MOL0     H20908   9.728   3.884   9.927 -1.5187  0.3232 -2.5074
  155MOL0     H20909   9.980   3.773   9.567  0.1255  0.0465  0.7790
  155MOL0     H20910  10.043   3.754   9.325  0.7173 -1.3572  1.1720
  155MOL0     H20911  10.267   2.898   9.655 -0.6113 -2.8884 -0.8218
  155MOL0     H20912  10.410   2.993   9.834  2.1835  1.1280  0.6688
  155MOL0     H20913  10.834   3.305   9.786  0.1094  2.0545  0.2233
  155MOL0     H20914  10.937   3.445   9.976 -0.9955 -0.3741  1.8488
  155MOL0     H20915  11.109   3.502  10.189  1.4870  1.1539  4.2122
  155MOL0     H20916  10.948   3.552  10.149 -3.8109 -3.7866 -0.4146
  155MOL0     H20917  10.903   3.497  10.419 -0.5951  1.1070  0.0149
  155MOL0     H20918  10.998   3.644  10.388 -0.8681  0.6906 -0.2224
  155MOL0     H20919  11.216   3.519  10.396 -0.6711 -1.5372 -0.9061
  155MOL0     H20920  11.119   3.387  10.448 -2.5029 -0.7983  2.9956
  155MOL0     H20921  11.017   3.528  10.642  0.2278 -1.9374 -0.7152
  155MOL0     H20922  11.133   3.663  10.586  1.8082 -0.8901  0.5095
  155MOL0     H20923  11.401   3.398  10.769  0.1549 -1.5828 -2.1127
  155MOL0     H20924  10.875   3.103  10.236  0.7272 -1.8356 -1.7612
  155MOL0     H20925  10.784   2.976  10.063 -1.0550  0.8813  0.9604
  156MOL0     O20926   0.396   5.458   9.686  0.4955  0.5122 -0.1968
  156MOL0     C20927   0.511   5.496   9.684 -0.0335 -0.6825 -0.9284
  156MOL0     O20928   0.603   5.465   9.581  0.0693 -0.1137  0.5205
  156MOL0     C20929   0.564   5.394   9.471  0.5039  0.7201  0.1311
  156MOL0     C20930   0.491   5.275   9.475 -0.6201  0.2696 -0.5179
  156MOL0     C20931   0.484   5.195   9.368  1.6270 -0.4626 -0.1789
  156MOL0     C20932   0.532   5.231   9.244  0.2761  0.8625 -0.0642
  156MOL0     O20933   0.525   5.150   9.135  0.7913  0.4854  0.0464
  156MOL0     C20934   0.613   5.168   9.026 -0.5290 -0.0838 -0.0345
  156MOL0     C20935   0.594   5.050   8.931  1.4566  1.0642 -1.4207
  156MOL0     C20936   0.634   4.921   9.005  0.5710  0.6692  1.0116
  156MOL0     C20937   0.670   4.807   8.909 -0.4502 -0.5197  0.2639
  156MOL0     C20938   0.703   4.672   8.985  0.6117 -0.2665  0.8332
  156MOL0     C20939   0.575   4.614   9.057 -0.0060  0.0239 -0.7126
  156MOL0     C20940   0.580   4.461   9.058 -0.4812 -0.0764 -0.1378
  156MOL0     C20941   0.709   4.384   9.067 -0.0340 -0.0512 -0.9475
  156MOL0     N20942   0.812   4.430   9.157 -0.3122  0.4194  0.2275
  156MOL0     C20943   0.787   4.495   9.278 -0.4541  0.4099  0.7815
  156MOL0     C20944   0.898   4.556   9.305  0.2253 -0.0784  0.4413
  156MOL0     C20945   0.940   4.646   9.431 -1.0864 -0.0289  0.5626
  156MOL0     C20946   0.858   4.768   9.446 -0.8668  0.5521 -0.5414
  156MOL0     C20947   0.894   4.872   9.346 -0.7910  0.4521 -0.6875
  156MOL0     C20948   0.847   5.012   9.389 -0.0228  0.2527  0.7776
  156MOL0     O20949   0.879   5.108   9.290  0.3895  0.3722  0.0518
  156MOL0     C20950   0.908   5.238   9.330  0.0134  0.4153 -1.0265
  156MOL0     C20951   0.955   5.327   9.237  1.2295 -0.8744 -0.2341
  156MOL0     C20952   0.971   5.462   9.266  1.2948  0.8479  1.1531
  156MOL0     C20953   1.022   5.543   9.154  0.4389  0.4472 -0.3535
  156MOL0     C20954   0.948   5.500   9.403 -0.8086 -0.4715 -0.3378
  156MOL0     C20955   0.963   5.641   9.449  0.7509  0.3278 -0.5943
  156MOL0     O20956   0.915   5.736   9.360  0.5532  0.7007  0.7003
  156MOL0     C20957   0.949   5.870   9.367  0.1426  0.5574 -0.5768
  156MOL0     C20958   1.039   5.923   9.461 -0.6266 -0.0990  0.0086
  156MOL0     C20959   1.050   6.057   9.489  0.6162  0.2497  0.1131
  156MOL0     C20960   0.974   6.151   9.412  0.1828  1.0455  0.2184
  156MOL0     O20961   0.987   6.282   9.441  0.3222  0.6002 -0.6397
  156MOL0     C20962   0.864   6.353   9.404 -0.3043 -1.1586 -0.4140
  156MOL0     C20963   0.739   6.319   9.487  1.0361  0.2638  0.0108
  156MOL0     C20964   0.615   6.412   9.464 -0.1097 -0.1160  0.8759
  156MOL0     C20965   0.478   6.349   9.490 -0.8572  0.2641 -0.0878
  156MOL0     C20966   0.367   6.434   9.431 -0.6839 -0.0917  0.0895
  156MOL0     C20967   0.238   6.342   9.408 -0.0131  0.2722 -0.6279
  156MOL0     C20968   0.239   6.252   9.281  0.7327  0.3991 -0.0367
  156MOL0     C20969   0.116   6.167   9.272  0.9195 -0.0195 -0.4109
  156MOL0    Cl20970  -0.030   6.272   9.264  0.4744 -0.3179  0.3639
  156MOL0     C20971   0.907   6.097   9.299 -0.5703  0.5449  0.2599
  156MOL0     C20972   0.895   5.957   9.276 -0.4549 -0.2663  0.8230
  156MOL0     O20973   0.977   5.652   9.570 -0.6560  0.7002  0.2955
  156MOL0     C20974   0.892   5.411   9.495 -0.4222  1.2683 -0.5879
  156MOL0     C20975   0.870   5.278   9.458  0.3913  0.0711 -0.2923
  156MOL0     N20976   0.996   4.529   9.206  0.0301  0.0275  0.0305
  156MOL0     N20977   0.945   4.450   9.120  0.2103  1.0444  0.5091
  156MOL0     C20978   0.598   5.359   9.238  0.8708  0.1054  0.3850
  156MOL0     C20979   0.599   5.442   9.348  0.8399 -0.9888 -0.8761
  156MOL0     C20980   0.570   5.572   9.790  0.2955 -0.1816  0.7318
  156MOL0     C20981   0.692   5.623   9.775 -0.3408 -0.3563 -0.4698
  156MOL0     C20982   0.759   5.685   9.875 -0.6438  0.2504  0.7570
  156MOL0     C20983   0.715   5.678  10.009 -0.1143 -0.1055  0.3504
  156MOL0     O20984   0.783   5.736  10.114 -0.5808 -0.3131 -0.1481
  156MOL0     C20985   0.906   5.803  10.085 -0.4436  0.1213 -0.0807
  156MOL0     C20986   0.929   5.900  10.197 -0.2410  0.1353  0.0300
  156MOL0     C20987   0.948   5.838  10.335  0.5661  0.3005  0.7837
  156MOL0     C20988   0.978   5.945  10.439  0.0512 -0.0650  0.4195
  156MOL0     C20989   1.009   5.899  10.573 -0.0893 -0.3856  0.7667
  156MOL0     C20990   1.012   5.867  10.690 -0.2261  0.1483  0.9244
  156MOL0     C20991   0.594   5.604  10.029  0.2853 -0.1447  0.2213
  156MOL0     C20992   0.514   5.570   9.922 -0.0980 -0.2388  1.0014
  156MOL0     H20993   0.456   5.241   9.572  1.4686 -0.1195  0.1402
  156MOL0     H20994   0.434   5.098   9.373 -1.2315  0.9485  1.4364
  156MOL0     H20995   0.591   5.267   8.984 -0.0007  0.3391  0.6729
  156MOL0     H20996   0.718   5.166   9.055 -0.2385  0.6931 -0.9555
  156MOL0     H20997   0.487   5.052   8.911  1.7955  2.6880 -3.4310
  156MOL0     H20998   0.654   5.073   8.842  3.1532  1.0060 -0.3473
  156MOL0     H20999   0.715   4.938   9.077 -0.0711 -2.8661  2.8122
  156MOL0     H21000   0.551   4.876   9.060  1.5177 -1.5154  0.7616
  156MOL0     H21001   0.585   4.791   8.842 -1.5286 -2.2386  1.9443
  156MOL0     H21002   0.757   4.833   8.849 -1.3462  3.1596  0.3062
  156MOL0     H21003   0.745   4.606   8.908  0.9297  2.0146 -1.0502
  156MOL0     H21004   0.777   4.696   9.061  1.8063 -1.6389  0.1634
  156MOL0     H21005   0.571   4.647   9.161 -0.7746 -1.8363 -0.1094
  156MOL0     H21006   0.486   4.649   9.004  0.9114 -0.6734 -2.7981
  156MOL0     H21007   0.521   4.442   9.149  1.0844  1.1869  1.1862
  156MOL0     H21008   0.528   4.421   8.970  0.8298 -0.6573 -0.6777
  156MOL0     H21009   0.743   4.399   8.964  1.5924  2.5292 -0.1415
  156MOL0     H21010   0.709   4.277   9.086 -1.2976 -0.1377 -1.3088
  156MOL0     H21011   0.708   4.495   9.353  1.2211 -1.0165  2.6618
  156MOL0     H21012   0.936   4.585   9.522  2.8143  1.1233  1.7266
  156MOL0     H21013   1.046   4.669   9.413 -1.5101 -0.0132 -2.2845
  156MOL0     H21014   0.875   4.808   9.546 -1.1929 -2.8621  1.0452
  156MOL0     H21015   0.752   4.743   9.435 -0.2233 -1.8028 -2.3944
  156MOL0     H21016   0.852   4.843   9.249  2.0981 -1.8119 -1.3934
  156MOL0     H21017   1.002   4.887   9.347 -0.8803  1.4403  2.0583
  156MOL0     H21018   0.907   5.033   9.479 -1.0687 -1.3995  1.9233
  156MOL0     H21019   0.746   5.011   9.431  0.8700  0.6753  3.0942
  156MOL0     H21020   0.981   5.288   9.138  1.1767 -4.0448  0.8801
  156MOL0     H21021   1.087   5.486   9.086  1.5595  1.3754 -0.0934
  156MOL0     H21022   0.946   5.596   9.096  0.8502 -1.0332 -2.3477
  156MOL0     H21023   1.094   5.616   9.194 -0.3441 -0.3126  2.7367
  156MOL0     H21024   1.104   5.863   9.523  0.3929  1.6003  0.6709
  156MOL0     H21025   1.101   6.093   9.578  2.4676  1.9981 -1.5609
  156MOL0     H21026   0.885   6.458   9.425  0.0693 -1.2755 -0.1875
  156MOL0     H21027   0.845   6.347   9.297  0.9634  0.5046 -0.7771
  156MOL0     H21028   0.718   6.215   9.459  4.8640 -0.9078  0.8789
  156MOL0     H21029   0.775   6.322   9.590 -2.0803 -0.2697  1.2263
  156MOL0     H21030   0.621   6.439   9.358  0.8653 -3.7201 -0.1284
  156MOL0     H21031   0.621   6.505   9.522 -2.9061  3.6644 -4.0042
  156MOL0     H21032   0.471   6.252   9.440  0.7932 -0.2396  0.6103
  156MOL0     H21033   0.463   6.331   9.597  1.2072 -0.7968  0.0649
  156MOL0     H21034   0.408   6.462   9.333  3.0398  1.1361  1.8064
  156MOL0     H21035   0.358   6.524   9.492  1.0384  1.3265 -1.5989
  156MOL0     H21036   0.235   6.287   9.502  3.8129  2.5977  1.1315
  156MOL0     H21037   0.157   6.414   9.395 -0.5047 -0.1834 -0.1094
  156MOL0     H21038   0.325   6.184   9.288  0.0766 -0.4402  0.0732
  156MOL0     H21039   0.252   6.323   9.199  3.0122  1.5445  1.2308
  156MOL0     H21040   0.112   6.106   9.364 -0.4999  1.5370  0.6157
  156MOL0     H21041   0.113   6.095   9.189 -1.5941 -0.1441 -0.2861
  156MOL0     H21042   0.855   6.160   9.228 -0.7445 -0.8625 -0.9045
  156MOL0     H21043   0.838   5.913   9.195 -0.3399  0.3754  0.3861
  156MOL0     H21044   0.877   5.432   9.601  0.5975  0.1411 -0.1891
  156MOL0     H21045   0.819   5.232   9.542 -1.2791  2.0650 -0.1607
  156MOL0     H21046   0.650   5.397   9.151 -0.2757 -1.7003 -1.1724
  156MOL0     H21047   0.657   5.534   9.344 -0.5705 -0.1059 -2.4287
  156MOL0     H21048   0.744   5.624   9.680 -2.2638  0.1405 -1.5742
  156MOL0     H21049   0.842   5.740   9.832 -2.1808  0.0939 -2.7150
  156MOL0     H21050   0.985   5.727  10.085  0.1474  0.7236  0.3787
  156MOL0     H21051   0.893   5.870  10.000  1.2556  0.8624  0.2153
  156MOL0     H21052   0.840   5.964  10.198 -0.2010  0.4563 -3.8552
  156MOL0     H21053   1.009   5.972  10.181 -0.7568  1.1943  1.8937
  156MOL0     H21054   1.021   5.756  10.324  1.0149  0.9199 -1.3647
  156MOL0     H21055   0.862   5.790  10.382  0.2139 -0.1034 -0.2310
  156MOL0     H21056   0.893   6.013  10.447  1.6858  2.1588 -0.0448
  156MOL0     H21057   1.070   5.995  10.406 -1.2018  1.3159 -1.1573
  156MOL0     H21058   1.011   5.818  10.786  0.6291 -1.9939 -0.0834
  156MOL0     H21059   0.560   5.588  10.131 -0.4513  1.6710  0.2934
  156MOL0     H21060   0.422   5.515   9.937 -1.0987  0.1745 -2.7734
  157MOL0     O21061   2.551   4.423   4.573  0.2556  0.4152  0.1851
  157MOL0     C21062   2.453   4.445   4.646 -0.7058  0.0333  0.5877
  157MOL0     O21063   2.463   4.450   4.786  0.1595  0.3081  0.1589
  157MOL0     C21064   2.583   4.435   4.855 -0.7458  0.4199  0.0796
  157MOL0     C21065   2.676   4.334   4.817  0.7195 -0.2376  0.6446
  157MOL0     C21066   2.795   4.322   4.896  0.1721 -0.0026  0.4460
  157MOL0     C21067   2.811   4.401   5.009 -0.0412  0.7436 -0.5305
  157MOL0     O21068   2.920   4.367   5.095 -0.3118  0.7317  0.3770
  157MOL0     C21069   2.966   4.476   5.178 -0.0315  0.0241  0.5270
  157MOL0     C21070   3.119   4.441   5.211  0.0635 -0.3131 -0.1774
  157MOL0     C21071   3.192   4.557   5.280  0.7537 -0.1898  0.6929
  157MOL0     C21072   3.295   4.507   5.388 -0.1942  0.5375  0.2678
  157MOL0     C21073   3.325   4.621   5.482  0.5723 -0.5783 -0.0506
  157MOL0     C21074   3.433   4.583   5.585  0.0264 -0.2715  1.3130
  157MOL0     C21075   3.456   4.689   5.701  1.1400 -0.1989 -0.0187
  157MOL0     C21076   3.518   4.811   5.658  1.5323  0.4366  0.2672
  157MOL0     N21077   3.662   4.796   5.612 -0.5466 -0.2911  0.5232
  157MOL0     C21078   3.737   4.903   5.561  0.7223  0.6068  0.3753
  157MOL0     C21079   3.863   4.856   5.570 -0.0168  0.0496 -1.0295
  157MOL0     C21080   3.999   4.920   5.538  0.2130 -0.2267  0.0050
  157MOL0     C21081   4.124   4.832   5.538  1.0646  0.0716 -1.0100
  157MOL0     C21082   4.249   4.912   5.526  1.2481 -0.6982 -0.8476
  157MOL0     C21083   4.367   4.834   5.574 -0.1491 -1.4496 -0.1567
  157MOL0     O21084   4.477   4.927   5.581 -0.5455 -0.1640  0.1420
  157MOL0     C21085   4.588   4.888   5.654 -0.9200  0.3163  0.5833
  157MOL0     C21086   4.679   4.986   5.684 -0.7538 -0.4454 -0.6616
  157MOL0     C21087   4.794   4.953   5.753 -0.2273 -0.0076 -0.4472
  157MOL0     C21088   4.885   5.070   5.784 -0.3859  0.0359 -1.0639
  157MOL0     C21089   4.825   4.819   5.793  0.6415 -0.6602 -0.4993
  157MOL0     C21090   4.947   4.785   5.862  0.1074  0.6185  0.0763
  157MOL0     O21091   4.940   4.686   5.950  0.2863 -0.3814 -0.3667
  157MOL0     C21092   5.033   4.682   6.050 -0.6962 -0.6982  0.8919
  157MOL0     C21093   5.059   4.555   6.104 -0.0384 -0.2809  0.5269
  157MOL0     C21094   5.163   4.537   6.195 -0.4018  0.3291  0.5728
  157MOL0     C21095   5.248   4.639   6.229  0.0030  0.1081 -0.4734
  157MOL0     O21096   5.354   4.596   6.310 -0.1999 -0.0733  0.4881
  157MOL0     C21097   5.454   4.691   6.342  0.0549 -0.1465 -0.1384
  157MOL0     C21098   5.556   4.650   6.443 -0.5574 -0.2907 -0.4006
  157MOL0     C21099   5.495   4.578   6.571 -0.6395 -0.4528  1.1887
  157MOL0     C21100   5.590   4.530   6.670 -0.7118 -0.1764  0.3631
  157MOL0     C21101   5.518   4.498   6.797 -0.3715 -0.2961 -0.1780
  157MOL0     C21102   5.620   4.456   6.900 -0.6399 -0.3044  0.3457
  157MOL0     C21103   5.736   4.556   6.914 -0.4870 -0.3429 -0.3014
  157MOL0     C21104   5.828   4.533   7.037  0.7995  0.7656 -0.1847
  157MOL0    Cl21105   5.720   4.585   7.168  0.1928 -0.1276 -0.0453
  157MOL0     C21106   5.220   4.771   6.182  0.1843 -0.4124  0.2208
  157MOL0     C21107   5.124   4.783   6.083  0.2697 -0.1840 -1.2504
  157MOL0     O21108   5.051   4.818   5.813  0.4983  0.6457 -0.7594
  157MOL0     C21109   4.744   4.722   5.753 -0.0921 -0.1688  0.3269
  157MOL0     C21110   4.619   4.755   5.698 -0.5384  0.6920  0.4126
  157MOL0     N21111   3.863   4.725   5.622 -0.2702  0.2321 -0.3535
  157MOL0     N21112   3.747   4.690   5.648  0.2273  0.2848  0.5049
  157MOL0     C21113   2.716   4.496   5.048 -0.8721 -0.4350 -0.8743
  157MOL0     C21114   2.607   4.512   4.969  1.3470  0.0152 -0.3636
  157MOL0     C21115   2.318   4.463   4.591 -0.0143  0.4943 -0.4120
  157MOL0     C21116   2.286   4.463   4.456 -1.2145 -0.8762 -0.9017
  157MOL0     C21117   2.151   4.464   4.414 -0.1364 -0.5868  0.0494
  157MOL0     C21118   2.048   4.473   4.505  0.1601 -0.3598  0.8222
  157MOL0     O21119   1.917   4.469   4.470 -0.3230 -0.2859  0.1626
  157MOL0     C21120   1.870   4.456   4.338 -0.7422  0.6411  0.1868
  157MOL0     C21121   1.730   4.406   4.325  0.4171  0.5504  0.0365
  157MOL0     C21122   1.724   4.264   4.397  0.3727 -0.6897  0.6982
  157MOL0     C21123   1.742   4.157   4.289  0.5941 -0.0249  0.1425
  157MOL0     C21124   1.774   4.032   4.351 -0.6842  0.1072 -0.3133
  157MOL0     C21125   1.793   3.923   4.402 -0.3818 -0.9453 -0.2991
  157MOL0     C21126   2.082   4.469   4.640 -0.0120  0.2141  0.8163
  157MOL0     C21127   2.214   4.452   4.676  0.5516 -1.6500 -1.3325
  157MOL0     H21128   2.649   4.260   4.743 -1.9747  2.4235 -1.2991
  157MOL0     H21129   2.877   4.254   4.876  1.1835  0.2148  3.3467
  157MOL0     H21130   2.957   4.573   5.127  0.5220  0.4736  1.2512
  157MOL0     H21131   2.913   4.483   5.273 -2.7555 -1.2442 -0.7844
  157MOL0     H21132   3.126   4.352   5.275 -0.0092 -1.3190 -1.5206
  157MOL0     H21133   3.166   4.411   5.116  2.1911 -1.7977  1.2364
  157MOL0     H21134   3.244   4.610   5.200 -3.4961  3.3639 -0.0907
  157MOL0     H21135   3.121   4.626   5.325 -0.4037 -1.0491  0.2415
  157MOL0     H21136   3.250   4.427   5.448 -1.5320  2.5938  2.1678
  157MOL0     H21137   3.385   4.475   5.334 -1.6399 -0.2206 -1.8458
  157MOL0     H21138   3.360   4.710   5.428 -1.3551  1.0838  1.2552
  157MOL0     H21139   3.239   4.652   5.542  1.8191 -2.3402  2.9077
  157MOL0     H21140   3.404   4.487   5.629 -1.2010 -0.2158  0.6537
  157MOL0     H21141   3.524   4.567   5.526  1.4406 -0.3463  3.4140
  157MOL0     H21142   3.356   4.709   5.741  0.8856  0.9814 -1.1675
  157MOL0     H21143   3.510   4.643   5.783 -0.3380 -0.9647  0.5586
  157MOL0     H21144   3.518   4.875   5.747  3.3692 -0.9019  1.2992
  157MOL0     H21145   3.453   4.868   5.591 -0.2302 -3.0606 -1.2202
  157MOL0     H21146   3.700   5.003   5.540 -1.3524 -0.4358 -1.4091
  157MOL0     H21147   4.005   4.948   5.432  0.8458 -1.6419 -0.3661
  157MOL0     H21148   4.010   5.005   5.606  1.4850  0.1935 -0.7008
  157MOL0     H21149   4.129   4.773   5.446  0.1136 -0.5379 -0.6840
  157MOL0     H21150   4.122   4.774   5.632 -2.1012  1.7149  0.0876
  157MOL0     H21151   4.242   5.007   5.582  2.5920 -0.5940 -0.7998
  157MOL0     H21152   4.266   4.944   5.423 -0.4899  0.3247 -0.8499
  157MOL0     H21153   4.394   4.764   5.494  2.9158 -0.7087  0.1036
  157MOL0     H21154   4.357   4.778   5.667 -2.5745  1.3871  1.4844
  157MOL0     H21155   4.655   5.089   5.660  0.4631 -0.0106 -0.1469
  157MOL0     H21156   4.949   5.054   5.871  0.8370 -0.3944 -2.0064
  157MOL0     H21157   4.960   5.071   5.704  1.8153 -1.0372  0.8789
  157MOL0     H21158   4.827   5.160   5.803 -2.4481 -1.1900 -1.2408
  157MOL0     H21159   5.006   4.469   6.065 -1.8833 -0.2604  2.7514
  157MOL0     H21160   5.188   4.445   6.245  1.5620 -2.0612 -4.1537
  157MOL0     H21161   5.507   4.719   6.250  1.0637  0.4733  0.6095
  157MOL0     H21162   5.411   4.782   6.385  0.6005 -1.1000  2.6043
  157MOL0     H21163   5.617   4.571   6.399  1.0672  0.5024  0.3341
  157MOL0     H21164   5.617   4.739   6.461 -0.4220 -0.2343 -1.1077
  157MOL0     H21165   5.419   4.503   6.545 -1.3422 -0.2606  2.5996
  157MOL0     H21166   5.445   4.669   6.604  1.2232  1.0771  0.0027
  157MOL0     H21167   5.653   4.450   6.630  0.2638  1.0743 -0.6934
  157MOL0     H21168   5.651   4.620   6.687 -1.9061  0.6387  0.4992
  157MOL0     H21169   5.438   4.425   6.790 -0.4588 -0.0683 -1.8377
  157MOL0     H21170   5.471   4.591   6.831 -0.4382 -0.2175 -0.4849
  157MOL0     H21171   5.571   4.463   6.997 -0.6054 -1.0052  0.4186
  157MOL0     H21172   5.662   4.355   6.887  3.1151  1.3541 -2.1606
  157MOL0     H21173   5.691   4.656   6.914 -3.2957 -1.5165 -1.1191
  157MOL0     H21174   5.803   4.541   6.828 -2.6759 -1.7228 -1.8670
  157MOL0     H21175   5.923   4.586   7.033  1.8296 -1.0793 -1.9825
  157MOL0     H21176   5.854   4.427   7.048 -1.3138  0.1648 -0.4865
  157MOL0     H21177   5.278   4.861   6.195 -0.7050  0.0138  1.4665
  157MOL0     H21178   5.116   4.886   6.048 -1.5832  1.0413  2.2912
  157MOL0     H21179   4.767   4.617   5.771  1.3472  0.1112  0.2124
  157MOL0     H21180   4.566   4.666   5.666  1.1109 -0.2972  0.3200
  157MOL0     H21181   2.735   4.563   5.131  1.5269  1.4899 -2.8157
  157MOL0     H21182   2.528   4.581   4.996  0.1502 -1.2878 -0.4278
  157MOL0     H21183   2.371   4.436   4.394 -0.5956 -0.5688 -0.2025
  157MOL0     H21184   2.129   4.457   4.308 -3.2508 -3.7247  0.6986
  157MOL0     H21185   1.872   4.560   4.305 -0.5970  0.0738 -1.6835
  157MOL0     H21186   1.940   4.395   4.279 -0.1561 -0.4935  1.9539
  157MOL0     H21187   1.694   4.398   4.222  1.4677 -1.8554 -0.2227
  157MOL0     H21188   1.662   4.480   4.368 -0.6239  0.5549 -1.5197
  157MOL0     H21189   1.630   4.258   4.452  1.2878 -0.7476  2.2964
  157MOL0     H21190   1.801   4.255   4.473 -0.4007  2.6462  2.0154
  157MOL0     H21191   1.827   4.180   4.225  0.3665  1.6864  0.3992
  157MOL0     H21192   1.654   4.132   4.230  0.5456 -0.8068  0.5355
  157MOL0     H21193   1.807   3.823   4.437 -0.5168 -0.6365  0.6539
  157MOL0     H21194   1.995   4.462   4.705 -0.4397  0.5124  0.2870
  157MOL0     H21195   2.222   4.424   4.781  0.8458  1.5056 -0.3977
  158MOL0     O21196   6.286   1.866   5.902 -0.3549 -0.9242  1.2985
  158MOL0     C21197   6.182   1.883   5.959  0.3187 -0.3984  0.4326
  158MOL0     O21198   6.074   1.958   5.913  0.1008  0.7343 -0.4603
  158MOL0     C21199   6.079   1.985   5.779  0.5643  0.3200 -0.5609
  158MOL0     C21200   6.170   2.074   5.718  0.2164 -0.1371 -0.8212
  158MOL0     C21201   6.177   2.106   5.583  0.5970 -0.2045 -0.0333
  158MOL0     C21202   6.086   2.046   5.498 -0.6498  0.4652  0.9857
  158MOL0     O21203   6.095   2.068   5.359  0.3161 -0.9056 -0.1763
  158MOL0     C21204   6.208   2.137   5.306  0.1987 -0.0343 -0.1383
  158MOL0     C21205   6.340   2.047   5.307  0.4133 -0.4595  0.1399
  158MOL0     C21206   6.437   2.095   5.198  0.0765 -0.3087 -0.7066
  158MOL0     C21207   6.385   2.042   5.066 -0.1215  0.2815 -0.2792
  158MOL0     C21208   6.474   2.091   4.950  0.2103  0.5394 -0.3351
  158MOL0     C21209   6.453   2.012   4.823  0.0958 -0.5669 -0.5092
  158MOL0     C21210   6.504   1.873   4.829  0.3810 -1.0005 -0.4800
  158MOL0     C21211   6.656   1.863   4.837 -0.4608 -0.5454 -0.5072
  158MOL0     N21212   6.691   1.727   4.865  0.6289 -0.1424 -0.4889
  158MOL0     C21213   6.673   1.614   4.778 -0.7718  0.0731 -0.0079
  158MOL0     C21214   6.653   1.512   4.862 -0.3549  0.1330  0.2927
  158MOL0     C21215   6.607   1.375   4.829 -0.2198  0.7351 -0.3430
  158MOL0     C21216   6.717   1.266   4.849  0.4186  0.5728 -0.0208
  158MOL0     C21217   6.793   1.227   4.722  0.2447 -0.8261 -0.5660
  158MOL0     C21218   6.869   1.358   4.680  0.7062  0.6956  0.9225
  158MOL0     O21219   6.971   1.311   4.588  0.2854  0.5453 -0.1607
  158MOL0     C21220   7.097   1.293   4.633 -0.0298 -0.8152 -0.3516
  158MOL0     C21221   7.152   1.336   4.758 -0.1277  0.1542  0.5782
  158MOL0     C21222   7.293   1.329   4.778  0.2022  0.0485  0.0632
  158MOL0     C21223   7.326   1.392   4.910 -0.4151 -0.2188 -0.1174
  158MOL0     C21224   7.375   1.284   4.663  0.4810 -0.7072 -0.2967
  158MOL0     C21225   7.524   1.293   4.675  0.1659  0.4707  0.2797
  158MOL0     O21226   7.576   1.386   4.749  0.0431 -0.2168 -0.2910
  158MOL0     C21227   7.717   1.399   4.751 -0.0328  0.2750  0.9073
  158MOL0     C21228   7.810   1.412   4.646 -0.0648  0.5730  0.1653
  158MOL0     C21229   7.949   1.413   4.670 -0.8609  0.2888 -0.0645
  158MOL0     C21230   8.003   1.405   4.798 -0.5329 -0.3213  0.2128
  158MOL0     O21231   8.133   1.393   4.810 -0.0607 -0.8428  0.1326
  158MOL0     C21232   8.191   1.477   4.916  0.3929 -0.1503 -0.4879
  158MOL0     C21233   8.339   1.488   4.901  0.1697  0.6150  0.0292
  158MOL0     C21234   8.412   1.538   5.029 -0.0943 -0.4441  0.6347
  158MOL0     C21235   8.457   1.419   5.120  0.2532 -0.3597 -0.5059
  158MOL0     C21236   8.530   1.480   5.249  1.2401 -0.3426 -0.9515
  158MOL0     C21237   8.579   1.370   5.331  0.7447 -0.0401  1.4093
  158MOL0     C21238   8.690   1.416   5.425  0.5356  0.6949  0.6219
  158MOL0     C21239   8.749   1.309   5.519 -0.0739 -1.0491  0.0959
  158MOL0    Cl21240   8.890   1.389   5.603 -0.0937 -0.1396  0.0440
  158MOL0     C21241   7.914   1.406   4.907  0.5917 -0.6992 -0.3127
  158MOL0     C21242   7.774   1.401   4.882  0.1321  0.4590 -0.8940
  158MOL0     O21243   7.591   1.222   4.596 -0.8971  0.1337  0.1143
  158MOL0     C21244   7.313   1.243   4.547  0.0603 -1.0020  0.2008
  158MOL0     C21245   7.180   1.237   4.542 -1.1227 -0.1442 -0.0377
  158MOL0     N21246   6.675   1.550   4.992 -0.6104  0.6191  0.2315
  158MOL0     N21247   6.701   1.679   4.993 -0.1762 -0.1154 -0.2863
  158MOL0     C21248   5.989   1.957   5.547  0.1854 -0.1958 -0.5511
  158MOL0     C21249   5.993   1.923   5.688 -1.1865 -0.3355 -0.2202
  158MOL0     C21250   6.172   1.810   6.092 -0.4021  0.6310  0.0008
  158MOL0     C21251   6.276   1.722   6.124 -0.1536  0.9373 -1.0490
  158MOL0     C21252   6.257   1.637   6.235 -0.1058 -0.4947  0.3675
  158MOL0     C21253   6.135   1.648   6.316  1.0657 -0.0793 -1.1548
  158MOL0     O21254   6.121   1.550   6.411  0.3357 -0.1156 -0.4770
  158MOL0     C21255   6.058   1.427   6.364  0.3750 -0.5161 -0.4362
  158MOL0     C21256   5.979   1.366   6.493  0.2193 -0.2634  0.8449
  158MOL0     C21257   5.853   1.448   6.551 -0.4081 -0.2581 -0.9106
  158MOL0     C21258   5.719   1.397   6.489 -1.2052  0.6407 -1.4388
  158MOL0     C21259   5.690   1.468   6.368 -0.0038 -0.6132 -0.7649
  158MOL0     C21260   5.655   1.539   6.274 -0.2582  0.0784  0.5243
  158MOL0     C21261   6.039   1.734   6.274  0.5467  0.5168  0.3297
  158MOL0     C21262   6.051   1.811   6.160 -1.2057  0.3191  0.1272
  158MOL0     H21263   6.245   2.117   5.784 -1.2780  1.8344 -0.3087
  158MOL0     H21264   6.252   2.175   5.545  1.9712 -2.4719 -1.7301
  158MOL0     H21265   6.171   2.158   5.205  1.6690  1.7872 -0.3531
  158MOL0     H21266   6.234   2.235   5.348  0.3619 -0.5715  1.0292
  158MOL0     H21267   6.397   2.062   5.399  2.0630  1.1505 -1.0726
  158MOL0     H21268   6.315   1.942   5.290  0.6287 -0.2891 -1.3432
  158MOL0     H21269   6.445   2.204   5.202 -0.1822 -0.1286 -3.1647
  158MOL0     H21270   6.528   2.037   5.215 -0.6447 -1.2987 -0.1563
  158MOL0     H21271   6.375   1.933   5.064  0.3571  0.1580 -3.8776
  158MOL0     H21272   6.281   2.069   5.043  0.0645  3.2064  1.8072
  158MOL0     H21273   6.452   2.198   4.941  1.7726  1.3397  3.3138
  158MOL0     H21274   6.583   2.094   4.961  0.1011  0.8282  0.8264
  158MOL0     H21275   6.346   2.002   4.804 -0.1914 -2.8428  1.7176
  158MOL0     H21276   6.507   2.064   4.744  3.0935 -0.3582  1.5396
  158MOL0     H21277   6.466   1.822   4.917  1.0122 -1.0290 -0.2150
  158MOL0     H21278   6.467   1.824   4.739 -0.2499  0.8757 -1.2819
  158MOL0     H21279   6.684   1.917   4.928 -2.3384  0.9719 -0.7571
  158MOL0     H21280   6.701   1.903   4.746 -1.0077 -3.1798 -2.0527
  158MOL0     H21281   6.673   1.620   4.669 -1.8487 -1.0415 -0.0895
  158MOL0     H21282   6.515   1.343   4.879  0.0915  0.0381 -0.2061
  158MOL0     H21283   6.571   1.365   4.726 -3.0944  0.4466  0.5835
  158MOL0     H21284   6.668   1.175   4.884 -0.7661  0.7999 -1.0110
  158MOL0     H21285   6.782   1.298   4.931 -0.8541 -4.0900  3.1958
  158MOL0     H21286   6.721   1.197   4.645 -0.1378 -2.0700  0.2450
  158MOL0     H21287   6.864   1.146   4.740  0.2989 -0.6896 -0.1662
  158MOL0     H21288   6.913   1.407   4.768  2.2150  0.0434  0.5497
  158MOL0     H21289   6.802   1.426   4.627 -2.1929  0.4695  3.9269
  158MOL0     H21290   7.085   1.352   4.842 -0.6843 -0.5625  0.2851
  158MOL0     H21291   7.308   1.496   4.882 -1.9394 -0.6981 -1.0063
  158MOL0     H21292   7.254   1.365   4.988 -0.2948  1.3593  0.5766
  158MOL0     H21293   7.423   1.370   4.956 -0.4873 -0.6644 -0.1664
  158MOL0     H21294   7.776   1.407   4.543  0.6074 -2.3384 -0.0058
  158MOL0     H21295   8.025   1.432   4.595  0.5517  0.7383  1.3906
  158MOL0     H21296   8.145   1.576   4.925 -2.1442 -1.4184  2.3298
  158MOL0     H21297   8.164   1.424   5.008 -0.2643 -4.3138 -2.8069
  158MOL0     H21298   8.386   1.393   4.876  0.5689  1.1136 -1.1843
  158MOL0     H21299   8.368   1.555   4.819  1.2421 -0.6695 -0.6705
  158MOL0     H21300   8.355   1.613   5.086  0.2310  1.4833 -1.4591
  158MOL0     H21301   8.502   1.589   4.995 -1.6655  0.3768 -2.6307
  158MOL0     H21302   8.371   1.356   5.145 -0.1844 -0.4773 -2.1369
  158MOL0     H21303   8.534   1.363   5.065  1.7446 -0.3628  1.4664
  158MOL0     H21304   8.471   1.544   5.316  3.3724 -0.2730  0.9886
  158MOL0     H21305   8.612   1.537   5.203  1.8060 -0.3418  0.0338
  158MOL0     H21306   8.495   1.328   5.388  1.7731 -2.6324  1.1560
  158MOL0     H21307   8.611   1.297   5.256 -0.3315 -1.1244  1.9688
  158MOL0     H21308   8.650   1.492   5.492 -0.9763 -1.8340  2.8008
  158MOL0     H21309   8.765   1.463   5.361 -1.3747  5.5439  1.4937
  158MOL0     H21310   8.782   1.225   5.456  3.3916 -0.3855  0.8326
  158MOL0     H21311   8.676   1.268   5.589 -0.4005 -2.1039 -0.8223
  158MOL0     H21312   7.943   1.422   5.011 -3.1867 -1.3369  1.0290
  158MOL0     H21313   7.709   1.403   4.969  3.0275 -0.4636  1.4832
  158MOL0     H21314   7.372   1.207   4.463  0.9558 -0.5685  0.6200
  158MOL0     H21315   7.138   1.208   4.447 -1.5875  0.0123  0.1160
  158MOL0     H21316   5.905   1.917   5.492 -0.3738 -2.5133  1.7690
  158MOL0     H21317   5.923   1.855   5.736 -3.1549  2.6627  1.5019
  158MOL0     H21318   6.372   1.710   6.075 -0.2953 -0.6074 -1.0005
  158MOL0     H21319   6.333   1.565   6.262 -0.3155 -0.5856  0.7329
  158MOL0     H21320   5.988   1.449   6.283  1.6331  0.7034 -1.2395
  158MOL0     H21321   6.132   1.357   6.324  1.6802  3.1668 -5.5128
  158MOL0     H21322   6.055   1.350   6.570  1.3985  2.2113  0.3048
  158MOL0     H21323   5.950   1.264   6.466  1.9209 -0.4988 -0.2711
  158MOL0     H21324   5.865   1.556   6.551  2.1338 -0.4411  1.3999
  158MOL0     H21325   5.850   1.429   6.659 -2.9049  3.3555 -0.1775
  158MOL0     H21326   5.647   1.417   6.569  1.6201  0.4210  1.3610
  158MOL0     H21327   5.708   1.289   6.476 -0.6809  0.5155 -0.8957
  158MOL0     H21328   5.635   1.601   6.189  0.0911  2.7334  2.2622
  158MOL0     H21329   5.945   1.725   6.328  0.3673 -1.8711 -0.2615
  158MOL0     H21330   5.958   1.861   6.133 -0.7738  1.5376  0.7942
  159MOL0     O21331   4.428  10.375   8.905  0.3364 -0.4162 -0.1550
  159MOL0     C21332   4.375  10.384   9.020 -0.2001  0.9444  0.2174
  159MOL0     O21333   4.358  10.278   9.102 -0.2824  0.0133 -0.6585
  159MOL0     C21334   4.375  10.142   9.074  0.4582 -0.0924 -0.0194
  159MOL0     C21335   4.335  10.080   8.954  0.3776  0.1887 -1.2530
  159MOL0     C21336   4.363   9.940   8.938 -0.5637 -0.2052 -0.4129
  159MOL0     C21337   4.427   9.863   9.037  0.2707 -0.7915 -0.3043
  159MOL0     O21338   4.435   9.729   9.031 -0.0942 -0.6194  0.8453
  159MOL0     C21339   4.343   9.654   8.955  0.2248 -1.0140  0.4280
  159MOL0     C21340   4.402   9.601   8.820 -0.5002  0.8524 -0.4402
  159MOL0     C21341   4.519   9.507   8.851 -0.1616  0.8920 -0.3160
  159MOL0     C21342   4.484   9.364   8.912 -0.0767 -0.0872  1.0133
  159MOL0     C21343   4.534   9.256   8.818  0.4914  0.3914 -0.7269
  159MOL0     C21344   4.684   9.227   8.835  0.2844 -0.1685 -0.2890
  159MOL0     C21345   4.717   9.155   8.967  0.5937  0.3015 -0.0103
  159MOL0     C21346   4.864   9.112   8.979 -0.4653  0.3063 -0.1409
  159MOL0     N21347   4.903   9.004   8.881 -0.7356  0.3392 -0.7747
  159MOL0     C21348   4.862   8.874   8.905  0.2294 -0.2718 -0.5261
  159MOL0     C21349   4.963   8.796   8.854 -0.4886  0.5523  0.2421
  159MOL0     C21350   4.961   8.650   8.886  0.2006 -1.2479  0.4313
  159MOL0     C21351   4.954   8.559   8.767 -0.1002  0.6445  0.5441
  159MOL0     C21352   5.084   8.565   8.683  0.5880  0.3195 -0.0358
  159MOL0     C21353   5.091   8.447   8.584  0.2927  0.1475 -0.3871
  159MOL0     O21354   4.994   8.469   8.491 -0.2354  0.0640  0.5921
  159MOL0     C21355   5.039   8.442   8.361 -0.1589  0.3479 -0.8078
  159MOL0     C21356   5.056   8.540   8.266  0.8457 -0.6816  0.4567
  159MOL0     C21357   5.096   8.497   8.133 -0.0829  0.2331 -0.0163
  159MOL0     C21358   5.124   8.621   8.044  0.1978 -0.8681 -0.6119
  159MOL0     C21359   5.107   8.360   8.099 -0.2038  0.0135  0.2922
  159MOL0     C21360   5.131   8.301   7.964 -1.3588 -0.3121  0.9858
  159MOL0     O21361   5.148   8.378   7.845  0.1787  0.4237  0.6503
  159MOL0     C21362   5.215   8.312   7.738 -0.9479 -0.2542 -0.8033
  159MOL0     C21363   5.348   8.347   7.720 -0.0604  0.2468 -0.4334
  159MOL0     C21364   5.426   8.277   7.624  0.6147 -0.7736  0.1254
  159MOL0     C21365   5.362   8.198   7.533  0.1065  0.8064 -0.6949
  159MOL0     O21366   5.428   8.159   7.423 -0.4086 -0.0667  0.1059
  159MOL0     C21367   5.477   8.025   7.412 -0.2735 -0.4683  1.3456
  159MOL0     C21368   5.613   8.031   7.349 -0.8476 -0.3066  0.5744
  159MOL0     C21369   5.655   7.894   7.284  0.1109 -0.2689  0.3820
  159MOL0     C21370   5.680   7.792   7.390  0.1709 -1.0323 -0.4273
  159MOL0     C21371   5.752   7.667   7.345  0.4520 -0.8654 -0.2076
  159MOL0     C21372   5.738   7.547   7.441  0.6531 -0.0186  0.7827
  159MOL0     C21373   5.800   7.573   7.584 -0.3065 -0.5992  0.2149
  159MOL0     C21374   5.752   7.478   7.695  0.5424  0.3245  0.4133
  159MOL0    Cl21375   5.748   7.308   7.635 -0.3010  0.1440  0.4400
  159MOL0     C21376   5.226   8.171   7.542  0.4649  0.5041 -1.0316
  159MOL0     C21377   5.157   8.231   7.647  0.8078 -0.7919  0.1933
  159MOL0     O21378   5.153   8.175   7.960  0.0749 -0.3285  0.4921
  159MOL0     C21379   5.117   8.273   8.206 -0.2938 -0.4168 -0.3642
  159MOL0     C21380   5.081   8.310   8.334  0.3889 -0.3142  0.1820
  159MOL0     N21381   5.064   8.874   8.802  1.1688  0.6701 -0.3224
  159MOL0     N21382   5.034   9.000   8.836  0.9246  0.1493  0.2938
  159MOL0     C21383   4.471   9.934   9.149 -0.3725  0.0245 -0.0618
  159MOL0     C21384   4.453  10.068   9.165  0.8003 -0.4902 -0.6880
  159MOL0     C21385   4.321  10.520   9.061 -0.0499  0.6277  0.6549
  159MOL0     C21386   4.299  10.622   8.961  0.3434  0.0183 -0.2765
  159MOL0     C21387   4.242  10.747   8.993 -0.1235 -0.7612 -0.2794
  159MOL0     C21388   4.218  10.787   9.126 -0.4278 -0.3023 -0.3719
  159MOL0     O21389   4.158  10.907   9.161  0.0083 -0.6275 -0.0622
  159MOL0     C21390   4.212  10.953   9.286  0.7101 -1.0960  0.4806
  159MOL0     C21391   4.174  11.112   9.298  1.8892 -0.0639 -0.4217
  159MOL0     C21392   4.210  11.167   9.437 -0.4610  1.0176 -0.1793
  159MOL0     C21393   4.154  11.309   9.467 -1.2409 -0.2328  0.4010
  159MOL0     C21394   4.244  11.386   9.549 -1.0550  0.0729 -0.9315
  159MOL0     C21395   4.339  11.432   9.612  0.0932  0.1810  0.2494
  159MOL0     C21396   4.245  10.680   9.222  0.7899  1.1328 -0.6384
  159MOL0     C21397   4.289  10.558   9.187 -1.0263  0.7159 -0.2976
  159MOL0     H21398   4.292  10.138   8.873 -1.1040 -0.2966 -0.8540
  159MOL0     H21399   4.345   9.885   8.846  0.6997 -1.4987  0.0767
  159MOL0     H21400   4.311   9.567   9.012 -0.4360  0.3079  2.1402
  159MOL0     H21401   4.252   9.709   8.930  1.6728  1.3863  0.2077
  159MOL0     H21402   4.321   9.561   8.758  1.1978  1.6730 -3.3912
  159MOL0     H21403   4.451   9.682   8.765  1.4627  0.4932  0.6898
  159MOL0     H21404   4.581   9.505   8.761  0.5292 -0.4928  0.1621
  159MOL0     H21405   4.574   9.562   8.928  3.6219 -2.3202 -0.3985
  159MOL0     H21406   4.537   9.352   9.007 -0.2266 -4.4979  0.7244
  159MOL0     H21407   4.380   9.359   8.944 -0.0129  0.3699  1.3037
  159MOL0     H21408   4.469   9.173   8.847 -0.0366  1.2365  0.5953
  159MOL0     H21409   4.505   9.276   8.715  0.2277 -2.8378 -1.3893
  159MOL0     H21410   4.718   9.174   8.745  2.4958  2.9280 -1.4533
  159MOL0     H21411   4.736   9.323   8.845  0.0318  0.4354 -3.4634
  159MOL0     H21412   4.697   9.219   9.053 -0.5068 -3.0553  2.4401
  159MOL0     H21413   4.651   9.068   8.972  0.3488  0.5194  0.6846
  159MOL0     H21414   4.891   9.086   9.081 -2.5504  2.0520  0.9468
  159MOL0     H21415   4.925   9.200   8.954 -0.3444 -0.0967 -1.3357
  159MOL0     H21416   4.772   8.835   8.952 -2.0662  0.6698 -3.8276
  159MOL0     H21417   5.060   8.640   8.933 -0.9194 -3.0560  2.5910
  159MOL0     H21418   4.880   8.618   8.953 -0.9827 -1.3495 -1.0044
  159MOL0     H21419   4.870   8.547   8.697  2.9298 -2.9150 -3.0413
  159MOL0     H21420   4.961   8.456   8.802 -2.2944 -1.1682 -3.5851
  159MOL0     H21421   5.165   8.556   8.756 -1.8836  1.8373  3.1680
  159MOL0     H21422   5.085   8.663   8.635 -0.5798  1.6237  2.3807
  159MOL0     H21423   5.064   8.359   8.643 -0.6586 -0.8137 -2.1794
  159MOL0     H21424   5.193   8.430   8.549  0.1105 -3.1258  0.3847
  159MOL0     H21425   5.031   8.641   8.298 -1.4644 -0.8263 -0.7044
  159MOL0     H21426   5.183   8.598   7.954  1.9506  0.9484 -0.0094
  159MOL0     H21427   5.032   8.675   8.020  1.8246  1.0841 -3.0712
  159MOL0     H21428   5.187   8.691   8.101 -1.6054  0.9017 -0.6792
  159MOL0     H21429   5.383   8.431   7.780 -0.4584  0.9524 -1.1756
  159MOL0     H21430   5.532   8.290   7.608  0.6892 -1.4854 -0.0256
  159MOL0     H21431   5.475   7.969   7.506  2.2400 -2.1855  0.4906
  159MOL0     H21432   5.414   7.966   7.345  1.5848  0.4098 -1.3648
  159MOL0     H21433   5.620   8.104   7.268 -0.4005 -0.6198  0.3229
  159MOL0     H21434   5.688   8.057   7.423  0.9170  0.0348 -1.2403
  159MOL0     H21435   5.743   7.906   7.222 -0.6303 -2.6710 -1.2909
  159MOL0     H21436   5.576   7.869   7.213  2.0363  2.1922 -2.8798
  159MOL0     H21437   5.744   7.849   7.458  2.9052 -2.2676 -1.8256
  159MOL0     H21438   5.587   7.775   7.446  0.3298  1.3631  0.7173
  159MOL0     H21439   5.857   7.695   7.329 -0.5910  4.6256  0.5501
  159MOL0     H21440   5.703   7.644   7.250  0.6226  3.1176 -1.4371
  159MOL0     H21441   5.631   7.526   7.441  0.2908  1.5207 -0.9182
  159MOL0     H21442   5.790   7.458   7.404  0.8336  0.8232 -1.1306
  159MOL0     H21443   5.767   7.673   7.614  0.2926 -0.1592 -0.5480
  159MOL0     H21444   5.909   7.568   7.585 -0.1914  0.4368  3.2840
  159MOL0     H21445   5.652   7.501   7.733 -0.5697 -1.7886 -1.0187
  159MOL0     H21446   5.817   7.490   7.782 -1.6714  0.3111  2.1551
  159MOL0     H21447   5.178   8.103   7.472 -0.6345  2.5692 -2.3855
  159MOL0     H21448   5.050   8.222   7.666  0.0716 -0.0097 -3.0006
  159MOL0     H21449   5.142   8.168   8.197  3.3160  0.4131 -1.6725
  159MOL0     H21450   5.078   8.230   8.408  0.4700  1.0319  1.6937
  159MOL0     H21451   4.517   9.872   9.225  1.0279  0.5614 -0.4409
  159MOL0     H21452   4.493  10.107   9.259  2.9433  0.4737 -1.9222
  159MOL0     H21453   4.316  10.595   8.858  0.8925  1.0870 -0.4799
  159MOL0     H21454   4.216  10.821   8.918 -1.1521  1.9094  2.4779
  159MOL0     H21455   4.172  10.897   9.371  0.4780 -1.5356  0.0844
  159MOL0     H21456   4.320  10.934   9.292  0.3572 -2.9952  1.2195
  159MOL0     H21457   4.071  11.137   9.268  0.9191 -1.0827  1.7972
  159MOL0     H21458   4.229  11.170   9.224 -0.4088  0.8867 -1.5090
  159MOL0     H21459   4.318  11.161   9.453 -0.5308  3.7212  2.1691
  159MOL0     H21460   4.170  11.091   9.505  0.5415 -0.2398 -0.9469
  159MOL0     H21461   4.051  11.308   9.505 -1.8719  2.1859 -1.0187
  159MOL0     H21462   4.152  11.356   9.369  0.0766  1.7378  1.2571
  159MOL0     H21463   4.431  11.458   9.661  1.5705 -1.0589 -1.7044
  159MOL0     H21464   4.207  10.683   9.324 -2.8707  0.5194 -1.8563
  159MOL0     H21465   4.292  10.480   9.262 -0.7518 -1.6842 -2.6671
  160MOL0     O21466   7.326   6.506   5.347 -0.7779 -0.1399  0.1809
  160MOL0     C21467   7.319   6.629   5.349 -0.4520 -0.8852  1.1088
  160MOL0     O21468   7.421   6.715   5.364  0.6038  0.0408 -0.5062
  160MOL0     C21469   7.550   6.672   5.390  0.4255 -0.4819  1.0945
  160MOL0     C21470   7.650   6.753   5.361 -0.2266  0.8855 -1.1550
  160MOL0     C21471   7.788   6.722   5.392 -0.8095  0.3071 -0.3197
  160MOL0     C21472   7.819   6.611   5.467  0.7164 -0.2670 -0.4806
  160MOL0     O21473   7.948   6.573   5.496 -0.4399 -0.2108 -0.5409
  160MOL0     C21474   8.000   6.438   5.463 -1.0965  0.3069  0.4806
  160MOL0     C21475   8.094   6.412   5.584 -0.2036 -0.4324 -0.8057
  160MOL0     C21476   8.128   6.264   5.599 -0.5971 -0.1224  0.0584
  160MOL0     C21477   8.236   6.216   5.498  0.1286  0.8049  0.2039
  160MOL0     C21478   8.262   6.067   5.525  0.2423 -0.0184  0.1885
  160MOL0     C21479   8.412   6.018   5.484 -0.2387  0.0064 -0.3391
  160MOL0     C21480   8.422   5.861   5.505 -0.5959 -0.2838 -0.0949
  160MOL0     C21481   8.564   5.804   5.472  0.5573 -0.5312  0.3990
  160MOL0     N21482   8.674   5.836   5.579 -0.5022 -0.1161 -0.4442
  160MOL0     C21483   8.658   5.887   5.708  0.6219  0.5064  0.1063
  160MOL0     C21484   8.788   5.911   5.748 -0.6836  0.6696 -0.0588
  160MOL0     C21485   8.837   5.951   5.880 -0.7538 -0.5147 -0.3233
  160MOL0     C21486   8.975   6.023   5.890  0.2295 -0.0859 -0.1432
  160MOL0     C21487   8.989   6.158   5.813 -0.3075  1.0032 -0.7407
  160MOL0     C21488   9.008   6.142   5.668  0.2944 -0.1768 -0.2779
  160MOL0     O21489   9.111   6.225   5.607  0.5911 -0.2956 -0.1587
  160MOL0     C21490   9.124   6.253   5.468  0.2420  0.4642 -0.0145
  160MOL0     C21491   9.056   6.183   5.370  0.2400 -0.7458  0.9202
  160MOL0     C21492   9.059   6.218   5.234 -0.2068  0.6805 -0.2153
  160MOL0     C21493   8.975   6.131   5.146  0.1843 -0.3878  0.4239
  160MOL0     C21494   9.148   6.309   5.189 -0.4632 -1.1795  0.4006
  160MOL0     C21495   9.166   6.369   5.055  0.5144 -0.0098  0.3960
  160MOL0     O21496   9.277   6.453   5.037  0.7861  0.4263 -0.2255
  160MOL0     C21497   9.255   6.553   4.941  0.0284  0.6919  0.1514
  160MOL0     C21498   9.274   6.516   4.810 -0.4629  0.0858 -1.1678
  160MOL0     C21499   9.259   6.606   4.707  0.1501 -0.4239 -1.1581
  160MOL0     C21500   9.221   6.738   4.733  1.0444  0.7216  0.2019
  160MOL0     O21501   9.190   6.826   4.641  0.3198 -0.6322  0.7041
  160MOL0     C21502   9.274   6.821   4.516 -0.0578 -0.7596  0.9049
  160MOL0     C21503   9.253   6.945   4.426  0.8556  0.1059  0.4458
  160MOL0     C21504   9.322   6.949   4.286 -0.3801  0.7356 -0.3630
  160MOL0     C21505   9.456   6.865   4.278  0.2790  0.5073 -0.6733
  160MOL0     C21506   9.511   6.879   4.136  0.1485 -0.0674  0.1621
  160MOL0     C21507   9.442   6.793   4.022  0.8166 -0.2319  0.3709
  160MOL0     C21508   9.438   6.646   4.052 -0.1826  0.0282  0.3548
  160MOL0     C21509   9.582   6.590   4.090  0.0906  0.5989 -0.0319
  160MOL0    Cl21510   9.688   6.606   3.940 -0.1411  0.4019 -0.3262
  160MOL0     C21511   9.203   6.766   4.868  0.2010 -1.1299 -0.3790
  160MOL0     C21512   9.225   6.679   4.978  0.3836 -0.0963 -0.7427
  160MOL0     O21513   9.094   6.339   4.964  0.6541  0.3809 -0.6588
  160MOL0     C21514   9.235   6.363   5.289  0.0326  0.2766  0.3113
  160MOL0     C21515   9.226   6.338   5.427 -0.6549 -0.0419  0.5778
  160MOL0     N21516   8.872   5.890   5.638  0.3987  0.3907  0.5666
  160MOL0     N21517   8.799   5.855   5.535  0.2850  0.0692  0.6455
  160MOL0     C21518   7.711   6.527   5.497 -0.2348  0.2254  0.7307
  160MOL0     C21519   7.578   6.558   5.463  0.3313  0.2849 -0.3376
  160MOL0     C21520   7.189   6.693   5.298 -0.7697  0.0351 -0.0953
  160MOL0     C21521   7.065   6.624   5.280 -1.0233 -0.2327  0.2990
  160MOL0     C21522   6.945   6.687   5.237  0.3105 -0.7899 -0.4947
  160MOL0     C21523   6.945   6.821   5.210 -0.2366  0.6954  0.8653
  160MOL0     O21524   6.824   6.865   5.162  0.3302  0.5964  0.4105
  160MOL0     C21525   6.806   7.008   5.161 -0.9500  0.5151  0.6068
  160MOL0     C21526   6.666   7.028   5.091  0.5591  0.1284 -0.6883
  160MOL0     C21527   6.545   6.964   5.154  1.0290 -0.7069  0.7150
  160MOL0     C21528   6.409   6.992   5.089 -0.1078 -0.0274 -0.8309
  160MOL0     C21529   6.359   6.884   5.002 -0.6947 -0.8625 -0.9338
  160MOL0     C21530   6.308   6.815   4.930  0.3528 -0.1341 -0.0785
  160MOL0     C21531   7.065   6.894   5.225 -0.2661 -0.2941  0.8187
  160MOL0     C21532   7.183   6.833   5.271 -0.0581  0.4561 -0.2634
  160MOL0     H21533   7.628   6.853   5.322  3.0137  2.5890  0.9572
  160MOL0     H21534   7.864   6.793   5.363  0.7313  0.2688  3.1480
  160MOL0     H21535   7.934   6.352   5.452 -0.5536 -0.1548  0.7620
  160MOL0     H21536   8.065   6.449   5.376 -2.7670  3.5198 -0.5040
  160MOL0     H21537   8.190   6.465   5.574 -0.4698 -0.1990 -2.6603
  160MOL0     H21538   8.042   6.434   5.677  0.4628 -2.0123 -0.0338
  160MOL0     H21539   8.147   6.226   5.700 -3.5032  0.9724  1.1485
  160MOL0     H21540   8.044   6.198   5.574  0.6835 -1.5542 -0.6427
  160MOL0     H21541   8.209   6.227   5.392 -0.6656 -1.7245  0.0845
  160MOL0     H21542   8.321   6.279   5.525  0.9095  0.3034 -1.0106
  160MOL0     H21543   8.256   6.040   5.630  1.1126  1.7705  0.7472
  160MOL0     H21544   8.192   5.998   5.478  0.2834 -1.2884  1.8998
  160MOL0     H21545   8.435   6.033   5.378  3.7827  0.0655  0.4055
  160MOL0     H21546   8.490   6.070   5.540 -0.3200  0.4376 -0.6253
  160MOL0     H21547   8.387   5.834   5.605  0.1986 -1.2359 -0.0689
  160MOL0     H21548   8.350   5.817   5.435  0.4243  0.0003 -1.3482
  160MOL0     H21549   8.592   5.852   5.378 -0.2192 -3.6538 -1.5749
  160MOL0     H21550   8.562   5.695   5.456 -1.1038 -0.1043 -3.2647
  160MOL0     H21551   8.564   5.897   5.760  0.2255  0.4656 -0.5883
  160MOL0     H21552   8.764   6.002   5.944 -1.1037 -0.9680 -0.3575
  160MOL0     H21553   8.858   5.859   5.935  1.2066  0.9062  1.4430
  160MOL0     H21554   9.050   5.952   5.853  0.9273  1.3611 -1.6211
  160MOL0     H21555   8.989   6.037   5.998 -0.6975 -0.0567 -0.0200
  160MOL0     H21556   9.077   6.200   5.864 -0.1121 -3.9821  4.0603
  160MOL0     H21557   8.905   6.226   5.829 -1.4491 -0.7182  1.0803
  160MOL0     H21558   8.913   6.151   5.613  1.1886 -1.2060 -2.0834
  160MOL0     H21559   9.033   6.042   5.634 -0.1272 -0.6380  0.7319
  160MOL0     H21560   8.978   6.115   5.402  0.4125 -0.6275  1.5968
  160MOL0     H21561   8.944   6.046   5.207 -0.8492  1.7792  3.1396
  160MOL0     H21562   8.894   6.197   5.114  1.8861  2.4575  1.6057
  160MOL0     H21563   9.031   6.087   5.063 -1.3183 -2.1700  0.2675
  160MOL0     H21564   9.297   6.413   4.782  0.6051 -0.7224  2.2625
  160MOL0     H21565   9.260   6.567   4.606 -0.4547 -1.0166 -0.9459
  160MOL0     H21566   9.373   6.816   4.561  0.1470 -0.1618  0.5243
  160MOL0     H21567   9.269   6.731   4.455 -1.8226  1.0083 -1.7737
  160MOL0     H21568   9.149   6.950   4.393  0.8059  0.7907  0.7033
  160MOL0     H21569   9.284   7.035   4.480 -0.9089  0.7423  0.4377
  160MOL0     H21570   9.340   7.049   4.247  0.8363  1.3472  1.6711
  160MOL0     H21571   9.250   6.906   4.215  2.4551 -1.3897 -2.1663
  160MOL0     H21572   9.524   6.908   4.352 -1.8714  1.5627  0.8264
  160MOL0     H21573   9.440   6.760   4.305 -1.2496  0.4346 -1.7242
  160MOL0     H21574   9.620   6.871   4.137  0.2633  1.1047  2.1079
  160MOL0     H21575   9.506   6.987   4.119  1.4920  0.1069  0.7477
  160MOL0     H21576   9.341   6.835   4.014  1.6534  1.6790 -0.8302
  160MOL0     H21577   9.491   6.811   3.927  0.2868  2.2931  0.5252
  160MOL0     H21578   9.402   6.585   3.969 -1.1150  1.8456 -0.6347
  160MOL0     H21579   9.355   6.628   4.121 -2.1889 -1.7571 -2.3086
  160MOL0     H21580   9.573   6.485   4.121 -1.3765  0.2261 -1.5692
  160MOL0     H21581   9.629   6.655   4.164 -0.7593  3.2867 -1.6884
  160MOL0     H21582   9.169   6.866   4.895 -2.2182 -2.6945  3.0746
  160MOL0     H21583   9.220   6.710   5.082 -3.2466 -1.0223 -0.4990
  160MOL0     H21584   9.315   6.432   5.261 -0.0004 -0.2766 -1.2187
  160MOL0     H21585   9.296   6.383   5.498  1.7203 -0.4511 -1.3673
  160MOL0     H21586   7.718   6.444   5.567 -3.9061  0.0112  1.0197
  160MOL0     H21587   7.497   6.519   5.524  1.2944  3.0012  2.9531
  160MOL0     H21588   7.070   6.520   5.309  0.0689 -0.5008 -0.7646
  160MOL0     H21589   6.857   6.625   5.223 -0.6436  0.5695 -0.7061
  160MOL0     H21590   6.804   7.052   5.261 -0.3401 -0.5743  1.1218
  160MOL0     H21591   6.883   7.063   5.106  2.1076 -3.8585  0.0465
  160MOL0     H21592   6.675   6.981   4.993 -0.4369  1.6809 -1.5656
  160MOL0     H21593   6.652   7.135   5.071  3.8979  0.4831 -1.8932
  160MOL0     H21594   6.530   7.000   5.256 -3.0598 -2.6754  0.9840
  160MOL0     H21595   6.550   6.855   5.168 -2.3454 -0.7651  2.3350
  160MOL0     H21596   6.414   7.083   5.027 -2.7914  0.1804 -0.8366
  160MOL0     H21597   6.342   7.002   5.174 -0.1130 -1.7034 -0.6203
  160MOL0     H21598   6.271   6.748   4.854 -0.2536 -0.2096  0.2764
  160MOL0     H21599   7.069   7.000   5.202  0.2474 -0.1538  1.5194
  160MOL0     H21600   7.279   6.883   5.276 -1.5147  3.4492 -0.2601
  161MOL0     O21601   8.028   1.473   1.416 -0.4332  0.2116  0.5598
  161MOL0     C21602   8.108   1.396   1.350  0.8897 -0.1187 -0.3201
  161MOL0     O21603   8.092   1.341   1.226  0.5726 -0.4764 -0.4683
  161MOL0     C21604   7.984   1.392   1.150  0.6361  0.3970 -0.3022
  161MOL0     C21605   7.902   1.323   1.058  0.5524 -0.4196 -0.8822
  161MOL0     C21606   7.817   1.389   0.965 -0.2838  0.0130  0.0743
  161MOL0     C21607   7.796   1.526   0.974 -0.4220 -0.1805  0.1409
  161MOL0     O21608   7.701   1.575   0.891  1.0992 -0.0514  0.6988
  161MOL0     C21609   7.735   1.695   0.823  0.0290 -0.1241  0.1661
  161MOL0     C21610   7.695   1.666   0.678 -0.3275 -0.0697  0.1994
  161MOL0     C21611   7.719   1.783   0.585 -0.1562 -0.2122  0.5770
  161MOL0     C21612   7.855   1.848   0.598  0.0941  0.2720  0.8676
  161MOL0     C21613   7.850   1.979   0.533 -0.4047 -0.4981 -0.1756
  161MOL0     C21614   7.998   2.028   0.521 -0.0649 -0.0226  0.2002
  161MOL0     C21615   8.000   2.153   0.429 -0.4323  0.9457 -0.4184
  161MOL0     C21616   8.140   2.210   0.425  0.8220  0.3442 -0.2221
  161MOL0     N21617   8.245   2.138   0.360 -0.0799  0.2723 -0.2984
  161MOL0     C21618   8.340   2.061   0.418  0.6615  0.7320 -0.0015
  161MOL0     C21619   8.425   2.018   0.319 -0.1591 -0.6700 -0.0257
  161MOL0     C21620   8.536   1.916   0.320  0.6364 -0.3224 -0.7001
  161MOL0     C21621   8.636   1.962   0.424  0.7713 -0.0021 -0.2664
  161MOL0     C21622   8.765   1.874   0.409  0.4981  0.5011  0.1353
  161MOL0     C21623   8.740   1.724   0.424 -0.1520 -0.3470  0.1801
  161MOL0     O21624   8.684   1.707   0.553 -0.1726 -0.7412  0.1997
  161MOL0     C21625   8.705   1.583   0.598 -1.1363 -0.4928  0.1627
  161MOL0     C21626   8.696   1.569   0.729 -0.1055 -0.8296 -0.6569
  161MOL0     C21627   8.701   1.447   0.805 -1.2221  0.1533  0.6401
  161MOL0     C21628   8.678   1.456   0.953 -0.4979  0.5816 -0.9653
  161MOL0     C21629   8.758   1.334   0.743  0.3326 -0.6004 -0.5629
  161MOL0     C21630   8.787   1.208   0.806 -0.0504 -0.1066  1.3237
  161MOL0     O21631   8.809   1.101   0.720  0.3736  0.1199  0.9488
  161MOL0     C21632   8.800   0.973   0.753  0.3637  0.6595 -0.4674
  161MOL0     C21633   8.693   0.922   0.813 -0.1523 -0.3928  0.1247
  161MOL0     C21634   8.687   0.784   0.847 -0.0788 -0.1019 -0.3472
  161MOL0     C21635   8.796   0.698   0.814  0.6866  0.5280  0.0898
  161MOL0     O21636   8.807   0.566   0.855 -0.0536 -0.7483  0.0663
  161MOL0     C21637   8.706   0.518   0.940 -0.7091 -0.0784  0.0266
  161MOL0     C21638   8.735   0.367   0.948  0.1912  0.2833  0.5482
  161MOL0     C21639   8.626   0.306   1.035 -0.0586 -0.3794 -0.7131
  161MOL0     C21640   8.613   0.355   1.180 -0.8042  0.0745 -0.7020
  161MOL0     C21641   8.522   0.260   1.260 -1.0417 -0.2799  0.2345
  161MOL0     C21642   8.536   0.281   1.417  1.1291 -0.1321 -0.7868
  161MOL0     C21643   8.648   0.203   1.484  0.5071  1.1200  0.3727
  161MOL0     C21644   8.669   0.223   1.639  0.2363  0.3124 -0.4634
  161MOL0    Cl21645   8.516   0.168   1.723 -0.3464  0.1647  0.4079
  161MOL0     C21646   8.908   0.751   0.748  0.2975  0.4536  0.0138
  161MOL0     C21647   8.907   0.888   0.701 -0.1669 -1.1025 -0.0664
  161MOL0     O21648   8.791   1.199   0.927 -0.3836 -0.5886  0.4067
  161MOL0     C21649   8.769   1.344   0.604  0.5654  0.8189  0.5002
  161MOL0     C21650   8.741   1.465   0.533  0.7272  1.3769  0.7297
  161MOL0     N21651   8.388   2.092   0.208 -0.4010  0.2553 -0.1633
  161MOL0     N21652   8.281   2.157   0.233  0.4345 -0.0436 -0.0251
  161MOL0     C21653   7.869   1.594   1.065  0.3784  1.5723 -0.4051
  161MOL0     C21654   7.964   1.533   1.147  1.0354 -0.6148  0.0843
  161MOL0     C21655   8.212   1.329   1.436  0.1252  0.7777  0.6208
  161MOL0     C21656   8.205   1.348   1.577  1.2116  0.4887  0.2379
  161MOL0     C21657   8.298   1.281   1.650 -0.3759 -0.1663 -0.2650
  161MOL0     C21658   8.399   1.206   1.604  0.5561 -0.4755 -1.8735
  161MOL0     O21659   8.492   1.143   1.685 -0.1906  0.3897  0.0916
  161MOL0     C21660   8.511   1.199   1.816  0.0680  1.3424  0.3936
  161MOL0     C21661   8.638   1.150   1.889  0.9732  0.1695  0.6808
  161MOL0     C21662   8.674   0.994   1.879 -1.1520  0.3249 -0.0877
  161MOL0     C21663   8.558   0.918   1.942 -0.1298 -1.4732 -0.7914
  161MOL0     C21664   8.578   0.914   2.085 -0.6722  0.6166 -0.1633
  161MOL0     C21665   8.595   0.912   2.209 -0.0278 -0.0594  0.7079
  161MOL0     C21666   8.402   1.186   1.465  0.5209 -1.1741 -0.2134
  161MOL0     C21667   8.308   1.242   1.381 -0.5085 -0.1977  0.8436
  161MOL0     H21668   7.900   1.215   1.047 -3.6528 -0.4505 -1.4560
  161MOL0     H21669   7.756   1.325   0.902  1.6014 -1.3467 -0.4733
  161MOL0     H21670   7.683   1.784   0.859 -0.9602 -1.6080  2.6725
  161MOL0     H21671   7.842   1.708   0.842  0.1579 -1.8839  0.8270
  161MOL0     H21672   7.738   1.571   0.646 -0.0774 -0.9670  2.9632
  161MOL0     H21673   7.586   1.653   0.682 -0.9850  3.6985 -1.4516
  161MOL0     H21674   7.702   1.755   0.480  1.0818  3.6312 -0.8262
  161MOL0     H21675   7.642   1.858   0.607  0.5576 -0.0119  2.6159
  161MOL0     H21676   7.899   1.848   0.698  2.4989 -1.7886 -0.0830
  161MOL0     H21677   7.924   1.775   0.555 -0.5969  0.6188 -0.9020
  161MOL0     H21678   7.805   1.965   0.434 -1.8496 -0.3916  0.4519
  161MOL0     H21679   7.783   2.049   0.584 -0.4041 -0.4947 -0.1794
  161MOL0     H21680   8.043   2.052   0.618  0.5627 -1.8378  0.3987
  161MOL0     H21681   8.046   1.949   0.464 -3.1686 -0.6706 -1.7250
  161MOL0     H21682   7.981   2.125   0.325  1.8957  5.1811 -2.2645
  161MOL0     H21683   7.935   2.236   0.457 -0.9159 -0.0637  1.5540
  161MOL0     H21684   8.164   2.217   0.532 -0.3991  0.7635  0.0359
  161MOL0     H21685   8.126   2.312   0.387 -0.6050 -0.2170 -1.2618
  161MOL0     H21686   8.349   2.040   0.524 -2.6746 -0.9742  0.0465
  161MOL0     H21687   8.494   1.818   0.346  0.7063 -0.5716 -1.5053
  161MOL0     H21688   8.581   1.901   0.222  1.2871  1.4539 -0.7158
  161MOL0     H21689   8.607   1.962   0.529  0.1277  0.6492 -0.4356
  161MOL0     H21690   8.647   2.067   0.397 -4.5691  0.7514 -0.5255
  161MOL0     H21691   8.844   1.926   0.464  0.7961  1.0033 -0.7424
  161MOL0     H21692   8.792   1.878   0.303  2.2615 -0.0890  0.5391
  161MOL0     H21693   8.832   1.670   0.403 -0.2779  0.0440 -1.5370
  161MOL0     H21694   8.668   1.690   0.349 -0.8249 -0.2222  0.7573
  161MOL0     H21695   8.668   1.649   0.797  3.6222  0.7278 -0.7597
  161MOL0     H21696   8.780   1.451   0.992 -0.4179  2.4674 -0.8582
  161MOL0     H21697   8.642   1.555   0.984 -1.8969 -0.0810 -0.3473
  161MOL0     H21698   8.614   1.379   0.998 -0.6535  0.2844 -1.6792
  161MOL0     H21699   8.606   0.985   0.826  0.0846 -0.0166 -0.0915
  161MOL0     H21700   8.596   0.759   0.900  0.7318 -0.3859  0.9587
  161MOL0     H21701   8.688   0.575   1.031 -3.1947  0.3373 -0.6346
  161MOL0     H21702   8.612   0.543   0.888  0.5792  2.4248 -1.2497
  161MOL0     H21703   8.741   0.319   0.850 -0.0105  2.0770 -0.3880
  161MOL0     H21704   8.835   0.361   0.992  1.0972  4.6389 -0.4508
  161MOL0     H21705   8.623   0.197   1.043 -1.2910 -0.4266 -1.4400
  161MOL0     H21706   8.532   0.331   0.983 -0.7842 -2.2826 -0.3748
  161MOL0     H21707   8.711   0.366   1.227 -0.6835  1.6070 -1.2583
  161MOL0     H21708   8.572   0.455   1.197  0.1342  0.3003  0.3259
  161MOL0     H21709   8.547   0.155   1.242 -0.9976  0.1920 -2.9372
  161MOL0     H21710   8.420   0.272   1.223  0.0555 -1.0781 -3.3924
  161MOL0     H21711   8.555   0.386   1.441 -2.2935  0.0612  1.7933
  161MOL0     H21712   8.440   0.259   1.464  2.1367 -2.7264  0.2908
  161MOL0     H21713   8.737   0.236   1.430  0.7364 -1.2840 -0.8763
  161MOL0     H21714   8.631   0.096   1.465  0.5570  1.0757  0.5786
  161MOL0     H21715   8.681   0.328   1.668 -1.8835  0.4831 -0.0435
  161MOL0     H21716   8.760   0.169   1.668  1.8057  3.1107  0.2064
  161MOL0     H21717   8.991   0.685   0.725 -0.2219  0.5217 -2.2739
  161MOL0     H21718   8.981   0.937   0.639 -1.9646  2.2218  0.2086
  161MOL0     H21719   8.814   1.268   0.540  1.6997  1.3956  0.5721
  161MOL0     H21720   8.759   1.448   0.427 -4.2042 -4.1353  0.2494
  161MOL0     H21721   7.871   1.702   1.068  1.1076  1.6091 -1.4411
  161MOL0     H21722   8.038   1.597   1.193  1.7264 -1.7461  0.5818
  161MOL0     H21723   8.137   1.410   1.635  2.8311  0.3485  2.3886
  161MOL0     H21724   8.287   1.298   1.756 -1.7493 -1.4248 -0.1724
  161MOL0     H21725   8.536   1.305   1.806  0.5802  1.2737  0.8835
  161MOL0     H21726   8.418   1.189   1.872 -0.6565 -1.2551 -1.0780
  161MOL0     H21727   8.639   1.169   1.997  1.4458 -0.3418  0.7711
  161MOL0     H21728   8.727   1.198   1.845  0.3213  0.8297  0.0422
  161MOL0     H21729   8.773   0.976   1.921 -0.2597  2.0827 -1.3338
  161MOL0     H21730   8.687   0.971   1.773 -2.5336  0.5269 -0.3174
  161MOL0     H21731   8.560   0.815   1.905  0.2967 -1.9713  0.5361
  161MOL0     H21732   8.458   0.952   1.914  0.5478  0.5239 -0.9163
  161MOL0     H21733   8.618   0.901   2.313  1.4532 -2.0674  0.2249
  161MOL0     H21734   8.470   1.114   1.422  2.3439 -0.4285  1.2721
  161MOL0     H21735   8.314   1.207   1.279  1.4380  0.5609  0.6478
  162MOL0     O21736   4.673   7.242   1.403 -0.2853 -1.1703 -0.2297
  162MOL0     C21737   4.750   7.161   1.455  0.2771  1.2602 -0.0743
  162MOL0     O21738   4.707   7.036   1.509  0.5876 -0.4072 -0.1918
  162MOL0     C21739   4.573   7.007   1.515  0.2822 -0.6792 -0.7793
  162MOL0     C21740   4.541   6.872   1.497  0.1542 -0.8646  0.7193
  162MOL0     C21741   4.409   6.829   1.513  0.5155 -0.2201 -0.8318
  162MOL0     C21742   4.305   6.921   1.529 -0.0395 -0.5541  1.0201
  162MOL0     O21743   4.179   6.873   1.540  0.2279  0.0163  0.3251
  162MOL0     C21744   4.061   6.952   1.541 -0.1003  0.3264  0.7990
  162MOL0     C21745   3.941   6.872   1.589  0.0537 -0.2045 -0.3379
  162MOL0     C21746   3.926   6.729   1.523 -0.5392  0.8258 -0.2070
  162MOL0     C21747   3.787   6.664   1.517  0.1412  0.2739  0.1253
  162MOL0     C21748   3.706   6.672   1.644 -0.3365  0.2328  0.3149
  162MOL0     C21749   3.722   6.585   1.773 -0.5984  0.5888 -0.4999
  162MOL0     C21750   3.642   6.653   1.891 -0.4023 -0.3300 -0.2933
  162MOL0     C21751   3.710   6.604   2.021  0.0745 -0.6070  0.1074
  162MOL0     N21752   3.635   6.616   2.146  0.0046 -0.4794 -0.1642
  162MOL0     C21753   3.580   6.736   2.194  0.6804 -1.1341  0.6427
  162MOL0     C21754   3.527   6.702   2.311  0.0790 -0.0440 -0.0183
  162MOL0     C21755   3.465   6.794   2.411  0.5398 -0.1426  0.2396
  162MOL0     C21756   3.322   6.802   2.394  0.8115  0.0094  0.5775
  162MOL0     C21757   3.238   6.885   2.501 -0.5192  0.0138  0.2806
  162MOL0     C21758   3.103   6.833   2.522  0.1924 -0.5197  0.0420
  162MOL0     O21759   3.021   6.915   2.605  0.0172  0.2193 -0.6851
  162MOL0     C21760   2.960   7.038   2.561 -0.0916 -0.0094  0.7837
  162MOL0     C21761   2.889   7.117   2.654  1.4289  0.7468  0.6106
  162MOL0     C21762   2.836   7.248   2.628 -0.1472 -0.1525  0.4384
  162MOL0     C21763   2.772   7.313   2.745 -0.2376 -0.2628 -0.5880
  162MOL0     C21764   2.851   7.306   2.500 -0.5877  0.2101  0.4320
  162MOL0     C21765   2.795   7.438   2.450  0.2359 -0.7773 -0.1487
  162MOL0     O21766   2.784   7.451   2.317 -0.1485 -0.4356  0.0067
  162MOL0     C21767   2.716   7.566   2.279  0.6371  0.1209 -0.2842
  162MOL0     C21768   2.790   7.669   2.231 -0.1834 -0.7953 -0.0475
  162MOL0     C21769   2.721   7.773   2.173  0.1343  1.3115 -0.0103
  162MOL0     C21770   2.581   7.773   2.154  0.1256 -0.3650  0.2643
  162MOL0     O21771   2.525   7.888   2.114  0.1886 -0.0562  0.0189
  162MOL0     C21772   2.395   7.929   2.163 -0.0471 -0.5938  0.5503
  162MOL0     C21773   2.383   8.086   2.154  0.2430  0.5791 -0.5728
  162MOL0     C21774   2.324   8.139   2.029  0.7781 -0.6508 -0.6765
  162MOL0     C21775   2.299   8.292   2.036 -0.0011  0.4019 -0.1716
  162MOL0     C21776   2.201   8.335   1.928 -0.0200 -0.3082  0.7770
  162MOL0     C21777   2.276   8.334   1.792 -0.4445 -0.2889  0.6768
  162MOL0     C21778   2.203   8.404   1.670 -0.5261 -0.1930  0.4070
  162MOL0     C21779   2.135   8.536   1.697 -0.4027  0.6741  0.3598
  162MOL0    Cl21780   1.974   8.537   1.782  0.3923 -0.0493 -0.2756
  162MOL0     C21781   2.507   7.655   2.194 -0.0078  0.8348 -0.2252
  162MOL0     C21782   2.575   7.555   2.258  0.3912  0.1287 -0.1284
  162MOL0     O21783   2.757   7.525   2.529 -0.2164  0.4398  0.0311
  162MOL0     C21784   2.912   7.225   2.402 -0.0631  0.1846 -0.4141
  162MOL0     C21785   2.966   7.095   2.431  0.1794  0.4182 -0.2800
  162MOL0     N21786   3.545   6.568   2.327  0.4199  0.4258  0.1542
  162MOL0     N21787   3.602   6.517   2.223  0.4595 -0.1030 -0.4846
  162MOL0     C21788   4.337   7.055   1.550  0.1548 -0.2794  1.6303
  162MOL0     C21789   4.470   7.099   1.542 -0.5944  0.1777 -0.1289
  162MOL0     C21790   4.892   7.188   1.455  0.1006  0.4580  0.2721
  162MOL0     C21791   4.983   7.076   1.467  0.1595  1.0867  0.4273
  162MOL0     C21792   5.117   7.108   1.465 -0.3349 -0.0819 -0.0234
  162MOL0     C21793   5.160   7.249   1.463 -0.4842 -0.0101 -0.7764
  162MOL0     O21794   5.289   7.279   1.484 -0.1953  0.1268 -0.2243
  162MOL0     C21795   5.375   7.219   1.383  0.0237 -0.9200 -0.0461
  162MOL0     C21796   5.512   7.285   1.403 -0.7669  1.1420  0.6536
  162MOL0     C21797   5.620   7.232   1.299  0.8445 -1.2548  0.1909
  162MOL0     C21798   5.664   7.090   1.345 -0.1705  0.4390 -0.4211
  162MOL0     C21799   5.803   7.057   1.308  0.7681  0.2571 -0.4747
  162MOL0     C21800   5.917   7.039   1.267 -0.1568  1.3351 -0.9157
  162MOL0     C21801   5.066   7.343   1.445  0.6391  0.1376 -0.6109
  162MOL0     C21802   4.932   7.315   1.430 -0.4674  0.2841  0.4358
  162MOL0     H21803   4.621   6.801   1.473  0.9367 -1.1218  3.7564
  162MOL0     H21804   4.386   6.724   1.498  3.0373 -1.3911  2.3356
  162MOL0     H21805   4.077   7.031   1.616  0.1468 -0.6218  1.7714
  162MOL0     H21806   4.036   6.995   1.443 -0.0104 -1.9473 -0.2727
  162MOL0     H21807   3.948   6.867   1.698 -0.7077 -0.2264 -0.2834
  162MOL0     H21808   3.849   6.929   1.574  1.7942  2.8415 -0.1762
  162MOL0     H21809   3.946   6.737   1.415 -2.0186  1.8001 -0.4377
  162MOL0     H21810   3.990   6.653   1.568 -2.5817 -1.4761 -0.9902
  162MOL0     H21811   3.732   6.712   1.436 -3.8247 -2.2804  1.0780
  162MOL0     H21812   3.803   6.559   1.491  1.4837  0.1873  1.1330
  162MOL0     H21813   3.722   6.774   1.680 -0.9557  0.6166 -0.4529
  162MOL0     H21814   3.602   6.668   1.609  0.3806  1.3834 -2.2147
  162MOL0     H21815   3.690   6.481   1.756  1.4462 -0.4316  1.3120
  162MOL0     H21816   3.831   6.592   1.775 -0.5379  0.1492  1.9483
  162MOL0     H21817   3.651   6.761   1.881  6.4457 -0.5620 -1.1146
  162MOL0     H21818   3.540   6.611   1.892  0.0252 -1.4752  1.6820
  162MOL0     H21819   3.809   6.648   2.036  0.2210 -1.3720  1.6583
  162MOL0     H21820   3.743   6.501   2.003  1.4979  0.2747 -2.8488
  162MOL0     H21821   3.577   6.834   2.148 -1.3630 -0.7931  1.4036
  162MOL0     H21822   3.483   6.749   2.509  1.6222  0.1451  0.1917
  162MOL0     H21823   3.507   6.895   2.412  0.1004  0.0792 -1.2348
  162MOL0     H21824   3.282   6.700   2.401 -3.4943  1.1088 -3.2855
  162MOL0     H21825   3.301   6.844   2.296  0.9757  1.5326  1.1629
  162MOL0     H21826   3.238   6.986   2.459  0.0115  0.3962  1.1720
  162MOL0     H21827   3.289   6.884   2.598  0.9633 -1.9897 -0.4601
  162MOL0     H21828   3.110   6.736   2.571 -3.6156 -1.0821 -0.2334
  162MOL0     H21829   3.052   6.813   2.427 -0.3949 -3.4049  0.8738
  162MOL0     H21830   2.885   7.081   2.756  0.9449  1.7662  0.9628
  162MOL0     H21831   2.848   7.379   2.788 -1.9824  0.3852  1.6666
  162MOL0     H21832   2.702   7.391   2.712  0.6092  2.6781  3.7560
  162MOL0     H21833   2.722   7.254   2.821 -0.1439  1.0268  0.5189
  162MOL0     H21834   2.898   7.666   2.245 -0.2190 -2.6783  0.0376
  162MOL0     H21835   2.774   7.859   2.133  0.0601  1.0146 -0.7686
  162MOL0     H21836   2.312   7.887   2.107  1.8706 -4.3096  0.1820
  162MOL0     H21837   2.385   7.895   2.266  3.1872 -3.6992  0.0510
  162MOL0     H21838   2.312   8.115   2.232  0.6426 -1.2680  0.5465
  162MOL0     H21839   2.475   8.134   2.189  1.1645 -1.5774  0.1627
  162MOL0     H21840   2.227   8.093   2.009  0.3384 -0.2843  0.5436
  162MOL0     H21841   2.387   8.115   1.943  0.3699 -0.9990 -0.8841
  162MOL0     H21842   2.265   8.324   2.134  2.9635 -1.0989  1.4808
  162MOL0     H21843   2.393   8.346   2.027 -0.5600  1.6669  1.1966
  162MOL0     H21844   2.169   8.437   1.948  0.5773  0.3857 -1.5363
  162MOL0     H21845   2.124   8.261   1.902  1.6857 -1.9398  0.1390
  162MOL0     H21846   2.375   8.376   1.811 -2.0538  4.1908  0.3542
  162MOL0     H21847   2.281   8.234   1.747 -2.9454 -0.6132  0.9684
  162MOL0     H21848   2.138   8.337   1.614  2.0865 -1.2251 -1.5922
  162MOL0     H21849   2.284   8.420   1.598  0.5177 -0.5332  1.4838
  162MOL0     H21850   2.123   8.575   1.595  0.8077 -2.0871 -0.9471
  162MOL0     H21851   2.201   8.605   1.750  0.3056 -1.0314  1.8019
  162MOL0     H21852   2.403   7.635   2.170 -0.5774 -0.5410  2.8220
  162MOL0     H21853   2.523   7.468   2.297  0.5747 -1.1124 -2.5213
  162MOL0     H21854   2.933   7.270   2.305 -0.2634 -0.1128 -0.5977
  162MOL0     H21855   3.003   7.034   2.349 -0.4101 -0.5483  0.1609
  162MOL0     H21856   4.260   7.126   1.579  0.0609 -0.4162  1.7171
  162MOL0     H21857   4.486   7.204   1.564  3.3717  0.3174 -2.5608
  162MOL0     H21858   4.977   6.968   1.477  0.9056  1.1501  1.7792
  162MOL0     H21859   5.185   7.024   1.473  1.1722  0.7448 -2.9842
  162MOL0     H21860   5.380   7.111   1.399  0.3940 -1.2937 -2.4256
  162MOL0     H21861   5.329   7.239   1.286 -2.0819  4.0587  1.6577
  162MOL0     H21862   5.547   7.266   1.505  1.3939  1.3888 -0.0071
  162MOL0     H21863   5.508   7.394   1.399  1.2875  1.3953  3.1307
  162MOL0     H21864   5.702   7.303   1.307  1.4950 -2.1255  1.6085
  162MOL0     H21865   5.584   7.231   1.196  4.5713 -0.1782 -1.2749
  162MOL0     H21866   5.603   7.017   1.292 -1.4563  0.6636  0.7175
  162MOL0     H21867   5.652   7.079   1.453 -1.3763  0.0976 -0.5813
  162MOL0     H21868   6.011   7.025   1.219  0.4872 -1.5437  0.9392
  162MOL0     H21869   5.103   7.444   1.449  0.0939  0.4531 -2.6247
  162MOL0     H21870   4.866   7.401   1.422  3.0571  3.0571 -3.5011
  163MOL0     O21871   6.922   4.439   6.546 -0.2622  0.7497 -0.1200
  163MOL0     C21872   6.979   4.441   6.435  0.9343 -0.1373  0.2511
  163MOL0     O21873   6.986   4.544   6.349  0.5532  0.3694 -0.4879
  163MOL0     C21874   6.929   4.671   6.381 -0.2638  0.4045  0.3949
  163MOL0     C21875   6.999   4.765   6.453 -0.0427  0.0069  0.4359
  163MOL0     C21876   6.938   4.885   6.488 -0.1402 -0.0504  1.2970
  163MOL0     C21877   6.806   4.918   6.453  0.8755  0.4298 -0.2805
  163MOL0     O21878   6.758   5.035   6.505 -0.2005 -0.8514  0.3643
  163MOL0     C21879   6.626   5.077   6.474 -0.2285  0.5674  0.3161
  163MOL0     C21880   6.623   5.224   6.507  0.1094 -0.2012  0.1985
  163MOL0     C21881   6.601   5.257   6.659  0.2034 -0.1065 -0.9179
  163MOL0     C21882   6.595   5.409   6.688  0.8619 -0.3110 -0.0174
  163MOL0     C21883   6.566   5.438   6.838 -1.1769 -0.2871  0.5642
  163MOL0     C21884   6.578   5.589   6.864 -0.0586 -1.4043  0.0961
  163MOL0     C21885   6.724   5.651   6.841 -0.7616  0.9302 -0.0706
  163MOL0     C21886   6.724   5.789   6.763 -0.4388  0.1081  0.0697
  163MOL0     N21887   6.856   5.856   6.738 -0.1986  0.2833  0.5877
  163MOL0     C21888   6.948   5.859   6.834  0.6710 -0.0584 -0.2364
  163MOL0     C21889   7.037   5.947   6.782  0.4292  0.1072  0.0627
  163MOL0     C21890   7.170   5.995   6.840  0.0112 -0.1173  0.5544
  163MOL0     C21891   7.158   6.130   6.910 -0.0746  0.5757 -0.2061
  163MOL0     C21892   7.175   6.253   6.809  0.2617  0.4543 -1.3424
  163MOL0     C21893   7.042   6.299   6.754 -0.1745 -0.4959  0.5275
  163MOL0     O21894   7.076   6.406   6.666  1.2676  0.0918  0.0048
  163MOL0     C21895   7.115   6.526   6.721 -0.3996  0.2278 -0.5378
  163MOL0     C21896   7.234   6.582   6.671  0.6925  0.1644 -1.2916
  163MOL0     C21897   7.276   6.713   6.701 -0.5961 -0.2021  0.0871
  163MOL0     C21898   7.416   6.762   6.674 -0.4636 -0.3129 -0.6042
  163MOL0     C21899   7.188   6.780   6.788  0.4033 -0.2539 -1.1014
  163MOL0     C21900   7.219   6.914   6.822  0.2119  0.4707 -0.4183
  163MOL0     O21901   7.164   6.965   6.931 -0.6196  0.1195 -0.5958
  163MOL0     C21902   7.148   7.101   6.929 -0.2445 -0.0612  0.8295
  163MOL0     C21903   7.179   7.170   7.045 -0.1258  0.0229 -0.5316
  163MOL0     C21904   7.156   7.299   7.062 -0.3910 -1.2938  0.5021
  163MOL0     C21905   7.080   7.367   6.962 -0.1629  0.0955 -0.2772
  163MOL0     O21906   7.063   7.506   6.977  0.1865  0.5616 -0.3071
  163MOL0     C21907   6.936   7.548   7.022 -0.2060  0.6385  0.0762
  163MOL0     C21908   6.884   7.666   6.945 -0.0427 -0.2234 -0.5819
  163MOL0     C21909   6.810   7.627   6.820  1.2297 -0.0516  0.0373
  163MOL0     C21910   6.799   7.746   6.721 -0.3601  0.1380  0.7378
  163MOL0     C21911   6.699   7.716   6.601 -0.5389  0.3462  0.0303
  163MOL0     C21912   6.715   7.573   6.539  0.1655  0.9105 -0.3553
  163MOL0     C21913   6.609   7.538   6.433  0.6602  0.1191  0.1340
  163MOL0     C21914   6.633   7.404   6.363 -0.3169 -0.0811 -1.1858
  163MOL0    Cl21915   6.617   7.264   6.469  0.3337  0.1151 -0.7250
  163MOL0     C21916   7.048   7.301   6.846 -0.1724 -0.6921 -0.2827
  163MOL0     C21917   7.086   7.170   6.822 -0.0918  1.3981 -0.2930
  163MOL0     O21918   7.266   6.979   6.728 -0.5052 -0.7294 -0.6780
  163MOL0     C21919   7.073   6.721   6.841 -0.1072 -0.2376 -1.0356
  163MOL0     C21920   7.032   6.600   6.797 -0.4113  0.5979 -0.9328
  163MOL0     N21921   7.002   5.972   6.650 -0.3871 -0.1885 -0.5569
  163MOL0     N21922   6.893   5.917   6.627 -0.1374  0.5344  0.3478
  163MOL0     C21923   6.737   4.820   6.370  0.5435  0.2709 -0.3807
  163MOL0     C21924   6.796   4.699   6.338 -0.1195 -0.4905 -0.2389
  163MOL0     C21925   7.045   4.314   6.390 -1.1344  0.8178 -0.5059
  163MOL0     C21926   7.151   4.300   6.303 -0.5253  0.0289 -0.8950
  163MOL0     C21927   7.211   4.177   6.271  0.0834 -0.5238  0.4483
  163MOL0     C21928   7.153   4.059   6.335 -0.0431  0.3873  0.3970
  163MOL0     O21929   7.201   3.929   6.315  0.5823  0.1461 -0.1037
  163MOL0     C21930   7.272   3.894   6.196  0.1886  0.1938  0.3944
  163MOL0     C21931   7.347   3.761   6.223  0.9298  0.4053  0.1616
  163MOL0     C21932   7.466   3.777   6.313 -0.0932  0.1600 -0.0690
  163MOL0     C21933   7.589   3.848   6.245 -0.3951 -0.5587  0.2325
  163MOL0     C21934   7.654   3.762   6.148  0.3314  0.5587  1.3820
  163MOL0     C21935   7.716   3.685   6.075  0.1101  0.2619 -0.2938
  163MOL0     C21936   7.038   4.070   6.412 -0.3276  0.1631 -0.5217
  163MOL0     C21937   6.983   4.202   6.434  0.3612  0.5846  0.7975
  163MOL0     H21938   7.102   4.754   6.486 -0.7950 -3.0537  2.1097
  163MOL0     H21939   6.995   4.954   6.549  2.3389 -0.5146 -0.3533
  163MOL0     H21940   6.609   5.056   6.368  0.2330 -0.6896  0.4688
  163MOL0     H21941   6.548   5.017   6.522 -1.4213 -0.4367 -2.6356
  163MOL0     H21942   6.700   5.283   6.458  0.7129 -1.1359 -0.0107
  163MOL0     H21943   6.529   5.248   6.456 -1.3938 -1.0495  2.3780
  163MOL0     H21944   6.515   5.207   6.705  0.0953  0.1736 -0.8122
  163MOL0     H21945   6.697   5.233   6.706  1.5042 -0.7908 -3.7400
  163MOL0     H21946   6.682   5.468   6.656 -0.2811  0.3628 -2.0660
  163MOL0     H21947   6.512   5.440   6.624  0.2723  0.3993  1.0534
  163MOL0     H21948   6.471   5.394   6.870 -2.0217  1.3630  0.4070
  163MOL0     H21949   6.641   5.388   6.900 -1.2909 -1.2761 -0.0722
  163MOL0     H21950   6.511   5.648   6.801 -0.2882 -0.5154  1.1421
  163MOL0     H21951   6.546   5.607   6.967  0.5797 -1.0351  0.2335
  163MOL0     H21952   6.782   5.662   6.933  1.9241 -0.8218 -1.4040
  163MOL0     H21953   6.789   5.587   6.780  0.3873  1.9438  0.0353
  163MOL0     H21954   6.659   5.863   6.810  0.2303  2.0961 -1.9305
  163MOL0     H21955   6.675   5.771   6.667  1.1890  2.4356 -1.3374
  163MOL0     H21956   6.939   5.802   6.926  1.3776 -3.0432 -1.9075
  163MOL0     H21957   7.205   5.922   6.913 -1.7490 -0.6254  0.9445
  163MOL0     H21958   7.256   6.006   6.773 -0.3534  3.1853  0.4498
  163MOL0     H21959   7.249   6.143   6.969 -0.6924  1.2455  0.6371
  163MOL0     H21960   7.077   6.147   6.981 -0.8056 -0.3827 -0.7962
  163MOL0     H21961   7.243   6.225   6.729 -0.9788 -2.7723 -1.4382
  163MOL0     H21962   7.220   6.337   6.862  0.8042 -0.4375 -0.3650
  163MOL0     H21963   6.974   6.335   6.832 -1.5887  1.6784 -1.5502
  163MOL0     H21964   6.991   6.228   6.689 -0.8174 -0.2217  0.7181
  163MOL0     H21965   7.299   6.500   6.642  0.8482 -1.0331  2.0442
  163MOL0     H21966   7.476   6.686   6.623  0.5201  1.8645 -2.9642
  163MOL0     H21967   7.413   6.846   6.604 -0.0096  0.1020 -0.1310
  163MOL0     H21968   7.461   6.804   6.764  1.1283  1.0551 -1.9517
  163MOL0     H21969   7.204   7.107   7.130 -2.8055  2.6729  2.4842
  163MOL0     H21970   7.161   7.365   7.148 -3.1264  0.6406 -0.6461
  163MOL0     H21971   6.870   7.465   6.998 -0.2992  0.6398  0.3293
  163MOL0     H21972   6.940   7.570   7.129  1.6056 -2.1973  0.6736
  163MOL0     H21973   6.825   7.734   7.007  2.3344  1.8927 -0.4835
  163MOL0     H21974   6.973   7.729   6.934  0.2246 -0.2477  1.0874
  163MOL0     H21975   6.713   7.582   6.845 -1.2462  4.1849 -0.9319
  163MOL0     H21976   6.864   7.548   6.767  2.1763  0.3138  0.4466
  163MOL0     H21977   6.774   7.845   6.761  0.1880  0.5390  0.1137
  163MOL0     H21978   6.897   7.780   6.684  0.2372 -1.0749  1.1569
  163MOL0     H21979   6.717   7.790   6.522  1.1344  0.9852  0.9543
  163MOL0     H21980   6.599   7.730   6.643 -1.1192  0.4720 -1.3467
  163MOL0     H21981   6.818   7.573   6.503  0.0598  1.7787 -0.6889
  163MOL0     H21982   6.706   7.495   6.615 -1.7061 -0.5003 -1.9124
  163MOL0     H21983   6.590   7.614   6.356 -1.1771 -0.7785 -0.3498
  163MOL0     H21984   6.510   7.523   6.476 -1.3559  2.9901 -3.0356
  163MOL0     H21985   6.730   7.406   6.312 -0.3956 -0.4972 -1.3527
  163MOL0     H21986   6.555   7.372   6.294 -2.1327  1.9699 -0.2108
  163MOL0     H21987   6.983   7.348   6.773 -2.3977 -1.0678  1.3382
  163MOL0     H21988   7.051   7.121   6.732  4.7697  0.5077 -1.9986
  163MOL0     H21989   7.007   6.786   6.897  1.9963  0.0405  1.2735
  163MOL0     H21990   6.931   6.565   6.820 -0.4248  2.6317  3.0466
  163MOL0     H21991   6.637   4.839   6.332  0.8881  1.9972 -0.5034
  163MOL0     H21992   6.746   4.630   6.271  1.2987 -2.0358  0.2237
  163MOL0     H21993   7.192   4.392   6.261  1.3541 -0.5782 -0.4862
  163MOL0     H21994   7.301   4.180   6.211  0.6388 -0.7015  1.2525
  163MOL0     H21995   7.209   3.888   6.107  0.6907  1.6670 -0.0977
  163MOL0     H21996   7.338   3.975   6.163  1.0022 -1.2155 -1.6773
  163MOL0     H21997   7.378   3.715   6.129  0.6337 -0.5850  0.5392
  163MOL0     H21998   7.277   3.688   6.263  2.3879 -0.5454  1.0465
  163MOL0     H21999   7.510   3.683   6.349 -0.3161  0.2733  0.5197
  163MOL0     H22000   7.445   3.815   6.413 -2.4723 -4.7710  1.6514
  163MOL0     H22001   7.653   3.871   6.330 -1.5407  0.1777  0.9225
  163MOL0     H22002   7.548   3.939   6.201 -3.9709 -2.3399 -0.5507
  163MOL0     H22003   7.776   3.624   6.011 -0.1417 -0.0682 -0.2149
  163MOL0     H22004   6.995   3.988   6.468  0.8438  2.3130  4.0230
  163MOL0     H22005   6.894   4.220   6.493  1.6194 -0.2516  3.0474
  164MOL0     O22006   2.184   5.460   8.714  0.0190  0.5209  0.3306
  164MOL0     C22007   2.230   5.530   8.624  0.0879 -0.3739  0.6437
  164MOL0     O22008   2.319   5.490   8.524  0.0541  0.2290  0.3588
  164MOL0     C22009   2.358   5.365   8.539  1.3854  0.0639 -0.3248
  164MOL0     C22010   2.440   5.326   8.639  0.1919  0.0419 -0.4899
  164MOL0     C22011   2.473   5.193   8.666 -0.3580 -1.0631 -0.1179
  164MOL0     C22012   2.438   5.093   8.569 -0.3626  0.3094 -1.0078
  164MOL0     O22013   2.472   4.959   8.565  0.4815  0.8822 -0.0817
  164MOL0     C22014   2.593   4.919   8.632 -0.2806 -0.5072  0.3551
  164MOL0     C22015   2.595   4.763   8.647 -0.3965 -0.0884 -0.2669
  164MOL0     C22016   2.455   4.706   8.697  0.3990 -0.3284 -0.2976
  164MOL0     C22017   2.396   4.768   8.822  0.1601 -0.2901 -1.1852
  164MOL0     C22018   2.304   4.680   8.904 -1.0061 -0.7220 -0.7759
  164MOL0     C22019   2.194   4.762   8.979 -0.2079 -0.2697  0.3555
  164MOL0     C22020   2.129   4.685   9.093 -0.9912 -0.9232 -0.4878
  164MOL0     C22021   2.047   4.569   9.050 -0.3376  0.4386  0.1341
  164MOL0     N22022   2.116   4.440   9.059 -0.0986 -0.7820 -0.2690
  164MOL0     C22023   2.134   4.388   9.181  0.3673  0.0986  0.2281
  164MOL0     C22024   2.183   4.265   9.155  0.7873 -0.0978 -0.3002
  164MOL0     C22025   2.246   4.153   9.228  0.3520 -0.4287 -1.1896
  164MOL0     C22026   2.148   4.048   9.281 -0.5042  0.0422 -0.5898
  164MOL0     C22027   2.077   3.967   9.166  0.1564  0.5008 -0.5921
  164MOL0     C22028   1.941   4.023   9.149  0.1044 -0.0600  0.9140
  164MOL0     O22029   1.868   3.940   9.056  0.1582 -0.1982 -0.0684
  164MOL0     C22030   1.784   4.005   8.969 -0.0351 -0.2562 -0.1184
  164MOL0     C22031   1.832   4.100   8.882  0.7701  0.7993  0.0959
  164MOL0     C22032   1.734   4.161   8.803 -0.2904 -0.8211 -0.4313
  164MOL0     C22033   1.797   4.246   8.692 -0.2342 -0.1345 -0.6397
  164MOL0     C22034   1.601   4.132   8.807  0.3108 -0.5305  0.1156
  164MOL0     C22035   1.493   4.186   8.721  0.6927  0.5421  0.1921
  164MOL0     O22036   1.359   4.142   8.750 -0.4558 -0.1819  0.2159
  164MOL0     C22037   1.261   4.211   8.681 -0.6480 -0.1801 -0.8545
  164MOL0     C22038   1.178   4.291   8.752 -0.2256 -0.6093  0.4010
  164MOL0     C22039   1.071   4.362   8.693 -0.6596 -0.7183 -0.5854
  164MOL0     C22040   1.044   4.333   8.553  0.3714  0.1253  0.6171
  164MOL0     O22041   0.947   4.405   8.495  0.3197 -0.3420  0.1187
  164MOL0     C22042   0.981   4.507   8.391 -0.5136 -0.1751 -0.2652
  164MOL0     C22043   0.912   4.648   8.413 -1.2627 -0.4832  0.2938
  164MOL0     C22044   0.768   4.648   8.388 -0.5717  0.3992 -1.0139
  164MOL0     C22045   0.691   4.787   8.417  0.0587  0.1649  0.2007
  164MOL0     C22046   0.542   4.775   8.421  0.0487 -0.0809 -0.5618
  164MOL0     C22047   0.461   4.840   8.525 -0.1334 -0.5335 -0.0029
  164MOL0     C22048   0.483   4.983   8.559 -0.6654  0.0834  0.9847
  164MOL0     C22049   0.360   5.054   8.627  0.2420  0.1477  0.2214
  164MOL0    Cl22050   0.399   5.230   8.638 -0.2466  0.3350  0.1170
  164MOL0     C22051   1.140   4.258   8.480  0.0171  0.4049  0.1457
  164MOL0     C22052   1.241   4.193   8.543 -0.2583 -0.3281 -0.5138
  164MOL0     O22053   1.528   4.245   8.624 -0.5454 -0.0953  1.0351
  164MOL0     C22054   1.562   4.025   8.887  0.4298  0.0514 -0.0368
  164MOL0     C22055   1.656   3.966   8.971 -0.0785 -0.5242 -0.1309
  164MOL0     N22056   2.192   4.253   9.014 -0.1952 -0.2038  0.4145
  164MOL0     N22057   2.144   4.352   8.959  0.4704 -0.4745 -0.5836
  164MOL0     C22058   2.347   5.135   8.465 -0.6393  0.1846  0.5126
  164MOL0     C22059   2.308   5.267   8.447 -0.1499  0.3181  0.3736
  164MOL0     C22060   2.183   5.671   8.627  0.2762 -1.4052 -0.4917
  164MOL0     C22061   2.223   5.762   8.528  0.1607  0.1139  0.5098
  164MOL0     C22062   2.170   5.884   8.527 -0.8097  0.3890  0.2432
  164MOL0     C22063   2.075   5.922   8.626  0.2889  0.5647  0.8095
  164MOL0     O22064   2.026   6.043   8.591 -0.4436 -0.4793  0.3692
  164MOL0     C22065   2.005   6.126   8.705 -0.5592  0.0222 -0.1309
  164MOL0     C22066   2.037   6.269   8.654  0.3327 -0.0181  0.5512
  164MOL0     C22067   1.933   6.329   8.552 -0.5976 -0.4518 -0.4598
  164MOL0     C22068   1.959   6.473   8.547  0.3209 -0.7662  0.0163
  164MOL0     C22069   2.098   6.512   8.499  0.6986 -0.6948 -0.4421
  164MOL0     C22070   2.207   6.534   8.456 -0.2913 -0.0414 -0.7491
  164MOL0     C22071   2.030   5.839   8.721 -0.5974 -1.0217  0.2017
  164MOL0     C22072   2.089   5.711   8.732  0.5210 -0.5419 -0.3785
  164MOL0     H22073   2.483   5.408   8.696  0.9921 -3.0500  3.8292
  164MOL0     H22074   2.530   5.190   8.759 -0.9247  3.2287  0.5781
  164MOL0     H22075   2.680   4.960   8.581  1.4866 -3.1232  1.0500
  164MOL0     H22076   2.596   4.960   8.733  2.8710  1.3521 -0.3556
  164MOL0     H22077   2.626   4.699   8.564  2.8753 -0.7577  1.3017
  164MOL0     H22078   2.670   4.745   8.725  1.3732  2.7278 -1.1680
  164MOL0     H22079   2.392   4.732   8.611  2.7511 -0.4906 -2.1779
  164MOL0     H22080   2.463   4.597   8.699  0.4079 -0.4421 -2.7188
  164MOL0     H22081   2.471   4.807   8.892 -2.8776  1.5488  1.3371
  164MOL0     H22082   2.345   4.862   8.800 -0.4637 -0.0715  0.9373
  164MOL0     H22083   2.254   4.607   8.839 -2.3664 -1.3391  0.8642
  164MOL0     H22084   2.355   4.618   8.978 -1.1928 -1.5493 -1.3189
  164MOL0     H22085   2.236   4.851   9.027 -1.1327 -0.5385  1.7119
  164MOL0     H22086   2.115   4.803   8.916 -1.0376  1.8038  2.5818
  164MOL0     H22087   2.206   4.656   9.166  0.3286  2.3616 -0.4254
  164MOL0     H22088   2.064   4.753   9.149 -1.3734  1.1944 -3.2834
  164MOL0     H22089   2.005   4.587   8.950  1.4446  0.0359 -0.7334
  164MOL0     H22090   1.958   4.573   9.113 -0.5955  0.5593 -0.2300
  164MOL0     H22091   2.112   4.435   9.276  1.5597  1.5415 -0.1759
  164MOL0     H22092   2.331   4.109   9.175  0.8722 -2.1288  0.9152
  164MOL0     H22093   2.293   4.204   9.312  2.4088 -0.7791 -2.0661
  164MOL0     H22094   2.072   4.098   9.342 -1.4554 -0.5980 -1.2082
  164MOL0     H22095   2.204   3.982   9.348  5.4418  2.0285 -2.9726
  164MOL0     H22096   2.062   3.862   9.188 -1.4854  0.8083 -0.1323
  164MOL0     H22097   2.132   3.978   9.072  1.2279 -1.2994 -0.2153
  164MOL0     H22098   1.954   4.122   9.105  2.4154 -0.2124  1.1500
  164MOL0     H22099   1.884   4.037   9.241  0.4097  1.3436  0.9145
  164MOL0     H22100   1.937   4.129   8.879 -0.1043  5.5932  3.3704
  164MOL0     H22101   1.761   4.349   8.697 -2.7288 -0.9901  0.2735
  164MOL0     H22102   1.906   4.242   8.699 -0.2657  1.0835  1.3048
  164MOL0     H22103   1.779   4.201   8.594 -0.1013 -3.2065  0.6226
  164MOL0     H22104   1.191   4.309   8.859 -1.9453 -2.1136  0.9109
  164MOL0     H22105   1.005   4.427   8.749 -0.0449 -2.3370  2.2294
  164MOL0     H22106   1.090   4.518   8.402 -0.5411 -1.2386  1.6951
  164MOL0     H22107   0.950   4.477   8.291 -0.3629  0.1800 -0.4192
  164MOL0     H22108   0.926   4.672   8.519  2.9018  1.1344 -0.4517
  164MOL0     H22109   0.964   4.714   8.344  0.5133 -2.5683 -0.4837
  164MOL0     H22110   0.734   4.580   8.466 -1.4879 -0.4429 -2.1119
  164MOL0     H22111   0.736   4.606   8.292  2.9830 -1.2476 -1.6350
  164MOL0     H22112   0.726   4.835   8.510 -4.2372  0.2201  2.0416
  164MOL0     H22113   0.718   4.866   8.347 -3.6580  2.5865  1.1746
  164MOL0     H22114   0.507   4.672   8.413 -1.2624  0.4919 -4.2460
  164MOL0     H22115   0.516   4.826   8.328  2.5066  0.2276 -1.1352
  164MOL0     H22116   0.358   4.831   8.489 -0.0540 -0.1118 -0.3525
  164MOL0     H22117   0.465   4.785   8.619  1.7032 -2.3343 -1.0306
  164MOL0     H22118   0.508   5.030   8.464  0.9269 -1.9398  0.3230
  164MOL0     H22119   0.565   4.986   8.631 -2.3373 -2.3277  3.1750
  164MOL0     H22120   0.338   5.006   8.722 -3.4517  2.1261  0.5385
  164MOL0     H22121   0.273   5.034   8.565  0.1155  0.4210  0.3104
  164MOL0     H22122   1.140   4.245   8.372 -2.1335  1.7459 -0.0725
  164MOL0     H22123   1.307   4.129   8.487 -1.1055 -1.5996 -0.0929
  164MOL0     H22124   1.463   3.985   8.904  2.0782 -3.5158  2.5451
  164MOL0     H22125   1.623   3.889   9.040  0.5242 -3.8464 -3.2705
  164MOL0     H22126   2.302   5.061   8.400 -0.6322  1.9257 -1.5608
  164MOL0     H22127   2.238   5.297   8.370  0.7395  2.3443  0.3044
  164MOL0     H22128   2.292   5.739   8.448  1.3292  0.7853  1.2907
  164MOL0     H22129   2.193   5.955   8.448 -1.8930  1.3801  0.7938
  164MOL0     H22130   1.906   6.138   8.749 -0.3959  0.9948  0.0025
  164MOL0     H22131   2.084   6.108   8.778  0.0301  0.7587 -0.5695
  164MOL0     H22132   2.141   6.253   8.623 -0.6989 -2.9994 -1.8353
  164MOL0     H22133   2.029   6.335   8.741 -4.0433  1.5059 -0.7213
  164MOL0     H22134   1.830   6.313   8.586 -0.9243 -0.3594 -1.3791
  164MOL0     H22135   1.934   6.304   8.445 -3.1664  1.9592 -1.1701
  164MOL0     H22136   1.940   6.506   8.649  0.5000 -1.3161  0.2278
  164MOL0     H22137   1.890   6.527   8.481  1.7331 -1.0312 -1.7579
  164MOL0     H22138   2.301   6.560   8.412 -0.6356  2.6586 -0.0758
  164MOL0     H22139   1.956   5.877   8.792  1.1412  0.9040  1.0929
  164MOL0     H22140   2.056   5.650   8.815  1.8308 -0.7390  0.0073
  165MOL0     O22141   8.023   6.842   6.459  0.2915  0.2135 -0.7939
  165MOL0     C22142   8.100   6.915   6.398  0.8432 -0.0442 -0.0508
  165MOL0     O22143   8.077   7.051   6.383 -0.5796 -0.3378 -0.5738
  165MOL0     C22144   7.986   7.124   6.465  0.4060 -0.4266  0.1978
  165MOL0     C22145   7.873   7.188   6.409  0.1490 -0.8787 -0.0237
  165MOL0     C22146   7.788   7.280   6.480  0.7059 -0.5547  0.7275
  165MOL0     C22147   7.821   7.307   6.615  0.2688 -1.0089 -0.1907
  165MOL0     O22148   7.756   7.399   6.688  0.0344  0.0340  0.1708
  165MOL0     C22149   7.713   7.339   6.812  0.0418 -0.6807  1.2344
  165MOL0     C22150   7.589   7.420   6.866  0.0769 -0.2972  0.2510
  165MOL0     C22151   7.461   7.357   6.794  0.0605  0.0805  0.0564
  165MOL0     C22152   7.446   7.425   6.647 -0.3150  0.1092 -0.7183
  165MOL0     C22153   7.305   7.398   6.594 -0.2096  0.7438  0.3948
  165MOL0     C22154   7.283   7.433   6.437 -0.7666 -0.0939 -0.0430
  165MOL0     C22155   7.379   7.370   6.345 -0.2217  0.1420  0.2675
  165MOL0     C22156   7.342   7.373   6.204  1.1011  0.0950  0.4846
  165MOL0     N22157   7.219   7.297   6.175  0.1452 -0.1209  0.2117
  165MOL0     C22158   7.226   7.163   6.173 -0.5160 -0.2496 -0.5107
  165MOL0     C22159   7.099   7.126   6.150  1.0235  1.1899  1.1628
  165MOL0     C22160   7.045   6.982   6.117  0.1632 -0.4384  0.1391
  165MOL0     C22161   7.033   6.892   6.243  0.1515 -0.6332  0.7590
  165MOL0     C22162   7.171   6.880   6.300 -0.3805 -0.0339 -0.3157
  165MOL0     C22163   7.205   6.732   6.323  0.3907  0.7810 -0.3145
  165MOL0     O22164   7.197   6.676   6.187 -0.1821  0.3088 -0.0326
  165MOL0     C22165   7.219   6.543   6.175  0.4405 -0.4095 -1.4535
  165MOL0     C22166   7.220   6.444   6.275  0.1750  0.4906 -0.7995
  165MOL0     C22167   7.233   6.306   6.244 -0.4726 -0.5708 -0.8277
  165MOL0     C22168   7.199   6.215   6.355 -0.5041  0.6697 -0.7339
  165MOL0     C22169   7.273   6.274   6.106 -1.2958 -0.4930  0.4877
  165MOL0     C22170   7.293   6.138   6.050 -0.2521 -0.9644 -0.3232
  165MOL0     O22171   7.259   6.124   5.920  0.1745  0.9069 -0.7657
  165MOL0     C22172   7.315   6.020   5.847 -1.1248  0.1079  0.1442
  165MOL0     C22173   7.242   5.959   5.743  0.0707  0.3190 -1.1005
  165MOL0     C22174   7.301   5.857   5.666  0.6677  0.0300  0.2300
  165MOL0     C22175   7.439   5.832   5.665 -0.4074  0.0547  0.2287
  165MOL0     O22176   7.465   5.735   5.571  0.6524 -0.2053  0.5849
  165MOL0     C22177   7.531   5.625   5.621  0.4667  0.4329  0.7929
  165MOL0     C22178   7.574   5.533   5.500  0.5923 -0.9134 -0.1124
  165MOL0     C22179   7.482   5.521   5.376 -0.2654  0.2987  0.2742
  165MOL0     C22180   7.343   5.482   5.405  0.8456  0.5627  0.4652
  165MOL0     C22181   7.254   5.439   5.282 -1.1367  0.8616 -0.4642
  165MOL0     C22182   7.102   5.452   5.305  0.0436  0.0264  0.1639
  165MOL0     C22183   7.044   5.483   5.175  0.8809 -0.8499  0.8941
  165MOL0     C22184   6.893   5.539   5.185 -0.1389 -0.0843 -2.1508
  165MOL0    Cl22185   6.902   5.696   5.266  0.0184  0.0244  0.1856
  165MOL0     C22186   7.516   5.897   5.757 -1.1742  0.1631 -0.7007
  165MOL0     C22187   7.456   5.984   5.849  0.1252  0.1951 -0.5402
  165MOL0     O22188   7.342   6.051   6.116  0.5830  0.3718 -0.5046
  165MOL0     C22189   7.280   6.376   6.015  0.5965  0.1474  0.2678
  165MOL0     C22190   7.248   6.508   6.041  0.3695 -0.4230 -0.9984
  165MOL0     N22191   7.017   7.239   6.140  0.0091 -0.2401 -0.1743
  165MOL0     N22192   7.096   7.343   6.145  0.6411  0.2993 -0.1237
  165MOL0     C22193   7.942   7.248   6.673 -0.3057 -0.5125 -0.3135
  165MOL0     C22194   8.023   7.164   6.597  0.2923 -0.0476  0.7083
  165MOL0     C22195   8.210   6.852   6.321 -0.7511  0.2973  0.5006
  165MOL0     C22196   8.263   6.730   6.365 -0.7525 -0.1325 -1.0815
  165MOL0     C22197   8.378   6.666   6.311 -0.4932  0.9515 -1.3436
  165MOL0     C22198   8.437   6.732   6.205 -0.0866 -0.3283  1.3236
  165MOL0     O22199   8.551   6.675   6.142 -0.3175  0.7125 -0.5608
  165MOL0     C22200   8.667   6.749   6.149  0.2469 -0.1395  0.7875
  165MOL0     C22201   8.762   6.699   6.257  0.4270 -0.7306  0.2921
  165MOL0     C22202   8.806   6.550   6.242 -0.3653  0.1611  0.2465
  165MOL0     C22203   8.718   6.446   6.301 -0.0896 -0.0640 -0.1611
  165MOL0     C22204   8.774   6.309   6.303 -0.1511  0.1469 -0.4300
  165MOL0     C22205   8.817   6.195   6.310 -0.0517  0.2543 -0.5092
  165MOL0     C22206   8.389   6.853   6.153  0.0919 -0.5069 -0.3793
  165MOL0     C22207   8.279   6.922   6.216 -0.0234  0.4992  0.0628
  165MOL0     H22208   7.836   7.170   6.308 -1.2442  1.2821  0.0468
  165MOL0     H22209   7.695   7.313   6.434  1.5094  0.8949  0.0623
  165MOL0     H22210   7.692   7.233   6.794 -2.6388  0.0569 -0.5173
  165MOL0     H22211   7.795   7.349   6.884  2.0215  0.4612 -1.0182
  165MOL0     H22212   7.580   7.410   6.975 -1.0368  0.0537  0.2149
  165MOL0     H22213   7.596   7.529   6.860 -1.8458  0.0237  2.3557
  165MOL0     H22214   7.467   7.250   6.770 -1.6590  0.3513 -1.8335
  165MOL0     H22215   7.368   7.382   6.845  0.6536 -0.9353  1.7241
  165MOL0     H22216   7.452   7.534   6.657 -1.9041  0.2228 -0.6027
  165MOL0     H22217   7.527   7.389   6.584  2.4011  2.6694  1.0558
  165MOL0     H22218   7.283   7.291   6.608  1.0154  0.2373 -1.3014
  165MOL0     H22219   7.237   7.459   6.654  0.6691  1.3586  0.7918
  165MOL0     H22220   7.178   7.412   6.412 -0.4398 -1.4166 -0.3976
  165MOL0     H22221   7.293   7.542   6.434  3.7882 -0.1871  2.7830
  165MOL0     H22222   7.476   7.419   6.345 -0.8123  1.3747 -0.9109
  165MOL0     H22223   7.397   7.266   6.374  1.6237 -0.6217 -3.0977
  165MOL0     H22224   7.412   7.325   6.136 -2.9774 -1.3355 -3.1511
  165MOL0     H22225   7.334   7.476   6.168  1.2323  0.1234  0.5374
  165MOL0     H22226   7.317   7.105   6.164  0.6949  1.6302 -0.8034
  165MOL0     H22227   6.946   6.993   6.072  0.0482  0.6307  0.6115
  165MOL0     H22228   7.121   6.936   6.054  2.0704 -2.7264  3.7299
  165MOL0     H22229   6.977   6.800   6.225 -1.4847  0.7630 -1.9657
  165MOL0     H22230   6.968   6.951   6.308 -0.2761  1.8275 -1.7006
  165MOL0     H22231   7.178   6.940   6.390 -2.3383  0.9655 -0.7709
  165MOL0     H22232   7.239   6.920   6.224 -0.6698  0.0744 -0.5194
  165MOL0     H22233   7.126   6.690   6.386 -0.1290  1.6649 -0.3647
  165MOL0     H22234   7.298   6.722   6.381 -0.3722  0.3208  0.8598
  165MOL0     H22235   7.197   6.480   6.375 -0.5750 -0.0813 -0.7567
  165MOL0     H22236   7.090   6.216   6.372 -0.2387 -0.4549  1.3750
  165MOL0     H22237   7.228   6.110   6.350  1.4736  0.8280  3.3533
  165MOL0     H22238   7.252   6.242   6.446 -0.3643 -0.3001 -0.5164
  165MOL0     H22239   7.142   5.991   5.716 -0.0031 -0.1246 -1.3624
  165MOL0     H22240   7.234   5.793   5.610 -0.5319 -2.0136  3.6849
  165MOL0     H22241   7.611   5.655   5.688  0.3882  0.4414  0.8835
  165MOL0     H22242   7.472   5.574   5.698  1.6396 -0.0350  1.3982
  165MOL0     H22243   7.671   5.576   5.475  1.1524 -1.5972  0.8101
  165MOL0     H22244   7.592   5.431   5.535 -0.6450 -0.6121  1.5322
  165MOL0     H22245   7.530   5.445   5.315 -1.0485 -1.9805  2.3534
  165MOL0     H22246   7.472   5.618   5.326 -2.4950  1.7009  3.1084
  165MOL0     H22247   7.342   5.390   5.465 -1.1320  0.0641 -0.2670
  165MOL0     H22248   7.284   5.558   5.456 -0.2716  0.0638 -0.0600
  165MOL0     H22249   7.285   5.335   5.265 -0.1818  0.8762  1.0019
  165MOL0     H22250   7.283   5.500   5.196  0.2935 -1.5347 -1.8089
  165MOL0     H22251   7.045   5.369   5.347 -0.5494  0.4778  0.2648
  165MOL0     H22252   7.082   5.537   5.369 -0.0897 -0.6866  1.0837
  165MOL0     H22253   7.036   5.391   5.117 -1.7628  0.4393 -0.9905
  165MOL0     H22254   7.102   5.544   5.106  0.6455 -2.7305 -1.0946
  165MOL0     H22255   6.836   5.471   5.249 -0.6832  2.0613 -0.2219
  165MOL0     H22256   6.848   5.545   5.085 -1.8972  0.6407 -1.3483
  165MOL0     H22257   7.623   5.881   5.749 -0.8881  1.3922  0.3270
  165MOL0     H22258   7.516   6.047   5.914  0.4852 -1.2308  0.5669
  165MOL0     H22259   7.300   6.343   5.913 -0.5449  0.8487 -0.2057
  165MOL0     H22260   7.244   6.587   5.966 -0.3077 -1.0162 -1.6050
  165MOL0     H22261   7.964   7.264   6.779 -0.0705 -1.8998 -0.1357
  165MOL0     H22262   8.117   7.121   6.629  0.8825 -0.3319 -1.2688
  165MOL0     H22263   8.231   6.687   6.459  2.9093  0.6964  0.7318
  165MOL0     H22264   8.412   6.569   6.346 -0.6978  1.6340  0.9355
  165MOL0     H22265   8.718   6.744   6.053 -0.0330  3.8735  0.2557
  165MOL0     H22266   8.650   6.856   6.165 -3.9836 -0.3665 -0.9238
  165MOL0     H22267   8.716   6.723   6.353  2.9181  0.3180  1.3128
  165MOL0     H22268   8.858   6.752   6.264  0.1375 -0.2483  0.7175
  165MOL0     H22269   8.904   6.540   6.290  0.5093 -0.1238 -1.5063
  165MOL0     H22270   8.816   6.529   6.135  1.4552 -2.8046  0.8651
  165MOL0     H22271   8.635   6.437   6.230 -0.6329 -5.4416  0.6796
  165MOL0     H22272   8.678   6.479   6.397 -0.9913  2.8337 -1.4214
  165MOL0     H22273   8.867   6.100   6.314 -0.5109 -0.3678 -4.5934
  165MOL0     H22274   8.433   6.889   6.061 -0.3558  3.6123  0.8063
  165MOL0     H22275   8.241   7.018   6.180  2.9628  1.5038 -0.6754
  166MOL0     O22276   1.280   6.237   2.106  0.0674 -0.5196 -0.0472
  166MOL0     C22277   1.247   6.318   2.194  0.1053  0.5297 -0.1435
  166MOL0     O22278   1.336   6.371   2.288 -0.1612 -0.3699  0.4159
  166MOL0     C22279   1.460   6.310   2.307  0.3480 -0.0458 -0.6324
  166MOL0     C22280   1.513   6.186   2.250 -0.3812 -0.3618 -0.5527
  166MOL0     C22281   1.630   6.140   2.283  0.2608  0.4438 -0.9231
  166MOL0     C22282   1.719   6.204   2.379  0.3896  0.5593 -0.6799
  166MOL0     O22283   1.839   6.150   2.410 -0.4131 -0.3254  0.5066
  166MOL0     C22284   1.942   6.240   2.440  0.6854  0.1466 -0.2592
  166MOL0     C22285   1.972   6.321   2.314  0.0223  0.7218  0.8163
  166MOL0     C22286   1.985   6.227   2.199 -0.4760  0.6229  0.2725
  166MOL0     C22287   2.070   6.291   2.093 -0.9524 -0.9149  0.3588
  166MOL0     C22288   2.101   6.188   1.983  0.0974  0.1138 -0.6430
  166MOL0     C22289   2.156   6.248   1.851 -0.2117 -0.0706  0.5782
  166MOL0     C22290   2.304   6.202   1.828 -0.2527 -0.7535 -0.3601
  166MOL0     C22291   2.367   6.249   1.700 -0.7909 -0.0760 -0.0222
  166MOL0     N22292   2.494   6.179   1.685 -0.1482  0.4968  0.0960
  166MOL0     C22293   2.617   6.190   1.753  0.9908  0.0039 -0.3248
  166MOL0     C22294   2.681   6.077   1.714 -0.4613 -0.0015 -0.8211
  166MOL0     C22295   2.801   6.015   1.788  0.3352  0.2185  0.7617
  166MOL0     C22296   2.900   5.974   1.683  0.1994  0.2587 -1.6535
  166MOL0     C22297   3.014   5.894   1.750 -0.6430 -0.4129 -0.4511
  166MOL0     C22298   3.084   5.785   1.663 -0.4087  0.2136  0.4200
  166MOL0     O22299   3.104   5.847   1.531  1.2159  0.4446 -1.3690
  166MOL0     C22300   3.219   5.814   1.464  1.2447 -0.2729 -0.6722
  166MOL0     C22301   3.269   5.915   1.375  0.0325  0.2128  0.1021
  166MOL0     C22302   3.384   5.886   1.288 -0.9137  0.2985 -0.3275
  166MOL0     C22303   3.441   6.017   1.237  0.4612 -0.0800 -0.2279
  166MOL0     C22304   3.450   5.751   1.297 -0.4652 -0.6685  0.6571
  166MOL0     C22305   3.572   5.710   1.225 -0.8060 -0.5042 -0.0106
  166MOL0     O22306   3.611   5.575   1.228  0.0669 -0.3928  0.0163
  166MOL0     C22307   3.708   5.528   1.142  0.4656 -0.3342 -0.3139
  166MOL0     C22308   3.781   5.418   1.189  0.1948 -0.1571 -0.3398
  166MOL0     C22309   3.871   5.354   1.110  0.5624  0.3371  1.0687
  166MOL0     C22310   3.884   5.383   0.969  0.4708  0.1108 -1.2965
  166MOL0     O22311   3.958   5.300   0.887 -0.4634  0.8420 -0.6262
  166MOL0     C22312   3.978   5.329   0.748 -1.0256 -0.3157 -0.4539
  166MOL0     C22313   3.873   5.262   0.666  0.3677  0.5375  0.4406
  166MOL0     C22314   3.877   5.108   0.654  0.7435  0.1588  0.7784
  166MOL0     C22315   4.010   5.038   0.625 -0.7241  0.3549  0.2520
  166MOL0     C22316   3.989   4.889   0.611 -0.4272  0.5308 -0.4177
  166MOL0     C22317   4.114   4.816   0.536 -0.1830 -0.3021  0.2191
  166MOL0     C22318   4.082   4.670   0.505  0.3813  0.4005 -0.2230
  166MOL0     C22319   4.047   4.586   0.627  0.2285 -0.1764  0.5093
  166MOL0    Cl22320   4.200   4.585   0.729 -0.0656  0.0783  0.3678
  166MOL0     C22321   3.806   5.493   0.924  0.7700  0.0675 -0.5834
  166MOL0     C22322   3.720   5.561   1.009  0.2874 -0.1882 -1.4398
  166MOL0     O22323   3.639   5.797   1.165  0.5641  0.0772  0.6031
  166MOL0     C22324   3.384   5.657   1.374 -0.3359 -0.4348  0.8544
  166MOL0     C22325   3.271   5.686   1.453  0.7795 -0.6014 -0.4911
  166MOL0     N22326   2.609   6.008   1.627 -0.5363 -0.8407 -0.5041
  166MOL0     N22327   2.498   6.067   1.603 -0.1773  0.0664 -0.4390
  166MOL0     C22328   1.665   6.324   2.443 -0.8696 -0.1030 -0.5588
  166MOL0     C22329   1.539   6.372   2.399 -0.4445 -0.6243  0.3570
  166MOL0     C22330   1.103   6.363   2.206  0.1440 -0.7022 -0.4116
  166MOL0     C22331   1.012   6.324   2.112  0.5631 -0.0027 -0.6388
  166MOL0     C22332   0.875   6.364   2.120  0.1309 -0.3417 -0.1757
  166MOL0     C22333   0.830   6.448   2.228  0.5087  0.2892  0.4347
  166MOL0     O22334   0.701   6.488   2.254  0.6303  0.4749 -0.7352
  166MOL0     C22335   0.592   6.409   2.183  0.5110 -0.5792 -0.1533
  166MOL0     C22336   0.514   6.349   2.297 -0.8532 -1.7515  1.1251
  166MOL0     C22337   0.590   6.220   2.340  1.4222 -0.4782 -0.2416
  166MOL0     C22338   0.509   6.135   2.427  0.3128  0.4001  0.4000
  166MOL0     C22339   0.390   6.095   2.349 -1.1008 -1.3829 -0.3649
  166MOL0     C22340   0.295   6.049   2.290 -0.1247 -0.4918  0.6774
  166MOL0     C22341   0.924   6.485   2.327  0.8380  0.0090 -0.3191
  166MOL0     C22342   1.057   6.439   2.318  0.4229 -0.2017  0.4180
  166MOL0     H22343   1.467   6.130   2.169  0.0008  0.0829 -1.0831
  166MOL0     H22344   1.669   6.050   2.236  3.4575  0.8701  0.7129
  166MOL0     H22345   1.916   6.303   2.525  0.8287 -0.3985  0.2000
  166MOL0     H22346   2.032   6.180   2.462 -0.0734 -1.2029 -0.6854
  166MOL0     H22347   1.885   6.385   2.300  0.1861  0.3103 -3.0007
  166MOL0     H22348   2.062   6.381   2.330 -0.1672  0.6907  2.1561
  166MOL0     H22349   2.033   6.137   2.239  1.5788  0.2166 -2.8357
  166MOL0     H22350   1.894   6.191   2.151  0.9803 -2.2507 -0.5871
  166MOL0     H22351   2.006   6.372   2.054  1.9323  1.1965 -0.3111
  166MOL0     H22352   2.164   6.334   2.127 -0.5233  0.2792 -2.0778
  166MOL0     H22353   2.173   6.117   2.025 -1.0282  0.1572  1.5133
  166MOL0     H22354   2.016   6.124   1.958  2.4901 -3.6702  0.1317
  166MOL0     H22355   2.098   6.207   1.768 -1.9421 -0.5882  1.9643
  166MOL0     H22356   2.155   6.357   1.851 -0.3093 -0.0703  0.1652
  166MOL0     H22357   2.360   6.244   1.911 -0.3891 -1.1567 -0.0598
  166MOL0     H22358   2.307   6.094   1.848 -1.1449 -0.6999  0.1226
  166MOL0     H22359   2.393   6.355   1.701 -2.1016  0.2722 -0.2913
  166MOL0     H22360   2.287   6.223   1.629 -1.0598 -1.8668  0.8724
  166MOL0     H22361   2.635   6.259   1.834 -1.4278 -1.0262  1.2229
  166MOL0     H22362   2.847   6.088   1.854 -1.3769  0.8951  1.2530
  166MOL0     H22363   2.774   5.936   1.859  2.8546 -1.0563  0.4261
  166MOL0     H22364   2.938   6.069   1.644  0.6580  1.1771  0.8194
  166MOL0     H22365   2.851   5.911   1.609  1.2374 -1.9832 -0.5344
  166MOL0     H22366   2.997   5.850   1.848  0.9335 -1.0813 -0.4373
  166MOL0     H22367   3.102   5.958   1.763  0.2214 -1.5482 -0.5395
  166MOL0     H22368   3.020   5.699   1.641  0.2559  0.2489 -1.9329
  166MOL0     H22369   3.180   5.757   1.705 -1.9920 -1.0571  3.5309
  166MOL0     H22370   3.231   6.017   1.381  1.8304  0.8466  3.9662
  166MOL0     H22371   3.548   5.996   1.236  0.1365 -2.1838  1.2870
  166MOL0     H22372   3.407   6.031   1.134 -1.1662  1.2826  0.4466
  166MOL0     H22373   3.406   6.104   1.293  0.1929 -0.6292  0.4644
  166MOL0     H22374   3.764   5.392   1.294 -2.2669  1.9869 -0.1118
  166MOL0     H22375   3.929   5.275   1.157  0.6638 -0.4585 -0.3481
  166MOL0     H22376   3.989   5.436   0.729 -0.6219 -0.3286 -0.3171
  166MOL0     H22377   4.079   5.295   0.722  0.0173  0.4193  2.2483
  166MOL0     H22378   3.781   5.295   0.715  0.5938  3.3696 -0.8966
  166MOL0     H22379   3.891   5.295   0.564 -0.4522 -0.2839  0.0203
  166MOL0     H22380   3.808   5.079   0.573  0.2591 -1.1564  1.6181
  166MOL0     H22381   3.846   5.071   0.752  0.8230  0.5896  0.9669
  166MOL0     H22382   4.057   5.074   0.533  1.1639 -0.2890  0.9337
  166MOL0     H22383   4.074   5.068   0.708 -1.4068 -2.4285  1.9502
  166MOL0     H22384   3.908   4.861   0.543 -0.7542  0.3204  0.0568
  166MOL0     H22385   3.979   4.845   0.710  2.9999  1.4602  0.4880
  166MOL0     H22386   4.122   4.861   0.437 -0.0420 -0.2451  0.2550
  166MOL0     H22387   4.210   4.828   0.587  1.0732 -3.9725 -0.9664
  166MOL0     H22388   4.174   4.624   0.470 -0.5286 -0.5066 -1.4929
  166MOL0     H22389   4.008   4.653   0.426  1.4731  0.1697 -1.2195
  166MOL0     H22390   4.014   4.499   0.569 -3.0515  2.1798 -1.5046
  166MOL0     H22391   3.956   4.618   0.679 -2.0433 -0.6973 -2.8217
  166MOL0     H22392   3.805   5.516   0.818 -1.2007 -1.6455 -0.9989
  166MOL0     H22393   3.653   5.637   0.971 -1.5092 -1.0485 -0.1331
  166MOL0     H22394   3.423   5.556   1.382  2.3153  0.4720  0.5299
  166MOL0     H22395   3.219   5.608   1.508 -0.8621 -0.0169 -1.1379
  166MOL0     H22396   1.725   6.373   2.518 -2.0046 -2.1541  1.8220
  166MOL0     H22397   1.501   6.472   2.418 -1.0990 -0.5775 -1.0478
  166MOL0     H22398   1.053   6.269   2.027  1.2528  0.2035 -0.4479
  166MOL0     H22399   0.816   6.336   2.033  0.3903  0.4276 -0.6023
  166MOL0     H22400   0.534   6.489   2.137  0.9153 -0.2917 -0.1644
  166MOL0     H22401   0.611   6.323   2.118 -2.0710 -2.9509  1.9686
  166MOL0     H22402   0.409   6.332   2.270 -0.5925 -4.5459  1.5250
  166MOL0     H22403   0.513   6.413   2.385 -0.5551 -3.9785  2.8389
  166MOL0     H22404   0.673   6.250   2.404 -0.2658  3.6812  0.3118
  166MOL0     H22405   0.626   6.171   2.249  4.5302  0.3708  0.4087
  166MOL0     H22406   0.493   6.190   2.520  4.5916  1.0389  0.9435
  166MOL0     H22407   0.559   6.039   2.443 -1.9014 -1.8428 -4.0313
  166MOL0     H22408   0.207   6.004   2.250  1.1656 -0.5438 -2.3289
  166MOL0     H22409   0.898   6.546   2.414 -0.8981 -0.1072 -0.7237
  166MOL0     H22410   1.133   6.460   2.393  1.5119 -0.5917 -0.5518
  167MOL0     O22411   1.857   0.305   1.196 -0.2042 -0.6553 -0.7573
  167MOL0     C22412   1.842   0.225   1.289 -0.9775  0.0270 -0.2424
  167MOL0     O22413   1.912   0.237   1.408  0.3708 -0.2336  0.0839
  167MOL0     C22414   1.975   0.356   1.434 -0.2112 -0.2221  0.7618
  167MOL0     C22415   1.948   0.486   1.375  0.0003 -0.7735  0.1665
  167MOL0     C22416   2.025   0.598   1.415  0.5740 -0.9796  0.5813
  167MOL0     C22417   2.133   0.587   1.508  0.4893 -0.7210 -0.1123
  167MOL0     O22418   2.200   0.704   1.521  0.9524  0.2098  0.0823
  167MOL0     C22419   2.282   0.706   1.642  0.6039  0.1630 -0.1986
  167MOL0     C22420   2.346   0.842   1.678 -0.8071  0.3661 -0.3404
  167MOL0     C22421   2.381   0.854   1.829 -0.1737  0.3386  1.1564
  167MOL0     C22422   2.484   0.750   1.859 -1.0021 -0.7383  0.4413
  167MOL0     C22423   2.542   0.760   1.999  0.0388  0.4105 -0.1013
  167MOL0     C22424   2.451   0.687   2.103 -0.1590  1.2877 -0.3949
  167MOL0     C22425   2.496   0.694   2.249 -0.4017 -1.1112  0.6592
  167MOL0     C22426   2.396   0.777   2.343  0.2164  0.9655  0.2746
  167MOL0     N22427   2.259   0.725   2.341 -0.1725  0.2741 -0.1168
  167MOL0     C22428   2.212   0.609   2.401 -0.0989  0.6814  0.2759
  167MOL0     C22429   2.079   0.595   2.362 -0.1201 -0.4211  0.2062
  167MOL0     C22430   1.990   0.486   2.418 -1.3060  0.3373  0.9548
  167MOL0     C22431   2.007   0.358   2.328 -0.2461 -2.1609  0.3720
  167MOL0     C22432   1.913   0.246   2.374 -1.0547 -0.3724 -0.7523
  167MOL0     C22433   1.911   0.107   2.297 -0.3377  0.1034 -0.3514
  167MOL0     O22434   2.024   0.095   2.213  0.1030 -0.9783 -0.4674
  167MOL0     C22435   2.113   0.005   2.256  0.2406  0.3079 -0.3372
  167MOL0     C22436   2.240   0.045   2.261 -0.4956 -0.3903  0.0390
  167MOL0     C22437   2.339  -0.038   2.309 -0.1780  0.4727  0.2352
  167MOL0     C22438   2.474   0.005   2.307  0.2901 -0.6325  0.1185
  167MOL0     C22439   2.308  -0.181   2.337 -0.2656 -0.7276  0.0833
  167MOL0     C22440   2.396  -0.286   2.367 -0.2920 -0.0218 -0.4362
  167MOL0     O22441   2.337  -0.406   2.358  0.4035  0.6498  0.4729
  167MOL0     C22442   2.385  -0.522   2.410 -0.3705  0.1986 -0.1634
  167MOL0     C22443   2.461  -0.611   2.334 -0.9487  0.3045  0.5156
  167MOL0     C22444   2.520  -0.727   2.383 -0.1193 -0.3571  0.0853
  167MOL0     C22445   2.500  -0.766   2.522 -0.3206 -0.3065 -0.5422
  167MOL0     O22446   2.546  -0.870   2.597  0.3677 -1.1198  0.2696
  167MOL0     C22447   2.628  -0.961   2.519  0.7147 -0.1396  0.7362
  167MOL0     C22448   2.750  -1.023   2.589 -0.1609 -0.4764 -0.4142
  167MOL0     C22449   2.737  -1.104   2.713  0.0681  0.1367  0.0571
  167MOL0     C22450   2.875  -1.154   2.757 -0.1557  0.0330  0.3536
  167MOL0     C22451   2.872  -1.179   2.904  0.5641  0.1792 -0.4898
  167MOL0     C22452   2.990  -1.270   2.932  0.4121  0.2516  0.5260
  167MOL0     C22453   3.002  -1.354   3.059 -0.0133  0.4050  0.1168
  167MOL0     C22454   2.977  -1.267   3.183  0.4362  0.6037 -0.1171
  167MOL0    Cl22455   2.981  -1.385   3.318 -0.2289  0.0235  0.1996
  167MOL0     C22456   2.410  -0.695   2.595 -0.1663 -0.3228 -0.1692
  167MOL0     C22457   2.354  -0.569   2.543 -0.6794  0.0720  0.6170
  167MOL0     O22458   2.507  -0.270   2.420  0.1378  0.6299  0.5215
  167MOL0     C22459   2.176  -0.216   2.331  0.1058 -0.1621  0.0703
  167MOL0     C22460   2.081  -0.131   2.278 -0.6835 -0.0366  0.9282
  167MOL0     N22461   2.046   0.708   2.282 -0.8095 -0.6791  0.0817
  167MOL0     N22462   2.153   0.778   2.260  0.4851 -0.4080  0.1556
  167MOL0     C22463   2.158   0.461   1.563  0.0213  1.3960 -0.4526
  167MOL0     C22464   2.076   0.350   1.532  0.0149 -0.6390 -0.0300
  167MOL0     C22465   1.737   0.123   1.276 -0.0454  0.8858  0.9974
  167MOL0     C22466   1.727   0.012   1.372 -0.0775 -0.6165 -0.6901
  167MOL0     C22467   1.642  -0.091   1.366 -0.3231  0.5480 -0.4503
  167MOL0     C22468   1.554  -0.097   1.261 -0.5430  0.3491  0.3738
  167MOL0     O22469   1.464  -0.189   1.238  0.4541  0.0173 -0.0199
  167MOL0     C22470   1.353  -0.155   1.325  0.8476  1.1737 -0.5029
  167MOL0     C22471   1.265  -0.274   1.342  0.6538 -0.7700 -0.6925
  167MOL0     C22472   1.306  -0.374   1.450 -0.7340  1.1182 -0.6409
  167MOL0     C22473   1.209  -0.491   1.474 -0.6092 -0.3234 -0.3258
  167MOL0     C22474   1.074  -0.442   1.509  0.4592 -0.8476  0.4245
  167MOL0     C22475   0.962  -0.412   1.536  0.6906 -0.0460 -0.2738
  167MOL0     C22476   1.556   0.002   1.165 -0.0236 -0.2356  0.6534
  167MOL0     C22477   1.643   0.115   1.172 -0.3273 -0.9575 -0.9447
  167MOL0     H22478   1.874   0.504   1.298  0.6439 -0.6170 -0.4258
  167MOL0     H22479   2.025   0.693   1.363  0.2921 -0.3325  1.7472
  167MOL0     H22480   2.230   0.668   1.730 -0.1059  1.6218  0.0559
  167MOL0     H22481   2.360   0.631   1.627  0.8908  0.9967 -3.6936
  167MOL0     H22482   2.436   0.857   1.618 -0.5408  3.3650  0.6467
  167MOL0     H22483   2.289   0.928   1.643  1.4610  2.5285  0.9511
  167MOL0     H22484   2.429   0.951   1.840  0.7931 -0.0216  0.3074
  167MOL0     H22485   2.291   0.849   1.891 -2.2887 -1.3778 -1.7776
  167MOL0     H22486   2.443   0.649   1.848  1.0850 -1.7195  1.2544
  167MOL0     H22487   2.563   0.766   1.786 -1.7156  1.0842  0.0366
  167MOL0     H22488   2.640   0.711   2.007 -1.0967 -1.8411  0.9683
  167MOL0     H22489   2.546   0.866   2.027  2.4723  0.6079 -0.8998
  167MOL0     H22490   2.351   0.729   2.113 -0.6958  0.6615 -2.5335
  167MOL0     H22491   2.447   0.580   2.084 -0.3439  1.5251 -1.7957
  167MOL0     H22492   2.506   0.596   2.298 -1.7179 -1.2195  0.7286
  167MOL0     H22493   2.596   0.738   2.250 -0.3985 -0.9264 -2.0356
  167MOL0     H22494   2.393   0.880   2.307 -0.4149 -0.4375 -4.3480
  167MOL0     H22495   2.432   0.773   2.446  1.8619 -1.0102 -0.3022
  167MOL0     H22496   2.276   0.543   2.459 -0.6155  0.4772  0.6301
  167MOL0     H22497   2.019   0.473   2.522  3.9400 -0.1697 -0.3239
  167MOL0     H22498   1.888   0.526   2.408 -1.4874 -0.3122  0.0038
  167MOL0     H22499   2.111   0.326   2.320 -0.0609 -2.5912  3.3821
  167MOL0     H22500   1.966   0.395   2.233 -2.0185  3.4539  2.9039
  167MOL0     H22501   1.814   0.290   2.362 -0.0847  1.7734 -1.6387
  167MOL0     H22502   1.930   0.226   2.480 -1.1048  2.6619 -0.0624
  167MOL0     H22503   1.822   0.106   2.233  0.8960 -3.4086 -2.3442
  167MOL0     H22504   1.899   0.020   2.362 -2.0279  0.3295 -0.3330
  167MOL0     H22505   2.259   0.150   2.239 -1.6187  0.4169  2.5495
  167MOL0     H22506   2.537  -0.051   2.238  1.4777 -2.2114  2.3316
  167MOL0     H22507   2.480   0.109   2.276  1.1404 -0.8912 -0.5943
  167MOL0     H22508   2.510   0.002   2.410  2.3639 -0.4678 -0.5692
  167MOL0     H22509   2.474  -0.597   2.228  0.6152 -1.6527  0.3919
  167MOL0     H22510   2.576  -0.789   2.313 -1.3124 -1.8504  0.3924
  167MOL0     H22511   2.571  -1.046   2.479  2.8566 -0.1119 -2.8463
  167MOL0     H22512   2.677  -0.907   2.437 -0.5270 -0.0640  0.0109
  167MOL0     H22513   2.776  -1.108   2.525 -0.8206 -0.4947 -0.6672
  167MOL0     H22514   2.828  -0.946   2.590 -2.0225  1.5049 -0.6979
  167MOL0     H22515   2.675  -1.189   2.685  2.4853 -2.3840  1.7953
  167MOL0     H22516   2.700  -1.036   2.790 -0.9105  1.4939 -1.5398
  167MOL0     H22517   2.890  -1.237   2.687  2.1032  1.6499 -1.2041
  167MOL0     H22518   2.948  -1.078   2.727 -1.2208  0.5849 -0.8979
  167MOL0     H22519   2.781  -1.235   2.928  0.9850  0.2309  1.3141
  167MOL0     H22520   2.876  -1.094   2.971  1.4772 -1.6310  1.8973
  167MOL0     H22521   3.009  -1.344   2.855 -2.4826 -1.6806  1.5192
  167MOL0     H22522   3.071  -1.197   2.927 -2.0235  3.1194  0.1799
  167MOL0     H22523   3.108  -1.382   3.060  0.8893  3.4169  2.2707
  167MOL0     H22524   2.939  -1.442   3.044 -1.2094  1.3219 -0.4024
  167MOL0     H22525   2.876  -1.226   3.181  0.2870  0.8422  3.9776
  167MOL0     H22526   3.060  -1.195   3.189  0.5812  0.4356 -0.1039
  167MOL0     H22527   2.387  -0.731   2.694 -0.3308 -1.2380 -0.5372
  167MOL0     H22528   2.289  -0.500   2.596 -1.5113  0.0337 -0.3422
  167MOL0     H22529   2.133  -0.309   2.367 -0.1519 -0.9852 -2.2121
  167MOL0     H22530   1.979  -0.158   2.250 -0.3866  2.5329 -3.6491
  167MOL0     H22531   2.236   0.441   1.637 -1.7926 -1.1398  0.9013
  167MOL0     H22532   2.102   0.255   1.577 -0.1813 -0.2078  1.0216
  167MOL0     H22533   1.791   0.023   1.459 -3.1067  3.0393  1.4043
  167MOL0     H22534   1.635  -0.160   1.450 -0.8406  1.0099 -0.1027
  167MOL0     H22535   1.396  -0.116   1.418  4.2687 -0.1584 -1.3474
  167MOL0     H22536   1.294  -0.076   1.279 -2.6695 -1.5631 -1.1555
  167MOL0     H22537   1.265  -0.322   1.244  1.8867 -3.6929  0.5989
  167MOL0     H22538   1.171  -0.225   1.369  0.8994  1.4810 -3.4387
  167MOL0     H22539   1.302  -0.338   1.553  1.3344 -0.3239  0.0309
  167MOL0     H22540   1.402  -0.423   1.430 -2.2745 -4.2975  3.1234
  167MOL0     H22541   1.239  -0.568   1.547  2.0796  1.4925  0.6326
  167MOL0     H22542   1.205  -0.541   1.377 -2.5959  1.8328 -1.4638
  167MOL0     H22543   0.862  -0.375   1.535  2.3687  5.3167  0.6100
  167MOL0     H22544   1.498  -0.007   1.073  1.7120  2.9462 -0.9079
  167MOL0     H22545   1.657   0.190   1.094 -3.0233  3.0152  2.0081
  168MOL0     O22546  10.933   2.360   9.320 -0.4810 -0.1562  0.2727
  168MOL0     C22547  10.869   2.361   9.427 -0.7420 -0.4853  0.1492
  168MOL0     O22548  10.730   2.382   9.438 -0.5726 -0.8195  0.4637
  168MOL0     C22549  10.665   2.362   9.321 -0.3845 -0.4832  0.8898
  168MOL0     C22550  10.656   2.469   9.224 -0.1529  0.7298 -0.2798
  168MOL0     C22551  10.589   2.444   9.109  0.7502 -0.0897  0.3470
  168MOL0     C22552  10.519   2.321   9.086  0.4355 -0.3757  0.0213
  168MOL0     O22553  10.460   2.303   8.973  0.1809 -0.3971  0.7314
  168MOL0     C22554  10.324   2.273   8.975 -0.1641  0.5858 -0.2606
  168MOL0     C22555  10.270   2.315   8.838 -0.0533  0.0251 -0.3978
  168MOL0     C22556  10.285   2.467   8.816 -0.0925 -0.3498  0.2601
  168MOL0     C22557  10.295   2.502   8.667 -0.2383 -1.5812  0.8999
  168MOL0     C22558  10.301   2.655   8.634  0.0358  0.4087 -0.0760
  168MOL0     C22559  10.426   2.733   8.686  0.3300 -0.7246 -0.2861
  168MOL0     C22560  10.556   2.649   8.646  0.1841 -0.0291 -0.7216
  168MOL0     C22561  10.671   2.737   8.671  0.4734  0.2782  0.0857
  168MOL0     N22562  10.786   2.656   8.680 -0.6004  0.2328 -0.1924
  168MOL0     C22563  10.815   2.570   8.784 -0.9240  0.4464 -0.2319
  168MOL0     C22564  10.942   2.515   8.749  0.0086  0.1965 -1.0495
  168MOL0     C22565  11.020   2.415   8.828 -0.5822  1.1004  0.4966
  168MOL0     C22566  10.945   2.292   8.884  0.0819  0.5599  0.7226
  168MOL0     C22567  11.027   2.176   8.943 -0.1153  0.1864  0.0012
  168MOL0     C22568  11.171   2.192   9.003 -0.6453 -0.4792  0.3161
  168MOL0     O22569  11.240   2.071   9.033  0.2585 -0.3276 -1.1499
  168MOL0     C22570  11.245   2.033   9.170 -0.1161  0.5513 -0.1796
  168MOL0     C22571  11.350   1.943   9.196 -0.2581 -0.4878 -0.1975
  168MOL0     C22572  11.373   1.886   9.318 -0.0094 -0.1885 -0.5437
  168MOL0     C22573  11.489   1.789   9.334 -0.2062 -0.4318  0.0541
  168MOL0     C22574  11.282   1.920   9.425 -0.5841  0.3061  0.4970
  168MOL0     C22575  11.294   1.852   9.558  0.4998 -0.7807 -0.6263
  168MOL0     O22576  11.208   1.894   9.653 -0.3280 -0.9542  0.2677
  168MOL0     C22577  11.163   1.795   9.746 -0.1120  0.0116  0.5632
  168MOL0     C22578  11.121   1.660   9.717 -0.3566  0.0703  0.0131
  168MOL0     C22579  11.079   1.574   9.816  0.4977  0.5145  0.3046
  168MOL0     C22580  11.073   1.617   9.948 -0.3328  0.2468 -0.4420
  168MOL0     O22581  11.040   1.525  10.039  0.3940 -1.1149 -0.7571
  168MOL0     C22582  11.146   1.447  10.073  0.6431 -0.0135 -0.6016
  168MOL0     C22583  11.210   1.497  10.207  0.7677 -0.4222  0.3250
  168MOL0     C22584  11.108   1.551  10.307 -0.4216  0.3142 -0.6476
  168MOL0     C22585  11.161   1.554  10.453  0.4608 -0.6031  0.1446
  168MOL0     C22586  11.044   1.573  10.543 -0.0745 -0.8348 -0.2262
  168MOL0     C22587  11.092   1.542  10.689  0.5708 -0.3469 -0.3350
  168MOL0     C22588  10.972   1.545  10.780  0.3073 -1.1712 -0.1481
  168MOL0     C22589  11.013   1.501  10.914 -0.4021  0.5054  0.7402
  168MOL0    Cl22590  10.979   1.322  10.911 -0.0269 -0.2754  0.7503
  168MOL0     C22591  11.104   1.745   9.986 -1.0140  0.0879  0.2951
  168MOL0     C22592  11.144   1.835   9.882 -0.2877  0.2506  0.6763
  168MOL0     O22593  11.365   1.752   9.565  0.1605  0.3930  0.4541
  168MOL0     C22594  11.173   2.001   9.393 -0.4599 -0.1649 -1.0415
  168MOL0     C22595  11.154   2.065   9.268 -0.1794 -0.2001 -0.3298
  168MOL0     N22596  10.976   2.567   8.622  0.3809  0.0773 -0.7805
  168MOL0     N22597  10.890   2.649   8.590  0.9470 -0.7861  0.0698
  168MOL0     C22598  10.527   2.218   9.170 -0.0524  0.8875 -0.5476
  168MOL0     C22599  10.600   2.240   9.293  0.4363  1.2128  0.3965
  168MOL0     C22600  10.953   2.360   9.551 -1.2284  0.1012  0.1533
  168MOL0     C22601  10.893   2.372   9.679  0.6048 -0.1467  0.3393
  168MOL0     C22602  10.980   2.389   9.798  1.0296 -0.3339 -0.1391
  168MOL0     C22603  11.112   2.365   9.789 -0.1633  0.9382 -0.2014
  168MOL0     O22604  11.197   2.371   9.893 -0.4769 -0.1034  0.2557
  168MOL0     C22605  11.144   2.330  10.020 -0.1094 -0.4916  0.2904
  168MOL0     C22606  11.253   2.282  10.112  0.6670 -1.1191 -0.6554
  168MOL0     C22607  11.318   2.153  10.063 -0.5259  0.0657  0.3140
  168MOL0     C22608  11.454   2.134  10.151  0.5610 -1.3875 -1.0249
  168MOL0     C22609  11.516   2.000  10.148  0.4908  0.6429 -0.8871
  168MOL0     C22610  11.544   1.882  10.130  0.5515  0.6519  0.0396
  168MOL0     C22611  11.167   2.332   9.662  0.1221 -0.4089 -0.4320
  168MOL0     C22612  11.090   2.327   9.543 -0.2711 -0.5248 -0.8203
  168MOL0     H22613  10.702   2.563   9.250  0.2841  0.2405  0.8029
  168MOL0     H22614  10.586   2.511   9.023 -1.1946  0.6903  0.9551
  168MOL0     H22615  10.306   2.166   8.981 -1.0302  0.6488 -1.3612
  168MOL0     H22616  10.267   2.323   9.053 -2.0731  1.9976 -2.4063
  168MOL0     H22617  10.319   2.262   8.756  1.1786  0.7720 -0.1639
  168MOL0     H22618  10.166   2.282   8.829  0.6322 -2.6844  0.6317
  168MOL0     H22619  10.188   2.510   8.843 -0.2545 -0.3647 -0.2911
  168MOL0     H22620  10.365   2.518   8.871  0.8123  1.9946 -2.9686
  168MOL0     H22621  10.386   2.457   8.626  2.2070 -0.5503  4.7225
  168MOL0     H22622  10.206   2.476   8.609 -2.6390  2.9445  2.1119
  168MOL0     H22623  10.311   2.656   8.525  1.6800 -2.5751 -0.0773
  168MOL0     H22624  10.203   2.690   8.667 -0.8386 -3.3439  1.8202
  168MOL0     H22625  10.423   2.837   8.652 -0.1518 -1.3291 -2.2318
  168MOL0     H22626  10.423   2.733   8.795 -3.4436 -0.6298 -0.2651
  168MOL0     H22627  10.561   2.551   8.693 -1.2407 -1.1550 -2.7521
  168MOL0     H22628  10.544   2.630   8.539  2.9797 -2.1566 -0.7651
  168MOL0     H22629  10.670   2.791   8.766  4.7207  1.6258 -0.4628
  168MOL0     H22630  10.681   2.810   8.591  1.4951  2.0310  1.7322
  168MOL0     H22631  10.751   2.565   8.872 -1.5016  2.3885 -0.4764
  168MOL0     H22632  11.096   2.378   8.758 -2.0936  0.8887 -1.0866
  168MOL0     H22633  11.078   2.460   8.910  1.7691  0.6490 -0.8091
  168MOL0     H22634  10.897   2.241   8.800  0.1295  2.5427 -0.5590
  168MOL0     H22635  10.861   2.316   8.950 -0.0839  0.0188  0.7136
  168MOL0     H22636  11.045   2.116   8.853  0.1130 -0.3568  0.4069
  168MOL0     H22637  10.966   2.124   9.018 -1.5388 -1.7916 -2.3684
  168MOL0     H22638  11.165   2.257   9.091 -0.5917 -1.1860  0.8513
  168MOL0     H22639  11.228   2.248   8.928 -0.7578  0.3740  0.8600
  168MOL0     H22640  11.411   1.921   9.109 -2.5716 -1.3779 -1.6931
  168MOL0     H22641  11.574   1.816   9.270  2.1220 -2.3896  2.1223
  168MOL0     H22642  11.539   1.786   9.431 -2.6741  0.9154  1.4842
  168MOL0     H22643  11.443   1.693   9.308 -1.8659  0.1318  0.7636
  168MOL0     H22644  11.130   1.618   9.617  3.0956 -2.7100  1.2529
  168MOL0     H22645  11.027   1.482   9.795  2.0336 -0.5773  1.0688
  168MOL0     H22646  11.107   1.347  10.090 -1.7412  1.0091  0.3654
  168MOL0     H22647  11.222   1.449   9.994 -0.4776  4.0893 -1.8418
  168MOL0     H22648  11.265   1.407  10.237  0.8803 -1.0905 -1.7003
  168MOL0     H22649  11.292   1.568  10.193  2.0496 -2.1040 -1.1927
  168MOL0     H22650  11.015   1.494  10.293  1.0940 -1.9961 -1.9558
  168MOL0     H22651  11.101   1.655  10.276  2.0877  0.8047  0.1821
  168MOL0     H22652  11.213   1.460  10.472  4.7497  1.2571 -1.0989
  168MOL0     H22653  11.243   1.625  10.463 -0.6717  0.5698  1.4069
  168MOL0     H22654  10.973   1.492  10.524  0.0889 -1.4328  1.4892
  168MOL0     H22655  11.003   1.674  10.535 -0.3931 -1.0143 -1.0150
  168MOL0     H22656  11.156   1.453  10.689  0.8309 -0.1655  0.3732
  168MOL0     H22657  11.154   1.623  10.728 -1.3576 -0.0357  2.3335
  168MOL0     H22658  10.889   1.484  10.742  1.0945 -2.4890  0.1572
  168MOL0     H22659  10.924   1.643  10.781 -3.6730 -2.8443  2.7662
  168MOL0     H22660  10.953   1.549  10.992 -0.2061  3.6713 -0.9000
  168MOL0     H22661  11.114   1.526  10.947 -0.8501  1.1760  1.6520
  168MOL0     H22662  11.087   1.769  10.091 -1.0867  0.1738  0.2634
  168MOL0     H22663  11.168   1.939   9.903  2.3204 -0.9281  4.8428
  168MOL0     H22664  11.097   2.009   9.470  0.4118 -0.9649 -0.0708
  168MOL0     H22665  11.069   2.128   9.247 -1.7277 -1.8287  0.7425
  168MOL0     H22666  10.499   2.115   9.149 -1.5958  0.6351  2.1953
  168MOL0     H22667  10.611   2.150   9.353 -0.1590  0.4808 -0.5714
  168MOL0     H22668  10.786   2.386   9.690  0.2110 -0.2873 -2.6793
  168MOL0     H22669  10.939   2.439   9.886  1.0182  1.4094 -1.0926
  168MOL0     H22670  11.094   2.414  10.069  0.0360  0.6195 -1.3929
  168MOL0     H22671  11.076   2.245  10.024  0.8453 -1.2290  3.3791
  168MOL0     H22672  11.208   2.266  10.210  0.2279 -0.4074 -0.7356
  168MOL0     H22673  11.340   2.347  10.098 -0.2071 -0.3776 -3.3327
  168MOL0     H22674  11.338   2.143   9.956 -1.9645 -0.3815  0.0672
  168MOL0     H22675  11.253   2.068  10.087 -1.7172  1.7389  3.5951
  168MOL0     H22676  11.438   2.166  10.255  3.6133 -0.1412 -0.8151
  168MOL0     H22677  11.537   2.190  10.107  0.7511 -0.9055 -0.0886
  168MOL0     H22678  11.566   1.777  10.138 -1.3798  0.3323  2.5168
  168MOL0     H22679  11.274   2.315   9.653  0.2224 -0.5001  0.8052
  168MOL0     H22680  11.131   2.288   9.451 -0.7826  2.3496 -2.3821
  169MOL0     O22681   0.438   1.714   3.594 -0.0769  0.4465 -0.5385
  169MOL0     C22682   0.502   1.788   3.526  0.0773 -0.3472  0.4984
  169MOL0     O22683   0.615   1.767   3.463  0.0346 -0.0500  0.6940
  169MOL0     C22684   0.689   1.647   3.461  0.7361  0.4429  1.2929
  169MOL0     C22685   0.680   1.552   3.546  0.1072  0.6796 -0.4224
  169MOL0     C22686   0.747   1.428   3.524  0.3822 -0.5734 -0.3653
  169MOL0     C22687   0.830   1.406   3.418 -0.9634 -0.0649 -0.5611
  169MOL0     O22688   0.869   1.273   3.405  0.1306 -0.2009 -0.5036
  169MOL0     C22689   0.929   1.221   3.276 -0.4208 -0.0075 -0.5849
  169MOL0     C22690   0.826   1.209   3.169 -0.5833 -0.1918  0.3660
  169MOL0     C22691   0.752   1.086   3.178  0.2224  0.4211  0.3554
  169MOL0     C22692   0.714   1.021   3.041  1.0755  0.4577  0.2172
  169MOL0     C22693   0.822   1.001   2.932  0.2349 -0.3077 -0.5802
  169MOL0     C22694   0.765   0.922   2.818  0.7591  0.5576  0.0142
  169MOL0     C22695   0.861   0.884   2.697  0.1080 -0.1188 -0.4890
  169MOL0     C22696   0.890   0.999   2.601  0.6315 -1.0329 -0.6301
  169MOL0     N22697   0.784   1.069   2.534  0.6389  0.0862 -0.3462
  169MOL0     C22698   0.742   1.194   2.574 -0.1287 -0.2578  0.2386
  169MOL0     C22699   0.700   1.254   2.462  1.1431 -0.7385  0.1598
  169MOL0     C22700   0.654   1.402   2.460  0.4272 -0.4918 -0.0274
  169MOL0     C22701   0.514   1.423   2.543  0.0613  0.3032 -0.4103
  169MOL0     C22702   0.467   1.564   2.565 -0.2649 -0.4786 -0.3671
  169MOL0     C22703   0.387   1.605   2.445  1.3531 -0.8414  0.5538
  169MOL0     O22704   0.331   1.737   2.470 -0.2517 -0.0745 -0.3781
  169MOL0     C22705   0.279   1.811   2.374  0.0109 -0.3267  0.2066
  169MOL0     C22706   0.281   1.943   2.392 -0.0299 -0.8017  0.7195
  169MOL0     C22707   0.229   2.027   2.300  0.0263  0.8111 -0.1491
  169MOL0     C22708   0.219   2.172   2.341 -0.4422 -0.6614  0.4766
  169MOL0     C22709   0.193   1.973   2.173  0.1590  0.1033  0.5613
  169MOL0     C22710   0.156   2.059   2.059  0.3141 -0.5232  0.6044
  169MOL0     O22711   0.175   2.189   2.069 -0.2713  0.0904 -0.2359
  169MOL0     C22712   0.195   2.279   1.965 -0.6287  0.2440  0.1992
  169MOL0     C22713   0.230   2.242   1.835  0.5440  0.3437  0.1342
  169MOL0     C22714   0.237   2.336   1.733 -0.7013  0.4781  0.0892
  169MOL0     C22715   0.230   2.475   1.760  0.2215 -0.6276 -0.3459
  169MOL0     O22716   0.244   2.580   1.673 -0.4601  0.2360  0.1631
  169MOL0     C22717   0.326   2.548   1.554 -0.0785  0.2027 -0.3164
  169MOL0     C22718   0.381   2.675   1.488  0.5655 -0.0811 -0.0666
  169MOL0     C22719   0.499   2.650   1.406 -0.6261 -1.1241  0.3196
  169MOL0     C22720   0.539   2.764   1.310  0.6842 -0.1098  0.3154
  169MOL0     C22721   0.675   2.726   1.241  0.0830  0.2492 -0.0417
  169MOL0     C22722   0.751   2.845   1.193 -0.0806  0.6614 -0.3498
  169MOL0     C22723   0.881   2.832   1.107  0.4782 -0.0816  0.0990
  169MOL0     C22724   0.949   2.974   1.106 -0.0221 -0.2745 -0.5156
  169MOL0    Cl22725   1.121   2.972   1.040  0.3365 -0.4249 -0.0001
  169MOL0     C22726   0.209   2.509   1.895 -0.2309  0.2642 -0.6230
  169MOL0     C22727   0.188   2.415   2.001  0.1345 -0.2130  0.2132
  169MOL0     O22728   0.107   2.002   1.965  0.4074  0.1564  0.1727
  169MOL0     C22729   0.195   1.833   2.158 -0.5071 -0.5519 -0.1832
  169MOL0     C22730   0.239   1.749   2.253  0.6167 -0.5532 -0.7489
  169MOL0     N22731   0.691   1.158   2.368 -0.6515 -0.2023  0.2384
  169MOL0     N22732   0.749   1.047   2.401 -0.0383  0.1452  0.2633
  169MOL0     C22733   0.855   1.515   3.327  0.2034 -0.9713 -0.7890
  169MOL0     C22734   0.785   1.639   3.355  1.2708  0.0788  0.0693
  169MOL0     C22735   0.440   1.920   3.490 -0.0690 -0.0007  0.0421
  169MOL0     C22736   0.316   1.963   3.546  0.0853  0.8552  0.1610
  169MOL0     C22737   0.261   2.083   3.507  0.3223 -0.0741  0.4615
  169MOL0     C22738   0.320   2.174   3.409 -0.2066  0.0286 -0.7418
  169MOL0     O22739   0.244   2.284   3.378  0.4895  0.3101  0.1905
  169MOL0     C22740   0.321   2.403   3.374 -0.2065 -0.6925  0.0663
  169MOL0     C22741   0.353   2.443   3.228  0.4619 -0.1443  0.3474
  169MOL0     C22742   0.229   2.490   3.144 -0.5286 -0.2299  0.7736
  169MOL0     C22743   0.180   2.625   3.204  1.1172 -1.1795 -0.6652
  169MOL0     C22744   0.093   2.710   3.109 -0.2006 -0.4625 -0.2590
  169MOL0     C22745   0.028   2.777   3.040 -0.5245 -0.5990 -0.5228
  169MOL0     C22746   0.444   2.131   3.347  0.0620 -0.5942 -0.9643
  169MOL0     C22747   0.502   2.007   3.389  0.5282 -0.1334 -0.3543
  169MOL0     H22748   0.606   1.539   3.624 -1.1780 -1.2849 -1.8477
  169MOL0     H22749   0.731   1.340   3.586 -2.9327  0.9777  1.2150
  169MOL0     H22750   1.006   1.294   3.249  0.2805 -0.8232 -0.8531
  169MOL0     H22751   0.982   1.127   3.294 -1.1847 -0.6729 -1.7120
  169MOL0     H22752   0.753   1.291   3.177  0.6437  0.9525  0.1955
  169MOL0     H22753   0.871   1.208   3.069  0.1426  2.0493  0.6233
  169MOL0     H22754   0.812   1.018   3.239  0.0530 -0.7217 -0.6865
  169MOL0     H22755   0.661   1.096   3.238 -0.7190  0.1854 -0.9726
  169MOL0     H22756   0.678   0.921   3.065  0.8944 -0.3872 -3.1377
  169MOL0     H22757   0.630   1.070   2.992  1.0531 -1.4802 -1.8294
  169MOL0     H22758   0.852   1.101   2.898 -2.0836  0.0922 -1.6204
  169MOL0     H22759   0.900   0.944   2.984  0.2885  0.9709  0.8067
  169MOL0     H22760   0.724   0.829   2.859 -0.6071  0.4503 -1.4745
  169MOL0     H22761   0.677   0.969   2.773 -0.1637 -0.2938  0.9030
  169MOL0     H22762   0.952   0.837   2.734 -0.7583 -2.1395 -0.7770
  169MOL0     H22763   0.809   0.802   2.644  3.0534 -1.3643 -1.6577
  169MOL0     H22764   0.959   0.960   2.525 -1.1714 -2.0944 -1.8173
  169MOL0     H22765   0.948   1.070   2.660  0.6283  0.0073 -1.8376
  169MOL0     H22766   0.747   1.235   2.674 -1.1259 -0.3430  0.3344
  169MOL0     H22767   0.744   1.456   2.491 -0.3735  0.4393  0.7699
  169MOL0     H22768   0.647   1.427   2.354  1.4289 -2.2189 -0.5342
  169MOL0     H22769   0.529   1.376   2.640 -2.9168 -1.5389 -0.7197
  169MOL0     H22770   0.436   1.363   2.495  0.2252 -1.8039  1.7526
  169MOL0     H22771   0.562   1.616   2.578  1.0032 -2.5567 -0.8795
  169MOL0     H22772   0.390   1.564   2.643 -1.7802 -0.1101 -1.8005
  169MOL0     H22773   0.311   1.534   2.413 -0.2144  1.2383 -0.6283
  169MOL0     H22774   0.446   1.616   2.354  0.6164  1.1110  0.2466
  169MOL0     H22775   0.306   1.958   2.496  0.7918 -1.3863  0.6186
  169MOL0     H22776   0.125   2.221   2.314 -0.6587  0.0279  2.3221
  169MOL0     H22777   0.216   2.173   2.451  0.2596  2.7054  0.5919
  169MOL0     H22778   0.307   2.229   2.309 -1.0104  1.7471  2.8148
  169MOL0     H22779   0.232   2.139   1.800 -3.3608 -0.0054  0.4080
  169MOL0     H22780   0.247   2.313   1.628 -1.9622  2.7966 -0.5839
  169MOL0     H22781   0.406   2.486   1.596 -1.6990 -1.6602  0.1875
  169MOL0     H22782   0.265   2.492   1.483 -2.3071 -0.9881  2.3610
  169MOL0     H22783   0.297   2.704   1.425 -0.8385 -1.1570  1.2333
  169MOL0     H22784   0.395   2.748   1.569  3.0358  0.8665 -1.2608
  169MOL0     H22785   0.486   2.561   1.343  1.8252  0.4019 -2.6407
  169MOL0     H22786   0.580   2.630   1.477  0.2916  1.2676  0.0308
  169MOL0     H22787   0.457   2.781   1.239  0.3660 -3.4430 -0.2612
  169MOL0     H22788   0.553   2.854   1.371  0.1610  1.5211 -1.8174
  169MOL0     H22789   0.654   2.655   1.161  0.3143  0.1712 -0.0311
  169MOL0     H22790   0.753   2.694   1.311 -1.8788 -4.2191  0.4142
  169MOL0     H22791   0.700   2.900   1.112  3.6825  2.5421 -1.6886
  169MOL0     H22792   0.780   2.910   1.276  2.8819 -1.2041  0.2050
  169MOL0     H22793   0.855   2.797   1.007  2.5707  2.7410 -1.6114
  169MOL0     H22794   0.945   2.749   1.138 -0.1144 -0.1039  1.2986
  169MOL0     H22795   0.944   3.023   1.204 -1.9871  2.2367 -1.7506
  169MOL0     H22796   0.885   3.038   1.045  0.9040 -1.2702 -2.6414
  169MOL0     H22797   0.208   2.613   1.926 -0.5721  0.2988 -0.7393
  169MOL0     H22798   0.174   2.453   2.101 -1.0822 -0.5533  0.1867
  169MOL0     H22799   0.182   1.777   2.066  0.6932 -3.0058  1.0461
  169MOL0     H22800   0.246   1.641   2.241 -2.2585 -0.7832 -1.1572
  169MOL0     H22801   0.916   1.511   3.237 -1.4384  1.3256 -2.0993
  169MOL0     H22802   0.808   1.723   3.291  0.3074 -0.0516 -0.4753
  169MOL0     H22803   0.260   1.909   3.622  2.2664  0.6092  1.6843
  169MOL0     H22804   0.160   2.102   3.542  0.9360 -1.6628  3.3500
  169MOL0     H22805   0.249   2.472   3.420  1.5122 -0.3426  2.4386
  169MOL0     H22806   0.405   2.397   3.443  0.8469  1.4700 -0.9579
  169MOL0     H22807   0.379   2.343   3.192  0.3588 -0.2145  0.4638
  169MOL0     H22808   0.439   2.510   3.219  0.8444 -0.8070 -1.2001
  169MOL0     H22809   0.147   2.419   3.149 -0.9837  0.3667  2.2324
  169MOL0     H22810   0.259   2.499   3.039  3.5584 -4.2429  1.3063
  169MOL0     H22811   0.261   2.686   3.245  0.1246  0.3051 -0.8431
  169MOL0     H22812   0.107   2.609   3.283 -1.2157  2.3761 -1.8344
  169MOL0     H22813  -0.031   2.841   2.977 -2.0391 -2.3599 -0.9689
  169MOL0     H22814   0.487   2.191   3.267 -0.9353  2.6609  0.7899
  169MOL0     H22815   0.594   1.972   3.343 -0.7936 -2.1329 -1.6362
  170MOL0     O22816   7.697   4.127  10.838  0.9070  0.2193  0.6267
  170MOL0     C22817   7.582   4.089  10.807 -0.8331 -0.2987  0.4736
  170MOL0     O22818   7.544   4.038  10.682  0.2448 -0.0697 -0.1450
  170MOL0     C22819   7.626   3.984  10.591 -1.0312  0.1665 -0.8942
  170MOL0     C22820   7.761   3.943  10.629 -0.4602  0.0330  1.0807
  170MOL0     C22821   7.836   3.874  10.549 -0.7949 -0.2287  0.8201
  170MOL0     C22822   7.793   3.853  10.412 -0.1105  0.5848 -0.6091
  170MOL0     O22823   7.868   3.803  10.303 -0.1010  1.0492 -0.2023
  170MOL0     C22824   8.009   3.786  10.324 -0.6910  0.5055  0.8082
  170MOL0     C22825   8.067   3.709  10.214  0.2020  1.0207 -0.1177
  170MOL0     C22826   8.069   3.782  10.083 -0.0884 -0.4760 -0.1027
  170MOL0     C22827   8.110   3.715   9.959 -0.9225  0.5402  0.5315
  170MOL0     C22828   8.258   3.651   9.962  0.8777 -0.7368 -0.6326
  170MOL0     C22829   8.322   3.623   9.820  0.0805  1.1771 -0.8235
  170MOL0     C22830   8.468   3.568   9.839 -0.3720 -0.1698  0.1931
  170MOL0     C22831   8.479   3.422   9.808  0.3223  0.2771 -0.0612
  170MOL0     N22832   8.610   3.355   9.832  0.5620 -0.6931  0.1360
  170MOL0     C22833   8.642   3.287   9.946 -0.4123  0.1491  0.3961
  170MOL0     C22834   8.756   3.230   9.919  0.4425 -0.4350  0.5242
  170MOL0     C22835   8.817   3.135  10.014 -0.8056 -0.7617 -0.4080
  170MOL0     C22836   8.750   3.015  10.075 -0.3789 -0.2188 -0.3648
  170MOL0     C22837   8.853   2.913  10.142  0.0237 -0.5294  0.6765
  170MOL0     C22838   8.780   2.817  10.222 -0.5577  0.6868 -1.0241
  170MOL0     O22839   8.711   2.727  10.142 -0.0222 -0.0492 -0.0960
  170MOL0     C22840   8.776   2.624  10.073  0.2517  0.0394 -0.1767
  170MOL0     C22841   8.693   2.526  10.013  0.1766  0.5301 -0.5614
  170MOL0     C22842   8.751   2.410   9.955 -0.2062 -0.3265  1.0689
  170MOL0     C22843   8.669   2.312   9.870 -0.6436  0.1953 -0.2902
  170MOL0     C22844   8.894   2.397   9.952 -1.3861  0.7583 -0.4146
  170MOL0     C22845   8.974   2.285   9.891 -0.3968 -0.5508 -0.4282
  170MOL0     O22846   8.918   2.161   9.903  0.6777  0.1843  0.0681
  170MOL0     C22847   8.965   2.068   9.810 -1.3667 -0.6858  0.0525
  170MOL0     C22848   9.007   1.951   9.861  0.3816 -1.0529 -0.5945
  170MOL0     C22849   9.034   1.844   9.773 -0.4652 -0.4869  0.2754
  170MOL0     C22850   9.023   1.862   9.636  0.2976  0.2467 -0.0429
  170MOL0     O22851   9.049   1.767   9.549  0.2189 -0.5142  0.3075
  170MOL0     C22852   9.185   1.723   9.538 -0.4569  0.2847  0.2189
  170MOL0     C22853   9.267   1.793   9.430  0.5439 -0.3764  0.8864
  170MOL0     C22854   9.366   1.896   9.465  0.6144  0.2011 -0.4114
  170MOL0     C22855   9.496   1.902   9.378  0.3673  0.5263  0.5050
  170MOL0     C22856   9.452   1.931   9.234  0.1504 -0.6175 -0.6464
  170MOL0     C22857   9.548   1.969   9.126 -0.6392 -1.5245 -0.0473
  170MOL0     C22858   9.655   2.063   9.184  0.3956 -0.3791  0.0827
  170MOL0     C22859   9.752   2.128   9.087  0.6629 -0.3379 -0.6951
  170MOL0    Cl22860   9.660   2.202   8.957 -0.0980 -0.1270  0.1986
  170MOL0     C22861   8.975   1.988   9.582 -0.2783 -0.3930 -0.2323
  170MOL0     C22862   8.944   2.087   9.673 -0.6544 -0.6599 -0.0402
  170MOL0     O22863   9.086   2.307   9.854  0.3739 -0.5462  0.1078
  170MOL0     C22864   8.969   2.502  10.012  0.3997  0.6112 -0.3943
  170MOL0     C22865   8.918   2.612  10.070 -0.3810  0.0538 -0.1292
  170MOL0     N22866   8.798   3.268   9.795  0.5070 -0.5100 -0.3007
  170MOL0     N22867   8.711   3.346   9.746  0.5313  0.1825  1.0754
  170MOL0     C22868   7.659   3.883  10.374 -0.5361 -0.1930 -0.0412
  170MOL0     C22869   7.583   3.962  10.465 -0.4963  0.8394 -0.3416
  170MOL0     C22870   7.486   4.115  10.905  0.1754  0.1615 -0.2916
  170MOL0     C22871   7.525   4.122  11.039  0.4423  0.6003  0.0719
  170MOL0     C22872   7.426   4.113  11.146 -0.8399 -0.0286  0.6528
  170MOL0     C22873   7.293   4.111  11.121  0.4492  0.1170 -1.2729
  170MOL0     O22874   7.207   4.112  11.228 -0.9168 -0.6233 -0.4402
  170MOL0     C22875   7.101   4.012  11.235  0.2590 -0.4534 -0.7172
  170MOL0     C22876   6.977   4.074  11.312 -0.3921  0.1307  0.8855
  170MOL0     C22877   7.014   4.105  11.462 -0.7280 -0.2915 -0.3879
  170MOL0     C22878   6.907   4.163  11.552 -0.4148  0.4411 -0.7445
  170MOL0     C22879   6.884   4.304  11.521  0.7111 -0.3716  0.1589
  170MOL0     C22880   6.856   4.420  11.517  0.1906 -0.4124  0.3351
  170MOL0     C22881   7.249   4.128  10.993  0.4232  0.1373 -0.1590
  170MOL0     C22882   7.343   4.104  10.886  0.7701 -0.7884 -0.6096
  170MOL0     H22883   7.800   3.947  10.731  0.6759 -4.0631  0.9911
  170MOL0     H22884   7.939   3.852  10.575  0.2923  2.1299 -1.0270
  170MOL0     H22885   8.063   3.882  10.321 -1.3099  0.8382 -0.6386
  170MOL0     H22886   8.043   3.724  10.407  0.5563 -0.9791 -0.7545
  170MOL0     H22887   8.158   3.652  10.232 -0.9381 -0.6555  0.5400
  170MOL0     H22888   7.988   3.636  10.196  1.0072  0.5162 -1.8116
  170MOL0     H22889   7.968   3.819  10.061  1.0287  0.9441 -3.6824
  170MOL0     H22890   8.123   3.876  10.093 -3.2561  1.5540 -0.4658
  170MOL0     H22891   8.037   3.638   9.933  0.5622 -0.0282 -2.4437
  170MOL0     H22892   8.103   3.788   9.878 -0.5617  0.3878  0.3602
  170MOL0     H22893   8.323   3.724  10.011  0.7520 -0.5734 -0.7113
  170MOL0     H22894   8.254   3.564  10.028  1.2471 -2.6856 -3.0322
  170MOL0     H22895   8.260   3.546   9.773  0.6909  1.5504 -2.2956
  170MOL0     H22896   8.320   3.705   9.748  1.3965  1.8149 -0.1660
  170MOL0     H22897   8.539   3.629   9.783  0.6898 -0.3381  1.3031
  170MOL0     H22898   8.503   3.574   9.943  2.1036 -1.5929 -0.4884
  170MOL0     H22899   8.449   3.410   9.703 -0.6401 -2.1725  0.4275
  170MOL0     H22900   8.402   3.364   9.859 -1.8668  2.5448 -0.5826
  170MOL0     H22901   8.589   3.270  10.039  2.6340 -1.1498  2.0580
  170MOL0     H22902   8.894   3.086   9.954 -0.4223 -0.7410  0.0553
  170MOL0     H22903   8.874   3.197  10.085 -1.2853  0.5080 -1.0991
  170MOL0     H22904   8.700   2.956   9.998  2.8605  0.3207 -3.0784
  170MOL0     H22905   8.681   3.050  10.153  0.3036 -1.3607  0.7764
  170MOL0     H22906   8.907   2.981  10.210 -0.4529 -0.3203  0.8518
  170MOL0     H22907   8.925   2.878  10.068  3.6060 -0.0121  3.5846
  170MOL0     H22908   8.707   2.878  10.277  0.4613 -0.5435  1.8915
  170MOL0     H22909   8.854   2.771  10.289  0.5869  4.8757  0.9351
  170MOL0     H22910   8.585   2.538  10.005  0.1653  2.9919  1.6789
  170MOL0     H22911   8.581   2.358   9.826 -1.3450 -0.0757  0.7827
  170MOL0     H22912   8.731   2.282   9.785  2.0783 -1.3872  2.0598
  170MOL0     H22913   8.626   2.227   9.924 -2.6000  1.2250 -0.1125
  170MOL0     H22914   9.009   1.930   9.967  0.5887  0.6567 -0.2332
  170MOL0     H22915   9.073   1.751   9.812  1.8157  0.3935  0.2610
  170MOL0     H22916   9.223   1.738   9.639  1.9840 -2.1536 -0.2040
  170MOL0     H22917   9.199   1.617   9.514  2.8433  0.9902 -1.6217
  170MOL0     H22918   9.336   1.715   9.399  0.4411  0.7888 -2.6861
  170MOL0     H22919   9.207   1.822   9.343  3.7009 -1.4988 -1.8669
  170MOL0     H22920   9.392   1.884   9.570 -1.1675  2.8865  0.4277
  170MOL0     H22921   9.309   1.989   9.460 -0.6377 -0.5295 -0.3591
  170MOL0     H22922   9.564   1.978   9.416  1.1645  0.9218 -1.6033
  170MOL0     H22923   9.552   1.808   9.382  0.7000  0.7469  1.2537
  170MOL0     H22924   9.383   2.016   9.241  0.2686 -0.6704  2.9453
  170MOL0     H22925   9.401   1.847   9.187 -0.1439 -2.1452  2.1792
  170MOL0     H22926   9.612   1.890   9.087  5.0137  2.0405  0.8802
  170MOL0     H22927   9.496   2.033   9.053  1.0358  0.2946  0.2748
  170MOL0     H22928   9.720   2.005   9.251  0.8653 -0.3324 -0.3294
  170MOL0     H22929   9.599   2.135   9.244  0.1824  0.2329 -0.8317
  170MOL0     H22930   9.801   2.039   9.046  2.8408  0.3246  0.3606
  170MOL0     H22931   9.838   2.176   9.135 -0.8847  0.5132  1.3920
  170MOL0     H22932   8.986   2.003   9.475 -1.2477  3.1892  0.0486
  170MOL0     H22933   8.904   2.187   9.659 -2.6964 -1.6748 -2.2834
  170MOL0     H22934   9.077   2.492  10.007  0.2181 -1.7012 -0.8101
  170MOL0     H22935   8.986   2.682  10.119 -1.8338 -0.9819  3.7096
  170MOL0     H22936   7.611   3.872  10.277 -1.2510 -2.3212  0.4996
  170MOL0     H22937   7.480   3.983  10.438 -1.8394 -4.1049  0.0672
  170MOL0     H22938   7.629   4.110  11.066  0.4623 -1.0955 -0.6425
  170MOL0     H22939   7.473   4.092  11.241 -1.3339  0.4543  1.0124
  170MOL0     H22940   7.076   3.979  11.134 -1.0963 -2.4406  0.1888
  170MOL0     H22941   7.128   3.921  11.289  0.6457  0.1023  0.0466
  170MOL0     H22942   6.885   4.016  11.300  1.3076 -2.2209 -2.1880
  170MOL0     H22943   6.949   4.169  11.264 -1.7458 -0.3695  0.6582
  170MOL0     H22944   7.106   4.164  11.472  0.8250 -2.3486 -1.6626
  170MOL0     H22945   7.046   4.011  11.509  1.1051  1.6416  2.6114
  170MOL0     H22946   6.943   4.147  11.655 -5.0462 -3.0185  0.6853
  170MOL0     H22947   6.813   4.110  11.537 -0.1091  0.4490 -3.0764
  170MOL0     H22948   6.822   4.521  11.511  0.4709 -0.1816  2.0148
  170MOL0     H22949   7.145   4.126  10.965  0.7092 -0.9427 -1.1848
  170MOL0     H22950   7.305   4.090  10.785 -0.2099 -0.0878 -0.3486
  171MOL0     O22951   6.389   0.133  11.101 -0.4025 -0.0293 -0.8401
  171MOL0     C22952   6.416   0.090  11.218  0.7532 -0.0185  0.2679
  171MOL0     O22953   6.533   0.072  11.279 -0.1219 -1.0246 -0.0371
  171MOL0     C22954   6.651   0.085  11.201 -0.3421 -0.1780 -0.0589
  171MOL0     C22955   6.767   0.159  11.254 -0.3081 -0.1901 -0.7028
  171MOL0     C22956   6.891   0.159  11.203  0.3950 -0.5928 -0.1415
  171MOL0     C22957   6.899   0.080  11.084 -0.3003  0.1636 -0.1324
  171MOL0     O22958   7.007   0.076  10.998 -0.7876 -0.0351 -0.2559
  171MOL0     C22959   7.138   0.115  11.050  1.2022  0.4055  0.1504
  171MOL0     C22960   7.235   0.016  11.002 -1.1261 -0.0299 -0.2134
  171MOL0     C22961   7.342   0.071  10.922 -0.2792  0.3293 -0.1315
  171MOL0     C22962   7.446  -0.034  10.885  0.3142  0.3990 -0.8564
  171MOL0     C22963   7.527  -0.007  10.759  0.4228 -1.0833  0.4599
  171MOL0     C22964   7.438  -0.019  10.632 -0.0983  0.7279  1.1149
  171MOL0     C22965   7.522  -0.005  10.503  0.8591 -0.4419 -0.8701
  171MOL0     C22966   7.433  -0.009  10.384 -0.2440  0.7812  0.1372
  171MOL0     N22967   7.500  -0.012  10.252 -0.0331 -1.3193 -0.0081
  171MOL0     C22968   7.546  -0.113  10.178  1.3372  0.0956  0.3218
  171MOL0     C22969   7.592  -0.056  10.066  0.5770  1.0073  0.3441
  171MOL0     C22970   7.670  -0.122   9.954 -0.8758 -0.0496  0.6398
  171MOL0     C22971   7.811  -0.166  10.013  0.0439  0.2300  0.8644
  171MOL0     C22972   7.870  -0.241   9.892 -0.2714 -0.1829 -0.1955
  171MOL0     C22973   8.004  -0.302   9.924 -0.8193 -0.6020  0.0626
  171MOL0     O22974   7.985  -0.383  10.041 -0.4334  0.1062 -0.4835
  171MOL0     C22975   8.069  -0.490  10.057 -0.3415 -0.3158  0.0654
  171MOL0     C22976   8.178  -0.531   9.968  0.5057 -1.0107 -0.3246
  171MOL0     C22977   8.264  -0.642   9.988  0.6089 -0.4627  0.1911
  171MOL0     C22978   8.371  -0.675   9.890  0.6157  0.8595  1.2714
  171MOL0     C22979   8.258  -0.704  10.111 -0.2613 -0.4726  0.5005
  171MOL0     C22980   8.345  -0.807  10.164  0.8169  0.8513  0.6346
  171MOL0     O22981   8.368  -0.808  10.302 -0.4355  0.4770 -0.8520
  171MOL0     C22982   8.478  -0.879  10.344  0.5746  0.4324 -0.3480
  171MOL0     C22983   8.603  -0.893  10.272 -0.2332 -0.7144  0.0803
  171MOL0     C22984   8.692  -0.988  10.313  0.0073 -0.3089 -0.3398
  171MOL0     C22985   8.677  -1.064  10.426  0.0134  0.2472  0.7575
  171MOL0     O22986   8.773  -1.157  10.442  0.0639 -0.1118 -0.4283
  171MOL0     C22987   8.790  -1.209  10.584 -1.1684  0.1577 -0.6494
  171MOL0     C22988   8.866  -1.334  10.566  0.1541  0.1835  0.7809
  171MOL0     C22989   9.009  -1.318  10.524  0.0048  0.3485  0.1874
  171MOL0     C22990   9.092  -1.454  10.532  0.8159  0.6411  0.3269
  171MOL0     C22991   9.231  -1.452  10.499  0.2896 -0.4971  0.5661
  171MOL0     C22992   9.251  -1.445  10.348 -0.8932  0.2345 -0.9126
  171MOL0     C22993   9.396  -1.451  10.305 -0.0367  0.4501 -0.0263
  171MOL0     C22994   9.471  -1.584  10.324 -0.5126  0.2650 -0.4317
  171MOL0    Cl22995   9.367  -1.726  10.346  0.4881  0.2899  0.2582
  171MOL0     C22996   8.559  -1.040  10.501 -0.3694  0.5129  0.4047
  171MOL0     C22997   8.465  -0.946  10.465 -0.7099 -0.6353  0.0971
  171MOL0     O22998   8.389  -0.896  10.089  0.0630  0.3916  0.5248
  171MOL0     C22999   8.153  -0.668  10.192 -0.5826 -0.4695 -0.1238
  171MOL0     C23000   8.062  -0.564  10.175 -0.7387 -0.4527  1.0829
  171MOL0     N23001   7.575   0.078  10.080 -0.6714 -1.0573 -0.2359
  171MOL0     N23002   7.515   0.109  10.189  0.4197 -0.0473 -0.3708
  171MOL0     C23003   6.792  -0.005  11.031  0.7352  1.1751  0.0472
  171MOL0     C23004   6.662   0.002  11.088 -0.5499 -0.7575  0.5128
  171MOL0     C23005   6.296   0.086  11.309 -0.5091  1.0064  0.4919
  171MOL0     C23006   6.300   0.038  11.442 -0.2657  0.8451 -0.5299
  171MOL0     C23007   6.201   0.047  11.537  0.5529 -0.5667  0.3779
  171MOL0     C23008   6.077   0.097  11.492  0.6417  0.4813 -0.8521
  171MOL0     O23009   5.964   0.117  11.577  0.0123 -0.5147 -0.1230
  171MOL0     C23010   5.935   0.026  11.685 -0.5048  0.2055 -0.7658
  171MOL0     C23011   5.783   0.009  11.701  0.8868  0.0550  0.6970
  171MOL0     C23012   5.736  -0.103  11.792 -0.2249 -0.3343  0.0917
  171MOL0     C23013   5.780  -0.077  11.938  0.5247 -0.4589 -0.1477
  171MOL0     C23014   5.772   0.064  11.975 -0.6249  0.1918 -1.1360
  171MOL0     C23015   5.778   0.185  12.001  0.3291 -0.0497 -0.4428
  171MOL0     C23016   6.063   0.127  11.353  0.2969  0.1755  0.2623
  171MOL0     C23017   6.171   0.122  11.264 -0.8313  0.0525 -0.3431
  171MOL0     H23018   6.751   0.207  11.350  2.7479  1.1482 -0.7676
  171MOL0     H23019   6.967   0.205  11.265  0.7094 -2.2648  0.7640
  171MOL0     H23020   7.153   0.214  11.005  0.0434  1.8267  2.6351
  171MOL0     H23021   7.143   0.136  11.157  2.9044  2.1624 -0.2203
  171MOL0     H23022   7.264  -0.055  11.081  1.0057 -1.8873 -2.5002
  171MOL0     H23023   7.189  -0.048  10.927  0.4197 -1.1325 -0.2784
  171MOL0     H23024   7.298   0.124  10.837  0.6794 -0.7596 -1.3500
  171MOL0     H23025   7.401   0.152  10.968  1.0444 -2.1248  2.8296
  171MOL0     H23026   7.502  -0.070  10.972 -1.8786 -1.5277 -0.1507
  171MOL0     H23027   7.386  -0.119  10.850  0.5095 -0.3194  0.4839
  171MOL0     H23028   7.581   0.088  10.762 -2.5951  0.7648 -0.2477
  171MOL0     H23029   7.607  -0.082  10.750  2.5028  1.2703 -2.9595
  171MOL0     H23030   7.404  -0.123  10.639  0.8197  0.2503 -0.8445
  171MOL0     H23031   7.356   0.054  10.632  0.2298  1.0978  1.0689
  171MOL0     H23032   7.565   0.096  10.508 -1.5071  0.6044 -0.3190
  171MOL0     H23033   7.604  -0.076  10.512  0.2075 -1.1503 -0.3468
  171MOL0     H23034   7.362   0.074  10.381 -0.0767  0.9134 -1.2269
  171MOL0     H23035   7.375  -0.100  10.393  3.0727 -1.5391 -0.0229
  171MOL0     H23036   7.550  -0.217  10.209 -0.1303 -0.3342 -0.8129
  171MOL0     H23037   7.620  -0.214   9.923 -0.3169  0.8426 -3.5671
  171MOL0     H23038   7.683  -0.051   9.871  3.6448 -0.1135  1.0461
  171MOL0     H23039   7.804  -0.220  10.108  0.3991  2.8425  2.5076
  171MOL0     H23040   7.873  -0.077  10.031 -0.3723  0.3418  1.8255
  171MOL0     H23041   7.893  -0.188   9.799 -1.0131 -2.2436 -1.6384
  171MOL0     H23042   7.802  -0.322   9.862 -0.5174  0.8010 -2.4934
  171MOL0     H23043   8.076  -0.221   9.933 -1.0655 -0.5066  1.2893
  171MOL0     H23044   8.034  -0.364   9.839  0.2922  1.1421 -0.8693
  171MOL0     H23045   8.196  -0.471   9.879  0.1005  1.9611  1.4439
  171MOL0     H23046   8.465  -0.680   9.946  1.7664 -2.2532 -0.6456
  171MOL0     H23047   8.356  -0.774   9.845  1.6442  0.4029  1.8884
  171MOL0     H23048   8.371  -0.602   9.809  0.3013 -1.6947 -1.2123
  171MOL0     H23049   8.612  -0.831  10.183 -2.0936  2.8941  2.1419
  171MOL0     H23050   8.787  -0.994  10.260  1.0240  2.2460  1.0270
  171MOL0     H23051   8.844  -1.138  10.647 -2.0879  1.0136 -0.7835
  171MOL0     H23052   8.693  -1.232  10.630 -0.5550  0.5270  0.8786
  171MOL0     H23053   8.864  -1.391  10.659 -1.0356  1.9573  1.9137
  171MOL0     H23054   8.805  -1.393  10.497  2.8854 -2.4570  0.4265
  171MOL0     H23055   9.066  -1.249  10.587  3.0175  1.1602 -3.0423
  171MOL0     H23056   9.022  -1.285  10.420  1.1657 -1.3390 -0.2548
  171MOL0     H23057   9.083  -1.501  10.630 -1.2434  0.6747  0.2070
  171MOL0     H23058   9.045  -1.533  10.473  0.5857  2.6222 -2.2987
  171MOL0     H23059   9.284  -1.542  10.531  1.2518 -0.2732 -0.3374
  171MOL0     H23060   9.276  -1.366  10.551  1.7832  0.2970 -1.8604
  171MOL0     H23061   9.210  -1.536  10.303  3.1101 -2.6565  0.6443
  171MOL0     H23062   9.197  -1.360  10.308 -0.8900 -0.7584 -3.1651
  171MOL0     H23063   9.459  -1.375  10.352 -0.9915  0.7922  0.7361
  171MOL0     H23064   9.390  -1.429  10.198 -1.1044  0.0987 -0.0530
  171MOL0     H23065   9.548  -1.587  10.402  0.0243 -2.1957 -0.9557
  171MOL0     H23066   9.519  -1.603  10.227 -1.7163 -0.6285 -0.8748
  171MOL0     H23067   8.536  -1.115  10.576  2.5433  1.1869  2.1261
  171MOL0     H23068   8.374  -0.930  10.522 -0.8914 -2.7870  0.4852
  171MOL0     H23069   8.120  -0.716  10.284 -1.5276  0.5524  0.0841
  171MOL0     H23070   7.979  -0.547  10.243 -1.9627 -0.6249 -0.3029
  171MOL0     H23071   6.799  -0.061  10.938  1.0098 -0.7379  1.1708
  171MOL0     H23072   6.581  -0.059  11.049  0.2578 -2.2720  1.1499
  171MOL0     H23073   6.395   0.006  11.484 -0.4830  0.3794 -0.3853
  171MOL0     H23074   6.223   0.014  11.637 -1.8191  0.7707  1.4336
  171MOL0     H23075   5.971  -0.077  11.670 -0.6750 -0.3197  1.9580
  171MOL0     H23076   5.982   0.068  11.774  0.4046 -1.5021 -0.3823
  171MOL0     H23077   5.740  -0.014  11.603  0.1629 -2.2567  1.4967
  171MOL0     H23078   5.742   0.105  11.735 -0.7322 -1.3313  2.9318
  171MOL0     H23079   5.758  -0.203  11.752  0.0934 -0.3252  0.2424
  171MOL0     H23080   5.628  -0.117  11.797 -0.1796 -1.4202 -1.0635
  171MOL0     H23081   5.885  -0.107  11.950  1.2493  0.2580 -3.6132
  171MOL0     H23082   5.719  -0.131  12.011  0.9078  0.5300  0.9217
  171MOL0     H23083   5.786   0.289  12.026 -0.9207 -0.4219  1.8131
  171MOL0     H23084   5.959   0.147  11.327  0.7424  1.8297 -0.3882
  171MOL0     H23085   6.144   0.130  11.159 -0.9754  1.5152 -0.2211
  172MOL0     O23086   5.271   8.205   3.479 -0.7019  0.3909  0.8756
  172MOL0     C23087   5.365   8.268   3.438  0.3370  0.2064 -0.4266
  172MOL0     O23088   5.409   8.273   3.321 -0.2357 -0.8383  0.1660
  172MOL0     C23089   5.335   8.219   3.211  0.0202  0.1574 -0.3748
  172MOL0     C23090   5.376   8.098   3.149 -0.1757  0.2831 -0.2949
  172MOL0     C23091   5.297   8.030   3.046 -0.0806  0.2775  0.0220
  172MOL0     C23092   5.186   8.096   3.000  0.9035  0.1011 -0.2046
  172MOL0     O23093   5.098   8.035   2.910 -0.3904  0.2381  1.0461
  172MOL0     C23094   4.997   7.948   2.971 -0.3294 -0.6199 -0.7175
  172MOL0     C23095   4.920   7.866   2.865 -0.3623 -0.3642 -1.7088
  172MOL0     C23096   5.015   7.760   2.797  0.3941  0.3015 -0.1824
  172MOL0     C23097   4.934   7.671   2.696  0.0169  0.3548 -0.8635
  172MOL0     C23098   5.014   7.556   2.642  0.1298 -0.3615  1.1385
  172MOL0     C23099   5.072   7.455   2.751  0.7109 -0.4938 -0.1951
  172MOL0     C23100   4.954   7.378   2.834  0.4651 -0.9935 -0.0876
  172MOL0     C23101   4.869   7.287   2.752  0.4059 -0.3806 -0.5073
  172MOL0     N23102   4.761   7.243   2.845  0.4582  1.5211 -0.8728
  172MOL0     C23103   4.757   7.250   2.982  0.1444  0.1243  0.6402
  172MOL0     C23104   4.642   7.182   3.004  0.2045  1.1520  0.4632
  172MOL0     C23105   4.585   7.157   3.141  0.2925 -0.3502  0.9484
  172MOL0     C23106   4.556   7.005   3.158 -1.2819 -0.3864 -0.1992
  172MOL0     C23107   4.683   6.920   3.118 -0.3054  0.2339 -0.4444
  172MOL0     C23108   4.695   6.794   3.201  0.9148  0.2960  0.3773
  172MOL0     O23109   4.817   6.726   3.174 -0.3077  0.4354 -0.1956
  172MOL0     C23110   4.842   6.618   3.262  0.5281  0.8472  0.1374
  172MOL0     C23111   4.936   6.632   3.357  0.1751 -0.1411  0.2737
  172MOL0     C23112   4.955   6.534   3.452 -0.8812 -0.0587  0.0145
  172MOL0     C23113   5.053   6.571   3.563  0.7635  0.2897  0.0138
  172MOL0     C23114   4.883   6.406   3.447  0.0440 -0.7584 -0.2401
  172MOL0     C23115   4.896   6.298   3.544  0.3828 -0.4410  0.7452
  172MOL0     O23116   4.797   6.199   3.530  0.2799 -0.5542 -0.1191
  172MOL0     C23117   4.796   6.122   3.643 -0.6049  0.3684 -0.7731
  172MOL0     C23118   4.715   6.147   3.758 -0.1913  0.9277  0.4011
  172MOL0     C23119   4.700   6.049   3.855  0.3824  0.6042  0.0116
  172MOL0     C23120   4.762   5.927   3.854  0.7615  1.4788  0.5367
  172MOL0     O23121   4.729   5.849   3.962  0.8694  0.6905  0.6957
  172MOL0     C23122   4.728   5.701   3.922  0.5750  0.4375 -0.9450
  172MOL0     C23123   4.672   5.612   4.036  0.3735  0.0687  0.2005
  172MOL0     C23124   4.512   5.627   4.061  0.1861  0.2970  0.1443
  172MOL0     C23125   4.489   5.766   4.124  0.1774 -0.8655 -0.7262
  172MOL0     C23126   4.346   5.781   4.175  0.2411  0.2895 -0.3401
  172MOL0     C23127   4.329   5.924   4.220  0.5287  0.0703  0.1833
  172MOL0     C23128   4.205   5.934   4.317  0.2135  0.1642  0.3705
  172MOL0     C23129   4.075   5.931   4.234  0.2975  0.7883 -0.1893
  172MOL0    Cl23130   4.049   6.082   4.152 -0.1309 -0.2642  0.3029
  172MOL0     C23131   4.852   5.906   3.747 -0.3162  0.5648 -0.4730
  172MOL0     C23132   4.868   6.004   3.648  0.0748  0.4544  0.2761
  172MOL0     O23133   4.983   6.300   3.630  0.6009  0.1009  0.5792
  172MOL0     C23134   4.794   6.398   3.343  0.2041  0.7654 -0.4874
  172MOL0     C23135   4.774   6.497   3.253  0.3338  0.0785 -0.9661
  172MOL0     N23136   4.581   7.135   2.889  1.0069 -0.5532  0.2481
  172MOL0     N23137   4.649   7.175   2.792 -0.0345  0.8440 -0.4103
  172MOL0     C23138   5.137   8.206   3.069  0.1122 -0.1619 -0.3720
  172MOL0     C23139   5.210   8.266   3.173  0.1693 -0.2605  0.9018
  172MOL0     C23140   5.413   8.363   3.535 -0.1275 -0.3074 -0.2191
  172MOL0     C23141   5.487   8.477   3.490  1.0090 -0.8043 -0.8663
  172MOL0     C23142   5.524   8.564   3.595 -0.0001  0.2928 -0.1341
  172MOL0     C23143   5.507   8.543   3.734  0.0616 -0.1574 -0.4346
  172MOL0     O23144   5.554   8.645   3.816 -0.3393 -0.0318  0.1452
  172MOL0     C23145   5.559   8.607   3.958 -0.3438 -0.1572 -0.0044
  172MOL0     C23146   5.623   8.720   4.048  0.2678 -0.3551  0.5138
  172MOL0     C23147   5.770   8.737   4.010 -0.4647 -1.4231  0.1022
  172MOL0     C23148   5.868   8.625   4.042  0.9930  0.1125 -0.2826
  172MOL0     C23149   5.893   8.601   4.188  1.2869  0.1679  0.2644
  172MOL0     C23150   5.906   8.581   4.304 -0.0952 -0.9831 -0.2015
  172MOL0     C23151   5.436   8.425   3.773 -0.5654  0.5399 -0.0801
  172MOL0     C23152   5.384   8.343   3.674 -0.1477  0.3794  0.2902
  172MOL0     H23153   5.466   8.048   3.183 -0.5212 -0.4157 -0.3786
  172MOL0     H23154   5.329   7.938   2.999  1.5383  0.5226  0.5843
  172MOL0     H23155   5.056   7.883   3.036  0.2385 -0.7436 -1.3406
  172MOL0     H23156   4.932   8.016   3.027  2.2358  0.8854  0.6278
  172MOL0     H23157   4.837   7.823   2.921 -1.5891  1.1542 -2.2913
  172MOL0     H23158   4.864   7.919   2.787 -0.2175 -0.6861 -2.0353
  172MOL0     H23159   5.095   7.809   2.739  1.3302 -0.0038  0.8114
  172MOL0     H23160   5.063   7.704   2.877 -1.6433 -0.2380  0.7139
  172MOL0     H23161   4.848   7.635   2.754  0.9120  3.9481  3.2410
  172MOL0     H23162   4.891   7.733   2.617 -1.3444 -1.2296 -1.4267
  172MOL0     H23163   4.946   7.501   2.576 -1.2698 -0.8719  2.9217
  172MOL0     H23164   5.094   7.598   2.581  0.9331 -2.0546  0.9722
  172MOL0     H23165   5.146   7.383   2.715  0.9295  0.7671 -2.4899
  172MOL0     H23166   5.128   7.513   2.825  1.2390 -0.6257 -0.4880
  172MOL0     H23167   5.005   7.325   2.916  1.0313 -4.3426 -2.3903
  172MOL0     H23168   4.893   7.461   2.871 -2.4192 -2.9245 -0.1773
  172MOL0     H23169   4.932   7.206   2.713  3.8414  3.2258 -3.3121
  172MOL0     H23170   4.831   7.352   2.672  2.9967  1.3809 -0.4181
  172MOL0     H23171   4.824   7.300   3.051 -1.0390  0.7899  1.3289
  172MOL0     H23172   4.654   7.188   3.220 -0.9349  0.1450  1.8533
  172MOL0     H23173   4.494   7.214   3.158  1.1138  1.5249 -0.5740
  172MOL0     H23174   4.472   6.977   3.094 -0.1908  0.8949 -2.3135
  172MOL0     H23175   4.506   6.976   3.251 -1.9323 -1.8604 -0.9793
  172MOL0     H23176   4.777   6.974   3.138 -1.5269  2.2541  0.2175
  172MOL0     H23177   4.673   6.894   3.013 -1.7577 -0.0188 -0.2589
  172MOL0     H23178   4.605   6.738   3.173  1.9488 -1.3025  0.1440
  172MOL0     H23179   4.695   6.823   3.307  0.3755  0.1589  0.4183
  172MOL0     H23180   5.003   6.717   3.369  2.1615 -1.8541  2.3938
  172MOL0     H23181   5.002   6.574   3.660  0.0417 -1.4339 -0.2882
  172MOL0     H23182   5.132   6.496   3.570  2.8736  2.1777 -1.8710
  172MOL0     H23183   5.090   6.674   3.551  0.4802  0.5077  0.9028
  172MOL0     H23184   4.663   6.242   3.768  1.2318  1.6710  1.0661
  172MOL0     H23185   4.626   6.074   3.930  0.2651 -1.1258  0.5212
  172MOL0     H23186   4.661   5.689   3.837 -1.7573 -0.4683  0.9115
  172MOL0     H23187   4.827   5.668   3.890 -0.0900 -0.9623 -1.6283
  172MOL0     H23188   4.694   5.511   4.002 -0.6114  0.2095 -0.8903
  172MOL0     H23189   4.739   5.626   4.121  2.3271 -2.4242 -0.7888
  172MOL0     H23190   4.491   5.560   4.145  1.7278  1.4471  1.5075
  172MOL0     H23191   4.453   5.601   3.973  2.5478 -1.0893 -1.1489
  172MOL0     H23192   4.560   5.789   4.204  1.1649  3.6585 -2.6261
  172MOL0     H23193   4.504   5.843   4.048  0.4904  1.1009  1.2235
  172MOL0     H23194   4.336   5.707   4.255  3.4342 -0.1922 -0.2846
  172MOL0     H23195   4.267   5.755   4.104  0.0388  4.4270 -1.9147
  172MOL0     H23196   4.409   5.966   4.281  0.7562  1.4244 -0.9967
  172MOL0     H23197   4.311   5.985   4.131 -0.3242 -1.9297 -1.0817
  172MOL0     H23198   4.212   6.023   4.381 -0.5100  2.0975 -2.1134
  172MOL0     H23199   4.210   5.850   4.387 -0.6153  0.7297  1.1281
  172MOL0     H23200   3.991   5.925   4.303 -1.0423 -0.1251 -1.8319
  172MOL0     H23201   4.072   5.835   4.183 -1.5063  0.7487 -0.0553
  172MOL0     H23202   4.897   5.809   3.730 -1.6947 -0.1240 -0.2316
  172MOL0     H23203   4.941   5.975   3.573 -2.2231  2.8630 -3.2178
  172MOL0     H23204   4.722   6.317   3.340  0.5517  0.4193  0.3829
  172MOL0     H23205   4.688   6.476   3.190  0.4247  1.8214 -1.7356
  172MOL0     H23206   5.044   8.253   3.038 -1.4523 -2.5326  0.4038
  172MOL0     H23207   5.171   8.361   3.208  1.4429  1.6749 -2.4508
  172MOL0     H23208   5.514   8.492   3.386  3.1894  0.6759 -0.1620
  172MOL0     H23209   5.567   8.661   3.574 -0.5115  0.4069 -0.6976
  172MOL0     H23210   5.454   8.591   3.982 -0.3683  1.1273  0.8291
  172MOL0     H23211   5.605   8.508   3.973 -0.8373 -0.5488 -0.9790
  172MOL0     H23212   5.618   8.690   4.153  2.8782  0.7815  1.0451
  172MOL0     H23213   5.564   8.811   4.035 -2.5045 -2.3496 -2.1257
  172MOL0     H23214   5.804   8.830   4.057 -1.9224  0.1143 -1.7316
  172MOL0     H23215   5.778   8.757   3.903 -1.4571  0.9222  0.4035
  172MOL0     H23216   5.964   8.655   3.998  3.1495 -3.3090  1.6518
  172MOL0     H23217   5.836   8.533   3.992  0.9606 -1.0258  1.7288
  172MOL0     H23218   5.916   8.567   4.410  0.9354  0.1170 -0.1227
  172MOL0     H23219   5.414   8.395   3.875  0.4344  2.8167  0.8686
  172MOL0     H23220   5.323   8.261   3.710  1.3040 -0.0349  1.9603
  173MOL0     O23221   2.984   9.419   0.156  0.2777 -0.6769  0.6791
  173MOL0     C23222   3.086   9.412   0.221  0.3064 -0.5103  0.1225
  173MOL0     O23223   3.216   9.440   0.176 -0.3756  0.1449 -0.1514
  173MOL0     C23224   3.234   9.509   0.052  0.2499 -0.8482  0.3526
  173MOL0     C23225   3.158   9.623   0.022 -1.5115 -0.1363  0.0283
  173MOL0     C23226   3.184   9.686  -0.101 -0.8360  0.4517  0.5052
  173MOL0     C23227   3.283   9.650  -0.186  0.2666 -0.3678 -0.1388
  173MOL0     O23228   3.313   9.704  -0.308 -0.0362  0.2021  0.5602
  173MOL0     C23229   3.261   9.829  -0.346  0.0058 -0.9272 -0.2966
  173MOL0     C23230   3.355   9.937  -0.298  0.2122  0.2230 -0.2746
  173MOL0     C23231   3.294  10.073  -0.356 -0.2925  0.1907  1.0703
  173MOL0     C23232   3.293  10.200  -0.265 -0.2819  0.0455  0.2848
  173MOL0     C23233   3.195  10.188  -0.146  0.1059 -0.3947  0.4574
  173MOL0     C23234   3.148  10.327  -0.093 -0.1059  0.2235  0.1866
  173MOL0     C23235   3.037  10.315   0.010  0.3976  0.1446  0.2683
  173MOL0     C23236   3.013  10.450   0.067  0.9813  0.3106  0.1578
  173MOL0     N23237   2.904  10.438   0.170 -0.1675 -1.7067  0.1556
  173MOL0     C23238   2.779  10.472   0.138  0.2171 -0.3219 -0.3581
  173MOL0     C23239   2.703  10.429   0.242 -0.2900 -0.0742 -0.0952
  173MOL0     C23240   2.554  10.426   0.253 -0.1926  0.1692 -0.7170
  173MOL0     C23241   2.499  10.567   0.280  0.1534  0.6217 -0.0878
  173MOL0     C23242   2.346  10.569   0.288 -0.3534  0.1439 -0.1764
  173MOL0     C23243   2.271  10.536   0.153  0.3117 -0.7159  0.5645
  173MOL0     O23244   2.313  10.621   0.039  0.6065 -0.0166  0.4573
  173MOL0     C23245   2.262  10.598  -0.086  1.0341  0.4044  0.3732
  173MOL0     C23246   2.296  10.681  -0.183 -0.1740 -0.6060  0.0942
  173MOL0     C23247   2.257  10.680  -0.314 -0.4827  0.1020 -0.0182
  173MOL0     C23248   2.300  10.786  -0.407 -0.5088 -1.6512 -0.0812
  173MOL0     C23249   2.175  10.571  -0.350  0.3158 -0.2109  0.7162
  173MOL0     C23250   2.117  10.571  -0.486 -0.9204  0.1703  0.1408
  173MOL0     O23251   2.080  10.443  -0.521  0.4671 -0.5696 -0.1953
  173MOL0     C23252   2.042  10.440  -0.651  0.0199  0.7239 -0.3725
  173MOL0     C23253   2.122  10.387  -0.751  0.0837  0.0331 -0.5016
  173MOL0     C23254   2.066  10.370  -0.880 -0.0538  0.3257  0.7871
  173MOL0     C23255   1.938  10.412  -0.920  0.1845  0.3132  0.0419
  173MOL0     O23256   1.887  10.381  -1.045  0.1589  0.3179 -0.0310
  173MOL0     C23257   1.745  10.380  -1.075  0.2062  0.1347  0.3982
  173MOL0     C23258   1.700  10.525  -1.114 -0.2422 -0.0882  0.3211
  173MOL0     C23259   1.781  10.571  -1.238  0.6681 -0.1018 -0.8621
  173MOL0     C23260   1.761  10.717  -1.254  0.8400 -0.6585  0.3992
  173MOL0     C23261   1.826  10.768  -1.387 -0.1381  0.6037  1.0483
  173MOL0     C23262   1.840  10.916  -1.402  1.1988  0.1246 -0.1944
  173MOL0     C23263   1.912  10.961  -1.529 -0.5943  0.3531  0.5410
  173MOL0     C23264   1.934  11.106  -1.536  0.6951  0.1354  1.2075
  173MOL0    Cl23265   1.780  11.201  -1.508  0.2373  0.3928  0.1597
  173MOL0     C23266   1.857  10.465  -0.818 -0.9304  0.8767 -0.5250
  173MOL0     C23267   1.906  10.484  -0.686 -0.3450 -0.5671 -0.9817
  173MOL0     O23268   2.109  10.672  -0.559 -0.3091  0.1404 -0.5605
  173MOL0     C23269   2.130  10.486  -0.252  1.1488 -0.6154  0.0671
  173MOL0     C23270   2.171  10.499  -0.120  0.3599  0.6242  0.2437
  173MOL0     N23271   2.788  10.374   0.342  1.0530 -1.0071  1.2151
  173MOL0     N23272   2.906  10.371   0.285  0.2330 -0.0546 -0.2087
  173MOL0     C23273   3.365   9.550  -0.145  0.4043  0.3145  0.4273
  173MOL0     C23274   3.346   9.475  -0.029  0.0030 -0.3465  0.8378
  173MOL0     C23275   3.089   9.357   0.354  0.4582  1.3562 -0.0545
  173MOL0     C23276   3.205   9.358   0.426 -0.1358 -0.2500 -0.7734
  173MOL0     C23277   3.210   9.309   0.555 -1.2027 -1.1124 -0.1782
  173MOL0     C23278   3.090   9.265   0.613 -0.2172  0.4114  1.3328
  173MOL0     O23279   3.064   9.222   0.742 -0.2484 -0.4091 -0.3843
  173MOL0     C23280   3.173   9.209   0.832 -0.6379 -0.6788  0.0188
  173MOL0     C23281   3.125   9.139   0.965 -0.1089  0.6947  1.1125
  173MOL0     C23282   3.035   9.228   1.050  1.2112 -0.6139 -0.3614
  173MOL0     C23283   2.975   9.145   1.168  0.3611 -0.2722 -1.0175
  173MOL0     C23284   2.924   9.235   1.277  0.0638 -1.4126  0.3817
  173MOL0     C23285   2.877   9.308   1.363 -0.9141 -0.5805  0.0427
  173MOL0     C23286   2.968   9.270   0.544  0.0833 -0.9287  0.9557
  173MOL0     C23287   2.971   9.319   0.414  0.9301 -0.3451 -0.5637
  173MOL0     H23288   3.076   9.652   0.086 -0.6625 -2.7286  2.5138
  173MOL0     H23289   3.126   9.774  -0.126 -0.8531 -0.4231 -3.1252
  173MOL0     H23290   3.264   9.832  -0.456  0.9367  2.4891 -0.3012
  173MOL0     H23291   3.155   9.839  -0.323 -0.7687 -2.0330 -2.9604
  173MOL0     H23292   3.338   9.953  -0.191 -2.2130 -1.3573 -0.3237
  173MOL0     H23293   3.462   9.922  -0.318  0.5890 -2.1490  2.6796
  173MOL0     H23294   3.352  10.092  -0.446 -1.5321 -1.6188 -0.1792
  173MOL0     H23295   3.193  10.060  -0.396 -0.9412  2.9204  1.6294
  173MOL0     H23296   3.398  10.225  -0.246  0.0400  0.0308 -1.3752
  173MOL0     H23297   3.249  10.276  -0.330 -2.2118  0.8525  2.3786
  173MOL0     H23298   3.116  10.135  -0.200  0.1738  0.3901 -0.4324
  173MOL0     H23299   3.226  10.130  -0.058 -0.8300 -0.9703  0.4275
  173MOL0     H23300   3.239  10.375  -0.057  0.0462  0.8700 -1.0090
  173MOL0     H23301   3.101  10.377  -0.178  0.0628 -1.0347 -0.6816
  173MOL0     H23302   2.952  10.260  -0.033  1.8472 -0.9397 -1.3713
  173MOL0     H23303   3.086  10.251   0.083 -2.5746 -2.1976  0.4036
  173MOL0     H23304   2.990  10.523  -0.010  2.9457  0.8643  0.0367
  173MOL0     H23305   3.110  10.473   0.112  3.2558 -2.0529 -3.0686
  173MOL0     H23306   2.746  10.517   0.045  1.4561 -2.7034 -2.0396
  173MOL0     H23307   2.523  10.398   0.152  2.6005 -0.5532 -1.4658
  173MOL0     H23308   2.522  10.356   0.331 -0.5068  3.7659  2.7336
  173MOL0     H23309   2.532  10.645   0.211 -1.9308  2.8056  1.1820
  173MOL0     H23310   2.522  10.604   0.381 -3.7088  0.0890  1.1754
  173MOL0     H23311   2.313  10.670   0.314 -1.5355  0.2028 -1.7440
  173MOL0     H23312   2.302  10.494   0.354  0.9180 -1.6787 -1.2929
  173MOL0     H23313   2.163  10.553   0.156  0.1430 -1.1256 -1.6452
  173MOL0     H23314   2.275  10.430   0.128 -2.1595 -0.4878 -1.1611
  173MOL0     H23315   2.366  10.757  -0.149  1.9718 -1.7691 -1.4997
  173MOL0     H23316   2.210  10.846  -0.423  0.5977 -0.6214 -3.2578
  173MOL0     H23317   2.385  10.837  -0.361  0.5140 -3.8766  0.6799
  173MOL0     H23318   2.335  10.769  -0.510  0.1089  3.5095 -0.9921
  173MOL0     H23319   2.222  10.350  -0.731  0.3719  1.2868  0.5568
  173MOL0     H23320   2.136  10.324  -0.949  0.9775 -0.5873  2.3822
  173MOL0     H23321   1.745  10.313  -1.162  4.7110  1.7855 -1.2270
  173MOL0     H23322   1.687  10.342  -0.991  0.8613  0.6398  1.0883
  173MOL0     H23323   1.593  10.531  -1.137  0.1806  1.4060 -1.5060
  173MOL0     H23324   1.704  10.593  -1.027 -2.0604 -0.0702  0.4220
  173MOL0     H23325   1.756  10.512  -1.326 -2.4335 -1.9238  1.0664
  173MOL0     H23326   1.887  10.554  -1.216  0.0266 -3.2067  0.3011
  173MOL0     H23327   1.655  10.746  -1.256  0.8203 -0.6788 -1.9878
  173MOL0     H23328   1.809  10.768  -1.170 -0.7473  1.8039 -0.0871
  173MOL0     H23329   1.766  10.731  -1.472  1.0391 -1.6338  1.1186
  173MOL0     H23330   1.922  10.719  -1.404 -1.3743 -1.4027 -0.8094
  173MOL0     H23331   1.737  10.951  -1.396  0.9891 -0.6017  0.6338
  173MOL0     H23332   1.887  10.963  -1.316  2.7148 -0.7363 -0.5139
  173MOL0     H23333   1.860  10.911  -1.611 -0.1285  1.9001 -0.7434
  173MOL0     H23334   2.010  10.913  -1.529 -0.7502 -0.0570 -1.3726
  173MOL0     H23335   1.970  11.111  -1.639 -0.1033  0.8411  0.9568
  173MOL0     H23336   2.012  11.132  -1.464  1.9789 -1.2045  0.3656
  173MOL0     H23337   1.752  10.490  -0.831 -2.2972 -1.6573  3.5706
  173MOL0     H23338   1.846  10.524  -0.605 -0.2109  1.3337 -1.7527
  173MOL0     H23339   2.046  10.421  -0.275  0.7807  0.1449 -0.7725
  173MOL0     H23340   2.127  10.433  -0.045  0.4203 -1.7736 -1.7081
  173MOL0     H23341   3.450   9.521  -0.205 -0.5266 -0.6882 -0.4611
  173MOL0     H23342   3.406   9.385  -0.025 -3.7061 -3.3289 -2.6551
  173MOL0     H23343   3.303   9.369   0.379  1.6751 -2.9036  2.0239
  173MOL0     H23344   3.306   9.311   0.605 -1.1093 -0.7334 -0.3676
  173MOL0     H23345   3.251   9.141   0.796  1.9117  0.4527  2.9499
  173MOL0     H23346   3.215   9.308   0.852  0.4075 -1.3002  1.0163
  173MOL0     H23347   3.219   9.113   1.015  0.2959  0.8347  0.4327
  173MOL0     H23348   3.065   9.049   0.949 -3.6387  2.9459  0.6662
  173MOL0     H23349   2.958   9.265   0.982  2.0487  1.2120 -0.3738
  173MOL0     H23350   3.096   9.311   1.087 -0.0719 -0.2232  0.9778
  173MOL0     H23351   3.061   9.085   1.199 -1.2015 -3.0102 -1.6336
  173MOL0     H23352   2.905   9.064   1.147  0.0892 -0.5692  0.9093
  173MOL0     H23353   2.829   9.377   1.430  0.4179  0.4180  0.0282
  173MOL0     H23354   2.876   9.249   0.597 -1.5273  1.9054 -0.5087
  173MOL0     H23355   2.881   9.335   0.355 -0.7096 -1.8622  1.3759
  174MOL0     O23356   5.972   4.897   8.568  0.0699  0.3918  0.2455
  174MOL0     C23357   5.914   4.876   8.671  0.6794  0.3198  1.0313
  174MOL0     O23358   5.805   4.800   8.674  0.3877  0.3614  0.2651
  174MOL0     C23359   5.740   4.776   8.549 -0.4929  0.1989  0.8667
  174MOL0     C23360   5.804   4.712   8.434  0.2848 -0.8318  0.6284
  174MOL0     C23361   5.719   4.700   8.320 -0.2838 -0.8489  0.3747
  174MOL0     C23362   5.581   4.739   8.319  0.2919 -0.2330 -0.6577
  174MOL0     O23363   5.518   4.720   8.199  0.6127  0.1352  0.3021
  174MOL0     C23364   5.374   4.727   8.186  0.2614 -0.9301 -0.0432
  174MOL0     C23365   5.328   4.720   8.044  0.3139  0.7735 -0.3258
  174MOL0     C23366   5.190   4.664   8.028  0.2797 -0.0439  0.5760
  174MOL0     C23367   5.203   4.505   8.015  0.3578  0.3091  0.0133
  174MOL0     C23368   5.077   4.431   7.969  0.4945 -0.0471 -0.4604
  174MOL0     C23369   5.083   4.275   7.976 -0.7775 -0.7613 -0.2160
  174MOL0     C23370   4.957   4.206   7.946 -0.3915 -0.4935  1.5295
  174MOL0     C23371   4.905   4.245   7.807 -1.0091 -0.1398  0.0632
  174MOL0     N23372   4.797   4.164   7.759  0.5398  1.0077  0.1952
  174MOL0     C23373   4.798   4.074   7.649 -0.0807  0.2896  0.1729
  174MOL0     C23374   4.666   4.031   7.644 -0.3411  0.2550 -0.5906
  174MOL0     C23375   4.611   3.924   7.553  0.6774 -0.0659 -0.2633
  174MOL0     C23376   4.521   3.826   7.617  0.2026 -1.0492  0.4741
  174MOL0     C23377   4.474   3.719   7.527 -0.4613  0.4340 -0.3977
  174MOL0     C23378   4.586   3.660   7.456 -0.9217  0.5757 -0.5975
  174MOL0     O23379   4.683   3.599   7.548 -0.1045  0.0637 -0.8132
  174MOL0     C23380   4.801   3.666   7.566  0.5063  0.0459  0.8959
  174MOL0     C23381   4.827   3.709   7.691 -0.0492 -0.4906  0.6893
  174MOL0     C23382   4.950   3.759   7.732 -0.8594  0.1735 -0.0158
  174MOL0     C23383   4.975   3.795   7.875  0.7824  0.3400  1.0684
  174MOL0     C23384   5.045   3.776   7.630  0.4119 -0.1718 -0.1454
  174MOL0     C23385   5.179   3.835   7.660  1.0444 -0.0981  0.9170
  174MOL0     O23386   5.275   3.807   7.566  0.7790  0.4512 -0.1551
  174MOL0     C23387   5.400   3.863   7.575 -0.1721  0.1048 -0.1845
  174MOL0     C23388   5.461   3.915   7.462  0.2942  0.6869  0.5252
  174MOL0     C23389   5.591   3.950   7.467  0.1901 -0.1904 -0.2282
  174MOL0     C23390   5.673   3.948   7.582  0.7038 -0.6212 -0.2678
  174MOL0     O23391   5.806   3.993   7.592  0.6532  0.2505  0.4738
  174MOL0     C23392   5.887   4.033   7.473  0.0989 -0.5447  0.3297
  174MOL0     C23393   6.031   4.033   7.496 -0.0401 -0.0137 -0.5348
  174MOL0     C23394   6.125   4.071   7.385 -0.1004  0.0830  0.6538
  174MOL0     C23395   6.247   3.979   7.389 -1.1468  0.2790  0.1893
  174MOL0     C23396   6.342   4.011   7.284 -0.2569  0.6042 -0.1823
  174MOL0     C23397   6.446   3.902   7.281 -0.0532 -0.0481 -0.5252
  174MOL0     C23398   6.592   3.948   7.313 -0.1440 -0.4488  0.7030
  174MOL0     C23399   6.688   3.831   7.268  1.0811  0.6189 -0.3475
  174MOL0    Cl23400   6.657   3.669   7.333  0.4821 -0.2452 -0.3803
  174MOL0     C23401   5.608   3.894   7.696  0.1669 -0.0341  0.1962
  174MOL0     C23402   5.479   3.851   7.689 -0.2000 -0.3974 -0.4188
  174MOL0     O23403   5.181   3.934   7.744 -0.1086  0.2782  0.3684
  174MOL0     C23404   5.022   3.724   7.501  0.0487  0.4472 -0.1865
  174MOL0     C23405   4.896   3.674   7.459 -0.5477  1.1175 -0.4451
  174MOL0     N23406   4.587   4.106   7.729  0.0789 -1.1323 -0.8105
  174MOL0     N23407   4.665   4.176   7.799  0.1483  0.1867 -0.0075
  174MOL0     C23408   5.537   4.814   8.433  0.6621  0.5705  0.0175
  174MOL0     C23409   5.620   4.845   8.535 -1.3785 -0.7374 -0.5192
  174MOL0     C23410   5.966   4.929   8.796  0.8111  0.1323 -0.3677
  174MOL0     C23411   5.883   4.910   8.904  0.5397 -0.3956 -0.4877
  174MOL0     C23412   5.928   4.966   9.026  0.4016  0.4515 -0.4027
  174MOL0     C23413   6.041   5.044   9.033  0.4678 -0.2759  0.0427
  174MOL0     O23414   6.062   5.109   9.161  0.7369  0.3224  0.4466
  174MOL0     C23415   6.195   5.133   9.197  0.5172  0.3200  0.1628
  174MOL0     C23416   6.209   5.161   9.341 -0.1570  0.4440 -0.4487
  174MOL0     C23417   6.157   5.306   9.394  0.3548  0.1824 -0.1892
  174MOL0     C23418   6.248   5.417   9.339  0.5951 -0.4235  0.3118
  174MOL0     C23419   6.206   5.559   9.364  0.1129  0.7589  0.6006
  174MOL0     C23420   6.156   5.666   9.365 -0.4408 -1.5145 -0.2558
  174MOL0     C23421   6.126   5.062   8.925 -0.1099  0.2322 -0.0530
  174MOL0     C23422   6.081   5.008   8.809 -0.0724  0.5229  1.0707
  174MOL0     H23423   5.902   4.667   8.429 -0.0715 -1.5631  0.0228
  174MOL0     H23424   5.749   4.645   8.231  2.9238 -1.5774  1.7689
  174MOL0     H23425   5.336   4.641   8.242 -1.6176 -1.3431 -1.8031
  174MOL0     H23426   5.332   4.818   8.230 -2.4417 -2.0143 -0.1875
  174MOL0     H23427   5.341   4.818   7.996  3.7164 -0.2251 -1.7495
  174MOL0     H23428   5.389   4.654   7.982 -1.4517  0.2864 -1.6048
  174MOL0     H23429   5.111   4.697   8.097  0.5646 -1.7397  1.7919
  174MOL0     H23430   5.162   4.701   7.929 -0.5686 -0.0957  0.7909
  174MOL0     H23431   5.286   4.477   7.949 -0.2473 -2.2158  0.2224
  174MOL0     H23432   5.253   4.480   8.109  3.0857  2.6767 -0.6530
  174MOL0     H23433   4.989   4.452   8.029 -0.1913 -0.0652 -1.4316
  174MOL0     H23434   5.065   4.453   7.862  0.8903  0.1301 -0.4708
  174MOL0     H23435   5.162   4.245   7.906 -0.0595  0.9440 -0.1651
  174MOL0     H23436   5.116   4.247   8.076 -1.5501  0.8423  0.5178
  174MOL0     H23437   4.977   4.098   7.954  2.1907 -0.0710  1.7465
  174MOL0     H23438   4.883   4.230   8.022  0.0387 -0.4799  1.9477
  174MOL0     H23439   4.990   4.238   7.739 -1.7669 -0.8989 -0.8292
  174MOL0     H23440   4.873   4.349   7.801  2.0146  0.7913 -2.4996
  174MOL0     H23441   4.877   4.033   7.586  0.8895 -0.4774  1.8105
  174MOL0     H23442   4.562   3.965   7.465 -2.0753 -4.6566 -1.1979
  174MOL0     H23443   4.699   3.873   7.514  1.3789 -0.3333  1.5374
  174MOL0     H23444   4.436   3.886   7.651  1.4116 -0.6475  3.0309
  174MOL0     H23445   4.559   3.784   7.711 -0.2475  0.8547  1.5593
  174MOL0     H23446   4.408   3.747   7.444 -1.3187  0.2184  0.1932
  174MOL0     H23447   4.414   3.640   7.574 -0.6598 -2.0516 -4.3742
  174MOL0     H23448   4.630   3.738   7.393 -1.0759  1.4827  0.3699
  174MOL0     H23449   4.545   3.580   7.394  2.1856 -2.5828  1.0563
  174MOL0     H23450   4.751   3.685   7.764 -0.3941 -0.3933  0.3637
  174MOL0     H23451   5.079   3.775   7.901  1.5064 -0.2792 -1.9395
  174MOL0     H23452   4.962   3.903   7.886  2.1862  0.5426  0.8616
  174MOL0     H23453   4.910   3.744   7.946 -1.5222 -0.3204 -1.3289
  174MOL0     H23454   5.397   3.915   7.374 -2.2164 -0.5819  2.2257
  174MOL0     H23455   5.612   3.992   7.369 -3.1477  0.1267 -0.9001
  174MOL0     H23456   5.845   3.971   7.393 -1.7267  0.9844  0.0157
  174MOL0     H23457   5.850   4.134   7.450  0.9126 -0.4699 -0.7118
  174MOL0     H23458   6.053   4.100   7.580  3.5890 -0.5940 -0.8647
  174MOL0     H23459   6.050   3.932   7.534  1.1231  0.0382 -0.9550
  174MOL0     H23460   6.163   4.173   7.394  1.7280 -0.7137  3.3015
  174MOL0     H23461   6.062   4.067   7.296 -0.1552  2.1081  0.5608
  174MOL0     H23462   6.302   3.982   7.484  1.0717 -0.2302 -1.0259
  174MOL0     H23463   6.209   3.877   7.375  1.9784 -1.1293  1.0929
  174MOL0     H23464   6.389   4.106   7.312 -0.6586  0.2678  1.7729
  174MOL0     H23465   6.290   4.017   7.188 -3.2590 -0.9409  1.2272
  174MOL0     H23466   6.418   3.817   7.345  3.3425 -0.3923  0.6783
  174MOL0     H23467   6.440   3.856   7.182  0.1044  0.2064 -0.6513
  174MOL0     H23468   6.603   3.976   7.418  0.0782  4.7657 -0.4521
  174MOL0     H23469   6.619   4.040   7.261 -2.2433  0.6348  1.4564
  174MOL0     H23470   6.787   3.859   7.304 -0.2086  1.2282  3.1109
  174MOL0     H23471   6.686   3.833   7.159 -2.8557 -1.5224 -0.4961
  174MOL0     H23472   5.668   3.881   7.786  1.0966 -2.8565 -0.7390
  174MOL0     H23473   5.441   3.811   7.782 -0.9553  1.3623  0.0803
  174MOL0     H23474   5.106   3.723   7.432  0.2723  3.8949 -0.1326
  174MOL0     H23475   4.889   3.645   7.355  0.7475  0.2953 -0.3276
  174MOL0     H23476   5.434   4.849   8.436  1.6269  3.7000  0.9755
  174MOL0     H23477   5.582   4.901   8.620  0.0790  0.3322 -0.5317
  174MOL0     H23478   5.789   4.856   8.907 -0.3448  1.0759 -0.7660
  174MOL0     H23479   5.875   4.946   9.119  0.1895 -0.1716 -0.6476
  174MOL0     H23480   6.259   5.052   9.162  0.9953  1.3125 -1.3593
  174MOL0     H23481   6.229   5.218   9.138 -0.7357  1.8805  1.5610
  174MOL0     H23482   6.318   5.160   9.352 -0.0733  1.5403 -1.0998
  174MOL0     H23483   6.177   5.075   9.402  2.1341 -1.7420 -2.1036
  174MOL0     H23484   6.164   5.316   9.503 -0.5913 -1.2800  0.0306
  174MOL0     H23485   6.059   5.336   9.357 -0.1756 -1.0284  0.1677
  174MOL0     H23486   6.264   5.409   9.231  2.1346 -0.8628  0.5455
  174MOL0     H23487   6.344   5.395   9.387 -0.8497 -0.2298  3.4822
  174MOL0     H23488   6.112   5.761   9.342  0.4661 -1.3958 -1.6304
  174MOL0     H23489   6.208   5.132   8.914 -1.4615  1.6999 -1.2207
  174MOL0     H23490   6.148   5.020   8.724 -0.9631 -1.1615  0.0697
  175MOL0     O23491   7.750   7.674   4.161 -0.0457  0.0451  0.1139
  175MOL0     C23492   7.850   7.737   4.189 -0.6439  0.8790  0.0230
  175MOL0     O23493   7.871   7.790   4.309 -0.7201  0.0896 -0.5192
  175MOL0     C23494   7.798   7.741   4.421 -0.4304  0.4410  1.0283
  175MOL0     C23495   7.797   7.604   4.444 -1.1904 -0.0153 -0.4003
  175MOL0     C23496   7.718   7.554   4.550  0.0712 -0.6722 -0.7344
  175MOL0     C23497   7.622   7.629   4.616 -0.1388  0.1081 -0.0416
  175MOL0     O23498   7.535   7.576   4.710  0.7222 -0.6027  0.4646
  175MOL0     C23499   7.580   7.472   4.799  1.1320 -0.2438 -0.4282
  175MOL0     C23500   7.490   7.447   4.916  0.2765 -0.7176  0.3254
  175MOL0     C23501   7.590   7.420   5.036 -0.7603  0.1334 -0.0745
  175MOL0     C23502   7.658   7.557   5.086  0.4909  0.2905 -0.1294
  175MOL0     C23503   7.751   7.516   5.207 -0.8392 -0.4717 -1.1760
  175MOL0     C23504   7.776   7.647   5.290 -0.3314 -1.2858  0.2100
  175MOL0     C23505   7.885   7.635   5.393  0.0063 -0.1775 -0.0344
  175MOL0     C23506   7.944   7.770   5.418  1.2637 -0.2002  0.2481
  175MOL0     N23507   7.830   7.860   5.478 -0.9110  0.4630  0.0914
  175MOL0     C23508   7.777   7.960   5.402 -0.0613  0.0398  0.4472
  175MOL0     C23509   7.685   8.030   5.478  0.1737  0.3485 -1.3075
  175MOL0     C23510   7.620   8.170   5.451 -0.1316  1.4026  0.1961
  175MOL0     C23511   7.503   8.164   5.351 -0.4954 -0.1799 -0.0872
  175MOL0     C23512   7.445   8.307   5.327 -0.5336  0.3779 -1.0114
  175MOL0     C23513   7.303   8.301   5.262 -0.3879  0.3390  0.0421
  175MOL0     O23514   7.289   8.209   5.153  0.8663  0.0721  0.4900
  175MOL0     C23515   7.159   8.156   5.113  0.0773  0.8724  0.7430
  175MOL0     C23516   7.160   8.058   5.014 -0.3207 -0.2969  0.2670
  175MOL0     C23517   7.044   8.005   4.949 -0.0827 -0.2211 -0.4117
  175MOL0     C23518   7.077   7.918   4.828 -1.1921  0.4414  0.4856
  175MOL0     C23519   6.920   8.042   5.000 -0.4147  0.7613 -0.5282
  175MOL0     C23520   6.794   7.989   4.944 -0.9458 -0.2461  0.6168
  175MOL0     O23521   6.677   8.056   4.980 -0.6636 -0.8077  0.3250
  175MOL0     C23522   6.544   8.019   4.972  0.4540 -0.7205 -0.8638
  175MOL0     C23523   6.503   7.894   4.926 -0.1740 -0.4350 -0.6771
  175MOL0     C23524   6.362   7.862   4.927 -0.7378 -0.2265 -0.6244
  175MOL0     C23525   6.271   7.959   4.943 -0.4765 -0.3890  0.0722
  175MOL0     O23526   6.135   7.936   4.922  0.1410  0.5429 -0.3153
  175MOL0     C23527   6.071   7.843   4.837  0.6239 -0.4255 -0.1142
  175MOL0     C23528   5.974   7.754   4.918  0.6321  0.8472 -0.9653
  175MOL0     C23529   5.937   7.615   4.856  0.0799 -0.8527 -0.4183
  175MOL0     C23530   5.891   7.507   4.960  0.1681 -0.7819  0.9666
  175MOL0     C23531   5.805   7.390   4.897 -0.0092  0.0591 -0.7601
  175MOL0     C23532   5.887   7.300   4.816  0.1936  0.2925  0.3480
  175MOL0     C23533   5.821   7.172   4.782  0.3862  0.0027 -0.7354
  175MOL0     C23534   5.795   7.078   4.904  0.0112 -0.8288 -0.2894
  175MOL0    Cl23535   5.803   6.910   4.860  0.0914 -0.1074 -0.6043
  175MOL0     C23536   6.309   8.091   4.971  0.0338 -0.3343  0.1384
  175MOL0     C23537   6.445   8.119   4.993  0.0639  0.3979 -0.2770
  175MOL0     O23538   6.801   7.882   4.890  0.5345  0.5889 -0.4826
  175MOL0     C23539   6.920   8.124   5.120 -0.4696  0.0974 -0.1217
  175MOL0     C23540   7.037   8.178   5.177  0.3369  0.2155 -0.3411
  175MOL0     N23541   7.677   7.952   5.594  0.1114 -0.4502  0.2801
  175MOL0     N23542   7.770   7.855   5.596  0.0947 -0.1657  0.3767
  175MOL0     C23543   7.611   7.763   4.581  0.8948  0.7656 -0.6134
  175MOL0     C23544   7.703   7.815   4.487 -0.0127 -1.0477  0.7338
  175MOL0     C23545   7.929   7.787   4.077  0.6365 -0.1076 -0.2652
  175MOL0     C23546   8.053   7.854   4.096 -0.9381  0.5375  0.3607
  175MOL0     C23547   8.138   7.866   3.983 -0.5231  0.6554 -0.1949
  175MOL0     C23548   8.092   7.828   3.855 -1.1757  0.8867  0.7409
  175MOL0     O23549   8.181   7.829   3.747 -0.0379 -0.2828  0.3348
  175MOL0     C23550   8.256   7.712   3.717 -0.9616  0.3189 -0.3211
  175MOL0     C23551   8.270   7.673   3.569  0.4827 -1.0007  0.1601
  175MOL0     C23552   8.130   7.642   3.511 -1.1569  0.2693 -0.1429
  175MOL0     C23553   8.149   7.592   3.364  0.0178 -0.6643 -0.2246
  175MOL0     C23554   8.234   7.472   3.350  0.6449 -0.9852  1.8216
  175MOL0     C23555   8.305   7.374   3.328  0.8350 -0.2490  0.3371
  175MOL0     C23556   7.973   7.764   3.830 -0.4600  0.9568 -1.1948
  175MOL0     C23557   7.891   7.753   3.945 -0.0358 -0.1938  0.1047
  175MOL0     H23558   7.876   7.544   4.398  0.6497  0.7852  1.5629
  175MOL0     H23559   7.745   7.451   4.570  2.2894 -0.2536 -1.2893
  175MOL0     H23560   7.597   7.382   4.739 -1.1503 -0.0772 -1.4393
  175MOL0     H23561   7.682   7.495   4.829  1.6656  1.9544 -3.4521
  175MOL0     H23562   7.418   7.529   4.931  0.5084  0.1028 -2.4605
  175MOL0     H23563   7.428   7.362   4.886  0.4543  0.0116 -2.3131
  175MOL0     H23564   7.551   7.362   5.120  0.0750  0.3140  0.4443
  175MOL0     H23565   7.672   7.358   5.000  1.5021  2.3482  0.9669
  175MOL0     H23566   7.722   7.617   5.021  1.8316 -0.8490  0.0929
  175MOL0     H23567   7.577   7.620   5.125  0.1973 -0.2491  0.1489
  175MOL0     H23568   7.706   7.440   5.271  1.3326 -1.8756 -1.2366
  175MOL0     H23569   7.846   7.474   5.173 -1.4007 -1.0850 -2.0561
  175MOL0     H23570   7.801   7.728   5.220 -1.7626  0.2439  1.3860
  175MOL0     H23571   7.685   7.678   5.343 -0.2368 -1.0486  0.2351
  175MOL0     H23572   7.842   7.592   5.483 -4.6473 -0.4843 -2.1491
  175MOL0     H23573   7.970   7.573   5.361  2.2833  0.4299  4.1504
  175MOL0     H23574   7.986   7.819   5.330 -1.5780  1.3966 -0.3647
  175MOL0     H23575   8.018   7.754   5.497  2.0501 -3.1911 -0.9605
  175MOL0     H23576   7.806   7.979   5.299  2.0424  0.5923  1.0906
  175MOL0     H23577   7.605   8.221   5.547  2.2732  0.2605  1.2711
  175MOL0     H23578   7.709   8.217   5.409  0.8133 -0.0283  0.5245
  175MOL0     H23579   7.435   8.085   5.383 -1.0952  0.5562  0.4876
  175MOL0     H23580   7.547   8.131   5.256 -0.5387 -2.0057  0.5044
  175MOL0     H23581   7.512   8.349   5.252 -0.4608 -1.3640 -1.9640
  175MOL0     H23582   7.459   8.360   5.422  4.0363  0.7733 -1.7097
  175MOL0     H23583   7.287   8.400   5.220  2.9641  0.4887 -1.1887
  175MOL0     H23584   7.225   8.296   5.339  0.0921  1.7160  0.6428
  175MOL0     H23585   7.254   8.023   4.973 -0.1524 -0.0740  0.4593
  175MOL0     H23586   7.074   7.818   4.872 -0.4646  0.5216  0.7416
  175MOL0     H23587   7.002   7.936   4.751 -1.7750 -0.4183  0.8345
  175MOL0     H23588   7.173   7.948   4.785 -2.6460  4.0017 -0.6653
  175MOL0     H23589   6.583   7.824   4.904  0.0744  0.2483 -2.0769
  175MOL0     H23590   6.323   7.765   4.900 -2.7384 -0.4370  2.4333
  175MOL0     H23591   6.019   7.874   4.745 -2.0340 -3.1127  0.3050
  175MOL0     H23592   6.146   7.775   4.795  3.3490  2.1012  0.3626
  175MOL0     H23593   6.024   7.736   5.013  0.0437 -2.9053 -1.2178
  175MOL0     H23594   5.885   7.813   4.942  0.5322 -0.5700  2.8383
  175MOL0     H23595   6.025   7.568   4.810  4.0552  1.1957  4.1472
  175MOL0     H23596   5.852   7.634   4.790 -1.2196 -0.4713  1.3090
  175MOL0     H23597   5.986   7.474   5.003  1.9315  2.3600 -0.1447
  175MOL0     H23598   5.825   7.564   5.025 -0.7084  0.2983 -0.7739
  175MOL0     H23599   5.732   7.422   4.822 -0.6324  1.4782  0.4012
  175MOL0     H23600   5.762   7.355   4.991 -2.1216  5.4524  0.6398
  175MOL0     H23601   5.893   7.357   4.723 -1.9477  1.7352  1.0175
  175MOL0     H23602   5.988   7.278   4.851  0.7509  0.6117 -1.0020
  175MOL0     H23603   5.890   7.120   4.715 -0.4642 -0.9767 -0.8568
  175MOL0     H23604   5.730   7.183   4.723  1.0556 -1.9831 -2.2194
  175MOL0     H23605   5.700   7.100   4.954 -0.8492 -0.2082 -2.1108
  175MOL0     H23606   5.875   7.091   4.977  0.7742 -1.1678 -1.0565
  175MOL0     H23607   6.234   8.169   4.982 -0.5626 -0.6263 -1.6109
  175MOL0     H23608   6.488   8.205   5.044 -1.0056  0.2548  0.9112
  175MOL0     H23609   6.821   8.157   5.147 -0.3408  0.6151 -0.2726
  175MOL0     H23610   7.021   8.237   5.267  0.2774 -1.6270  0.9074
  175MOL0     H23611   7.536   7.824   4.630  3.2219  2.5309  0.9765
  175MOL0     H23612   7.683   7.916   4.452 -1.5634 -0.8683  2.0016
  175MOL0     H23613   8.082   7.887   4.195 -1.7459  0.5109  0.6080
  175MOL0     H23614   8.241   7.892   4.005 -1.2080  3.9314 -0.3158
  175MOL0     H23615   8.356   7.724   3.758 -0.6682 -1.5270 -0.3817
  175MOL0     H23616   8.213   7.628   3.773  0.7312  1.0674  2.2898
  175MOL0     H23617   8.338   7.589   3.558 -0.1801 -1.7682  1.5814
  175MOL0     H23618   8.306   7.762   3.515  0.9164  1.6698  4.3851
  175MOL0     H23619   8.059   7.725   3.511 -0.8001  0.6002  1.0726
  175MOL0     H23620   8.080   7.569   3.575 -2.1996  1.5375  0.5424
  175MOL0     H23621   8.190   7.672   3.302 -1.1347 -0.6083 -0.9498
  175MOL0     H23622   8.052   7.563   3.321 -1.7901  1.1230  2.3072
  175MOL0     H23623   8.345   7.282   3.289  1.0528  0.5915 -1.5199
  175MOL0     H23624   7.941   7.709   3.742 -1.2667 -1.5701  0.5998
  175MOL0     H23625   7.798   7.698   3.934  1.1650 -2.2450 -0.4291
  176MOL0     O23626   7.448   1.057  10.109  0.2475 -0.6020 -0.2801
  176MOL0     C23627   7.441   1.182  10.090  0.4453  0.6227 -0.5643
  176MOL0     O23628   7.364   1.264  10.154 -0.0001  0.0733 -0.8301
  176MOL0     C23629   7.293   1.220  10.259  0.0863  0.1351 -0.1288
  176MOL0     C23630   7.216   1.101  10.258  0.0653  0.3151 -0.4135
  176MOL0     C23631   7.121   1.081  10.359 -0.3881 -0.1759 -0.2178
  176MOL0     C23632   7.107   1.170  10.465  1.1200  0.2321  0.3824
  176MOL0     O23633   7.022   1.139  10.569  0.0964  0.5968  0.9128
  176MOL0     C23634   7.074   1.118  10.699  0.4468  0.1640 -0.3582
  176MOL0     C23635   6.975   1.167  10.806 -0.0640 -0.4642 -0.9995
  176MOL0     C23636   6.846   1.088  10.806  0.5187  0.4773 -0.9492
  176MOL0     C23637   6.748   1.149  10.901 -0.1309 -1.0410 -0.7679
  176MOL0     C23638   6.640   1.041  10.952 -1.5236 -1.5036 -0.2895
  176MOL0     C23639   6.527   1.124  11.023 -0.7705 -0.1651 -0.0654
  176MOL0     C23640   6.425   1.026  11.064  0.2713  0.2262 -0.4820
  176MOL0     C23641   6.310   1.105  11.139  0.6038 -0.6382 -0.0654
  176MOL0     N23642   6.199   1.013  11.178  0.1473  0.4579  0.4753
  176MOL0     C23643   6.169   0.891  11.117  0.3777 -0.0940  0.0408
  176MOL0     C23644   6.062   0.848  11.184  0.3355  0.4166 -0.8680
  176MOL0     C23645   5.973   0.729  11.159 -0.8738 -1.4546  0.2700
  176MOL0     C23646   5.875   0.755  11.038 -0.3406 -0.8720  0.1748
  176MOL0     C23647   5.835   0.630  10.955 -0.2519  0.0754  0.2582
  176MOL0     C23648   5.741   0.531  11.028  0.5526 -0.1741 -0.9886
  176MOL0     O23649   5.794   0.482  11.153  0.0933 -0.0912 -0.0100
  176MOL0     C23650   5.711   0.403  11.226 -0.0307  0.7663  0.4348
  176MOL0     C23651   5.583   0.368  11.198 -0.3819  0.0590  0.3813
  176MOL0     C23652   5.502   0.286  11.276  0.4589 -0.7965 -0.1463
  176MOL0     C23653   5.357   0.268  11.222 -0.8388  0.1383 -0.0417
  176MOL0     C23654   5.561   0.213  11.384  0.2992  0.0182 -0.6432
  176MOL0     C23655   5.482   0.124  11.478 -0.1127  0.7963  0.4779
  176MOL0     O23656   5.486   0.157  11.604 -0.4918 -0.1513  0.8111
  176MOL0     C23657   5.379   0.137  11.694  0.4848  0.3519  0.3014
  176MOL0     C23658   5.243   0.134  11.648  0.3294 -0.2559  0.1445
  176MOL0     C23659   5.138   0.116  11.749  0.5855  0.8471  0.7570
  176MOL0     C23660   5.166   0.100  11.883 -0.7738  0.0187 -0.4426
  176MOL0     O23661   5.087   0.094  11.988 -0.2032 -0.1568  0.0483
  176MOL0     C23662   4.951   0.070  11.964  0.2728 -0.3056  0.5118
  176MOL0     C23663   4.881   0.039  12.097  0.4943  0.7981 -0.0383
  176MOL0     C23664   4.955  -0.061  12.188 -0.6233 -0.6447  0.0326
  176MOL0     C23665   4.841  -0.155  12.239  0.0982  0.2394 -0.7392
  176MOL0     C23666   4.877  -0.229  12.367  0.0321 -0.4940  0.2369
  176MOL0     C23667   4.964  -0.350  12.356 -0.1640  0.2425  0.2950
  176MOL0     C23668   4.872  -0.476  12.304  0.1726 -0.9108 -0.8520
  176MOL0     C23669   4.921  -0.547  12.186 -0.2942 -0.1346  0.0338
  176MOL0    Cl23670   5.068  -0.634  12.241  0.3875 -0.4836 -0.0539
  176MOL0     C23671   5.302   0.095  11.911 -0.5400  0.9781 -0.0082
  176MOL0     C23672   5.410   0.105  11.827  0.9679 -0.7463 -0.6093
  176MOL0     O23673   5.405   0.041  11.430 -0.1973  0.3441  0.6977
  176MOL0     C23674   5.695   0.233  11.405 -0.6163 -0.6483 -0.0079
  176MOL0     C23675   5.770   0.331  11.330 -0.2759 -0.3337 -0.0277
  176MOL0     N23676   6.010   0.948  11.261 -0.3173 -0.4251  0.4480
  176MOL0     N23677   6.084   1.057  11.245 -0.2365  0.0668 -0.1282
  176MOL0     C23678   7.171   1.288  10.459 -0.1129  0.6922 -0.6978
  176MOL0     C23679   7.263   1.308  10.355  0.4788 -0.6412 -0.5707
  176MOL0     C23680   7.527   1.248   9.987  0.5683  0.4111  0.0693
  176MOL0     C23681   7.602   1.164   9.906 -0.3664  0.4826  0.3895
  176MOL0     C23682   7.671   1.218   9.794 -0.4610  0.5688  0.7099
  176MOL0     C23683   7.665   1.350   9.764  0.1900 -0.7551  1.1387
  176MOL0     O23684   7.729   1.398   9.640 -0.0879 -0.1724 -0.5230
  176MOL0     C23685   7.777   1.537   9.632  0.3473  1.4790  0.3936
  176MOL0     C23686   7.899   1.574   9.727  0.2061  0.0667 -0.5846
  176MOL0     C23687   7.983   1.454   9.771  0.1564 -0.1307  0.2071
  176MOL0     C23688   8.047   1.393   9.651 -0.1434  0.0890 -0.3200
  176MOL0     C23689   8.159   1.487   9.625 -0.3035 -0.0420  0.0977
  176MOL0     C23690   8.266   1.553   9.622  0.5224 -0.5195 -1.5001
  176MOL0     C23691   7.597   1.437   9.850  0.4586  1.0520  0.0370
  176MOL0     C23692   7.530   1.385   9.961  0.6993 -1.0927  1.0279
  176MOL0     H23693   7.218   1.023  10.183 -3.1980  1.6351 -2.1074
  176MOL0     H23694   7.066   0.988  10.356 -0.1956 -0.4715  2.6467
  176MOL0     H23695   7.103   1.014  10.716 -2.1623 -0.5398  0.1753
  176MOL0     H23696   7.166   1.176  10.700  0.1428  0.7345 -2.2424
  176MOL0     H23697   7.033   1.183  10.898 -0.3948  3.4964 -1.2785
  176MOL0     H23698   6.941   1.270  10.789  1.6778  0.5526  1.0945
  176MOL0     H23699   6.806   1.099  10.705  2.5510  1.3541 -1.7024
  176MOL0     H23700   6.868   0.982  10.823 -0.6478  0.1912 -1.1656
  176MOL0     H23701   6.801   1.175  10.994 -2.8193 -1.4412  0.9897
  176MOL0     H23702   6.697   1.239  10.865 -3.6209 -2.8215 -0.6539
  176MOL0     H23703   6.604   0.996  10.860  0.6722  1.1139 -2.6246
  176MOL0     H23704   6.699   0.982  11.023 -1.2302 -0.0791  0.6990
  176MOL0     H23705   6.577   1.164  11.111  0.2926 -4.5468  1.5771
  176MOL0     H23706   6.480   1.196  10.955 -0.7686  0.9927  1.1183
  176MOL0     H23707   6.376   0.985  10.975 -0.9752  1.2055 -0.2694
  176MOL0     H23708   6.469   0.941  11.118  0.0450 -0.6499 -1.6342
  176MOL0     H23709   6.266   1.183  11.077 -2.5060  0.4390  3.2367
  176MOL0     H23710   6.350   1.154  11.228 -0.4606  0.3745 -0.1279
  176MOL0     H23711   6.223   0.834  11.042  1.2263  1.5207 -0.6233
  176MOL0     H23712   6.053   0.657  11.136  3.7443  3.7437 -2.5327
  176MOL0     H23713   5.913   0.712  11.248  0.9828 -2.3474  1.4287
  176MOL0     H23714   5.934   0.815  10.968  0.6632 -1.8138  0.1825
  176MOL0     H23715   5.788   0.808  11.078  1.2158 -0.1660  2.7999
  176MOL0     H23716   5.923   0.571  10.928 -0.8393  0.6060 -3.2376
  176MOL0     H23717   5.795   0.666  10.860 -0.2286 -0.6645 -0.0407
  176MOL0     H23718   5.722   0.452  10.955  1.3954  0.2458 -1.6881
  176MOL0     H23719   5.652   0.591  11.049  0.3424 -0.8611  0.1113
  176MOL0     H23720   5.541   0.415  11.110  1.4775 -0.4156 -0.7969
  176MOL0     H23721   5.341   0.160  11.215 -1.1979  0.2223 -0.5292
  176MOL0     H23722   5.281   0.311  11.289  0.9747  1.3107  1.3773
  176MOL0     H23723   5.350   0.311  11.122 -5.7260 -0.8334 -0.3388
  176MOL0     H23724   5.231   0.164  11.545  1.1085  1.2094  0.4449
  176MOL0     H23725   5.039   0.131  11.708 -0.4472 -0.9325  2.4394
  176MOL0     H23726   4.901   0.154  11.914  2.3168 -0.2932 -1.6507
  176MOL0     H23727   4.941  -0.016  11.897  0.6301 -0.0354  0.1076
  176MOL0     H23728   4.885   0.132  12.153 -1.3154 -0.6799  2.7668
  176MOL0     H23729   4.777   0.013  12.075 -1.0335  2.4954  4.2887
  176MOL0     H23730   5.006  -0.003  12.266  3.5409 -0.2344 -2.6657
  176MOL0     H23731   5.024  -0.125  12.133 -1.6381  0.3200 -2.4926
  176MOL0     H23732   4.749  -0.100  12.262 -0.2605 -0.8549  0.5426
  176MOL0     H23733   4.809  -0.217  12.155 -3.2622  0.3731  0.2932
  176MOL0     H23734   4.787  -0.268  12.414  0.6974 -0.1287  1.8925
  176MOL0     H23735   4.922  -0.164  12.443 -0.8438 -1.5206  1.7080
  176MOL0     H23736   5.051  -0.336  12.292 -1.0814  2.8142 -0.5506
  176MOL0     H23737   5.003  -0.380  12.454  0.6742  1.9948  0.5308
  176MOL0     H23738   4.769  -0.444  12.288 -0.0347 -0.7514  0.6542
  176MOL0     H23739   4.869  -0.546  12.388 -0.6166  1.3435  1.1124
  176MOL0     H23740   4.944  -0.474  12.108  0.4444  1.1593  1.4111
  176MOL0     H23741   4.837  -0.613  12.161 -1.0917 -0.1508  2.4977
  176MOL0     H23742   5.334   0.080  12.013  0.2790  2.8182  0.0390
  176MOL0     H23743   5.511   0.116  11.866  0.7788 -1.3030  0.0742
  176MOL0     H23744   5.732   0.169  11.484  1.0168 -2.6626 -2.2670
  176MOL0     H23745   5.874   0.353  11.354  0.1293 -0.4207 -1.6289
  176MOL0     H23746   7.148   1.364  10.533 -1.6733  0.6856 -1.1431
  176MOL0     H23747   7.322   1.398  10.345  3.7111 -2.6617 -1.0215
  176MOL0     H23748   7.595   1.056   9.913  1.9345  0.2305 -0.2306
  176MOL0     H23749   7.731   1.150   9.735 -1.5625 -0.1174  0.3571
  176MOL0     H23750   7.804   1.547   9.527 -1.8344 -1.7314 -0.5884
  176MOL0     H23751   7.698   1.612   9.647  0.2224  1.1653  1.3834
  176MOL0     H23752   7.856   1.608   9.821 -1.8168  2.0204 -2.1028
  176MOL0     H23753   7.955   1.658   9.684  1.0270  0.9170  1.9707
  176MOL0     H23754   7.919   1.384   9.825 -1.0480 -0.7492 -1.8947
  176MOL0     H23755   8.065   1.480   9.839  0.6897  0.1036 -0.5098
  176MOL0     H23756   7.986   1.379   9.561 -0.2149 -0.9678 -0.1150
  176MOL0     H23757   8.082   1.293   9.678  1.1288  0.4322 -0.6342
  176MOL0     H23758   8.360   1.598   9.644 -0.1630  0.3993 -0.3327
  176MOL0     H23759   7.587   1.543   9.828 -0.9225  1.8787  3.9708
  176MOL0     H23760   7.464   1.446  10.022 -0.6287 -3.8733  2.5588
  177MOL0     O23761   3.640   3.104   1.337  0.7754 -0.1943 -0.3982
  177MOL0     C23762   3.761   3.122   1.330 -0.2123  0.9523  0.2499
  177MOL0     O23763   3.820   3.238   1.298  0.3077  0.4344  0.3871
  177MOL0     C23764   3.761   3.359   1.293  0.5857  0.6906  0.2898
  177MOL0     C23765   3.637   3.382   1.363 -0.1434  0.2108  0.4033
  177MOL0     C23766   3.585   3.503   1.353  0.9775  0.2277 -0.5096
  177MOL0     C23767   3.636   3.610   1.283  0.0094 -0.4574  0.7315
  177MOL0     O23768   3.573   3.731   1.313  0.0858 -0.0098  0.7240
  177MOL0     C23769   3.662   3.845   1.300 -0.9709 -0.1953  0.1888
  177MOL0     C23770   3.585   3.964   1.360  0.0290  0.2233  0.6652
  177MOL0     C23771   3.670   4.100   1.338  0.4408  0.1155  0.6122
  177MOL0     C23772   3.598   4.225   1.384  0.1344 -0.2341  0.1502
  177MOL0     C23773   3.673   4.350   1.346  0.0760 -0.5491 -0.2728
  177MOL0     C23774   3.584   4.473   1.388  0.6677 -0.7795  0.0642
  177MOL0     C23775   3.647   4.606   1.364 -0.5649  0.3423 -0.1539
  177MOL0     C23776   3.769   4.639   1.443  0.1610  0.0061  0.0297
  177MOL0     N23777   3.739   4.669   1.585 -0.0989 -0.9417  0.3133
  177MOL0     C23778   3.771   4.786   1.662 -0.4381 -0.6477  0.1321
  177MOL0     C23779   3.737   4.755   1.789 -0.6138 -1.7044 -0.6477
  177MOL0     C23780   3.781   4.851   1.898  0.7557  0.5811 -0.0421
  177MOL0     C23781   3.725   4.798   2.032 -0.2089 -0.5058  0.4469
  177MOL0     C23782   3.761   4.866   2.165 -0.5483 -0.6778  0.4132
  177MOL0     C23783   3.905   4.876   2.193 -0.0699  0.7873  0.7097
  177MOL0     O23784   3.933   4.799   2.303  0.2779 -0.4547  0.0772
  177MOL0     C23785   4.004   4.857   2.407 -0.1459  0.8712 -0.4116
  177MOL0     C23786   4.085   4.967   2.410  0.1024 -1.4931  0.4115
  177MOL0     C23787   4.161   5.006   2.524  0.2641  0.5270 -0.3576
  177MOL0     C23788   4.254   5.119   2.496 -0.0273  1.0908 -0.2300
  177MOL0     C23789   4.163   4.920   2.627  1.2269 -0.8148  0.1227
  177MOL0     C23790   4.239   4.940   2.754  0.0465 -0.1304  0.2063
  177MOL0     O23791   4.287   4.838   2.826 -0.2217  0.2018  0.6307
  177MOL0     C23792   4.418   4.843   2.856  0.2200  0.3760 -0.4573
  177MOL0     C23793   4.444   4.795   2.981 -0.7147  0.2898 -0.1894
  177MOL0     C23794   4.578   4.775   3.021  0.0983  0.2919 -0.4497
  177MOL0     C23795   4.686   4.823   2.945 -0.2210 -0.2199  0.4008
  177MOL0     O23796   4.821   4.822   2.978 -0.3181 -0.6118  1.0224
  177MOL0     C23797   4.863   4.770   3.105 -0.2268 -0.0557  0.0667
  177MOL0     C23798   5.015   4.772   3.100 -0.3763  0.3845  0.5045
  177MOL0     C23799   5.071   4.656   3.025 -0.3865  0.2884  0.2218
  177MOL0     C23800   5.209   4.667   2.964  0.4197  0.9496 -0.2795
  177MOL0     C23801   5.293   4.650   3.084 -0.6885 -0.1406 -0.2484
  177MOL0     C23802   5.448   4.656   3.066 -0.7194 -0.3424 -0.0059
  177MOL0     C23803   5.488   4.754   2.959  0.7547 -0.3077  0.8725
  177MOL0     C23804   5.640   4.786   2.952  0.3628 -0.6207  1.3049
  177MOL0    Cl23805   5.735   4.649   2.897  0.1274 -0.1451  0.3298
  177MOL0     C23806   4.659   4.866   2.813  0.4655 -0.2993 -0.6836
  177MOL0     C23807   4.526   4.877   2.762  0.5923  0.3547 -0.2542
  177MOL0     O23808   4.237   5.060   2.785 -0.7049  0.8916  1.0312
  177MOL0     C23809   4.093   4.804   2.619 -0.6844 -0.0804  0.1394
  177MOL0     C23810   4.012   4.775   2.516  0.6133 -0.9004 -0.2374
  177MOL0     N23811   3.675   4.634   1.796 -0.1182  0.2833 -0.8052
  177MOL0     N23812   3.693   4.577   1.679 -0.2831 -0.8743  0.5434
  177MOL0     C23813   3.751   3.589   1.201 -1.0477  0.5960  0.0768
  177MOL0     C23814   3.807   3.460   1.212  0.6556  0.2300  0.2799
  177MOL0     C23815   3.857   3.006   1.354  0.2700  0.4691  0.3906
  177MOL0     C23816   3.798   2.880   1.377  0.8439 -0.6934  0.6182
  177MOL0     C23817   3.879   2.773   1.394 -0.3262  0.7962  1.2638
  177MOL0     C23818   4.018   2.780   1.387 -1.0902 -0.5553  0.6643
  177MOL0     O23819   4.109   2.675   1.388  0.4675 -0.0133 -1.1222
  177MOL0     C23820   4.058   2.538   1.408 -0.0824  0.5045 -0.1984
  177MOL0     C23821   4.185   2.449   1.404  0.0701  0.0537 -0.3637
  177MOL0     C23822   4.205   2.395   1.261 -0.2691  0.6936  0.2774
  177MOL0     C23823   4.348   2.400   1.210 -0.7687 -1.0120  0.2502
  177MOL0     C23824   4.445   2.325   1.286  0.1548  0.1168 -0.4403
  177MOL0     C23825   4.515   2.257   1.354  0.2020 -0.4196 -0.1600
  177MOL0     C23826   4.074   2.903   1.370  0.0830  0.3876  0.2844
  177MOL0     C23827   3.991   3.021   1.356 -0.1389 -0.5096 -0.7335
  177MOL0     H23828   3.583   3.317   1.431 -2.4931  0.9469 -0.6508
  177MOL0     H23829   3.498   3.530   1.413  0.4582 -0.7321 -0.8107
  177MOL0     H23830   3.750   3.821   1.361 -0.0660 -0.8149 -1.2860
  177MOL0     H23831   3.699   3.867   1.199 -0.3712  0.4003  0.5284
  177MOL0     H23832   3.487   3.975   1.314  0.5230  1.8770 -0.0991
  177MOL0     H23833   3.558   3.938   1.463 -5.5324 -2.2748 -1.0733
  177MOL0     H23834   3.770   4.092   1.382  1.3471  1.7600 -1.0447
  177MOL0     H23835   3.673   4.118   1.231 -4.3816  1.7257  0.5061
  177MOL0     H23836   3.506   4.222   1.324 -0.1902 -4.9061  0.4788
  177MOL0     H23837   3.584   4.211   1.491  0.9103  0.2977  0.3298
  177MOL0     H23838   3.774   4.348   1.388  0.1981  3.9323  0.1889
  177MOL0     H23839   3.679   4.351   1.237 -2.3338 -2.7699 -0.5209
  177MOL0     H23840   3.482   4.462   1.348  1.0510 -2.6775 -0.4773
  177MOL0     H23841   3.572   4.461   1.496 -1.3668  0.9542  0.0927
  177MOL0     H23842   3.680   4.630   1.262  1.9347  4.3995  1.3693
  177MOL0     H23843   3.562   4.675   1.377 -1.4966 -0.7492 -0.2852
  177MOL0     H23844   3.808   4.730   1.397  0.1387 -1.4100 -3.0611
  177MOL0     H23845   3.846   4.561   1.447  1.4818  1.2951  0.8486
  177MOL0     H23846   3.823   4.870   1.619 -0.8302 -2.0856 -3.5288
  177MOL0     H23847   3.890   4.859   1.906  0.7897 -0.7872  1.1786
  177MOL0     H23848   3.738   4.948   1.871  1.6655  1.4475  1.4969
  177MOL0     H23849   3.755   4.694   2.049 -2.3005 -1.0165  1.4328
  177MOL0     H23850   3.617   4.800   2.017 -0.0687  3.0084 -1.0312
  177MOL0     H23851   3.703   4.813   2.241 -1.0681 -0.0541  0.4547
  177MOL0     H23852   3.723   4.968   2.164  2.7122  0.6918  1.4718
  177MOL0     H23853   3.927   4.979   2.222 -0.9208  1.0654  0.3759
  177MOL0     H23854   3.969   4.850   2.108  0.3448 -0.1731  1.3024
  177MOL0     H23855   4.088   5.042   2.331 -2.4377  4.5421  5.2157
  177MOL0     H23856   4.190   5.207   2.506 -0.8747  0.4367  0.3232
  177MOL0     H23857   4.331   5.124   2.573 -2.2506 -1.8466  2.4954
  177MOL0     H23858   4.295   5.112   2.395 -1.4021 -1.5569 -0.7100
  177MOL0     H23859   4.361   4.758   3.041 -0.3140 -1.6908 -0.7826
  177MOL0     H23860   4.599   4.731   3.117  2.5720  1.1721 -0.4900
  177MOL0     H23861   4.837   4.833   3.190 -0.2328 -2.0416  1.6026
  177MOL0     H23862   4.829   4.667   3.123  0.9764 -0.3147  0.9931
  177MOL0     H23863   5.045   4.865   3.049  0.6095 -1.6295 -2.8869
  177MOL0     H23864   5.051   4.757   3.202  0.2514  1.6737  0.4949
  177MOL0     H23865   5.001   4.643   2.943  0.2234 -1.0905 -0.1050
  177MOL0     H23866   5.068   4.566   3.088  0.8554 -1.7829 -2.4484
  177MOL0     H23867   5.237   4.600   2.882  0.3759  0.7801 -0.1576
  177MOL0     H23868   5.207   4.768   2.922 -1.4327  1.0978  0.0734
  177MOL0     H23869   5.280   4.557   3.140  4.2718  0.4271  2.4373
  177MOL0     H23870   5.280   4.736   3.152  1.7412  0.7771 -0.8249
  177MOL0     H23871   5.496   4.678   3.162 -2.1226 -0.6708  0.7996
  177MOL0     H23872   5.478   4.554   3.041 -3.9449 -1.5649  0.5570
  177MOL0     H23873   5.437   4.850   2.970  1.0162  0.3032 -2.2792
  177MOL0     H23874   5.467   4.698   2.868  1.7381 -1.0346  1.0694
  177MOL0     H23875   5.668   4.831   3.048 -1.6927  0.6060  1.3826
  177MOL0     H23876   5.641   4.863   2.874 -3.5388 -0.9627  0.7418
  177MOL0     H23877   4.744   4.909   2.761 -0.2944  1.2953 -0.6597
  177MOL0     H23878   4.519   4.893   2.655 -1.5644  0.4620 -0.1370
  177MOL0     H23879   4.111   4.726   2.693  1.4751 -2.0124 -2.2561
  177MOL0     H23880   3.960   4.681   2.504 -0.0619 -0.3611 -1.8333
  177MOL0     H23881   3.811   3.656   1.140  0.0672 -0.1962  0.2876
  177MOL0     H23882   3.884   3.428   1.143 -1.6462 -2.9954 -1.0895
  177MOL0     H23883   3.690   2.871   1.379  0.3202  3.1832 -1.1503
  177MOL0     H23884   3.832   2.676   1.411  2.2118 -1.0693 -1.3774
  177MOL0     H23885   4.013   2.531   1.508 -0.0986 -0.5972 -0.2747
  177MOL0     H23886   3.977   2.504   1.343 -0.3544 -0.1245  0.4584
  177MOL0     H23887   4.175   2.369   1.478  0.0361 -0.7311 -1.2078
  177MOL0     H23888   4.273   2.506   1.436 -0.7947  2.8433 -2.5565
  177MOL0     H23889   4.142   2.453   1.193  0.4143  0.3642 -0.6426
  177MOL0     H23890   4.181   2.288   1.260  1.3152  0.2957  1.2029
  177MOL0     H23891   4.374   2.506   1.207 -1.4299 -0.8588 -0.2131
  177MOL0     H23892   4.348   2.358   1.109  1.1053 -3.6887  1.2492
  177MOL0     H23893   4.582   2.194   1.409  0.2919 -1.1409 -1.0610
  177MOL0     H23894   4.180   2.921   1.358 -0.2440  2.1682 -0.2215
  177MOL0     H23895   4.038   3.119   1.348  0.9063 -0.9616 -0.2637
  178MOL0     O23896  11.392   6.848   5.445  0.7109  0.0604 -0.1229
  178MOL0     C23897  11.379   6.806   5.566  1.1120 -0.0216  0.4045
  178MOL0     O23898  11.269   6.761   5.617  0.3009  0.0389 -0.1469
  178MOL0     C23899  11.147   6.745   5.543  0.2456 -0.4906 -0.4950
  178MOL0     C23900  11.071   6.852   5.513  0.1538  0.3234 -0.1343
  178MOL0     C23901  10.949   6.848   5.445 -0.9189 -0.4992  0.5256
  178MOL0     C23902  10.899   6.722   5.410 -0.3386 -0.1758 -0.8082
  178MOL0     O23903  10.790   6.700   5.324  0.1063 -0.0017 -0.6369
  178MOL0     C23904  10.725   6.805   5.256  0.0585 -1.3728 -0.1727
  178MOL0     C23905  10.643   6.893   5.345  0.4928 -0.2320  0.2965
  178MOL0     C23906  10.515   6.825   5.399  0.9280 -0.6462 -0.1205
  178MOL0     C23907  10.396   6.849   5.304  0.4105  0.3000 -0.8214
  178MOL0     C23908  10.370   6.771   5.178  0.6501 -0.8072  0.2685
  178MOL0     C23909  10.362   6.624   5.200 -0.3705 -0.1346  0.2832
  178MOL0     C23910  10.288   6.551   5.077 -0.2485  1.0292  0.0283
  178MOL0     C23911  10.248   6.398   5.087 -0.1342 -0.2568 -0.1661
  178MOL0     N23912  10.174   6.357   5.212 -0.2851 -0.2998 -0.2983
  178MOL0     C23913  10.054   6.278   5.196 -0.9120 -0.3303 -0.1858
  178MOL0     C23914  10.034   6.227   5.319 -0.5207  0.4619 -0.3658
  178MOL0     C23915   9.933   6.120   5.362 -0.1145  0.1962  0.6294
  178MOL0     C23916   9.927   5.988   5.270  0.0238 -0.1078  0.1627
  178MOL0     C23917   9.845   6.002   5.138  0.4324  0.0667  0.5867
  178MOL0     C23918   9.873   5.888   5.033 -0.4367 -0.1688  0.5408
  178MOL0     O23919  10.008   5.861   4.986  0.6537  0.5000  0.1342
  178MOL0     C23920  10.076   5.956   4.915  0.7214 -0.1248  0.1469
  178MOL0     C23921  10.017   6.056   4.829  0.3823  0.0392 -0.1046
  178MOL0     C23922  10.100   6.145   4.754 -0.8410 -0.0824 -0.0168
  178MOL0     C23923  10.034   6.261   4.683  0.1449 -0.2904  0.3719
  178MOL0     C23924  10.244   6.119   4.758  1.0140 -1.2840 -0.1609
  178MOL0     C23925  10.339   6.193   4.669 -1.0264  0.8330  0.6724
  178MOL0     O23926  10.300   6.291   4.593  0.6725 -1.0800  0.0313
  178MOL0     C23927  10.375   6.409   4.611 -0.7452  0.3246 -0.5076
  178MOL0     C23928  10.465   6.447   4.719 -0.3274  0.0320  0.4011
  178MOL0     C23929  10.523   6.574   4.726 -0.5205  0.7173  0.3116
  178MOL0     C23930  10.509   6.672   4.623  0.8090 -0.4018 -0.0276
  178MOL0     O23931  10.563   6.800   4.620 -1.1720  0.5110 -0.6566
  178MOL0     C23932  10.697   6.803   4.671  0.3765 -0.4386  0.1191
  178MOL0     C23933  10.698   6.866   4.810 -0.3186  0.2100 -0.1961
  178MOL0     C23934  10.659   7.016   4.806 -0.3660 -0.3834 -0.1498
  178MOL0     C23935  10.526   7.056   4.746 -0.2413  0.1259 -0.3369
  178MOL0     C23936  10.488   7.199   4.781 -0.1000 -0.4114 -0.4538
  178MOL0     C23937  10.430   7.215   4.923  0.3011  0.6613  0.2252
  178MOL0     C23938  10.319   7.109   4.968  0.0994 -0.1299  1.1081
  178MOL0     C23939  10.217   7.171   5.072  0.0950 -0.1252 -0.5552
  178MOL0    Cl23940  10.093   7.052   5.107 -0.1526  0.3133 -0.3169
  178MOL0     C23941  10.434   6.632   4.513 -0.3093 -0.6517 -0.3403
  178MOL0     C23942  10.364   6.511   4.516 -0.3116 -0.7401 -0.4124
  178MOL0     O23943  10.459   6.158   4.665  0.1010  0.3892  0.3293
  178MOL0     C23944  10.304   6.023   4.836  1.1314  0.6052  1.1629
  178MOL0     C23945  10.214   5.938   4.915 -0.3824 -0.6959  0.4695
  178MOL0     N23946  10.133   6.272   5.399 -0.2130  0.8441 -0.7796
  178MOL0     N23947  10.210   6.353   5.341 -0.2535 -0.0179  0.1424
  178MOL0     C23948  10.975   6.611   5.438  0.1532 -0.4911 -0.0967
  178MOL0     C23949  11.101   6.615   5.508  0.0376 -0.3640  1.0298
  178MOL0     C23950  11.498   6.790   5.654 -0.8126  0.0325  0.9749
  178MOL0     C23951  11.494   6.767   5.791 -0.2938  0.8086 -0.7009
  178MOL0     C23952  11.602   6.751   5.870 -0.1498  0.6351  0.3047
  178MOL0     C23953  11.729   6.759   5.812 -0.0836  0.1522  0.1343
  178MOL0     O23954  11.842   6.765   5.885 -0.7140  0.1848  0.0034
  178MOL0     C23955  11.888   6.637   5.933 -0.5188  0.1202  0.2641
  178MOL0     C23956  11.904   6.628   6.083 -0.5924  0.1242  0.2392
  178MOL0     C23957  11.772   6.658   6.168  0.5328  0.1287  1.3132
  178MOL0     C23958  11.791   6.663   6.321 -0.2948 -0.1369  0.0116
  178MOL0     C23959  11.919   6.733   6.360 -0.6897  0.7223 -0.2628
  178MOL0     C23960  12.007   6.805   6.404  0.4103  1.1098 -0.3572
  178MOL0     C23961  11.738   6.766   5.673 -0.0758  0.3953  0.1324
  178MOL0     C23962  11.624   6.795   5.594  0.1642 -0.2871 -0.6815
  178MOL0     H23963  11.113   6.947   5.544  3.1687 -0.6871 -0.7577
  178MOL0     H23964  10.900   6.942   5.419  0.5779  0.7489  2.0311
  178MOL0     H23965  10.799   6.869   5.207 -0.3457 -0.2722  0.6062
  178MOL0     H23966  10.662   6.771   5.174 -1.3306  0.3438  0.1160
  178MOL0     H23967  10.698   6.933   5.431  1.2564  2.7036 -1.4424
  178MOL0     H23968  10.611   6.978   5.284  3.9265 -0.1088 -1.5811
  178MOL0     H23969  10.529   6.718   5.414  0.3227 -0.9756 -1.7779
  178MOL0     H23970  10.493   6.858   5.502  1.3915 -0.8890  0.0588
  178MOL0     H23971  10.312   6.818   5.367  1.5823 -3.2075 -0.7765
  178MOL0     H23972  10.388   6.955   5.277  0.1731  2.0049  4.6265
  178MOL0     H23973  10.282   6.813   5.128  1.8248 -1.1949 -2.2339
  178MOL0     H23974  10.453   6.797   5.112 -0.4713 -0.4413 -1.0521
  178MOL0     H23975  10.464   6.586   5.210  1.2614  4.0407  1.8377
  178MOL0     H23976  10.295   6.602   5.283  0.1292  1.7989  1.2479
  178MOL0     H23977  10.192   6.597   5.049 -1.0277  0.3238  1.4380
  178MOL0     H23978  10.355   6.551   4.990 -0.1060 -2.9302 -0.0619
  178MOL0     H23979  10.337   6.337   5.071 -0.0581 -0.2754  0.3233
  178MOL0     H23980  10.179   6.374   5.005  1.3756  2.0718 -2.2802
  178MOL0     H23981  10.009   6.264   5.098  2.2033 -1.7089 -1.5167
  178MOL0     H23982   9.946   6.097   5.468  3.6904  3.9305  1.2160
  178MOL0     H23983   9.839   6.174   5.347 -0.1588  0.3026  1.2662
  178MOL0     H23984   9.864   5.917   5.325 -0.9087 -0.0996 -0.8521
  178MOL0     H23985  10.027   5.948   5.250 -0.2503  0.9669 -4.5705
  178MOL0     H23986   9.867   6.095   5.085 -0.8940 -1.8828 -3.8482
  178MOL0     H23987   9.738   5.990   5.159  0.4609 -1.3874 -0.0404
  178MOL0     H23988   9.815   5.899   4.941  1.1513 -1.2635 -0.6539
  178MOL0     H23989   9.834   5.795   5.076 -4.4332  0.4605 -1.2642
  178MOL0     H23990   9.909   6.064   4.827  0.4000  0.6376  0.6707
  178MOL0     H23991  10.051   6.365   4.713  1.7994  0.8059 -3.7445
  178MOL0     H23992  10.054   6.256   4.576  1.1520  0.2844  0.5265
  178MOL0     H23993   9.927   6.239   4.687 -0.3364  1.9396  3.4058
  178MOL0     H23994  10.476   6.377   4.801  3.2240 -0.7893 -0.5844
  178MOL0     H23995  10.590   6.590   4.810 -2.1144  1.1147  1.5658
  178MOL0     H23996  10.740   6.702   4.669 -2.0338 -1.5680  1.3574
  178MOL0     H23997  10.750   6.858   4.593 -2.5690 -1.4352 -2.7903
  178MOL0     H23998  10.633   6.804   4.873  2.7848 -1.9048  1.2353
  178MOL0     H23999  10.803   6.863   4.839 -0.3559  0.3090 -0.0476
  178MOL0     H24000  10.744   7.058   4.751  0.8643 -2.5029  0.0494
  178MOL0     H24001  10.666   7.056   4.907 -2.3781 -0.8253  0.2209
  178MOL0     H24002  10.540   7.047   4.638  4.3354 -3.2119  0.1827
  178MOL0     H24003  10.447   6.987   4.780 -0.9135  1.4110  0.8128
  178MOL0     H24004  10.408   7.237   4.717 -0.8472  0.3028  0.8629
  178MOL0     H24005  10.578   7.260   4.768  0.1118 -0.6088  0.0441
  178MOL0     H24006  10.499   7.195   5.006 -0.3546  0.6182  0.7659
  178MOL0     H24007  10.388   7.315   4.940 -1.2929 -0.2646  2.0216
  178MOL0     H24008  10.369   7.021   5.008 -1.2372 -0.5467  1.8970
  178MOL0     H24009  10.269   7.075   4.877  0.7619 -0.5253  0.8802
  178MOL0     H24010  10.167   7.263   5.039  0.2665  2.1820  4.6660
  178MOL0     H24011  10.273   7.190   5.164 -0.6907  0.2740 -0.1472
  178MOL0     H24012  10.424   6.692   4.423 -0.8060 -1.7390 -1.0295
  178MOL0     H24013  10.295   6.486   4.436 -2.2086  1.8705  0.2883
  178MOL0     H24014  10.409   5.996   4.834  0.9626 -0.1956 -1.8767
  178MOL0     H24015  10.264   5.864   4.976  0.9225 -0.7995 -0.6912
  178MOL0     H24016  10.932   6.520   5.397 -1.1230 -0.9135  1.9746
  178MOL0     H24017  11.165   6.532   5.535  1.3403  0.8531  1.8453
  178MOL0     H24018  11.401   6.743   5.842  1.1915 -2.8917  0.5617
  178MOL0     H24019  11.583   6.743   5.977 -2.5362 -1.8093 -0.2009
  178MOL0     H24020  11.829   6.552   5.898  1.4309  0.2342 -3.9268
  178MOL0     H24021  11.980   6.614   5.880 -2.9213 -1.0447 -3.8651
  178MOL0     H24022  11.980   6.706   6.097 -1.4849  1.3136 -1.3039
  178MOL0     H24023  11.938   6.526   6.105 -2.2329 -0.4598  0.2006
  178MOL0     H24024  11.682   6.602   6.141  0.4604  1.1087 -0.6755
  178MOL0     H24025  11.742   6.758   6.136 -0.8662 -1.0594 -1.5211
  178MOL0     H24026  11.794   6.559   6.352  0.1856 -0.1455 -0.0541
  178MOL0     H24027  11.712   6.723   6.368  0.0414  0.5372 -0.2684
  178MOL0     H24028  12.070   6.886   6.436  0.7115  0.5295  0.5483
  178MOL0     H24029  11.836   6.782   5.628 -0.3844  0.1655 -0.6361
  178MOL0     H24030  11.635   6.840   5.496 -0.0829 -2.0600 -1.5608
  179MOL0     O24031   0.743   9.499   9.435 -0.7301  0.2886  0.4879
  179MOL0     C24032   0.632   9.541   9.402 -0.0413  0.5834  1.1377
  179MOL0     O24033   0.512   9.506   9.462 -1.0777 -1.1549 -1.6572
  179MOL0     C24034   0.513   9.444   9.580 -0.2720 -0.0940 -0.7359
  179MOL0     C24035   0.608   9.454   9.681 -0.6260 -0.0421 -0.5032
  179MOL0     C24036   0.589   9.406   9.812  0.5383 -0.7016 -0.4640
  179MOL0     C24037   0.471   9.335   9.847 -0.5642 -0.7374  0.6662
  179MOL0     O24038   0.449   9.267   9.963 -0.3861 -0.5286  0.7187
  179MOL0     C24039   0.538   9.300  10.076 -0.1293  0.1502 -0.5345
  179MOL0     C24040   0.531   9.190  10.193 -0.2692 -0.7424  0.0852
  179MOL0     C24041   0.525   9.247  10.338  0.1028  0.4469  1.0376
  179MOL0     C24042   0.382   9.295  10.361  0.2039 -0.5991 -1.2125
  179MOL0     C24043   0.377   9.341  10.504  0.7799 -1.0564 -0.5274
  179MOL0     C24044   0.243   9.394  10.540  0.4693 -0.7401  0.1355
  179MOL0     C24045   0.241   9.447  10.682 -0.3208 -0.0777  0.4887
  179MOL0     C24046   0.112   9.533  10.697 -0.3985 -0.2356 -0.0229
  179MOL0     N24047   0.140   9.652  10.619  0.3999 -0.3379 -0.0496
  179MOL0     C24048   0.250   9.732  10.619 -0.0659  0.1421 -0.0279
  179MOL0     C24049   0.231   9.823  10.518 -0.0614  0.6256 -0.7905
  179MOL0     C24050   0.334   9.912  10.464 -0.5400 -0.1056 -0.1051
  179MOL0     C24051   0.438   9.833  10.382 -0.5037 -0.2618  1.1777
  179MOL0     C24052   0.395   9.806  10.234  0.2589  0.4585  0.4617
  179MOL0     C24053   0.478   9.694  10.175  0.9258  0.4199  0.1738
  179MOL0     O24054   0.623   9.706  10.162 -0.2561 -0.9002  0.8264
  179MOL0     C24055   0.675   9.738  10.039  1.0247 -0.5542  1.1395
  179MOL0     C24056   0.775   9.662   9.988 -0.5592  0.3990  0.5365
  179MOL0     C24057   0.831   9.689   9.859  0.0877 -1.1982  0.0914
  179MOL0     C24058   0.954   9.603   9.819 -0.3002 -0.2875  0.5725
  179MOL0     C24059   0.776   9.792   9.774  0.7956 -1.4714 -1.0792
  179MOL0     C24060   0.804   9.810   9.627  0.4111  1.0538  0.9382
  179MOL0     O24061   0.937   9.797   9.570  0.0945 -0.2579 -0.0020
  179MOL0     C24062   0.955   9.839   9.438 -0.4779 -0.2001  0.0687
  179MOL0     C24063   1.055   9.770   9.364  0.1367  0.0879 -0.2187
  179MOL0     C24064   1.075   9.796   9.228 -0.0153  0.5206 -0.6763
  179MOL0     C24065   1.001   9.889   9.157 -0.0887 -0.3795  0.1914
  179MOL0     O24066   1.035   9.903   9.028  0.4671 -0.3117  0.2148
  179MOL0     C24067   0.934   9.977   8.948 -0.4104  0.4253 -0.1091
  179MOL0     C24068   0.960  10.125   8.962 -0.4507  0.1897  0.8473
  179MOL0     C24069   1.047  10.162   8.847 -0.7080 -1.0920  0.4722
  179MOL0     C24070   1.097  10.316   8.828  0.6155  0.0476 -0.3810
  179MOL0     C24071   1.236  10.338   8.891  0.4366  0.0734 -0.5031
  179MOL0     C24072   1.289  10.477   8.884  0.1620 -0.3001 -0.2742
  179MOL0     C24073   1.377  10.500   8.756 -0.0600  0.3854 -0.5325
  179MOL0     C24074   1.455  10.625   8.767  0.0840  0.8182 -1.1575
  179MOL0    Cl24075   1.612  10.623   8.689 -0.0190  0.1867  0.9305
  179MOL0     C24076   0.890   9.960   9.223  0.6838 -0.0022 -0.1169
  179MOL0     C24077   0.876   9.932   9.363  0.1691 -0.5643  0.1565
  179MOL0     O24078   0.695   9.815   9.563 -0.3683  0.4890 -0.0776
  179MOL0     C24079   0.669   9.868   9.829  0.3350 -0.7064 -0.1014
  179MOL0     C24080   0.614   9.839   9.949  0.3458 -0.7932 -0.0883
  179MOL0     N24081   0.106   9.793  10.461  0.4264 -1.1688  0.2517
  179MOL0     N24082   0.052   9.696  10.528 -0.3540  0.1051 -0.0095
  179MOL0     C24083   0.379   9.316   9.741  0.1352  0.1598  0.1886
  179MOL0     C24084   0.399   9.359   9.614  0.8077  0.6223 -0.0737
  179MOL0     C24085   0.614   9.621   9.281  1.1941  0.7467 -0.8106
  179MOL0     C24086   0.484   9.641   9.234 -1.1633 -0.9415 -0.5960
  179MOL0     C24087   0.455   9.699   9.108 -0.1173 -0.2717 -0.1173
  179MOL0     C24088   0.581   9.736   9.032 -0.2364 -0.6541  1.0087
  179MOL0     O24089   0.563   9.780   8.899  0.2894  0.3424  0.1284
  179MOL0     C24090   0.431   9.761   8.845 -0.0140 -1.4796  0.6282
  179MOL0     C24091   0.414   9.832   8.711 -0.2803 -0.6503  0.6195
  179MOL0     C24092   0.527   9.825   8.609  0.3331 -0.7092  0.8734
  179MOL0     C24093   0.498   9.918   8.492 -0.5028  0.1109 -0.7907
  179MOL0     C24094   0.459  10.054   8.531  1.0865 -0.3946  0.2123
  179MOL0     C24095   0.440  10.171   8.541  0.2325  0.5682 -0.6464
  179MOL0     C24096   0.704   9.711   9.080  0.1020 -0.5019 -0.2604
  179MOL0     C24097   0.720   9.664   9.210 -0.6252  0.4400  0.5210
  179MOL0     H24098   0.694   9.521   9.673  0.3196 -1.3771 -2.4447
  179MOL0     H24099   0.668   9.418   9.886  0.0204 -0.5602  0.0734
  179MOL0     H24100   0.640   9.318  10.043  0.6190  0.0676  1.5644
  179MOL0     H24101   0.503   9.392  10.124  1.1217  0.6985 -0.6547
  179MOL0     H24102   0.444   9.122  10.195 -0.9016 -0.4679  7.2646
  179MOL0     H24103   0.626   9.138  10.178  0.6771  0.7607  0.7874
  179MOL0     H24104   0.557   9.179  10.417 -0.8630 -0.2777  0.8177
  179MOL0     H24105   0.594   9.331  10.353  1.3719 -0.4230  0.2667
  179MOL0     H24106   0.345   9.375  10.297  1.2905  1.0730  0.1467
  179MOL0     H24107   0.311   9.212  10.351 -0.9767 -0.0645  1.5955
  179MOL0     H24108   0.408   9.262  10.574  3.4412  0.8039  0.5575
  179MOL0     H24109   0.443   9.428  10.511 -0.4653 -0.0582 -0.8173
  179MOL0     H24110   0.221   9.475  10.471  2.2997  1.6489  2.1740
  179MOL0     H24111   0.167   9.316  10.526  1.3807 -1.2435 -2.5874
  179MOL0     H24112   0.235   9.358  10.746 -5.0910 -1.7543 -1.7930
  179MOL0     H24113   0.335   9.494  10.710  0.4338 -0.4352 -1.3303
  179MOL0     H24114   0.095   9.549  10.803  0.8775  2.1425 -0.1142
  179MOL0     H24115   0.024   9.483  10.655  1.1906 -1.2706 -2.3591
  179MOL0     H24116   0.337   9.740  10.683 -0.9749 -0.0405  1.2570
  179MOL0     H24117   0.285   9.983  10.397 -1.9340 -2.0725 -1.2818
  179MOL0     H24118   0.380   9.958  10.551  1.5182 -0.0223 -1.1684
  179MOL0     H24119   0.462   9.743  10.440 -0.7352  0.0953  1.8362
  179MOL0     H24120   0.533   9.887  10.384 -0.7281  0.2158  0.0634
  179MOL0     H24121   0.410   9.896  10.173 -2.9005 -1.3376 -3.4140
  179MOL0     H24122   0.292   9.773  10.221  0.1573  1.5002 -1.7895
  179MOL0     H24123   0.426   9.675  10.081  0.5736  2.4343 -0.0919
  179MOL0     H24124   0.457   9.615  10.248  2.9658 -2.6482 -2.3037
  179MOL0     H24125   0.808   9.584  10.056 -1.5230  0.1647  0.7568
  179MOL0     H24126   0.978   9.535   9.901 -2.0620 -0.0568  1.3231
  179MOL0     H24127   0.946   9.555   9.721 -0.7337 -0.0760  0.4980
  179MOL0     H24128   1.030   9.678   9.798  0.1961 -1.4426 -2.2437
  179MOL0     H24129   1.121   9.699   9.413  1.2927  0.8853 -0.5686
  179MOL0     H24130   1.147   9.742   9.167  0.0157  0.3109 -0.4534
  179MOL0     H24131   0.942   9.953   8.841 -0.8641 -0.8334  0.1234
  179MOL0     H24132   0.832   9.945   8.971 -0.6875 -0.3618 -2.1773
  179MOL0     H24133   0.866  10.178   8.948 -0.5151  0.1317  1.0757
  179MOL0     H24134   1.023  10.143   9.050  1.6766 -2.4465 -0.0022
  179MOL0     H24135   0.991  10.148   8.754  2.0616 -0.5323 -1.4099
  179MOL0     H24136   1.142  10.110   8.835 -0.1054  0.4162 -1.9837
  179MOL0     H24137   1.089  10.347   8.724  2.1596 -1.1206 -0.8918
  179MOL0     H24138   1.026  10.387   8.869  0.4529 -1.1433  1.5300
  179MOL0     H24139   1.309  10.263   8.859  1.4808  0.6647  0.4376
  179MOL0     H24140   1.219  10.321   8.998  1.7353  0.4817 -0.2152
  179MOL0     H24141   1.210  10.552   8.882  2.2707  2.0290 -1.9301
  179MOL0     H24142   1.349  10.497   8.973  1.9905 -1.6088 -1.1345
  179MOL0     H24143   1.329  10.508   8.659  3.1160  1.6124 -2.1606
  179MOL0     H24144   1.451  10.419   8.758  0.9974  1.2708 -2.0730
  179MOL0     H24145   1.465  10.641   8.875  2.1738  1.0178 -1.3319
  179MOL0     H24146   1.391  10.708   8.736 -1.4159  0.6065  1.0946
  179MOL0     H24147   0.820  10.034   9.186  1.3291  0.2146 -0.9177
  179MOL0     H24148   0.793   9.978   9.418  0.7297  0.0771  0.4845
  179MOL0     H24149   0.618   9.938   9.762 -1.1639  0.6018  2.2622
  179MOL0     H24150   0.523   9.895   9.971  0.8453 -0.0603  0.1345
  179MOL0     H24151   0.306   9.235   9.740 -0.5306  0.7023 -1.9847
  179MOL0     H24152   0.337   9.334   9.528  0.4381  0.2971  0.2793
  179MOL0     H24153   0.397   9.625   9.296 -0.1725 -0.1250  1.0782
  179MOL0     H24154   0.352   9.715   9.080  0.2994  3.2102 -0.1074
  179MOL0     H24155   0.414   9.654   8.834 -0.1177 -1.3401 -0.7211
  179MOL0     H24156   0.359   9.820   8.902  2.2454  0.7364  1.3762
  179MOL0     H24157   0.396   9.936   8.740  2.6540  0.1162 -0.0157
  179MOL0     H24158   0.319   9.798   8.667 -0.7271  1.0044  0.2135
  179MOL0     H24159   0.536   9.725   8.564  0.3778 -0.1387 -0.4380
  179MOL0     H24160   0.621   9.855   8.658 -0.7051  0.9398  1.9425
  179MOL0     H24161   0.428   9.873   8.421 -0.3675 -0.3996 -0.6038
  179MOL0     H24162   0.591   9.940   8.440  1.3181 -2.6479  1.0016
  179MOL0     H24163   0.411  10.274   8.547  3.2993  1.5982 -1.5330
  179MOL0     H24164   0.787   9.733   9.014 -0.9267 -2.0943 -2.1929
  179MOL0     H24165   0.822   9.648   9.241 -0.3498  0.3196 -0.4334
  180MOL0     O24166   5.461   9.729   7.696  0.3974  0.9590 -0.3177
  180MOL0     C24167   5.519   9.835   7.657 -0.3616  0.1143  0.9287
  180MOL0     O24168   5.593   9.831   7.549  0.3123 -0.4941  0.0593
  180MOL0     C24169   5.603   9.717   7.485 -0.0413  1.0703  0.2100
  180MOL0     C24170   5.509   9.671   7.392 -0.0775  0.0627 -0.1216
  180MOL0     C24171   5.544   9.567   7.309  0.1070 -0.2645 -0.1690
  180MOL0     C24172   5.669   9.503   7.314  0.0544 -0.7057  0.3177
  180MOL0     O24173   5.693   9.406   7.221 -0.0740  1.0045 -0.0546
  180MOL0     C24174   5.792   9.304   7.256  0.6220  0.6864 -0.2554
  180MOL0     C24175   5.770   9.181   7.167 -1.0240  0.1290  0.2359
  180MOL0     C24176   5.819   9.200   7.015 -0.1706  0.1202  0.1188
  180MOL0     C24177   5.787   9.068   6.937 -0.3233 -0.0907  0.2115
  180MOL0     C24178   5.810   9.095   6.785 -0.2735  0.1086  0.3828
  180MOL0     C24179   5.968   9.124   6.758 -0.2446 -0.6398 -0.2592
  180MOL0     C24180   5.994   9.088   6.617 -0.3554 -0.4575 -0.2883
  180MOL0     C24181   6.146   9.119   6.583  0.6921  0.0856 -0.4819
  180MOL0     N24182   6.182   9.066   6.454  0.6147 -0.7963 -0.5528
  180MOL0     C24183   6.145   9.114   6.330  0.4119 -0.2246 -0.1172
  180MOL0     C24184   6.219   9.047   6.238 -0.6668  0.2393 -0.0762
  180MOL0     C24185   6.218   9.052   6.086 -0.0212  0.0748 -0.5177
  180MOL0     C24186   6.306   9.161   6.036 -0.1200 -1.0305  0.5454
  180MOL0     C24187   6.457   9.128   6.025 -0.7288  0.6664  1.2998
  180MOL0     C24188   6.550   9.197   6.121  0.5669  0.3543  0.2586
  180MOL0     O24189   6.689   9.188   6.074  0.2544  0.6792 -1.0960
  180MOL0     C24190   6.772   9.096   6.144 -0.1402  0.1108 -0.8265
  180MOL0     C24191   6.727   8.973   6.187 -0.5330  0.4548  0.8489
  180MOL0     C24192   6.823   8.885   6.244  0.7413 -0.4251 -0.1349
  180MOL0     C24193   6.777   8.751   6.302 -0.1044 -0.3886  0.1081
  180MOL0     C24194   6.960   8.924   6.260  0.8900  0.4489  0.1729
  180MOL0     C24195   7.064   8.841   6.325  0.0764  0.4912  0.7672
  180MOL0     O24196   7.094   8.723   6.259 -0.1006 -0.3337  0.6997
  180MOL0     C24197   7.215   8.664   6.277 -0.3688  0.2644  0.1704
  180MOL0     C24198   7.334   8.732   6.272 -0.8739 -0.1732 -0.2679
  180MOL0     C24199   7.456   8.665   6.303  0.6414 -0.7186 -0.0218
  180MOL0     C24200   7.456   8.525   6.327  0.3112 -0.7265 -0.4606
  180MOL0     O24201   7.578   8.466   6.329 -0.8509  0.4560 -0.5453
  180MOL0     C24202   7.594   8.334   6.386  0.2685 -0.2745 -0.6461
  180MOL0     C24203   7.744   8.293   6.396  0.5387 -0.7079  0.1031
  180MOL0     C24204   7.761   8.183   6.507  0.0682  1.0723  0.5035
  180MOL0     C24205   7.760   8.236   6.652  0.1589  0.2847 -0.6587
  180MOL0     C24206   7.764   8.141   6.770  0.7272 -0.3644  0.3731
  180MOL0     C24207   7.887   8.054   6.777 -0.3682  0.0679  0.6535
  180MOL0     C24208   7.883   7.965   6.899  0.0789  0.7878 -0.1347
  180MOL0     C24209   7.995   7.852   6.893  0.2046 -0.2962  0.3232
  180MOL0    Cl24210   8.164   7.891   6.828 -0.1020  0.1555 -0.1345
  180MOL0     C24211   7.334   8.455   6.330  1.2963  0.3158  0.8175
  180MOL0     C24212   7.221   8.521   6.288  0.6269  0.3330 -0.5803
  180MOL0     O24213   7.131   8.898   6.411 -0.6104  0.5487  0.6584
  180MOL0     C24214   6.995   9.048   6.210  0.5907  0.7379  0.2653
  180MOL0     C24215   6.903   9.130   6.149 -0.1892  0.5164  0.3018
  180MOL0     N24216   6.298   8.962   6.316 -0.7978 -0.0897  0.8377
  180MOL0     N24217   6.283   8.975   6.446 -0.0325 -0.3463 -0.4189
  180MOL0     C24218   5.763   9.544   7.407 -0.9571  1.1675 -0.1340
  180MOL0     C24219   5.728   9.651   7.495 -0.1512 -0.3264  0.5992
  180MOL0     C24220   5.501   9.957   7.729 -0.5526 -0.9052 -0.0865
  180MOL0     C24221   5.388   9.988   7.807  1.7816 -0.6264  0.0088
  180MOL0     C24222   5.389  10.100   7.894 -0.2553 -0.1833 -0.0158
  180MOL0     C24223   5.499  10.183   7.905 -1.2956 -0.2457 -0.4284
  180MOL0     O24224   5.513  10.300   7.985  0.3147  0.5919  0.0167
  180MOL0     C24225   5.501  10.287   8.124 -0.1682  1.1498  0.4331
  180MOL0     C24226   5.630  10.235   8.184 -0.8699  0.0444  0.1215
  180MOL0     C24227   5.596  10.191   8.329 -0.6313  0.0410 -0.3518
  180MOL0     C24228   5.723  10.193   8.414  0.4422  1.1288 -0.2842
  180MOL0     C24229   5.700  10.141   8.551  0.3404  0.6154  0.4892
  180MOL0     C24230   5.686  10.087   8.658 -0.1778 -0.2357 -0.0037
  180MOL0     C24231   5.606  10.157   7.818  0.3740 -0.2230 -0.4655
  180MOL0     C24232   5.607  10.051   7.739  0.0734  0.0262  0.1558
  180MOL0     H24233   5.414   9.719   7.369 -0.9168 -2.1474 -1.6176
  180MOL0     H24234   5.475   9.533   7.232  2.7797 -3.2545 -1.4722
  180MOL0     H24235   5.891   9.346   7.235  1.2234 -1.1849 -1.3657
  180MOL0     H24236   5.784   9.273   7.361  0.3694  3.2271  0.5413
  180MOL0     H24237   5.837   9.108   7.212 -2.1920 -0.5096  1.0035
  180MOL0     H24238   5.664   9.155   7.178 -0.7186 -1.4747 -0.4727
  180MOL0     H24239   5.766   9.275   6.955  0.1663 -1.1119 -1.7869
  180MOL0     H24240   5.927   9.218   7.017 -0.0138 -0.1949 -2.3928
  180MOL0     H24241   5.859   8.994   6.974  2.0303  1.6641 -0.5693
  180MOL0     H24242   5.689   9.035   6.969  0.6376  0.6808  4.5185
  180MOL0     H24243   5.782   9.009   6.724  0.9928 -0.7511  0.9737
  180MOL0     H24244   5.758   9.185   6.753 -0.3507 -0.7259 -1.9964
  180MOL0     H24245   5.997   9.225   6.787  2.1785 -1.0016 -1.1801
  180MOL0     H24246   6.041   9.063   6.812  2.5786  2.2109 -0.5792
  180MOL0     H24247   5.968   8.985   6.590 -2.6724  0.3580 -1.4010
  180MOL0     H24248   5.943   9.165   6.559  2.8875  0.0329 -2.7681
  180MOL0     H24249   6.211   9.081   6.662 -0.2802 -2.8873 -0.9883
  180MOL0     H24250   6.160   9.226   6.567 -1.4673  0.1238 -2.6150
  180MOL0     H24251   6.072   9.191   6.306  0.0680  0.0834  1.7581
  180MOL0     H24252   6.245   8.955   6.042 -2.6651 -0.5213 -0.9642
  180MOL0     H24253   6.119   9.078   6.048 -0.5910 -0.4026  0.5891
  180MOL0     H24254   6.292   9.246   6.104 -2.1558 -0.7654 -0.1366
  180MOL0     H24255   6.271   9.196   5.939 -0.1850 -0.9873  0.5847
  180MOL0     H24256   6.492   9.151   5.924  2.1409  1.2628  2.3542
  180MOL0     H24257   6.474   9.023   6.052 -1.0530  0.1175 -0.5104
  180MOL0     H24258   6.532   9.168   6.225 -0.2411  1.0639  0.3300
  180MOL0     H24259   6.521   9.302   6.115 -0.4059  0.1826  1.6663
  180MOL0     H24260   6.622   8.944   6.185 -0.1046 -1.3244  1.4864
  180MOL0     H24261   6.846   8.676   6.263  1.6000  0.4571  1.3416
  180MOL0     H24262   6.791   8.763   6.410  0.4965  0.3961 -0.0490
  180MOL0     H24263   6.676   8.725   6.270 -0.4056  0.9125 -0.0447
  180MOL0     H24264   7.329   8.838   6.247 -1.1698  0.2037  1.3007
  180MOL0     H24265   7.545   8.726   6.316  2.1518 -2.8100  0.1931
  180MOL0     H24266   7.556   8.333   6.489  1.7396  1.0081 -0.0362
  180MOL0     H24267   7.539   8.258   6.331 -0.1119  0.0797 -0.7611
  180MOL0     H24268   7.775   8.257   6.298  0.0158  1.9935 -1.1311
  180MOL0     H24269   7.806   8.376   6.430 -0.3796  0.7838 -1.6963
  180MOL0     H24270   7.860   8.142   6.488  0.1923  1.4828  0.2705
  180MOL0     H24271   7.690   8.100   6.498 -1.0284  1.7600  2.1963
  180MOL0     H24272   7.835   8.315   6.657  3.4169 -2.6262  0.9822
  180MOL0     H24273   7.664   8.287   6.660 -0.9571 -1.7370 -0.5189
  180MOL0     H24274   7.681   8.071   6.756 -0.3066  1.0483 -0.9227
  180MOL0     H24275   7.749   8.203   6.858 -1.3500  0.2932 -0.4000
  180MOL0     H24276   7.873   7.980   6.697 -2.5803 -0.4288  1.4203
  180MOL0     H24277   7.977   8.112   6.755  1.1961 -2.8489 -1.3944
  180MOL0     H24278   7.790   7.909   6.903 -0.0177  0.7728 -1.8530
  180MOL0     H24279   7.888   8.025   6.990 -0.4613 -1.9297  1.7999
  180MOL0     H24280   7.955   7.774   6.828 -1.4267 -0.3237  1.2966
  180MOL0     H24281   8.017   7.810   6.991 -0.9691 -0.8439  0.3688
  180MOL0     H24282   7.332   8.348   6.348 -2.8904 -0.0632 -0.7051
  180MOL0     H24283   7.127   8.468   6.273  1.4310 -0.3121 -4.1648
  180MOL0     H24284   7.096   9.087   6.215  0.9129  0.0921 -0.7872
  180MOL0     H24285   6.922   9.232   6.119 -1.8295  0.8982  0.4691
  180MOL0     H24286   5.856   9.491   7.424 -0.0259  3.2129  1.7241
  180MOL0     H24287   5.799   9.685   7.569 -1.8026  0.5946  1.8452
  180MOL0     H24288   5.305   9.920   7.821  0.5235  0.1066 -3.0829
  180MOL0     H24289   5.308  10.138   7.955 -1.1474 -0.3069 -1.0812
  180MOL0     H24290   5.460  10.378   8.167 -0.4355  1.4617 -0.4544
  180MOL0     H24291   5.427  10.208   8.139 -1.5758  1.6495 -3.0023
  180MOL0     H24292   5.706  10.313   8.188 -0.7956 -0.0731  1.6538
  180MOL0     H24293   5.670  10.152   8.125 -0.3054 -0.3401  1.0278
  180MOL0     H24294   5.558  10.088   8.332  0.5653 -0.4217  3.2851
  180MOL0     H24295   5.520  10.256   8.373  1.0164 -0.1926  3.1199
  180MOL0     H24296   5.753  10.296   8.433 -2.6920  1.8182  1.6321
  180MOL0     H24297   5.806  10.129   8.384  0.5954 -0.6997  3.5430
  180MOL0     H24298   5.689  10.020   8.742 -1.7896 -0.6753 -0.2777
  180MOL0     H24299   5.698  10.215   7.810  1.5800 -2.1292 -1.2515
  180MOL0     H24300   5.686  10.040   7.665 -1.3402  1.2037 -1.6269
  181MOL0     O24301   7.069   2.055   3.354  1.1495  0.4747  0.0881
  181MOL0     C24302   7.046   2.052   3.477  0.2562  0.7727  0.7377
  181MOL0     O24303   7.038   1.938   3.551 -0.3596  0.0071  0.1719
  181MOL0     C24304   7.043   1.821   3.492  0.6228  0.2984 -0.1852
  181MOL0     C24305   6.958   1.785   3.378  0.5537 -0.4353 -0.4085
  181MOL0     C24306   6.935   1.654   3.330 -0.5836 -0.7885  0.5171
  181MOL0     C24307   6.989   1.547   3.405 -0.7422  0.4206  0.6250
  181MOL0     O24308   7.009   1.424   3.353 -0.9982 -0.2559 -0.5836
  181MOL0     C24309   6.897   1.362   3.269  0.3389 -0.5269  0.9756
  181MOL0     C24310   6.938   1.212   3.277  0.4839  0.9906 -0.1279
  181MOL0     C24311   6.892   1.130   3.160  0.0708  1.5367  0.6578
  181MOL0     C24312   6.891   0.984   3.204  0.6778  0.2131 -0.8825
  181MOL0     C24313   7.035   0.939   3.230 -0.0602  0.3783 -0.0386
  181MOL0     C24314   7.028   0.796   3.286 -0.1096 -0.9961 -0.0545
  181MOL0     C24315   7.171   0.747   3.283 -0.4004  0.1562 -0.8110
  181MOL0     C24316   7.193   0.633   3.383  0.2106 -0.2395 -1.5109
  181MOL0     N24317   7.203   0.671   3.524 -0.4452  0.1008 -0.1571
  181MOL0     C24318   7.306   0.737   3.589  0.1074 -0.4927  0.0619
  181MOL0     C24319   7.298   0.699   3.721 -0.4960  0.3418 -0.2213
  181MOL0     C24320   7.385   0.747   3.838  0.6000  0.1093 -0.1447
  181MOL0     C24321   7.525   0.802   3.785 -0.3534  0.1181  0.2391
  181MOL0     C24322   7.596   0.835   3.914 -0.7127  0.3011  0.3089
  181MOL0     C24323   7.734   0.886   3.877  1.0898 -0.1600 -0.4783
  181MOL0     O24324   7.812   0.774   3.822 -0.9024  0.5372  0.3060
  181MOL0     C24325   7.941   0.810   3.785 -0.2983  0.6752  0.8553
  181MOL0     C24326   8.013   0.932   3.815  0.3001  0.7499  0.0600
  181MOL0     C24327   8.149   0.946   3.778  0.7643  0.4722 -0.7939
  181MOL0     C24328   8.207   1.071   3.844 -0.5255  0.2591 -0.0382
  181MOL0     C24329   8.216   0.847   3.698  0.0572  0.3394  0.2064
  181MOL0     C24330   8.361   0.854   3.654 -0.4610  0.1697 -1.0358
  181MOL0     O24331   8.429   0.957   3.701 -0.2355 -0.9490 -0.2365
  181MOL0     C24332   8.569   0.974   3.717  0.6594  0.0882 -0.9845
  181MOL0     C24333   8.603   1.093   3.775  0.1082  0.2311  0.0170
  181MOL0     C24334   8.740   1.122   3.796  0.1658 -0.2614  0.7739
  181MOL0     C24335   8.839   1.028   3.771  0.7729  1.1200  0.1723
  181MOL0     O24336   8.968   1.043   3.808  0.3499 -0.6895 -0.0318
  181MOL0     C24337   9.035   1.156   3.756 -0.4235 -0.0464  0.3462
  181MOL0     C24338   9.182   1.153   3.799  0.7210  0.6186 -0.5328
  181MOL0     C24339   9.197   1.127   3.953 -0.2199  0.1162 -1.2621
  181MOL0     C24340   9.346   1.124   3.999 -0.3807  0.8949  1.1663
  181MOL0     C24341   9.389   1.260   4.037  0.2955  0.3437  0.1291
  181MOL0     C24342   9.541   1.275   4.048 -0.2984  0.1250  0.8549
  181MOL0     C24343   9.581   1.389   4.134  0.2476  0.3740 -0.7111
  181MOL0     C24344   9.558   1.528   4.081 -0.6496 -0.1473 -0.3213
  181MOL0    Cl24345   9.568   1.544   3.901 -0.4960 -0.6810 -0.4214
  181MOL0     C24346   8.804   0.904   3.702  0.0861 -0.2680 -0.6922
  181MOL0     C24347   8.671   0.883   3.690  1.1463 -0.4426 -0.3814
  181MOL0     O24348   8.411   0.762   3.584 -0.3452  0.2367  1.3829
  181MOL0     C24349   8.140   0.731   3.668  0.2120 -1.1558 -0.7365
  181MOL0     C24350   8.009   0.719   3.712 -0.7465  0.5670 -0.0962
  181MOL0     N24351   7.188   0.617   3.734  0.1974  0.1080  0.0910
  181MOL0     N24352   7.138   0.591   3.616 -0.5691 -0.5506 -0.3740
  181MOL0     C24353   7.071   1.583   3.519  0.6092  1.1254  0.2941
  181MOL0     C24354   7.090   1.713   3.562  0.5259 -0.5669 -0.6264
  181MOL0     C24355   7.019   2.176   3.551  0.0805  0.2052  0.2366
  181MOL0     C24356   7.020   2.299   3.491 -0.5122 -0.2033  0.1430
  181MOL0     C24357   7.007   2.412   3.568  0.1344 -0.2273 -0.6001
  181MOL0     C24358   6.986   2.421   3.703 -0.3416 -0.0856  0.6070
  181MOL0     O24359   6.990   2.541   3.768  0.1015 -1.3276  0.1988
  181MOL0     C24360   6.938   2.542   3.895  0.3273 -1.1615  0.1356
  181MOL0     C24361   6.893   2.685   3.921 -0.1165  0.5454  0.5725
  181MOL0     C24362   6.802   2.750   3.807 -0.7410  0.8169  0.2178
  181MOL0     C24363   6.758   2.894   3.837 -0.5541 -0.0310 -0.0876
  181MOL0     C24364   6.755   2.969   3.709 -0.3239 -1.0459 -0.0714
  181MOL0     C24365   6.761   3.020   3.601  0.7774  0.1090 -0.2209
  181MOL0     C24366   6.988   2.298   3.762 -0.1645  0.0884 -0.0402
  181MOL0     C24367   6.998   2.176   3.689  0.9894 -0.5083 -0.4599
  181MOL0     H24368   6.920   1.869   3.321  1.6141 -1.3980 -2.6896
  181MOL0     H24369   6.888   1.631   3.235 -1.5937  1.0747  0.5159
  181MOL0     H24370   6.800   1.396   3.305  1.7491  2.1087  2.6124
  181MOL0     H24371   6.913   1.402   3.169  0.4269  0.6254  1.4321
  181MOL0     H24372   7.046   1.201   3.290  0.1581  0.1938  2.5783
  181MOL0     H24373   6.902   1.169   3.371 -0.8412 -1.1363 -1.5298
  181MOL0     H24374   6.790   1.155   3.127 -1.6431 -2.6650  2.1362
  181MOL0     H24375   6.961   1.137   3.075 -1.5735 -1.4792 -1.0970
  181MOL0     H24376   6.831   0.968   3.294  0.1977 -0.9358 -1.3893
  181MOL0     H24377   6.844   0.925   3.125  0.5847  0.5461 -1.0759
  181MOL0     H24378   7.103   0.949   3.146  0.3772 -2.5001 -0.0979
  181MOL0     H24379   7.083   0.994   3.312  1.3127 -1.3713  0.3875
  181MOL0     H24380   6.982   0.796   3.385  2.9376 -0.2107  1.4828
  181MOL0     H24381   6.976   0.739   3.208  1.3075 -1.4091 -0.7199
  181MOL0     H24382   7.202   0.716   3.183 -0.0717 -2.8456  0.1174
  181MOL0     H24383   7.232   0.832   3.315 -1.3886 -0.2352  2.4800
  181MOL0     H24384   7.294   0.602   3.355  2.1523  3.2922  0.7431
  181MOL0     H24385   7.123   0.551   3.370 -0.6469  0.4122 -1.1217
  181MOL0     H24386   7.379   0.810   3.555  1.2001  1.7566  5.9652
  181MOL0     H24387   7.335   0.832   3.886  3.4681  2.3204 -0.8049
  181MOL0     H24388   7.417   0.670   3.909  2.3707 -0.5894 -1.6296
  181MOL0     H24389   7.498   0.885   3.719 -3.5853 -2.5586 -2.1068
  181MOL0     H24390   7.575   0.726   3.724 -1.5455 -1.6884  1.4285
  181MOL0     H24391   7.608   0.743   3.972  0.0873 -0.4600 -1.0327
  181MOL0     H24392   7.552   0.910   3.981 -0.0346  3.0691 -2.1138
  181MOL0     H24393   7.769   0.923   3.974  0.8701  0.8550 -0.7705
  181MOL0     H24394   7.721   0.967   3.805  1.0559 -1.1115 -1.5637
  181MOL0     H24395   7.959   1.010   3.868  0.3076  0.6929  0.1527
  181MOL0     H24396   8.284   1.039   3.915  0.6552 -2.8056 -2.4614
  181MOL0     H24397   8.248   1.133   3.764 -2.6193  4.3336  1.7548
  181MOL0     H24398   8.136   1.135   3.896 -0.1501 -0.2034  1.0814
  181MOL0     H24399   8.523   1.164   3.793 -0.1727 -0.0019 -0.3050
  181MOL0     H24400   8.765   1.214   3.848  0.6351 -0.0686  0.2185
  181MOL0     H24401   9.036   1.159   3.647  0.3962 -1.6323  0.2745
  181MOL0     H24402   8.986   1.245   3.796 -0.6731  0.9405 -2.0134
  181MOL0     H24403   9.236   1.079   3.739 -0.1508 -0.9535  0.5653
  181MOL0     H24404   9.221   1.251   3.769  0.5516  0.2059 -2.2370
  181MOL0     H24405   9.160   1.024   3.948  3.4344 -1.2813 -3.8154
  181MOL0     H24406   9.143   1.199   4.015  0.3771  0.0604 -0.6730
  181MOL0     H24407   9.366   1.059   4.084 -1.7118 -1.3943 -0.1447
  181MOL0     H24408   9.395   1.096   3.905 -3.0678  2.1380 -0.7543
  181MOL0     H24409   9.353   1.294   4.134  1.2142  0.8120  0.3211
  181MOL0     H24410   9.356   1.334   3.964  1.7335  0.6658 -0.2427
  181MOL0     H24411   9.565   1.191   4.114 -1.5334  0.6380  2.0108
  181MOL0     H24412   9.594   1.247   3.957  0.6429  0.2187  1.3549
  181MOL0     H24413   9.686   1.379   4.161 -0.2089 -1.0385  0.6708
  181MOL0     H24414   9.533   1.385   4.232  1.9643  2.7101  0.3329
  181MOL0     H24415   9.642   1.593   4.106  0.4592 -1.4801 -0.4760
  181MOL0     H24416   9.470   1.578   4.123 -2.1099 -1.5373 -1.5666
  181MOL0     H24417   8.883   0.833   3.680  1.2633  0.0230  2.1668
  181MOL0     H24418   8.640   0.785   3.654 -0.9748  0.0997 -0.1455
  181MOL0     H24419   8.183   0.652   3.608 -2.0511 -0.8076 -2.9814
  181MOL0     H24420   7.968   0.621   3.687  5.1331 -1.8058 -2.1865
  181MOL0     H24421   7.125   1.502   3.569  2.0297  3.2886  2.4861
  181MOL0     H24422   7.143   1.741   3.652  0.5271 -0.0130 -0.7996
  181MOL0     H24423   7.027   2.305   3.383 -2.0341 -0.8265 -0.0149
  181MOL0     H24424   7.006   2.504   3.510 -1.1528 -0.8558 -1.6254
  181MOL0     H24425   6.850   2.477   3.895 -1.2564  0.8992  1.5021
  181MOL0     H24426   7.011   2.518   3.974  0.4525  1.4750  0.8955
  181MOL0     H24427   6.990   2.737   3.918 -0.8465  1.9240 -0.1755
  181MOL0     H24428   6.841   2.704   4.015  0.3766  0.3165  0.8934
  181MOL0     H24429   6.715   2.686   3.789  1.3488 -1.5683 -2.3327
  181MOL0     H24430   6.850   2.746   3.709 -0.7838  1.6693  0.1605
  181MOL0     H24431   6.828   2.939   3.909  2.7428  3.5769 -4.9028
  181MOL0     H24432   6.657   2.887   3.878 -0.5893 -0.1393 -0.1953
  181MOL0     H24433   6.760   3.064   3.503 -0.7167  0.4854 -0.0482
  181MOL0     H24434   6.992   2.288   3.870  0.0536 -0.6140 -0.1108
  181MOL0     H24435   6.997   2.083   3.744  0.1537  0.3038  0.9769
  182MOL0     O24436   9.182   2.664   5.641  0.1844 -0.8447 -0.2141
  182MOL0     C24437   9.064   2.649   5.612  0.5201 -1.1286 -1.3320
  182MOL0     O24438   9.011   2.534   5.558 -0.0926 -0.1246 -0.5186
  182MOL0     C24439   9.099   2.441   5.517 -0.2712 -0.4890 -0.1848
  182MOL0     C24440   9.101   2.332   5.600  0.9493 -0.5565  0.0078
  182MOL0     C24441   9.187   2.224   5.572  0.1246  0.4333  0.0001
  182MOL0     C24442   9.277   2.227   5.468 -0.0879 -0.4378  0.3314
  182MOL0     O24443   9.372   2.136   5.426 -0.8767 -0.3080 -0.1322
  182MOL0     C24444   9.392   2.023   5.508 -1.0920  0.2552 -0.2491
  182MOL0     C24445   9.521   1.957   5.449  0.0781 -0.9244  0.0075
  182MOL0     C24446   9.519   1.802   5.457  0.2186 -0.3071 -0.2901
  182MOL0     C24447   9.640   1.744   5.392 -1.0042 -0.3441 -0.5457
  182MOL0     C24448   9.783   1.798   5.425  0.4213  0.9009 -0.4016
  182MOL0     C24449   9.880   1.717   5.344  0.0399  0.1731 -0.2845
  182MOL0     C24450  10.027   1.760   5.372 -0.2327 -0.6202  0.3325
  182MOL0     C24451  10.133   1.667   5.300 -0.0267 -0.2362 -0.5578
  182MOL0     N24452  10.264   1.729   5.302 -0.4089  0.0283 -0.6847
  182MOL0     C24453  10.368   1.678   5.239  0.1596  0.2056 -1.0257
  182MOL0     C24454  10.477   1.739   5.288  0.1433 -0.3228 -0.5894
  182MOL0     C24455  10.610   1.709   5.247  0.4457 -0.2158 -0.6816
  182MOL0     C24456  10.664   1.801   5.139 -0.7369 -0.4894 -0.0649
  182MOL0     C24457  10.809   1.791   5.108  0.3476  0.1453  0.1998
  182MOL0     C24458  10.855   1.656   5.046 -0.4357  0.4342  0.3687
  182MOL0     O24459  10.986   1.671   5.016  0.4371  0.5876 -0.2377
  182MOL0     C24460  11.048   1.546   5.006  0.2764  0.0947 -0.9091
  182MOL0     C24461  11.034   1.475   4.896 -0.9745  0.1338 -0.0606
  182MOL0     C24462  11.095   1.349   4.871  0.4561  0.2507 -0.6234
  182MOL0     C24463  11.045   1.268   4.759  0.1348  0.3142  0.1166
  182MOL0     C24464  11.185   1.306   4.968 -0.4368  0.4316  0.7622
  182MOL0     C24465  11.254   1.170   4.959  0.0960 -0.2523  0.8855
  182MOL0     O24466  11.300   1.117   5.078  0.6663 -0.5099  0.1963
  182MOL0     C24467  11.319   0.976   5.075 -0.3445  0.2379 -0.0342
  182MOL0     C24468  11.446   0.929   5.025  0.1512  0.1177 -0.1591
  182MOL0     C24469  11.465   0.795   5.027  0.3463  0.3415  0.5687
  182MOL0     C24470  11.385   0.710   5.096  0.0152  0.1023  0.0224
  182MOL0     O24471  11.433   0.587   5.116 -0.3363  0.1258 -0.1922
  182MOL0     C24472  11.374   0.508   5.225  0.1782  0.6750 -0.1883
  182MOL0     C24473  11.459   0.380   5.247  1.0846 -0.8506  0.5297
  182MOL0     C24474  11.438   0.328   5.396 -0.3520  0.3340  0.2963
  182MOL0     C24475  11.535   0.217   5.409 -0.5263 -0.1394  0.1513
  182MOL0     C24476  11.555   0.169   5.556  0.1148 -0.1813 -0.2258
  182MOL0     C24477  11.685   0.072   5.563  0.1810  0.9333  0.1780
  182MOL0     C24478  11.705   0.039   5.709  0.4794  0.2254 -0.4733
  182MOL0     C24479  11.592  -0.053   5.772  0.5212  0.0843 -0.2929
  182MOL0    Cl24480  11.660  -0.219   5.797  0.0120 -0.3153 -0.8119
  182MOL0     C24481  11.265   0.760   5.142 -0.4196 -0.3561  0.5195
  182MOL0     C24482  11.228   0.890   5.116 -0.5993  0.1460  0.1077
  182MOL0     O24483  11.263   1.112   4.850  0.4624  0.0160  0.5466
  182MOL0     C24484  11.218   1.383   5.078 -0.5983  0.0091 -0.7417
  182MOL0     C24485  11.147   1.506   5.098  0.7140  0.5703 -0.3551
  182MOL0     N24486  10.438   1.849   5.359  0.0195  0.3792 -0.2494
  182MOL0     N24487  10.303   1.836   5.377 -0.7661 -0.5538  0.7528
  182MOL0     C24488   9.274   2.343   5.382  0.2410  0.6350  0.8248
  182MOL0     C24489   9.185   2.447   5.408  0.7067 -0.7720 -1.2098
  182MOL0     C24490   8.972   2.768   5.649 -0.2697  0.6120 -0.4389
  182MOL0     C24491   9.018   2.898   5.688  0.2030  0.1932 -0.1833
  182MOL0     C24492   8.931   3.001   5.741 -0.0345  0.6984  0.8932
  182MOL0     C24493   8.790   2.972   5.752 -0.2042  0.1423 -0.3311
  182MOL0     O24494   8.698   3.051   5.817 -0.2845  0.2354  0.8329
  182MOL0     C24495   8.734   3.177   5.876 -0.1423  0.8584 -0.3799
  182MOL0     C24496   8.602   3.237   5.924 -0.8559 -1.2129 -0.5758
  182MOL0     C24497   8.628   3.372   5.997 -0.2866 -0.2826  0.2494
  182MOL0     C24498   8.504   3.445   6.055  0.0236  0.5602  0.7386
  182MOL0     C24499   8.460   3.542   5.958  0.1762 -0.2339 -0.2056
  182MOL0     C24500   8.408   3.613   5.872 -0.0428  0.7387  0.0854
  182MOL0     C24501   8.748   2.851   5.695  0.6545  0.9979 -0.1617
  182MOL0     C24502   8.833   2.747   5.654 -0.4547 -0.1763  0.5940
  182MOL0     H24503   9.030   2.335   5.682  1.4683  3.6471  0.5281
  182MOL0     H24504   9.190   2.127   5.622  4.6207 -0.2443 -1.1675
  182MOL0     H24505   9.415   2.028   5.615  3.7820 -1.9907 -0.9291
  182MOL0     H24506   9.298   1.971   5.486 -0.9440  0.0039 -0.2906
  182MOL0     H24507   9.516   1.992   5.346  0.3936  1.0062  0.6015
  182MOL0     H24508   9.616   1.989   5.493  1.9715 -2.0164 -3.0408
  182MOL0     H24509   9.528   1.782   5.564  3.2795  2.1258  0.0394
  182MOL0     H24510   9.434   1.751   5.409 -1.8615  0.9197  1.8672
  182MOL0     H24511   9.642   1.636   5.410 -0.2647  0.0805  2.4756
  182MOL0     H24512   9.629   1.754   5.284 -1.1625  1.8256 -0.3708
  182MOL0     H24513   9.806   1.904   5.411  0.3449  0.6700 -2.8324
  182MOL0     H24514   9.800   1.783   5.532 -1.8611 -1.1032 -0.2443
  182MOL0     H24515   9.867   1.613   5.376 -1.9527  1.0106  1.9137
  182MOL0     H24516   9.852   1.721   5.239 -0.4219  2.1375 -0.1260
  182MOL0     H24517  10.048   1.859   5.331 -0.2958 -0.0949  1.5303
  182MOL0     H24518  10.055   1.755   5.477  2.1393  2.4411 -0.0258
  182MOL0     H24519  10.116   1.653   5.193 -0.5534  1.6068 -0.7480
  182MOL0     H24520  10.126   1.565   5.339  1.6882 -0.1681 -0.0115
  182MOL0     H24521  10.364   1.598   5.166  2.3314  1.6687 -2.8821
  182MOL0     H24522  10.675   1.719   5.334  0.1270 -1.8149 -0.2142
  182MOL0     H24523  10.605   1.610   5.199 -0.4136  2.0560 -6.0661
  182MOL0     H24524  10.643   1.898   5.185 -2.0024 -1.6795  2.0474
  182MOL0     H24525  10.598   1.799   5.052 -3.0647 -2.8740  1.5803
  182MOL0     H24526  10.866   1.827   5.194  0.8795 -1.6330  0.6536
  182MOL0     H24527  10.828   1.869   5.035  0.2698  1.5038  1.5801
  182MOL0     H24528  10.798   1.642   4.953  0.8092  2.6308 -0.8008
  182MOL0     H24529  10.839   1.566   5.106 -0.0255 -1.1035 -1.7098
  182MOL0     H24530  10.958   1.503   4.824 -0.8733 -2.9648 -1.5590
  182MOL0     H24531  11.132   1.262   4.693 -0.8194 -0.0918 -1.1495
  182MOL0     H24532  11.008   1.167   4.780  3.2341 -0.5879  1.9747
  182MOL0     H24533  10.977   1.334   4.704  1.0703 -0.2166 -1.7662
  182MOL0     H24534  11.516   0.996   4.977  1.2941  0.0746  1.3818
  182MOL0     H24535  11.548   0.762   4.966 -0.3642  0.0056 -0.2292
  182MOL0     H24536  11.378   0.568   5.316 -0.0623 -0.2305  0.4309
  182MOL0     H24537  11.269   0.481   5.215 -0.2557  2.3567 -0.4582
  182MOL0     H24538  11.416   0.305   5.180 -2.6237  1.6946 -0.2887
  182MOL0     H24539  11.565   0.392   5.222  1.3230  0.2280  1.9648
  182MOL0     H24540  11.336   0.293   5.410 -0.4002  0.4736  0.3029
  182MOL0     H24541  11.462   0.413   5.462  0.0612  0.4599 -0.0088
  182MOL0     H24542  11.509   0.135   5.341  0.1215  2.6002 -3.7940
  182MOL0     H24543  11.633   0.251   5.375 -0.9785  0.6688 -0.3661
  182MOL0     H24544  11.468   0.110   5.586  0.5450 -0.9589 -0.4583
  182MOL0     H24545  11.567   0.254   5.623  0.1978 -0.0770 -0.3708
  182MOL0     H24546  11.662  -0.021   5.511  3.0207 -0.3717  1.0816
  182MOL0     H24547  11.768   0.124   5.514 -1.4487  1.6885 -1.9118
  182MOL0     H24548  11.710   0.131   5.769  2.1597  0.6200 -1.1492
  182MOL0     H24549  11.806  -0.003   5.704  1.7601  3.1925 -1.8048
  182MOL0     H24550  11.505  -0.042   5.707  0.7714  2.3850 -0.3155
  182MOL0     H24551  11.571  -0.019   5.874  0.5010 -1.0952  0.1161
  182MOL0     H24552  11.194   0.707   5.204 -2.2236  1.0027 -0.2892
  182MOL0     H24553  11.129   0.923   5.144 -1.1312 -1.9344  0.8761
  182MOL0     H24554  11.281   1.348   5.159 -0.5594  0.3178 -0.6355
  182MOL0     H24555  11.162   1.570   5.185  1.7059  1.8531 -1.4384
  182MOL0     H24556   9.327   2.339   5.288 -3.4179  0.3235 -1.4510
  182MOL0     H24557   9.185   2.538   5.349  1.8171  0.2712  0.3150
  182MOL0     H24558   9.124   2.919   5.692 -0.0609  1.8642 -1.1010
  182MOL0     H24559   8.966   3.090   5.792 -1.3279  1.4383  0.5313
  182MOL0     H24560   8.801   3.157   5.960 -1.2201 -2.0116 -0.0857
  182MOL0     H24561   8.787   3.228   5.795  1.7942 -0.3584  0.0567
  182MOL0     H24562   8.547   3.170   5.992  2.0318 -0.2138  3.1448
  182MOL0     H24563   8.535   3.258   5.841 -2.2135 -3.2740 -0.0953
  182MOL0     H24564   8.690   3.439   5.936 -0.3687 -0.9918 -0.6351
  182MOL0     H24565   8.685   3.346   6.086 -3.1836 -1.6623  1.8354
  182MOL0     H24566   8.530   3.491   6.151 -0.7830 -0.2281  1.3556
  182MOL0     H24567   8.415   3.383   6.068 -0.4677  0.9654 -0.5564
  182MOL0     H24568   8.373   3.674   5.792  2.7244 -0.5497 -2.3168
  182MOL0     H24569   8.641   2.833   5.697  0.8841 -0.6221 -0.9520
  182MOL0     H24570   8.797   2.650   5.620  1.7439 -0.1936 -2.1487
  183MOL0     O24571   8.411   1.744   2.145 -0.2916 -0.6042  0.4770
  183MOL0     C24572   8.328   1.826   2.115 -0.1154 -0.6029  0.4152
  183MOL0     O24573   8.296   1.935   2.193  0.4717  0.0397  0.2301
  183MOL0     C24574   8.371   1.961   2.311  0.4309 -1.3956  0.1959
  183MOL0     C24575   8.481   2.051   2.305  0.0540 -0.0093  0.1967
  183MOL0     C24576   8.557   2.056   2.420 -0.1229  0.8102  0.1741
  183MOL0     C24577   8.534   1.980   2.531 -0.2682  0.0001  0.1302
  183MOL0     O24578   8.617   2.005   2.636 -0.4529 -0.3706  0.0902
  183MOL0     C24579   8.619   1.940   2.755 -0.1772  0.4830 -0.3697
  183MOL0     C24580   8.740   1.976   2.852  0.0635  0.3650 -0.0441
  183MOL0     C24581   8.730   2.118   2.900  0.3669 -0.1734 -0.7461
  183MOL0     C24582   8.853   2.132   2.993  0.5404  0.2708  0.8129
  183MOL0     C24583   8.844   2.254   3.080  0.3014 -0.0456 -0.4544
  183MOL0     C24584   8.958   2.267   3.177 -0.4527  0.2522  0.3076
  183MOL0     C24585   8.929   2.365   3.289 -0.1089 -1.2673  0.7073
  183MOL0     C24586   8.970   2.329   3.426  0.2927  0.1177 -0.5426
  183MOL0     N24587   9.096   2.383   3.476 -0.2887  0.2664  0.5327
  183MOL0     C24588   9.211   2.405   3.403 -1.0013  0.0278 -0.1734
  183MOL0     C24589   9.295   2.463   3.496  0.2995  0.0865  0.2171
  183MOL0     C24590   9.440   2.504   3.464  0.1081 -0.2271 -0.4838
  183MOL0     C24591   9.478   2.642   3.428 -0.0148 -0.5921  0.6479
  183MOL0     C24592   9.405   2.746   3.534  0.5038  0.3701 -0.5724
  183MOL0     C24593   9.505   2.776   3.649  0.1733  0.5398 -0.7548
  183MOL0     O24594   9.634   2.819   3.598  0.8954 -0.0692 -0.6124
  183MOL0     C24595   9.742   2.801   3.677  0.4329 -0.3320  0.0525
  183MOL0     C24596   9.755   2.855   3.803  0.4343  0.2895  0.7548
  183MOL0     C24597   9.862   2.835   3.886 -0.3200  0.6187 -0.2142
  183MOL0     C24598   9.867   2.912   4.015 -0.6711  0.1027  0.3049
  183MOL0     C24599   9.972   2.763   3.833  0.9732  1.2871  0.1454
  183MOL0     C24600  10.087   2.747   3.918 -0.1964  0.3890  0.1504
  183MOL0     O24601  10.161   2.865   3.926  0.2567  0.7403 -0.4863
  183MOL0     C24602  10.288   2.855   3.959  0.2501 -0.7602  0.1156
  183MOL0     C24603  10.324   2.877   4.098  0.2920  0.2608  0.6041
  183MOL0     C24604  10.450   2.912   4.137  0.2429  0.0367 -0.9749
  183MOL0     C24605  10.546   2.930   4.034 -0.8749  0.0660 -0.0745
  183MOL0     O24606  10.668   2.981   4.067 -0.3873  0.5677 -0.0391
  183MOL0     C24607  10.745   2.907   4.167  0.4686 -1.0519 -0.4353
  183MOL0     C24608  10.874   2.989   4.176 -0.4468  0.3770 -0.3616
  183MOL0     C24609  10.952   3.001   4.036  0.0430  0.1359  0.2083
  183MOL0     C24610  11.088   3.054   4.050  0.3721 -0.2937  0.4447
  183MOL0     C24611  11.156   3.095   3.914  0.7466  0.7122 -0.3559
  183MOL0     C24612  11.304   3.124   3.937  0.3499  0.2740 -0.4978
  183MOL0     C24613  11.374   3.175   3.815 -0.5593  0.3445 -0.1097
  183MOL0     C24614  11.529   3.176   3.827  0.1692 -1.0406  0.1769
  183MOL0    Cl24615  11.583   3.013   3.849 -0.0140 -0.3274  0.0709
  183MOL0     C24616  10.517   2.929   3.903 -0.7834 -0.6182  0.4661
  183MOL0     C24617  10.387   2.892   3.867  0.4444  0.0079  0.5192
  183MOL0     O24618  10.124   2.628   3.953  0.4595  0.9239 -0.1819
  183MOL0     C24619   9.962   2.699   3.705 -0.2649  0.5149 -0.3696
  183MOL0     C24620   9.844   2.721   3.626 -0.7450 -0.3235 -0.2473
  183MOL0     N24621   9.221   2.477   3.614  0.5097  0.6281 -0.1086
  183MOL0     N24622   9.101   2.424   3.601 -0.5973  0.5387 -0.1957
  183MOL0     C24623   8.423   1.903   2.542 -0.5750 -0.1588  0.7591
  183MOL0     C24624   8.344   1.884   2.425  0.4692  0.5178 -0.0615
  183MOL0     C24625   8.252   1.807   1.987  0.9663 -0.2227 -1.0354
  183MOL0     C24626   8.165   1.912   1.937 -0.8100 -0.6793 -1.1192
  183MOL0     C24627   8.077   1.892   1.827 -0.2154 -0.9795  0.1438
  183MOL0     C24628   8.070   1.760   1.769  0.1914 -0.1064 -0.1978
  183MOL0     O24629   7.978   1.729   1.674  0.3757 -0.1529  0.1052
  183MOL0     C24630   7.919   1.832   1.594  0.3028  0.0285 -0.1691
  183MOL0     C24631   7.803   1.779   1.505  0.6269 -0.8364 -1.3334
  183MOL0     C24632   7.717   1.887   1.447 -0.0822 -1.1962  0.9169
  183MOL0     C24633   7.586   1.846   1.396  0.2269 -0.0842  0.5608
  183MOL0     C24634   7.594   1.742   1.303 -0.2029  0.6619  0.5324
  183MOL0     C24635   7.601   1.654   1.214  0.1534  0.3140  0.3499
  183MOL0     C24636   8.161   1.664   1.817  0.4337  0.7890 -0.3839
  183MOL0     C24637   8.246   1.678   1.923 -0.3669 -0.0037 -0.9194
  183MOL0     H24638   8.519   2.094   2.213  1.6867 -1.5646  0.0804
  183MOL0     H24639   8.628   2.138   2.428 -2.1287  2.6677 -0.0357
  183MOL0     H24640   8.534   1.957   2.821  1.4874 -4.3115  3.5615
  183MOL0     H24641   8.622   1.835   2.725 -2.6133  0.9221 -2.5018
  183MOL0     H24642   8.738   1.912   2.941  2.2677  2.7235  1.8395
  183MOL0     H24643   8.830   1.968   2.791 -1.5363  4.4700 -3.4367
  183MOL0     H24644   8.741   2.175   2.807  0.1011 -3.1913 -2.7656
  183MOL0     H24645   8.630   2.121   2.944 -0.3150 -3.2219 -1.8712
  183MOL0     H24646   8.851   2.048   3.063  3.8499 -0.8203 -0.2209
  183MOL0     H24647   8.944   2.129   2.933  0.0847 -2.1974  0.1272
  183MOL0     H24648   8.840   2.340   3.012 -1.6263 -0.9185 -1.5026
  183MOL0     H24649   8.751   2.247   3.137 -0.6091  0.1036 -1.8866
  183MOL0     H24650   8.968   2.166   3.217  2.5102 -0.3215 -1.5715
  183MOL0     H24651   9.047   2.286   3.117 -0.9275 -2.0330 -1.2692
  183MOL0     H24652   8.979   2.457   3.256 -1.0150 -1.0714 -0.1520
  183MOL0     H24653   8.824   2.398   3.288  0.2404  0.2037 -2.6925
  183MOL0     H24654   8.959   2.222   3.447 -0.5629  0.3388  0.2443
  183MOL0     H24655   8.885   2.369   3.483  0.3348 -0.2939 -0.1881
  183MOL0     H24656   9.229   2.394   3.297  0.0228  4.8525 -0.7328
  183MOL0     H24657   9.498   2.482   3.554 -1.7278  2.3783  1.4875
  183MOL0     H24658   9.476   2.435   3.387  0.9396  0.6327 -0.8785
  183MOL0     H24659   9.456   2.669   3.324  5.4606  1.1171 -0.4148
  183MOL0     H24660   9.588   2.646   3.428  0.2744 -3.3116 -3.0330
  183MOL0     H24661   9.307   2.708   3.562 -0.4809  1.4220 -2.4093
  183MOL0     H24662   9.385   2.837   3.477  2.5473  2.2060  1.4244
  183MOL0     H24663   9.517   2.696   3.723 -0.1915  2.1394  1.1235
  183MOL0     H24664   9.446   2.852   3.701 -0.6237 -0.6396  0.1221
  183MOL0     H24665   9.674   2.920   3.834  1.1451  3.1597 -2.7402
  183MOL0     H24666   9.939   2.992   4.000 -0.9291  0.5564  1.4456
  183MOL0     H24667   9.773   2.957   4.049 -3.3304 -3.3813 -1.6861
  183MOL0     H24668   9.904   2.857   4.102 -1.4977  4.9978  4.2042
  183MOL0     H24669  10.237   2.881   4.163 -1.0827  1.1554 -1.1786
  183MOL0     H24670  10.463   2.924   4.245 -3.7945  1.7040 -0.4949
  183MOL0     H24671  10.688   2.902   4.260 -0.3144 -1.9418 -0.9543
  183MOL0     H24672  10.767   2.803   4.144  0.3179 -1.6017  1.6807
  183MOL0     H24673  10.856   3.083   4.229  0.2175 -0.4234  1.3802
  183MOL0     H24674  10.945   2.931   4.236  1.3791  2.7781 -0.0330
  183MOL0     H24675  10.892   3.056   3.962  1.8173 -0.2151 -1.5623
  183MOL0     H24676  10.950   2.897   4.003 -1.0188  0.1576  0.1419
  183MOL0     H24677  11.092   3.142   4.115  0.5231  2.7144 -3.2929
  183MOL0     H24678  11.151   2.970   4.083 -0.5438 -1.7222 -1.2435
  183MOL0     H24679  11.103   3.179   3.868  0.5731  1.1843  0.6843
  183MOL0     H24680  11.136   3.019   3.837  0.6835 -0.0335  0.3748
  183MOL0     H24681  11.317   3.205   4.009  0.8461  1.3654 -1.7658
  183MOL0     H24682  11.353   3.033   3.973  1.0825 -0.3872 -2.9460
  183MOL0     H24683  11.340   3.278   3.797 -2.3899  0.4917  3.3232
  183MOL0     H24684  11.363   3.118   3.722 -0.1744  1.6281 -0.9723
  183MOL0     H24685  11.567   3.240   3.907  0.0788  0.0550 -0.6427
  183MOL0     H24686  11.559   3.217   3.730 -3.6071  2.5455  0.2273
  183MOL0     H24687  10.598   2.951   3.835 -1.0905 -0.0457  0.2714
  183MOL0     H24688  10.359   2.891   3.762 -0.7969 -0.6156  0.8326
  183MOL0     H24689  10.041   2.633   3.670 -0.0138  0.4476  0.3041
  183MOL0     H24690   9.840   2.678   3.526 -3.1066 -3.2141  0.9453
  183MOL0     H24691   8.396   1.850   2.632  1.2196 -2.4790  0.0339
  183MOL0     H24692   8.255   1.822   2.432 -0.0732  1.3983  1.2638
  183MOL0     H24693   8.172   2.003   1.996 -2.1895 -3.6258  4.3495
  183MOL0     H24694   8.016   1.970   1.783 -0.0869 -2.0935 -2.1517
  183MOL0     H24695   7.876   1.903   1.664  2.1539  0.8736  0.1372
  183MOL0     H24696   7.993   1.873   1.525 -1.7562  0.3550 -2.3371
  183MOL0     H24697   7.762   1.706   1.575  1.9183 -0.2358  0.1172
  183MOL0     H24698   7.839   1.734   1.413  0.0707  2.4601 -3.3261
  183MOL0     H24699   7.772   1.926   1.361 -2.7354 -1.0429 -0.8295
  183MOL0     H24700   7.709   1.976   1.511 -0.9498  1.2788 -2.3446
  183MOL0     H24701   7.537   1.924   1.337 -0.2707 -0.2978  0.6841
  183MOL0     H24702   7.537   1.823   1.491  2.2954  1.0938  1.9837
  183MOL0     H24703   7.617   1.580   1.139  2.9783  1.5663 -0.4350
  183MOL0     H24704   8.154   1.569   1.764 -2.3923  1.9008 -2.2069
  183MOL0     H24705   8.303   1.590   1.952 -0.3014  0.4927  0.5590
  184MOL0     O24706   3.032  10.225   7.628  0.2491  0.1754  0.3143
  184MOL0     C24707   2.999  10.186   7.514 -0.3430  0.3622 -0.1740
  184MOL0     O24708   2.877  10.188   7.466 -0.3702 -0.3397 -0.6729
  184MOL0     C24709   2.768  10.219   7.542 -0.0934  0.2357 -0.2113
  184MOL0     C24710   2.667  10.125   7.570 -0.9925 -0.2857 -1.0820
  184MOL0     C24711   2.550  10.151   7.639 -0.1632 -0.3645 -0.3948
  184MOL0     C24712   2.532  10.282   7.695  0.1454 -0.2960  0.4175
  184MOL0     O24713   2.423  10.315   7.772  0.2422  0.1635  0.1273
  184MOL0     C24714   2.348  10.215   7.844  1.0284 -0.0782  0.1357
  184MOL0     C24715   2.202  10.270   7.839 -0.7050 -0.4793  0.2226
  184MOL0     C24716   2.093  10.171   7.887 -0.8498  0.3784 -0.0568
  184MOL0     C24717   1.957  10.238   7.880  1.3806  0.4752  0.4957
  184MOL0     C24718   1.846  10.144   7.852  0.2219 -0.7173  0.1330
  184MOL0     C24719   1.801  10.064   7.970 -0.3335 -0.2566 -0.7884
  184MOL0     C24720   1.678   9.991   7.906 -1.1273  0.4383  0.7301
  184MOL0     C24721   1.588   9.905   7.996 -0.2507 -0.0469 -0.3594
  184MOL0     N24722   1.546   9.982   8.116 -0.5159  0.0936  0.1810
  184MOL0     C24723   1.429  10.066   8.137 -0.9528 -0.0672  0.0106
  184MOL0     C24724   1.422  10.064   8.268  0.4058 -0.8614 -1.2870
  184MOL0     C24725   1.307  10.140   8.334 -0.3769  0.1055  0.0726
  184MOL0     C24726   1.309  10.285   8.299 -0.2021 -0.2529  1.1177
  184MOL0     C24727   1.301  10.380   8.429  1.8583 -0.4455  0.6775
  184MOL0     C24728   1.298  10.523   8.380  0.0714 -1.2233 -0.4221
  184MOL0     O24729   1.417  10.562   8.306 -0.3527  0.0866 -0.3536
  184MOL0     C24730   1.435  10.691   8.282  0.0340  0.1944  0.5445
  184MOL0     C24731   1.392  10.795   8.366  0.0508 -0.9307 -0.4372
  184MOL0     C24732   1.446  10.931   8.351 -0.5216  0.6055 -0.5755
  184MOL0     C24733   1.405  11.035   8.461  0.0126 -0.1588  0.0047
  184MOL0     C24734   1.531  10.960   8.238  0.3867  0.4164  0.5552
  184MOL0     C24735   1.592  11.088   8.205 -0.5616  0.2204  0.0964
  184MOL0     O24736   1.514  11.199   8.232  0.1732  0.0919  0.6113
  184MOL0     C24737   1.553  11.322   8.188  1.0636 -0.2539  0.4094
  184MOL0     C24738   1.492  11.428   8.259  0.9935  1.2721  1.4830
  184MOL0     C24739   1.511  11.562   8.218  0.4938 -0.2391 -0.2260
  184MOL0     C24740   1.585  11.586   8.102  0.3540  0.2305  0.0511
  184MOL0     O24741   1.594  11.714   8.072  0.2683  0.0104  0.2472
  184MOL0     C24742   1.722  11.758   8.035 -0.1572 -0.5233  0.2609
  184MOL0     C24743   1.723  11.912   8.048 -0.8154  0.1041 -0.0557
  184MOL0     C24744   1.853  11.968   8.018  0.2836  0.2749  0.3817
  184MOL0     C24745   1.868  12.110   8.078  0.3494 -0.4169  0.6743
  184MOL0     C24746   1.778  12.214   7.997 -0.1861 -0.3262 -0.5118
  184MOL0     C24747   1.803  12.357   8.037  0.0634 -1.5244 -0.8756
  184MOL0     C24748   1.731  12.475   7.962 -0.0730 -0.8051  0.2903
  184MOL0     C24749   1.590  12.444   7.947  0.9852  0.1678 -0.0543
  184MOL0    Cl24750   1.497  12.577   7.880  0.1805 -0.1889  0.5662
  184MOL0     C24751   1.647  11.482   8.035  1.4948 -0.4423  0.1368
  184MOL0     C24752   1.638  11.353   8.076  0.4671  0.8403  1.2011
  184MOL0     O24753   1.706  11.090   8.161  0.5366  1.1673  0.2233
  184MOL0     C24754   1.571  10.850   8.159 -0.4060 -0.6294 -1.0377
  184MOL0     C24755   1.524  10.720   8.178 -0.6026  0.2177  0.4636
  184MOL0     N24756   1.535  10.007   8.335  0.3152  0.0239  0.5359
  184MOL0     N24757   1.608   9.960   8.240 -0.8132 -0.3360  0.2041
  184MOL0     C24758   2.625  10.379   7.668 -0.0738  0.4992  0.4595
  184MOL0     C24759   2.747  10.344   7.598  0.4738 -0.1969  0.0477
  184MOL0     C24760   3.106  10.155   7.414  0.2546  0.7367 -0.0702
  184MOL0     C24761   3.244  10.141   7.459  0.3720 -0.3376 -0.3676
  184MOL0     C24762   3.354  10.124   7.374  0.4841  0.4184 -0.3619
  184MOL0     C24763   3.325  10.110   7.237 -0.4571 -0.2423  0.2236
  184MOL0     O24764   3.420  10.086   7.141 -0.3126 -0.2501  0.1200
  184MOL0     C24765   3.552  10.076   7.186  0.3259  0.5884 -0.1874
  184MOL0     C24766   3.644  10.062   7.059  0.1316 -0.9925  0.0570
  184MOL0     C24767   3.756   9.957   7.089 -0.1368 -0.3344  0.5743
  184MOL0     C24768   3.830  10.000   7.211  0.1355 -0.6781 -1.2869
  184MOL0     C24769   3.970   9.952   7.202 -0.5978  0.4148  0.8279
  184MOL0     C24770   4.084   9.911   7.197  0.2057  0.1634  0.3454
  184MOL0     C24771   3.196  10.125   7.194  0.6389  0.1595 -1.0233
  184MOL0     C24772   3.084  10.145   7.273 -0.0976  0.0443 -0.2742
  184MOL0     H24773   2.685  10.028   7.524 -1.2761 -0.1344 -1.5166
  184MOL0     H24774   2.487  10.066   7.662 -1.1228  0.9105  1.9756
  184MOL0     H24775   2.343  10.115   7.800  2.8390  1.1721 -3.2612
  184MOL0     H24776   2.396  10.218   7.942  0.4369  5.2590  0.5574
  184MOL0     H24777   2.206  10.361   7.899 -0.7362 -1.5212  1.8630
  184MOL0     H24778   2.176  10.300   7.737 -4.0268  1.1111  1.3663
  184MOL0     H24779   2.084  10.081   7.826 -1.7670 -0.1341  0.8060
  184MOL0     H24780   2.115  10.135   7.988  1.9324 -1.8287 -1.3064
  184MOL0     H24781   1.945  10.285   7.979 -0.2144  1.2449 -0.0240
  184MOL0     H24782   1.940  10.311   7.801 -0.9019 -0.7541 -0.2339
  184MOL0     H24783   1.769  10.211   7.815  0.5718  0.1555  0.9410
  184MOL0     H24784   1.874  10.076   7.771  1.0625  1.4212 -1.4487
  184MOL0     H24785   1.889  10.010   8.008  1.0272  1.6290 -1.1180
  184MOL0     H24786   1.767  10.131   8.049  1.4098  2.3861 -2.1472
  184MOL0     H24787   1.609  10.065   7.865 -0.3170  0.4838 -0.6095
  184MOL0     H24788   1.724   9.932   7.826  2.3066 -0.7448  3.3006
  184MOL0     H24789   1.656   9.822   8.017  2.7562  1.8293 -2.0250
  184MOL0     H24790   1.501   9.886   7.932 -0.3100 -1.0455  0.0029
  184MOL0     H24791   1.362  10.106   8.062  2.4873 -0.0066 -3.3806
  184MOL0     H24792   1.210  10.091   8.323 -1.9222  2.2416  2.8004
  184MOL0     H24793   1.341  10.141   8.438  0.8354 -0.0876 -0.3097
  184MOL0     H24794   1.216  10.300   8.244  0.9889 -0.7704 -1.1420
  184MOL0     H24795   1.393  10.310   8.234 -1.8261 -2.5000 -2.1330
  184MOL0     H24796   1.384  10.363   8.498 -0.8926 -0.4620  4.2529
  184MOL0     H24797   1.205  10.370   8.481  0.9970 -1.0328 -0.9538
  184MOL0     H24798   1.299  10.591   8.465  1.0274 -0.9095 -0.6774
  184MOL0     H24799   1.215  10.533   8.310  0.5946 -1.8512 -1.1516
  184MOL0     H24800   1.330  10.781   8.453  0.0225  2.8062  0.2952
  184MOL0     H24801   1.475  11.119   8.469 -2.7808  2.2880  0.8023
  184MOL0     H24802   1.300  11.066   8.455 -0.4881 -0.9415  3.0067
  184MOL0     H24803   1.424  10.984   8.556  0.4517  0.3282  0.1840
  184MOL0     H24804   1.429  11.410   8.345 -4.7252  1.9787 -2.0251
  184MOL0     H24805   1.490  11.650   8.278  0.2301 -0.9490  0.7551
  184MOL0     H24806   1.799  11.723   8.104 -0.4575  2.5652  2.3755
  184MOL0     H24807   1.741  11.744   7.929 -2.0103  1.1292 -0.3582
  184MOL0     H24808   1.659  11.929   7.961  1.0866 -1.9133 -1.9925
  184MOL0     H24809   1.701  11.950   8.148  2.3153  0.8808  0.4417
  184MOL0     H24810   1.875  11.977   7.911  3.9740  1.9856  1.1142
  184MOL0     H24811   1.931  11.904   8.060  1.1055 -1.3834 -3.2695
  184MOL0     H24812   1.845  12.115   8.185  4.3345  3.2553  1.6447
  184MOL0     H24813   1.969  12.143   8.054  0.4025 -1.9697 -1.5388
  184MOL0     H24814   1.670  12.208   8.015 -0.2887  1.6497 -0.2399
  184MOL0     H24815   1.786  12.206   7.889 -2.9358  2.0632 -1.0279
  184MOL0     H24816   1.789  12.351   8.145  3.9269  1.2604 -0.0149
  184MOL0     H24817   1.912  12.369   8.040 -0.1486  2.0130 -2.1658
  184MOL0     H24818   1.778  12.487   7.864 -4.4500  0.1334 -1.9794
  184MOL0     H24819   1.742  12.567   8.020  2.9981 -1.0534  0.2400
  184MOL0     H24820   1.539  12.430   8.043 -2.3145  1.7396 -1.4284
  184MOL0     H24821   1.569  12.354   7.888 -1.2696 -0.8777  2.1446
  184MOL0     H24822   1.710  11.480   7.947 -1.1146  0.3322 -1.8635
  184MOL0     H24823   1.679  11.269   8.021  0.0751 -0.0418  2.2033
  184MOL0     H24824   1.645  10.871   8.083  2.5347  3.0941  2.3684
  184MOL0     H24825   1.556  10.641   8.110 -0.3607  0.9697 -0.3149
  184MOL0     H24826   2.606  10.477   7.711  2.2644  0.7145  1.1243
  184MOL0     H24827   2.821  10.423   7.587 -1.7175  2.3057  2.0803
  184MOL0     H24828   3.260  10.137   7.566 -1.3132 -1.7744 -0.1158
  184MOL0     H24829   3.451  10.100   7.416 -0.2882  1.0439  1.8961
  184MOL0     H24830   3.584  10.165   7.241  2.8054 -1.3315  1.7067
  184MOL0     H24831   3.556   9.986   7.247  2.4195  0.2764 -0.7047
  184MOL0     H24832   3.678  10.161   7.026 -2.7820  0.0982  0.0154
  184MOL0     H24833   3.603  10.030   6.963  2.7939 -0.8111 -1.2266
  184MOL0     H24834   3.828   9.958   7.006  2.3720  0.7925  2.6152
  184MOL0     H24835   3.728   9.852   7.101  2.0523 -1.0530 -0.1129
  184MOL0     H24836   3.778   9.952   7.294 -1.2910  1.7080 -0.6970
  184MOL0     H24837   3.832  10.109   7.213 -0.2374 -0.6690 -1.3522
  184MOL0     H24838   4.185   9.879   7.214 -0.6020 -1.3758  2.8897
  184MOL0     H24839   3.175  10.136   7.089 -0.3464  2.9646 -0.6161
  184MOL0     H24840   2.991  10.175   7.227 -0.6554 -1.1281  0.0374
  185MOL0     O24841   6.429   1.686  11.078  0.4903 -0.0535  0.2829
  185MOL0     C24842   6.493   1.586  11.090  0.5582  0.6371  0.5212
  185MOL0     O24843   6.456   1.465  11.044  0.2738 -0.0784  0.1298
  185MOL0     C24844   6.324   1.455  10.997  0.1531 -0.1142 -0.6235
  185MOL0     C24845   6.213   1.490  11.071  0.4652  0.1670  0.2875
  185MOL0     C24846   6.087   1.444  11.029 -0.2066 -0.1402  1.0657
  185MOL0     C24847   6.076   1.370  10.909 -0.4622  0.0640 -0.3295
  185MOL0     O24848   5.950   1.353  10.878 -0.1081  0.9280 -0.5796
  185MOL0     C24849   5.896   1.301  10.755 -0.1258 -0.5842 -0.1218
  185MOL0     C24850   5.813   1.418  10.703 -0.0649 -0.6736  0.6879
  185MOL0     C24851   5.730   1.391  10.576 -0.4892  0.3497  0.3121
  185MOL0     C24852   5.613   1.477  10.568  0.5403 -0.2573  0.1920
  185MOL0     C24853   5.524   1.471  10.434 -0.1730  0.4634 -0.0001
  185MOL0     C24854   5.601   1.558  10.334 -0.4888  0.3205  0.1932
  185MOL0     C24855   5.525   1.582  10.198 -0.0239  0.0707  0.0525
  185MOL0     C24856   5.602   1.653  10.082 -1.3664 -0.0231  0.1750
  185MOL0     N24857   5.674   1.564   9.991 -0.3038  0.1056  0.6048
  185MOL0     C24858   5.621   1.480   9.895  0.1010  0.2914  1.2650
  185MOL0     C24859   5.727   1.415   9.834 -0.0018  0.2921 -0.1860
  185MOL0     C24860   5.695   1.304   9.735 -0.3222 -0.1384 -0.8722
  185MOL0     C24861   5.609   1.339   9.617  0.1334 -1.4443 -0.7453
  185MOL0     C24862   5.452   1.310   9.632 -0.2889 -0.1638 -0.1916
  185MOL0     C24863   5.375   1.324   9.494 -0.2618 -0.4054  0.0811
  185MOL0     O24864   5.423   1.231   9.389 -0.7138 -0.7189 -0.2282
  185MOL0     C24865   5.338   1.188   9.283 -0.0132  1.1726 -1.0734
  185MOL0     C24866   5.409   1.165   9.163 -0.8768 -0.9408  0.3984
  185MOL0     C24867   5.347   1.137   9.042  0.1936 -1.0706  0.5501
  185MOL0     C24868   5.423   1.111   8.911 -0.0563  0.4033  0.3094
  185MOL0     C24869   5.199   1.145   9.046 -0.4476  1.1021 -0.1031
  185MOL0     C24870   5.110   1.122   8.923 -0.2102  0.5469  0.6207
  185MOL0     O24871   4.981   1.150   8.931  0.5051 -0.2286  0.6486
  185MOL0     C24872   4.904   1.078   8.843 -0.8014  0.0217 -0.1478
  185MOL0     C24873   4.881   0.941   8.848 -0.1638  0.2843  0.0101
  185MOL0     C24874   4.796   0.881   8.754  0.0285 -0.6910  0.3960
  185MOL0     C24875   4.768   0.946   8.640  1.0424 -0.4605 -0.0577
  185MOL0     O24876   4.678   0.886   8.543 -0.5694 -0.9138 -0.0359
  185MOL0     C24877   4.656   0.742   8.545 -0.3705 -0.0396  0.3089
  185MOL0     C24878   4.585   0.704   8.413  0.4088 -0.5847 -0.5093
  185MOL0     C24879   4.581   0.556   8.392 -0.5950  1.0746 -0.5754
  185MOL0     C24880   4.563   0.514   8.247 -0.0929  0.0879 -0.2080
  185MOL0     C24881   4.553   0.359   8.231 -0.3542  0.3023 -0.4803
  185MOL0     C24882   4.680   0.272   8.264 -0.1259  0.2563 -0.0695
  185MOL0     C24883   4.665   0.127   8.226  0.4845 -0.1418 -0.1276
  185MOL0     C24884   4.749   0.026   8.309  0.2608  0.1055  0.4002
  185MOL0    Cl24885   4.917   0.077   8.252  0.1830  0.1957 -0.1737
  185MOL0     C24886   4.804   1.079   8.624  0.2856 -0.2155 -0.3711
  185MOL0     C24887   4.857   1.147   8.732  0.3156 -0.0554  0.0016
  185MOL0     O24888   5.160   1.082   8.816 -0.0333  0.2370 -0.7846
  185MOL0     C24889   5.129   1.154   9.169  0.1205  1.1437 -0.0710
  185MOL0     C24890   5.200   1.177   9.286  0.0784  0.5183 -0.6847
  185MOL0     N24891   5.844   1.445   9.903  0.5880 -0.9794  0.0526
  185MOL0     N24892   5.806   1.536   9.995 -1.0464 -0.2568 -0.0275
  185MOL0     C24893   6.189   1.353  10.828 -0.3902  0.1324 -0.8413
  185MOL0     C24894   6.312   1.388  10.874 -0.0371  1.1268  0.2366
  185MOL0     C24895   6.630   1.596  11.141  0.1492 -0.2555  0.0442
  185MOL0     C24896   6.713   1.481  11.125  0.3936  0.1903  0.4599
  185MOL0     C24897   6.830   1.473  11.190 -0.0220 -0.1309  0.3263
  185MOL0     C24898   6.875   1.574  11.264  0.0275  0.0503 -0.1241
  185MOL0     O24899   7.009   1.554  11.299 -0.7774  0.0251  0.0343
  185MOL0     C24900   7.090   1.660  11.333 -1.0853 -0.3397  0.0332
  185MOL0     C24901   7.223   1.605  11.367  0.1255 -0.3561  0.1240
  185MOL0     C24902   7.327   1.716  11.405 -0.1553 -0.7221  0.7101
  185MOL0     C24903   7.418   1.688  11.525  0.5751  0.1087  0.3118
  185MOL0     C24904   7.497   1.799  11.580 -0.1230 -1.1488 -0.4132
  185MOL0     C24905   7.563   1.885  11.635 -0.1354  0.1260 -0.5770
  185MOL0     C24906   6.796   1.696  11.274  0.1249  0.0232 -0.9156
  185MOL0     C24907   6.671   1.715  11.205  0.4401  0.3718 -0.3967
  185MOL0     H24908   6.220   1.543  11.165  1.2779  0.9100 -0.1681
  185MOL0     H24909   6.000   1.481  11.080 -2.0206  1.2687 -2.6682
  185MOL0     H24910   5.965   1.275  10.674  1.5825  0.3203  0.9916
  185MOL0     H24911   5.832   1.213  10.767 -0.1888 -0.6202 -0.6989
  185MOL0     H24912   5.751   1.459  10.783  0.2697 -0.7014  0.9671
  185MOL0     H24913   5.885   1.495  10.673 -1.1517 -0.0311 -0.3837
  185MOL0     H24914   5.793   1.417  10.491  0.8293 -2.4362  0.3393
  185MOL0     H24915   5.722   1.283  10.558  2.0340  0.3118 -0.9814
  185MOL0     H24916   5.537   1.440  10.637 -3.1577 -0.8069 -3.7207
  185MOL0     H24917   5.648   1.577  10.595  1.3390 -0.9554  1.8624
  185MOL0     H24918   5.513   1.367  10.401 -0.8424  0.6791 -0.4907
  185MOL0     H24919   5.428   1.508  10.472 -0.4593 -1.2384  1.0334
  185MOL0     H24920   5.629   1.655  10.376 -0.2709 -1.1757  3.7938
  185MOL0     H24921   5.698   1.513  10.313  0.1150  0.1526  2.9590
  185MOL0     H24922   5.503   1.482  10.158  1.3222 -0.1616 -0.1416
  185MOL0     H24923   5.431   1.637  10.209  0.1516  0.1396  1.3479
  185MOL0     H24924   5.670   1.726  10.127  0.2703 -0.8698 -0.7877
  185MOL0     H24925   5.521   1.702  10.028 -3.0169 -0.8173  1.8576
  185MOL0     H24926   5.513   1.486   9.880  0.3298  2.1589  0.0503
  185MOL0     H24927   5.783   1.251   9.699  2.4807  0.9664  3.5750
  185MOL0     H24928   5.632   1.236   9.794  0.3059 -0.1075 -0.1524
  185MOL0     H24929   5.649   1.285   9.531 -0.4037 -2.4541 -0.3737
  185MOL0     H24930   5.623   1.447   9.601  4.0682 -1.6241  0.3325
  185MOL0     H24931   5.408   1.391   9.690 -0.7429 -0.0110 -0.7429
  185MOL0     H24932   5.433   1.214   9.680 -3.0942  0.7487  0.7224
  185MOL0     H24933   5.398   1.424   9.458  0.5558 -0.3042  0.8342
  185MOL0     H24934   5.268   1.322   9.516 -0.7584 -0.8271 -2.1773
  185MOL0     H24935   5.515   1.189   9.165 -0.9037 -0.8105  0.3103
  185MOL0     H24936   5.408   1.009   8.877 -1.5501  0.8162 -0.3376
  185MOL0     H24937   5.399   1.174   8.825 -1.7459  1.7505  1.6801
  185MOL0     H24938   5.527   1.131   8.939  0.6728  0.3726 -2.1608
  185MOL0     H24939   4.918   0.883   8.932  0.7845  0.4987 -0.2422
  185MOL0     H24940   4.756   0.781   8.764 -0.5073 -0.5511 -0.2885
  185MOL0     H24941   4.748   0.682   8.546 -0.9152 -0.9237 -0.5911
  185MOL0     H24942   4.599   0.704   8.631 -3.2401  0.4871 -1.2196
  185MOL0     H24943   4.488   0.754   8.414  0.8315  0.4296 -3.1485
  185MOL0     H24944   4.618   0.753   8.321 -3.0641 -1.1886 -2.2178
  185MOL0     H24945   4.496   0.514   8.448  0.2179 -0.5918 -0.5064
  185MOL0     H24946   4.677   0.514   8.424 -0.2848  2.6826  0.7221
  185MOL0     H24947   4.474   0.559   8.202  1.3040  1.6735 -1.5089
  185MOL0     H24948   4.638   0.554   8.178  0.0399 -3.7733 -2.6878
  185MOL0     H24949   4.526   0.332   8.128  0.5206  0.4459 -0.7527
  185MOL0     H24950   4.472   0.328   8.299  2.0017  1.5518  3.1655
  185MOL0     H24951   4.765   0.318   8.213 -2.2089  2.7709 -1.5631
  185MOL0     H24952   4.707   0.267   8.369  1.9889 -0.6169 -0.6087
  185MOL0     H24953   4.705   0.118   8.125 -3.8729  2.5633 -2.4219
  185MOL0     H24954   4.561   0.091   8.227  0.2628  0.2571  3.1744
  185MOL0     H24955   4.723  -0.072   8.268 -1.2616  1.2185 -1.4847
  185MOL0     H24956   4.724   0.036   8.415 -0.3151 -2.4492  0.5492
  185MOL0     H24957   4.768   1.120   8.529 -0.1135  0.0609 -0.1037
  185MOL0     H24958   4.870   1.254   8.722 -2.2592  0.0694 -4.1394
  185MOL0     H24959   5.022   1.134   9.167  0.2271  0.4956  0.2782
  185MOL0     H24960   5.151   1.168   9.382  2.2030 -0.2105  0.3956
  185MOL0     H24961   6.189   1.314  10.727 -2.9454  0.8571 -1.1849
  185MOL0     H24962   6.402   1.357  10.822 -0.9626 -0.7821 -0.3217
  185MOL0     H24963   6.673   1.387  11.088 -1.3636 -1.6950  6.1804
  185MOL0     H24964   6.892   1.384  11.190  2.5418  1.5380  2.1260
  185MOL0     H24965   7.099   1.727  11.246  2.5863  0.9555  1.2363
  185MOL0     H24966   7.050   1.711  11.421  1.3061 -0.3119  1.1789
  185MOL0     H24967   7.271   1.554  11.283  0.4731  0.0342  0.0818
  185MOL0     H24968   7.198   1.542  11.452  2.4874 -2.0317 -0.3367
  185MOL0     H24969   7.271   1.808  11.420  2.0270  0.8616 -0.3168
  185MOL0     H24970   7.397   1.733  11.323  0.6821 -4.1338  0.5562
  185MOL0     H24971   7.495   1.615  11.498  2.2366  3.0433 -3.8972
  185MOL0     H24972   7.366   1.645  11.611  0.3026  1.1147  0.6686
  185MOL0     H24973   7.607   1.969  11.686 -0.7367 -0.1063  0.3472
  185MOL0     H24974   6.839   1.778  11.331 -1.1563  0.6240 -0.7577
  185MOL0     H24975   6.608   1.803  11.217  1.5296  1.1610 -0.3296
  186MOL0     O24976   0.777   3.753   5.618  0.2607  0.6643 -0.1478
  186MOL0     C24977   0.737   3.681   5.717  0.2606 -0.5050  0.7204
  186MOL0     O24978   0.637   3.593   5.713 -0.0638  0.1187 -0.3744
  186MOL0     C24979   0.545   3.614   5.608 -0.7204  0.1001 -0.2319
  186MOL0     C24980   0.491   3.504   5.535  0.6924  0.1226 -0.0994
  186MOL0     C24981   0.385   3.530   5.444  0.7040 -0.0780 -0.1400
  186MOL0     C24982   0.336   3.663   5.430 -0.2657  0.0722 -0.0388
  186MOL0     O24983   0.236   3.680   5.338  0.2335 -0.5867  0.2703
  186MOL0     C24984   0.205   3.809   5.278 -0.1032 -0.3884 -0.4044
  186MOL0     C24985   0.159   3.799   5.132  0.5544 -0.2124 -0.7854
  186MOL0     C24986   0.105   3.940   5.092 -0.3875  0.1646 -0.3939
  186MOL0     C24987   0.063   3.943   4.947  0.0870 -0.4385 -0.6318
  186MOL0     C24988   0.178   3.919   4.852 -0.1065 -0.3786 -0.8220
  186MOL0     C24989   0.143   3.906   4.701 -0.0345 -0.2162  0.3371
  186MOL0     C24990   0.081   3.762   4.675  0.1440 -0.0311 -0.4910
  186MOL0     C24991   0.007   3.753   4.538 -0.7585 -0.3077 -0.0713
  186MOL0     N24992  -0.098   3.656   4.532  0.6982 -0.4715 -0.4120
  186MOL0     C24993  -0.093   3.549   4.455 -0.0884 -0.5642 -0.5820
  186MOL0     C24994  -0.209   3.486   4.478 -0.1076  0.8061  0.0854
  186MOL0     C24995  -0.276   3.375   4.413 -0.0056 -0.1730  0.0462
  186MOL0     C24996  -0.261   3.390   4.262 -0.1003  0.4571  0.0017
  186MOL0     C24997  -0.355   3.489   4.213  0.5297  0.8482 -0.0050
  186MOL0     C24998  -0.337   3.522   4.062 -0.4475 -0.2004 -0.3321
  186MOL0     O24999  -0.408   3.645   4.032 -0.0059 -0.1980 -0.4041
  186MOL0     C25000  -0.406   3.694   3.908 -0.3942  0.2520  0.0622
  186MOL0     C25001  -0.437   3.835   3.899 -0.2000 -0.8088 -0.0980
  186MOL0     C25002  -0.434   3.897   3.776  0.1093 -0.2367  0.0213
  186MOL0     C25003  -0.470   4.042   3.780 -0.0080  0.4145  0.3159
  186MOL0     C25004  -0.403   3.815   3.663  0.7298  0.7532  0.1790
  186MOL0     C25005  -0.405   3.861   3.515 -0.0505 -0.1695 -0.1196
  186MOL0     O25006  -0.384   3.772   3.414  0.1264 -0.3633  0.0838
  186MOL0     C25007  -0.387   3.835   3.291 -0.3069 -0.0600  0.3250
  186MOL0     C25008  -0.272   3.876   3.218  0.4573  0.5106 -0.7503
  186MOL0     C25009  -0.294   3.919   3.088  0.2882 -0.2763 -0.5464
  186MOL0     C25010  -0.419   3.929   3.029  0.5100 -0.8571 -1.1482
  186MOL0     O25011  -0.406   3.986   2.905  1.2260  0.0877 -0.8652
  186MOL0     C25012  -0.516   4.033   2.838  0.3033  0.2750  0.9286
  186MOL0     C25013  -0.472   4.015   2.693  0.2023  0.7918  1.1017
  186MOL0     C25014  -0.340   4.091   2.650  0.2230 -0.4174  0.4934
  186MOL0     C25015  -0.285   4.073   2.509  0.8248  0.7931 -0.2763
  186MOL0     C25016  -0.379   4.092   2.398  0.7806  0.5348  0.4818
  186MOL0     C25017  -0.408   4.239   2.368  1.0688 -0.8381 -0.1451
  186MOL0     C25018  -0.538   4.265   2.303  0.4168 -0.3170 -1.0858
  186MOL0     C25019  -0.559   4.408   2.256  0.3366 -0.5393  0.0524
  186MOL0    Cl25020  -0.595   4.515   2.403  0.4054 -0.1755  0.2771
  186MOL0     C25021  -0.536   3.902   3.104 -0.7641  0.2730 -0.0245
  186MOL0     C25022  -0.518   3.850   3.236 -0.4182 -0.0999 -0.2702
  186MOL0     O25023  -0.434   3.982   3.499 -1.0580 -0.4427  0.1271
  186MOL0     C25024  -0.363   3.677   3.672 -0.3209  0.2779  0.6167
  186MOL0     C25025  -0.379   3.617   3.797 -0.0252  0.2135  0.4005
  186MOL0     N25026  -0.268   3.551   4.583 -0.4261 -0.0227  0.5655
  186MOL0     N25027  -0.209   3.654   4.611 -0.0299  1.2893 -1.0085
  186MOL0     C25028   0.389   3.767   5.497 -0.3220  0.2874  0.2756
  186MOL0     C25029   0.490   3.745   5.582 -0.2235  0.0559 -1.1911
  186MOL0     C25030   0.825   3.692   5.837 -0.7294  0.3400 -0.1186
  186MOL0     C25031   0.792   3.624   5.952 -0.6768  0.0132  1.1557
  186MOL0     C25032   0.878   3.643   6.063  0.2035  0.1970  0.6242
  186MOL0     C25033   0.995   3.718   6.059 -0.1350  0.0257 -0.3254
  186MOL0     O25034   1.079   3.707   6.165 -0.1262 -0.4720 -0.2911
  186MOL0     C25035   1.200   3.796   6.183 -0.2046 -0.1995 -0.4510
  186MOL0     C25036   1.260   3.760   6.312  0.9370  0.2297  0.3323
  186MOL0     C25037   1.164   3.797   6.430 -0.0139 -0.0003  1.2366
  186MOL0     C25038   1.224   3.769   6.565  0.6268  0.3977  0.1508
  186MOL0     C25039   1.337   3.866   6.599  1.0368 -0.6811 -0.7970
  186MOL0     C25040   1.437   3.929   6.631 -0.1292 -0.2012 -0.5620
  186MOL0     C25041   1.026   3.792   5.943 -0.0934  0.0949 -0.5844
  186MOL0     C25042   0.944   3.772   5.833 -0.0955 -0.3458  0.4013
  186MOL0     H25043   0.524   3.404   5.561 -1.4442 -0.3265  1.1170
  186MOL0     H25044   0.328   3.442   5.413  0.8213  0.5082 -2.1623
  186MOL0     H25045   0.120   3.845   5.336  1.2800 -0.0998  1.5384
  186MOL0     H25046   0.288   3.880   5.274  1.4386 -2.1364 -0.6970
  186MOL0     H25047   0.244   3.763   5.073  0.6025 -0.4397 -0.5794
  186MOL0     H25048   0.075   3.730   5.124  1.6069 -1.6912  0.3203
  186MOL0     H25049   0.013   3.959   5.149  0.2446  0.9814  0.3871
  186MOL0     H25050   0.176   4.018   5.119  1.2835 -1.0296 -1.1593
  186MOL0     H25051  -0.016   3.867   4.943  0.6745 -1.4080  2.9676
  186MOL0     H25052   0.021   4.041   4.925  0.4069 -0.7896 -3.1108
  186MOL0     H25053   0.256   3.995   4.861 -0.8810  0.7613 -3.0262
  186MOL0     H25054   0.240   3.830   4.869  1.6113  0.8493 -0.3532
  186MOL0     H25055   0.080   3.985   4.659  2.9410  1.0852 -2.0180
  186MOL0     H25056   0.239   3.919   4.651 -0.9271  0.7032 -1.1967
  186MOL0     H25057   0.160   3.688   4.682 -1.3395 -1.5899  0.6124
  186MOL0     H25058   0.011   3.743   4.757  1.1648 -2.0599 -0.0435
  186MOL0     H25059   0.078   3.744   4.455 -2.2874 -0.2958 -1.4493
  186MOL0     H25060  -0.044   3.849   4.523  1.4122  0.7285 -1.2013
  186MOL0     H25061  -0.017   3.520   4.383  2.2006  0.0816  1.4139
  186MOL0     H25062  -0.235   3.281   4.453 -5.2915 -1.9419  2.1844
  186MOL0     H25063  -0.379   3.363   4.448 -0.9567 -0.6256 -2.7216
  186MOL0     H25064  -0.288   3.294   4.217 -0.9965  1.6329 -2.1861
  186MOL0     H25065  -0.157   3.412   4.236 -0.0850  0.0228 -0.3130
  186MOL0     H25066  -0.334   3.583   4.264  2.7120 -0.7111  2.2347
  186MOL0     H25067  -0.456   3.452   4.235  1.7039 -2.3123  0.6249
  186MOL0     H25068  -0.362   3.428   4.013  3.4349 -1.2191 -0.6606
  186MOL0     H25069  -0.228   3.534   4.061 -0.2712 -1.1503  1.5334
  186MOL0     H25070  -0.460   3.893   3.987  0.1717  0.3162 -0.7228
  186MOL0     H25071  -0.573   4.055   3.748  0.2065 -2.6472 -2.1642
  186MOL0     H25072  -0.452   4.080   3.881  3.0428  1.8842 -0.6394
  186MOL0     H25073  -0.397   4.095   3.717  0.4282  0.3430  0.7536
  186MOL0     H25074  -0.173   3.860   3.259 -0.3815 -0.8532  0.9036
  186MOL0     H25075  -0.210   3.943   3.023 -1.8422  3.2881 -2.3230
  186MOL0     H25076  -0.602   3.966   2.844  0.4850  0.0109  0.6245
  186MOL0     H25077  -0.541   4.133   2.875  0.6198 -0.3418  2.9315
  186MOL0     H25078  -0.462   3.907   2.675  3.6165  0.7751  2.3302
  186MOL0     H25079  -0.557   4.057   2.639  0.9708 -1.9770 -2.6586
  186MOL0     H25080  -0.264   4.051   2.717  1.3241  2.5184  1.1629
  186MOL0     H25081  -0.350   4.200   2.657  0.7333 -0.2108 -1.5102
  186MOL0     H25082  -0.212   4.153   2.491 -1.6016  2.8533 -1.6511
  186MOL0     H25083  -0.232   3.979   2.496 -0.6610  0.3062 -4.3652
  186MOL0     H25084  -0.478   4.048   2.412  0.8344  0.6761  1.3440
  186MOL0     H25085  -0.329   4.044   2.313  0.0429  1.6976 -0.6370
  186MOL0     H25086  -0.401   4.310   2.450 -1.6657 -1.5014  0.7747
  186MOL0     H25087  -0.336   4.271   2.293  0.5424  1.7763  0.3748
  186MOL0     H25088  -0.625   4.244   2.365 -0.5369  3.7072 -0.7715
  186MOL0     H25089  -0.532   4.195   2.220  2.6102  0.6478 -1.8160
  186MOL0     H25090  -0.639   4.407   2.181 -1.0200 -1.7757  1.4614
  186MOL0     H25091  -0.476   4.450   2.198 -1.6226 -0.9198 -3.3279
  186MOL0     H25092  -0.638   3.918   3.071 -0.3097 -0.0603 -1.7010
  186MOL0     H25093  -0.597   3.804   3.294 -1.3498 -0.2905 -1.6354
  186MOL0     H25094  -0.334   3.611   3.591 -0.9823 -1.0723  1.4515
  186MOL0     H25095  -0.369   3.509   3.803 -1.1348  0.1307  1.1706
  186MOL0     H25096   0.355   3.869   5.482 -2.5848 -0.4479  0.0050
  186MOL0     H25097   0.540   3.824   5.636  2.5470 -2.2678 -0.1373
  186MOL0     H25098   0.695   3.576   5.957 -0.9205  0.2902 -0.5206
  186MOL0     H25099   0.848   3.599   6.158 -0.4921  1.2664  0.9233
  186MOL0     H25100   1.264   3.788   6.095  0.9760  0.6463  0.3072
  186MOL0     H25101   1.170   3.901   6.185 -0.5075 -0.2427 -1.9328
  186MOL0     H25102   1.355   3.812   6.324  0.3218  0.6547  4.8948
  186MOL0     H25103   1.286   3.654   6.304 -1.2232 -0.2446 -2.2456
  186MOL0     H25104   1.073   3.737   6.426  1.1188 -1.7772  0.4100
  186MOL0     H25105   1.120   3.896   6.418  0.5490  0.0617 -0.6569
  186MOL0     H25106   1.259   3.666   6.578 -2.2986 -0.4748  1.9971
  186MOL0     H25107   1.150   3.794   6.641 -0.1014 -0.6799 -0.1763
  186MOL0     H25108   1.528   3.984   6.638 -0.6659  0.5927  0.4144
  186MOL0     H25109   1.109   3.861   5.941 -1.4102  1.9012  1.4961
  186MOL0     H25110   0.978   3.831   5.749  2.3950  1.9654  2.8253
  187MOL0     O25111   1.267   2.133   4.096 -0.0390  0.6003  0.1062
  187MOL0     C25112   1.309   2.103   4.208 -0.1237 -0.3078 -0.8812
  187MOL0     O25113   1.435   2.047   4.242 -0.1317  0.5796  0.2266
  187MOL0     C25114   1.536   2.012   4.150 -0.3122 -0.2281 -0.8863
  187MOL0     C25115   1.545   2.070   4.023  0.3024 -0.0289 -0.0169
  187MOL0     C25116   1.655   2.039   3.941 -0.3419  1.1955 -0.5948
  187MOL0     C25117   1.750   1.950   3.986  0.2261  0.1746  0.0199
  187MOL0     O25118   1.844   1.914   3.897  0.6079 -0.5377  1.3378
  187MOL0     C25119   1.928   1.796   3.918  0.0442  1.0621  0.0766
  187MOL0     C25120   2.023   1.768   3.801 -0.2967 -0.6401 -0.0185
  187MOL0     C25121   1.953   1.734   3.667  0.3112  0.2001  0.7201
  187MOL0     C25122   2.053   1.687   3.555  0.1170 -0.1926  0.8816
  187MOL0     C25123   2.189   1.765   3.542 -0.5893  0.2416 -0.1932
  187MOL0     C25124   2.276   1.743   3.424 -0.4598  0.7945 -0.2220
  187MOL0     C25125   2.310   1.589   3.420  0.1515  0.1853 -0.1280
  187MOL0     C25126   2.402   1.566   3.299 -0.1361 -0.2843 -0.9200
  187MOL0     N25127   2.402   1.438   3.239  0.0659  0.0108  0.4076
  187MOL0     C25128   2.485   1.333   3.280 -0.0177  0.0104 -0.6168
  187MOL0     C25129   2.502   1.251   3.173  0.3365  0.8376  0.3542
  187MOL0     C25130   2.565   1.120   3.148  0.2428 -0.0893  0.5918
  187MOL0     C25131   2.715   1.137   3.097  0.8730 -0.2930 -0.0933
  187MOL0     C25132   2.815   1.170   3.210  0.0713 -0.1635 -0.7172
  187MOL0     C25133   2.956   1.199   3.154 -0.2701  0.7647 -0.2585
  187MOL0     O25134   2.991   1.333   3.115 -0.8771 -0.0946 -0.2708
  187MOL0     C25135   2.937   1.385   3.007  0.5661 -0.2057 -0.3917
  187MOL0     C25136   2.814   1.449   3.009  0.1518 -0.3615  0.4686
  187MOL0     C25137   2.761   1.512   2.892 -0.0435 -0.1272 -0.0418
  187MOL0     C25138   2.613   1.549   2.893  0.9935 -0.2558 -0.3017
  187MOL0     C25139   2.838   1.518   2.776 -0.0672  0.5170  0.5111
  187MOL0     C25140   2.792   1.579   2.646 -0.5298 -0.1528  0.1592
  187MOL0     O25141   2.846   1.529   2.535  0.4996  0.7034 -0.4101
  187MOL0     C25142   2.804   1.563   2.412  0.1038 -0.7790 -0.1921
  187MOL0     C25143   2.899   1.559   2.312  0.3327  0.2069 -0.2487
  187MOL0     C25144   2.868   1.599   2.182 -0.5270  0.5036  0.3170
  187MOL0     C25145   2.743   1.650   2.146  0.0129 -0.4538  0.2765
  187MOL0     O25146   2.724   1.689   2.016  0.6767 -0.3843 -0.0254
  187MOL0     C25147   2.592   1.719   1.965 -0.1882  1.1493 -0.7270
  187MOL0     C25148   2.584   1.773   1.822  0.2316  0.0835  1.2547
  187MOL0     C25149   2.618   1.654   1.731  0.1297 -0.7779 -0.2255
  187MOL0     C25150   2.693   1.697   1.607 -1.1023  0.2385  0.0218
  187MOL0     C25151   2.730   1.563   1.529  0.0844 -0.2197 -1.3403
  187MOL0     C25152   2.846   1.565   1.438  0.3900  0.4218  0.1562
  187MOL0     C25153   2.967   1.537   1.522 -0.4170 -0.5836 -0.4170
  187MOL0     C25154   3.089   1.611   1.461 -0.1068  0.2199  0.0995
  187MOL0    Cl25155   3.221   1.615   1.581 -0.3756  0.2088 -0.5348
  187MOL0     C25156   2.643   1.633   2.244  0.8888  0.2886 -0.2743
  187MOL0     C25157   2.670   1.604   2.373 -0.5467  0.3808 -0.1176
  187MOL0     O25158   2.701   1.656   2.651  0.9982  0.2331  0.0540
  187MOL0     C25159   2.972   1.466   2.778 -0.2193  0.0090 -0.1862
  187MOL0     C25160   3.014   1.398   2.885 -0.5594 -0.0129  1.3001
  187MOL0     N25161   2.430   1.312   3.072  0.5863  0.5256 -0.0393
  187MOL0     N25162   2.387   1.421   3.113 -0.2741 -0.0408 -0.6431
  187MOL0     C25163   1.740   1.899   4.117 -0.2314  0.2121 -0.4767
  187MOL0     C25164   1.636   1.930   4.201  0.5496 -0.2625  0.4445
  187MOL0     C25165   1.214   2.137   4.316  0.0514 -0.3712  0.1142
  187MOL0     C25166   1.254   2.185   4.440  0.4042 -0.1740  0.6790
  187MOL0     C25167   1.158   2.227   4.536  0.0221  0.2632  0.0073
  187MOL0     C25168   1.026   2.217   4.512  0.2020  0.0576 -0.2464
  187MOL0     O25169   0.922   2.231   4.603  0.7751 -0.2770  0.1394
  187MOL0     C25170   0.946   2.320   4.715  0.0046 -0.8658 -0.3524
  187MOL0     C25171   0.815   2.370   4.782 -0.3098  1.1833 -0.7900
  187MOL0     C25172   0.700   2.277   4.769  0.2916  0.3747 -0.8000
  187MOL0     C25173   0.727   2.122   4.801 -1.3356 -0.2682  0.3426
  187MOL0     C25174   0.754   2.111   4.947 -1.2867 -0.1273 -0.0146
  187MOL0     C25175   0.790   2.118   5.067 -0.4177  0.5631  0.1999
  187MOL0     C25176   0.986   2.168   4.389  0.3048  0.5131  0.3638
  187MOL0     C25177   1.079   2.117   4.302  0.2890 -0.4695  0.0536
  187MOL0     H25178   1.467   2.142   3.999  0.0673  0.3287  1.7112
  187MOL0     H25179   1.658   2.079   3.840 -2.0330  1.4934 -0.5567
  187MOL0     H25180   1.993   1.817   4.003  1.0026  1.5927 -0.7676
  187MOL0     H25181   1.869   1.706   3.940  3.1104 -0.9018  0.9422
  187MOL0     H25182   2.084   1.858   3.796  0.2058 -1.0113 -0.6720
  187MOL0     H25183   2.078   1.676   3.823 -2.1173 -1.7919 -0.0920
  187MOL0     H25184   1.874   1.659   3.674  1.9433 -1.7961 -1.1053
  187MOL0     H25185   1.912   1.827   3.628 -1.0137 -0.6332  0.0798
  187MOL0     H25186   2.067   1.581   3.575  0.7328  0.3271  3.5648
  187MOL0     H25187   2.016   1.692   3.452  0.2722 -1.2112  0.7732
  187MOL0     H25188   2.160   1.870   3.546  1.0687  0.6967  2.6242
  187MOL0     H25189   2.255   1.751   3.629  2.4181  5.0826 -1.3140
  187MOL0     H25190   2.232   1.772   3.328  0.9648 -2.5493 -2.0483
  187MOL0     H25191   2.363   1.806   3.443 -1.1085  1.1546  1.7754
  187MOL0     H25192   2.363   1.566   3.513  2.8473  2.1773 -1.0433
  187MOL0     H25193   2.220   1.530   3.401  0.9418 -1.1889  0.2936
  187MOL0     H25194   2.506   1.580   3.330  0.1161 -4.1816  0.6156
  187MOL0     H25195   2.372   1.630   3.216  0.3939 -1.6764 -2.2315
  187MOL0     H25196   2.521   1.318   3.381  1.9922  1.2458 -1.0840
  187MOL0     H25197   2.568   1.052   3.234  1.8848 -1.9666 -0.8385
  187MOL0     H25198   2.503   1.074   3.071 -0.1844  0.3785  0.6529
  187MOL0     H25199   2.710   1.215   3.020  0.4690 -0.8644 -0.6584
  187MOL0     H25200   2.746   1.043   3.051  0.7691 -1.0644  1.3446
  187MOL0     H25201   2.824   1.083   3.276  0.5815  0.9002  0.6702
  187MOL0     H25202   2.780   1.259   3.263  0.8163  0.4162 -1.1637
  187MOL0     H25203   2.987   1.130   3.075  3.4421  0.2534  1.4019
  187MOL0     H25204   3.024   1.180   3.238 -0.6775 -2.9721 -0.6017
  187MOL0     H25205   2.753   1.466   3.098 -1.3524  3.7907 -1.0925
  187MOL0     H25206   2.593   1.656   2.881 -2.0621 -0.6689  0.2511
  187MOL0     H25207   2.550   1.484   2.832  0.2421  0.0153  0.1693
  187MOL0     H25208   2.583   1.536   2.997  0.8779  0.2897 -0.2650
  187MOL0     H25209   2.999   1.532   2.344  0.9225  0.3587 -1.8911
  187MOL0     H25210   2.938   1.593   2.099 -0.1061  1.6289  0.5693
  187MOL0     H25211   2.535   1.626   1.977  3.8937 -1.3361  1.9960
  187MOL0     H25212   2.541   1.799   2.019  2.5544  1.5453  1.5518
  187MOL0     H25213   2.485   1.810   1.793 -0.1666 -1.4403  0.6172
  187MOL0     H25214   2.652   1.859   1.816  0.9926 -0.3195  3.2571
  187MOL0     H25215   2.517   1.616   1.712 -1.6966  1.4737  3.6862
  187MOL0     H25216   2.676   1.581   1.787 -1.7183 -0.1618  2.7261
  187MOL0     H25217   2.643   1.769   1.542  1.5677  1.9910 -0.2617
  187MOL0     H25218   2.780   1.746   1.652 -0.0603 -1.5928  0.0871
  187MOL0     H25219   2.634   1.536   1.483 -1.8483 -2.4395  3.3167
  187MOL0     H25220   2.752   1.475   1.590  4.4243 -1.1050 -3.8078
  187MOL0     H25221   2.839   1.481   1.369 -1.4039  1.1159 -0.5577
  187MOL0     H25222   2.842   1.659   1.382  1.8510 -0.2343 -1.1385
  187MOL0     H25223   2.979   1.429   1.535 -2.7106 -0.8182  0.1334
  187MOL0     H25224   2.958   1.570   1.626 -0.7093 -1.9436  0.0159
  187MOL0     H25225   3.064   1.716   1.444  0.0878 -0.0038 -1.7345
  187MOL0     H25226   3.118   1.550   1.375  1.1430  0.8342  0.0668
  187MOL0     H25227   2.540   1.646   2.212  0.9487 -0.7438 -0.9589
  187MOL0     H25228   2.590   1.603   2.446 -1.8928 -0.1242 -1.5450
  187MOL0     H25229   3.040   1.493   2.697  1.1908  0.4481  1.0825
  187MOL0     H25230   3.107   1.343   2.888  0.4389  1.6619  3.6673
  187MOL0     H25231   1.805   1.828   4.167  0.6778  2.1479  1.2296
  187MOL0     H25232   1.620   1.897   4.303 -0.2085  0.9786  0.7500
  187MOL0     H25233   1.359   2.205   4.460 -0.0336  5.1768 -0.8589
  187MOL0     H25234   1.199   2.254   4.633 -4.0674  0.3819  1.8939
  187MOL0     H25235   0.993   2.261   4.794  2.2590  1.2278 -0.0020
  187MOL0     H25236   1.008   2.404   4.681  1.3828 -2.5728 -2.3711
  187MOL0     H25237   0.782   2.459   4.728  0.5134 -1.2779 -5.9931
  187MOL0     H25238   0.838   2.395   4.886 -1.4854  2.0282 -0.7249
  187MOL0     H25239   0.655   2.269   4.669  2.7862 -5.2600 -1.8732
  187MOL0     H25240   0.614   2.311   4.827  2.8171  4.1631  1.1273
  187MOL0     H25241   0.819   2.089   4.751 -0.1561  0.3457  1.9971
  187MOL0     H25242   0.647   2.055   4.771 -0.6525 -1.5910  1.3578
  187MOL0     H25243   0.837   2.116   5.163  1.1282 -0.3622 -0.5419
  187MOL0     H25244   0.879   2.155   4.372  0.2869 -0.6748  1.2019
  187MOL0     H25245   1.055   2.082   4.203 -2.1034  3.3697 -0.9583
  188MOL0     O25246  10.244   7.169   1.721  0.1965  0.6141  0.2508
  188MOL0     C25247  10.255   7.042   1.719 -0.2563 -0.1873  0.0840
  188MOL0     O25248  10.283   6.962   1.619  0.0507  0.2747 -0.1133
  188MOL0     C25249  10.363   7.016   1.522 -0.0725 -0.3178 -0.2624
  188MOL0     C25250  10.310   7.089   1.416  0.6434  0.5224 -0.1394
  188MOL0     C25251  10.394   7.125   1.313 -0.4108 -1.2853 -0.3890
  188MOL0     C25252  10.533   7.078   1.307  0.6085 -0.0389 -0.6079
  188MOL0     O25253  10.609   7.078   1.194 -0.5948 -0.0787 -0.3026
  188MOL0     C25254  10.568   7.174   1.093 -0.3417  0.1862 -0.0800
  188MOL0     C25255  10.691   7.190   0.997 -0.0943 -0.6800 -0.2704
  188MOL0     C25256  10.719   7.049   0.936  0.5387  1.7856 -0.5374
  188MOL0     C25257  10.856   7.053   0.873  0.9931  0.0236 -0.4583
  188MOL0     C25258  10.878   6.917   0.806  0.1351 -1.0881  0.1245
  188MOL0     C25259  10.994   6.935   0.707 -0.3262 -0.3135  1.1061
  188MOL0     C25260  11.131   6.969   0.767 -0.0103  0.4969 -0.4264
  188MOL0     C25261  11.234   6.982   0.654 -1.0099  0.7393 -0.5941
  188MOL0     N25262  11.372   7.006   0.711  0.2946 -0.0583  1.0848
  188MOL0     C25263  11.451   6.920   0.781 -0.3829 -0.0613  1.4596
  188MOL0     C25264  11.565   6.978   0.799  0.8330 -0.3797 -0.6508
  188MOL0     C25265  11.684   6.939   0.874  0.6927  0.2242 -0.7148
  188MOL0     C25266  11.692   7.012   1.015 -0.7792 -0.1189  0.5677
  188MOL0     C25267  11.559   7.020   1.096 -0.6241  0.0443 -1.1132
  188MOL0     C25268  11.522   6.884   1.151  0.0083  0.3638 -0.9860
  188MOL0     O25269  11.524   6.869   1.289  0.6145 -0.1970 -1.1010
  188MOL0     C25270  11.433   6.773   1.333  0.5976  0.4630  1.0324
  188MOL0     C25271  11.408   6.765   1.478  0.0008  0.7306  0.1797
  188MOL0     C25272  11.322   6.678   1.538 -0.0146 -1.0779 -0.0805
  188MOL0     C25273  11.279   6.708   1.680 -0.4878  1.2777  0.2486
  188MOL0     C25274  11.267   6.583   1.458 -0.8570 -0.1752  1.1093
  188MOL0     C25275  11.172   6.491   1.510 -0.0140 -0.4606  0.2037
  188MOL0     O25276  11.058   6.503   1.447  0.6829  0.5207 -0.4892
  188MOL0     C25277  10.968   6.402   1.471  0.3236  0.4786  0.4234
  188MOL0     C25278  10.927   6.311   1.367  0.4463 -0.6258 -0.3637
  188MOL0     C25279  10.835   6.207   1.390 -0.5958  0.1896 -0.4873
  188MOL0     C25280  10.758   6.201   1.509 -0.0276  0.3335  0.0798
  188MOL0     O25281  10.661   6.104   1.519 -0.5392 -0.1330  0.0091
  188MOL0     C25282  10.569   6.105   1.632  1.3635 -0.8958 -0.4868
  188MOL0     C25283  10.614   6.028   1.757 -0.0721 -1.0955 -1.0856
  188MOL0     C25284  10.521   6.043   1.879  0.1342  0.0647 -0.1927
  188MOL0     C25285  10.493   5.917   1.968  0.3048  0.0075  0.8153
  188MOL0     C25286  10.364   5.844   1.943 -0.2600  0.2113 -0.2766
  188MOL0     C25287  10.376   5.753   1.819  1.0068 -1.4981  0.6269
  188MOL0     C25288  10.232   5.704   1.789 -0.0771  0.6156  0.1629
  188MOL0     C25289  10.202   5.687   1.635 -0.0999 -0.6043 -0.1592
  188MOL0    Cl25290  10.044   5.620   1.624  0.2057 -0.0842 -0.0666
  188MOL0     C25291  10.789   6.302   1.611 -0.8069 -0.1996 -0.9024
  188MOL0     C25292  10.889   6.397   1.590 -0.2266  0.4959 -0.2211
  188MOL0     O25293  11.190   6.418   1.606 -1.1136 -0.1394 -0.4753
  188MOL0     C25294  11.301   6.573   1.317 -0.4079 -0.0170 -0.6278
  188MOL0     C25295  11.382   6.664   1.255  0.1687  0.0282  0.7022
  188MOL0     N25296  11.551   7.105   0.732  0.0514 -1.1247  0.0194
  188MOL0     N25297  11.439   7.119   0.688 -0.3708  0.3954 -0.6221
  188MOL0     C25298  10.578   7.002   1.414 -0.8612 -0.3090 -0.2608
  188MOL0     C25299  10.497   6.981   1.526 -0.1077 -0.2731 -0.6409
  188MOL0     C25300  10.210   6.966   1.848 -0.1621 -0.3499  0.2619
  188MOL0     C25301  10.228   6.825   1.865 -0.2214  0.0299 -0.4125
  188MOL0     C25302  10.177   6.757   1.976 -0.3268  0.1222 -0.5028
  188MOL0     C25303  10.103   6.830   2.069  0.1721  0.3613  0.0108
  188MOL0     O25304  10.033   6.785   2.184  0.8226  0.6270  0.2520
  188MOL0     C25305  10.015   6.647   2.207 -0.1992 -0.1349  0.1136
  188MOL0     C25306   9.904   6.588   2.109  0.0881 -0.6351 -0.3453
  188MOL0     C25307   9.755   6.608   2.137  0.0786 -0.6984 -0.2783
  188MOL0     C25308   9.715   6.577   2.288 -0.0632 -1.1386 -0.1923
  188MOL0     C25309   9.568   6.593   2.310  0.1842 -0.1462 -0.7350
  188MOL0     C25310   9.449   6.607   2.321 -1.1355 -0.5877 -0.7006
  188MOL0     C25311  10.088   6.964   2.056 -0.8824 -0.7875 -0.2994
  188MOL0     C25312  10.148   7.035   1.946 -0.6280 -0.5651 -0.8229
  188MOL0     H25313  10.207   7.122   1.423  1.0663  1.6009  2.8832
  188MOL0     H25314  10.348   7.190   1.240 -1.6262  1.6566  2.7376
  188MOL0     H25315  10.486   7.122   1.042 -1.0311 -1.5921  2.6179
  188MOL0     H25316  10.526   7.268   1.130 -1.4414  0.0770 -0.9903
  188MOL0     H25317  10.675   7.267   0.922  0.4729  0.6686  0.9329
  188MOL0     H25318  10.777   7.230   1.052  0.0343 -0.1802 -0.8261
  188MOL0     H25319  10.714   6.981   1.022  2.9288  0.4156 -1.3991
  188MOL0     H25320  10.635   7.023   0.872 -1.8165 -0.5305  3.1399
  188MOL0     H25321  10.850   7.138   0.805  0.9122  0.6780  0.3584
  188MOL0     H25322  10.935   7.081   0.942  0.4607  3.4785 -1.0746
  188MOL0     H25323  10.892   6.843   0.886 -0.3473  1.7864  3.0840
  188MOL0     H25324  10.788   6.885   0.753 -0.5942 -2.1410  1.9033
  188MOL0     H25325  10.997   6.839   0.654 -0.3938  0.6032 -0.6316
  188MOL0     H25326  10.981   7.014   0.633 -0.6223 -0.5513  0.9002
  188MOL0     H25327  11.125   7.068   0.814 -2.7968  0.3359 -0.2427
  188MOL0     H25328  11.137   6.887   0.839 -0.2097  0.4399 -0.4723
  188MOL0     H25329  11.224   7.076   0.599  0.7213  1.8592  0.9039
  188MOL0     H25330  11.247   6.898   0.584  0.0786  1.1159 -0.8676
  188MOL0     H25331  11.422   6.823   0.822 -2.0780 -0.1468  0.1819
  188MOL0     H25332  11.683   6.832   0.900  4.1501  0.4670  0.9971
  188MOL0     H25333  11.772   6.963   0.814  0.3787 -1.0726 -1.7512
  188MOL0     H25334  11.727   7.116   1.007 -1.7359  0.1231 -0.9280
  188MOL0     H25335  11.778   6.971   1.069  0.2911  0.3867 -0.6779
  188MOL0     H25336  11.475   7.053   1.034 -2.5706  3.7338  2.9193
  188MOL0     H25337  11.560   7.087   1.183 -1.2919 -0.7121 -0.4915
  188MOL0     H25338  11.575   6.799   1.108 -0.0864 -1.4966  2.2298
  188MOL0     H25339  11.417   6.881   1.121 -0.5760  0.9139  0.8734
  188MOL0     H25340  11.453   6.846   1.535 -2.7244  0.7756  2.4494
  188MOL0     H25341  11.333   6.791   1.726 -1.0057  1.2450  0.9253
  188MOL0     H25342  11.171   6.723   1.684 -0.9063 -1.2476  0.4476
  188MOL0     H25343  11.302   6.616   1.735 -1.0302  1.0070  0.0283
  188MOL0     H25344  10.957   6.336   1.266  0.1360 -3.8045 -1.3531
  188MOL0     H25345  10.797   6.162   1.299 -2.1253  0.4556 -0.0118
  188MOL0     H25346  10.538   6.205   1.663  1.0828 -1.1087 -0.0736
  188MOL0     H25347  10.478   6.068   1.583  0.5841  3.3883 -2.7745
  188MOL0     H25348  10.623   5.924   1.727 -1.6189 -1.2555 -1.0860
  188MOL0     H25349  10.711   6.068   1.789 -0.0679  0.8048 -3.2153
  188MOL0     H25350  10.427   6.082   1.841  0.2059 -0.3090 -0.7674
  188MOL0     H25351  10.556   6.116   1.953  1.0338 -4.0376  3.8995
  188MOL0     H25352  10.575   5.850   1.944 -1.2397 -2.2578  1.5637
  188MOL0     H25353  10.492   5.939   2.075 -1.9884  3.4023  0.2910
  188MOL0     H25354  10.282   5.914   1.924 -0.0341  0.4208 -0.4886
  188MOL0     H25355  10.332   5.783   2.028 -2.4713 -1.9741 -2.5161
  188MOL0     H25356  10.407   5.805   1.728  1.8306  2.1055  2.7938
  188MOL0     H25357  10.445   5.669   1.827  3.3469  0.2736  0.0020
  188MOL0     H25358  10.164   5.783   1.820 -0.9037  0.8601 -2.0878
  188MOL0     H25359  10.208   5.614   1.847 -3.1768  0.2150 -1.5475
  188MOL0     H25360  10.265   5.623   1.573  0.2821  3.3078 -4.3501
  188MOL0     H25361  10.208   5.786   1.587  0.6380 -0.6751 -0.2254
  188MOL0     H25362  10.738   6.310   1.707 -2.9585 -0.5895 -1.9507
  188MOL0     H25363  10.891   6.468   1.672 -0.0423  0.2099  0.0208
  188MOL0     H25364  11.258   6.489   1.263 -0.6733  1.1675 -2.3452
  188MOL0     H25365  11.421   6.651   1.154  2.1817  0.9778  1.3128
  188MOL0     H25366  10.678   6.961   1.413 -1.3136 -1.4409 -1.3738
  188MOL0     H25367  10.535   6.921   1.608 -0.8647 -1.2242 -0.9624
  188MOL0     H25368  10.266   6.764   1.783  1.1423 -0.7401  0.7373
  188MOL0     H25369  10.184   6.649   1.988  0.6177  0.2563  0.3193
  188MOL0     H25370  10.111   6.600   2.181  0.0579  0.6219 -0.3405
  188MOL0     H25371   9.990   6.618   2.309  1.6877  0.4127  0.7840
  188MOL0     H25372   9.926   6.482   2.124 -2.8085 -0.8098  5.9647
  188MOL0     H25373   9.920   6.629   2.009 -1.4007  0.3535 -0.2217
  188MOL0     H25374   9.691   6.559   2.062 -0.6836  0.5060 -0.4372
  188MOL0     H25375   9.744   6.716   2.135 -2.2968 -0.8727  0.0787
  188MOL0     H25376   9.760   6.653   2.353  0.3367  0.5678 -2.3673
  188MOL0     H25377   9.744   6.478   2.324  0.8532  0.3573  3.7554
  188MOL0     H25378   9.347   6.627   2.348 -1.5467 -0.9739 -1.9284
  188MOL0     H25379  10.030   7.022   2.127 -1.2198  1.7689 -2.4880
  188MOL0     H25380  10.143   7.143   1.941  2.0825 -0.3324 -0.0156
  189MOL0     O25381   7.688   4.075   1.366  0.6628 -0.8430 -0.2360
  189MOL0     C25382   7.694   4.187   1.334 -0.7596 -0.3753 -0.1612
  189MOL0     O25383   7.815   4.265   1.323 -0.5406 -0.0919 -0.1820
  189MOL0     C25384   7.941   4.214   1.334 -0.6948  0.7269 -0.5841
  189MOL0     C25385   7.982   4.130   1.443  0.3457  0.1915 -0.2828
  189MOL0     C25386   8.113   4.079   1.455  0.7051  0.4014  0.0543
  189MOL0     C25387   8.206   4.120   1.355 -0.1193  0.4128 -0.7122
  189MOL0     O25388   8.339   4.067   1.354  0.6261 -0.1816 -0.1165
  189MOL0     C25389   8.370   4.024   1.222 -0.2386  0.5049  0.1622
  189MOL0     C25390   8.467   3.898   1.241  0.3122  0.6387 -0.0581
  189MOL0     C25391   8.603   3.918   1.323  0.7245 -0.2817  0.2532
  189MOL0     C25392   8.707   3.989   1.236  0.1547 -0.8354 -0.4197
  189MOL0     C25393   8.832   4.009   1.319 -0.4443 -0.9858 -0.1870
  189MOL0     C25394   8.956   4.019   1.228 -0.2724  0.1417  0.8732
  189MOL0     C25395   8.977   4.165   1.177  0.8398  0.0435  0.3482
  189MOL0     C25396   9.107   4.190   1.104  0.1806  0.6262 -0.4199
  189MOL0     N25397   9.134   4.331   1.088 -0.8127 -0.5922 -0.6705
  189MOL0     C25398   9.199   4.420   1.170  0.2663 -0.7407  1.1401
  189MOL0     C25399   9.217   4.532   1.085  0.3492 -0.4122  0.6105
  189MOL0     C25400   9.284   4.669   1.112  0.7586  0.2684  0.1310
  189MOL0     C25401   9.409   4.700   1.030 -0.6680 -0.3275  0.0112
  189MOL0     C25402   9.446   4.844   1.049 -0.4844  0.0574 -0.6331
  189MOL0     C25403   9.553   4.900   0.954 -0.1323  0.7976  0.3129
  189MOL0     O25404   9.677   4.829   0.952 -0.0162 -0.7444  0.5871
  189MOL0     C25405   9.730   4.781   0.831 -0.6935 -0.8450  0.5608
  189MOL0     C25406   9.664   4.747   0.710 -0.0848  0.1639 -0.8827
  189MOL0     C25407   9.736   4.724   0.591 -0.0570  0.2287  0.3158
  189MOL0     C25408   9.659   4.687   0.468 -1.4528  0.5509  0.0128
  189MOL0     C25409   9.879   4.722   0.599  0.0654 -0.1750 -0.2120
  189MOL0     C25410   9.964   4.707   0.481  0.5472 -0.1425  0.1246
  189MOL0     O25411   9.931   4.775   0.374  0.3390 -0.1575  0.0531
  189MOL0     C25412  10.021   4.780   0.270  0.1521 -0.2422  0.1952
  189MOL0     C25413  10.135   4.860   0.281  0.1055  0.0461  0.7157
  189MOL0     C25414  10.220   4.872   0.177 -0.7640  0.4280  0.4821
  189MOL0     C25415  10.195   4.800   0.054  0.6006  0.6266  0.6229
  189MOL0     O25416  10.267   4.797  -0.061 -0.6954 -0.2126 -0.0547
  189MOL0     C25417  10.359   4.909  -0.076  0.0950  0.8351 -0.1830
  189MOL0     C25418  10.443   4.911  -0.210 -0.0177 -0.4676  0.2511
  189MOL0     C25419  10.558   4.816  -0.205 -0.5436  0.1333  0.3106
  189MOL0     C25420  10.648   4.823  -0.337  1.1086  0.4401 -0.7312
  189MOL0     C25421  10.571   4.760  -0.450  0.2693 -0.1010  0.3266
  189MOL0     C25422  10.656   4.775  -0.575  0.1993 -0.0406  1.1752
  189MOL0     C25423  10.599   4.685  -0.693 -0.2222 -0.6124 -0.5994
  189MOL0     C25424  10.608   4.749  -0.831  0.5384  0.4285  0.6651
  189MOL0    Cl25425  10.533   4.636  -0.958 -0.4741 -0.5037  0.4324
  189MOL0     C25426  10.080   4.722   0.046 -0.1513 -1.1422 -0.5823
  189MOL0     C25427   9.993   4.721   0.149  0.4426  0.2843 -0.5869
  189MOL0     O25428  10.067   4.637   0.491  0.9075  0.2100 -0.2753
  189MOL0     C25429   9.947   4.746   0.717  0.6081  0.0452 -0.0318
  189MOL0     C25430   9.879   4.776   0.828 -0.3058  0.9448 -0.0055
  189MOL0     N25431   9.178   4.512   0.955  0.0958 -0.7944 -1.4697
  189MOL0     N25432   9.132   4.388   0.966 -0.4423  0.8676  0.5790
  189MOL0     C25433   8.166   4.204   1.254  1.1962 -0.3006 -0.1979
  189MOL0     C25434   8.035   4.238   1.237  0.4843 -0.2710  0.6468
  189MOL0     C25435   7.570   4.256   1.298  0.0805 -0.6191  0.1012
  189MOL0     C25436   7.450   4.224   1.367 -0.2922  0.1516  0.3929
  189MOL0     C25437   7.334   4.300   1.343  0.3921 -0.1026  0.2416
  189MOL0     C25438   7.342   4.403   1.247  0.1564 -1.4173 -0.1565
  189MOL0     O25439   7.235   4.479   1.225  0.3260  0.8701  0.0858
  189MOL0     C25440   7.263   4.618   1.231 -0.4241 -0.3629  0.1551
  189MOL0     C25441   7.318   4.671   1.365 -0.7753  0.0665  0.0436
  189MOL0     C25442   7.222   4.652   1.490  0.2661  0.9954  0.3640
  189MOL0     C25443   7.089   4.729   1.489  0.4214  0.2198 -1.0499
  189MOL0     C25444   7.007   4.705   1.611 -1.4577 -0.2226 -0.4650
  189MOL0     C25445   6.928   4.691   1.698  0.4942 -0.6554 -0.1325
  189MOL0     C25446   7.464   4.428   1.174  0.4727  0.1452 -0.4479
  189MOL0     C25447   7.573   4.346   1.190  0.2915 -0.5864 -0.9066
  189MOL0     H25448   7.914   4.096   1.521 -0.6005 -0.7598 -1.4867
  189MOL0     H25449   8.138   4.005   1.530  0.2658 -0.5528 -0.7203
  189MOL0     H25450   8.280   3.992   1.169 -0.2852 -0.8130  0.9730
  189MOL0     H25451   8.421   4.092   1.154  1.7568 -2.3836 -1.4771
  189MOL0     H25452   8.409   3.815   1.282  2.0602 -1.4767 -1.6874
  189MOL0     H25453   8.495   3.859   1.143 -0.4239  0.8623 -0.3696
  189MOL0     H25454   8.583   3.982   1.410  1.4115  1.0301 -0.5243
  189MOL0     H25455   8.647   3.824   1.359 -0.8442 -0.4026  2.0123
  189MOL0     H25456   8.717   3.928   1.146 -0.3952  0.5939 -1.4950
  189MOL0     H25457   8.673   4.091   1.216 -1.2049 -1.6734 -2.8323
  189MOL0     H25458   8.819   4.088   1.394  4.3334  0.4228 -0.5099
  189MOL0     H25459   8.857   3.919   1.377  1.4762  0.0213  0.6403
  189MOL0     H25460   9.042   3.991   1.291  0.9615  2.0402  0.0965
  189MOL0     H25461   8.949   3.950   1.144  1.4681  2.2400 -1.1152
  189MOL0     H25462   8.882   4.194   1.130  1.5015 -0.3348 -1.2783
  189MOL0     H25463   8.991   4.224   1.269  0.9651 -1.9084  1.6296
  189MOL0     H25464   9.095   4.146   1.004 -0.0694  2.2313 -1.1388
  189MOL0     H25465   9.187   4.138   1.157  0.3049 -0.3389 -1.5010
  189MOL0     H25466   9.237   4.394   1.269  1.4307 -1.5250  0.5263
  189MOL0     H25467   9.202   4.740   1.092  0.9779  0.3103 -0.6496
  189MOL0     H25468   9.318   4.681   1.216  0.2010 -0.3187  0.3875
  189MOL0     H25469   9.377   4.695   0.926  1.3631 -1.7851 -0.6011
  189MOL0     H25470   9.494   4.634   1.050 -1.6170 -2.4229 -2.2789
  189MOL0     H25471   9.486   4.864   1.149  0.5705  0.4724 -1.1235
  189MOL0     H25472   9.353   4.898   1.028 -1.8719 -2.4610 -1.3566
  189MOL0     H25473   9.574   5.005   0.975 -0.8645  0.6673  1.8234
  189MOL0     H25474   9.507   4.902   0.855 -0.0621  0.1391  0.2600
  189MOL0     H25475   9.555   4.747   0.710 -0.2136  1.4588  2.7280
  189MOL0     H25476   9.693   4.735   0.375 -0.9806 -2.7027 -1.6305
  189MOL0     H25477   9.680   4.581   0.450 -2.6829  0.8696 -4.3650
  189MOL0     H25478   9.554   4.702   0.494 -1.7192 -2.2816  0.8840
  189MOL0     H25479  10.161   4.901   0.378 -1.9699 -0.9035  1.7075
  189MOL0     H25480  10.310   4.928   0.201  0.7424 -1.3952 -0.5512
  189MOL0     H25481  10.306   5.003  -0.058 -2.6085 -0.3324 -1.5259
  189MOL0     H25482  10.430   4.891   0.005  2.7466  1.3089 -2.2571
  189MOL0     H25483  10.378   4.899  -0.297  2.5295 -1.4032 -1.6643
  189MOL0     H25484  10.482   5.013  -0.212 -1.6446  0.1847 -0.1777
  189MOL0     H25485  10.521   4.714  -0.186 -1.5566 -0.3408 -3.4045
  189MOL0     H25486  10.626   4.854  -0.129  0.6196 -0.1885 -0.5229
  189MOL0     H25487  10.656   4.930  -0.359 -0.8257  0.9810  0.8746
  189MOL0     H25488  10.741   4.775  -0.308 -0.2381 -2.2553 -0.5159
  189MOL0     H25489  10.474   4.809  -0.467  0.0058 -0.6551  0.2104
  189MOL0     H25490  10.549   4.656  -0.424 -0.9599  0.3321  1.0883
  189MOL0     H25491  10.675   4.879  -0.603 -0.4288  0.6625  3.2128
  189MOL0     H25492  10.756   4.741  -0.547  0.1499 -0.9602  0.2967
  189MOL0     H25493  10.502   4.636  -0.690 -1.2994  1.3952 -0.8985
  189MOL0     H25494  10.667   4.600  -0.682  1.2555  0.7837  2.5408
  189MOL0     H25495  10.711   4.775  -0.856  1.4755 -0.3843  3.4120
  189MOL0     H25496  10.552   4.842  -0.845  1.3555  0.5055 -3.7484
  189MOL0     H25497  10.049   4.669  -0.044  0.2038  0.5088 -1.7082
  189MOL0     H25498   9.899   4.669   0.133  0.5414 -0.2189  0.3842
  189MOL0     H25499  10.054   4.728   0.726  0.7448 -0.1543 -1.7745
  189MOL0     H25500   9.936   4.774   0.920 -0.0950  3.4441 -0.0084
  189MOL0     H25501   8.240   4.234   1.180  1.9118  1.9285  1.3077
  189MOL0     H25502   8.010   4.289   1.145 -0.7011 -0.5775  0.7821
  189MOL0     H25503   7.439   4.150   1.445  2.8543  1.2084  1.9979
  189MOL0     H25504   7.255   4.262   1.407  1.5046 -1.0999  1.0647
  189MOL0     H25505   7.317   4.653   1.142 -0.8629 -3.5061 -1.4966
  189MOL0     H25506   7.163   4.662   1.226 -0.3052  0.2017  2.0295
  189MOL0     H25507   7.331   4.778   1.348 -0.9236  0.5728  2.6649
  189MOL0     H25508   7.411   4.616   1.382 -0.2080  0.8113 -0.5988
  189MOL0     H25509   7.274   4.690   1.578 -3.2201  2.1448  2.1131
  189MOL0     H25510   7.202   4.545   1.499 -2.8098  1.6664  3.4741
  189MOL0     H25511   7.023   4.704   1.405 -1.4525 -3.4648  1.2288
  189MOL0     H25512   7.117   4.834   1.480 -1.4993  0.7523 -1.2513
  189MOL0     H25513   6.864   4.693   1.783  1.7292  2.5500  0.8565
  189MOL0     H25514   7.470   4.514   1.108 -0.8181  1.0368  0.5287
  189MOL0     H25515   7.665   4.349   1.131  2.1533 -1.7441  1.7425
  190MOL0     O25516  10.155   7.302   1.068  0.3108  0.0677  1.0279
  190MOL0     C25517  10.142   7.256   0.955 -0.2729  0.1546 -0.4569
  190MOL0     O25518  10.193   7.315   0.845 -0.6416 -0.1392  0.1888
  190MOL0     C25519  10.273   7.428   0.834 -0.2953 -1.0016  0.6787
  190MOL0     C25520  10.275   7.489   0.706 -0.1572  0.9832  0.0878
  190MOL0     C25521  10.344   7.603   0.681  0.0254 -0.5172 -0.1253
  190MOL0     C25522  10.411   7.664   0.785  0.4292  0.1466  0.7148
  190MOL0     O25523  10.471   7.789   0.747 -0.0470 -0.0690 -0.1802
  190MOL0     C25524  10.603   7.782   0.787 -0.4492 -0.3608 -0.5774
  190MOL0     C25525  10.697   7.878   0.690 -0.0037  0.2255 -0.1867
  190MOL0     C25526  10.687   7.823   0.550  0.0787  0.2792  0.6346
  190MOL0     C25527  10.801   7.862   0.461 -0.1594 -0.7448  0.0103
  190MOL0     C25528  10.827   8.015   0.454  0.4072  0.4010  0.4481
  190MOL0     C25529  10.936   8.055   0.356  0.0549  0.3715 -0.4717
  190MOL0     C25530  10.982   8.195   0.387  0.6527 -0.2536  0.1131
  190MOL0     C25531  11.123   8.216   0.324  0.6757  0.1167 -0.3610
  190MOL0     N25532  11.111   8.211   0.174  0.4636 -0.5981 -0.0767
  190MOL0     C25533  11.089   8.329   0.095 -0.8731 -0.6447 -0.9823
  190MOL0     C25534  11.103   8.276  -0.027 -0.7504 -0.1531 -0.7819
  190MOL0     C25535  11.086   8.354  -0.150  0.8634  0.1593 -0.5250
  190MOL0     C25536  11.187   8.459  -0.183 -0.8524 -1.1206 -0.4488
  190MOL0     C25537  11.329   8.397  -0.201  0.0430  0.5186  0.2698
  190MOL0     C25538  11.368   8.394  -0.347  0.0077  0.3684 -0.4293
  190MOL0     O25539  11.274   8.328  -0.433  0.0344 -1.4246  0.4830
  190MOL0     C25540  11.301   8.350  -0.564  0.3873 -0.5340 -0.3843
  190MOL0     C25541  11.191   8.358  -0.647 -0.1589 -0.2146  0.1399
  190MOL0     C25542  11.202   8.370  -0.786 -0.8179  0.1004  0.2323
  190MOL0     C25543  11.071   8.396  -0.871 -1.4399 -0.2391  0.0987
  190MOL0     C25544  11.329   8.381  -0.850 -0.4957 -0.0492  0.1143
  190MOL0     C25545  11.373   8.399  -0.990  0.6494 -0.0186 -0.2959
  190MOL0     O25546  11.504   8.405  -1.015  0.3421  0.3973  0.1348
  190MOL0     C25547  11.542   8.433  -1.150 -0.1166 -1.6215 -0.7346
  190MOL0     C25548  11.493   8.540  -1.217  1.1981  0.0443  0.8132
  190MOL0     C25549  11.541   8.568  -1.351 -0.4745  0.5003  0.0598
  190MOL0     C25550  11.636   8.484  -1.412 -0.4567 -1.1344  0.5821
  190MOL0     O25551  11.688   8.507  -1.535  0.2036  0.2551  0.4896
  190MOL0     C25552  11.668   8.639  -1.603  0.4101 -0.1396  0.0729
  190MOL0     C25553  11.694   8.614  -1.751 -0.1559 -0.2529 -0.3564
  190MOL0     C25554  11.673   8.727  -1.853 -0.2452  0.3368 -0.3091
  190MOL0     C25555  11.689   8.654  -1.991 -0.8649  0.0786 -0.9200
  190MOL0     C25556  11.691   8.745  -2.111  1.1475 -0.6862  0.1854
  190MOL0     C25557  11.768   8.675  -2.226 -0.1891  0.2630  1.1181
  190MOL0     C25558  11.690   8.561  -2.274 -0.4141 -0.0601 -1.1276
  190MOL0     C25559  11.778   8.474  -2.356 -0.1221 -0.5077  0.3680
  190MOL0    Cl25560  11.700   8.319  -2.323  0.2452  0.0639  0.0582
  190MOL0     C25561  11.687   8.374  -1.343  0.9703  0.1107 -0.4677
  190MOL0     C25562  11.632   8.347  -1.213  0.9884 -0.0203  0.1024
  190MOL0     O25563  11.284   8.404  -1.070 -0.1958 -0.2213 -0.2718
  190MOL0     C25564  11.442   8.375  -0.756 -0.2466 -0.3799 -0.0624
  190MOL0     C25565  11.426   8.365  -0.619  0.8554 -0.4924  0.1444
  190MOL0     N25566  11.139   8.146  -0.027 -0.0285  0.1684 -0.2219
  190MOL0     N25567  11.148   8.111   0.098 -0.0447 -0.5334 -0.6392
  190MOL0     C25568  10.408   7.612   0.905 -0.0535  0.1074 -0.8792
  190MOL0     C25569  10.359   7.483   0.933  0.4662 -0.3399  0.2869
  190MOL0     C25570  10.081   7.128   0.931 -0.3928  0.8275 -0.6004
  190MOL0     C25571  10.050   7.029   1.025  0.4302 -0.3610  0.5724
  190MOL0     C25572   9.974   6.916   0.987  0.0017 -0.0393  0.1320
  190MOL0     C25573   9.932   6.899   0.854 -0.4964  0.4921 -0.0144
  190MOL0     O25574   9.851   6.788   0.806 -0.0772 -0.1916 -0.2475
  190MOL0     C25575   9.720   6.775   0.870 -0.2376 -0.8194  0.8445
  190MOL0     C25576   9.630   6.878   0.790  0.0768 -0.2353 -0.2034
  190MOL0     C25577   9.480   6.855   0.811 -0.6781 -0.7946  0.3037
  190MOL0     C25578   9.391   6.988   0.828 -0.1954 -0.4484 -0.0029
  190MOL0     C25579   9.431   7.045   0.957  0.8677 -0.3746 -0.1638
  190MOL0     C25580   9.461   7.104   1.066 -0.1940 -0.2989 -0.5603
  190MOL0     C25581   9.979   6.989   0.760  0.2316  0.8126  0.1480
  190MOL0     C25582  10.045   7.100   0.798 -0.9559  0.2466 -0.9369
  190MOL0     H25583  10.226   7.433   0.627 -3.3313  2.0642  1.1206
  190MOL0     H25584  10.354   7.635   0.578 -2.4054  0.2094 -0.1975
  190MOL0     H25585  10.615   7.823   0.888  3.2755  0.4521 -1.1979
  190MOL0     H25586  10.657   7.688   0.797  0.2295 -0.0262 -1.0305
  190MOL0     H25587  10.653   7.978   0.696  3.7835  2.0495 -0.2081
  190MOL0     H25588  10.798   7.885   0.730 -1.0640  1.3016  2.5113
  190MOL0     H25589  10.684   7.714   0.558 -0.4447  0.3500  1.6650
  190MOL0     H25590  10.592   7.852   0.503  0.6507  0.1217 -0.6606
  190MOL0     H25591  10.898   7.822   0.492  1.4510  2.8886  0.0722
  190MOL0     H25592  10.770   7.824   0.363  0.6341 -1.5246  0.0404
  190MOL0     H25593  10.733   8.068   0.436 -1.1799 -2.2828  0.3091
  190MOL0     H25594  10.873   8.048   0.548  1.6569 -0.3720  0.1389
  190MOL0     H25595  11.022   7.990   0.373 -0.8506 -1.4353 -2.3213
  190MOL0     H25596  10.909   8.026   0.253  0.6454 -0.1233 -0.4917
  190MOL0     H25597  10.910   8.273   0.360  1.4269  0.7847  0.9317
  190MOL0     H25598  10.998   8.209   0.494 -2.6423  0.0871  0.6586
  190MOL0     H25599  11.194   8.137   0.350  0.6332  0.8096  2.1101
  190MOL0     H25600  11.161   8.313   0.354 -0.7342  1.2016 -1.9009
  190MOL0     H25601  11.067   8.433   0.116  2.9860  0.0175  0.6513
  190MOL0     H25602  11.075   8.290  -0.238 -2.1112  2.4320 -2.0105
  190MOL0     H25603  10.992   8.410  -0.150  0.6927 -0.1298 -0.7668
  190MOL0     H25604  11.185   8.516  -0.089  1.4858 -4.7121  2.0535
  190MOL0     H25605  11.155   8.527  -0.262  0.6021 -1.9601 -1.8151
  190MOL0     H25606  11.342   8.293  -0.167  0.3122  0.2388 -0.6672
  190MOL0     H25607  11.394   8.460  -0.140  1.8330 -0.5281 -0.4857
  190MOL0     H25608  11.469   8.354  -0.360 -0.5107 -0.4462 -2.2691
  190MOL0     H25609  11.378   8.499  -0.376  1.9927 -0.2775 -2.3123
  190MOL0     H25610  11.098   8.344  -0.593  0.7245  1.8152  2.3817
  190MOL0     H25611  11.077   8.492  -0.924 -1.3452 -0.5773 -0.5109
  190MOL0     H25612  11.054   8.314  -0.942 -2.3575 -0.0075  0.0383
  190MOL0     H25613  10.980   8.391  -0.811 -1.2069 -3.4929  0.3387
  190MOL0     H25614  11.419   8.603  -1.168  0.3969  0.1010 -0.4011
  190MOL0     H25615  11.505   8.661  -1.393 -2.1687  1.0568  2.4934
  190MOL0     H25616  11.564   8.671  -1.607  0.2480 -0.6611  0.0893
  190MOL0     H25617  11.728   8.726  -1.574 -1.8494  1.2159  0.9314
  190MOL0     H25618  11.799   8.584  -1.755  0.1010  0.1733  1.9120
  190MOL0     H25619  11.624   8.532  -1.769 -0.4589  0.4156 -2.5232
  190MOL0     H25620  11.749   8.804  -1.841  0.3329 -0.0858 -1.2150
  190MOL0     H25621  11.573   8.771  -1.845  1.0020  3.7663 -1.8785
  190MOL0     H25622  11.780   8.594  -1.997 -2.0271 -1.6943 -1.6968
  190MOL0     H25623  11.618   8.570  -1.992 -0.2217 -0.4753 -2.5184
  190MOL0     H25624  11.739   8.842  -2.093  0.5259 -0.4260  0.4684
  190MOL0     H25625  11.587   8.766  -2.137  1.1513 -1.3195 -0.3623
  190MOL0     H25626  11.782   8.749  -2.305 -0.7602 -0.5841  0.2078
  190MOL0     H25627  11.861   8.630  -2.192  0.0659  0.1193  0.2492
  190MOL0     H25628  11.599   8.581  -2.333 -3.4763 -2.3780  2.3586
  190MOL0     H25629  11.667   8.515  -2.178 -2.2397  1.9380 -0.5269
  190MOL0     H25630  11.878   8.453  -2.316 -1.0234  2.5108  5.0904
  190MOL0     H25631  11.783   8.514  -2.457 -1.6086 -0.2879  0.3615
  190MOL0     H25632  11.755   8.306  -1.392  1.1184 -0.3070  0.2959
  190MOL0     H25633  11.669   8.253  -1.173  0.6566  0.7222  2.3048
  190MOL0     H25634  11.543   8.373  -0.796 -1.1446  3.3784 -3.1816
  190MOL0     H25635  11.516   8.345  -0.563  1.2433  1.3336  0.2213
  190MOL0     H25636  10.462   7.663   0.985  0.3327 -0.7783 -0.5657
  190MOL0     H25637  10.372   7.442   1.033  1.4737 -0.8170 -0.0324
  190MOL0     H25638  10.077   7.054   1.127  0.7985 -0.1275  0.4226
  190MOL0     H25639   9.941   6.836   1.052  1.0726 -0.3580  0.2992
  190MOL0     H25640   9.682   6.673   0.856 -1.6040 -0.9021  4.2570
  190MOL0     H25641   9.734   6.798   0.976  0.6679  1.8269  0.2418
  190MOL0     H25642   9.647   6.854   0.684 -0.3266 -0.3612 -0.2448
  190MOL0     H25643   9.662   6.978   0.819  2.3982 -1.3154  1.1651
  190MOL0     H25644   9.462   6.788   0.896 -1.0828  0.3954  1.1839
  190MOL0     H25645   9.440   6.802   0.724  2.8708 -1.2304 -1.2410
  190MOL0     H25646   9.284   6.964   0.827 -0.7121  1.6058 -1.0953
  190MOL0     H25647   9.399   7.062   0.747 -1.5262  1.5481  1.5722
  190MOL0     H25648   9.489   7.167   1.148 -0.9397 -1.7561  0.8511
  190MOL0     H25649   9.947   6.988   0.657  1.1033  3.0332 -0.2137
  190MOL0     H25650  10.073   7.170   0.720 -0.5036 -0.7426 -1.6838
  191MOL0     O25651   7.594   3.635   3.563  0.2671  0.0574  0.4850
  191MOL0     C25652   7.472   3.624   3.524  0.1478 -0.1107  0.7229
  191MOL0     O25653   7.400   3.507   3.504 -0.0620 -0.3930  0.3131
  191MOL0     C25654   7.465   3.397   3.488 -0.0849 -0.2402  0.0660
  191MOL0     C25655   7.553   3.366   3.383 -0.1461 -0.8248  0.5922
  191MOL0     C25656   7.626   3.245   3.386  0.1885  0.0136 -0.2849
  191MOL0     C25657   7.604   3.159   3.495 -1.0006  1.2963 -0.0125
  191MOL0     O25658   7.667   3.038   3.493  0.1441  0.2525  0.5071
  191MOL0     C25659   7.662   2.952   3.598 -0.4309 -0.5998 -0.4198
  191MOL0     C25660   7.744   2.819   3.577  0.4246 -0.9857  0.3645
  191MOL0     C25661   7.740   2.714   3.690 -1.1050  0.6108  0.5079
  191MOL0     C25662   7.882   2.643   3.714 -0.2244 -0.2103  0.0283
  191MOL0     C25663   7.883   2.572   3.850  0.2261  0.7673  0.6512
  191MOL0     C25664   7.799   2.445   3.849 -1.2773  0.0082 -0.9943
  191MOL0     C25665   7.869   2.334   3.774  0.7249  0.2616  0.2697
  191MOL0     C25666   7.804   2.191   3.799  0.4162  0.0283  0.5778
  191MOL0     N25667   7.833   2.146   3.930  0.0627 -0.2680  0.3740
  191MOL0     C25668   7.963   2.116   3.976  0.1746  0.4660 -0.8213
  191MOL0     C25669   7.948   2.097   4.109  0.9975 -1.0779 -0.3474
  191MOL0     C25670   8.064   2.079   4.208  0.7152  0.0467 -0.4109
  191MOL0     C25671   8.173   1.983   4.151  0.0218  0.0799  0.0397
  191MOL0     C25672   8.107   1.846   4.132 -0.3030 -0.6469 -0.6182
  191MOL0     C25673   8.201   1.757   4.055 -0.7474  0.0253  0.0194
  191MOL0     O25674   8.319   1.743   4.123  0.2304  0.1037 -0.4625
  191MOL0     C25675   8.442   1.722   4.063 -0.5088  0.8341  0.0324
  191MOL0     C25676   8.553   1.791   4.119  0.9431 -0.4104 -0.6825
  191MOL0     C25677   8.679   1.792   4.050  0.2657 -0.8837  0.6173
  191MOL0     C25678   8.796   1.861   4.123 -0.2439  0.7546 -0.8044
  191MOL0     C25679   8.701   1.711   3.934  0.1598  0.8831 -0.1780
  191MOL0     C25680   8.820   1.703   3.857  0.1903  0.4101 -0.0251
  191MOL0     O25681   8.840   1.594   3.777 -0.3421  0.3609  1.1668
  191MOL0     C25682   8.962   1.571   3.728  0.6653  0.2442 -0.7075
  191MOL0     C25683   9.077   1.554   3.795  0.4416  0.2952  0.4807
  191MOL0     C25684   9.195   1.522   3.724 -0.2122  0.6531 -1.2859
  191MOL0     C25685   9.200   1.490   3.595 -0.1135  1.0945  0.8589
  191MOL0     O25686   9.315   1.468   3.529 -0.6080 -0.1302  0.5135
  191MOL0     C25687   9.444   1.461   3.597  0.1468  0.0118 -0.2859
  191MOL0     C25688   9.549   1.443   3.491 -0.4393  0.0213  0.0169
  191MOL0     C25689   9.685   1.439   3.554 -0.3372  0.0927  0.4075
  191MOL0     C25690   9.796   1.427   3.443  0.5090 -0.1826  1.3005
  191MOL0     C25691   9.934   1.454   3.488  0.2171 -0.9592  1.4451
  191MOL0     C25692   9.993   1.344   3.570 -0.2912  0.0115  0.3313
  191MOL0     C25693   9.987   1.204   3.507  0.2108  0.4246 -1.2087
  191MOL0     C25694  10.057   1.082   3.573  0.5131  0.7699 -0.2941
  191MOL0    Cl25695   9.984   1.052   3.731  0.1276  0.6123  0.3614
  191MOL0     C25696   9.082   1.521   3.523  0.2357 -0.0951 -0.8805
  191MOL0     C25697   8.961   1.568   3.591  0.0738 -1.0503  0.6964
  191MOL0     O25698   8.901   1.796   3.870 -0.1534  0.4111  0.7264
  191MOL0     C25699   8.595   1.631   3.900  0.1617  1.0001 -0.4010
  191MOL0     C25700   8.470   1.630   3.960 -0.3474 -0.4411  0.3567
  191MOL0     N25701   7.814   2.133   4.147 -1.2476 -0.1927  0.2082
  191MOL0     N25702   7.749   2.150   4.034 -0.5932 -0.2860 -0.1262
  191MOL0     C25703   7.521   3.191   3.595 -0.6007 -0.4955  0.2440
  191MOL0     C25704   7.443   3.306   3.585 -0.5975 -0.8333  0.3790
  191MOL0     C25705   7.396   3.742   3.506 -0.2685 -0.3980 -0.7369
  191MOL0     C25706   7.418   3.861   3.583 -0.3257  0.5572  0.3908
  191MOL0     C25707   7.355   3.977   3.546  0.1621 -1.0815  0.4226
  191MOL0     C25708   7.255   3.985   3.453  0.9822 -0.1544  0.2739
  191MOL0     O25709   7.211   4.105   3.402  0.5062 -0.0395  0.0140
  191MOL0     C25710   7.138   4.193   3.495  0.9950  0.4655 -0.8063
  191MOL0     C25711   7.164   4.340   3.471 -0.0408 -0.2238  0.7238
  191MOL0     C25712   7.154   4.422   3.596 -0.0327 -0.0452  0.7679
  191MOL0     C25713   7.165   4.573   3.564  0.3677 -1.3355 -0.0344
  191MOL0     C25714   7.166   4.646   3.693  0.0923  0.8913 -0.1888
  191MOL0     C25715   7.150   4.708   3.795  0.2814  0.9943 -1.6807
  191MOL0     C25716   7.228   3.866   3.377 -0.0988 -0.5654  0.2555
  191MOL0     C25717   7.302   3.750   3.400 -0.8180 -0.1109  0.0839
  191MOL0     H25718   7.564   3.423   3.291  0.0906 -1.4807  0.2118
  191MOL0     H25719   7.689   3.209   3.305  0.5670 -1.7412  0.7393
  191MOL0     H25720   7.709   2.999   3.686  0.3231  2.5209 -2.3440
  191MOL0     H25721   7.562   2.928   3.633 -0.4215  1.7506  1.5235
  191MOL0     H25722   7.699   2.759   3.498 -2.0475  0.6690  0.4074
  191MOL0     H25723   7.845   2.845   3.546 -0.2394  1.2651 -0.0585
  191MOL0     H25724   7.707   2.764   3.781 -1.5821 -0.5687  1.0045
  191MOL0     H25725   7.671   2.634   3.662  1.4355 -2.2908  1.9406
  191MOL0     H25726   7.899   2.570   3.634 -2.6053 -1.9661  1.0070
  191MOL0     H25727   7.962   2.716   3.701 -0.0927 -0.0317  1.6911
  191MOL0     H25728   7.988   2.542   3.859 -0.0228  0.5086  4.9097
  191MOL0     H25729   7.868   2.628   3.942 -0.1548 -0.9886  1.7083
  191MOL0     H25730   7.787   2.402   3.950 -1.7917 -1.8087 -1.7871
  191MOL0     H25731   7.696   2.468   3.822 -2.3572 -0.9688  1.8510
  191MOL0     H25732   7.866   2.359   3.667  1.7816 -1.1490 -0.1175
  191MOL0     H25733   7.974   2.337   3.805  1.5772  0.6005 -2.3571
  191MOL0     H25734   7.860   2.120   3.738  1.4448  0.1673  1.3258
  191MOL0     H25735   7.696   2.195   3.787  0.6012  0.9268 -1.2093
  191MOL0     H25736   8.056   2.111   3.921  0.8807  1.7177  0.1872
  191MOL0     H25737   8.113   2.174   4.230  0.1733  0.0362  0.9366
  191MOL0     H25738   8.035   2.052   4.310  0.0429 -0.4273 -0.7149
  191MOL0     H25739   8.270   1.991   4.199  0.1621  1.2657 -0.4044
  191MOL0     H25740   8.197   2.018   4.050 -1.2212  0.5709 -0.1072
  191MOL0     H25741   8.016   1.846   4.070  0.0024 -1.4578 -1.0729
  191MOL0     H25742   8.078   1.802   4.228 -1.0295  0.0589 -0.4952
  191MOL0     H25743   8.238   1.788   3.957  1.7672 -3.8639 -0.4539
  191MOL0     H25744   8.154   1.660   4.040 -0.3988 -0.0032 -0.9661
  191MOL0     H25745   8.541   1.853   4.207 -1.3035 -0.4148 -0.9149
  191MOL0     H25746   8.890   1.887   4.073  3.1798 -4.3637  2.0676
  191MOL0     H25747   8.750   1.946   4.175 -0.4106 -0.1540  0.5658
  191MOL0     H25748   8.836   1.803   4.206 -0.4479  1.6489 -0.0653
  191MOL0     H25749   9.081   1.580   3.901  3.7339 -0.3186  0.6061
  191MOL0     H25750   9.278   1.503   3.791 -1.5791 -1.2181 -0.0044
  191MOL0     H25751   9.454   1.555   3.652 -2.1741 -0.2824  0.7558
  191MOL0     H25752   9.464   1.383   3.671  0.4303 -0.6937 -1.0875
  191MOL0     H25753   9.537   1.346   3.442  0.2473 -0.5109  0.8778
  191MOL0     H25754   9.548   1.519   3.412  1.3250 -0.7921 -0.8382
  191MOL0     H25755   9.707   1.354   3.619  4.2502  1.7051  1.3738
  191MOL0     H25756   9.704   1.534   3.605 -2.7075  0.1988  1.2028
  191MOL0     H25757   9.780   1.326   3.407  2.2033 -0.1656  0.3811
  191MOL0     H25758   9.764   1.510   3.379 -0.2763 -1.5401 -0.1042
  191MOL0     H25759   9.934   1.554   3.532 -0.3982  0.2090 -1.0235
  191MOL0     H25760   9.979   1.461   3.389 -0.2484  0.1164  1.2967
  191MOL0     H25761  10.100   1.365   3.579  0.0419  0.4179 -3.1180
  191MOL0     H25762   9.948   1.338   3.669  0.5045 -0.2218  0.6858
  191MOL0     H25763  10.017   1.223   3.403  0.2729 -0.9240 -1.4502
  191MOL0     H25764   9.882   1.174   3.508 -0.2966  1.8442  2.3520
  191MOL0     H25765  10.162   1.112   3.585  0.9799  0.0147 -2.1978
  191MOL0     H25766  10.055   0.990   3.514  1.0821  0.9926 -0.6733
  191MOL0     H25767   9.078   1.496   3.418  1.8755  0.3917 -1.0882
  191MOL0     H25768   8.875   1.579   3.526 -0.7223  2.5435  2.1199
  191MOL0     H25769   8.617   1.555   3.825  1.8050  1.2794 -0.2564
  191MOL0     H25770   8.398   1.563   3.913  0.9806 -0.4943 -1.7420
  191MOL0     H25771   7.494   3.137   3.686 -0.2112  3.7404  3.1681
  191MOL0     H25772   7.377   3.337   3.666  1.0702  0.3003  1.3731
  191MOL0     H25773   7.487   3.853   3.667  1.2544 -0.2415 -0.9320
  191MOL0     H25774   7.393   4.067   3.594 -0.6107  1.0148 -2.5431
  191MOL0     H25775   7.033   4.173   3.473  1.9633 -3.8029 -2.6333
  191MOL0     H25776   7.146   4.163   3.600 -1.0756  0.6721 -0.5418
  191MOL0     H25777   7.081   4.369   3.406 -1.2823  0.2341  2.4247
  191MOL0     H25778   7.261   4.355   3.423 -0.8092 -1.3193 -1.2747
  191MOL0     H25779   7.226   4.384   3.669 -0.4277 -2.0440  0.1907
  191MOL0     H25780   7.054   4.402   3.635  0.4902  0.8676  2.7084
  191MOL0     H25781   7.074   4.612   3.517 -0.2784 -0.8561  1.5484
  191MOL0     H25782   7.256   4.605   3.513  0.0422 -0.1875  0.0785
  191MOL0     H25783   7.137   4.754   3.890 -1.9639 -1.4461 -0.6746
  191MOL0     H25784   7.150   3.876   3.303 -1.9086 -0.0199  2.1346
  191MOL0     H25785   7.289   3.660   3.342 -2.0246  0.6619 -0.8961
  192MOL0     O25786  11.336   5.210   2.416  0.0709  0.6318  0.0233
  192MOL0     C25787  11.409   5.128   2.475  0.5077 -0.5097  0.7023
  192MOL0     O25788  11.410   4.990   2.464 -0.5171 -0.1066  0.9273
  192MOL0     C25789  11.333   4.950   2.360  0.5456  0.5460 -0.6083
  192MOL0     C25790  11.223   4.869   2.401 -0.1398 -0.0304  0.1347
  192MOL0     C25791  11.140   4.817   2.302 -0.0365  0.3880  0.3185
  192MOL0     C25792  11.163   4.845   2.165  0.5774 -0.7213 -0.0040
  192MOL0     O25793  11.067   4.805   2.080 -0.1579 -0.0615  1.2603
  192MOL0     C25794  11.042   4.882   1.967  0.3825  0.2578  1.1973
  192MOL0     C25795  10.910   4.846   1.896 -0.6279  0.9538 -0.0417
  192MOL0     C25796  10.778   4.883   1.986 -0.8284  0.1857 -0.1868
  192MOL0     C25797  10.650   4.835   1.938 -0.1363  0.0523 -0.4475
  192MOL0     C25798  10.593   4.892   1.812  0.8169 -0.8659  1.0565
  192MOL0     C25799  10.595   5.044   1.818  0.2217 -0.1099 -0.2395
  192MOL0     C25800  10.501   5.102   1.933 -0.6510 -0.1378  0.0010
  192MOL0     C25801  10.574   5.219   1.997  0.0080  1.0270  0.0590
  192MOL0     N25802  10.624   5.309   1.895 -0.5570  0.8309  0.0288
  192MOL0     C25803  10.544   5.360   1.794  0.6326 -1.1775  0.3855
  192MOL0     C25804  10.629   5.433   1.711 -0.4662 -0.0632 -0.1458
  192MOL0     C25805  10.595   5.499   1.586  0.3003  0.8230  0.7164
  192MOL0     C25806  10.703   5.613   1.563  1.1212  0.5713  0.8399
  192MOL0     C25807  10.691   5.683   1.430  0.1735  0.1659 -0.6138
  192MOL0     C25808  10.569   5.774   1.414 -0.8031  0.8732 -0.4742
  192MOL0     O25809  10.451   5.688   1.394 -1.0170 -0.4941 -0.3594
  192MOL0     C25810  10.369   5.710   1.291 -0.5078 -0.2424  0.0751
  192MOL0     C25811  10.350   5.618   1.187 -0.6977 -0.5310 -0.4131
  192MOL0     C25812  10.255   5.648   1.083 -0.4579  0.5616 -0.2772
  192MOL0     C25813  10.258   5.543   0.975 -0.0993 -0.5299  0.3118
  192MOL0     C25814  10.180   5.772   1.085 -0.9897  0.3805 -0.5080
  192MOL0     C25815  10.076   5.811   0.987  0.3035 -0.6151  0.6864
  192MOL0     O25816  10.011   5.712   0.915  0.1978  1.0882 -0.4552
  192MOL0     C25817   9.915   5.729   0.821 -0.7179 -0.6660 -0.3523
  192MOL0     C25818   9.867   5.852   0.765 -0.5597  0.7597  0.2475
  192MOL0     C25819   9.772   5.854   0.663  0.8873 -0.1862  0.3242
  192MOL0     C25820   9.719   5.743   0.603 -1.1810 -0.1537  0.4849
  192MOL0     O25821   9.635   5.750   0.489 -0.1331 -0.5049 -0.4577
  192MOL0     C25822   9.696   5.695   0.381  0.4595 -0.1023 -0.4731
  192MOL0     C25823   9.586   5.657   0.280 -0.1489  0.1963 -0.3923
  192MOL0     C25824   9.530   5.765   0.202  0.0587  0.1881 -0.3412
  192MOL0     C25825   9.387   5.737   0.149  0.4264 -0.5738  0.5094
  192MOL0     C25826   9.319   5.857   0.060  0.3141  0.0451 -0.4872
  192MOL0     C25827   9.179   5.814   0.001  0.2168  0.1460  0.7204
  192MOL0     C25828   9.129   5.926  -0.083 -0.4747  0.5558 -0.3772
  192MOL0     C25829   9.012   5.888  -0.171 -0.5042  0.5003 -1.3774
  192MOL0    Cl25830   8.989   5.999  -0.304  0.6572 -0.4251 -0.0027
  192MOL0     C25831   9.756   5.619   0.665  0.0573  0.8124  0.4012
  192MOL0     C25832   9.850   5.614   0.775  0.2489  0.5035 -0.4579
  192MOL0     O25833  10.036   5.933   0.992 -0.4761  0.1529  0.2724
  192MOL0     C25834  10.204   5.854   1.199 -0.1150  0.4820 -0.1309
  192MOL0     C25835  10.297   5.821   1.300  0.3363  0.4491  1.1365
  192MOL0     N25836  10.753   5.418   1.768 -0.6355 -0.1544  0.3645
  192MOL0     N25837  10.759   5.339   1.866 -0.2423  0.1171  0.2713
  192MOL0     C25838  11.279   4.910   2.129  1.2478  0.1199 -0.2946
  192MOL0     C25839  11.359   4.963   2.224 -0.0984 -0.2860 -0.6344
  192MOL0     C25840  11.510   5.189   2.557 -0.2795 -0.3708 -1.4403
  192MOL0     C25841  11.535   5.325   2.576 -0.0324  0.1061 -0.8745
  192MOL0     C25842  11.650   5.369   2.641  0.3375  0.0186 -0.0550
  192MOL0     C25843  11.744   5.292   2.701  0.3644  0.6251 -0.3508
  192MOL0     O25844  11.851   5.364   2.760  0.2796 -0.0685  0.2947
  192MOL0     C25845  11.979   5.305   2.780 -1.3184  0.6346 -0.0884
  192MOL0     C25846  12.035   5.240   2.656  0.0920 -0.2326  0.8441
  192MOL0     C25847  12.185   5.202   2.685 -0.3755 -0.7350  1.4185
  192MOL0     C25848  12.277   5.161   2.556  0.0011 -0.1295 -0.2371
  192MOL0     C25849  12.231   5.027   2.505  0.6257 -0.0320  0.5212
  192MOL0     C25850  12.198   4.916   2.482  0.2809  0.1505  0.1753
  192MOL0     C25851  11.722   5.157   2.691 -0.2200 -0.8957 -0.2211
  192MOL0     C25852  11.606   5.104   2.627  0.0814  0.5130  0.0982
  192MOL0     H25853  11.199   4.859   2.506 -1.5211 -3.0366 -0.3556
  192MOL0     H25854  11.048   4.796   2.355 -1.0516  3.6035  0.0341
  192MOL0     H25855  11.034   4.987   1.995 -0.9760  1.6548 -3.5974
  192MOL0     H25856  11.118   4.874   1.889 -1.7831  0.5260 -1.0295
  192MOL0     H25857  10.908   4.886   1.794  1.2194 -0.7381 -0.7920
  192MOL0     H25858  10.910   4.737   1.893  2.6339  0.7061  2.7766
  192MOL0     H25859  10.792   4.841   2.086  1.6367  1.4986  0.0986
  192MOL0     H25860  10.766   4.990   2.006 -0.1356  0.1115  0.6765
  192MOL0     H25861  10.653   4.726   1.934 -0.9862  0.0108 -0.2141
  192MOL0     H25862  10.580   4.857   2.020  0.6441  1.6269 -0.1712
  192MOL0     H25863  10.654   4.857   1.728 -1.5603  0.1517 -1.2109
  192MOL0     H25864  10.489   4.859   1.805  0.2051  0.3558  3.3687
  192MOL0     H25865  10.698   5.080   1.824 -0.3022  1.2499  1.9044
  192MOL0     H25866  10.564   5.083   1.721 -1.5541  1.0616  0.7363
  192MOL0     H25867  10.399   5.136   1.911 -2.8801 -3.5679  3.6549
  192MOL0     H25868  10.503   5.028   2.014  1.3498 -2.6223 -2.1503
  192MOL0     H25869  10.651   5.185   2.066  0.6348  0.5803 -0.8456
  192MOL0     H25870  10.501   5.282   2.049  0.8676  0.2289  2.3620
  192MOL0     H25871  10.436   5.356   1.790  0.2627  2.6534  2.1260
  192MOL0     H25872  10.611   5.422   1.510  1.9608  0.4663  1.3860
  192MOL0     H25873  10.496   5.545   1.588 -0.4739 -0.7473  0.0744
  192MOL0     H25874  10.799   5.561   1.563  0.3988 -1.1041 -3.0429
  192MOL0     H25875  10.692   5.687   1.643  1.9701  0.3513  1.1735
  192MOL0     H25876  10.687   5.608   1.351 -0.8623 -1.0727  0.5555
  192MOL0     H25877  10.780   5.745   1.417  1.6919 -1.8169 -0.0360
  192MOL0     H25878  10.591   5.846   1.334  0.5731  1.0212  0.0171
  192MOL0     H25879  10.550   5.823   1.510  4.4693  1.1829  0.7159
  192MOL0     H25880  10.416   5.532   1.188  1.7962  1.2551  1.0648
  192MOL0     H25881  10.352   5.488   0.967 -0.8874 -1.6631 -1.9220
  192MOL0     H25882  10.169   5.480   0.988 -0.0980 -0.4975  0.4843
  192MOL0     H25883  10.240   5.594   0.880  3.3003  0.4148  0.0520
  192MOL0     H25884   9.924   5.938   0.799  5.5598 -2.8610  0.6513
  192MOL0     H25885   9.733   5.952   0.637 -0.6158 -1.2683 -1.8444
  192MOL0     H25886   9.759   5.771   0.334  1.0256  1.5294  2.6763
  192MOL0     H25887   9.750   5.607   0.417 -2.5206 -2.1544 -0.6211
  192MOL0     H25888   9.629   5.579   0.218 -2.0828 -3.1413  2.1027
  192MOL0     H25889   9.518   5.590   0.334 -0.9298  0.2130 -1.3347
  192MOL0     H25890   9.588   5.789   0.113 -2.9531  2.4932 -1.8935
  192MOL0     H25891   9.527   5.854   0.265  0.3602 -0.1138  0.1073
  192MOL0     H25892   9.390   5.648   0.086 -0.1647 -2.3369  2.8177
  192MOL0     H25893   9.325   5.711   0.235  0.5303  2.7344  1.7491
  192MOL0     H25894   9.390   5.877  -0.021 -3.0650  1.0432 -3.4932
  192MOL0     H25895   9.318   5.941   0.130  1.8996 -2.1283  2.3537
  192MOL0     H25896   9.193   5.724  -0.060 -1.0484 -0.2560  0.9828
  192MOL0     H25897   9.120   5.773   0.083 -0.1084 -2.8665 -0.8807
  192MOL0     H25898   9.204   5.961  -0.154 -0.8116 -0.5609 -1.3032
  192MOL0     H25899   9.111   6.010  -0.015  3.8833  2.2957 -1.0061
  192MOL0     H25900   8.924   5.892  -0.107 -0.6918  2.8566 -1.6961
  192MOL0     H25901   9.026   5.792  -0.221  1.5678  0.3295 -0.5567
  192MOL0     H25902   9.708   5.524   0.644 -2.6288  2.4028 -1.2277
  192MOL0     H25903   9.901   5.522   0.805  0.8205  0.3302 -1.8888
  192MOL0     H25904  10.143   5.941   1.222 -1.7366 -1.0919  1.8705
  192MOL0     H25905  10.317   5.893   1.378 -3.4127 -0.4580  3.1513
  192MOL0     H25906  11.292   4.924   2.023  0.6656  0.5508 -0.3103
  192MOL0     H25907  11.445   5.021   2.192  0.7730 -1.6828 -0.9205
  192MOL0     H25908  11.464   5.392   2.528 -2.7933 -1.4506  0.7555
  192MOL0     H25909  11.658   5.477   2.639  1.4530 -0.0623 -0.7720
  192MOL0     H25910  12.044   5.386   2.814 -2.3491  1.1482  0.7095
  192MOL0     H25911  11.964   5.233   2.861 -1.2132 -1.9915 -2.2618
  192MOL0     H25912  12.036   5.304   2.567 -0.5079  2.2637  2.5260
  192MOL0     H25913  11.981   5.149   2.628 -2.6164  1.6426 -0.3934
  192MOL0     H25914  12.180   5.108   2.741 -4.3110 -1.3609  0.3611
  192MOL0     H25915  12.236   5.284   2.737  2.3613 -0.5809 -1.2246
  192MOL0     H25916  12.378   5.168   2.598  0.8457  0.0938 -2.2056
  192MOL0     H25917  12.273   5.234   2.475 -0.9441  1.9495  1.5604
  192MOL0     H25918  12.159   4.820   2.455 -2.1270  1.2467 -0.5858
  192MOL0     H25919  11.791   5.096   2.748  1.7545  0.4633 -1.0697
  192MOL0     H25920  11.576   5.000   2.641 -3.3181  1.5329  1.4651
  193MOL0     O25921   5.855   2.269   2.197 -0.3173 -0.6381  0.1150
  193MOL0     C25922   5.919   2.217   2.287 -0.5126  0.3643 -0.7258
  193MOL0     O25923   5.897   2.086   2.328  0.2169  0.1509 -0.4297
  193MOL0     C25924   5.806   2.018   2.259 -0.5167 -0.2359 -0.1505
  193MOL0     C25925   5.668   2.024   2.285 -0.1012  1.8240  0.1910
  193MOL0     C25926   5.582   1.930   2.214 -0.5894 -1.0696 -0.7934
  193MOL0     C25927   5.628   1.845   2.117 -0.8993 -0.6330 -0.9604
  193MOL0     O25928   5.547   1.739   2.074  0.8419  0.2176  0.1169
  193MOL0     C25929   5.410   1.746   2.086  0.0634 -0.7733 -1.1903
  193MOL0     C25930   5.329   1.635   2.024  0.1544  0.1403 -0.8738
  193MOL0     C25931   5.345   1.503   2.095 -0.1280  0.1083  0.1249
  193MOL0     C25932   5.267   1.496   2.226  0.3011 -0.1200 -0.9851
  193MOL0     C25933   5.273   1.376   2.315 -0.0727  0.2413  0.3851
  193MOL0     C25934   5.399   1.300   2.306 -0.4351  0.3675 -0.2168
  193MOL0     C25935   5.524   1.369   2.382  1.0241  0.4077 -0.3788
  193MOL0     C25936   5.656   1.306   2.329 -1.0411  0.0968 -0.5263
  193MOL0     N25937   5.767   1.381   2.388  0.0963  0.0388 -0.8644
  193MOL0     C25938   5.807   1.495   2.332 -0.8249  0.2457 -0.0777
  193MOL0     C25939   5.880   1.556   2.431 -0.1601  0.0474  1.0121
  193MOL0     C25940   5.937   1.704   2.420 -0.0154  0.0001  0.5624
  193MOL0     C25941   5.894   1.786   2.542 -0.2281  0.1891 -0.1225
  193MOL0     C25942   5.745   1.769   2.595  0.4316 -0.0130  0.5204
  193MOL0     C25943   5.712   1.893   2.679  0.3795  0.7447 -0.7491
  193MOL0     O25944   5.578   1.901   2.737 -0.0032  0.0848 -0.1957
  193MOL0     C25945   5.475   1.887   2.646 -0.0739 -0.2464 -0.5750
  193MOL0     C25946   5.444   1.997   2.571  0.6226  0.2585 -0.5088
  193MOL0     C25947   5.321   1.986   2.491 -0.0038 -0.5936 -0.1366
  193MOL0     C25948   5.286   2.105   2.409 -0.1182  0.7844 -0.2588
  193MOL0     C25949   5.250   1.866   2.488  0.7646 -0.8321 -0.2052
  193MOL0     C25950   5.139   1.839   2.397 -0.0536  0.1218  0.8020
  193MOL0     O25951   5.066   1.721   2.429  1.1332  0.0199 -0.4164
  193MOL0     C25952   4.943   1.685   2.377 -1.0350 -0.6839  0.5236
  193MOL0     C25953   4.912   1.550   2.374  0.5197 -0.7267 -0.5107
  193MOL0     C25954   4.798   1.502   2.317  0.0738  0.5183  0.2823
  193MOL0     C25955   4.706   1.587   2.258  1.0563  0.0627  0.9701
  193MOL0     O25956   4.588   1.553   2.196 -0.4122  0.3935  0.8897
  193MOL0     C25957   4.584   1.430   2.110 -1.1218 -1.0300 -0.2765
  193MOL0     C25958   4.438   1.415   2.080  1.3123 -0.2029  0.7807
  193MOL0     C25959   4.392   1.274   2.027  0.3129 -0.4621 -0.2010
  193MOL0     C25960   4.416   1.162   2.122 -1.0084 -0.8424  0.3401
  193MOL0     C25961   4.338   1.046   2.080  0.1789 -0.3595  0.1324
  193MOL0     C25962   4.407   0.954   1.972  0.8249 -0.6382 -0.0430
  193MOL0     C25963   4.302   0.870   1.888  0.2158 -0.1951  0.3634
  193MOL0     C25964   4.202   0.788   1.976 -0.9542 -0.1690  0.4717
  193MOL0    Cl25965   4.270   0.646   2.070 -0.2470  0.0695 -0.2334
  193MOL0     C25966   4.730   1.725   2.264 -0.3636 -0.3548  0.8087
  193MOL0     C25967   4.852   1.781   2.317 -0.4296  0.3699 -0.7953
  193MOL0     O25968   5.114   1.918   2.315  0.3358  0.1708 -0.7460
  193MOL0     C25969   5.293   1.765   2.563 -0.8957  0.5841 -0.2030
  193MOL0     C25970   5.401   1.773   2.651 -0.2020  0.4747  0.0033
  193MOL0     N25971   5.899   1.462   2.525  0.0519  0.5924  0.0353
  193MOL0     N25972   5.825   1.361   2.507  0.8954 -0.3268  0.0764
  193MOL0     C25973   5.762   1.849   2.093  0.1044  0.7770 -0.3665
  193MOL0     C25974   5.850   1.933   2.158 -0.0915 -0.7903 -0.5104
  193MOL0     C25975   6.042   2.292   2.335  0.7065 -1.0455 -0.0907
  193MOL0     C25976   6.113   2.230   2.431  0.2940 -0.1946 -0.0485
  193MOL0     C25977   6.215   2.292   2.504  0.3340 -0.2887  0.2613
  193MOL0     C25978   6.231   2.432   2.492  0.1403  0.0935  0.0853
  193MOL0     O25979   6.335   2.501   2.548 -0.0197 -0.1075 -0.6586
  193MOL0     C25980   6.418   2.420   2.637  0.1994  0.0410  0.8496
  193MOL0     C25981   6.526   2.509   2.696  0.5696 -0.9242 -0.4978
  193MOL0     C25982   6.468   2.606   2.797 -0.4002 -0.0166 -0.7477
  193MOL0     C25983   6.537   2.750   2.792 -0.4446 -0.6764  0.0523
  193MOL0     C25984   6.508   2.823   2.916  0.2546 -0.6773 -0.7353
  193MOL0     C25985   6.501   2.862   3.037  0.3719  0.6347  0.1794
  193MOL0     C25986   6.153   2.504   2.404 -0.5805  1.0769  0.8658
  193MOL0     C25987   6.064   2.429   2.312 -0.0860 -0.3796 -0.7765
  193MOL0     H25988   5.626   2.077   2.371 -1.8044  3.9817 -1.8319
  193MOL0     H25989   5.480   1.916   2.248 -0.5052  1.5185  0.7913
  193MOL0     H25990   5.395   1.748   2.194  0.5962 -1.1474 -1.1051
  193MOL0     H25991   5.374   1.841   2.048 -1.8249 -1.1102 -0.3601
  193MOL0     H25992   5.222   1.658   2.032  0.4837  1.7933 -0.7967
  193MOL0     H25993   5.357   1.626   1.918  0.9175 -0.3801 -0.6340
  193MOL0     H25994   5.304   1.426   2.030 -3.1367  3.2901 -2.1243
  193MOL0     H25995   5.453   1.491   2.111  1.0043  2.1715 -4.3551
  193MOL0     H25996   5.301   1.581   2.286 -2.9493  2.2265 -2.2192
  193MOL0     H25997   5.162   1.519   2.209  0.9473  2.0856 -2.4618
  193MOL0     H25998   5.267   1.405   2.420  2.3539 -1.4303  1.0810
  193MOL0     H25999   5.191   1.315   2.274  0.1161  1.6716 -2.3792
  193MOL0     H26000   5.374   1.209   2.361 -0.4916  0.4368 -0.1283
  193MOL0     H26001   5.419   1.281   2.200  0.6330 -3.7252  0.5717
  193MOL0     H26002   5.521   1.477   2.366 -0.9161  0.3492 -0.5895
  193MOL0     H26003   5.497   1.355   2.487  0.1664 -1.2576 -0.7890
  193MOL0     H26004   5.666   1.306   2.220 -1.0870 -0.1026 -0.5298
  193MOL0     H26005   5.662   1.204   2.367  1.1105 -0.8189 -3.0662
  193MOL0     H26006   5.770   1.530   2.236 -1.1338 -0.7460 -0.3284
  193MOL0     H26007   6.047   1.706   2.424  0.0052 -1.2898  1.0274
  193MOL0     H26008   5.913   1.764   2.332 -0.1422  0.2776  0.7859
  193MOL0     H26009   5.927   1.889   2.526 -2.8897  1.2204  0.4003
  193MOL0     H26010   5.943   1.733   2.624  2.1052 -1.2907 -2.3284
  193MOL0     H26011   5.744   1.675   2.650 -1.0581  0.1237  0.7678
  193MOL0     H26012   5.673   1.764   2.512  1.1122  3.2962 -0.4398
  193MOL0     H26013   5.729   1.986   2.623 -1.0405  1.3145 -0.2823
  193MOL0     H26014   5.787   1.901   2.758  0.7040 -0.9745 -0.8587
  193MOL0     H26015   5.504   2.086   2.582  1.7556 -0.6272  0.8866
  193MOL0     H26016   5.344   2.191   2.442 -2.2693  1.7798  1.2161
  193MOL0     H26017   5.301   2.088   2.302  2.2417 -1.4628  0.3184
  193MOL0     H26018   5.178   2.122   2.420 -0.1541 -0.2575  1.4558
  193MOL0     H26019   4.971   1.473   2.422  1.2519  1.1853  1.8559
  193MOL0     H26020   4.777   1.396   2.334  2.8573  0.1029  1.8102
  193MOL0     H26021   4.651   1.455   2.028  0.2546  0.0221  1.1079
  193MOL0     H26022   4.615   1.334   2.151 -2.4994 -1.7624 -0.9055
  193MOL0     H26023   4.382   1.414   2.174 -2.9972 -0.7076 -1.5823
  193MOL0     H26024   4.406   1.503   2.025 -2.4473 -1.6756  0.3165
  193MOL0     H26025   4.428   1.247   1.927  0.0057  0.6382 -0.6221
  193MOL0     H26026   4.284   1.278   2.014  0.4293  1.3326 -0.9349
  193MOL0     H26027   4.522   1.137   2.113 -0.2380  2.1492  0.1489
  193MOL0     H26028   4.408   1.189   2.227 -0.6106 -0.2535  0.2259
  193MOL0     H26029   4.236   1.076   2.055  0.5637  1.7162  0.8858
  193MOL0     H26030   4.330   0.983   2.169  0.9609 -2.0507 -0.9340
  193MOL0     H26031   4.468   1.007   1.899 -0.7841  0.1385 -0.8667
  193MOL0     H26032   4.487   0.889   2.009  1.1539 -1.4159 -1.9708
  193MOL0     H26033   4.344   0.808   1.809 -1.2404 -1.5914  0.6247
  193MOL0     H26034   4.226   0.929   1.837 -1.5247 -2.0449  0.6777
  193MOL0     H26035   4.133   0.746   1.903 -1.8554  0.3857  0.9786
  193MOL0     H26036   4.166   0.855   2.055  1.7356  2.0730 -0.0375
  193MOL0     H26037   4.648   1.781   2.220  0.1527  0.5504  0.9837
  193MOL0     H26038   4.867   1.888   2.311 -0.4933  0.4372  0.0860
  193MOL0     H26039   5.254   1.665   2.576  2.8069 -0.9443  0.4221
  193MOL0     H26040   5.429   1.693   2.719  1.8923  2.7860  2.0515
  193MOL0     H26041   5.798   1.772   2.026  3.1812  1.8345 -0.1185
  193MOL0     H26042   5.954   1.927   2.127  0.5454 -2.0540  1.6694
  193MOL0     H26043   6.088   2.131   2.466 -5.5170  1.3808  1.3590
  193MOL0     H26044   6.280   2.231   2.566 -1.0723 -3.9909 -1.5521
  193MOL0     H26045   6.364   2.375   2.720  0.7237 -1.6391  0.3204
  193MOL0     H26046   6.475   2.352   2.573 -3.0006  1.4132 -3.9934
  193MOL0     H26047   6.568   2.575   2.620  0.4333  2.2824  1.9584
  193MOL0     H26048   6.608   2.447   2.734 -0.3607 -2.1454 -0.4544
  193MOL0     H26049   6.491   2.556   2.891 -0.6983 -2.9379 -2.0869
  193MOL0     H26050   6.359   2.612   2.802 -0.2743  1.7205  0.4324
  193MOL0     H26051   6.513   2.804   2.700  1.6919  0.1567 -0.0742
  193MOL0     H26052   6.646   2.744   2.791 -0.3656 -0.4064  2.0823
  193MOL0     H26053   6.519   2.908   3.131  0.4909  0.7520  0.0993
  193MOL0     H26054   6.165   2.611   2.393  3.5484  0.6275 -0.8343
  193MOL0     H26055   6.002   2.479   2.239 -2.9981  2.5056  3.1878
  194MOL0     O26056   0.410   3.873   3.460  0.0921  0.1514 -0.7775
  194MOL0     C26057   0.508   3.800   3.500  1.0623  0.8348 -0.2496
  194MOL0     O26058   0.564   3.801   3.629  0.3911 -0.0526 -0.0925
  194MOL0     C26059   0.521   3.876   3.732 -0.9393  1.1990  0.0943
  194MOL0     C26060   0.538   3.819   3.857  0.9150 -0.9071 -0.2868
  194MOL0     C26061   0.509   3.888   3.974 -0.3333  0.6320 -0.0290
  194MOL0     C26062   0.495   4.028   3.961  1.3924 -0.7092  0.9862
  194MOL0     O26063   0.500   4.105   4.072  1.3929 -0.4438 -0.0481
  194MOL0     C26064   0.377   4.162   4.127 -0.0382  0.7297  1.2115
  194MOL0     C26065   0.413   4.283   4.215 -0.4352  0.0494 -0.0767
  194MOL0     C26066   0.290   4.339   4.283  0.5404 -0.2768  0.3357
  194MOL0     C26067   0.251   4.276   4.413 -0.1294 -0.4917 -0.3465
  194MOL0     C26068   0.150   4.361   4.490 -0.2104 -1.1618  0.3742
  194MOL0     C26069   0.131   4.307   4.634 -0.6408  0.2857 -0.0217
  194MOL0     C26070   0.023   4.363   4.718 -0.0350  0.7532  0.9522
  194MOL0     C26071   0.037   4.517   4.763  0.5111 -0.5953  0.1374
  194MOL0     N26072   0.139   4.530   4.865 -1.3532  0.4117  0.4633
  194MOL0     C26073   0.272   4.551   4.846 -0.0461 -0.1213  0.0469
  194MOL0     C26074   0.326   4.539   4.974 -0.4238  0.1405  1.0352
  194MOL0     C26075   0.476   4.540   4.992  0.2507  0.0752 -0.0067
  194MOL0     C26076   0.492   4.487   5.137  0.0417 -0.2138  0.7051
  194MOL0     C26077   0.639   4.515   5.168 -0.2970  0.9279 -0.3022
  194MOL0     C26078   0.670   4.497   5.314 -0.0312  0.5366 -0.4413
  194MOL0     O26079   0.669   4.350   5.344 -0.2614  0.0910 -0.0955
  194MOL0     C26080   0.754   4.300   5.438  0.2797  0.4409 -0.1237
  194MOL0     C26081   0.707   4.237   5.554  0.5477 -0.6529 -0.5177
  194MOL0     C26082   0.797   4.178   5.644 -1.2186  0.1000  0.6745
  194MOL0     C26083   0.740   4.105   5.765  0.7946  0.4646  0.9280
  194MOL0     C26084   0.937   4.171   5.615  0.1190  0.7649  0.9966
  194MOL0     C26085   1.035   4.090   5.688  0.0302  1.2106 -0.2229
  194MOL0     O26086   1.112   3.995   5.614  0.2751  0.2805 -0.6255
  194MOL0     C26087   1.218   3.925   5.666  0.8605  0.5833  0.5322
  194MOL0     C26088   1.237   3.795   5.620 -0.0757 -0.2703  0.9672
  194MOL0     C26089   1.338   3.714   5.667  1.2636 -1.0676  1.0801
  194MOL0     C26090   1.424   3.763   5.760 -0.6215  0.6174  0.0722
  194MOL0     O26091   1.531   3.695   5.800 -0.1344 -0.2563 -0.3071
  194MOL0     C26092   1.501   3.558   5.842 -0.4213  0.2742 -0.2077
  194MOL0     C26093   1.609   3.524   5.938 -0.2748 -0.8168  0.3938
  194MOL0     C26094   1.759   3.552   5.893 -0.5093  0.0999  0.0458
  194MOL0     C26095   1.860   3.486   5.999  0.3298  0.4133 -0.1700
  194MOL0     C26096   1.881   3.562   6.136  0.6205 -0.0245  0.3124
  194MOL0     C26097   1.755   3.571   6.226 -0.9096 -0.5725 -0.5289
  194MOL0     C26098   1.792   3.580   6.375 -0.1197 -0.6345  0.4908
  194MOL0     C26099   1.687   3.659   6.450  0.0379 -0.2269 -0.1507
  194MOL0    Cl26100   1.539   3.579   6.427 -0.2295 -0.9731 -0.2431
  194MOL0     C26101   1.428   3.901   5.789 -0.8636 -0.1704 -0.8268
  194MOL0     C26102   1.321   3.983   5.743  0.1377  0.0492  0.7695
  194MOL0     O26103   1.024   4.104   5.809 -0.8370  0.0486 -0.5534
  194MOL0     C26104   0.979   4.228   5.495  0.2326  0.2298 -1.0381
  194MOL0     C26105   0.890   4.301   5.419  1.0760  0.0578  0.4428
  194MOL0     N26106   0.225   4.519   5.059 -0.7266  0.5930 -0.3276
  194MOL0     N26107   0.108   4.521   4.997  0.4285 -0.3483  0.4878
  194MOL0     C26108   0.480   4.090   3.835 -0.1653  0.3331  0.3498
  194MOL0     C26109   0.491   4.014   3.715 -0.0068 -0.0497  0.3459
  194MOL0     C26110   0.534   3.670   3.428  0.1847 -0.7512 -0.1890
  194MOL0     C26111   0.630   3.588   3.467  0.2859  0.7425 -0.9015
  194MOL0     C26112   0.663   3.476   3.391 -0.3156  0.2310  0.0826
  194MOL0     C26113   0.623   3.454   3.270  0.0096  0.0174  1.0448
  194MOL0     O26114   0.696   3.356   3.197  0.4359  0.2735  0.1533
  194MOL0     C26115   0.663   3.346   3.056 -0.2606  1.2751 -1.3196
  194MOL0     C26116   0.792   3.311   2.980 -0.0012 -0.8334 -0.5759
  194MOL0     C26117   0.895   3.431   2.984  0.1692  0.7706  0.0636
  194MOL0     C26118   0.988   3.405   2.875 -0.2273  0.3391 -0.0885
  194MOL0     C26119   1.094   3.505   2.888 -0.3990  0.4328 -0.3908
  194MOL0     C26120   1.166   3.595   2.911 -0.3191  0.4452  1.3801
  194MOL0     C26121   0.510   3.532   3.230 -0.8245 -0.0914 -0.4251
  194MOL0     C26122   0.466   3.635   3.315 -0.3007  0.0741 -1.0011
  194MOL0     H26123   0.545   3.714   3.882 -0.1657 -0.6222  1.4009
  194MOL0     H26124   0.537   3.839   4.067  0.7725  2.4142  0.6292
  194MOL0     H26125   0.308   4.188   4.046 -0.7102  0.9990  1.8612
  194MOL0     H26126   0.329   4.081   4.183 -1.4338 -0.7868 -1.9556
  194MOL0     H26127   0.487   4.252   4.289  0.8897  0.4694 -1.1951
  194MOL0     H26128   0.449   4.366   4.154  0.8932 -0.2705  0.2406
  194MOL0     H26129   0.290   4.447   4.299 -0.0432 -0.2455  0.1650
  194MOL0     H26130   0.203   4.324   4.219  0.8898  2.4743 -0.9271
  194MOL0     H26131   0.206   4.179   4.391  1.2861 -1.7850  1.9810
  194MOL0     H26132   0.334   4.251   4.481 -1.0962 -0.8712  0.7397
  194MOL0     H26133   0.189   4.461   4.512 -2.5161 -0.4790  1.6415
  194MOL0     H26134   0.062   4.362   4.425  1.2424  2.1617 -1.8419
  194MOL0     H26135   0.103   4.202   4.619 -0.4603  0.5118 -2.2552
  194MOL0     H26136   0.221   4.319   4.695  1.6387 -0.0484 -3.0826
  194MOL0     H26137  -0.071   4.353   4.663 -0.2683  4.0587  0.5704
  194MOL0     H26138   0.016   4.311   4.814  0.1574  2.2593  1.8186
  194MOL0     H26139  -0.060   4.531   4.812  0.3066 -0.5355 -0.2826
  194MOL0     H26140   0.043   4.584   4.677 -1.2509 -1.2496 -0.5268
  194MOL0     H26141   0.327   4.560   4.753 -0.0226  2.1506  0.2062
  194MOL0     H26142   0.528   4.478   4.918  0.0973 -0.2930  0.1913
  194MOL0     H26143   0.510   4.644   4.983 -0.5218  0.2776 -0.7517
  194MOL0     H26144   0.470   4.380   5.133  1.2249 -0.4804  0.9304
  194MOL0     H26145   0.429   4.528   5.216 -1.5373 -1.8790  0.3924
  194MOL0     H26146   0.655   4.623   5.160  3.1562  0.5270 -0.4631
  194MOL0     H26147   0.701   4.458   5.098 -1.7834 -0.9521 -0.1802
  194MOL0     H26148   0.592   4.550   5.370 -0.2699 -0.0237 -0.2348
  194MOL0     H26149   0.768   4.543   5.331  1.3105 -2.1336 -0.4699
  194MOL0     H26150   0.603   4.247   5.583  0.4378  0.3088 -1.1793
  194MOL0     H26151   0.635   4.135   5.761  1.0820  1.8115  2.5500
  194MOL0     H26152   0.751   3.997   5.756 -0.3229  0.4916 -2.3030
  194MOL0     H26153   0.787   4.143   5.856  0.2412  2.3571  0.4791
  194MOL0     H26154   1.167   3.762   5.543  2.3192 -1.5847 -0.7910
  194MOL0     H26155   1.346   3.619   5.616  1.8565  0.1607 -1.2455
  194MOL0     H26156   1.407   3.545   5.895 -0.8241  3.4881  0.0573
  194MOL0     H26157   1.512   3.486   5.760  1.3494 -1.1336  1.1834
  194MOL0     H26158   1.596   3.582   6.030  2.1186  0.0339  0.2615
  194MOL0     H26159   1.591   3.422   5.973 -3.0695 -0.8408 -0.8770
  194MOL0     H26160   1.776   3.660   5.884  0.3249 -0.1162 -1.3560
  194MOL0     H26161   1.766   3.508   5.793 -1.8494 -0.9366  0.3718
  194MOL0     H26162   1.832   3.382   6.015  1.7844  0.1991  1.3225
  194MOL0     H26163   1.962   3.482   5.960  0.8443 -0.4687  1.1912
  194MOL0     H26164   1.914   3.664   6.113  1.7837 -0.6444 -0.9354
  194MOL0     H26165   1.959   3.515   6.197  1.2530 -0.9924 -1.1660
  194MOL0     H26166   1.682   3.646   6.194  0.3917  0.4617 -1.1859
  194MOL0     H26167   1.703   3.476   6.208 -2.1259  0.4547 -2.9478
  194MOL0     H26168   1.885   3.638   6.379 -1.1279  1.1720 -0.7382
  194MOL0     H26169   1.802   3.478   6.411 -1.1887 -1.2239 -0.8019
  194MOL0     H26170   1.677   3.757   6.404  0.6513  0.6178  1.4376
  194MOL0     H26171   1.721   3.694   6.548 -0.1044  2.6988 -1.0489
  194MOL0     H26172   1.486   3.948   5.868 -0.3807  0.5119 -1.5801
  194MOL0     H26173   1.313   4.089   5.763 -1.4693  0.1233 -0.1068
  194MOL0     H26174   1.083   4.227   5.467 -0.1300 -1.8387 -2.5439
  194MOL0     H26175   0.928   4.364   5.339  0.2209 -0.6053 -0.4976
  194MOL0     H26176   0.472   4.198   3.835  2.2691  0.5796 -0.9561
  194MOL0     H26177   0.475   4.073   3.626  2.8244  0.3915  0.0535
  194MOL0     H26178   0.674   3.602   3.565  1.3938 -0.1105 -1.2489
  194MOL0     H26179   0.746   3.421   3.433 -1.0040 -1.6208 -0.8836
  194MOL0     H26180   0.596   3.263   3.037  2.2530 -1.0104 -0.8024
  194MOL0     H26181   0.633   3.445   3.019  1.5713  1.1587 -3.3318
  194MOL0     H26182   0.761   3.296   2.876 -1.5343 -0.1597 -0.2349
  194MOL0     H26183   0.831   3.215   3.017  0.1814  0.2603  2.3483
  194MOL0     H26184   0.953   3.421   3.076 -0.8121 -0.3782  0.5948
  194MOL0     H26185   0.851   3.530   2.969 -0.1272  0.5265 -0.7549
  194MOL0     H26186   0.956   3.399   2.770 -0.4452  1.6770 -0.1078
  194MOL0     H26187   1.032   3.305   2.888 -0.2496  0.2462 -0.6706
  194MOL0     H26188   1.238   3.668   2.942  1.5559 -1.3184  1.3897
  194MOL0     H26189   0.460   3.506   3.136 -1.1512  1.2264 -0.6371
  194MOL0     H26190   0.381   3.697   3.287 -0.1880  0.3349 -0.7688
  195MOL0     O26191   4.832  10.111   1.541 -0.1781  0.1360  0.8040
  195MOL0     C26192   4.810  10.157   1.427  0.5768 -0.3602  0.2102
  195MOL0     O26193   4.771  10.081   1.315 -1.0748 -0.5341 -0.0605
  195MOL0     C26194   4.750   9.948   1.322  0.6130 -0.4170  0.3963
  195MOL0     C26195   4.844   9.855   1.342  0.1947  0.8317 -0.5795
  195MOL0     C26196   4.817   9.718   1.319  0.0480  0.3473 -0.6583
  195MOL0     C26197   4.684   9.677   1.279 -0.0244  0.7743 -0.3489
  195MOL0     O26198   4.650   9.545   1.261  0.4796 -0.0785  0.3463
  195MOL0     C26199   4.686   9.454   1.362  0.0500 -0.3256  0.3742
  195MOL0     C26200   4.566   9.360   1.366  0.1601  0.5796  0.0266
  195MOL0     C26201   4.584   9.247   1.467 -0.2107  0.1331  0.6984
  195MOL0     C26202   4.485   9.131   1.460  0.5935  0.2351  0.3524
  195MOL0     C26203   4.516   9.040   1.343  0.3444  0.6069 -0.2906
  195MOL0     C26204   4.428   8.917   1.318 -0.1718  0.2633  0.3653
  195MOL0     C26205   4.487   8.828   1.208  0.4029  0.6233  0.6883
  195MOL0     C26206   4.503   8.897   1.071 -0.4869  0.0226 -0.8879
  195MOL0     N26207   4.484   8.805   0.957 -0.2255 -0.8488  0.3004
  195MOL0     C26208   4.548   8.679   0.944  0.6330 -0.7039 -0.1523
  195MOL0     C26209   4.481   8.625   0.840 -0.3490  0.4047  0.4768
  195MOL0     C26210   4.511   8.483   0.794 -0.5316 -0.6809  0.3689
  195MOL0     C26211   4.380   8.404   0.768  0.0275  0.2987 -0.1287
  195MOL0     C26212   4.316   8.347   0.902 -0.4565  0.0590  0.4699
  195MOL0     C26213   4.179   8.279   0.874  0.0828 -0.9326 -0.1422
  195MOL0     O26214   4.104   8.371   0.794  0.1180 -0.8358  0.7125
  195MOL0     C26215   3.996   8.315   0.725 -0.2530 -0.1459 -1.7912
  195MOL0     C26216   3.949   8.178   0.723 -0.3171 -0.3591 -0.1707
  195MOL0     C26217   3.830   8.142   0.659 -0.5755  0.3028  0.5479
  195MOL0     C26218   3.793   7.995   0.668 -0.2948 -0.6655 -0.8621
  195MOL0     C26219   3.759   8.240   0.591 -0.7361 -0.0378  0.1932
  195MOL0     C26220   3.626   8.210   0.526  0.2743 -0.7623  0.5543
  195MOL0     O26221   3.637   8.222   0.390  0.2926  0.7063 -0.0647
  195MOL0     C26222   3.545   8.180   0.293  0.8820 -0.1616 -0.9458
  195MOL0     C26223   3.439   8.097   0.317 -0.7466  0.1695 -0.0182
  195MOL0     C26224   3.358   8.044   0.215 -0.0926 -0.9556 -0.3455
  195MOL0     C26225   3.374   8.107   0.090  0.6564  1.1084  0.1417
  195MOL0     O26226   3.285   8.067  -0.007 -0.6754  0.6629 -0.3061
  195MOL0     C26227   3.217   8.172  -0.072  0.4997 -0.2755 -0.2075
  195MOL0     C26228   3.166   8.102  -0.202 -0.6332 -0.2291  0.1266
  195MOL0     C26229   3.284   8.080  -0.296  0.0258 -0.4361  0.2138
  195MOL0     C26230   3.241   7.979  -0.410 -0.1586 -0.4706  0.6337
  195MOL0     C26231   3.353   7.966  -0.509 -0.7320 -1.0432 -0.3297
  195MOL0     C26232   3.301   7.889  -0.637 -0.5293  0.2964 -0.0141
  195MOL0     C26233   3.297   7.739  -0.615 -0.1326 -0.3407 -0.0691
  195MOL0     C26234   3.265   7.677  -0.744 -0.3161  1.0076 -0.4222
  195MOL0    Cl26235   3.102   7.689  -0.799  0.1852  0.4998 -0.0077
  195MOL0     C26236   3.477   8.198   0.064  0.9330  0.3222 -0.3006
  195MOL0     C26237   3.562   8.234   0.168  0.7865  0.0510  0.5904
  195MOL0     O26238   3.541   8.148   0.591  0.1391 -0.6286  0.1901
  195MOL0     C26239   3.806   8.374   0.585 -0.0950  0.2531  0.1358
  195MOL0     C26240   3.923   8.407   0.643 -0.1357  1.7544  0.3600
  195MOL0     N26241   4.391   8.717   0.786  0.5438  0.5269  0.0921
  195MOL0     N26242   4.408   8.825   0.851  0.5621  0.2123 -1.1394
  195MOL0     C26243   4.585   9.777   1.258 -0.9562 -0.2853  0.0553
  195MOL0     C26244   4.620   9.908   1.287  0.8087 -0.1073 -0.0952
  195MOL0     C26245   4.864  10.293   1.399  0.3523 -0.2739 -0.8270
  195MOL0     C26246   4.914  10.318   1.269 -0.2260 -0.1895 -0.4491
  195MOL0     C26247   4.963  10.439   1.240 -0.0653  0.7005  0.3242
  195MOL0     C26248   4.974  10.541   1.333  0.3191 -0.0766  0.2327
  195MOL0     O26249   5.016  10.666   1.301  0.5485  0.4720  0.1162
  195MOL0     C26250   5.106  10.673   1.191 -0.1469 -0.6020 -0.6264
  195MOL0     C26251   5.171  10.812   1.194  0.0719 -1.0326 -0.1963
  195MOL0     C26252   5.261  10.807   1.073 -0.3474 -0.1488  0.0536
  195MOL0     C26253   5.322  10.940   1.034 -0.0800  0.0921 -0.2854
  195MOL0     C26254   5.431  10.972   1.121 -0.2884 -0.0665  0.8457
  195MOL0     C26255   5.533  10.980   1.189 -1.2115  0.1212 -0.5786
  195MOL0     C26256   4.927  10.522   1.459 -1.0978  0.3629  0.1431
  195MOL0     C26257   4.886  10.394   1.499  1.6402  0.3458  0.9078
  195MOL0     H26258   4.943   9.894   1.363  0.0694  0.4597  0.7930
  195MOL0     H26259   4.890   9.639   1.333 -0.5440 -0.1541 -0.3352
  195MOL0     H26260   4.780   9.407   1.331  2.2341  3.3787  0.7525
  195MOL0     H26261   4.693   9.489   1.465 -0.3705 -0.9347  0.6117
  195MOL0     H26262   4.483   9.427   1.393  1.7932  3.4281 -1.5063
  195MOL0     H26263   4.539   9.324   1.267 -2.2470  0.6880  0.5652
  195MOL0     H26264   4.686   9.209   1.456 -0.2872 -1.0020  3.2662
  195MOL0     H26265   4.586   9.293   1.566  0.9017  0.5372  0.5046
  195MOL0     H26266   4.486   9.077   1.555 -1.6905 -2.0745 -0.8175
  195MOL0     H26267   4.382   9.168   1.458  0.3660 -0.4043 -1.1586
  195MOL0     H26268   4.512   9.085   1.243 -4.4472 -0.8454 -1.0139
  195MOL0     H26269   4.613   8.998   1.371 -0.9173 -1.5807  1.0709
  195MOL0     H26270   4.412   8.872   1.417 -1.3524  2.3221  1.1824
  195MOL0     H26271   4.332   8.949   1.278 -0.0756 -1.2930 -1.2241
  195MOL0     H26272   4.587   8.794   1.235  2.0042  2.1015 -2.7138
  195MOL0     H26273   4.437   8.732   1.192  0.9979  0.5047 -0.5729
  195MOL0     H26274   4.594   8.957   1.068  1.1063 -2.2868 -0.6686
  195MOL0     H26275   4.424   8.973   1.069 -1.6718 -1.1411 -0.0047
  195MOL0     H26276   4.627   8.629   0.998  3.8041  1.7671 -2.1187
  195MOL0     H26277   4.561   8.487   0.697 -0.3781  1.7181  0.5049
  195MOL0     H26278   4.574   8.433   0.868 -2.7158 -0.2106  2.6860
  195MOL0     H26279   4.399   8.313   0.712  1.8219 -1.7283  3.4063
  195MOL0     H26280   4.311   8.468   0.711 -0.6668 -2.3509 -2.4820
  195MOL0     H26281   4.307   8.418   0.985  3.7315 -0.6014  1.7075
  195MOL0     H26282   4.382   8.267   0.936  1.2979  0.6675 -1.3858
  195MOL0     H26283   4.136   8.270   0.974  1.0820 -1.3220  0.2709
  195MOL0     H26284   4.201   8.183   0.826 -0.7850 -0.1165 -2.3462
  195MOL0     H26285   3.993   8.103   0.789 -1.0014  2.2522  3.5743
  195MOL0     H26286   3.723   7.988   0.752  2.1784 -0.7494  1.3168
  195MOL0     H26287   3.758   7.946   0.576 -2.3637 -1.5164  0.2993
  195MOL0     H26288   3.877   7.938   0.708 -0.8478 -1.5089 -0.8627
  195MOL0     H26289   3.428   8.052   0.415  3.0641  3.0249  2.0221
  195MOL0     H26290   3.274   7.981   0.242 -2.4830  1.7260 -1.0845
  195MOL0     H26291   3.127   8.206  -0.020  0.8789  2.1534 -0.9964
  195MOL0     H26292   3.278   8.261  -0.090 -1.2686  0.8986 -0.5854
  195MOL0     H26293   3.130   8.002  -0.175 -1.6663 -0.2329 -1.1754
  195MOL0     H26294   3.089   8.161  -0.252  0.6387  1.6306  0.2780
  195MOL0     H26295   3.369   8.038  -0.241  0.8923  0.3611 -0.4755
  195MOL0     H26296   3.314   8.179  -0.331 -2.1865  0.5480  0.9154
  195MOL0     H26297   3.203   7.883  -0.374 -2.7472  0.1173 -0.3287
  195MOL0     H26298   3.157   8.015  -0.470  0.0376  0.6514  1.0040
  195MOL0     H26299   3.431   7.904  -0.464 -1.4846 -2.3850 -0.8194
  195MOL0     H26300   3.392   8.062  -0.543  1.6846 -2.0281 -0.5253
  195MOL0     H26301   3.201   7.923  -0.664 -1.8316 -1.1810  2.5617
  195MOL0     H26302   3.374   7.899  -0.718 -0.1387 -4.2408 -0.4619
  195MOL0     H26303   3.221   7.716  -0.540 -0.5188 -1.5626 -0.7995
  195MOL0     H26304   3.390   7.710  -0.566 -0.2807  1.9211  1.7657
  195MOL0     H26305   3.297   7.572  -0.748 -2.0271  0.4576 -0.6616
  195MOL0     H26306   3.324   7.727  -0.820  1.8146  1.3728  1.3659
  195MOL0     H26307   3.480   8.237  -0.037  1.4305 -2.5073 -1.4950
  195MOL0     H26308   3.625   8.320   0.147 -0.1990  0.2802 -1.7770
  195MOL0     H26309   3.770   8.452   0.518  0.9477  0.9130  0.3089
  195MOL0     H26310   3.964   8.504   0.615 -0.0380  1.2001 -1.5924
  195MOL0     H26311   4.485   9.742   1.231 -2.4279  0.4679  3.8804
  195MOL0     H26312   4.551   9.991   1.278  0.3792 -0.1025  2.5608
  195MOL0     H26313   4.910  10.241   1.193  0.3202  0.5200 -1.2095
  195MOL0     H26314   4.997  10.471   1.142  1.6229  2.3166  1.3686
  195MOL0     H26315   5.183  10.595   1.191  0.3722 -0.0916 -0.3644
  195MOL0     H26316   5.058  10.652   1.095 -1.1961 -0.8981 -0.0580
  195MOL0     H26317   5.226  10.836   1.285 -0.6108 -1.9951  0.4910
  195MOL0     H26318   5.084  10.876   1.178 -2.1203 -2.7911  3.2801
  195MOL0     H26319   5.201  10.788   0.983 -0.2183 -0.3389  0.0090
  195MOL0     H26320   5.344  10.737   1.079  1.3680  1.7716 -0.0912
  195MOL0     H26321   5.259  11.029   1.041 -0.9790 -0.4192 -1.5460
  195MOL0     H26322   5.348  10.924   0.929 -2.9923 -3.4504 -0.6566
  195MOL0     H26323   5.616  10.997   1.255 -0.8254 -2.1627 -0.3823
  195MOL0     H26324   4.943  10.601   1.532 -1.5390 -0.6273  1.3476
  195MOL0     H26325   4.856  10.377   1.602 -2.0669 -0.3318 -0.1422
  196MOL0     O26326   9.891   3.769   0.105  0.5730 -0.7162  0.1016
  196MOL0     C26327   9.829   3.667   0.141  0.2663  0.1101 -0.6734
  196MOL0     O26328   9.842   3.592   0.267 -0.0721 -0.6424  0.0008
  196MOL0     C26329   9.917   3.642   0.363 -0.9420  1.0175  0.0917
  196MOL0     C26330   9.856   3.617   0.485 -0.2232  0.1905  0.2980
  196MOL0     C26331   9.917   3.670   0.595 -0.0882 -0.0610 -0.5780
  196MOL0     C26332  10.035   3.747   0.593  0.5305  0.0797 -0.2823
  196MOL0     O26333  10.092   3.794   0.708 -0.2741  0.2133 -0.2961
  196MOL0     C26334  10.082   3.711   0.817 -0.8246  0.6201 -0.2420
  196MOL0     C26335  10.218   3.718   0.888  0.5623 -0.1886 -0.7262
  196MOL0     C26336  10.224   3.645   1.029 -0.4622  1.3559  0.5439
  196MOL0     C26337  10.185   3.493   1.017  0.0098  0.2032  0.0729
  196MOL0     C26338  10.247   3.392   1.113  0.5161  0.0877 -0.7888
  196MOL0     C26339  10.238   3.433   1.259 -0.2061  0.8338  0.0993
  196MOL0     C26340  10.324   3.342   1.352  0.4567  0.1263  0.2595
  196MOL0     C26341  10.281   3.201   1.361  0.5112  0.2596  0.6256
  196MOL0     N26342  10.399   3.120   1.397  0.0429 -0.0297 -0.3576
  196MOL0     C26343  10.437   3.098   1.520  0.9400 -0.2280 -0.4008
  196MOL0     C26344  10.491   2.979   1.516 -0.5620  0.9660 -0.0959
  196MOL0     C26345  10.530   2.899   1.639  0.0099 -0.2542  0.7616
  196MOL0     C26346  10.529   2.743   1.608  0.2407 -0.0398 -0.0013
  196MOL0     C26347  10.581   2.676   1.744  0.6407 -0.2144 -0.0406
  196MOL0     C26348  10.496   2.689   1.873 -1.0857 -0.4982  0.0869
  196MOL0     O26349  10.360   2.683   1.836 -0.3142 -0.7259  0.4517
  196MOL0     C26350  10.277   2.744   1.928  0.0187  0.3989  0.6165
  196MOL0     C26351  10.212   2.859   1.892 -1.0202 -0.3322  0.3939
  196MOL0     C26352  10.118   2.931   1.962 -0.8615  0.1988 -0.1601
  196MOL0     C26353  10.082   3.064   1.908  0.2192  0.2839  0.6486
  196MOL0     C26354  10.096   2.895   2.096  0.0120 -0.1731  0.3843
  196MOL0     C26355  10.007   2.968   2.190 -0.0488  0.3994  0.3803
  196MOL0     O26356   9.962   2.893   2.294 -0.1860 -0.2433  0.7839
  196MOL0     C26357   9.855   2.940   2.364  0.9496  0.1979 -0.2926
  196MOL0     C26358   9.865   3.010   2.484 -0.7471 -0.3804  0.2806
  196MOL0     C26359   9.752   3.034   2.562  0.6768 -0.3937  0.1605
  196MOL0     C26360   9.620   2.987   2.522  0.9762  0.1707 -0.0847
  196MOL0     O26361   9.505   3.007   2.590  0.5033  0.5018 -1.0238
  196MOL0     C26362   9.516   3.097   2.712  0.0823 -0.0523  0.1715
  196MOL0     C26363   9.373   3.167   2.719 -1.4420  0.5407  0.0937
  196MOL0     C26364   9.321   3.228   2.587  0.0617 -1.3982 -0.1775
  196MOL0     C26365   9.410   3.343   2.524 -0.0370  0.3195  0.5063
  196MOL0     C26366   9.531   3.303   2.434 -0.3117 -0.1028  0.0400
  196MOL0     C26367   9.558   3.396   2.322  0.5172 -0.8233  0.6316
  196MOL0     C26368   9.660   3.328   2.218  0.5335  0.4856 -0.2205
  196MOL0     C26369   9.737   3.436   2.163 -0.1548 -0.0414  1.2836
  196MOL0    Cl26370   9.651   3.593   2.114 -0.4746  0.1043 -0.0872
  196MOL0     C26371   9.617   2.918   2.401  0.8501 -0.0278 -0.3808
  196MOL0     C26372   9.725   2.904   2.329 -0.8288 -0.5331  0.7304
  196MOL0     O26373   9.963   3.082   2.163  0.3973 -0.3035 -0.1822
  196MOL0     C26374  10.167   2.781   2.145  1.0942  0.8504 -0.2953
  196MOL0     C26375  10.251   2.705   2.064  0.3802 -0.5897  0.1349
  196MOL0     N26376  10.523   2.948   1.388  0.3686  0.3035  0.6899
  196MOL0     N26377  10.469   3.039   1.316 -0.3375 -0.2511 -0.1203
  196MOL0     C26378  10.086   3.780   0.473  0.2098 -0.7617  0.2552
  196MOL0     C26379  10.030   3.727   0.356 -0.0440 -0.7117 -0.3222
  196MOL0     C26380   9.758   3.589   0.030  0.2902 -0.4502 -0.3969
  196MOL0     C26381   9.641   3.509   0.057 -0.3580  0.4896  0.4242
  196MOL0     C26382   9.574   3.440  -0.051  0.4126 -0.1212 -1.1075
  196MOL0     C26383   9.625   3.444  -0.176  0.5055  0.2646 -0.3012
  196MOL0     O26384   9.552   3.362  -0.266  0.8518  0.5601 -0.1282
  196MOL0     C26385   9.592   3.338  -0.401 -0.2871 -0.1800 -0.5897
  196MOL0     C26386   9.500   3.256  -0.490 -0.6745  1.0724 -0.3345
  196MOL0     C26387   9.494   3.104  -0.436 -0.2837 -1.3277  0.5927
  196MOL0     C26388   9.612   3.027  -0.511  0.7809 -0.2589 -0.5744
  196MOL0     C26389   9.631   2.899  -0.459  0.8163 -0.1434  0.1695
  196MOL0     C26390   9.636   2.794  -0.416 -0.3670  0.1766  1.3657
  196MOL0     C26391   9.738   3.520  -0.201 -0.4304 -0.6363  0.2167
  196MOL0     C26392   9.807   3.594  -0.102  0.6118 -0.5863 -0.0422
  196MOL0     H26393   9.779   3.542   0.497  1.1004 -1.1859  0.4860
  196MOL0     H26394   9.872   3.641   0.689 -1.3670 -1.3253 -1.5347
  196MOL0     H26395  10.007   3.744   0.890 -0.5126  1.5172 -0.3168
  196MOL0     H26396  10.062   3.609   0.782  0.3199  1.0466 -2.2937
  196MOL0     H26397  10.281   3.668   0.813 -0.4482  4.0719 -4.8838
  196MOL0     H26398  10.247   3.822   0.902  0.7185 -0.3452  0.2164
  196MOL0     H26399  10.317   3.649   1.086 -1.6058  0.4576  2.5625
  196MOL0     H26400  10.155   3.687   1.103  0.2601  5.5580 -0.9009
  196MOL0     H26401  10.077   3.485   1.004  0.1933  0.7208 -2.1674
  196MOL0     H26402  10.230   3.451   0.927  4.2599  0.3306  1.8629
  196MOL0     H26403  10.198   3.295   1.099  0.0188  0.3156 -0.6501
  196MOL0     H26404  10.352   3.379   1.084  0.5375 -2.5326  0.2221
  196MOL0     H26405  10.269   3.537   1.269  0.0002  1.1049 -2.6940
  196MOL0     H26406  10.130   3.428   1.274 -0.2627  0.1674 -0.4706
  196MOL0     H26407  10.429   3.341   1.321  0.5852 -0.1692  0.7041
  196MOL0     H26408  10.314   3.375   1.456 -1.0387 -1.3217  0.5988
  196MOL0     H26409  10.242   3.161   1.267 -1.3077 -1.5970  2.0768
  196MOL0     H26410  10.206   3.196   1.440 -0.6455 -2.9974 -0.5112
  196MOL0     H26411  10.410   3.155   1.608 -0.4695 -0.7253 -0.4827
  196MOL0     H26412  10.630   2.938   1.659 -0.6274  1.3527  0.9186
  196MOL0     H26413  10.467   2.911   1.727 -1.4434  1.3307 -0.4373
  196MOL0     H26414  10.598   2.727   1.525 -0.9108 -0.8097 -0.8471
  196MOL0     H26415  10.432   2.707   1.571  0.6216  0.3321 -1.4416
  196MOL0     H26416  10.684   2.714   1.749  0.5090  0.5102 -1.7567
  196MOL0     H26417  10.599   2.573   1.714  0.9470 -0.1573 -0.0577
  196MOL0     H26418  10.525   2.779   1.929 -0.8309 -1.3807  1.4164
  196MOL0     H26419  10.509   2.602   1.938 -2.6866 -0.0157  1.1009
  196MOL0     H26420  10.240   2.897   1.795  0.6608  2.0678  1.7045
  196MOL0     H26421  10.126   3.076   1.809  3.6855 -2.0748  1.7343
  196MOL0     H26422   9.975   3.083   1.917  0.0520 -1.2989  2.6085
  196MOL0     H26423  10.137   3.133   1.972  3.1843 -2.3698  1.2201
  196MOL0     H26424   9.962   3.051   2.506 -0.4113 -2.2913  2.9255
  196MOL0     H26425   9.778   3.080   2.657 -1.3165 -3.0419  2.1499
  196MOL0     H26426   9.532   3.050   2.809 -3.0973 -1.3990  0.1647
  196MOL0     H26427   9.602   3.162   2.695  0.7772 -1.2837 -1.0938
  196MOL0     H26428   9.308   3.082   2.742 -0.7505 -0.2150 -0.6870
  196MOL0     H26429   9.370   3.255   2.784 -1.2481  0.9170 -0.4040
  196MOL0     H26430   9.231   3.284   2.612  0.6521 -0.9195  0.9357
  196MOL0     H26431   9.281   3.161   2.510 -2.5091  1.0009 -1.0858
  196MOL0     H26432   9.344   3.397   2.456  0.2315 -2.8896 -2.6067
  196MOL0     H26433   9.446   3.410   2.602 -1.0425  0.8599  0.5273
  196MOL0     H26434   9.517   3.203   2.392 -0.6443 -0.5805  1.2327
  196MOL0     H26435   9.616   3.299   2.503  0.6882 -0.5514 -1.1777
  196MOL0     H26436   9.460   3.412   2.277 -1.4581 -0.1819  4.6612
  196MOL0     H26437   9.599   3.492   2.357  4.2452 -2.1758  0.4870
  196MOL0     H26438   9.613   3.265   2.142  1.6181 -1.0047  0.3160
  196MOL0     H26439   9.729   3.264   2.274  0.3605  0.7111  0.2580
  196MOL0     H26440   9.790   3.396   2.076 -0.5182 -1.6477  1.7677
  196MOL0     H26441   9.812   3.457   2.240 -0.5077  2.1565  1.1012
  196MOL0     H26442   9.522   2.894   2.356  0.3636 -2.3806  1.7157
  196MOL0     H26443   9.725   2.864   2.228  1.1006 -1.3007  0.9933
  196MOL0     H26444  10.154   2.745   2.247 -1.0500 -2.0373 -1.4618
  196MOL0     H26445  10.314   2.624   2.102  1.3516  0.5296  0.9935
  196MOL0     H26446  10.183   3.828   0.466  0.0341 -0.6475 -2.3685
  196MOL0     H26447  10.082   3.748   0.264 -0.2839  0.3922 -0.2185
  196MOL0     H26448   9.591   3.501   0.153 -0.2206  1.6221  0.6148
  196MOL0     H26449   9.487   3.382  -0.023  0.6339  0.4515  0.9636
  196MOL0     H26450   9.605   3.434  -0.451  0.7102 -0.9431 -1.8703
  196MOL0     H26451   9.684   3.279  -0.391 -0.4817 -0.3949 -0.0850
  196MOL0     H26452   9.514   3.268  -0.598 -1.7274 -1.3765 -0.8126
  196MOL0     H26453   9.402   3.301  -0.472 -1.1061 -0.1987  0.6454
  196MOL0     H26454   9.402   3.050  -0.461 -0.5638 -1.4536  1.8352
  196MOL0     H26455   9.508   3.107  -0.327  4.2278  0.5183  0.1479
  196MOL0     H26456   9.704   3.083  -0.490 -0.2607  1.0387  0.7354
  196MOL0     H26457   9.593   3.015  -0.618  1.8634  0.4246 -0.8645
  196MOL0     H26458   9.657   2.705  -0.360  0.1117 -1.2542 -0.9645
  196MOL0     H26459   9.781   3.510  -0.300  0.4226 -0.4216  0.5616
  196MOL0     H26460   9.895   3.642  -0.144 -1.4716  2.5469 -1.2462
  197MOL0     O26461   2.743   2.924   0.511 -0.2204 -0.0857  0.6916
  197MOL0     C26462   2.721   2.920   0.389 -0.2272 -1.0910 -0.1943
  197MOL0     O26463   2.696   2.807   0.315 -0.3098 -0.2002  0.6507
  197MOL0     C26464   2.708   2.677   0.365 -0.0630  0.0366  0.4974
  197MOL0     C26465   2.603   2.587   0.348 -0.1527 -0.2264 -0.2153
  197MOL0     C26466   2.603   2.473   0.424  0.1434  1.3501 -0.5671
  197MOL0     C26467   2.716   2.441   0.503  0.6767 -0.0342  0.4271
  197MOL0     O26468   2.742   2.326   0.569 -0.4317 -1.5877  0.0684
  197MOL0     C26469   2.622   2.274   0.617  1.3650  0.8963  1.0665
  197MOL0     C26470   2.625   2.160   0.722 -0.3725  0.3786 -0.5215
  197MOL0     C26471   2.486   2.108   0.772 -0.6310 -0.2132  0.1248
  197MOL0     C26472   2.420   2.016   0.673 -0.9502 -0.0611 -1.4545
  197MOL0     C26473   2.273   1.991   0.728 -0.6927  0.6497 -0.0572
  197MOL0     C26474   2.202   1.882   0.653 -0.3784 -0.0171 -0.3353
  197MOL0     C26475   2.175   1.913   0.505 -1.2416 -0.9983 -0.0822
  197MOL0     C26476   2.087   2.036   0.484 -0.0634  0.2158  0.0309
  197MOL0     N26477   2.163   2.155   0.428 -0.6990  0.1531  1.2392
  197MOL0     C26478   2.179   2.183   0.293  0.8653 -0.8590  0.7202
  197MOL0     C26479   2.238   2.301   0.288 -0.5474 -1.2149 -1.0272
  197MOL0     C26480   2.287   2.381   0.176  0.9019  0.2636 -0.4656
  197MOL0     C26481   2.318   2.304   0.042 -0.1795  0.9916 -0.2655
  197MOL0     C26482   2.191   2.260  -0.033 -0.0735 -0.7443  0.3833
  197MOL0     C26483   2.223   2.222  -0.181  0.8920  0.9790 -0.2909
  197MOL0     O26484   2.335   2.128  -0.191 -0.4566  1.1703 -0.0208
  197MOL0     C26485   2.313   1.996  -0.222  0.2379 -1.0778  0.6624
  197MOL0     C26486   2.429   1.923  -0.226  0.2252  0.7503  0.0638
  197MOL0     C26487   2.427   1.792  -0.290  0.3413  0.1487 -0.0089
  197MOL0     C26488   2.552   1.721  -0.288  0.4828 -0.8831 -1.2293
  197MOL0     C26489   2.308   1.744  -0.344 -1.0825 -0.4255 -1.0033
  197MOL0     C26490   2.302   1.619  -0.412 -0.8468  0.0878  0.9723
  197MOL0     O26491   2.202   1.611  -0.506  0.0659 -0.2165  0.3223
  197MOL0     C26492   2.194   1.510  -0.597 -0.7515 -0.1901 -0.2297
  197MOL0     C26493   2.158   1.388  -0.551 -0.0730  0.0117 -0.8281
  197MOL0     C26494   2.149   1.275  -0.630  0.0795  0.2352 -1.3450
  197MOL0     C26495   2.187   1.284  -0.758 -0.1991  0.6046  1.1065
  197MOL0     O26496   2.200   1.160  -0.821 -0.0960 -0.5427  0.2089
  197MOL0     C26497   2.188   1.159  -0.963  0.2914  0.0336  0.7467
  197MOL0     C26498   2.144   1.022  -1.026  0.3063 -0.1530 -0.5020
  197MOL0     C26499   2.264   0.918  -1.040 -0.2821  0.2822  0.2386
  197MOL0     C26500   2.225   0.820  -1.146  0.2568  1.4719  0.3795
  197MOL0     C26501   2.310   0.689  -1.136  0.4624 -0.2441  0.2180
  197MOL0     C26502   2.215   0.574  -1.166 -0.2040 -0.0438 -0.5027
  197MOL0     C26503   2.131   0.570  -1.291 -0.8483  0.3278 -0.0353
  197MOL0     C26504   2.221   0.557  -1.411  0.3704 -0.1928 -0.2084
  197MOL0    Cl26505   2.282   0.390  -1.435  0.2890 -0.1932 -0.1188
  197MOL0     C26506   2.234   1.400  -0.811 -0.5875 -0.1334 -0.3174
  197MOL0     C26507   2.234   1.518  -0.732  1.3025  0.4155 -0.5273
  197MOL0     O26508   2.398   1.533  -0.406 -0.4052 -0.2216 -0.0514
  197MOL0     C26509   2.187   1.819  -0.328 -0.1453  0.1470 -0.7968
  197MOL0     C26510   2.188   1.944  -0.267  0.3933  0.3285 -0.3559
  197MOL0     N26511   2.259   2.346   0.413 -0.0350 -0.1499 -0.1118
  197MOL0     N26512   2.202   2.266   0.493  0.4406 -0.3350  0.6094
  197MOL0     C26513   2.825   2.524   0.490 -0.0066  0.3021  0.1358
  197MOL0     C26514   2.824   2.644   0.428  0.5909  0.5037 -0.8856
  197MOL0     C26515   2.702   3.050   0.320  0.7652  0.0410 -0.3040
  197MOL0     C26516   2.691   3.060   0.182 -0.3894  1.1883  0.8222
  197MOL0     C26517   2.695   3.189   0.121 -0.6904  0.2792  0.1396
  197MOL0     C26518   2.711   3.310   0.196  0.2227  0.6047  0.7797
  197MOL0     O26519   2.711   3.436   0.145 -0.6805 -0.3050  0.0172
  197MOL0     C26520   2.702   3.457  -0.000 -1.3047  0.6684 -0.5401
  197MOL0     C26521   2.713   3.606  -0.038 -1.4369 -0.1604  0.1529
  197MOL0     C26522   2.584   3.684  -0.018  0.0063 -0.0951  0.0207
  197MOL0     C26523   2.599   3.827  -0.078  0.3242  0.1368  0.5648
  197MOL0     C26524   2.587   3.818  -0.223  0.7484 -0.1593  0.8543
  197MOL0     C26525   2.579   3.793  -0.343 -0.7230  0.0255  0.7999
  197MOL0     C26526   2.723   3.293   0.332 -0.1520 -0.5929  0.0264
  197MOL0     C26527   2.718   3.168   0.402 -0.0445  0.3366  0.1715
  197MOL0     H26528   2.520   2.624   0.288  0.2326 -1.8635 -1.8447
  197MOL0     H26529   2.523   2.400   0.425  1.0351  0.2833  2.3140
  197MOL0     H26530   2.564   2.348   0.673  0.7799  0.2288  1.3641
  197MOL0     H26531   2.563   2.237   0.533 -0.2554  0.9061  2.1493
  197MOL0     H26532   2.686   2.077   0.685  0.3924  0.2559  0.9212
  197MOL0     H26533   2.676   2.212   0.804 -3.2358  2.8883 -0.1417
  197MOL0     H26534   2.498   2.055   0.867  1.8652  4.9706  3.1497
  197MOL0     H26535   2.424   2.192   0.805  0.9870  0.8347  0.5979
  197MOL0     H26536   2.417   2.078   0.583 -2.6000 -0.0315 -1.4101
  197MOL0     H26537   2.482   1.926   0.661 -0.0167 -0.3428  3.4990
  197MOL0     H26538   2.263   1.973   0.836 -1.9570 -2.1169 -0.5527
  197MOL0     H26539   2.213   2.082   0.722  2.1497  2.9168  2.5388
  197MOL0     H26540   2.285   1.811   0.657  0.9404  1.4877  3.5850
  197MOL0     H26541   2.106   1.850   0.696 -0.0608 -1.3739 -0.5978
  197MOL0     H26542   2.274   1.939   0.466 -1.7143  0.6154 -0.2808
  197MOL0     H26543   2.144   1.824   0.450  0.6104 -1.2683 -0.7847
  197MOL0     H26544   2.043   2.073   0.577 -1.6767  1.5001 -1.1785
  197MOL0     H26545   2.008   2.010   0.413 -0.3081  1.1905 -0.0743
  197MOL0     H26546   2.158   2.121   0.207  0.6216 -0.0567  0.1924
  197MOL0     H26547   2.225   2.467   0.150  1.8353  1.6681  1.7057
  197MOL0     H26548   2.376   2.437   0.205  1.0991 -0.2029 -0.1624
  197MOL0     H26549   2.386   2.218   0.049  0.3402  1.4914  0.9798
  197MOL0     H26550   2.372   2.374  -0.022  0.6209 -0.9985 -1.9003
  197MOL0     H26551   2.117   2.341  -0.030 -1.8987 -2.3443  2.5485
  197MOL0     H26552   2.146   2.171   0.012 -1.3644  0.5557  1.7502
  197MOL0     H26553   2.256   2.320  -0.217  0.8237  0.2216 -2.5260
  197MOL0     H26554   2.130   2.202  -0.235  0.0935 -0.7441  1.5802
  197MOL0     H26555   2.520   1.968  -0.187  0.2059  0.0319  0.9839
  197MOL0     H26556   2.617   1.783  -0.226  0.8770 -1.0839 -1.4411
  197MOL0     H26557   2.547   1.626  -0.235  1.5300  0.3371  1.2112
  197MOL0     H26558   2.579   1.719  -0.394  0.4409 -1.5220 -1.2290
  197MOL0     H26559   2.126   1.380  -0.448  4.1046 -3.6623  0.4937
  197MOL0     H26560   2.117   1.181  -0.585  4.9361 -1.1827 -0.2507
  197MOL0     H26561   2.111   1.231  -0.992 -0.5542 -0.7774  0.9191
  197MOL0     H26562   2.284   1.178  -1.012  0.1374 -0.7783  0.1070
  197MOL0     H26563   2.065   0.972  -0.968  0.1423  1.2752  0.5729
  197MOL0     H26564   2.098   1.051  -1.121  0.9075 -1.3086 -1.1687
  197MOL0     H26565   2.269   0.870  -0.942 -1.7621 -1.7384 -0.6078
  197MOL0     H26566   2.356   0.974  -1.060  1.8397 -2.3257  2.0991
  197MOL0     H26567   2.118   0.802  -1.133 -0.0001  1.4086 -1.5160
  197MOL0     H26568   2.232   0.863  -1.246 -0.2351 -0.2666 -0.4392
  197MOL0     H26569   2.357   0.665  -1.040 -0.8277 -3.7152  0.1051
  197MOL0     H26570   2.396   0.698  -1.203  1.5272  3.8429  1.7772
  197MOL0     H26571   2.267   0.478  -1.161 -0.4433 -0.1628  4.5537
  197MOL0     H26572   2.152   0.588  -1.078  1.5627  1.7266  0.5542
  197MOL0     H26573   2.075   0.663  -1.301  2.1681  2.3945  0.6239
  197MOL0     H26574   2.068   0.481  -1.281  0.5137 -0.6761 -0.0133
  197MOL0     H26575   2.299   0.633  -1.420 -1.7042  2.2172  0.9779
  197MOL0     H26576   2.157   0.567  -1.499  0.5730  0.4817 -0.2869
  197MOL0     H26577   2.272   1.404  -0.912 -1.0218 -3.9721 -0.7785
  197MOL0     H26578   2.283   1.606  -0.773 -1.8754  3.4199  1.4994
  197MOL0     H26579   2.089   1.782  -0.355 -0.1693 -0.8425  0.5215
  197MOL0     H26580   2.089   1.987  -0.274 -0.5421 -1.2015  2.2295
  197MOL0     H26581   2.914   2.519   0.552  0.3244  0.9440 -0.2848
  197MOL0     H26582   2.900   2.721   0.440  1.8540 -0.9482  0.9547
  197MOL0     H26583   2.697   2.969   0.123 -0.5618 -0.5666  3.3797
  197MOL0     H26584   2.674   3.193   0.015  2.5789 -1.5222 -0.6921
  197MOL0     H26585   2.783   3.405  -0.054 -1.7525 -0.0834 -0.5028
  197MOL0     H26586   2.610   3.410  -0.037 -0.3035 -2.9512  1.0622
  197MOL0     H26587   2.744   3.604  -0.143  0.7624 -1.8368  0.7732
  197MOL0     H26588   2.791   3.654   0.021 -2.1410  0.2140  0.8069
  197MOL0     H26589   2.562   3.700   0.088  2.1026  0.2512  0.4440
  197MOL0     H26590   2.501   3.624  -0.057  0.1193 -1.7081  2.0715
  197MOL0     H26591   2.692   3.881  -0.061  0.3294  0.3511 -0.1423
  197MOL0     H26592   2.512   3.886  -0.047 -1.9265 -2.4662 -0.3673
  197MOL0     H26593   2.583   3.792  -0.450 -0.4314 -0.7391  0.8165
  197MOL0     H26594   2.748   3.380   0.393 -0.4528 -0.5013  0.0225
  197MOL0     H26595   2.743   3.162   0.507 -0.0151 -1.0666  0.1047
  198MOL0     O26596   2.780   9.784   5.389  0.7130  0.8047 -0.8836
  198MOL0     C26597   2.811   9.739   5.280 -0.0839  0.2723  0.4207
  198MOL0     O26598   2.788   9.814   5.163  0.2832  0.3478  0.1772
  198MOL0     C26599   2.740   9.936   5.185 -0.3128 -0.2650 -0.0335
  198MOL0     C26600   2.607   9.957   5.171  0.4804 -1.7824 -0.2576
  198MOL0     C26601   2.555  10.090   5.196  0.5797  0.3642 -0.1510
  198MOL0     C26602   2.641  10.195   5.208  0.7509  0.0992 -0.7518
  198MOL0     O26603   2.577  10.313   5.224  0.2166 -0.0334  0.4724
  198MOL0     C26604   2.628  10.429   5.149 -0.8939  0.2211 -0.3738
  198MOL0     C26605   2.554  10.556   5.192 -0.0853  0.2419 -0.4912
  198MOL0     C26606   2.646  10.623   5.298  1.3498  0.3096  0.1801
  198MOL0     C26607   2.557  10.735   5.365  1.1725 -0.2698  0.6221
  198MOL0     C26608   2.639  10.781   5.491 -0.0429 -0.4900 -0.4540
  198MOL0     C26609   2.571  10.872   5.585  0.4386 -1.1044  0.9509
  198MOL0     C26610   2.663  10.911   5.700 -0.1044  0.2780  0.6529
  198MOL0     C26611   2.575  11.002   5.794  0.5491 -0.2688 -0.3991
  198MOL0     N26612   2.641  11.019   5.922  0.3048 -0.3337  0.6539
  198MOL0     C26613   2.751  11.097   5.940  0.1839 -0.8545  0.6119
  198MOL0     C26614   2.750  11.120   6.075 -0.0190  0.3177  0.0619
  198MOL0     C26615   2.839  11.219   6.154 -0.8572 -0.4493  0.1007
  198MOL0     C26616   2.767  11.354   6.158  0.0609  0.4981  0.0428
  198MOL0     C26617   2.793  11.435   6.023  0.0100 -1.7227  0.0857
  198MOL0     C26618   2.793  11.590   6.041 -0.2658  0.3860 -0.0473
  198MOL0     O26619   2.897  11.631   6.142  0.2789 -0.1657  0.0072
  198MOL0     C26620   2.952  11.749   6.111  0.1141  0.3018 -0.7165
  198MOL0     C26621   3.092  11.764   6.136 -0.0572  0.1429 -0.0657
  198MOL0     C26622   3.152  11.890   6.137 -0.4167  0.5087  0.4267
  198MOL0     C26623   3.300  11.870   6.179 -0.1002 -0.6529 -0.1022
  198MOL0     C26624   3.077  12.013   6.104  0.2580 -0.2740 -0.3919
  198MOL0     C26625   3.149  12.144   6.085 -1.1502  0.0936  0.5444
  198MOL0     O26626   3.066  12.242   6.056  0.4828  0.5139  0.0141
  198MOL0     C26627   3.109  12.344   5.979  0.7502 -0.5035  0.8595
  198MOL0     C26628   3.087  12.472   6.029 -0.4731 -0.0702 -0.0827
  198MOL0     C26629   3.118  12.586   5.956  0.6222  0.4000 -0.2610
  198MOL0     C26630   3.193  12.579   5.844  0.6434  0.1411  0.6933
  198MOL0     O26631   3.268  12.684   5.795 -0.5824 -0.2331  0.0143
  198MOL0     C26632   3.269  12.804   5.869  0.5928 -0.4097  0.6143
  198MOL0     C26633   3.390  12.885   5.831  0.3662 -0.0406  0.5219
  198MOL0     C26634   3.385  12.950   5.695 -0.5613 -0.5627  0.5004
  198MOL0     C26635   3.526  12.985   5.640 -0.5746 -0.2398 -0.0050
  198MOL0     C26636   3.518  13.047   5.493  0.6594 -0.1312 -1.1025
  198MOL0     C26637   3.444  13.173   5.471  0.1786 -1.1542  0.1983
  198MOL0     C26638   3.400  13.182   5.317  0.2216 -0.6894 -0.0554
  198MOL0     C26639   3.326  13.309   5.285 -0.0781 -0.2014  0.7206
  198MOL0    Cl26640   3.150  13.331   5.350 -0.3966 -0.3337  0.2496
  198MOL0     C26641   3.211  12.457   5.786  0.7678  0.4443 -0.5958
  198MOL0     C26642   3.163  12.344   5.847  0.2337  0.2322 -0.0027
  198MOL0     O26643   3.272  12.149   6.102 -1.0358  0.1196  0.0950
  198MOL0     C26644   2.943  12.000   6.088  0.1297 -0.0725  0.3075
  198MOL0     C26645   2.875  11.870   6.078  0.2636  0.7634 -0.8343
  198MOL0     N26646   2.642  11.049   6.128 -0.4039 -0.6488  0.0240
  198MOL0     N26647   2.583  10.986   6.035  0.1845 -0.3199  0.0361
  198MOL0     C26648   2.777  10.168   5.215  0.9038 -0.0558  0.8035
  198MOL0     C26649   2.824  10.036   5.219 -0.6163 -0.6477  0.9777
  198MOL0     C26650   2.854   9.601   5.279  0.2654 -0.4670  0.1617
  198MOL0     C26651   2.822   9.512   5.376 -0.1164 -0.7941 -0.7425
  198MOL0     C26652   2.879   9.384   5.380 -0.1134  0.3985 -0.6909
  198MOL0     C26653   2.957   9.341   5.275 -0.0140 -0.2753  0.7036
  198MOL0     O26654   3.021   9.217   5.254  0.0666  0.0981  0.0333
  198MOL0     C26655   3.012   9.126   5.373  0.0611 -0.4221  0.6413
  198MOL0     C26656   3.118   9.171   5.473 -0.4804 -0.1420  0.4245
  198MOL0     C26657   3.120   9.109   5.616  0.1849 -0.3418 -0.4842
  198MOL0     C26658   3.239   9.138   5.699 -0.5838  0.1338  0.1679
  198MOL0     C26659   3.349   9.050   5.665  0.4231  0.3232  0.3295
  198MOL0     C26660   3.450   8.994   5.610  0.5226  0.3342 -0.2406
  198MOL0     C26661   2.966   9.422   5.162 -0.2208  0.5675  0.3653
  198MOL0     C26662   2.931   9.558   5.168  0.4130 -0.0227 -0.7338
  198MOL0     H26663   2.541   9.877   5.139 -2.8687  0.4312  0.5403
  198MOL0     H26664   2.447  10.096   5.192  0.4490 -1.6512 -0.8257
  198MOL0     H26665   2.735  10.439   5.167 -0.7361 -1.4390 -0.2456
  198MOL0     H26666   2.608  10.408   5.044  1.8424  0.0201 -0.9210
  198MOL0     H26667   2.544  10.623   5.107  1.1617  2.3474  0.9120
  198MOL0     H26668   2.457  10.523   5.230 -0.0973  1.7900  0.9676
  198MOL0     H26669   2.670  10.552   5.378 -1.8623 -0.5209  0.5547
  198MOL0     H26670   2.734  10.666   5.249  0.7359  1.4297  0.0340
  198MOL0     H26671   2.533  10.811   5.289  1.3581 -1.4634 -0.6651
  198MOL0     H26672   2.459  10.691   5.382  0.2438 -0.4292 -3.8674
  198MOL0     H26673   2.680  10.696   5.546  1.9420 -0.5038 -1.8552
  198MOL0     H26674   2.724  10.844   5.463 -0.0656 -0.0194  0.5106
  198MOL0     H26675   2.536  10.961   5.532  2.2847  2.0633  4.5002
  198MOL0     H26676   2.483  10.826   5.630 -1.3337  1.1199 -0.0650
  198MOL0     H26677   2.694  10.820   5.752 -0.7492 -0.4994 -0.2895
  198MOL0     H26678   2.754  10.969   5.684 -0.1734 -0.1283 -1.4908
  198MOL0     H26679   2.478  10.955   5.813  1.7319 -2.2402  1.1723
  198MOL0     H26680   2.567  11.098   5.742  0.1344 -0.0122  0.1378
  198MOL0     H26681   2.827  11.122   5.866  1.9186 -0.5420  2.3907
  198MOL0     H26682   2.840  11.185   6.258  0.5735 -1.2239 -0.1477
  198MOL0     H26683   2.937  11.232   6.108 -1.4611 -2.7223 -2.0071
  198MOL0     H26684   2.805  11.406   6.247  1.6812  1.9464 -1.3948
  198MOL0     H26685   2.658  11.355   6.165 -0.1597 -0.6975 -2.3141
  198MOL0     H26686   2.721  11.418   5.942  2.1798 -1.2913 -2.0448
  198MOL0     H26687   2.890  11.402   5.985  1.6015  0.0891  2.2793
  198MOL0     H26688   2.697  11.632   6.070 -0.7427 -0.1366 -0.8126
  198MOL0     H26689   2.790  11.634   5.941 -3.5523  0.3539 -0.0763
  198MOL0     H26690   3.151  11.683   6.178  0.7320  1.6427  1.8934
  198MOL0     H26691   3.327  11.767   6.204  1.0484  0.1032  2.0497
  198MOL0     H26692   3.361  11.898   6.093 -0.9608  2.0180  0.0803
  198MOL0     H26693   3.334  11.925   6.267 -1.3302  0.4254 -0.2690
  198MOL0     H26694   3.055  12.488   6.132 -3.5832  3.1510 -1.3415
  198MOL0     H26695   3.099  12.683   6.000  1.7212  0.6113 -0.2100
  198MOL0     H26696   3.176  12.862   5.859  1.1243  0.3926  0.2471
  198MOL0     H26697   3.281  12.777   5.974  0.0221 -2.0405  0.2972
  198MOL0     H26698   3.397  12.969   5.901 -0.3511 -0.3529  0.9785
  198MOL0     H26699   3.479  12.821   5.835  0.7557  0.2256 -2.1775
  198MOL0     H26700   3.324  13.040   5.710 -2.5194 -0.8688 -3.8920
  198MOL0     H26701   3.342  12.886   5.617 -0.6927 -1.1899  1.0831
  198MOL0     H26702   3.595  13.035   5.708 -2.3056 -2.5431  3.8141
  198MOL0     H26703   3.580  12.890   5.629 -1.4992 -0.8924  0.8499
  198MOL0     H26704   3.489  12.975   5.416  0.1864  1.4762 -2.4809
  198MOL0     H26705   3.619  13.070   5.459  0.1588  0.7558 -2.0261
  198MOL0     H26706   3.358  13.185   5.537  0.6796  4.1065  0.3790
  198MOL0     H26707   3.513  13.256   5.492  0.6833 -0.2785 -3.9652
  198MOL0     H26708   3.335  13.099   5.289  1.4309 -1.8962  0.5650
  198MOL0     H26709   3.492  13.183   5.257 -2.5451 -0.7588 -4.7258
  198MOL0     H26710   3.320  13.301   5.176  1.2794  1.1375  0.5043
  198MOL0     H26711   3.392  13.394   5.308  2.2185 -1.8316  0.5337
  198MOL0     H26712   3.268  12.444   5.695  0.7012 -0.7499 -0.4792
  198MOL0     H26713   3.162  12.253   5.788 -0.3998  1.8149 -2.6057
  198MOL0     H26714   2.877  12.084   6.069  0.1563 -0.5493 -2.2785
  198MOL0     H26715   2.767  11.870   6.063 -0.4666  0.0668  3.1191
  198MOL0     H26716   2.837  10.259   5.217 -0.2822  0.9337 -2.5976
  198MOL0     H26717   2.931  10.024   5.230 -0.6018 -4.3928 -1.3327
  198MOL0     H26718   2.754   9.525   5.458  0.1534  3.4332 -0.9487
  198MOL0     H26719   2.855   9.325   5.467 -0.2985  0.6106 -0.5977
  198MOL0     H26720   2.906   9.122   5.402 -0.0461  1.0343  0.5365
  198MOL0     H26721   3.056   9.032   5.341  3.0349  1.8646 -2.7652
  198MOL0     H26722   3.096   9.277   5.489  0.0391  0.0895 -0.3488
  198MOL0     H26723   3.214   9.148   5.427  1.4367  2.5738  2.7308
  198MOL0     H26724   3.119   9.001   5.601 -3.2414 -0.1784 -2.5572
  198MOL0     H26725   3.034   9.129   5.681  1.2698 -0.4333  1.0156
  198MOL0     H26726   3.214   9.120   5.804 -2.3490 -1.5524 -0.4768
  198MOL0     H26727   3.266   9.244   5.692  0.7824 -0.0872  1.4678
  198MOL0     H26728   3.538   8.955   5.563  1.4548 -0.5619  2.1025
  198MOL0     H26729   3.041   9.401   5.087  2.6012 -2.8278  3.6900
  198MOL0     H26730   2.957   9.634   5.095  0.6176  0.7089  0.0878
  199MOL0     O26731   4.188   9.879   7.956 -0.0187  0.4047  0.8103
  199MOL0     C26732   4.186   9.807   8.052 -0.1217  0.2564 -0.1800
  199MOL0     O26733   4.129   9.686   8.054 -0.4523 -0.5085 -1.1501
  199MOL0     C26734   4.069   9.637   7.935  0.5534 -0.9862  0.0976
  199MOL0     C26735   4.159   9.606   7.829  0.1908 -0.3945  0.6876
  199MOL0     C26736   4.111   9.542   7.711 -1.0033  0.2992 -0.3006
  199MOL0     C26737   3.972   9.504   7.691 -0.7634  0.6853 -0.2607
  199MOL0     O26738   3.925   9.451   7.576  0.4069  0.1635  0.3128
  199MOL0     C26739   4.014   9.368   7.494 -0.5421  0.4893 -0.1282
  199MOL0     C26740   3.932   9.310   7.366 -0.3322  1.5108 -0.5450
  199MOL0     C26741   3.823   9.202   7.414 -0.9395 -0.5647 -0.5375
  199MOL0     C26742   3.684   9.253   7.395 -0.2076  0.5320  1.0987
  199MOL0     C26743   3.568   9.170   7.466 -0.8993 -0.5316  0.2901
  199MOL0     C26744   3.562   9.170   7.623 -0.1012  0.2893 -0.1601
  199MOL0     C26745   3.587   9.309   7.683  0.5055  0.1251 -0.0174
  199MOL0     C26746   3.597   9.296   7.830 -0.9819 -0.0139 -0.1660
  199MOL0     N26747   3.510   9.208   7.903 -0.1184 -0.3126  0.8409
  199MOL0     C26748   3.382   9.229   7.916 -0.2725  0.0293  0.0451
  199MOL0     C26749   3.333   9.121   7.979 -0.5907 -0.0276  0.3010
  199MOL0     C26750   3.182   9.089   8.004 -0.5586 -0.5413  0.2764
  199MOL0     C26751   3.100   9.150   7.897 -0.1599  1.6072  0.4270
  199MOL0     C26752   2.956   9.103   7.900  0.6456 -0.3857 -0.2027
  199MOL0     C26753   2.857   9.205   7.828  0.0854  0.3678 -1.6594
  199MOL0     O26754   2.900   9.199   7.693 -0.1491 -0.2717  0.7452
  199MOL0     C26755   2.821   9.119   7.603 -0.5703  0.3252  0.1585
  199MOL0     C26756   2.686   9.132   7.589 -0.2085 -0.7938  0.5179
  199MOL0     C26757   2.617   9.058   7.488 -0.0625 -0.5487  0.1770
  199MOL0     C26758   2.468   9.085   7.480 -0.5478 -0.8453  0.0840
  199MOL0     C26759   2.682   8.966   7.399  0.6507 -0.4200 -0.0879
  199MOL0     C26760   2.614   8.881   7.305  0.1514 -0.5022 -0.4458
  199MOL0     O26761   2.682   8.765   7.300 -0.3899  0.3233 -0.0102
  199MOL0     C26762   2.622   8.660   7.228 -0.5614 -0.1787  0.6504
  199MOL0     C26763   2.560   8.549   7.287 -0.2200  0.4938 -0.6768
  199MOL0     C26764   2.485   8.465   7.206  0.4065 -1.0006  0.0852
  199MOL0     C26765   2.475   8.489   7.072  0.8017 -0.2882  0.1136
  199MOL0     O26766   2.393   8.420   6.991  1.0269 -0.3517  0.3700
  199MOL0     C26767   2.267   8.368   7.035  0.1330 -0.6640  0.4672
  199MOL0     C26768   2.180   8.339   6.912  0.3008 -0.1838  0.3144
  199MOL0     C26769   2.243   8.240   6.800  0.2624  0.3176 -0.5207
  199MOL0     C26770   2.281   8.305   6.668  1.1523 -0.2112  0.0733
  199MOL0     C26771   2.395   8.220   6.611 -1.0336 -0.5350  0.8397
  199MOL0     C26772   2.371   8.085   6.549  0.0337  0.4679  0.1678
  199MOL0     C26773   2.352   8.102   6.405 -0.6995 -0.2816  0.3859
  199MOL0     C26774   2.318   7.957   6.355  0.0752 -0.9035  0.2228
  199MOL0    Cl26775   2.146   7.921   6.410  0.1946  0.0260  0.3727
  199MOL0     C26776   2.563   8.579   7.006 -0.9286  0.4004 -0.7641
  199MOL0     C26777   2.638   8.665   7.090 -0.0287  0.1868  0.1233
  199MOL0     O26778   2.516   8.915   7.240  0.5928 -0.4221  0.0185
  199MOL0     C26779   2.824   8.960   7.426 -0.4408 -0.2200  0.5693
  199MOL0     C26780   2.896   9.032   7.525  0.1954 -0.2932 -1.4403
  199MOL0     N26781   3.435   9.035   8.012  0.3266 -0.2877 -0.3137
  199MOL0     N26782   3.539   9.093   7.959  0.2043 -0.6070  0.0931
  199MOL0     C26783   3.880   9.566   7.785 -0.4664  0.3590 -0.5548
  199MOL0     C26784   3.926   9.622   7.911  0.3075 -0.0909 -0.4299
  199MOL0     C26785   4.265   9.839   8.173 -0.3451 -0.4096  1.1168
  199MOL0     C26786   4.276   9.742   8.278  0.3097 -0.7800  0.2775
  199MOL0     C26787   4.347   9.770   8.387 -0.0811  0.0475  0.5822
  199MOL0     C26788   4.403   9.894   8.403  0.6929  0.0743 -0.3522
  199MOL0     O26789   4.465   9.918   8.520  0.1310 -0.1593 -0.5388
  199MOL0     C26790   4.559  10.030   8.542  0.5943 -0.1509  0.4106
  199MOL0     C26791   4.662  10.002   8.644  0.1550 -0.4993  0.2052
  199MOL0     C26792   4.752  10.135   8.661  0.0537 -0.1443  0.1780
  199MOL0     C26793   4.869  10.126   8.758  0.3834 -0.3550 -0.1908
  199MOL0     C26794   4.819  10.080   8.886  0.3968 -0.3350  0.1410
  199MOL0     C26795   4.780  10.044   8.999 -0.1249 -0.5507  0.5730
  199MOL0     C26796   4.405   9.981   8.299 -0.6324 -0.3276 -1.4732
  199MOL0     C26797   4.338   9.957   8.180  0.3599 -0.6181  0.2931
  199MOL0     H26798   4.264   9.635   7.832  0.1963 -0.5120  2.4870
  199MOL0     H26799   4.191   9.515   7.644 -1.0722 -0.9329  0.0873
  199MOL0     H26800   4.098   9.430   7.464 -0.3426  2.2454  3.4607
  199MOL0     H26801   4.062   9.286   7.548  2.1695  0.6546 -2.1084
  199MOL0     H26802   3.879   9.392   7.316  1.7336  2.8669 -0.6649
  199MOL0     H26803   4.004   9.264   7.298  1.7589  0.5580  2.1378
  199MOL0     H26804   3.837   9.113   7.353 -0.6676 -1.2139  0.4394
  199MOL0     H26805   3.840   9.176   7.519 -2.3497 -1.2681 -0.4595
  199MOL0     H26806   3.672   9.356   7.428 -0.4895  1.3447 -1.3785
  199MOL0     H26807   3.655   9.253   7.290 -2.0168 -0.2672  1.5413
  199MOL0     H26808   3.475   9.207   7.423  0.8848 -0.3787 -3.9120
  199MOL0     H26809   3.577   9.064   7.440  0.1038 -0.5717  0.7675
  199MOL0     H26810   3.462   9.133   7.647 -0.1490 -0.2266 -1.1092
  199MOL0     H26811   3.637   9.098   7.658 -2.4213 -0.2420  4.4480
  199MOL0     H26812   3.684   9.344   7.647  0.3324  2.8959  1.8256
  199MOL0     H26813   3.506   9.380   7.662  1.3664  0.3094 -3.2470
  199MOL0     H26814   3.597   9.399   7.865  0.7853  1.1571 -3.2421
  199MOL0     H26815   3.697   9.254   7.844 -1.3317 -0.0004  3.1055
  199MOL0     H26816   3.329   9.317   7.881 -2.7883 -1.3013  0.3057
  199MOL0     H26817   3.178   8.980   7.994 -0.3102 -0.3325 -3.5400
  199MOL0     H26818   3.159   9.130   8.103  0.8199  1.5678 -0.2003
  199MOL0     H26819   3.143   9.122   7.800 -3.6159 -1.6509 -0.3949
  199MOL0     H26820   3.099   9.259   7.903 -0.9176  1.6204  0.1761
  199MOL0     H26821   2.913   9.104   8.001  0.3077  0.5259 -0.3387
  199MOL0     H26822   2.947   9.006   7.849  0.2742 -0.8007  0.6404
  199MOL0     H26823   2.876   9.306   7.866  1.3708 -0.3099 -0.4343
  199MOL0     H26824   2.757   9.162   7.844  0.5568 -0.8249 -1.7952
  199MOL0     H26825   2.633   9.212   7.639  0.0701  0.3657 -0.9784
  199MOL0     H26826   2.443   9.101   7.585  2.2426  0.6116  0.6225
  199MOL0     H26827   2.453   9.169   7.411  2.4933 -1.6183 -1.7069
  199MOL0     H26828   2.404   8.998   7.459 -0.8035 -1.3089  2.4629
  199MOL0     H26829   2.550   8.531   7.393  0.0982 -0.8741 -0.8624
  199MOL0     H26830   2.419   8.390   7.249 -1.0273  0.7640  1.1189
  199MOL0     H26831   2.282   8.282   7.101  3.7159 -0.3251  0.2595
  199MOL0     H26832   2.219   8.453   7.084  0.4383 -0.0045 -0.3581
  199MOL0     H26833   2.084   8.290   6.935 -0.4415 -0.0202 -2.1974
  199MOL0     H26834   2.160   8.434   6.861 -3.1749 -1.2251 -0.5738
  199MOL0     H26835   2.178   8.155   6.781  0.0614  0.0470  1.2164
  199MOL0     H26836   2.324   8.186   6.851 -1.7545 -0.7926  1.7001
  199MOL0     H26837   2.196   8.308   6.599 -0.7667  0.8270  2.3498
  199MOL0     H26838   2.307   8.409   6.687 -2.2139  0.1904  3.8253
  199MOL0     H26839   2.460   8.190   6.693 -1.7319 -1.0424  1.2251
  199MOL0     H26840   2.451   8.284   6.542 -0.5531  0.5281  2.1810
  199MOL0     H26841   2.463   8.026   6.551 -0.6792 -0.8402 -2.3339
  199MOL0     H26842   2.298   8.020   6.596 -0.2192 -0.2752 -1.1956
  199MOL0     H26843   2.436   8.144   6.350 -0.7110  0.6229  1.0310
  199MOL0     H26844   2.266   8.169   6.411 -1.4085 -1.0822  6.8733
  199MOL0     H26845   2.382   7.883   6.403  1.4537 -1.2285 -2.0010
  199MOL0     H26846   2.329   7.955   6.246 -0.9304 -3.8699  0.1040
  199MOL0     H26847   2.585   8.584   6.900 -4.9871  1.3255 -1.7063
  199MOL0     H26848   2.698   8.738   7.036  0.4287  0.5678  1.1359
  199MOL0     H26849   2.878   8.895   7.357 -0.0507  2.9573 -2.4074
  199MOL0     H26850   3.001   9.013   7.540  1.1650  4.2072 -1.1771
  199MOL0     H26851   3.774   9.589   7.775 -0.1219  2.7190  0.4330
  199MOL0     H26852   3.852   9.657   7.982 -0.8699 -0.7235 -1.3005
  199MOL0     H26853   4.243   9.640   8.261 -1.1224 -0.0279 -1.8750
  199MOL0     H26854   4.356   9.694   8.465 -1.0958  0.2265  0.8881
  199MOL0     H26855   4.611  10.054   8.449 -0.1564  1.5147  0.3874
  199MOL0     H26856   4.501  10.113   8.581  0.0254  0.3537 -1.4374
  199MOL0     H26857   4.727   9.916   8.625  0.5796 -0.5037  1.5623
  199MOL0     H26858   4.612   9.982   8.739  0.3625  2.5460  1.0708
  199MOL0     H26859   4.683  10.216   8.689 -0.5585  0.1781 -2.0975
  199MOL0     H26860   4.793  10.162   8.563 -0.0750  1.5883  0.5664
  199MOL0     H26861   4.913  10.223   8.784 -3.1689  0.5541  3.5001
  199MOL0     H26862   4.960  10.073   8.729  1.6291  0.0648  2.5940
  199MOL0     H26863   4.751  10.015   9.098  0.4833 -2.2460  0.2865
  199MOL0     H26864   4.451  10.077   8.321  2.7024 -2.5785  2.9974
  199MOL0     H26865   4.335  10.026   8.096 -3.5329 -0.8053  0.1312
  200MOL0     O26866   2.237   2.513   0.891 -0.2428  0.2269  0.6811
  200MOL0     C26867   2.364   2.526   0.874 -0.0777  0.5527 -0.1856
  200MOL0     O26868   2.433   2.583   0.768  0.4759  0.7488  0.0337
  200MOL0     C26869   2.348   2.655   0.692  0.1268 -0.3755 -0.3576
  200MOL0     C26870   2.367   2.794   0.685 -0.4510 -0.2863  0.2588
  200MOL0     C26871   2.284   2.884   0.605  0.0705  0.7397 -0.0743
  200MOL0     C26872   2.170   2.829   0.541 -0.8168 -0.6731 -0.0355
  200MOL0     O26873   2.079   2.904   0.473 -0.0643 -0.4149 -0.2380
  200MOL0     C26874   2.112   3.031   0.426  0.6176 -0.0520 -0.5770
  200MOL0     C26875   1.999   3.083   0.327  0.3748 -0.7396 -0.0189
  200MOL0     C26876   1.951   2.985   0.214 -0.4169 -0.0617 -1.4294
  200MOL0     C26877   1.829   3.047   0.139 -0.7276  0.5831 -0.3821
  200MOL0     C26878   1.696   3.024   0.208  0.0918  0.7053 -0.5432
  200MOL0     C26879   1.582   3.114   0.169  0.3889 -0.2733 -0.2337
  200MOL0     C26880   1.456   3.100   0.252  0.0331  0.2194 -0.0274
  200MOL0     C26881   1.388   2.959   0.254 -1.0501 -0.2407 -0.1568
  200MOL0     N26882   1.314   2.937   0.135  0.8204 -0.1647  0.0547
  200MOL0     C26883   1.206   3.022   0.091 -1.3298  1.4973  0.1534
  200MOL0     C26884   1.172   2.964  -0.031 -0.3871  0.2111  0.1365
  200MOL0     C26885   1.042   2.997  -0.101  0.2836 -0.4613  0.3499
  200MOL0     C26886   1.068   3.123  -0.172 -0.1933 -0.5033 -0.0252
  200MOL0     C26887   0.967   3.152  -0.277 -0.3403 -0.2302  0.8316
  200MOL0     C26888   1.008   3.256  -0.382  0.8934 -0.9844 -0.3217
  200MOL0     O26889   1.065   3.378  -0.321 -0.0067 -0.2260  0.0290
  200MOL0     C26890   0.974   3.471  -0.258 -0.1003  1.0516  0.1080
  200MOL0     C26891   0.879   3.532  -0.334 -0.5240  0.5350  0.3029
  200MOL0     C26892   0.791   3.624  -0.275  0.3380  0.1276  0.7259
  200MOL0     C26893   0.688   3.691  -0.370 -0.3267 -0.5057  0.8610
  200MOL0     C26894   0.799   3.649  -0.138  0.3175  0.2953 -0.6856
  200MOL0     C26895   0.704   3.745  -0.078 -0.1777  0.3995 -0.2174
  200MOL0     O26896   0.633   3.843  -0.148  0.0419 -0.5202  0.6869
  200MOL0     C26897   0.565   3.948  -0.091 -0.0209  0.7274  0.0145
  200MOL0     C26898   0.634   4.066  -0.046 -0.2504 -0.6233  1.2309
  200MOL0     C26899   0.559   4.167   0.010  1.0697  0.8756 -0.1398
  200MOL0     C26900   0.421   4.156   0.031 -0.1237  0.4367  0.2600
  200MOL0     O26901   0.345   4.261   0.073 -0.0949 -0.9561 -0.1238
  200MOL0     C26902   0.404   4.391   0.110 -0.7961  0.0245  0.6844
  200MOL0     C26903   0.303   4.499   0.137 -0.0425 -0.0661 -0.2176
  200MOL0     C26904   0.188   4.460   0.236 -0.4622 -0.2645 -0.0767
  200MOL0     C26905   0.098   4.573   0.266 -0.3508 -0.6029 -0.1813
  200MOL0     C26906  -0.022   4.528   0.356 -0.4316  0.5408 -0.7034
  200MOL0     C26907  -0.142   4.633   0.357  0.3763 -0.1578  0.3785
  200MOL0     C26908  -0.249   4.579   0.465  0.3744  0.2876  1.2558
  200MOL0     C26909  -0.376   4.671   0.459 -0.2956 -0.2133  0.3606
  200MOL0    Cl26910  -0.339   4.834   0.503  0.4428 -0.3437  0.2679
  200MOL0     C26911   0.352   4.038   0.003 -0.8917  0.1301 -1.3715
  200MOL0     C26912   0.427   3.933  -0.056 -0.0681  0.7054 -0.3407
  200MOL0     O26913   0.702   3.741   0.040 -0.1495  0.6552  0.0207
  200MOL0     C26914   0.891   3.573  -0.059  0.3847  0.4494  0.0035
  200MOL0     C26915   0.978   3.488  -0.124  0.0780  0.4512  0.2155
  200MOL0     N26916   1.255   2.866  -0.063  0.3799 -0.4863  0.6150
  200MOL0     N26917   1.337   2.849   0.034 -0.4385 -0.0914  0.2999
  200MOL0     C26918   2.153   2.687   0.537  0.4330  0.8953 -1.1656
  200MOL0     C26919   2.247   2.601   0.613  0.2847  0.4880  0.0576
  200MOL0     C26920   2.450   2.436   0.968 -0.4763  0.5748 -0.0162
  200MOL0     C26921   2.585   2.464   0.971 -0.7668 -0.3467 -1.1774
  200MOL0     C26922   2.658   2.375   1.051 -0.6701 -0.5519 -0.0262
  200MOL0     C26923   2.604   2.275   1.138  0.4246  0.1307 -0.5824
  200MOL0     O26924   2.690   2.194   1.205 -0.6715 -0.0106  0.0180
  200MOL0     C26925   2.650   2.073   1.264  0.4348 -0.0291  0.0113
  200MOL0     C26926   2.770   1.990   1.317  0.4141 -0.6572  0.3995
  200MOL0     C26927   2.845   2.047   1.441 -0.1702 -0.4858  0.1359
  200MOL0     C26928   2.755   2.118   1.545  0.3992 -0.1321 -0.0537
  200MOL0     C26929   2.740   2.265   1.514 -0.2431  0.5901 -0.2728
  200MOL0     C26930   2.719   2.374   1.474 -0.2834  0.0500 -0.6869
  200MOL0     C26931   2.464   2.255   1.132 -0.5807 -0.0426  0.3023
  200MOL0     C26932   2.386   2.333   1.038 -0.0934 -0.6747  0.6485
  200MOL0     H26933   2.447   2.845   0.738 -0.4546  0.6533 -0.6149
  200MOL0     H26934   2.294   2.992   0.603  1.0796  0.6786  0.5513
  200MOL0     H26935   2.134   3.107   0.501 -0.1912  0.0574 -0.4523
  200MOL0     H26936   2.202   3.018   0.364  1.1850  1.2260 -0.0533
  200MOL0     H26937   1.915   3.103   0.394 -3.5933 -0.7233 -4.4799
  200MOL0     H26938   2.036   3.174   0.279 -0.0968  1.2763  3.1051
  200MOL0     H26939   2.033   2.970   0.143  0.2940  3.4943 -1.5350
  200MOL0     H26940   1.931   2.883   0.248  2.6864  0.3781  2.4557
  200MOL0     H26941   1.846   3.155   0.140 -0.0619  0.4787  0.4369
  200MOL0     H26942   1.808   3.013   0.037  0.6629 -1.4155 -0.0468
  200MOL0     H26943   1.662   2.920   0.208  2.8601 -0.3450  1.9165
  200MOL0     H26944   1.720   3.044   0.313 -1.1095 -1.9661  0.3399
  200MOL0     H26945   1.621   3.215   0.183 -1.6743  1.3512 -4.3884
  200MOL0     H26946   1.569   3.110   0.061  2.6207  1.2936 -0.6197
  200MOL0     H26947   1.488   3.116   0.355 -2.6819 -0.1319  0.9320
  200MOL0     H26948   1.391   3.184   0.227 -0.4591  0.1536  1.0031
  200MOL0     H26949   1.318   2.959   0.338 -0.7097 -3.6237  0.2513
  200MOL0     H26950   1.460   2.880   0.278  3.4663  4.1311  2.6155
  200MOL0     H26951   1.149   3.098   0.144 -3.3799  0.7576 -0.8545
  200MOL0     H26952   1.029   2.915  -0.173 -0.2718  1.8942 -2.4169
  200MOL0     H26953   0.959   3.003  -0.030  0.4093  2.1597  0.3791
  200MOL0     H26954   1.167   3.110  -0.218  0.1128  0.3408  0.3678
  200MOL0     H26955   1.066   3.205  -0.100  1.5073 -0.7843  0.4044
  200MOL0     H26956   0.873   3.179  -0.227  0.5680  0.2681  2.3194
  200MOL0     H26957   0.946   3.062  -0.335  1.0600  1.7984 -3.1628
  200MOL0     H26958   0.915   3.280  -0.436  0.8106  0.7332  0.5083
  200MOL0     H26959   1.081   3.211  -0.449  0.4877 -2.6188  0.2924
  200MOL0     H26960   0.889   3.524  -0.442 -1.1891  0.6050  0.2379
  200MOL0     H26961   0.707   3.666  -0.475  0.9531  1.5315  0.5620
  200MOL0     H26962   0.579   3.680  -0.369 -0.2802 -1.0905  0.5178
  200MOL0     H26963   0.708   3.798  -0.371  1.5540 -0.5836 -4.6706
  200MOL0     H26964   0.740   4.078  -0.069  0.5205 -2.5611  3.3844
  200MOL0     H26965   0.612   4.257   0.035 -0.6944  2.4112 -1.6079
  200MOL0     H26966   0.471   4.390   0.197 -0.9346  0.8975  0.8138
  200MOL0     H26967   0.464   4.440   0.033  0.6089  2.2489  3.0543
  200MOL0     H26968   0.349   4.590   0.177  0.0622 -0.1388 -0.1709
  200MOL0     H26969   0.258   4.511   0.038 -2.0784  0.9701  0.7755
  200MOL0     H26970   0.222   4.408   0.325  0.6170 -2.7320 -1.8165
  200MOL0     H26971   0.125   4.384   0.190 -4.4273  1.2128  2.3877
  200MOL0     H26972   0.156   4.634   0.335  1.0443 -2.9745  0.8559
  200MOL0     H26973   0.064   4.640   0.187  2.3864  1.0784 -0.0490
  200MOL0     H26974   0.012   4.510   0.458 -1.2888 -5.8255 -1.1153
  200MOL0     H26975  -0.066   4.432   0.326  0.6461 -1.0170  2.3275
  200MOL0     H26976  -0.101   4.726   0.399  1.8233 -0.8446  0.5509
  200MOL0     H26977  -0.191   4.649   0.260  0.2937  0.9414  0.5876
  200MOL0     H26978  -0.201   4.591   0.562  0.6559 -1.0978  1.3026
  200MOL0     H26979  -0.260   4.473   0.440 -1.0933  0.1446  2.4198
  200MOL0     H26980  -0.437   4.630   0.540 -0.2542  0.2988  0.6544
  200MOL0     H26981  -0.428   4.662   0.363  1.0304 -2.3039 -0.2365
  200MOL0     H26982   0.244   4.034   0.013 -0.7725  1.5067  1.5146
  200MOL0     H26983   0.364   3.847  -0.075  0.1613  0.3481  0.4752
  200MOL0     H26984   0.890   3.588   0.049  0.2218 -0.8543  0.2007
  200MOL0     H26985   1.050   3.433  -0.065 -0.9657 -0.2811  0.8204
  200MOL0     H26986   2.078   2.642   0.473  0.7090  0.3386 -1.0995
  200MOL0     H26987   2.244   2.493   0.627  1.9140  0.1317 -1.8635
  200MOL0     H26988   2.635   2.550   0.928  0.1183  0.8814  2.0701
  200MOL0     H26989   2.766   2.385   1.047 -0.9377  3.6861 -1.7540
  200MOL0     H26990   2.582   2.096   1.346 -0.5040 -0.3019 -0.6773
  200MOL0     H26991   2.603   1.999   1.198  2.8559 -2.6268  1.0071
  200MOL0     H26992   2.845   1.999   1.238 -2.7350  1.4953 -2.6603
  200MOL0     H26993   2.735   1.886   1.315 -3.2702  0.3970 -2.3545
  200MOL0     H26994   2.925   2.110   1.402  0.1669 -2.2459 -2.2718
  200MOL0     H26995   2.902   1.967   1.490  2.2434  1.2108  0.2530
  200MOL0     H26996   2.803   2.103   1.642  1.8509 -0.5066 -0.8049
  200MOL0     H26997   2.651   2.084   1.546 -0.0691  1.2554 -0.2043
  200MOL0     H26998   2.698   2.466   1.425  0.8018  0.7369  0.0891
  200MOL0     H26999   2.415   2.182   1.195 -0.4171  1.0535  1.7670
  200MOL0     H27000   2.283   2.303   1.022 -0.3398  1.0570 -1.4813
  201MOL0     O27001   2.945   8.424   0.478 -0.2554  0.4747 -0.1541
  201MOL0     C27002   3.013   8.449   0.379 -0.1378  1.3536  0.2566
  201MOL0     O27003   3.151   8.469   0.393  0.2953  0.1892  0.2635
  201MOL0     C27004   3.203   8.518   0.514 -0.2651 -0.2046 -0.3115
  201MOL0     C27005   3.337   8.492   0.534 -0.7589 -0.4896  0.3415
  201MOL0     C27006   3.407   8.553   0.642 -0.1969  0.1298 -1.0651
  201MOL0     C27007   3.348   8.623   0.741  0.0443 -0.3421  0.1515
  201MOL0     O27008   3.430   8.658   0.840  0.5991 -0.0138 -0.8559
  201MOL0     C27009   3.377   8.717   0.963  0.3855  0.0695  0.9189
  201MOL0     C27010   3.382   8.868   0.954  0.7501  0.9065  0.4283
  201MOL0     C27011   3.524   8.928   0.954  0.0641  0.1702 -0.0125
  201MOL0     C27012   3.515   9.071   0.920  1.3846 -0.1607  0.3587
  201MOL0     C27013   3.644   9.149   0.958 -0.7904 -0.3539 -0.9778
  201MOL0     C27014   3.651   9.299   0.957 -0.6867 -0.4956  0.6012
  201MOL0     C27015   3.797   9.358   0.958 -0.1252  0.4498  0.4003
  201MOL0     C27016   3.885   9.306   1.067  0.1500 -0.3312 -0.4365
  201MOL0     N27017   3.819   9.337   1.200 -0.2148 -1.7541  0.1220
  201MOL0     C27018   3.807   9.465   1.247 -0.1445 -0.2217  0.0250
  201MOL0     C27019   3.734   9.448   1.359  0.3246 -0.4333  1.7995
  201MOL0     C27020   3.678   9.559   1.439  0.1442  1.4122  0.0657
  201MOL0     C27021   3.787   9.652   1.496 -0.8398  0.1854  0.4784
  201MOL0     C27022   3.729   9.773   1.572 -1.2207  0.0034  0.6078
  201MOL0     C27023   3.701   9.730   1.723  0.0271 -0.2126  0.1065
  201MOL0     O27024   3.601   9.624   1.746  0.0806  0.5914  1.1252
  201MOL0     C27025   3.468   9.646   1.725 -0.5882  0.1446 -0.4760
  201MOL0     C27026   3.389   9.533   1.728  0.0561  0.3857 -1.1749
  201MOL0     C27027   3.260   9.537   1.703 -0.1606  0.2888  0.3491
  201MOL0     C27028   3.194   9.410   1.711 -0.1071 -1.3767 -0.4618
  201MOL0     C27029   3.198   9.662   1.663  0.0464 -0.4658  0.6602
  201MOL0     C27030   3.054   9.680   1.629  0.3201 -0.2586 -0.2909
  201MOL0     O27031   3.004   9.805   1.638  1.2658 -0.5613  0.2576
  201MOL0     C27032   2.868   9.814   1.600  0.9471 -0.0449  1.6494
  201MOL0     C27033   2.854   9.919   1.504 -0.2325  0.5937 -0.3329
  201MOL0     C27034   2.734   9.925   1.426  0.0048 -0.1011 -0.6773
  201MOL0     C27035   2.624   9.842   1.446 -0.8020  1.0127 -0.2379
  201MOL0     O27036   2.521   9.844   1.357 -0.2251 -0.5133 -0.0764
  201MOL0     C27037   2.531   9.744   1.252  0.3791  0.1133  0.0640
  201MOL0     C27038   2.500   9.804   1.115 -0.3067 -0.2898 -1.1749
  201MOL0     C27039   2.610   9.912   1.073  0.6695  0.3615 -0.3882
  201MOL0     C27040   2.580   9.982   0.940  0.4662 -1.1618 -1.2452
  201MOL0     C27041   2.714  10.010   0.861  0.4207  0.3202  0.3938
  201MOL0     C27042   2.702  10.092   0.732  1.1414  0.0461  0.3191
  201MOL0     C27043   2.583  10.186   0.738  0.2094 -0.7041 -0.3139
  201MOL0     C27044   2.563  10.262   0.604  0.2092 -0.2537 -0.2575
  201MOL0    Cl27045   2.422  10.370   0.617 -0.1453  0.0340  0.5169
  201MOL0     C27046   2.642   9.733   1.537 -0.2400  0.0874 -0.0670
  201MOL0     C27047   2.763   9.717   1.605 -0.3665  0.1238 -0.1857
  201MOL0     O27048   2.989   9.582   1.595 -0.4129  0.2722 -0.4398
  201MOL0     C27049   3.281   9.780   1.669 -0.6771 -0.1882  0.9616
  201MOL0     C27050   3.413   9.767   1.695  0.2190  0.2086 -0.2596
  201MOL0     N27051   3.720   9.310   1.390 -0.2999 -0.2746 -0.6933
  201MOL0     N27052   3.767   9.249   1.287 -0.7167  0.4995 -0.4506
  201MOL0     C27053   3.206   8.637   0.733  0.3799  1.3500  0.0394
  201MOL0     C27054   3.131   8.592   0.614 -0.3728  0.3680 -0.5870
  201MOL0     C27055   2.955   8.462   0.245 -0.2481 -0.4676  0.3248
  201MOL0     C27056   2.820   8.423   0.204  0.0746 -0.6797 -0.1210
  201MOL0     C27057   2.776   8.430   0.071  0.4209 -0.5621  0.0270
  201MOL0     C27058   2.873   8.459  -0.030  0.4191 -0.3197 -0.0939
  201MOL0     O27059   2.828   8.455  -0.158 -0.1239  0.9715 -0.1939
  201MOL0     C27060   2.917   8.488  -0.267 -0.3006 -0.2333 -0.3507
  201MOL0     C27061   2.841   8.465  -0.405 -1.6160  0.2077 -1.0883
  201MOL0     C27062   2.864   8.319  -0.457  0.7186  0.5593 -0.7211
  201MOL0     C27063   2.779   8.212  -0.378 -0.3327 -0.4083  0.0953
  201MOL0     C27064   2.820   8.075  -0.414 -0.7001  0.5851 -0.3391
  201MOL0     C27065   2.871   7.961  -0.410  1.0119 -0.4321  0.0364
  201MOL0     C27066   3.007   8.488   0.006 -0.0819 -0.2411  0.0686
  201MOL0     C27067   3.041   8.491   0.142 -0.8290 -0.5469 -0.3010
  201MOL0     H27068   3.388   8.430   0.461  1.9517  4.5995 -2.6114
  201MOL0     H27069   3.513   8.532   0.646 -0.2331 -0.1731 -1.6225
  201MOL0     H27070   3.274   8.684   0.982  1.0570 -1.0417  2.8609
  201MOL0     H27071   3.434   8.680   1.049 -0.6224 -1.6911  0.8794
  201MOL0     H27072   3.331   8.899   0.862  2.2140  4.4221  0.6509
  201MOL0     H27073   3.315   8.915   1.027 -2.9859  0.8916 -2.6173
  201MOL0     H27074   3.568   8.924   1.054 -1.7444 -0.4544  0.8091
  201MOL0     H27075   3.592   8.872   0.889  1.1041  0.3308  0.9094
  201MOL0     H27076   3.506   9.095   0.814  0.1966  0.3509  0.5593
  201MOL0     H27077   3.431   9.114   0.975  1.5219 -0.2008  0.6005
  201MOL0     H27078   3.659   9.124   1.063  1.3490  2.1771 -0.5773
  201MOL0     H27079   3.723   9.108   0.895  0.9134  0.8945  0.2516
  201MOL0     H27080   3.607   9.326   0.860 -0.0532 -1.3531  0.0635
  201MOL0     H27081   3.595   9.349   1.037 -2.5735 -2.5096  0.6199
  201MOL0     H27082   3.847   9.324   0.867 -0.5037 -0.8172  0.6539
  201MOL0     H27083   3.786   9.467   0.967 -1.4226  0.3126  0.5922
  201MOL0     H27084   3.974   9.367   1.056  0.4377 -0.8167 -0.8646
  201MOL0     H27085   3.918   9.202   1.054 -2.5872 -1.1793 -1.3670
  201MOL0     H27086   3.829   9.559   1.199  0.6580 -0.3319  0.1595
  201MOL0     H27087   3.606   9.626   1.392 -3.1905 -1.6007  0.4742
  201MOL0     H27088   3.628   9.514   1.525  0.4688  2.6473  0.9297
  201MOL0     H27089   3.851   9.689   1.415 -1.6849  0.9188  0.1295
  201MOL0     H27090   3.834   9.593   1.575  0.0351  4.4296  3.4836
  201MOL0     H27091   3.648   9.817   1.513  0.3870 -1.0094 -2.6140
  201MOL0     H27092   3.805   9.851   1.567  0.4541 -1.6001 -0.6509
  201MOL0     H27093   3.658   9.820   1.768  2.0090  0.6255  0.4308
  201MOL0     H27094   3.786   9.702   1.787 -1.8785  1.0729  3.4251
  201MOL0     H27095   3.440   9.438   1.742 -0.0632  0.3926 -0.6372
  201MOL0     H27096   3.256   9.336   1.763 -1.0934 -1.6431  0.3674
  201MOL0     H27097   3.105   9.405   1.774  0.9360 -0.1714  1.1686
  201MOL0     H27098   3.169   9.373   1.610 -1.9596  1.4225 -1.1319
  201MOL0     H27099   2.945   9.977   1.490  2.2486 -3.1955 -1.5974
  201MOL0     H27100   2.731   9.999   1.347 -0.4790  1.5984  0.8662
  201MOL0     H27101   2.637   9.719   1.257  1.5969  4.5098  0.1080
  201MOL0     H27102   2.463   9.660   1.270 -2.1009  1.8127 -0.8693
  201MOL0     H27103   2.488   9.730   1.036 -1.4748  0.7212 -1.9887
  201MOL0     H27104   2.399   9.843   1.101 -0.1466 -0.5381 -3.5478
  201MOL0     H27105   2.704   9.857   1.060 -0.3578 -1.0470 -2.5046
  201MOL0     H27106   2.616   9.991   1.148 -0.5055  0.0188  0.0971
  201MOL0     H27107   2.515   9.930   0.870 -0.3143  1.2402 -2.4117
  201MOL0     H27108   2.534  10.078   0.965 -0.5557 -1.6398 -1.2500
  201MOL0     H27109   2.773   9.920   0.843 -1.0124 -0.2134 -2.0575
  201MOL0     H27110   2.777  10.073   0.926  1.4250  0.1242 -0.3718
  201MOL0     H27111   2.795  10.148   0.719  0.5351  1.4927  1.8315
  201MOL0     H27112   2.689  10.028   0.645  1.1728  1.2549 -0.6066
  201MOL0     H27113   2.606  10.255   0.821  1.4234  1.3649 -2.2365
  201MOL0     H27114   2.492  10.135   0.769 -0.2277  0.9330  1.2567
  201MOL0     H27115   2.541  10.192   0.523 -1.5884  1.9487 -1.8012
  201MOL0     H27116   2.643  10.333   0.582  0.2172  0.3231  1.4999
  201MOL0     H27117   2.563   9.664   1.565  0.4247 -0.7192 -0.1438
  201MOL0     H27118   2.764   9.641   1.682  2.1634 -1.5836 -1.7549
  201MOL0     H27119   3.249   9.878   1.637  2.1552 -0.2718 -2.7828
  201MOL0     H27120   3.483   9.850   1.681  1.7745 -0.9867  0.0763
  201MOL0     H27121   3.138   8.698   0.792  1.0692  2.1136  0.0598
  201MOL0     H27122   3.023   8.605   0.616 -0.6507 -1.6456  1.7673
  201MOL0     H27123   2.758   8.404   0.290 -0.2025  0.1006 -0.1489
  201MOL0     H27124   2.676   8.416   0.032 -0.3808 -1.0020  2.1124
  201MOL0     H27125   2.946   8.594  -0.261 -0.1789 -0.3161  0.7522
  201MOL0     H27126   3.007   8.428  -0.254 -0.3770 -0.8827 -2.3988
  201MOL0     H27127   2.882   8.529  -0.484  0.0031  0.4828 -0.0817
  201MOL0     H27128   2.734   8.481  -0.394 -1.7498 -1.0419 -0.3355
  201MOL0     H27129   2.968   8.287  -0.453  1.2474  2.2614  0.2714
  201MOL0     H27130   2.837   8.312  -0.563  2.0750  3.0665 -1.2986
  201MOL0     H27131   2.677   8.229  -0.412  0.4084 -0.2664 -2.1794
  201MOL0     H27132   2.793   8.228  -0.270 -0.6819  1.3390 -0.0932
  201MOL0     H27133   2.909   7.861  -0.414 -1.6807 -1.4993 -0.4509
  201MOL0     H27134   3.091   8.503  -0.061  0.3677 -3.3626 -0.2241
  201MOL0     H27135   3.143   8.517   0.168 -1.3816  0.2069  1.2670
  202MOL0     O27136  11.390   8.928   1.905  0.9212 -0.2972  0.1547
  202MOL0     C27137  11.284   8.944   1.971 -0.9947 -0.9039  0.2739
  202MOL0     O27138  11.212   8.838   2.014 -0.5873  0.0012  0.2508
  202MOL0     C27139  11.238   8.705   1.979  0.7084  0.2666 -0.5122
  202MOL0     C27140  11.220   8.613   2.084 -0.4285  0.4122 -0.1194
  202MOL0     C27141  11.240   8.475   2.060  0.2625 -1.0977 -0.4202
  202MOL0     C27142  11.282   8.431   1.930 -0.0128 -0.5027  0.5380
  202MOL0     O27143  11.314   8.297   1.917  0.0006 -0.2275 -0.2953
  202MOL0     C27144  11.337   8.225   2.043  0.3238  1.5473 -0.5024
  202MOL0     C27145  11.409   8.091   2.009  0.2896  0.4539  0.0420
  202MOL0     C27146  11.465   8.022   2.137 -0.5469  1.1541 -1.3521
  202MOL0     C27147  11.530   7.893   2.092 -0.1138 -0.5991  0.0350
  202MOL0     C27148  11.612   7.818   2.201 -0.5880  0.1262 -0.0614
  202MOL0     C27149  11.759   7.871   2.218 -0.7013  0.8678  1.0914
  202MOL0     C27150  11.826   7.789   2.335 -0.0878 -0.4832 -0.5145
  202MOL0     C27151  11.812   7.877   2.462  0.4181  0.2352 -1.6539
  202MOL0     N27152  11.844   7.791   2.576 -0.8198 -0.1595 -0.1375
  202MOL0     C27153  11.778   7.677   2.607 -0.0796 -0.1466  0.1454
  202MOL0     C27154  11.834   7.634   2.717 -0.8229  0.8264 -0.6415
  202MOL0     C27155  11.800   7.510   2.799 -0.9613  0.2634 -0.1101
  202MOL0     C27156  11.865   7.510   2.936 -0.2363  0.1623 -1.2191
  202MOL0     C27157  11.845   7.380   2.999  0.6987  1.1749 -1.6189
  202MOL0     C27158  11.908   7.359   3.135  0.0245 -0.5507 -0.7358
  202MOL0     O27159  11.907   7.228   3.184  0.1134 -0.7728  0.9787
  202MOL0     C27160  11.790   7.165   3.205  0.2148 -0.1917 -0.2613
  202MOL0     C27161  11.665   7.236   3.216  0.2866  0.8155  0.8257
  202MOL0     C27162  11.536   7.169   3.216 -0.0880  0.5761  0.2218
  202MOL0     C27163  11.405   7.261   3.211 -0.4309 -0.5401  0.0693
  202MOL0     C27164  11.536   7.026   3.232  0.0395 -0.7314  0.4050
  202MOL0     C27165  11.413   6.946   3.245  0.4983  0.3435  0.3633
  202MOL0     O27166  11.429   6.811   3.256  1.0161 -0.9399  0.5125
  202MOL0     C27167  11.315   6.737   3.273 -0.2790  1.0740  0.1656
  202MOL0     C27168  11.219   6.765   3.371  0.2416  0.3803  0.9648
  202MOL0     C27169  11.114   6.696   3.393 -0.6254  0.8434 -1.0017
  202MOL0     C27170  11.092   6.580   3.316 -0.4316 -0.1030  0.7978
  202MOL0     O27171  10.982   6.507   3.319  0.2971  0.1875 -0.5067
  202MOL0     C27172  10.919   6.471   3.448 -0.2096  0.2256  0.9396
  202MOL0     C27173  10.801   6.369   3.431 -0.6170  0.7455  0.1054
  202MOL0     C27174  10.853   6.242   3.366  0.3702  0.1809  0.4446
  202MOL0     C27175  10.950   6.163   3.445  0.2933 -0.3079 -0.1281
  202MOL0     C27176  11.009   6.057   3.337 -0.4617  0.7477 -0.4337
  202MOL0     C27177  11.081   5.948   3.413  0.7542 -0.5008 -1.1800
  202MOL0     C27178  11.208   5.985   3.476 -0.3719 -0.3542 -0.2685
  202MOL0     C27179  11.263   5.869   3.568 -0.1810 -0.5592  0.8062
  202MOL0    Cl27180  11.153   5.850   3.701 -0.1772 -0.5565 -0.3897
  202MOL0     C27181  11.186   6.534   3.221  0.3761 -0.5288 -0.2841
  202MOL0     C27182  11.304   6.617   3.196  0.4952  0.1069  0.5723
  202MOL0     O27183  11.304   7.001   3.242  0.2041 -0.8776 -0.8447
  202MOL0     C27184  11.665   6.959   3.220 -0.9165  0.7950 -0.1311
  202MOL0     C27185  11.789   7.024   3.221  0.9429  0.4353 -1.0022
  202MOL0     N27186  11.942   7.718   2.749 -0.4200  0.1646 -0.2691
  202MOL0     N27187  11.954   7.805   2.663  0.4468  0.1330  0.3836
  202MOL0     C27188  11.298   8.527   1.822  0.0027 -0.9829 -0.2924
  202MOL0     C27189  11.265   8.660   1.846 -0.3387  0.2288  0.7919
  202MOL0     C27190  11.259   9.088   2.005  0.0013  0.0908 -0.5122
  202MOL0     C27191  11.339   9.198   1.954 -0.2919 -0.2641 -0.1688
  202MOL0     C27192  11.306   9.330   1.986  0.3429  0.3783  0.6165
  202MOL0     C27193  11.188   9.361   2.049 -0.2813  0.3891  0.1473
  202MOL0     O27194  11.170   9.491   2.056  0.5390 -0.4042 -0.2418
  202MOL0     C27195  11.092   9.540   2.167 -0.7330  0.0736 -1.1898
  202MOL0     C27196  11.150   9.684   2.191 -0.9222 -1.0056  0.3588
  202MOL0     C27197  11.059   9.762   2.291 -1.0738  0.5832  0.1628
  202MOL0     C27198  11.031   9.691   2.419  0.4020  0.6665  0.1889
  202MOL0     C27199  11.159   9.647   2.480  1.0505 -0.7092  0.0266
  202MOL0     C27200  11.277   9.634   2.516 -0.0759  0.2256 -0.0989
  202MOL0     C27201  11.108   9.256   2.097 -0.4091 -0.6668  0.4488
  202MOL0     C27202  11.147   9.122   2.076 -0.1326 -0.2626 -0.5760
  202MOL0     H27203  11.199   8.637   2.187  4.1347  1.6068  0.7585
  202MOL0     H27204  11.211   8.422   2.151  1.7454 -0.8222  0.2382
  202MOL0     H27205  11.400   8.273   2.119  1.8718 -0.6823 -0.2836
  202MOL0     H27206  11.237   8.205   2.082  0.6050  1.5067  0.2236
  202MOL0     H27207  11.348   8.018   1.956  2.0681  0.5822 -2.3283
  202MOL0     H27208  11.488   8.118   1.938  0.7949  1.9283  1.1028
  202MOL0     H27209  11.542   8.096   2.161  1.3470 -0.4687 -2.1054
  202MOL0     H27210  11.403   8.003   2.224  0.3093 -1.5701 -1.2228
  202MOL0     H27211  11.457   7.832   2.037  0.4201 -0.6138 -0.6792
  202MOL0     H27212  11.599   7.914   2.009  1.4139  0.2227  1.4599
  202MOL0     H27213  11.560   7.798   2.295 -0.2212  0.1004  0.1373
  202MOL0     H27214  11.620   7.714   2.165 -1.3126  0.4650 -1.2701
  202MOL0     H27215  11.812   7.863   2.123 -2.8180  3.5062 -0.4634
  202MOL0     H27216  11.767   7.975   2.250  2.7676  1.0249  0.1693
  202MOL0     H27217  11.790   7.687   2.352 -0.2445 -0.0245  2.5349
  202MOL0     H27218  11.933   7.772   2.320  0.5912  1.4689  1.4674
  202MOL0     H27219  11.716   7.922   2.488  1.5720  1.6135  0.4821
  202MOL0     H27220  11.886   7.957   2.462  0.8986 -0.1571  0.3706
  202MOL0     H27221  11.688   7.639   2.559  1.3198  0.2092 -2.9328
  202MOL0     H27222  11.690   7.508   2.801 -1.0185 -2.7690 -0.7486
  202MOL0     H27223  11.836   7.424   2.742 -2.7992 -0.4389 -0.2949
  202MOL0     H27224  11.820   7.588   2.999 -1.9258 -2.8921  1.7093
  202MOL0     H27225  11.969   7.538   2.919  0.0672  0.0168  0.2637
  202MOL0     H27226  11.886   7.300   2.936  0.1670  1.4826 -2.3595
  202MOL0     H27227  11.739   7.355   3.009  1.5293 -1.6914  2.6524
  202MOL0     H27228  11.856   7.416   3.213 -1.0154 -1.6255 -0.6211
  202MOL0     H27229  12.013   7.391   3.145 -0.1465 -0.0018 -0.6578
  202MOL0     H27230  11.661   7.344   3.208 -2.6287  0.7871  1.0742
  202MOL0     H27231  11.367   7.266   3.314 -0.6632  0.7586 -0.0655
  202MOL0     H27232  11.426   7.354   3.159 -2.3084  0.4895  1.0618
  202MOL0     H27233  11.332   7.214   3.146  1.5330 -1.6734 -1.4387
  202MOL0     H27234  11.236   6.848   3.439 -2.2080 -0.4179  2.6754
  202MOL0     H27235  11.028   6.744   3.440  0.8707  4.0413 -1.2679
  202MOL0     H27236  10.998   6.436   3.515  1.7050 -1.1131 -1.8332
  202MOL0     H27237  10.883   6.564   3.493  0.1452  2.5863 -3.1589
  202MOL0     H27238  10.753   6.350   3.527  0.2345 -1.2940  0.1874
  202MOL0     H27239  10.717   6.404   3.370 -3.1972 -0.1988  2.8830
  202MOL0     H27240  10.884   6.261   3.262 -2.4710  0.1326 -0.5096
  202MOL0     H27241  10.775   6.168   3.344  3.0825 -2.3188 -1.7247
  202MOL0     H27242  11.034   6.227   3.471 -0.2753  2.1825 -3.6615
  202MOL0     H27243  10.900   6.113   3.528  1.5565 -0.7093  0.4184
  202MOL0     H27244  11.079   6.104   3.267 -1.6727  1.6212 -1.1006
  202MOL0     H27245  10.934   6.010   3.272  2.9987 -1.7519 -2.9975
  202MOL0     H27246  11.007   5.917   3.487 -1.0135  1.0378 -2.2095
  202MOL0     H27247  11.094   5.861   3.347  1.6110  0.8851 -2.9242
  202MOL0     H27248  11.199   6.072   3.542 -1.0639  1.0998 -2.1695
  202MOL0     H27249  11.283   6.007   3.398 -0.5809 -2.0099 -0.9775
  202MOL0     H27250  11.368   5.880   3.597 -0.2046 -2.9159  2.0296
  202MOL0     H27251  11.263   5.771   3.518 -0.3840  0.5103 -1.4480
  202MOL0     H27252  11.165   6.438   3.174 -4.0824  0.0532  0.1472
  202MOL0     H27253  11.380   6.589   3.124  0.3961  3.1342 -0.8337
  202MOL0     H27254  11.667   6.851   3.236  0.9061  0.9011  0.6188
  202MOL0     H27255  11.886   6.975   3.214 -0.4730 -2.3616 -2.9181
  202MOL0     H27256  11.313   8.494   1.720 -1.5789  1.4139 -1.3842
  202MOL0     H27257  11.259   8.726   1.760 -3.1294 -2.2241 -1.0916
  202MOL0     H27258  11.427   9.184   1.892  0.8309 -1.2016  1.5502
  202MOL0     H27259  11.376   9.411   1.969  0.5269  0.1934  0.4919
  202MOL0     H27260  10.986   9.554   2.146 -0.8884 -0.7719 -1.0020
  202MOL0     H27261  11.121   9.475   2.250  0.0312  1.0928 -0.6365
  202MOL0     H27262  11.155   9.753   2.106  0.2293 -1.4750  0.0268
  202MOL0     H27263  11.254   9.672   2.221 -0.1832  0.1783 -1.5585
  202MOL0     H27264  10.958   9.770   2.250 -3.0125  1.1357  4.4928
  202MOL0     H27265  11.109   9.854   2.323  0.7993 -0.8115  1.4725
  202MOL0     H27266  10.973   9.600   2.404  2.1863 -0.4061 -0.4977
  202MOL0     H27267  10.989   9.766   2.487  1.3392  2.6941 -1.3483
  202MOL0     H27268  11.368   9.610   2.567 -1.2706 -2.6117  0.9038
  202MOL0     H27269  11.015   9.282   2.147  0.7671 -0.8796  2.8779
  202MOL0     H27270  11.074   9.049   2.108  0.7273 -1.2912 -0.9077
  203MOL0     O27271   1.510   2.157   2.683  0.3173 -0.0788  0.4292
  203MOL0     C27272   1.516   2.255   2.604 -0.3297  0.2992 -0.1610
  203MOL0     O27273   1.553   2.251   2.478 -0.2147  0.4178  1.3819
  203MOL0     C27274   1.568   2.124   2.427  0.0565  1.2674 -0.4411
  203MOL0     C27275   1.676   2.037   2.470  0.7621 -0.1310  0.8091
  203MOL0     C27276   1.702   1.920   2.396  0.3523 -0.3037 -0.6862
  203MOL0     C27277   1.626   1.888   2.285  0.5094 -0.3181  0.3748
  203MOL0     O27278   1.646   1.777   2.207 -0.1174 -0.3212 -0.2270
  203MOL0     C27279   1.690   1.649   2.271 -0.2986 -0.1824 -0.0322
  203MOL0     C27280   1.661   1.525   2.172 -1.3468  0.0954  0.0110
  203MOL0     C27281   1.758   1.406   2.192 -0.1747  0.6129  0.0035
  203MOL0     C27282   1.696   1.282   2.138 -1.4155  0.3027 -0.4037
  203MOL0     C27283   1.810   1.170   2.157  1.0140 -0.6037  0.2303
  203MOL0     C27284   1.751   1.027   2.136 -0.7374  0.7271  0.9727
  203MOL0     C27285   1.638   0.978   2.225  0.3036  0.8909  0.1476
  203MOL0     C27286   1.576   0.840   2.191 -0.5048  0.3687  0.1489
  203MOL0     N27287   1.448   0.815   2.263  0.3874 -0.2111  0.8378
  203MOL0     C27288   1.442   0.780   2.395  0.0135  0.4343  0.2877
  203MOL0     C27289   1.315   0.792   2.434  0.0398 -0.2591 -0.2957
  203MOL0     C27290   1.261   0.761   2.579  0.1339 -0.4795  0.4168
  203MOL0     C27291   1.149   0.644   2.563  0.1558 -0.6423  0.9853
  203MOL0     C27292   1.100   0.598   2.694  0.5585 -0.4073 -0.0215
  203MOL0     C27293   1.160   0.470   2.747 -0.3704 -0.2504 -0.0788
  203MOL0     O27294   1.301   0.495   2.762 -0.3969  0.1851 -0.9245
  203MOL0     C27295   1.374   0.383   2.745  0.3565  0.2478 -0.8143
  203MOL0     C27296   1.496   0.397   2.695  0.8121 -0.2186  0.4206
  203MOL0     C27297   1.576   0.282   2.676  0.2890 -0.9420 -0.5311
  203MOL0     C27298   1.712   0.328   2.642 -0.5783  0.4332 -1.3112
  203MOL0     C27299   1.530   0.150   2.709 -0.7481 -0.3951 -0.5803
  203MOL0     C27300   1.608   0.033   2.678  0.3082  0.5398 -0.3991
  203MOL0     O27301   1.635   0.013   2.545 -0.4870 -1.0745 -0.0382
  203MOL0     C27302   1.693  -0.105   2.500  0.3413 -0.1377 -0.2517
  203MOL0     C27303   1.662  -0.153   2.375  0.0274  0.4111  0.8390
  203MOL0     C27304   1.736  -0.270   2.335  0.2192 -0.1060  0.4455
  203MOL0     C27305   1.829  -0.340   2.413  0.8730  0.0066 -0.2946
  203MOL0     O27306   1.893  -0.450   2.366  0.8906 -0.6981  0.3961
  203MOL0     C27307   1.983  -0.518   2.447  0.0393  0.4151  0.6025
  203MOL0     C27308   2.051  -0.627   2.366 -0.2846  0.5734 -0.3929
  203MOL0     C27309   1.958  -0.707   2.276  0.3926  0.3921 -0.5676
  203MOL0     C27310   1.846  -0.779   2.353  0.4003  0.4909 -0.1624
  203MOL0     C27311   1.893  -0.877   2.468  0.9419  0.8062  0.0061
  203MOL0     C27312   1.965  -1.000   2.419 -0.5529  0.3601 -0.2261
  203MOL0     C27313   2.042  -1.057   2.537 -0.3074  0.9070  0.2008
  203MOL0     C27314   2.171  -1.135   2.501  0.0950  0.5756 -0.6445
  203MOL0    Cl27315   2.284  -1.026   2.423 -0.2863 -0.1119 -0.0878
  203MOL0     C27316   1.862  -0.276   2.534  0.9763  0.3263 -0.6204
  203MOL0     C27317   1.805  -0.159   2.567  0.0823  0.3525  0.6784
  203MOL0     O27318   1.615  -0.053   2.770  0.0990  0.1272  0.1383
  203MOL0     C27319   1.408   0.137   2.775 -0.1244 -0.4952  0.0884
  203MOL0     C27320   1.336   0.254   2.793 -0.6820 -0.4443  0.4439
  203MOL0     N27321   1.256   0.851   2.324  0.0627 -0.3896  0.5937
  203MOL0     N27322   1.335   0.864   2.225  0.3664 -0.2174  0.0581
  203MOL0     C27323   1.521   1.973   2.249  0.5800  0.6142 -0.1422
  203MOL0     C27324   1.499   2.092   2.308  0.4068  0.8756 -0.9582
  203MOL0     C27325   1.459   2.382   2.643  0.0890  0.2267  0.1823
  203MOL0     C27326   1.418   2.412   2.774  0.3885 -0.3295 -0.9740
  203MOL0     C27327   1.350   2.530   2.796  0.3125 -1.1213 -0.7810
  203MOL0     C27328   1.331   2.631   2.701  0.5075 -0.9342  0.4448
  203MOL0     O27329   1.260   2.742   2.724 -0.0462  0.4552 -0.9234
  203MOL0     C27330   1.179   2.783   2.834  0.1162  0.7526 -0.6399
  203MOL0     C27331   1.029   2.771   2.817  0.5130 -0.6771 -0.2138
  203MOL0     C27332   0.984   2.858   2.702 -0.1761  0.5119  0.6377
  203MOL0     C27333   0.837   2.865   2.678 -0.1149 -0.6289  0.1407
  203MOL0     C27334   0.799   2.726   2.636 -0.5370 -0.0755 -0.3899
  203MOL0     C27335   0.787   2.608   2.621  0.2346 -0.4829 -0.5035
  203MOL0     C27336   1.397   2.615   2.584 -0.4781  0.4976 -0.1833
  203MOL0     C27337   1.455   2.488   2.548 -1.0003 -0.1607 -0.1459
  203MOL0     H27338   1.740   2.074   2.550  1.3836  2.5353 -0.8139
  203MOL0     H27339   1.774   1.846   2.431 -2.0745 -0.3818  5.4048
  203MOL0     H27340   1.792   1.651   2.311  0.2810 -2.5855 -1.2019
  203MOL0     H27341   1.617   1.632   2.350 -0.4621 -2.4736 -0.6050
  203MOL0     H27342   1.558   1.490   2.185 -0.9250 -0.7201  1.2981
  203MOL0     H27343   1.680   1.565   2.072 -0.5434  3.9093  1.4943
  203MOL0     H27344   1.841   1.421   2.121 -1.3630  3.8597 -0.8449
  203MOL0     H27345   1.779   1.381   2.296 -1.6867  1.2089  0.4767
  203MOL0     H27346   1.602   1.259   2.189 -1.4078 -0.6349 -0.7989
  203MOL0     H27347   1.673   1.297   2.033 -1.6217 -1.3777 -0.6336
  203MOL0     H27348   1.885   1.178   2.079 -0.4194 -1.0161 -1.2429
  203MOL0     H27349   1.852   1.170   2.258  0.9993  0.9418  0.2633
  203MOL0     H27350   1.727   1.017   2.030  3.3374  2.4041 -0.3001
  203MOL0     H27351   1.836   0.962   2.159 -0.9150  0.2160  0.2296
  203MOL0     H27352   1.677   0.971   2.327  0.0109  2.5402  0.4043
  203MOL0     H27353   1.547   1.039   2.229 -1.4565 -1.6553  3.3035
  203MOL0     H27354   1.656   0.766   2.206 -0.4018  0.2615 -0.8376
  203MOL0     H27355   1.556   0.819   2.085 -0.9640  2.1382 -0.1492
  203MOL0     H27356   1.518   0.733   2.458 -1.0185  0.5917  1.6891
  203MOL0     H27357   1.344   0.736   2.646 -0.0326 -2.3431 -0.0023
  203MOL0     H27358   1.216   0.852   2.620  1.7203  0.3836  0.3066
  203MOL0     H27359   1.193   0.563   2.504  2.3267  2.3993 -1.9597
  203MOL0     H27360   1.062   0.685   2.511  1.0658  3.3820  2.2528
  203MOL0     H27361   0.993   0.576   2.684  0.7218 -0.3708 -2.4426
  203MOL0     H27362   1.116   0.684   2.759  0.5453 -1.0790  0.8759
  203MOL0     H27363   1.139   0.396   2.670  0.7463  2.4016 -3.1451
  203MOL0     H27364   1.113   0.449   2.844  0.1428 -0.7132  0.0717
  203MOL0     H27365   1.529   0.495   2.665 -0.2215  0.1977  0.5997
  203MOL0     H27366   1.745   0.411   2.707 -3.0740 -0.5422  1.4311
  203MOL0     H27367   1.785   0.249   2.660 -0.3282  0.1616 -3.2767
  203MOL0     H27368   1.722   0.363   2.539  0.3902  0.6391 -1.1623
  203MOL0     H27369   1.612  -0.088   2.305 -0.0938 -0.2492  0.3029
  203MOL0     H27370   1.716  -0.309   2.236 -0.1203  1.3709 -0.0866
  203MOL0     H27371   2.059  -0.451   2.487  1.2485  0.5188 -1.6586
  203MOL0     H27372   1.931  -0.567   2.530 -0.9737 -2.6997 -1.6770
  203MOL0     H27373   2.118  -0.573   2.299  1.4384  2.3183  2.5042
  203MOL0     H27374   2.102  -0.685   2.444 -1.8203 -0.7872 -0.3540
  203MOL0     H27375   2.018  -0.774   2.213  1.5951  1.1828 -0.2828
  203MOL0     H27376   1.911  -0.640   2.203 -1.1005  1.1863  1.0692
  203MOL0     H27377   1.792  -0.700   2.406 -1.6326 -2.0143  1.7699
  203MOL0     H27378   1.786  -0.833   2.280 -2.9953  1.4272  1.7228
  203MOL0     H27379   1.809  -0.909   2.532 -0.9364  0.4772 -2.4529
  203MOL0     H27380   1.944  -0.818   2.544 -2.1271 -0.1834  3.1306
  203MOL0     H27381   1.890  -1.069   2.379 -3.3744  2.5721  0.8701
  203MOL0     H27382   2.027  -0.962   2.338  0.2461 -0.7139 -0.1434
  203MOL0     H27383   1.968  -1.114   2.595 -0.2711 -1.9886 -2.3618
  203MOL0     H27384   2.061  -0.978   2.611 -1.6253  1.3975  0.0580
  203MOL0     H27385   2.139  -1.213   2.432 -1.6582  1.4049 -0.8331
  203MOL0     H27386   2.220  -1.188   2.583 -0.0400 -0.8156 -1.4292
  203MOL0     H27387   1.937  -0.313   2.603  0.8197 -2.6414 -1.9367
  203MOL0     H27388   1.820  -0.107   2.661 -3.4861  0.3342  1.3978
  203MOL0     H27389   1.373   0.037   2.798  1.5930 -0.9858  0.7140
  203MOL0     H27390   1.240   0.246   2.843 -0.1306  3.5005  2.5999
  203MOL0     H27391   1.454   1.954   2.166  0.0805  2.7108 -0.2754
  203MOL0     H27392   1.431   2.161   2.259 -0.0786 -0.6890 -2.5868
  203MOL0     H27393   1.425   2.339   2.854  2.5855 -0.5011 -1.2630
  203MOL0     H27394   1.302   2.552   2.891 -1.4589 -0.8793 -1.6883
  203MOL0     H27395   1.192   2.721   2.924 -1.8818  0.3725 -0.5564
  203MOL0     H27396   1.204   2.885   2.863  0.1784  0.9046 -1.2209
  203MOL0     H27397   0.975   2.806   2.906  1.1501 -1.9718  0.7103
  203MOL0     H27398   1.016   2.665   2.795 -0.0345 -0.8724  0.9228
  203MOL0     H27399   1.024   2.811   2.612 -3.1187  0.5243 -0.8004
  203MOL0     H27400   1.021   2.961   2.713  3.1133 -0.3961 -0.7778
  203MOL0     H27401   0.804   2.933   2.599 -0.3943 -0.1945  0.6294
  203MOL0     H27402   0.789   2.910   2.766  1.1622  2.9175 -0.8111
  203MOL0     H27403   0.772   2.502   2.611  0.8798 -0.6333  0.0911
  203MOL0     H27404   1.391   2.701   2.518  3.1313  0.8361 -0.2809
  203MOL0     H27405   1.495   2.477   2.448 -1.2402 -0.2326 -0.2334
  204MOL0     O27406   9.605  11.045   1.741 -0.3102  0.3093 -0.2964
  204MOL0     C27407   9.540  10.944   1.714 -0.9713 -0.3952 -1.3284
  204MOL0     O27408   9.596  10.830   1.656  0.0506 -0.0115  0.0557
  204MOL0     C27409   9.731  10.823   1.619  0.4360  0.6869 -0.8132
  204MOL0     C27410   9.771  10.696   1.584 -0.1334  0.3876 -0.6597
  204MOL0     C27411   9.910  10.670   1.542  0.3286 -0.7265  0.2647
  204MOL0     C27412  10.007  10.773   1.533  0.4664  0.8823 -0.0776
  204MOL0     O27413  10.137  10.769   1.488  0.3787  0.9681  0.0638
  204MOL0     C27414  10.175  10.639   1.425 -0.9682  0.4133  0.5904
  204MOL0     C27415  10.320  10.660   1.370 -0.1986  0.7941  0.9229
  204MOL0     C27416  10.354  10.533   1.295  0.3547  0.7241  0.9095
  204MOL0     C27417  10.483  10.551   1.215  0.7846 -0.4298  0.2363
  204MOL0     C27418  10.532  10.427   1.136 -0.5867  0.4722  0.1186
  204MOL0     C27419  10.416  10.367   1.051  0.2912 -0.1791 -0.4545
  204MOL0     C27420  10.485  10.264   0.960 -0.2850  0.3051  0.0125
  204MOL0     C27421  10.395  10.171   0.872 -0.0040  0.9371 -0.3112
  204MOL0     N27422  10.350  10.052   0.946  0.2898 -0.4549  0.4209
  204MOL0     C27423  10.246  10.047   1.031  0.3834 -0.1960 -1.0899
  204MOL0     C27424  10.236   9.912   1.065 -0.6555 -0.7359  0.3903
  204MOL0     C27425  10.138   9.849   1.159 -0.9709  0.4039 -0.6903
  204MOL0     C27426  10.192   9.834   1.301 -0.4349  0.5500  0.2276
  204MOL0     C27427  10.067   9.767   1.383 -0.6487 -0.1263 -0.1237
  204MOL0     C27428  10.090   9.740   1.535  0.5925  0.3432 -0.0690
  204MOL0     O27429  10.143   9.850   1.595 -0.8500 -0.1896 -0.3509
  204MOL0     C27430  10.056   9.945   1.645 -0.0482  1.0297 -0.3932
  204MOL0     C27431   9.920   9.945   1.626 -0.0878  0.2060 -0.5523
  204MOL0     C27432   9.846  10.052   1.674 -0.3616  0.9966  0.2334
  204MOL0     C27433   9.701  10.036   1.666 -0.8672 -0.0046  0.2747
  204MOL0     C27434   9.902  10.158   1.738  0.1754 -0.2589 -0.4316
  204MOL0     C27435   9.830  10.274   1.808  0.4913  1.0306  0.3211
  204MOL0     O27436   9.704  10.300   1.768  0.5923 -0.4294  0.8148
  204MOL0     C27437   9.621  10.358   1.854  0.6972 -0.5009 -0.8140
  204MOL0     C27438   9.586  10.308   1.978  0.5704 -0.8562 -0.6106
  204MOL0     C27439   9.503  10.374   2.065 -0.8346  0.2107 -0.3089
  204MOL0     C27440   9.431  10.479   2.023  0.1872 -0.1245 -0.1366
  204MOL0     O27441   9.346  10.525   2.122  0.7001  0.6167 -0.7052
  204MOL0     C27442   9.264  10.644   2.116  0.4623  1.5985  0.6217
  204MOL0     C27443   9.173  10.677   2.236  0.0910  0.1495  0.7250
  204MOL0     C27444   9.258  10.720   2.360 -0.4082  0.2115  0.0047
  204MOL0     C27445   9.187  10.675   2.485 -0.8929 -0.9596 -0.7059
  204MOL0     C27446   9.173  10.523   2.496 -0.2105  0.0408 -0.4887
  204MOL0     C27447   9.140  10.491   2.652  0.3456  0.0449  1.0906
  204MOL0     C27448   9.243  10.520   2.756  0.1459  0.1751  0.1478
  204MOL0     C27449   9.362  10.425   2.752  0.1091  0.0747 -0.1075
  204MOL0    Cl27450   9.481  10.464   2.890 -0.0757 -0.2115  0.0433
  204MOL0     C27451   9.444  10.527   1.889  0.6919 -0.4308 -0.0226
  204MOL0     C27452   9.548  10.470   1.821  0.3199 -0.1746 -0.6957
  204MOL0     O27453   9.876  10.322   1.910 -0.4612  0.2285 -0.3587
  204MOL0     C27454  10.037  10.157   1.761 -0.5190 -0.2795 -0.6146
  204MOL0     C27455  10.117  10.054   1.714  0.2367 -0.2702  0.4352
  204MOL0     N27456  10.334   9.848   0.994 -0.5552 -0.3963 -0.6206
  204MOL0     N27457  10.407   9.933   0.924 -0.0590 -0.5621  0.6287
  204MOL0     C27458   9.963  10.902   1.580  0.9059  0.5142  0.3908
  204MOL0     C27459   9.829  10.925   1.611  0.2268 -0.5460  0.4884
  204MOL0     C27460   9.404  10.931   1.773 -0.0476 -0.2567  0.6227
  204MOL0     C27461   9.350  11.026   1.850  0.9970  0.0462  0.5400
  204MOL0     C27462   9.213  11.020   1.880 -0.1347 -0.5312 -0.8598
  204MOL0     C27463   9.126  10.915   1.856  0.4540  0.1891 -0.1346
  204MOL0     O27464   8.993  10.919   1.886 -0.2991  0.1470 -0.3863
  204MOL0     C27465   8.925  10.797   1.911 -0.8434 -0.8534 -0.3654
  204MOL0     C27466   8.770  10.829   1.913  0.5179  0.0240 -0.2618
  204MOL0     C27467   8.705  10.868   1.781  0.5957  0.0805  0.2984
  204MOL0     C27468   8.553  10.864   1.786 -0.4076 -0.4762  0.8333
  204MOL0     C27469   8.477  10.901   1.661  0.3498 -0.0457 -0.0575
  204MOL0     C27470   8.404  10.931   1.562 -1.1493  0.7029 -0.6473
  204MOL0     C27471   9.179  10.826   1.767  0.3429  0.2018 -0.1971
  204MOL0     C27472   9.314  10.830   1.725  0.2142 -0.1444  0.3839
  204MOL0     H27473   9.698  10.617   1.598  0.4799 -0.2468 -0.9523
  204MOL0     H27474   9.934  10.569   1.509 -2.9688 -1.1963 -1.0675
  204MOL0     H27475  10.177  10.552   1.491  0.7000 -1.2630 -1.5396
  204MOL0     H27476  10.114  10.619   1.336  0.3427 -2.6946  0.2625
  204MOL0     H27477  10.347  10.737   1.297  1.5188 -0.3774  0.2596
  204MOL0     H27478  10.390  10.690   1.450  0.9155  0.9247 -0.0693
  204MOL0     H27479  10.368  10.444   1.358  0.5175  0.5115  0.5795
  204MOL0     H27480  10.277  10.504   1.224  2.0115  2.7853 -1.9368
  204MOL0     H27481  10.486  10.632   1.141 -0.5126 -1.2055 -0.7169
  204MOL0     H27482  10.556  10.582   1.289  0.3688 -0.7983  0.8098
  204MOL0     H27483  10.615  10.453   1.070  2.2856 -1.5564  2.6473
  204MOL0     H27484  10.571  10.353   1.207 -2.8252 -0.0772  0.8545
  204MOL0     H27485  10.329  10.335   1.109 -0.2724 -2.3746 -2.3817
  204MOL0     H27486  10.377  10.454   0.997 -2.5862  0.4976  2.3590
  204MOL0     H27487  10.539  10.323   0.885  0.5021 -0.4342 -0.0156
  204MOL0     H27488  10.561  10.207   1.012 -0.2909 -1.0208 -1.3848
  204MOL0     H27489  10.444  10.147   0.777 -0.6373  1.2673 -0.7305
  204MOL0     H27490  10.300  10.212   0.836  0.2728 -0.5709 -3.0594
  204MOL0     H27491  10.162  10.113   1.049 -1.4360 -2.7376  0.4609
  204MOL0     H27492  10.042   9.901   1.166 -1.6326 -0.9249  1.0278
  204MOL0     H27493  10.122   9.745   1.129  1.1871 -0.7195  1.7283
  204MOL0     H27494  10.223   9.923   1.356  0.4644  1.1048 -1.1234
  204MOL0     H27495  10.275   9.763   1.307 -0.3627  0.4318 -1.7534
  204MOL0     H27496  10.031   9.680   1.329  1.0002 -1.0318  0.1597
  204MOL0     H27497   9.991   9.843   1.362 -1.8689 -1.2855 -0.0266
  204MOL0     H27498  10.162   9.659   1.548  0.4857  0.1407 -0.7024
  204MOL0     H27499   9.999   9.717   1.591 -0.2459  4.8290  0.8685
  204MOL0     H27500   9.870   9.866   1.570 -3.0952  0.3171  1.7231
  204MOL0     H27501   9.653  10.116   1.608 -1.5225  1.0176  2.1518
  204MOL0     H27502   9.674   9.946   1.608  0.7892  1.3063 -2.7749
  204MOL0     H27503   9.649  10.014   1.760 -0.5982 -1.0881  0.1852
  204MOL0     H27504   9.639  10.218   2.008  0.0162 -0.8757  0.3309
  204MOL0     H27505   9.492  10.334   2.165 -1.9756  0.2326 -0.4110
  204MOL0     H27506   9.319  10.732   2.081 -1.0201  2.7609  1.1589
  204MOL0     H27507   9.206  10.622   2.026 -0.5183  0.8434  1.4135
  204MOL0     H27508   9.102  10.759   2.220 -2.0028 -1.6695  0.1890
  204MOL0     H27509   9.108  10.592   2.258  0.0614  0.6190  2.6539
  204MOL0     H27510   9.272  10.828   2.359  0.7385  0.0733 -0.5318
  204MOL0     H27511   9.348  10.659   2.348 -0.8553 -0.3726 -0.4454
  204MOL0     H27512   9.262  10.705   2.559  1.1656  0.4366 -3.1868
  204MOL0     H27513   9.100  10.734   2.514  1.5625  1.8426  1.5564
  204MOL0     H27514   9.259  10.464   2.465 -0.0188  1.3466 -2.5835
  204MOL0     H27515   9.085  10.487   2.442 -0.3524 -1.0454  0.4091
  204MOL0     H27516   9.049  10.552   2.657 -1.9412 -2.5872 -3.2502
  204MOL0     H27517   9.103  10.389   2.639  0.9406  0.0681 -1.0516
  204MOL0     H27518   9.195  10.498   2.852  1.2297 -4.7925 -0.1749
  204MOL0     H27519   9.272  10.625   2.745  0.4237 -0.0495 -1.6652
  204MOL0     H27520   9.415  10.442   2.658  2.0478  2.0367  1.2238
  204MOL0     H27521   9.323  10.326   2.777 -1.0149  0.9021  1.6670
  204MOL0     H27522   9.394  10.617   1.854 -0.2533 -1.3981 -1.2697
  204MOL0     H27523   9.569  10.506   1.720 -1.9954  0.8902 -0.8581
  204MOL0     H27524  10.074  10.250   1.803 -1.8958 -0.6234  1.5477
  204MOL0     H27525  10.222  10.039   1.736  0.1812 -1.0662  0.1957
  204MOL0     H27526  10.042  10.976   1.573  2.5744 -1.1835  0.2848
  204MOL0     H27527   9.794  11.025   1.634  0.8413 -0.5029  1.2904
  204MOL0     H27528   9.418  11.100   1.892  1.8068 -0.2746 -0.1773
  204MOL0     H27529   9.169  11.093   1.948  0.4275 -1.4074  0.4875
  204MOL0     H27530   8.958  10.718   1.844  0.4462  2.7881 -4.5415
  204MOL0     H27531   8.942  10.766   2.015 -2.6530 -0.5796  0.0448
  204MOL0     H27532   8.761  10.901   1.995 -2.9121 -0.8171  0.2774
  204MOL0     H27533   8.726  10.737   1.953 -0.9089 -0.0309 -1.8417
  204MOL0     H27534   8.737  10.800   1.701  0.6188  0.5591 -0.1012
  204MOL0     H27535   8.752  10.965   1.766  4.2846 -1.9341 -3.2344
  204MOL0     H27536   8.517  10.923   1.870  0.8655  1.4507  0.0774
  204MOL0     H27537   8.532  10.758   1.804  2.2752 -1.2055  0.1961
  204MOL0     H27538   8.351  10.960   1.474 -0.7810 -2.0115 -1.8476
  204MOL0     H27539   9.120  10.756   1.709 -0.0790 -1.4611  2.1018
  204MOL0     H27540   9.360  10.751   1.667  2.3509 -1.2565  3.3231
  205MOL0     O27541   8.608   0.021   4.319  0.2236 -1.4117 -0.0360
  205MOL0     C27542   8.717  -0.029   4.343 -1.0781  0.2477 -1.1168
  205MOL0     O27543   8.744  -0.152   4.397 -0.0649  0.0050 -0.0522
  205MOL0     C27544   8.654  -0.212   4.482 -0.3905  0.4091  0.1445
  205MOL0     C27545   8.571  -0.325   4.454 -0.3582  0.6219  0.1349
  205MOL0     C27546   8.486  -0.379   4.540  0.3129 -1.3393  0.0765
  205MOL0     C27547   8.483  -0.319   4.670  0.4171 -0.2109  0.4954
  205MOL0     O27548   8.407  -0.360   4.774  0.0157  0.3856 -0.4308
  205MOL0     C27549   8.404  -0.491   4.809 -0.4733  0.2516 -0.3821
  205MOL0     C27550   8.280  -0.553   4.755  0.2617  0.4844 -0.0901
  205MOL0     C27551   8.163  -0.504   4.835 -0.2640  0.7154 -0.0067
  205MOL0     C27552   8.045  -0.577   4.778  0.6354  0.1042  0.2876
  205MOL0     C27553   7.935  -0.485   4.812 -0.8811  0.9378  0.1488
  205MOL0     C27554   7.792  -0.540   4.781  0.0148  0.7417 -0.3488
  205MOL0     C27555   7.766  -0.656   4.879  0.4158 -0.8159  0.3328
  205MOL0     C27556   7.613  -0.704   4.856 -0.0983  0.7584 -0.2133
  205MOL0     N27557   7.572  -0.793   4.961 -0.0309  0.0781  0.5500
  205MOL0     C27558   7.485  -0.890   4.953  0.6128 -0.7247 -0.0564
  205MOL0     C27559   7.439  -0.914   5.078  0.4065 -0.1769  0.4900
  205MOL0     C27560   7.354  -1.030   5.101  0.6652  0.4021  0.7913
  205MOL0     C27561   7.292  -1.028   5.239 -0.0516  0.2245  0.6685
  205MOL0     C27562   7.161  -1.109   5.239 -0.1427 -0.5612  0.6774
  205MOL0     C27563   7.056  -1.056   5.135  0.5378 -0.0714 -0.3148
  205MOL0     O27564   7.063  -0.911   5.131  0.0206 -0.5066 -0.1668
  205MOL0     C27565   6.958  -0.844   5.070 -0.1838 -0.3396  1.2166
  205MOL0     C27566   6.961  -0.702   5.072  0.5178 -0.0116  0.1787
  205MOL0     C27567   6.855  -0.628   5.021 -0.0003  0.0340  0.6662
  205MOL0     C27568   6.852  -0.484   5.071 -0.1228 -0.3067  0.3039
  205MOL0     C27569   6.742  -0.689   4.956  0.2028 -0.0091  0.6528
  205MOL0     C27570   6.628  -0.620   4.878  0.0398  0.2590  0.3287
  205MOL0     O27571   6.534  -0.703   4.826 -0.2509  0.4302  0.5752
  205MOL0     C27572   6.431  -0.629   4.769  0.7409 -0.0169  1.0657
  205MOL0     C27573   6.322  -0.598   4.846 -0.3811 -0.1568 -0.3275
  205MOL0     C27574   6.213  -0.524   4.790 -0.4747  0.0154  0.2594
  205MOL0     C27575   6.211  -0.487   4.652 -0.7503 -0.1085 -0.2482
  205MOL0     O27576   6.094  -0.421   4.609 -0.2592  0.0778  0.0495
  205MOL0     C27577   6.027  -0.498   4.510  0.5134  0.3864  0.4395
  205MOL0     C27578   5.876  -0.480   4.532 -0.8165  0.0812 -0.8819
  205MOL0     C27579   5.798  -0.595   4.468 -0.1914  0.2671 -0.2076
  205MOL0     C27580   5.650  -0.544   4.472 -1.0543  0.6630  1.4066
  205MOL0     C27581   5.573  -0.671   4.465 -0.4303  0.6463  0.2479
  205MOL0     C27582   5.593  -0.773   4.350 -0.2069 -0.4428 -0.0708
  205MOL0     C27583   5.472  -0.789   4.257 -0.6606  0.7515  0.2065
  205MOL0     C27584   5.418  -0.671   4.189 -0.3150  0.5583  0.5374
  205MOL0    Cl27585   5.509  -0.643   4.038 -0.4636  0.1456  0.2128
  205MOL0     C27586   6.314  -0.532   4.572  0.2022  0.2078 -0.1234
  205MOL0     C27587   6.422  -0.608   4.629  0.5172  0.6231  1.1486
  205MOL0     O27588   6.638  -0.498   4.859 -0.0103 -0.1525  0.6183
  205MOL0     C27589   6.738  -0.831   4.958  0.1191 -0.4962  0.4483
  205MOL0     C27590   6.848  -0.905   5.011 -0.1981  0.1591 -0.5990
  205MOL0     N27591   7.498  -0.833   5.172 -0.2927 -0.8880 -0.2768
  205MOL0     N27592   7.576  -0.758   5.094 -0.1187  0.8665 -0.1884
  205MOL0     C27593   8.562  -0.204   4.703  0.0497 -0.3609  1.0439
  205MOL0     C27594   8.652  -0.152   4.608 -0.3008 -0.6414 -0.2235
  205MOL0     C27595   8.830   0.056   4.286  1.1212  0.5214 -0.7431
  205MOL0     C27596   8.962   0.008   4.297 -0.1133 -0.3317 -0.0517
  205MOL0     C27597   9.066   0.067   4.228 -0.0846 -0.0556  0.1269
  205MOL0     C27598   9.039   0.179   4.145 -0.5792  1.0493 -0.5619
  205MOL0     O27599   9.149   0.221   4.068  0.2881  0.6331 -1.0387
  205MOL0     C27600   9.152   0.357   4.017 -0.0299  0.3431 -1.2633
  205MOL0     C27601   9.134   0.369   3.864  0.1677 -0.4363 -0.7160
  205MOL0     C27602   9.280   0.407   3.791 -0.1608  0.5275 -0.6754
  205MOL0     C27603   9.295   0.556   3.782 -0.9563 -0.3034  0.6011
  205MOL0     C27604   9.333   0.631   3.903  0.3012  0.4858 -0.2383
  205MOL0     C27605   9.347   0.680   4.008  0.9414 -0.5241  0.6293
  205MOL0     C27606   8.903   0.223   4.130  0.8167  0.4525  0.0203
  205MOL0     C27607   8.803   0.170   4.206  0.0861  0.5683  0.0270
  205MOL0     H27608   8.578  -0.376   4.359  0.5576 -0.5761  0.8164
  205MOL0     H27609   8.427  -0.464   4.508 -0.2449 -0.3918 -1.5454
  205MOL0     H27610   8.497  -0.538   4.774  0.0313  0.4522  0.6534
  205MOL0     H27611   8.415  -0.495   4.917 -1.8102 -0.1399 -0.2449
  205MOL0     H27612   8.275  -0.533   4.647  2.1619 -2.6625 -0.8930
  205MOL0     H27613   8.284  -0.661   4.772 -2.7037  0.4261  0.8077
  205MOL0     H27614   8.175  -0.524   4.942  1.7612  0.9534 -0.1414
  205MOL0     H27615   8.154  -0.396   4.825 -2.2311  0.7380  1.3693
  205MOL0     H27616   8.042  -0.588   4.670 -0.0474  0.7349  0.2313
  205MOL0     H27617   8.041  -0.677   4.821 -3.1966 -0.0789 -0.2002
  205MOL0     H27618   7.949  -0.462   4.918 -1.2753  0.8791  0.2170
  205MOL0     H27619   7.950  -0.393   4.754 -2.4459  0.6801 -0.7207
  205MOL0     H27620   7.728  -0.454   4.801  2.6529  2.4442  1.5371
  205MOL0     H27621   7.788  -0.557   4.673  0.7253  1.7376 -0.5545
  205MOL0     H27622   7.826  -0.743   4.848  1.1362  0.1834 -1.2072
  205MOL0     H27623   7.791  -0.621   4.980  1.0806 -0.9923  0.2378
  205MOL0     H27624   7.612  -0.742   4.754  3.1398  2.8012 -1.1847
  205MOL0     H27625   7.553  -0.613   4.867 -0.6793  0.2581  0.8392
  205MOL0     H27626   7.459  -0.953   4.869 -1.1040 -0.9620  0.6088
  205MOL0     H27627   7.270  -1.011   5.033 -0.5601 -0.5630  1.9778
  205MOL0     H27628   7.397  -1.130   5.092 -0.8223 -0.1485 -0.9655
  205MOL0     H27629   7.270  -0.929   5.281  2.6877  0.9788  0.5083
  205MOL0     H27630   7.366  -1.072   5.307 -1.1353  0.5158  2.0807
  205MOL0     H27631   7.111  -1.097   5.336 -1.5491  1.3575 -0.2253
  205MOL0     H27632   7.162  -1.218   5.229  2.3629 -0.7724  2.1960
  205MOL0     H27633   6.958  -1.082   5.177  0.6798  0.6126  0.4793
  205MOL0     H27634   7.068  -1.092   5.033  0.9845  0.0844 -0.3198
  205MOL0     H27635   7.033  -0.663   5.143 -0.8625  1.2975  0.9154
  205MOL0     H27636   6.843  -0.412   4.990  1.9089 -1.0610 -0.6633
  205MOL0     H27637   6.769  -0.462   5.138  1.5741  1.0040  2.0855
  205MOL0     H27638   6.949  -0.456   5.114 -0.7298  2.7970 -0.1458
  205MOL0     H27639   6.323  -0.605   4.955 -0.9537 -2.4114 -0.4215
  205MOL0     H27640   6.115  -0.513   4.835  0.4647 -3.0260  3.5606
  205MOL0     H27641   6.047  -0.446   4.416  0.5237  0.0434  0.2492
  205MOL0     H27642   6.051  -0.604   4.499  0.0900  0.1299  1.7778
  205MOL0     H27643   5.848  -0.492   4.637 -2.8741 -2.3749 -1.6263
  205MOL0     H27644   5.841  -0.381   4.499 -0.7221  1.1153  1.8246
  205MOL0     H27645   5.831  -0.684   4.522  1.8499 -0.2804 -2.2031
  205MOL0     H27646   5.813  -0.608   4.360 -2.0583 -2.2184 -0.2696
  205MOL0     H27647   5.637  -0.488   4.565 -3.4357  0.2247  1.3834
  205MOL0     H27648   5.626  -0.479   4.387  0.5943  0.0719  0.4412
  205MOL0     H27649   5.469  -0.638   4.473 -0.1692  1.9431 -1.2423
  205MOL0     H27650   5.603  -0.725   4.555  0.7930 -0.4747 -0.7877
  205MOL0     H27651   5.683  -0.741   4.296  0.3109  1.1608  1.6386
  205MOL0     H27652   5.614  -0.872   4.393 -2.3119 -0.7168  0.4472
  205MOL0     H27653   5.393  -0.822   4.325 -1.7685  0.3481 -1.2208
  205MOL0     H27654   5.499  -0.862   4.180  0.9069  0.3176  1.1149
  205MOL0     H27655   5.415  -0.571   4.235 -0.1111  0.5157  0.6464
  205MOL0     H27656   5.314  -0.692   4.163 -0.3917  1.5522 -0.0042
  205MOL0     H27657   6.308  -0.516   4.464  0.3438  0.1472 -0.1404
  205MOL0     H27658   6.498  -0.650   4.565  0.7494 -0.4418  2.0965
  205MOL0     H27659   6.653  -0.879   4.912  1.0014  0.3078 -2.1638
  205MOL0     H27660   6.836  -1.013   5.022 -3.1233  0.6314  2.5591
  205MOL0     H27661   8.539  -0.153   4.797 -3.1602  1.0504 -0.3701
  205MOL0     H27662   8.712  -0.062   4.610  1.2614 -1.4836 -2.9809
  205MOL0     H27663   8.985  -0.079   4.359  1.1391  0.4343  0.6080
  205MOL0     H27664   9.164   0.023   4.241 -0.5001 -1.6978 -1.8554
  205MOL0     H27665   9.078   0.409   4.078  0.2385 -3.6179  3.0370
  205MOL0     H27666   9.251   0.396   4.041 -0.0500 -1.0320  1.3267
  205MOL0     H27667   9.067   0.452   3.839  0.6164 -0.7697 -3.3602
  205MOL0     H27668   9.095   0.277   3.819 -1.0437  0.4419 -1.5378
  205MOL0     H27669   9.275   0.367   3.689  2.2221  0.2866 -0.7614
  205MOL0     H27670   9.373   0.361   3.826  0.0145 -0.4954 -2.3722
  205MOL0     H27671   9.204   0.608   3.748  0.5925  1.4815 -1.1384
  205MOL0     H27672   9.363   0.572   3.698 -1.0113 -0.8113  0.4548
  205MOL0     H27673   9.374   0.718   4.104  0.5420 -0.7069  0.8148
  205MOL0     H27674   8.868   0.294   4.055  1.2690 -0.5176 -1.1513
  205MOL0     H27675   8.703   0.205   4.182  1.1609  1.4200 -3.9744
  206MOL0     O27676  10.829   6.676  11.346  0.3008  0.1308 -0.7794
  206MOL0     C27677  10.881   6.745  11.265 -0.1530  0.0872  0.3985
  206MOL0     O27678  10.985   6.714  11.175 -0.5910 -0.1408 -0.9865
  206MOL0     C27679  11.047   6.594  11.190 -0.2444  0.4332  0.1830
  206MOL0     C27680  11.152   6.578  11.280  0.1731 -0.7974 -0.2122
  206MOL0     C27681  11.252   6.476  11.281 -0.3512  0.3811  0.1489
  206MOL0     C27682  11.251   6.388  11.175 -0.5751 -0.1241  0.4640
  206MOL0     O27683  11.352   6.309  11.132  0.1429 -0.0511  0.3469
  206MOL0     C27684  11.457   6.276  11.227 -0.1940  0.5248 -0.8123
  206MOL0     C27685  11.395   6.169  11.311 -0.3324  0.7827 -0.7163
  206MOL0     C27686  11.496   6.070  11.379 -0.1881 -0.5305  0.0975
  206MOL0     C27687  11.421   5.986  11.473 -1.1857 -0.6606 -0.2751
  206MOL0     C27688  11.486   5.860  11.506 -0.0707  0.2446 -0.6531
  206MOL0     C27689  11.628   5.863  11.567  0.0505  0.1121  0.8674
  206MOL0     C27690  11.687   5.725  11.560  0.2320  0.4526 -0.3232
  206MOL0     C27691  11.822   5.712  11.630 -0.9042 -0.0493 -0.0245
  206MOL0     N27692  11.919   5.814  11.595  0.1856  0.7587  0.0112
  206MOL0     C27693  11.976   5.912  11.673 -0.5073  0.8878 -0.2492
  206MOL0     C27694  12.058   5.977  11.592  0.1428 -0.8873 -0.0527
  206MOL0     C27695  12.144   6.093  11.636  0.6084 -0.3797 -0.5363
  206MOL0     C27696  12.081   6.222  11.603 -0.6020 -0.9212 -0.4992
  206MOL0     C27697  11.964   6.242  11.705 -0.7431 -0.1648  0.0323
  206MOL0     C27698  11.827   6.220  11.649  0.0859  0.8266 -0.6406
  206MOL0     O27699  11.792   6.320  11.556  0.3186  0.1294  0.3428
  206MOL0     C27700  11.668   6.381  11.570  0.3404  0.2674  0.0284
  206MOL0     C27701  11.653   6.512  11.530 -0.5221 -0.6815 -1.0028
  206MOL0     C27702  11.539   6.594  11.552 -0.3584 -0.6198  1.2360
  206MOL0     C27703  11.537   6.735  11.478  0.4966 -0.0884 -1.0379
  206MOL0     C27704  11.424   6.534  11.611 -0.9473  0.7185  0.4135
  206MOL0     C27705  11.303   6.610  11.644  0.6619 -0.3968 -0.9523
  206MOL0     O27706  11.201   6.530  11.702 -0.6834  0.1014 -0.2510
  206MOL0     C27707  11.077   6.576  11.726  0.6613  0.0191  0.6372
  206MOL0     C27708  11.005   6.543  11.838 -0.5848 -0.2900 -0.2855
  206MOL0     C27709  10.870   6.570  11.859  0.1004  0.5422  1.0520
  206MOL0     C27710  10.810   6.656  11.767 -0.1593  0.4912  0.3809
  206MOL0     O27711  10.683   6.703  11.788  0.1414  0.5098 -0.0898
  206MOL0     C27712  10.651   6.735  11.923 -1.0213  0.0016  0.5532
  206MOL0     C27713  10.504   6.773  11.935  0.2790  0.6713  0.3574
  206MOL0     C27714  10.478   6.858  12.061 -0.3972 -0.6870  0.9119
  206MOL0     C27715  10.477   6.770  12.192 -0.1175  0.0843 -0.1405
  206MOL0     C27716  10.336   6.723  12.233  0.0412  0.2987  0.0220
  206MOL0     C27717  10.331   6.600  12.317 -0.4842  0.4180  0.2204
  206MOL0     C27718  10.189   6.578  12.364  0.7648  0.1670  0.3324
  206MOL0     C27719  10.175   6.473  12.474 -0.3340  0.0011  0.2985
  206MOL0    Cl27720  10.010   6.436  12.548 -0.2150  0.2115 -0.2328
  206MOL0     C27721  10.881   6.702  11.658 -0.6550 -0.0296 -0.4657
  206MOL0     C27722  11.005   6.660  11.639 -1.2180  0.3515 -0.4149
  206MOL0     O27723  11.295   6.732  11.619 -0.3138  0.2838 -0.3369
  206MOL0     C27724  11.435   6.397  11.643 -0.1932 -0.4516 -0.1728
  206MOL0     C27725  11.559   6.325  11.633 -0.1961 -0.2497 -1.0674
  206MOL0     N27726  12.064   5.912  11.471  0.0973 -0.0101 -0.2182
  206MOL0     N27727  11.972   5.818  11.465 -0.1645 -0.0704 -1.0559
  206MOL0     C27728  11.134   6.387  11.101 -0.3117  0.3790  0.5856
  206MOL0     C27729  11.046   6.496  11.088 -0.0559 -0.0179  0.0772
  206MOL0     C27730  10.825   6.878  11.248  1.6648 -0.8864 -0.5479
  206MOL0     C27731  10.731   6.933  11.343  0.3186 -0.1305 -0.3652
  206MOL0     C27732  10.684   7.061  11.323  0.1800 -0.1623  0.2875
  206MOL0     C27733  10.716   7.141  11.211  0.0484  0.2227 -0.5093
  206MOL0     O27734  10.685   7.277  11.194  0.3147  0.3058 -0.8884
  206MOL0     C27735  10.612   7.359  11.283 -0.1733  0.1071  0.1996
  206MOL0     C27736  10.633   7.507  11.239 -0.4152  1.1861 -0.2108
  206MOL0     C27737  10.575   7.540  11.100  0.7360 -0.2719 -0.2671
  206MOL0     C27738  10.425   7.543  11.095  0.5425 -0.3608 -0.1911
  206MOL0     C27739  10.362   7.639  11.189 -0.6196  0.4340 -0.5103
  206MOL0     C27740  10.296   7.699  11.270  0.0877 -0.7651 -0.2885
  206MOL0     C27741  10.809   7.086  11.123 -0.0075 -0.6074 -0.1572
  206MOL0     C27742  10.858   6.962  11.138  0.2781  0.0645  0.0250
  206MOL0     H27743  11.179   6.662  11.343  2.4002 -1.7818  0.2100
  206MOL0     H27744  11.339   6.485  11.345 -0.5664 -2.4161  0.9607
  206MOL0     H27745  11.546   6.249  11.170 -0.5156 -0.8727 -0.6940
  206MOL0     H27746  11.484   6.357  11.297 -0.5633 -0.3816  0.4145
  206MOL0     H27747  11.327   6.210  11.386 -0.6741 -0.1372 -0.5041
  206MOL0     H27748  11.329   6.105  11.250  1.7137 -1.9622 -0.2760
  206MOL0     H27749  11.539   6.010  11.298 -0.2106 -0.2341 -0.1352
  206MOL0     H27750  11.575   6.116  11.439 -0.3677 -0.5033  0.3149
  206MOL0     H27751  11.395   6.047  11.561  1.4609 -0.1624  0.2651
  206MOL0     H27752  11.323   5.965  11.430 -2.2250  0.9069  1.1555
  206MOL0     H27753  11.431   5.814  11.589  2.7310  0.8124  1.7141
  206MOL0     H27754  11.480   5.804  11.413  1.3855  0.3822 -0.8549
  206MOL0     H27755  11.695   5.925  11.506  2.0759 -3.0494 -0.4054
  206MOL0     H27756  11.627   5.899  11.670 -3.2086 -0.9666  1.3366
  206MOL0     H27757  11.614   5.658  11.606 -0.8577  1.5413 -0.3882
  206MOL0     H27758  11.699   5.700  11.455  0.8941 -0.5272 -0.0311
  206MOL0     H27759  11.860   5.612  11.608  0.9880 -0.1454  3.0906
  206MOL0     H27760  11.804   5.701  11.737  1.6002 -0.2335  0.4385
  206MOL0     H27761  11.949   5.931  11.776 -1.8962 -0.3120 -0.3558
  206MOL0     H27762  12.156   6.078  11.744 -1.1651 -0.9111 -0.3759
  206MOL0     H27763  12.240   6.093  11.585  0.3642  3.8135 -1.3029
  206MOL0     H27764  12.044   6.257  11.506  2.0905  0.9870 -0.9527
  206MOL0     H27765  12.157   6.299  11.619 -2.0912  0.1419  2.1266
  206MOL0     H27766  11.982   6.343  11.744 -0.3797  0.0590 -0.6969
  206MOL0     H27767  11.976   6.180  11.794  1.7512 -0.3843 -0.3741
  206MOL0     H27768  11.763   6.203  11.736  0.6938 -1.7692 -0.6146
  206MOL0     H27769  11.822   6.129  11.589 -1.4402  1.8211 -2.0751
  206MOL0     H27770  11.738   6.555  11.477  0.9770 -2.4105 -0.1388
  206MOL0     H27771  11.543   6.823  11.543 -1.4093  1.2867 -2.6180
  206MOL0     H27772  11.614   6.752  11.402  0.3404  0.8957 -0.9888
  206MOL0     H27773  11.441   6.731  11.428  1.5250 -1.9776 -2.9939
  206MOL0     H27774  11.055   6.475  11.906 -0.7340 -2.8901 -2.5855
  206MOL0     H27775  10.820   6.530  11.947  0.1994  1.1069  1.3670
  206MOL0     H27776  10.670   6.654  11.994  4.8148 -2.0995 -2.7309
  206MOL0     H27777  10.713   6.823  11.947  0.2315 -0.8103  0.4129
  206MOL0     H27778  10.470   6.824  11.845 -0.8820  2.4015  1.7113
  206MOL0     H27779  10.461   6.673  11.934  0.6325  0.3139 -4.9050
  206MOL0     H27780  10.379   6.895  12.033  0.5808 -0.2631 -2.4114
  206MOL0     H27781  10.546   6.943  12.069  0.5052 -1.5696  4.9107
  206MOL0     H27782  10.543   6.683  12.179 -1.3655 -1.0707  0.9477
  206MOL0     H27783  10.517   6.836  12.270  3.2290 -1.2564 -0.5563
  206MOL0     H27784  10.298   6.680  12.140  1.0661 -4.3717  1.5082
  206MOL0     H27785  10.281   6.806  12.280  0.1209  0.9490 -0.9960
  206MOL0     H27786  10.369   6.515  12.261 -0.2534 -1.2226  2.6995
  206MOL0     H27787  10.393   6.609  12.407  1.9270 -4.4343 -0.6471
  206MOL0     H27788  10.118   6.545  12.287 -1.7542  0.4393  2.3940
  206MOL0     H27789  10.148   6.664  12.417  2.3267  0.7425  0.6515
  206MOL0     H27790  10.241   6.511  12.553 -0.6393 -0.2576  0.6724
  206MOL0     H27791  10.224   6.381  12.441  1.4210  1.1760 -0.5581
  206MOL0     H27792  10.838   6.770  11.586 -1.8084 -0.6279 -0.3686
  206MOL0     H27793  11.055   6.684  11.546 -2.0750 -1.6755 -1.4745
  206MOL0     H27794  11.347   6.345  11.682 -0.3838 -1.6020 -2.0127
  206MOL0     H27795  11.578   6.226  11.672  2.2324  0.3614 -0.4976
  206MOL0     H27796  11.118   6.308  11.028  3.1697  0.3531 -0.3226
  206MOL0     H27797  10.979   6.516  11.005 -4.3565 -2.7824  2.5200
  206MOL0     H27798  10.693   6.880  11.430  3.2167 -0.1330  1.0357
  206MOL0     H27799  10.630   7.111  11.403 -1.8984 -3.2673  0.9825
  206MOL0     H27800  10.512   7.319  11.300  0.4069 -0.4062  2.7477
  206MOL0     H27801  10.648   7.355  11.386 -0.6877  1.9501  0.4942
  206MOL0     H27802  10.738   7.535  11.249 -0.7346  1.9708  1.2856
  206MOL0     H27803  10.584   7.569  11.315  0.5765 -0.0721  1.5334
  206MOL0     H27804  10.618   7.474  11.024  0.8259 -1.7045  0.9797
  206MOL0     H27805  10.609   7.641  11.078  1.8104 -0.7877 -1.1224
  206MOL0     H27806  10.391   7.443  11.123  2.5346 -0.4142  2.4272
  206MOL0     H27807  10.398   7.561  10.990  4.5754 -4.6399 -2.3244
  206MOL0     H27808  10.238   7.746  11.347  0.8739 -2.0762  1.1762
  206MOL0     H27809  10.853   7.145  11.044 -3.6071  0.3789 -1.6483
  206MOL0     H27810  10.937   6.925  11.074 -0.1640 -2.0000  0.6085
  207MOL0     O27811   1.516   6.361  10.010 -0.0227 -0.1214  0.2093
  207MOL0     C27812   1.593   6.426   9.941 -0.1678 -0.0754 -0.4808
  207MOL0     O27813   1.699   6.379   9.869  0.1460  0.0512  0.5483
  207MOL0     C27814   1.719   6.249   9.863  0.3112  0.7970  0.4931
  207MOL0     C27815   1.834   6.202   9.919  0.2877 -0.3166 -0.2515
  207MOL0     C27816   1.881   6.068   9.895 -0.4873 -0.2503 -0.2858
  207MOL0     C27817   1.798   5.984   9.817 -0.3308  0.1723  0.2976
  207MOL0     O27818   1.854   5.860   9.796  0.1753  0.0651 -0.2868
  207MOL0     C27819   1.802   5.758   9.709  0.4147 -0.4187 -0.4515
  207MOL0     C27820   1.899   5.636   9.700 -0.3584 -0.7103  0.2971
  207MOL0     C27821   1.828   5.512   9.656 -0.2241  1.2629  1.1329
  207MOL0     C27822   1.909   5.382   9.679  0.1117  0.5924 -0.2908
  207MOL0     C27823   1.834   5.258   9.609  0.6247 -0.2117  0.1761
  207MOL0     C27824   1.924   5.148   9.619  0.2563  0.4068  0.9915
  207MOL0     C27825   2.023   5.157   9.513 -0.4015  0.2717  0.4601
  207MOL0     C27826   2.110   5.031   9.503 -0.3455 -0.0261 -0.5995
  207MOL0     N27827   2.214   5.045   9.398  0.0086  0.2695 -0.3049
  207MOL0     C27828   2.193   5.065   9.264  0.4460  0.3783 -0.1197
  207MOL0     C27829   2.314   5.095   9.213 -0.8220  1.2783 -0.4268
  207MOL0     C27830   2.335   5.123   9.070  0.2100  0.2428 -0.2516
  207MOL0     C27831   2.333   5.272   9.041  0.2358 -0.1222  0.0351
  207MOL0     C27832   2.458   5.345   9.101  0.0159 -0.0050  0.6033
  207MOL0     C27833   2.462   5.499   9.090  0.7808  0.2212  0.2062
  207MOL0     O27834   2.494   5.538   8.958  0.1549 -0.3158 -0.7950
  207MOL0     C27835   2.469   5.664   8.912  0.2742 -0.0201 -0.0160
  207MOL0     C27836   2.381   5.774   8.974 -0.8617  0.6278  0.2806
  207MOL0     C27837   2.371   5.899   8.924 -0.0466 -0.0815 -0.1042
  207MOL0     C27838   2.273   5.991   8.993 -0.6017  0.0307 -0.6530
  207MOL0     C27839   2.453   5.933   8.811  0.4112  0.5352 -0.2296
  207MOL0     C27840   2.482   6.073   8.776 -0.4307 -0.4241 -0.2486
  207MOL0     O27841   2.377   6.151   8.751 -0.2556  0.6401  0.4969
  207MOL0     C27842   2.408   6.282   8.722 -0.0070 -0.6640 -0.3852
  207MOL0     C27843   2.494   6.310   8.612 -0.8967 -0.5692 -0.3716
  207MOL0     C27844   2.524   6.440   8.572  0.0501  0.1084  0.7207
  207MOL0     C27845   2.485   6.546   8.644  0.2912 -0.4640  0.5374
  207MOL0     O27846   2.529   6.662   8.590 -0.1028 -0.6248  0.5208
  207MOL0     C27847   2.567   6.768   8.684 -0.3002 -0.4520 -0.6053
  207MOL0     C27848   2.707   6.814   8.644 -0.5899  0.3488 -0.0485
  207MOL0     C27849   2.718   6.893   8.520  0.4855  0.5380 -0.2709
  207MOL0     C27850   2.847   6.969   8.495 -0.5462  0.1569 -0.1378
  207MOL0     C27851   2.857   7.019   8.352 -0.3298  0.1445 -0.7928
  207MOL0     C27852   2.809   7.166   8.345  0.1031  0.6560 -0.0069
  207MOL0     C27853   2.822   7.236   8.205 -0.7573  0.1802 -0.2026
  207MOL0     C27854   2.956   7.208   8.132  0.7192 -0.3453  0.4559
  207MOL0    Cl27855   2.963   7.314   7.983 -0.2913  0.4632 -0.3323
  207MOL0     C27856   2.397   6.533   8.749 -0.4856 -0.3122 -0.0522
  207MOL0     C27857   2.354   6.405   8.790 -0.0839 -0.9718 -0.7592
  207MOL0     O27858   2.598   6.111   8.791 -0.6527 -0.1776 -0.5040
  207MOL0     C27859   2.523   5.831   8.739 -0.3013  0.2707 -0.1192
  207MOL0     C27860   2.530   5.701   8.792  0.4416 -0.1287 -0.7701
  207MOL0     N27861   2.404   5.085   9.318  0.2441 -0.5553  0.5763
  207MOL0     N27862   2.346   5.053   9.426  0.8624  0.2288  0.8406
  207MOL0     C27863   1.685   6.032   9.759  0.8027 -0.8747  0.3644
  207MOL0     C27864   1.643   6.163   9.786  0.5330  0.0948  0.5909
  207MOL0     C27865   1.562   6.572   9.944 -0.0383  0.8166 -0.5894
  207MOL0     C27866   1.584   6.648   9.834  0.4038 -0.5804  1.1088
  207MOL0     C27867   1.542   6.787   9.834 -0.5691 -0.1720 -0.1798
  207MOL0     C27868   1.460   6.841   9.928 -0.1756 -0.8216 -0.1676
  207MOL0     O27869   1.422   6.972   9.907  0.5788 -0.3488 -0.1090
  207MOL0     C27870   1.351   7.045  10.009  0.8335  0.4435  0.1606
  207MOL0     C27871   1.209   7.067   9.962 -0.5043  0.6035 -0.3982
  207MOL0     C27872   1.127   6.940   9.953  0.5446 -0.3326  1.0003
  207MOL0     C27873   1.079   6.880  10.085 -0.6106 -0.3234  0.0601
  207MOL0     C27874   0.981   6.974  10.144 -0.2798  1.5574  0.2223
  207MOL0     C27875   0.897   7.031  10.205  0.7947  0.0874  0.4376
  207MOL0     C27876   1.425   6.753  10.041  1.6039 -0.5242 -0.2344
  207MOL0     C27877   1.479   6.625  10.050  0.2302 -0.0044  0.8564
  207MOL0     H27878   1.895   6.261   9.986 -0.4280  3.2146 -2.4463
  207MOL0     H27879   1.972   6.024   9.934 -0.9576  0.4770  1.7658
  207MOL0     H27880   1.712   5.724   9.761  1.5583 -2.1464  0.4523
  207MOL0     H27881   1.782   5.781   9.603 -0.1378 -4.5062 -1.3901
  207MOL0     H27882   1.987   5.663   9.640 -0.0036  0.3097  1.2326
  207MOL0     H27883   1.951   5.621   9.795  0.9027 -1.4677 -0.4854
  207MOL0     H27884   1.727   5.509   9.699  0.3479 -1.4681  2.5075
  207MOL0     H27885   1.801   5.511   9.550 -2.2963 -4.4210  1.3586
  207MOL0     H27886   2.011   5.395   9.641 -0.9476  2.5129 -2.6893
  207MOL0     H27887   1.908   5.367   9.788 -0.1447  0.6550 -0.2843
  207MOL0     H27888   1.750   5.232   9.674  1.2622 -2.6735  0.1058
  207MOL0     H27889   1.806   5.289   9.508  1.3424 -1.1302 -0.3246
  207MOL0     H27890   1.956   5.135   9.723  2.9449 -2.0426 -0.0057
  207MOL0     H27891   1.879   5.050   9.602  1.5653 -0.0418 -0.1064
  207MOL0     H27892   1.961   5.177   9.425  0.0263  1.2857  0.3707
  207MOL0     H27893   2.088   5.240   9.544 -3.1295  1.5760  3.1183
  207MOL0     H27894   2.045   4.945   9.484  0.9372 -1.1021 -0.3243
  207MOL0     H27895   2.156   5.015   9.602 -0.9595 -0.0791 -0.3204
  207MOL0     H27896   2.097   5.043   9.219 -0.5070  0.0854  1.9472
  207MOL0     H27897   2.427   5.067   9.052 -0.3911 -1.4505  1.6193
  207MOL0     H27898   2.254   5.077   9.013  0.3999  0.7002 -0.9058
  207MOL0     H27899   2.248   5.312   9.096  2.4369  1.3472  2.6137
  207MOL0     H27900   2.316   5.289   8.934  0.4326  1.6978  0.2627
  207MOL0     H27901   2.551   5.302   9.063  0.0209  0.3035  0.2583
  207MOL0     H27902   2.454   5.320   9.207 -2.1987 -0.4905  0.4474
  207MOL0     H27903   2.525   5.536   9.173  1.0945 -0.5823  0.3408
  207MOL0     H27904   2.359   5.517   9.122 -0.5369 -1.7243 -2.4981
  207MOL0     H27905   2.320   5.740   9.057 -0.6656  0.0394  0.1922
  207MOL0     H27906   2.174   5.992   8.946 -0.7991  0.5911 -0.2450
  207MOL0     H27907   2.252   5.956   9.095  2.3788  0.3604  0.1588
  207MOL0     H27908   2.317   6.091   9.005 -2.0555  0.3863  3.4118
  207MOL0     H27909   2.541   6.236   8.549  1.9129  2.9359 -2.8510
  207MOL0     H27910   2.587   6.458   8.484  0.7931  0.1914  1.2577
  207MOL0     H27911   2.494   6.849   8.694  0.6593  0.7431 -2.5472
  207MOL0     H27912   2.577   6.713   8.778 -1.2278 -0.0864 -0.2774
  207MOL0     H27913   2.753   6.867   8.728 -2.0620 -0.9073  1.6208
  207MOL0     H27914   2.759   6.718   8.642  0.7256  1.0438 -0.5575
  207MOL0     H27915   2.632   6.960   8.512  0.5262  0.4847 -1.2598
  207MOL0     H27916   2.711   6.828   8.432 -2.5376 -0.2892  0.4431
  207MOL0     H27917   2.865   7.046   8.570 -0.1235  0.4535 -0.5379
  207MOL0     H27918   2.925   6.893   8.513 -1.8688 -1.5315 -1.1831
  207MOL0     H27919   2.797   6.954   8.289 -2.0776  0.2261  0.6956
  207MOL0     H27920   2.962   7.012   8.321  0.3782 -1.3645  1.6280
  207MOL0     H27921   2.707   7.166   8.385 -0.0955 -2.2174 -0.2938
  207MOL0     H27922   2.870   7.218   8.419 -0.6393 -0.2276  1.2566
  207MOL0     H27923   2.822   7.345   8.214 -0.9162  0.2743 -1.1713
  207MOL0     H27924   2.738   7.219   8.136  2.0619  1.7778 -4.4760
  207MOL0     H27925   2.958   7.103   8.100 -3.1274 -1.1587  2.3174
  207MOL0     H27926   3.039   7.240   8.195  0.7377  0.4022  0.0634
  207MOL0     H27927   2.350   6.625   8.784  0.0292 -0.0364 -0.0826
  207MOL0     H27928   2.288   6.401   8.876  1.6493  0.0671  0.6946
  207MOL0     H27929   2.581   5.876   8.659  0.3346  0.5470  0.4798
  207MOL0     H27930   2.597   5.641   8.730 -0.5837 -2.6609  0.4522
  207MOL0     H27931   1.624   5.979   9.686 -1.4476  3.6971 -1.5025
  207MOL0     H27932   1.551   6.201   9.741 -0.0358 -2.7053 -0.8436
  207MOL0     H27933   1.641   6.604   9.752 -0.9413 -0.4355  0.0591
  207MOL0     H27934   1.572   6.852   9.752  1.6427 -0.0180  0.6789
  207MOL0     H27935   1.355   7.013  10.114  2.7660  2.4225  0.7687
  207MOL0     H27936   1.398   7.143  10.015  0.1072  0.7674  0.6869
  207MOL0     H27937   1.209   7.109   9.861  0.2785 -3.0886 -2.1011
  207MOL0     H27938   1.168   7.141  10.032 -0.0373  1.2689 -0.8087
  207MOL0     H27939   1.174   6.861   9.893 -1.4485 -1.9013  1.4037
  207MOL0     H27940   1.033   6.968   9.904  0.4704 -0.4028  1.1024
  207MOL0     H27941   1.170   6.875  10.146  1.2889 -4.5048 -2.6336
  207MOL0     H27942   1.046   6.777  10.074 -1.0358 -0.3355  1.3492
  207MOL0     H27943   0.815   7.077  10.257  0.4430  0.0770 -0.0943
  207MOL0     H27944   1.360   6.794  10.118  2.1853  1.6088 -0.8119
  207MOL0     H27945   1.463   6.555  10.132 -2.5121 -2.9675 -1.9163
  208MOL0     O27946   6.410   6.397   8.814  0.1609  0.5966 -0.3664
  208MOL0     C27947   6.491   6.332   8.748  0.6384 -0.7128  0.4784
  208MOL0     O27948   6.486   6.324   8.611  0.0740  0.1079 -0.2353
  208MOL0     C27949   6.397   6.395   8.537  0.1455 -0.3098 -0.0568
  208MOL0     C27950   6.445   6.430   8.412  0.0285 -0.5184  0.1834
  208MOL0     C27951   6.362   6.492   8.318 -0.2304  0.4769  0.0186
  208MOL0     C27952   6.226   6.510   8.338 -0.3741  0.2125  0.5827
  208MOL0     O27953   6.160   6.571   8.230  0.5265  0.2919 -0.4609
  208MOL0     C27954   6.109   6.702   8.264 -0.2257  0.7612  0.3044
  208MOL0     C27955   6.004   6.745   8.160 -0.7201  0.4422  0.1811
  208MOL0     C27956   5.976   6.895   8.175 -0.1256  0.7236 -0.8415
  208MOL0     C27957   5.876   6.944   8.076 -0.9341 -0.3846  0.0853
  208MOL0     C27958   5.739   6.951   8.140  0.5100  0.4324  0.2209
  208MOL0     C27959   5.636   6.959   8.030  0.6098  0.3118  0.0000
  208MOL0     C27960   5.492   6.947   8.091  0.7484  0.5513  0.1153
  208MOL0     C27961   5.378   6.969   7.992 -0.5691 -0.6981 -0.2590
  208MOL0     N27962   5.256   6.892   8.023  0.1678  0.1643 -0.0977
  208MOL0     C27963   5.249   6.756   8.018  0.2368  0.2724 -0.7729
  208MOL0     C27964   5.126   6.721   8.071  0.4987  0.1119  0.6018
  208MOL0     C27965   5.069   6.581   8.111  0.4369  0.7301 -1.1373
  208MOL0     C27966   5.057   6.491   7.985  0.4741  0.6897  0.0493
  208MOL0     C27967   5.093   6.347   8.007  0.0540  0.0726  0.2884
  208MOL0     C27968   4.972   6.274   8.078  0.0576 -0.1283  0.2960
  208MOL0     O27969   4.961   6.139   8.037 -0.1501 -0.2100  0.2430
  208MOL0     C27970   5.046   6.045   8.091 -0.0568 -0.5307  0.7486
  208MOL0     C27971   5.042   5.923   8.022  0.4012 -1.5130 -0.1027
  208MOL0     C27972   5.110   5.805   8.062  0.1036 -0.2747 -0.5964
  208MOL0     C27973   5.093   5.680   7.978 -1.4022  0.3473  1.3609
  208MOL0     C27974   5.194   5.817   8.177  0.9220  0.2480  0.0297
  208MOL0     C27975   5.255   5.688   8.233  0.0364  0.1076  0.0316
  208MOL0     O27976   5.352   5.723   8.333 -0.1020 -1.1212 -0.6266
  208MOL0     C27977   5.396   5.619   8.420 -0.0084 -0.0581 -0.3870
  208MOL0     C27978   5.333   5.590   8.541 -0.1799 -0.3755 -0.4738
  208MOL0     C27979   5.387   5.495   8.627  0.6163 -1.2918 -0.0161
  208MOL0     C27980   5.488   5.415   8.590 -0.9160 -0.0985  0.6499
  208MOL0     O27981   5.523   5.304   8.661 -0.8584 -0.4341  0.4831
  208MOL0     C27982   5.652   5.321   8.729  0.4098  0.3807  0.3605
  208MOL0     C27983   5.645   5.240   8.858 -0.0526  0.1285  1.0762
  208MOL0     C27984   5.596   5.301   8.984  0.5374 -0.8086 -0.6056
  208MOL0     C27985   5.628   5.220   9.106  0.7238 -0.8608  0.0993
  208MOL0     C27986   5.543   5.271   9.232  0.3992  0.9241 -0.8031
  208MOL0     C27987   5.608   5.224   9.360 -0.5700  1.8059 -0.2921
  208MOL0     C27988   5.750   5.231   9.379 -1.4885 -0.3909  0.1566
  208MOL0     C27989   5.810   5.214   9.515 -0.4978  1.2534 -0.8498
  208MOL0    Cl27990   5.752   5.336   9.644  0.1736 -0.4378  0.2727
  208MOL0     C27991   5.556   5.431   8.464 -0.3651 -0.6411 -0.4410
  208MOL0     C27992   5.508   5.543   8.386  0.1111 -1.0684 -0.2849
  208MOL0     O27993   5.189   5.583   8.244  0.1230 -0.4732  1.0436
  208MOL0     C27994   5.209   5.941   8.245  0.0941 -1.0000  0.1830
  208MOL0     C27995   5.139   6.059   8.194 -0.4779  0.1708  0.2567
  208MOL0     N27996   5.062   6.837   8.108 -0.5564 -0.4734  0.1243
  208MOL0     N27997   5.134   6.938   8.078 -0.0163 -0.3112 -0.4320
  208MOL0     C27998   6.169   6.478   8.465 -1.1417  0.1850 -0.2476
  208MOL0     C27999   6.257   6.422   8.563 -0.0634  0.2531 -0.4040
  208MOL0     C28000   6.611   6.277   8.811  0.0450  0.3033 -0.0978
  208MOL0     C28001   6.625   6.247   8.946 -0.0168  0.2328 -0.6088
  208MOL0     C28002   6.740   6.197   9.002  0.0556 -0.2059  0.4175
  208MOL0     C28003   6.850   6.170   8.913 -0.1545  0.9044  1.0551
  208MOL0     O28004   6.955   6.103   8.976 -0.3699 -0.0005 -0.4413
  208MOL0     C28005   7.074   6.064   8.910 -0.3986 -0.1118 -0.0729
  208MOL0     C28006   7.059   5.929   8.845 -0.7640 -0.0667 -0.4157
  208MOL0     C28007   7.176   5.899   8.743  0.6278  0.1480  0.6523
  208MOL0     C28008   7.229   5.756   8.755  0.7451 -0.4984  0.3825
  208MOL0     C28009   7.322   5.728   8.648 -0.3350 -0.0545  0.4439
  208MOL0     C28010   7.387   5.727   8.547 -0.0025  0.0362 -0.5242
  208MOL0     C28011   6.837   6.193   8.778 -0.3439  0.4197  0.4532
  208MOL0     C28012   6.720   6.246   8.725 -0.0794  0.2904  1.5817
  208MOL0     H28013   6.551   6.424   8.391  0.4997  0.1984  2.1417
  208MOL0     H28014   6.392   6.504   8.214  1.9471 -1.9738  0.2496
  208MOL0     H28015   6.061   6.710   8.362  2.6084 -0.6811  1.9598
  208MOL0     H28016   6.186   6.779   8.257 -1.1041  1.8829  2.0649
  208MOL0     H28017   6.032   6.715   8.058  1.6501 -0.1286  0.9454
  208MOL0     H28018   5.915   6.686   8.183 -1.4196  1.4798  0.1845
  208MOL0     H28019   5.953   6.915   8.280  0.9407 -0.2985 -0.3898
  208MOL0     H28020   6.075   6.940   8.158  1.3988 -1.9771  0.2657
  208MOL0     H28021   5.910   7.044   8.047  0.0681 -0.9991 -0.9206
  208MOL0     H28022   5.877   6.889   7.982  2.0640  0.1709 -0.2911
  208MOL0     H28023   5.710   6.861   8.196  0.2633 -2.1107 -3.6026
  208MOL0     H28024   5.746   7.035   8.209 -0.7566 -0.5413  1.5906
  208MOL0     H28025   5.647   7.055   7.979  0.9022  1.2811  1.8120
  208MOL0     H28026   5.638   6.873   7.963 -4.0190  0.4398 -0.6382
  208MOL0     H28027   5.472   6.852   8.141 -0.2571  2.1721  3.0188
  208MOL0     H28028   5.479   7.018   8.173 -1.6153  0.4675 -0.0987
  208MOL0     H28029   5.417   6.942   7.893  0.0740 -1.6779  0.2450
  208MOL0     H28030   5.354   7.075   7.994  3.6418  0.4688 -0.4733
  208MOL0     H28031   5.323   6.683   7.988 -1.6770 -1.1957 -2.1671
  208MOL0     H28032   5.138   6.545   8.187 -0.3613  0.9081 -0.3139
  208MOL0     H28033   4.965   6.588   8.145 -0.2555 -0.5903 -2.8093
  208MOL0     H28034   5.135   6.516   7.913 -0.3816  0.4520 -0.9919
  208MOL0     H28035   4.958   6.496   7.939  0.6411 -0.9852 -0.5739
  208MOL0     H28036   5.184   6.345   8.068  0.5779  0.7946 -0.4484
  208MOL0     H28037   5.101   6.307   7.906 -1.8878 -2.3688  1.0166
  208MOL0     H28038   4.877   6.308   8.037  1.5498  1.4880 -2.1515
  208MOL0     H28039   4.974   6.298   8.185  0.5092 -0.6846  0.4158
  208MOL0     H28040   4.977   5.906   7.938  0.1908  1.0431 -0.5456
  208MOL0     H28041   5.152   5.701   7.888  0.7225  0.5593  2.7259
  208MOL0     H28042   5.132   5.581   8.005 -0.7194  0.3445  0.4276
  208MOL0     H28043   4.984   5.673   7.967 -1.2518 -1.1945  0.5060
  208MOL0     H28044   5.252   5.657   8.567  0.2872  1.1567 -2.6122
  208MOL0     H28045   5.332   5.485   8.720  2.7700 -1.4186  1.3227
  208MOL0     H28046   5.734   5.281   8.669 -0.2188 -0.1340 -0.1671
  208MOL0     H28047   5.678   5.422   8.761  0.6086  0.9749 -1.5192
  208MOL0     H28048   5.583   5.157   8.825 -0.3319  1.1866 -1.2899
  208MOL0     H28049   5.744   5.202   8.887 -0.5290 -2.5108 -0.4526
  208MOL0     H28050   5.488   5.301   8.969  0.2654  0.1285  1.1216
  208MOL0     H28051   5.629   5.405   8.983 -1.4602 -0.1408 -1.3217
  208MOL0     H28052   5.605   5.116   9.082 -1.7054 -0.0119 -1.5460
  208MOL0     H28053   5.737   5.226   9.114  0.8209 -0.7969 -1.1543
  208MOL0     H28054   5.443   5.229   9.240  1.2033 -0.6229  3.1938
  208MOL0     H28055   5.536   5.380   9.242  2.7787  1.0353  0.5399
  208MOL0     H28056   5.559   5.278   9.442  1.1295 -0.4437  2.4097
  208MOL0     H28057   5.578   5.120   9.378  1.6573  1.5228  2.7446
  208MOL0     H28058   5.772   5.333   9.344  0.6678  0.8327  4.3794
  208MOL0     H28059   5.803   5.171   9.305  3.3813  1.7690  1.4866
  208MOL0     H28060   5.919   5.214   9.515 -0.4154 -1.8760 -0.1677
  208MOL0     H28061   5.784   5.114   9.552 -0.1228  1.2388 -0.6193
  208MOL0     H28062   5.636   5.361   8.443 -0.9095 -2.4606  2.7805
  208MOL0     H28063   5.548   5.577   8.291 -1.4260  1.0611 -0.2533
  208MOL0     H28064   5.285   5.946   8.322 -1.2370  2.9830  1.4647
  208MOL0     H28065   5.168   6.156   8.233  0.9893 -0.6151  1.2291
  208MOL0     H28066   6.064   6.496   8.483 -0.8520  0.7729  0.9841
  208MOL0     H28067   6.218   6.396   8.661 -0.4083 -0.2972 -0.6806
  208MOL0     H28068   6.537   6.246   9.010 -0.9321  2.0361 -1.7453
  208MOL0     H28069   6.762   6.155   9.100  0.7331 -1.2295 -0.1493
  208MOL0     H28070   7.109   6.135   8.833 -0.3855 -0.9341 -0.8435
  208MOL0     H28071   7.154   6.061   8.984  0.3177 -1.7469 -0.8519
  208MOL0     H28072   6.955   5.918   8.813 -1.6570  0.4151  2.0563
  208MOL0     H28073   7.070   5.849   8.919  1.0441 -0.1024 -0.6822
  208MOL0     H28074   7.255   5.974   8.741  1.4168 -0.4239  3.8378
  208MOL0     H28075   7.137   5.930   8.646 -0.6295  3.4750  2.0651
  208MOL0     H28076   7.148   5.684   8.770  0.4429  0.1375  2.0964
  208MOL0     H28077   7.297   5.754   8.842  2.5252  0.5366 -0.9167
  208MOL0     H28078   7.453   5.713   8.463  2.5381 -1.9011  1.6288
  208MOL0     H28079   6.915   6.161   8.710 -0.5655 -2.5206  1.4464
  208MOL0     H28080   6.710   6.265   8.618  1.9549 -2.2668  0.8423
  209MOL0     O28081  10.186   8.442   7.770  0.1336 -0.2076 -0.2293
  209MOL0     C28082  10.297   8.415   7.724  0.0878  0.6950 -0.5340
  209MOL0     O28083  10.421   8.467   7.762  0.6600  0.8275 -0.3383
  209MOL0     C28084  10.420   8.571   7.853 -0.4074 -0.3509 -0.1755
  209MOL0     C28085  10.345   8.571   7.970  0.0274 -0.0254 -0.0747
  209MOL0     C28086  10.350   8.676   8.058 -0.9115 -0.6607 -1.1456
  209MOL0     C28087  10.437   8.784   8.032  0.3829  0.1780 -0.0772
  209MOL0     O28088  10.451   8.889   8.110  0.7490 -0.2513 -0.6470
  209MOL0     C28089  10.336   8.969   8.143  0.4973 -0.8573  0.3768
  209MOL0     C28090  10.380   9.100   8.199 -1.2646  0.7046 -0.0937
  209MOL0     C28091  10.449   9.198   8.093  0.5815  0.2128 -0.6010
  209MOL0     C28092  10.519   9.318   8.164  0.3930  0.5508  0.3505
  209MOL0     C28093  10.587   9.419   8.073  0.7566 -0.3347 -0.3389
  209MOL0     C28094  10.700   9.362   7.993 -0.1759 -1.0879 -0.1431
  209MOL0     C28095  10.832   9.335   8.073 -0.3727  0.3495  0.0880
  209MOL0     C28096  10.955   9.321   7.981  0.6169  0.1180 -0.2139
  209MOL0     N28097  10.930   9.215   7.883  0.1067 -0.2376  0.3034
  209MOL0     C28098  10.897   9.081   7.910 -0.3783 -0.9314  0.3631
  209MOL0     C28099  10.905   9.012   7.794 -0.1148 -0.2082 -1.1770
  209MOL0     C28100  10.866   8.866   7.763 -0.4358 -0.6048  0.0608
  209MOL0     C28101  10.986   8.770   7.754 -0.3575  1.3107 -0.2107
  209MOL0     C28102  10.942   8.620   7.744 -0.4104 -0.4080  0.1764
  209MOL0     C28103  11.064   8.517   7.766  0.5100 -0.2065 -0.2461
  209MOL0     O28104  11.169   8.535   7.665  0.2962 -0.3333  0.6516
  209MOL0     C28105  11.159   8.461   7.549  0.8336 -0.4693 -0.1302
  209MOL0     C28106  11.205   8.330   7.562  0.0159  0.6526  0.5024
  209MOL0     C28107  11.221   8.257   7.450 -0.0230  0.4000  0.2043
  209MOL0     C28108  11.297   8.123   7.459  0.0194 -0.5682  0.4684
  209MOL0     C28109  11.166   8.306   7.322 -0.2610  0.6590  0.6361
  209MOL0     C28110  11.155   8.231   7.197  0.0453 -0.2272 -0.1071
  209MOL0     O28111  11.154   8.305   7.081 -0.3784  0.0436 -0.1258
  209MOL0     C28112  11.162   8.232   6.962  0.0699 -0.1570 -0.6661
  209MOL0     C28113  11.056   8.241   6.870  0.9189 -0.0254  0.7569
  209MOL0     C28114  11.049   8.149   6.764 -0.5967 -0.4830  0.4991
  209MOL0     C28115  11.152   8.050   6.741 -0.0488 -0.9279  0.4765
  209MOL0     O28116  11.151   7.952   6.640  0.2466  0.5460 -0.7980
  209MOL0     C28117  11.015   7.910   6.600  0.0825 -0.4778 -0.7015
  209MOL0     C28118  11.017   7.800   6.502  0.5415 -0.6166 -0.1853
  209MOL0     C28119  11.076   7.672   6.545 -0.0654 -0.5210 -0.1110
  209MOL0     C28120  11.077   7.569   6.422  0.3242  1.2028  0.1624
  209MOL0     C28121  10.942   7.523   6.367  1.0327  0.1859  0.8250
  209MOL0     C28122  10.978   7.422   6.257 -0.3868  0.0291 -1.0864
  209MOL0     C28123  10.860   7.372   6.158 -0.3728 -2.1374 -0.0127
  209MOL0     C28124  10.760   7.285   6.224  0.0634 -0.0328 -0.0373
  209MOL0    Cl28125  10.636   7.371   6.321  0.5994  0.0116 -0.2441
  209MOL0     C28126  11.261   8.056   6.828 -0.1402 -0.7019 -0.0934
  209MOL0     C28127  11.267   8.135   6.941  0.9349 -0.3059 -0.2508
  209MOL0     O28128  11.117   8.114   7.199  0.1223  0.6277 -0.1343
  209MOL0     C28129  11.113   8.442   7.317  0.6137  0.9117 -0.1909
  209MOL0     C28130  11.105   8.511   7.435 -0.3038  0.5072  0.0308
  209MOL0     N28131  10.951   9.110   7.708  0.6186  0.0814  0.3748
  209MOL0     N28132  10.961   9.227   7.747  0.1477  0.0651 -0.2970
  209MOL0     C28133  10.531   8.775   7.924 -0.0047  0.2980 -0.9962
  209MOL0     C28134  10.522   8.666   7.836  0.3490  0.2665  0.0028
  209MOL0     C28135  10.295   8.296   7.633 -0.3379  0.5693  0.1633
  209MOL0     C28136  10.407   8.267   7.553 -1.3039  0.7659  1.0783
  209MOL0     C28137  10.416   8.158   7.463 -0.4683 -0.1545 -0.0862
  209MOL0     C28138  10.314   8.062   7.463  0.3160 -0.0121 -0.0859
  209MOL0     O28139  10.338   7.946   7.391  0.3452 -0.1672 -0.3275
  209MOL0     C28140  10.229   7.845   7.393  0.3163  0.0547  0.0305
  209MOL0     C28141  10.278   7.719   7.317  0.1513  0.2386  0.3859
  209MOL0     C28142  10.416   7.659   7.361 -0.8877 -0.1248  0.1514
  209MOL0     C28143  10.417   7.580   7.490  1.1478  0.6075  0.0781
  209MOL0     C28144  10.547   7.534   7.538 -0.2580  0.3873  0.1596
  209MOL0     C28145  10.664   7.529   7.579  0.0458  0.2444  0.3135
  209MOL0     C28146  10.203   8.091   7.544  0.9677  0.2615 -0.2962
  209MOL0     C28147  10.195   8.201   7.626  0.8169 -0.2238  0.4271
  209MOL0     H28148  10.272   8.498   8.003  0.2999  1.6396  5.1009
  209MOL0     H28149  10.291   8.665   8.149  0.8458  0.3404  0.1790
  209MOL0     H28150  10.280   8.996   8.053 -0.1327 -0.6075  0.8387
  209MOL0     H28151  10.260   8.915   8.201  0.6381 -0.8401  0.5764
  209MOL0     H28152  10.283   9.137   8.231 -0.7255  3.1649 -1.0436
  209MOL0     H28153  10.450   9.096   8.284 -1.5458  1.4675  0.1857
  209MOL0     H28154  10.522   9.143   8.032 -0.6677 -3.6707  1.0563
  209MOL0     H28155  10.373   9.240   8.025 -2.6180  0.2733  2.6889
  209MOL0     H28156  10.440   9.370   8.218  0.1280 -0.7187  1.2447
  209MOL0     H28157  10.580   9.281   8.248 -1.6035 -1.4886  1.0092
  209MOL0     H28158  10.506   9.451   8.007  1.3278  0.9748 -0.4469
  209MOL0     H28159  10.633   9.496   8.137 -2.4170 -1.2803  3.5145
  209MOL0     H28160  10.666   9.277   7.933 -1.0613  1.4725 -3.6290
  209MOL0     H28161  10.711   9.446   7.922 -2.7874  0.6183  1.3250
  209MOL0     H28162  10.845   9.432   8.122  2.5646  0.4840 -0.7919
  209MOL0     H28163  10.819   9.245   8.134 -2.6638 -1.0663 -2.2466
  209MOL0     H28164  11.045   9.307   8.042 -0.4776  1.8831  1.9528
  209MOL0     H28165  10.957   9.413   7.922 -1.8738 -0.3682 -1.1919
  209MOL0     H28166  10.858   9.050   8.006 -3.2779 -0.9079 -0.7173
  209MOL0     H28167  10.800   8.835   7.844 -2.5083  0.3166 -1.1862
  209MOL0     H28168  10.807   8.887   7.674 -1.7684 -1.4640  0.7138
  209MOL0     H28169  11.051   8.786   7.841 -1.7559  1.9041  0.7577
  209MOL0     H28170  11.051   8.789   7.668  2.1254 -0.4501  1.1147
  209MOL0     H28171  10.923   8.618   7.637  0.7082 -2.3393 -0.0314
  209MOL0     H28172  10.861   8.588   7.810 -2.6774  1.9161 -1.3132
  209MOL0     H28173  11.023   8.415   7.758 -0.1822 -0.1272  1.8145
  209MOL0     H28174  11.105   8.524   7.867  1.0845  2.6729 -0.6072
  209MOL0     H28175  11.223   8.293   7.663  0.1277 -0.4304  0.0974
  209MOL0     H28176  11.388   8.144   7.517 -0.6603 -0.9830  1.7141
  209MOL0     H28177  11.244   8.046   7.516 -0.8015  0.2285  0.8004
  209MOL0     H28178  11.318   8.087   7.358 -0.9829  3.8040 -1.5445
  209MOL0     H28179  10.969   8.306   6.871  0.7639 -0.2321  1.1572
  209MOL0     H28180  10.961   8.146   6.700  0.2228 -2.1880 -0.6229
  209MOL0     H28181  10.961   7.874   6.688  1.9830 -1.1618  0.2525
  209MOL0     H28182  10.956   7.994   6.561 -0.1927  0.5560  1.7022
  209MOL0     H28183  10.913   7.779   6.476  0.2103 -2.3545  2.2461
  209MOL0     H28184  11.070   7.833   6.411  0.3447  2.2031  0.6241
  209MOL0     H28185  11.028   7.621   6.629 -0.0144 -1.6121 -0.7179
  209MOL0     H28186  11.179   7.699   6.567 -0.1184 -0.0655 -0.4030
  209MOL0     H28187  11.131   7.609   6.336  3.0081 -2.0335  0.1427
  209MOL0     H28188  11.136   7.477   6.433 -1.2154  0.3596  2.0350
  209MOL0     H28189  10.891   7.607   6.320 -2.7346 -3.0675 -1.5523
  209MOL0     H28190  10.882   7.475   6.445 -0.9446 -3.2774 -2.5260
  209MOL0     H28191  11.059   7.466   6.198 -0.7524  1.3845 -0.6234
  209MOL0     H28192  11.019   7.331   6.300  0.9412 -0.0107 -2.3394
  209MOL0     H28193  10.922   7.314   6.090  2.7520  0.9705 -0.1455
  209MOL0     H28194  10.823   7.453   6.095  1.6122 -3.6208 -3.3265
  209MOL0     H28195  10.810   7.221   6.297 -0.4513 -1.8163 -1.1631
  209MOL0     H28196  10.706   7.225   6.150  0.4539 -1.1512  0.5640
  209MOL0     H28197  11.340   7.984   6.807 -0.6766 -1.2968 -0.1138
  209MOL0     H28198  11.345   8.121   7.015  1.6015  1.6936 -0.5131
  209MOL0     H28199  11.058   8.495   7.240  1.0348 -1.6485 -2.3857
  209MOL0     H28200  11.048   8.604   7.436  0.5136  1.0139  0.5943
  209MOL0     H28201  10.600   8.855   7.900  0.2184 -0.3162 -2.5094
  209MOL0     H28202  10.601   8.654   7.762  1.3383 -2.7658  1.4035
  209MOL0     H28203  10.486   8.340   7.540 -1.8558  1.4299  1.3847
  209MOL0     H28204  10.499   8.148   7.394 -2.8361 -2.3238 -2.8025
  209MOL0     H28205  10.193   7.814   7.492 -2.2420 -2.1400 -1.4561
  209MOL0     H28206  10.134   7.881   7.355 -1.2119 -1.6631  1.9495
  209MOL0     H28207  10.277   7.742   7.209  2.2008  0.7541  0.4279
  209MOL0     H28208  10.201   7.643   7.327 -1.3728  1.9723  2.9282
  209MOL0     H28209  10.486   7.741   7.375 -1.2518  0.9076 -3.0686
  209MOL0     H28210  10.450   7.596   7.278 -2.5939 -0.7449 -0.1363
  209MOL0     H28211  10.350   7.496   7.470  0.2689  1.5421 -1.0140
  209MOL0     H28212  10.366   7.633   7.571 -0.7614  0.6911 -1.1158
  209MOL0     H28213  10.767   7.520   7.606  0.2345 -2.0272 -0.9419
  209MOL0     H28214  10.130   8.012   7.555  2.2232 -0.8099  0.7572
  209MOL0     H28215  10.114   8.194   7.698 -0.5035 -2.9267 -1.1584
  210MOL0     O28216   5.414   1.710   0.218 -0.4684 -0.6091 -0.8058
  210MOL0     C28217   5.482   1.676   0.314 -0.9376 -0.2452 -0.2903
  210MOL0     O28218   5.435   1.608   0.423  0.3572 -0.1594 -0.2822
  210MOL0     C28219   5.301   1.575   0.430 -0.1197  0.0930  0.2315
  210MOL0     C28220   5.200   1.678   0.418  0.5942  0.0668 -0.5310
  210MOL0     C28221   5.069   1.634   0.412 -0.2674  0.8114  0.8790
  210MOL0     C28222   5.030   1.501   0.420  0.4013  0.6199 -0.4974
  210MOL0     O28223   4.900   1.457   0.410  0.0414  0.4882 -0.4280
  210MOL0     C28224   4.801   1.523   0.495  0.1615 -0.2940  0.2257
  210MOL0     C28225   4.669   1.451   0.482  0.1166  0.3417  0.9271
  210MOL0     C28226   4.613   1.462   0.338  0.2529 -0.6977  0.1177
  210MOL0     C28227   4.464   1.412   0.335  0.3250 -0.4313 -0.0698
  210MOL0     C28228   4.411   1.399   0.184  0.3958  0.2707 -0.0144
  210MOL0     C28229   4.414   1.535   0.103  0.7187 -0.0027  0.1626
  210MOL0     C28230   4.320   1.650   0.130  1.1069 -0.4602  0.1768
  210MOL0     C28231   4.182   1.628   0.044  0.0759  0.8471 -0.3134
  210MOL0     N28232   4.085   1.738   0.072  0.6421  0.4009  1.2701
  210MOL0     C28233   4.098   1.868   0.040 -0.3461 -1.2460 -0.2685
  210MOL0     C28234   3.992   1.937   0.100 -0.5571 -0.1412  0.3281
  210MOL0     C28235   3.978   2.090   0.110 -0.2742 -0.2247  0.2668
  210MOL0     C28236   3.872   2.147   0.012 -0.1902 -0.7538  0.3386
  210MOL0     C28237   3.735   2.087   0.027  0.9319  0.3858  0.0771
  210MOL0     C28238   3.618   2.162  -0.042 -0.3588  0.1156 -0.7831
  210MOL0     O28239   3.653   2.178  -0.177  0.5766 -0.6063  0.1208
  210MOL0     C28240   3.564   2.232  -0.269  0.2004 -0.1319 -0.1827
  210MOL0     C28241   3.596   2.237  -0.405 -1.1032 -0.6890 -1.0558
  210MOL0     C28242   3.509   2.281  -0.506 -0.2184  0.3840 -0.5149
  210MOL0     C28243   3.565   2.257  -0.640 -0.3611 -0.1443 -1.4572
  210MOL0     C28244   3.373   2.320  -0.470  0.5726  0.1278  0.5105
  210MOL0     C28245   3.267   2.346  -0.570 -0.8956  1.1329 -0.6989
  210MOL0     O28246   3.157   2.259  -0.563 -0.0570  0.4194 -0.5781
  210MOL0     C28247   3.058   2.257  -0.657  1.3752 -1.3347 -0.8024
  210MOL0     C28248   2.974   2.138  -0.667  0.6678  0.1767  0.3820
  210MOL0     C28249   2.882   2.130  -0.768  0.1803  0.7476  0.3368
  210MOL0     C28250   2.852   2.233  -0.856  0.0760 -0.0209 -0.7400
  210MOL0     O28251   2.767   2.222  -0.959  0.2218 -0.1403 -0.6083
  210MOL0     C28252   2.700   2.331  -1.023  0.1024 -0.6596 -0.5047
  210MOL0     C28253   2.560   2.274  -1.082  0.1884 -0.2714  0.0530
  210MOL0     C28254   2.599   2.175  -1.200  0.1090  0.3793 -0.4204
  210MOL0     C28255   2.479   2.079  -1.216  0.0483 -0.4567  0.7326
  210MOL0     C28256   2.511   1.969  -1.325  0.4633  1.0206  0.5134
  210MOL0     C28257   2.625   1.875  -1.283 -0.7963 -0.4998  0.9224
  210MOL0     C28258   2.663   1.783  -1.402  0.2023 -0.1511  0.4243
  210MOL0     C28259   2.551   1.693  -1.443 -0.2029 -0.1630 -0.1174
  210MOL0    Cl28260   2.601   1.549  -1.531  0.1374  0.2686 -0.4483
  210MOL0     C28261   2.924   2.355  -0.829 -0.1339  1.2653  0.8295
  210MOL0     C28262   3.021   2.373  -0.731 -1.1068  0.3290  0.4844
  210MOL0     O28263   3.294   2.433  -0.656 -0.0656  1.1840 -0.2053
  210MOL0     C28264   3.341   2.316  -0.330 -0.6550  0.3001  0.7625
  210MOL0     C28265   3.437   2.289  -0.229  1.8072  0.4959 -0.1103
  210MOL0     N28266   3.929   1.838   0.170  0.5471  0.6211 -0.6278
  210MOL0     N28267   3.975   1.723   0.149 -0.7119  0.3224 -0.0926
  210MOL0     C28268   5.135   1.406   0.444 -0.2685  0.4420 -0.7387
  210MOL0     C28269   5.270   1.450   0.446 -0.2819 -0.0010 -0.8083
  210MOL0     C28270   5.624   1.709   0.324  0.3443 -0.4557 -0.5559
  210MOL0     C28271   5.699   1.728   0.209 -0.8865 -0.3010 -0.5100
  210MOL0     C28272   5.835   1.768   0.211 -0.2172  0.1714  0.1962
  210MOL0     C28273   5.902   1.784   0.331  0.2157 -0.3671  0.0142
  210MOL0     O28274   6.028   1.833   0.326  0.1544  0.7709  0.6899
  210MOL0     C28275   6.077   1.936   0.414 -0.9975 -1.2098 -0.1393
  210MOL0     C28276   6.005   2.069   0.391 -0.5044 -0.6441 -0.2909
  210MOL0     C28277   6.022   2.145   0.258  0.2587 -0.6114 -0.6599
  210MOL0     C28278   5.919   2.267   0.250 -0.1112 -0.3808  0.5545
  210MOL0     C28279   5.961   2.354   0.355  0.4614 -0.6858  0.3545
  210MOL0     C28280   6.017   2.428   0.430  0.6007  0.8407 -0.2676
  210MOL0     C28281   5.828   1.774   0.442  0.3136  0.5957 -0.4085
  210MOL0     C28282   5.692   1.730   0.449 -1.0181 -0.3863  0.4851
  210MOL0     H28283   5.214   1.780   0.384  1.3471  0.9543  2.1840
  210MOL0     H28284   4.995   1.707   0.380 -1.6696 -0.0270  2.0650
  210MOL0     H28285   4.833   1.512   0.599 -0.0187  1.8753  0.5545
  210MOL0     H28286   4.779   1.629   0.480  0.3394  0.1446  2.7086
  210MOL0     H28287   4.688   1.346   0.507 -1.8973  0.7052  4.7016
  210MOL0     H28288   4.596   1.478   0.559 -1.7435 -0.7760 -0.3647
  210MOL0     H28289   4.626   1.564   0.302  0.2196 -0.7580 -0.0705
  210MOL0     H28290   4.676   1.405   0.269  0.8987 -0.3903  0.4476
  210MOL0     H28291   4.456   1.314   0.383 -0.8199  0.2545  1.2176
  210MOL0     H28292   4.394   1.476   0.390 -0.8243 -2.5719  1.1174
  210MOL0     H28293   4.467   1.336   0.114 -2.4599 -1.5401 -0.8117
  210MOL0     H28294   4.314   1.351   0.177  0.0717  0.7859  0.8127
  210MOL0     H28295   4.515   1.574   0.118  0.9019 -1.0034  1.7830
  210MOL0     H28296   4.403   1.509  -0.002 -3.8875  0.8535  0.2215
  210MOL0     H28297   4.306   1.673   0.236  0.9387 -4.4966  1.2085
  210MOL0     H28298   4.369   1.738   0.088  1.1535  0.5479  2.2390
  210MOL0     H28299   4.128   1.535   0.064  1.8091 -0.1572 -0.0738
  210MOL0     H28300   4.221   1.614  -0.057  0.8739 -0.3544  0.1348
  210MOL0     H28301   4.175   1.901  -0.030 -1.8707 -0.2384 -1.5305
  210MOL0     H28302   3.956   2.132   0.209 -0.9919  3.5041 -1.3002
  210MOL0     H28303   4.071   2.137   0.077  1.3951 -3.5063 -0.1185
  210MOL0     H28304   3.911   2.145  -0.090 -0.3102  0.1392  0.2583
  210MOL0     H28305   3.856   2.253   0.038 -0.9594 -1.2128  1.8731
  210MOL0     H28306   3.705   2.086   0.132  1.8228  1.8269  0.3644
  210MOL0     H28307   3.731   1.984  -0.009  0.2729 -0.0102  1.2197
  210MOL0     H28308   3.613   2.263  -0.000  2.1981  1.1446 -2.7121
  210MOL0     H28309   3.520   2.113  -0.035 -1.2215  1.7340 -0.9921
  210MOL0     H28310   3.698   2.213  -0.434 -0.3865  2.3335 -1.4011
  210MOL0     H28311   3.541   2.156  -0.673 -2.1181  1.0813 -4.2752
  210MOL0     H28312   3.520   2.326  -0.712  1.5415  2.0524 -0.6834
  210MOL0     H28313   3.673   2.276  -0.643  0.3458 -2.4107  2.2137
  210MOL0     H28314   2.989   2.048  -0.610 -1.0650 -0.7757 -0.5734
  210MOL0     H28315   2.828   2.036  -0.780  1.2438  0.0725  0.7094
  210MOL0     H28316   2.681   2.408  -0.948  1.9485 -1.9718  1.4241
  210MOL0     H28317   2.770   2.366  -1.100  1.5550 -3.9925 -0.8724
  210MOL0     H28318   2.521   2.221  -0.994  2.1067 -1.3264  0.3370
  210MOL0     H28319   2.489   2.352  -1.109  0.2611 -0.3870 -0.4816
  210MOL0     H28320   2.683   2.114  -1.165 -0.5169  0.4287  1.2690
  210MOL0     H28321   2.625   2.234  -1.287  1.0299  2.5287  1.2276
  210MOL0     H28322   2.462   2.036  -1.117  0.5360  0.9877  1.4766
  210MOL0     H28323   2.390   2.137  -1.245  0.1859 -1.6942 -2.5870
  210MOL0     H28324   2.532   2.017  -1.421  0.8534  1.5265  0.8502
  210MOL0     H28325   2.413   1.924  -1.344  0.4094  1.6041 -0.6378
  210MOL0     H28326   2.716   1.934  -1.278  1.2996 -3.3768 -0.1772
  210MOL0     H28327   2.606   1.824  -1.188 -1.4123 -0.7479  0.6743
  210MOL0     H28328   2.745   1.718  -1.372 -2.2208 -2.2927  3.0115
  210MOL0     H28329   2.698   1.836  -1.491  3.2491 -0.2713  1.4495
  210MOL0     H28330   2.478   1.757  -1.493  1.8821  1.4311 -1.3133
  210MOL0     H28331   2.513   1.658  -1.347 -2.1124  1.6882 -0.1296
  210MOL0     H28332   2.905   2.444  -0.888 -2.9143  1.2186  1.5084
  210MOL0     H28333   3.065   2.470  -0.710 -1.3884  0.5974 -0.1495
  210MOL0     H28334   3.239   2.330  -0.297 -2.1664  0.2582 -3.3221
  210MOL0     H28335   3.416   2.293  -0.123 -0.3947 -1.7408 -0.3640
  210MOL0     H28336   5.115   1.300   0.449  1.6527 -0.0121 -1.6541
  210MOL0     H28337   5.342   1.370   0.447 -0.2038  0.0611  0.4062
  210MOL0     H28338   5.662   1.731   0.107 -2.2266  2.2951 -0.0256
  210MOL0     H28339   5.898   1.790   0.125  0.3014  2.4521  1.0830
  210MOL0     H28340   6.077   1.923   0.523 -2.0863 -2.7698 -0.3032
  210MOL0     H28341   6.182   1.950   0.385 -1.3308  1.7531 -0.2004
  210MOL0     H28342   6.028   2.126   0.481  0.0108 -0.9099 -0.2521
  210MOL0     H28343   5.902   2.045   0.420 -0.7328  0.4820 -0.1531
  210MOL0     H28344   5.998   2.072   0.181 -1.8423 -2.8279  1.8886
  210MOL0     H28345   6.125   2.180   0.245  0.5308 -1.2322 -0.1891
  210MOL0     H28346   5.818   2.228   0.266 -0.8716  2.0111  2.1459
  210MOL0     H28347   5.924   2.325   0.158  3.1211  2.5728  2.3568
  210MOL0     H28348   6.072   2.476   0.508  2.2045 -1.1652 -0.0829
  210MOL0     H28349   5.884   1.796   0.533 -0.3277 -0.2641  0.2089
  210MOL0     H28350   5.628   1.746   0.535 -1.0050  0.7780  0.2956
  211MOL0     O28351   4.447   3.715   2.140 -0.2385 -0.1183  0.3475
  211MOL0     C28352   4.454   3.816   2.069  0.3653 -0.1898 -0.2551
  211MOL0     O28353   4.453   3.819   1.931 -0.0903  0.7483  0.6493
  211MOL0     C28354   4.476   3.694   1.879 -0.7100  0.6512  0.0636
  211MOL0     C28355   4.374   3.640   1.808 -0.1170 -0.2932 -0.2555
  211MOL0     C28356   4.376   3.537   1.720  0.4229 -0.2078 -0.0393
  211MOL0     C28357   4.492   3.455   1.732 -0.3227 -0.9534 -0.6626
  211MOL0     O28358   4.503   3.333   1.666 -0.6315  0.2560  0.3600
  211MOL0     C28359   4.407   3.305   1.560 -0.4621  0.7897 -0.4985
  211MOL0     C28360   4.429   3.194   1.467 -0.3195 -0.2610 -0.2516
  211MOL0     C28361   4.495   3.069   1.536  0.1613  0.3439  0.3126
  211MOL0     C28362   4.489   2.943   1.447 -0.0092 -0.2877 -0.6684
  211MOL0     C28363   4.552   2.830   1.534  0.8879  0.2131  0.3135
  211MOL0     C28364   4.552   2.694   1.457 -0.1830 -0.4937  0.0678
  211MOL0     C28365   4.586   2.567   1.543  0.0246 -0.0327 -0.3366
  211MOL0     C28366   4.717   2.583   1.628 -0.0737 -0.1688 -0.1320
  211MOL0     N28367   4.697   2.607   1.772  0.5681 -0.3654 -0.6830
  211MOL0     C28368   4.703   2.728   1.830  0.1775 -0.1038 -0.8399
  211MOL0     C28369   4.677   2.719   1.963  0.4292 -0.1032  0.5219
  211MOL0     C28370   4.674   2.829   2.072 -0.1688  0.3090 -0.9054
  211MOL0     C28371   4.588   2.956   2.067  0.5745  1.2001  0.2223
  211MOL0     C28372   4.605   3.059   2.171 -0.4038 -0.3081 -0.3476
  211MOL0     C28373   4.745   3.111   2.186 -0.2365 -0.7709 -0.1866
  211MOL0     O28374   4.774   3.173   2.057  0.2444 -0.5487  0.1365
  211MOL0     C28375   4.870   3.117   1.975 -0.0455  0.3139 -0.4443
  211MOL0     C28376   4.855   3.133   1.837  1.0654 -0.0753  0.0408
  211MOL0     C28377   4.949   3.088   1.739 -0.6470 -0.2215 -0.2297
  211MOL0     C28378   4.929   3.140   1.601  0.6435  0.4299 -0.5668
  211MOL0     C28379   5.063   3.017   1.785  0.7670  0.5691 -0.0015
  211MOL0     C28380   5.170   2.958   1.703 -1.5244  0.6361  1.3310
  211MOL0     O28381   5.277   2.901   1.780 -0.1023  0.0049  0.1398
  211MOL0     C28382   5.371   2.829   1.707 -0.8376 -0.2167 -0.3167
  211MOL0     C28383   5.450   2.895   1.609 -0.5617 -0.3036 -0.9192
  211MOL0     C28384   5.559   2.835   1.552 -0.0015  0.4272 -0.7277
  211MOL0     C28385   5.594   2.705   1.598 -0.9698 -0.6155  0.3107
  211MOL0     O28386   5.705   2.648   1.552  0.6296  0.2414  0.2829
  211MOL0     C28387   5.691   2.512   1.496 -0.8858 -0.5080  0.6256
  211MOL0     C28388   5.592   2.509   1.382  0.3044  1.4961  0.2903
  211MOL0     C28389   5.584   2.382   1.305  0.3139  1.0414  0.1657
  211MOL0     C28390   5.668   2.335   1.181 -0.7878 -0.3186 -0.1893
  211MOL0     C28391   5.616   2.200   1.121  0.2910 -0.5042  0.4057
  211MOL0     C28392   5.719   2.086   1.119  0.2622  0.1277  0.8170
  211MOL0     C28393   5.666   1.958   1.070 -0.1856  1.3010  0.2829
  211MOL0     C28394   5.621   1.972   0.928  0.0222 -0.8606 -0.8253
  211MOL0    Cl28395   5.568   1.810   0.870 -0.1048  0.2907 -0.0833
  211MOL0     C28396   5.517   2.641   1.708  0.5787 -0.4472 -0.0254
  211MOL0     C28397   5.401   2.703   1.757  0.4563 -0.4999  1.0000
  211MOL0     O28398   5.160   2.956   1.578  0.1080 -0.0774  0.6226
  211MOL0     C28399   5.066   2.990   1.922 -0.0850 -0.0373 -0.2088
  211MOL0     C28400   4.976   3.035   2.021  0.0856 -0.3160  0.5874
  211MOL0     N28401   4.642   2.584   1.976  0.0743 -0.1415 -0.4411
  211MOL0     N28402   4.663   2.521   1.867  0.0499  0.4690  0.3350
  211MOL0     C28403   4.596   3.492   1.820  0.4457  0.4911 -0.0520
  211MOL0     C28404   4.594   3.621   1.876  0.0342  0.0807 -0.2145
  211MOL0     C28405   4.427   3.947   2.132  1.5935 -0.3006 -0.0222
  211MOL0     C28406   4.463   4.070   2.063  0.6949  0.5994  0.0594
  211MOL0     C28407   4.482   4.193   2.129 -0.3313  0.0864  0.2071
  211MOL0     C28408   4.458   4.203   2.266 -0.2704  1.3056  1.2605
  211MOL0     O28409   4.485   4.317   2.338  0.3655  0.4448 -0.0906
  211MOL0     C28410   4.577   4.413   2.281 -0.6068  0.0578  0.4088
  211MOL0     C28411   4.526   4.526   2.192  0.4312  0.1331 -0.3281
  211MOL0     C28412   4.447   4.629   2.260 -1.1101 -1.0926  0.9004
  211MOL0     C28413   4.325   4.586   2.347 -1.1261  0.0586  0.3669
  211MOL0     C28414   4.377   4.568   2.492  0.3365 -0.7182  0.0255
  211MOL0     C28415   4.407   4.564   2.612  0.4654 -0.6021  0.1261
  211MOL0     C28416   4.406   4.082   2.324  0.0944  0.0772 -0.0047
  211MOL0     C28417   4.398   3.959   2.263 -0.7532  0.6245 -0.0801
  211MOL0     H28418   4.284   3.699   1.796  0.0716  0.1116  0.2538
  211MOL0     H28419   4.289   3.512   1.660  2.5705 -1.9526 -2.6684
  211MOL0     H28420   4.311   3.285   1.609 -0.2364 -0.3128 -0.4932
  211MOL0     H28421   4.393   3.387   1.489 -1.2329  0.5685 -0.6185
  211MOL0     H28422   4.345   3.177   1.399  1.5533  1.2358 -3.1309
  211MOL0     H28423   4.496   3.225   1.387  0.9145  0.6672  1.0723
  211MOL0     H28424   4.603   3.086   1.538 -0.0826  2.0729  0.6622
  211MOL0     H28425   4.448   3.060   1.634 -1.2512  1.0385 -0.2649
  211MOL0     H28426   4.390   2.916   1.411 -0.0188 -0.9709 -0.1529
  211MOL0     H28427   4.556   2.942   1.360 -0.9877  0.8494 -1.4532
  211MOL0     H28428   4.654   2.851   1.565  1.5753 -0.7462 -1.1896
  211MOL0     H28429   4.492   2.821   1.625  0.5478  0.8621  0.1610
  211MOL0     H28430   4.456   2.669   1.412 -0.5288  2.0790 -0.7463
  211MOL0     H28431   4.623   2.718   1.377 -0.1199  3.6527  1.1753
  211MOL0     H28432   4.506   2.541   1.613  0.8630 -2.9785 -0.3463
  211MOL0     H28433   4.606   2.489   1.469  0.1295  1.1722 -1.6104
  211MOL0     H28434   4.779   2.661   1.581  0.3635 -0.7880 -0.5974
  211MOL0     H28435   4.764   2.485   1.619 -0.4884 -0.3678 -0.1741
  211MOL0     H28436   4.699   2.826   1.783 -0.5330 -0.2618 -1.1130
  211MOL0     H28437   4.653   2.783   2.169 -1.0560 -0.6419 -1.5259
  211MOL0     H28438   4.774   2.869   2.092  0.6663 -1.3703 -1.5637
  211MOL0     H28439   4.481   2.943   2.053  0.7508  0.0237 -0.1269
  211MOL0     H28440   4.618   2.994   1.968 -0.3496  2.0302  0.2500
  211MOL0     H28441   4.575   3.017   2.268 -0.4702  1.4980  0.4489
  211MOL0     H28442   4.531   3.135   2.145 -2.2436 -2.7094 -2.6396
  211MOL0     H28443   4.804   3.027   2.226 -0.9273 -0.5518  1.3795
  211MOL0     H28444   4.748   3.184   2.268 -0.9689 -1.3284  0.3536
  211MOL0     H28445   4.768   3.190   1.807 -1.5706 -2.3713  2.7507
  211MOL0     H28446   4.842   3.206   1.601 -0.0073 -0.1876  2.9841
  211MOL0     H28447   5.017   3.199   1.573  1.5928 -0.4705  0.4070
  211MOL0     H28448   4.921   3.056   1.532  3.3798 -2.2102  1.9907
  211MOL0     H28449   5.427   2.997   1.580 -1.2446 -0.8509 -2.3765
  211MOL0     H28450   5.620   2.880   1.474  1.7852  1.5238  1.1983
  211MOL0     H28451   5.786   2.472   1.461 -0.9800 -2.0008  1.9878
  211MOL0     H28452   5.658   2.440   1.572 -0.4475 -1.9271 -0.4797
  211MOL0     H28453   5.490   2.522   1.418 -1.5048 -1.6098 -2.9926
  211MOL0     H28454   5.622   2.589   1.315 -2.6423  0.9281 -1.9110
  211MOL0     H28455   5.484   2.363   1.264  0.6735 -1.2764  0.2430
  211MOL0     H28456   5.582   2.297   1.374  1.8890  0.9373  0.1222
  211MOL0     H28457   5.663   2.402   1.095  0.0011  0.2480  0.1971
  211MOL0     H28458   5.771   2.323   1.216 -0.8394 -1.9579 -0.5163
  211MOL0     H28459   5.585   2.220   1.018 -0.0664 -1.1384  0.3823
  211MOL0     H28460   5.522   2.173   1.170  0.0573 -3.2692 -1.3344
  211MOL0     H28461   5.800   2.105   1.049 -0.4155 -1.8251 -0.5644
  211MOL0     H28462   5.757   2.069   1.220 -0.2636 -0.9570  0.8441
  211MOL0     H28463   5.588   1.925   1.139 -0.0409  2.4741  1.0329
  211MOL0     H28464   5.747   1.886   1.055 -0.4467  1.0625  0.0197
  211MOL0     H28465   5.700   2.008   0.862  2.8612 -1.2680  2.0831
  211MOL0     H28466   5.539   2.044   0.918  0.5445 -0.1204  0.0309
  211MOL0     H28467   5.549   2.542   1.737  1.8919 -0.7242 -2.1691
  211MOL0     H28468   5.338   2.660   1.834  1.7812 -2.3700  1.0899
  211MOL0     H28469   5.141   2.925   1.967 -0.1697 -0.8708 -1.2357
  211MOL0     H28470   4.995   3.030   2.127 -0.9018 -1.0521  0.7438
  211MOL0     H28471   4.675   3.418   1.822 -0.5879 -0.6424 -0.2205
  211MOL0     H28472   4.678   3.653   1.936  0.4283 -1.4617  0.0748
  211MOL0     H28473   4.479   4.064   1.956  2.2358  0.1116  0.3009
  211MOL0     H28474   4.525   4.262   2.057  0.6713  1.5186  2.0865
  211MOL0     H28475   4.626   4.457   2.368  0.1008  0.2846 -0.0952
  211MOL0     H28476   4.651   4.365   2.216 -0.4648 -0.1459  0.7139
  211MOL0     H28477   4.448   4.481   2.130 -1.8023 -2.5785  3.9519
  211MOL0     H28478   4.613   4.572   2.145 -0.1101  2.5050  0.7874
  211MOL0     H28479   4.399   4.684   2.178  1.5752  0.4739  0.2366
  211MOL0     H28480   4.518   4.706   2.290  0.7850 -1.7132 -1.5579
  211MOL0     H28481   4.275   4.493   2.322 -2.1491  0.9253 -0.9801
  211MOL0     H28482   4.245   4.661   2.347  0.1008  1.5084 -2.1050
  211MOL0     H28483   4.411   4.570   2.719 -4.2736 -1.8835  0.5958
  211MOL0     H28484   4.393   4.089   2.432  0.8168 -1.6793  0.2185
  211MOL0     H28485   4.371   3.868   2.315 -0.8016  1.8202  2.0738
  212MOL0     O28486  11.260   6.689   0.915 -0.3257  0.3214  0.3823
  212MOL0     C28487  11.169   6.638   0.842 -0.2957  0.4533  0.0054
  212MOL0     O28488  11.183   6.621   0.709 -0.3922  0.3926  0.9837
  212MOL0     C28489  11.310   6.609   0.660 -0.2745 -0.3549 -0.3831
  212MOL0     C28490  11.427   6.571   0.720  0.0038  0.2246 -0.0633
  212MOL0     C28491  11.547   6.554   0.644  0.4276 -0.1214  0.0997
  212MOL0     C28492  11.558   6.595   0.512 -0.8467  0.2102 -0.1981
  212MOL0     O28493  11.682   6.571   0.454 -0.2823 -0.2925 -0.2174
  212MOL0     C28494  11.709   6.627   0.329 -0.2529 -0.4183 -0.0721
  212MOL0     C28495  11.747   6.786   0.351  1.2761  0.4475 -0.2220
  212MOL0     C28496  11.899   6.800   0.368  0.3036 -0.4396 -0.3025
  212MOL0     C28497  11.942   6.942   0.345  0.0101 -0.0133 -0.5187
  212MOL0     C28498  11.874   7.046   0.442 -0.1929  0.9524  0.4189
  212MOL0     C28499  11.930   7.193   0.424  0.5294 -0.1965 -0.6045
  212MOL0     C28500  11.825   7.301   0.394  1.0343 -0.2263  0.2596
  212MOL0     C28501  11.747   7.306   0.247 -0.8459  0.5496 -0.0425
  212MOL0     N28502  11.667   7.184   0.244 -0.0648 -0.8327 -0.6121
  212MOL0     C28503  11.533   7.194   0.290 -0.2355  1.4279  0.4117
  212MOL0     C28504  11.475   7.083   0.245  0.2820  1.1193  0.3431
  212MOL0     C28505  11.334   7.047   0.277  1.1857  0.2093  0.6200
  212MOL0     C28506  11.240   7.070   0.157 -1.0753 -0.3027 -0.3400
  212MOL0     C28507  11.091   7.024   0.186 -0.4439  0.1644  0.5721
  212MOL0     C28508  11.019   7.103   0.295 -0.9375  0.0612 -0.4665
  212MOL0     O28509  10.905   7.035   0.341 -0.4933  0.1744  0.3874
  212MOL0     C28510  10.786   7.093   0.321  1.1515  0.3880 -1.5462
  212MOL0     C28511  10.710   7.143   0.427 -0.1078  1.1266 -0.8375
  212MOL0     C28512  10.587   7.203   0.404  0.4143 -0.5425 -0.1587
  212MOL0     C28513  10.522   7.254   0.539  0.1488  0.2046 -0.0796
  212MOL0     C28514  10.529   7.217   0.272 -0.1886  1.1999  0.2580
  212MOL0     C28515  10.393   7.276   0.251 -0.8922  0.0837 -0.2091
  212MOL0     O28516  10.338   7.366   0.338  0.0911 -0.0278 -0.3232
  212MOL0     C28517  10.204   7.395   0.338 -0.2874 -0.5253 -0.0036
  212MOL0     C28518  10.169   7.528   0.372 -0.4893 -0.2589  0.4235
  212MOL0     C28519  10.036   7.561   0.389 -0.0604  0.2107  0.0977
  212MOL0     C28520   9.941   7.450   0.414  0.4971 -0.0299 -0.3583
  212MOL0     O28521   9.803   7.463   0.442  0.1609 -0.1709 -0.0494
  212MOL0     C28522   9.749   7.595   0.438 -0.9067 -0.0407 -0.9607
  212MOL0     C28523   9.786   7.679   0.571 -0.3562 -0.5443 -0.0946
  212MOL0     C28524   9.799   7.589   0.692 -0.1461  0.5770  0.1594
  212MOL0     C28525   9.815   7.692   0.811 -0.6742 -0.5028  0.6087
  212MOL0     C28526   9.819   7.625   0.949  0.6406  1.0636  0.6349
  212MOL0     C28527   9.690   7.540   0.977  0.4166 -0.1550 -0.4853
  212MOL0     C28528   9.690   7.475   1.120 -0.6243  0.3187 -0.9063
  212MOL0     C28529   9.797   7.364   1.134 -0.0306 -0.0301  0.8874
  212MOL0    Cl28530   9.760   7.239   1.021 -0.1237  0.0607  0.3104
  212MOL0     C28531   9.988   7.317   0.395  0.2714 -0.6743 -0.2140
  212MOL0     C28532  10.109   7.290   0.343 -0.8712 -0.0891  1.2141
  212MOL0     O28533  10.347   7.259   0.137 -0.0461  1.2300 -0.0237
  212MOL0     C28534  10.612   7.175   0.171  0.2739 -0.5216  0.3033
  212MOL0     C28535  10.734   7.108   0.188  0.5028 -0.1138  0.5549
  212MOL0     N28536  11.559   7.018   0.158 -0.1530 -0.2032  0.1949
  212MOL0     N28537  11.673   7.083   0.154 -0.1607  0.1151 -0.6265
  212MOL0     C28538  11.443   6.642   0.446  0.2713 -0.2828  1.3208
  212MOL0     C28539  11.327   6.650   0.526  0.1127  0.1493  0.6576
  212MOL0     C28540  11.041   6.606   0.904 -0.1973  0.4202  1.6802
  212MOL0     C28541  10.937   6.553   0.826  0.0917  0.2939  1.2445
  212MOL0     C28542  10.815   6.511   0.882 -0.5858  0.1208  0.6371
  212MOL0     C28543  10.804   6.509   1.025  1.0221 -0.5169  0.4484
  212MOL0     O28544  10.683   6.475   1.083  0.2570 -0.6330 -0.3222
  212MOL0     C28545  10.634   6.544   1.192 -0.1138 -0.3256 -0.5008
  212MOL0     C28546  10.489   6.508   1.223  1.1097  0.2758  0.9095
  212MOL0     C28547  10.472   6.385   1.307 -1.3337  0.5898 -0.3514
  212MOL0     C28548  10.321   6.351   1.331 -0.0725  0.0151 -0.4919
  212MOL0     C28549  10.267   6.251   1.235 -0.6024  0.0990  0.5067
  212MOL0     C28550  10.229   6.180   1.144 -0.2459  0.9809 -0.4791
  212MOL0     C28551  10.900   6.586   1.101  1.3495  0.5718  0.1695
  212MOL0     C28552  11.022   6.616   1.038 -0.6335 -0.8920 -0.7353
  212MOL0     H28553  11.418   6.541   0.824 -1.3554 -1.2589 -0.5784
  212MOL0     H28554  11.638   6.510   0.685  0.6138  0.8401  0.7727
  212MOL0     H28555  11.794   6.585   0.274  0.4440 -0.0391  0.6984
  212MOL0     H28556  11.622   6.612   0.264 -0.6320 -2.1736  0.7723
  212MOL0     H28557  11.697   6.838   0.269 -2.2583 -0.9022  0.8662
  212MOL0     H28558  11.695   6.830   0.437 -1.3072 -0.1548 -1.3662
  212MOL0     H28559  11.936   6.773   0.467 -1.5725 -0.3915  0.4330
  212MOL0     H28560  11.956   6.727   0.308  1.7150  0.3454  0.0388
  212MOL0     H28561  12.051   6.942   0.357 -0.1372 -2.5723  1.6663
  212MOL0     H28562  11.907   6.977   0.247 -1.7044  2.8336  0.9685
  212MOL0     H28563  11.767   7.063   0.424 -0.1405  0.6392 -0.1904
  212MOL0     H28564  11.894   7.014   0.545  1.5489  1.1299  0.1534
  212MOL0     H28565  11.981   7.216   0.518  1.9452  1.7021 -1.7480
  212MOL0     H28566  12.010   7.186   0.349  1.8658 -0.2249  0.7771
  212MOL0     H28567  11.740   7.310   0.462  1.3873  0.7489  0.5885
  212MOL0     H28568  11.870   7.400   0.404  1.4982 -0.6177  2.4173
  212MOL0     H28569  11.820   7.305   0.165 -0.0030 -0.7270  0.6853
  212MOL0     H28570  11.676   7.389   0.248 -4.2328 -2.0434 -1.8972
  212MOL0     H28571  11.480   7.274   0.340 -0.4215  1.9188 -0.5488
  212MOL0     H28572  11.326   6.940   0.297 -2.3394  0.5070  1.4506
  212MOL0     H28573  11.292   7.106   0.359  0.5136  3.3353 -1.7763
  212MOL0     H28574  11.274   7.026   0.063 -2.1365 -0.9171 -0.4501
  212MOL0     H28575  11.228   7.178   0.139 -6.5361 -0.1981  1.9238
  212MOL0     H28576  11.103   6.919   0.216  2.8029  0.4157  0.4963
  212MOL0     H28577  11.045   7.032   0.087  2.1881  1.7068 -0.6212
  212MOL0     H28578  10.995   7.203   0.258 -1.1432 -0.1604 -0.9438
  212MOL0     H28579  11.070   7.116   0.391  0.4897  0.1588 -1.2192
  212MOL0     H28580  10.749   7.129   0.527  0.9203  1.8097 -1.1332
  212MOL0     H28581  10.580   7.221   0.626 -1.3860 -2.2652  0.1263
  212MOL0     H28582  10.502   7.361   0.548 -4.4621 -0.5641  1.6452
  212MOL0     H28583  10.424   7.205   0.542 -0.2213  0.9072 -0.4816
  212MOL0     H28584  10.231   7.617   0.366  3.3767 -2.4586  3.1960
  212MOL0     H28585  10.013   7.667   0.393 -1.5856 -0.1147  0.7341
  212MOL0     H28586   9.783   7.660   0.357 -4.8510  2.5239 -0.8759
  212MOL0     H28587   9.642   7.582   0.420 -0.6117 -0.8056 -2.2706
  212MOL0     H28588   9.878   7.736   0.555 -0.0351 -1.3050 -1.0770
  212MOL0     H28589   9.710   7.757   0.571 -1.3953 -1.4167  3.1693
  212MOL0     H28590   9.886   7.523   0.680  2.8155  3.7656  2.0373
  212MOL0     H28591   9.714   7.524   0.713  1.5946 -0.9118  3.4366
  212MOL0     H28592   9.914   7.733   0.789  0.2988 -1.7385  2.4392
  212MOL0     H28593   9.737   7.769   0.809  0.8183  1.0456 -0.8364
  212MOL0     H28594   9.841   7.693   1.032  1.2290  0.3327  1.0973
  212MOL0     H28595   9.908   7.562   0.958  0.5903  0.9468  0.3138
  212MOL0     H28596   9.602   7.606   0.976  0.7277  0.2799  0.1858
  212MOL0     H28597   9.675   7.458   0.907  2.3024 -2.4381  1.6054
  212MOL0     H28598   9.596   7.426   1.147 -1.0851  1.1548 -0.9667
  212MOL0     H28599   9.694   7.555   1.195 -1.9480 -1.6669  1.4661
  212MOL0     H28600   9.794   7.321   1.234  1.4960 -0.3190  0.8234
  212MOL0     H28601   9.900   7.397   1.123  1.0424 -3.2040  0.6163
  212MOL0     H28602   9.900   7.258   0.421 -0.3595  0.5105  0.4173
  212MOL0     H28603  10.141   7.191   0.313  0.0468  0.4403  0.3924
  212MOL0     H28604  10.564   7.182   0.074  1.8381  2.3326 -0.3757
  212MOL0     H28605  10.788   7.061   0.106 -2.7692 -0.0554 -1.8273
  212MOL0     H28606  11.439   6.678   0.344 -2.3150 -2.6686  0.4569
  212MOL0     H28607  11.233   6.694   0.494 -0.1003  0.8944  2.2051
  212MOL0     H28608  10.964   6.556   0.721  2.5769  3.3192  1.8002
  212MOL0     H28609  10.728   6.472   0.830 -0.7710 -1.4039  2.0032
  212MOL0     H28610  10.696   6.526   1.280 -2.6839  0.1992  1.5658
  212MOL0     H28611  10.638   6.652   1.171 -1.9192 -0.5063 -2.0997
  212MOL0     H28612  10.435   6.494   1.129  1.9923 -0.7988  0.5388
  212MOL0     H28613  10.443   6.592   1.276 -1.1947 -1.5601  1.9622
  212MOL0     H28614  10.507   6.399   1.409 -0.2385 -2.3975 -0.1955
  212MOL0     H28615  10.531   6.306   1.259  0.1209  1.4264 -0.0093
  212MOL0     H28616  10.261   6.442   1.321 -2.3840 -1.3442  0.2459
  212MOL0     H28617  10.310   6.312   1.433  2.1212  2.4761  0.8036
  212MOL0     H28618  10.200   6.111   1.067  0.4844  2.5527 -2.2362
  212MOL0     H28619  10.883   6.604   1.206  0.2990  0.0641  0.0937
  212MOL0     H28620  11.108   6.647   1.098 -3.2699  0.9393  2.4059
  213MOL0     O28621   4.942   5.502  10.250  0.2404 -0.1953  1.0719
  213MOL0     C28622   4.914   5.496  10.131 -0.0857  0.2254 -0.1118
  213MOL0     O28623   4.856   5.591  10.060  0.8503  0.0881 -0.0244
  213MOL0     C28624   4.804   5.693  10.135  0.2524  0.7576 -0.4043
  213MOL0     C28625   4.882   5.802  10.165 -0.0143 -0.0499  0.4024
  213MOL0     C28626   4.824   5.916  10.223 -0.5964 -0.4808  0.0946
  213MOL0     C28627   4.690   5.912  10.275 -0.1344  0.3217  1.1141
  213MOL0     O28628   4.636   6.028  10.325  0.3469  0.2998  0.7243
  213MOL0     C28629   4.504   6.045  10.361 -0.3441 -1.0214  0.7430
  213MOL0     C28630   4.483   5.972  10.491  1.1273 -0.6985  0.2691
  213MOL0     C28631   4.336   5.963  10.537  0.5771 -0.2283  0.4376
  213MOL0     C28632   4.329   5.941  10.692 -0.0740  0.0848  0.1374
  213MOL0     C28633   4.375   5.804  10.740  0.2802  0.7381 -0.3704
  213MOL0     C28634   4.289   5.688  10.697  0.8686  1.0436  0.6249
  213MOL0     C28635   4.322   5.562  10.780  0.1985  0.1568 -0.3208
  213MOL0     C28636   4.275   5.437  10.687  0.3742 -0.7413 -0.1774
  213MOL0     N28637   4.370   5.380  10.593  0.0874  0.0076  0.4564
  213MOL0     C28638   4.476   5.298  10.627  0.7254  0.3396 -0.4366
  213MOL0     C28639   4.527   5.264  10.514 -0.0010 -0.3666  0.3598
  213MOL0     C28640   4.643   5.176  10.502  0.2942 -0.3781 -0.0181
  213MOL0     C28641   4.610   5.027  10.490 -1.1323 -0.5192  0.1699
  213MOL0     C28642   4.499   4.994  10.384 -0.2441 -0.4017  0.7263
  213MOL0     C28643   4.502   4.840  10.352 -0.9940 -0.9890  0.0639
  213MOL0     O28644   4.415   4.801  10.245  0.1870  0.2282  0.6285
  213MOL0     C28645   4.458   4.809  10.118  0.2766  0.2720  0.5983
  213MOL0     C28646   4.383   4.748  10.020  0.2904  0.1742 -0.3684
  213MOL0     C28647   4.417   4.748   9.883  0.4442  0.3257 -0.9655
  213MOL0     C28648   4.331   4.673   9.784 -0.2397  0.9457 -0.0727
  213MOL0     C28649   4.542   4.813   9.853  0.5224  0.1515 -0.2865
  213MOL0     C28650   4.603   4.825   9.716  0.3853 -0.3184  0.8306
  213MOL0     O28651   4.738   4.847   9.706  0.4515  0.5396 -0.4852
  213MOL0     C28652   4.807   4.818   9.593 -1.3355 -0.3075 -0.2067
  213MOL0     C28653   4.779   4.719   9.497  1.0501  0.3828 -0.1928
  213MOL0     C28654   4.863   4.684   9.389  0.7217  0.3883 -0.0655
  213MOL0     C28655   4.960   4.785   9.362  0.8208  0.5221  0.1613
  213MOL0     O28656   5.029   4.789   9.245 -0.7441  0.1747 -0.0862
  213MOL0     C28657   5.009   4.693   9.144  0.0748 -0.0303  0.4630
  213MOL0     C28658   5.043   4.751   9.005  0.4365  0.4405 -0.2324
  213MOL0     C28659   5.009   4.668   8.884 -0.2968 -0.0393  0.5066
  213MOL0     C28660   5.061   4.733   8.761  0.3192 -0.0779  1.6347
  213MOL0     C28661   5.056   4.655   8.627 -0.3533 -0.0710 -0.0631
  213MOL0     C28662   4.911   4.607   8.597  0.0692 -0.6003 -0.1177
  213MOL0     C28663   4.922   4.486   8.496  0.1296  0.4641 -0.8812
  213MOL0     C28664   4.980   4.534   8.362 -1.2878 -0.4496  0.1708
  213MOL0    Cl28665   4.916   4.681   8.278 -0.1794  0.9528 -0.0556
  213MOL0     C28666   4.989   4.894   9.450  0.4713 -0.0920  0.2747
  213MOL0     C28667   4.916   4.909   9.562  0.3503  0.3839 -0.5275
  213MOL0     O28668   4.528   4.794   9.622  0.0242  0.3643  0.0675
  213MOL0     C28669   4.609   4.889   9.952  0.3323 -0.1153 -1.8478
  213MOL0     C28670   4.572   4.883  10.082  0.1496 -0.7343 -0.6518
  213MOL0     N28671   4.463   5.325  10.412 -1.2555  0.0399 -0.0458
  213MOL0     N28672   4.370   5.402  10.457  0.5528  0.6861 -0.2570
  213MOL0     C28673   4.610   5.800  10.231  0.3805  1.1565  0.2878
  213MOL0     C28674   4.667   5.689  10.171  0.7389  0.3268 -0.5029
  213MOL0     C28675   4.937   5.359  10.067 -0.1909 -0.1502 -0.4125
  213MOL0     C28676   4.908   5.335   9.932 -0.8565  0.2898 -0.6297
  213MOL0     C28677   4.940   5.215   9.873 -0.8097  1.1519 -0.0535
  213MOL0     C28678   4.970   5.101   9.948  0.3069 -0.1294  0.3658
  213MOL0     O28679   5.000   4.987   9.878  0.0190  0.7541 -0.2503
  213MOL0     C28680   5.026   4.860   9.948  0.5503 -0.8596 -0.1751
  213MOL0     C28681   5.107   4.768   9.856  0.2609 -1.0631 -0.7833
  213MOL0     C28682   5.174   4.645   9.916  0.3587 -0.1375  0.5704
  213MOL0     C28683   5.062   4.572   9.986 -0.1912 -0.7446 -0.0656
  213MOL0     C28684   5.117   4.447  10.033  0.1714  0.7636 -0.1037
  213MOL0     C28685   5.165   4.335  10.071  0.0823 -0.1543  0.1212
  213MOL0     C28686   4.978   5.109  10.085 -0.6805 -0.1275  0.3404
  213MOL0     C28687   4.969   5.235  10.144  0.9144 -1.1842 -0.0302
  213MOL0     H28688   4.987   5.821  10.142 -0.7960  2.3746 -1.6686
  213MOL0     H28689   4.886   6.005  10.230  1.5256 -1.7575 -1.2632
  213MOL0     H28690   4.488   6.151  10.383  1.8443 -0.0605 -1.6619
  213MOL0     H28691   4.439   6.017  10.277 -0.2261 -0.8784  0.6019
  213MOL0     H28692   4.520   5.871  10.475  2.0805 -0.0528 -1.8758
  213MOL0     H28693   4.551   6.025  10.559 -0.8640 -1.2886  2.9078
  213MOL0     H28694   4.285   6.056  10.511 -0.0708 -1.0878 -1.5884
  213MOL0     H28695   4.285   5.880  10.486  2.6543 -2.0961  1.2106
  213MOL0     H28696   4.389   6.016  10.743  0.3518 -0.1818  0.0318
  213MOL0     H28697   4.228   5.966  10.724  0.5459 -0.9570  3.2090
  213MOL0     H28698   4.480   5.785  10.718 -0.0875 -2.4792  0.1597
  213MOL0     H28699   4.361   5.803  10.848  4.4949  0.6782  0.3363
  213MOL0     H28700   4.185   5.718  10.716  0.3526 -0.2097 -0.0654
  213MOL0     H28701   4.319   5.663  10.595 -0.6796  1.6649 -0.0187
  213MOL0     H28702   4.425   5.554  10.815 -0.3440  3.3471  2.4218
  213MOL0     H28703   4.256   5.564  10.866 -0.5226 -4.2247 -0.5536
  213MOL0     H28704   4.188   5.475  10.632 -0.4849 -0.3990  1.3434
  213MOL0     H28705   4.243   5.366  10.764 -0.4273  1.7109  1.9090
  213MOL0     H28706   4.507   5.258  10.723  0.6399 -4.3664 -2.1233
  213MOL0     H28707   4.707   5.218  10.424  1.7192 -0.1770  1.2194
  213MOL0     H28708   4.701   5.175  10.595  0.6121 -1.5414 -0.2129
  213MOL0     H28709   4.570   4.997  10.587 -0.4025  1.1472  1.0248
  213MOL0     H28710   4.699   4.964  10.480 -1.4930 -1.2986  1.6834
  213MOL0     H28711   4.518   5.057  10.297  3.7408  0.1783  1.8300
  213MOL0     H28712   4.400   5.022  10.420 -0.7763  0.6854 -1.4143
  213MOL0     H28713   4.493   4.778  10.442 -0.8149 -1.7911 -0.4592
  213MOL0     H28714   4.604   4.818  10.318 -0.0361  1.1225  1.3990
  213MOL0     H28715   4.287   4.702  10.042  0.2821 -0.8405 -2.3745
  213MOL0     H28716   4.405   4.608   9.737 -1.2039  0.7465 -1.3767
  213MOL0     H28717   4.247   4.617   9.826  2.0778 -1.3199  1.8659
  213MOL0     H28718   4.289   4.745   9.713 -0.3195  1.4251  0.4535
  213MOL0     H28719   4.692   4.656   9.512  0.9186  0.8959  1.2775
  213MOL0     H28720   4.838   4.599   9.327 -0.4734 -0.0045  0.9233
  213MOL0     H28721   5.071   4.603   9.146 -1.8119 -1.5822 -2.5705
  213MOL0     H28722   4.904   4.660   9.141 -0.4484  1.3002  2.1977
  213MOL0     H28723   4.985   4.844   9.007 -0.2037  0.0677 -0.9555
  213MOL0     H28724   5.149   4.780   9.000  0.4505  0.2328 -1.4619
  213MOL0     H28725   4.901   4.654   8.869 -0.4145  1.6878 -0.5012
  213MOL0     H28726   5.053   4.568   8.890  0.5445  0.3711  1.4750
  213MOL0     H28727   5.008   4.824   8.735  0.6514 -0.8577 -2.5193
  213MOL0     H28728   5.168   4.750   8.774  0.2265 -0.3376  2.8342
  213MOL0     H28729   5.120   4.568   8.646  1.4199  0.7208 -1.9498
  213MOL0     H28730   5.093   4.710   8.540 -0.7584  1.3965  0.6543
  213MOL0     H28731   4.845   4.579   8.680  0.2152 -0.5637  0.0098
  213MOL0     H28732   4.852   4.687   8.551 -1.1914 -1.6489 -0.3773
  213MOL0     H28733   4.822   4.451   8.469  1.1489 -3.8980  0.2885
  213MOL0     H28734   4.971   4.408   8.555  0.9613  0.5887 -1.3926
  213MOL0     H28735   4.983   4.455   8.287 -1.6457 -0.7277  0.4490
  213MOL0     H28736   5.084   4.571   8.367 -2.5755  3.5479  1.3973
  213MOL0     H28737   5.058   4.976   9.433 -1.6397  1.6388 -0.4436
  213MOL0     H28738   4.920   4.988   9.636  1.9847 -1.4186  1.4414
  213MOL0     H28739   4.693   4.949   9.918 -0.7895  2.5154 -0.2623
  213MOL0     H28740   4.637   4.943  10.145  0.4401 -1.1162 -0.5823
  213MOL0     H28741   4.503   5.793  10.249  0.8542  0.1579  3.3968
  213MOL0     H28742   4.614   5.596  10.156  0.8022 -0.0092  1.1894
  213MOL0     H28743   4.868   5.411   9.866  0.7678  1.1366 -0.6801
  213MOL0     H28744   4.933   5.204   9.765  0.6686  0.0158 -0.0694
  213MOL0     H28745   5.082   4.876  10.041  1.4292  1.1982 -1.0063
  213MOL0     H28746   4.931   4.808   9.968  0.2677  0.0455  0.8949
  213MOL0     H28747   5.168   4.828   9.788  0.5158  2.5184  2.2300
  213MOL0     H28748   5.031   4.733   9.786 -1.6574 -0.0163  0.6804
  213MOL0     H28749   5.255   4.675   9.983  0.2400  1.0471  0.1956
  213MOL0     H28750   5.220   4.579   9.842  0.2430  1.0744 -0.6279
  213MOL0     H28751   4.980   4.548   9.916  0.5798 -2.4281 -0.4337
  213MOL0     H28752   5.033   4.634  10.071  1.5306 -0.3447  0.2657
  213MOL0     H28753   5.206   4.241  10.103  3.0760  0.8066 -0.5271
  213MOL0     H28754   5.015   5.029  10.149  0.5642  0.0432 -0.1409
  213MOL0     H28755   4.988   5.251  10.249  0.0503 -0.0383 -0.0252
  214MOL0     O28756   1.381   4.038   6.168  0.0700 -0.1794  0.2433
  214MOL0     C28757   1.462   4.086   6.250 -0.5956 -0.4794 -0.5821
  214MOL0     O28758   1.425   4.174   6.350 -0.5808  0.4029 -0.0416
  214MOL0     C28759   1.299   4.231   6.340  0.7304  0.7744 -0.0300
  214MOL0     C28760   1.282   4.344   6.249 -0.5688 -0.1508  0.6423
  214MOL0     C28761   1.154   4.391   6.224 -0.1641 -0.2556  0.6221
  214MOL0     C28762   1.044   4.348   6.305 -1.6137 -0.1199 -0.7209
  214MOL0     O28763   0.916   4.403   6.303  0.1016 -0.1554 -0.0148
  214MOL0     C28764   0.872   4.440   6.168 -0.0476  0.9318 -0.8820
  214MOL0     C28765   0.727   4.482   6.161 -0.2481 -0.0373  0.0051
  214MOL0     C28766   0.629   4.383   6.231  0.4836  0.5481 -0.0889
  214MOL0     C28767   0.527   4.469   6.285  1.2843 -0.9302 -0.2949
  214MOL0     C28768   0.432   4.409   6.387 -0.0839  1.1425 -0.5301
  214MOL0     C28769   0.489   4.360   6.523 -0.7086 -0.3005  0.2788
  214MOL0     C28770   0.384   4.275   6.595  0.0141 -0.6044 -0.3660
  214MOL0     C28771   0.432   4.265   6.734 -0.6238 -0.8838 -0.8549
  214MOL0     N28772   0.322   4.231   6.816 -0.1735 -0.4903  0.2182
  214MOL0     C28773   0.210   4.313   6.838 -0.6896 -0.8604  0.2656
  214MOL0     C28774   0.117   4.253   6.909 -0.1465  0.0564 -0.3581
  214MOL0     C28775  -0.029   4.301   6.929 -0.1346  0.0640 -0.6823
  214MOL0     C28776  -0.101   4.277   6.804 -0.5361  0.2653  0.9117
  214MOL0     C28777  -0.215   4.373   6.780 -0.4090  0.2442  0.1971
  214MOL0     C28778  -0.330   4.311   6.706  0.1682  0.3615  0.4264
  214MOL0     O28779  -0.431   4.414   6.674 -0.7449  0.4099  0.2639
  214MOL0     C28780  -0.545   4.378   6.607 -0.4477 -0.1523  0.5978
  214MOL0     C28781  -0.561   4.252   6.548  0.3022 -0.1528  0.0614
  214MOL0     C28782  -0.682   4.221   6.486  0.6524  0.2431 -0.0372
  214MOL0     C28783  -0.703   4.080   6.436  0.5990 -0.3828  0.2973
  214MOL0     C28784  -0.780   4.324   6.463 -0.0331  0.4334 -0.1350
  214MOL0     C28785  -0.911   4.307   6.391  1.3046 -0.2970  0.4836
  214MOL0     O28786  -0.996   4.194   6.409  0.0566 -0.0572 -0.9679
  214MOL0     C28787  -1.125   4.171   6.368 -0.1580 -0.4814  0.5925
  214MOL0     C28788  -1.206   4.286   6.360  0.4711  0.6605  0.1666
  214MOL0     C28789  -1.340   4.271   6.312 -0.4240 -0.3110  0.3152
  214MOL0     C28790  -1.400   4.144   6.288 -0.9833 -0.3856 -0.8090
  214MOL0     O28791  -1.525   4.126   6.246  0.2332 -0.4672  0.6829
  214MOL0     C28792  -1.538   4.178   6.111 -0.2765 -0.8032 -0.4853
  214MOL0     C28793  -1.670   4.123   6.050 -1.3004  0.0495 -0.2838
  214MOL0     C28794  -1.783   4.215   6.089  0.5178 -0.4752 -0.0271
  214MOL0     C28795  -1.777   4.353   6.019  0.1689 -1.0018  0.3435
  214MOL0     C28796  -1.906   4.440   6.046  0.1426 -0.3534 -0.2289
  214MOL0     C28797  -1.905   4.557   5.956  0.3292 -0.1416  0.0373
  214MOL0     C28798  -1.988   4.671   6.013 -0.0763 -0.9489  1.7889
  214MOL0     C28799  -1.929   4.752   6.130  0.4791  1.0757 -0.0298
  214MOL0    Cl28800  -1.757   4.813   6.099 -0.2514  0.0541 -0.3794
  214MOL0     C28801  -1.318   4.032   6.307  0.5445  0.5007  0.6593
  214MOL0     C28802  -1.182   4.045   6.333  0.0766  0.7364  0.5000
  214MOL0     O28803  -0.936   4.401   6.319 -0.7042  0.6651 -0.2656
  214MOL0     C28804  -0.760   4.453   6.519 -0.0522  0.8674 -0.5330
  214MOL0     C28805  -0.642   4.475   6.589  0.2481 -0.0523  0.4648
  214MOL0     N28806   0.165   4.128   6.926 -0.0171  0.1802 -0.8844
  214MOL0     N28807   0.291   4.110   6.877  0.1757  0.6871  1.0761
  214MOL0     C28808   1.068   4.262   6.410 -0.4655 -0.6677  1.3957
  214MOL0     C28809   1.193   4.194   6.422  0.3256  0.4598 -0.1436
  214MOL0     C28810   1.597   4.039   6.236 -0.8562  0.1318 -0.7450
  214MOL0     C28811   1.635   3.953   6.136  0.0323 -0.2758 -0.5300
  214MOL0     C28812   1.766   3.922   6.119 -0.4075  0.8559  0.2303
  214MOL0     C28813   1.863   3.968   6.202  0.4816  0.3461  1.3636
  214MOL0     O28814   1.992   3.919   6.170  0.2168  0.7231  0.0396
  214MOL0     C28815   2.102   3.926   6.259 -0.3041 -0.5043 -0.0026
  214MOL0     C28816   2.086   3.860   6.395 -0.0697 -0.9926  0.0012
  214MOL0     C28817   2.220   3.872   6.466 -0.3017  0.0886 -0.7044
  214MOL0     C28818   2.216   3.802   6.609  0.9139 -0.5348 -0.2250
  214MOL0     C28819   2.180   3.657   6.616  0.3150 -0.8527 -0.3409
  214MOL0     C28820   2.153   3.543   6.626  0.2383 -1.2252 -0.1799
  214MOL0     C28821   1.828   4.042   6.305  0.5236 -0.1051  0.0431
  214MOL0     C28822   1.697   4.082   6.325 -0.3008 -0.8325  0.6344
  214MOL0     H28823   1.371   4.378   6.197 -2.3470  2.4139 -0.9819
  214MOL0     H28824   1.150   4.475   6.155 -2.7401 -0.7213  0.0811
  214MOL0     H28825   0.939   4.513   6.120  1.7705  0.4958  0.8686
  214MOL0     H28826   0.881   4.356   6.098 -2.0103  1.5506 -1.9573
  214MOL0     H28827   0.729   4.577   6.216 -2.9102  0.0263  0.1300
  214MOL0     H28828   0.706   4.493   6.054  1.0076 -1.4797 -0.4134
  214MOL0     H28829   0.581   4.309   6.166  1.1740 -0.5193  0.5842
  214MOL0     H28830   0.678   4.338   6.318 -0.4462  0.7949  0.5799
  214MOL0     H28831   0.571   4.558   6.331 -2.1245  1.9807 -2.2185
  214MOL0     H28832   0.476   4.509   6.198 -0.4806 -1.2004  0.5749
  214MOL0     H28833   0.349   4.477   6.412 -0.3925  0.0642  1.6269
  214MOL0     H28834   0.374   4.325   6.348  1.2707 -0.1583  0.1701
  214MOL0     H28835   0.581   4.304   6.500 -0.2959  0.6398 -0.4383
  214MOL0     H28836   0.512   4.449   6.582 -2.4606  0.3585  0.0224
  214MOL0     H28837   0.283   4.317   6.594  0.2128 -0.0996  0.1356
  214MOL0     H28838   0.395   4.176   6.551 -3.8986 -0.9905 -0.8617
  214MOL0     H28839   0.468   4.364   6.765 -1.8906 -1.3461  2.5755
  214MOL0     H28840   0.505   4.183   6.738 -1.2749 -1.4581  2.3903
  214MOL0     H28841   0.191   4.409   6.792  2.0479 -0.9805 -1.3445
  214MOL0     H28842  -0.074   4.250   7.015 -0.2080 -0.9702 -1.3166
  214MOL0     H28843  -0.017   4.409   6.940  1.5419 -0.2634  1.8836
  214MOL0     H28844  -0.139   4.175   6.810  0.4267 -0.0308  2.2306
  214MOL0     H28845  -0.042   4.277   6.712 -2.3237 -0.5837 -0.3046
  214MOL0     H28846  -0.176   4.440   6.703  0.7316 -0.5293  0.0799
  214MOL0     H28847  -0.248   4.420   6.873 -2.2368 -2.9910  1.3538
  214MOL0     H28848  -0.382   4.233   6.763 -1.8151 -0.6617 -2.5344
  214MOL0     H28849  -0.297   4.260   6.615 -0.3453  1.6306 -0.4914
  214MOL0     H28850  -0.488   4.173   6.562  1.0526  0.5814  0.4167
  214MOL0     H28851  -0.749   4.082   6.337 -2.7731  3.0120  1.6766
  214MOL0     H28852  -0.611   4.021   6.439  0.6454 -0.4702 -1.6304
  214MOL0     H28853  -0.777   4.027   6.497 -0.5189 -0.6974 -1.2727
  214MOL0     H28854  -1.182   4.388   6.389 -0.2976  1.3557 -1.4622
  214MOL0     H28855  -1.399   4.360   6.295 -1.2369 -0.7649  0.7474
  214MOL0     H28856  -1.535   4.287   6.104 -0.6536 -0.7614 -0.0229
  214MOL0     H28857  -1.450   4.141   6.058  1.0729 -0.6744  1.5579
  214MOL0     H28858  -1.659   4.118   5.941 -1.3959  0.1753 -0.2992
  214MOL0     H28859  -1.707   4.029   6.092  1.4517 -1.7095 -1.5116
  214MOL0     H28860  -1.790   4.234   6.197 -0.4720 -0.2003 -0.1295
  214MOL0     H28861  -1.884   4.174   6.081  0.1128  0.6207 -0.7356
  214MOL0     H28862  -1.693   4.416   6.050 -1.3047  1.8762 -1.1170
  214MOL0     H28863  -1.773   4.343   5.910  0.9089  1.0952  0.1231
  214MOL0     H28864  -1.903   4.480   6.147  1.1414  4.0849 -1.7860
  214MOL0     H28865  -1.996   4.381   6.032  0.5689 -0.5840 -2.4719
  214MOL0     H28866  -1.807   4.603   5.946 -0.1289  1.5225  2.3706
  214MOL0     H28867  -1.955   4.533   5.862 -2.5806  1.6419  0.9741
  214MOL0     H28868  -2.096   4.656   6.012 -0.4368  1.3299  0.3518
  214MOL0     H28869  -1.981   4.747   5.935 -1.8689  1.2620  3.6408
  214MOL0     H28870  -1.928   4.685   6.217  1.2225  1.4206  0.2323
  214MOL0     H28871  -2.001   4.831   6.155 -1.8203 -1.5934  2.6817
  214MOL0     H28872  -1.363   3.937   6.280 -0.2434  0.9371  0.4086
  214MOL0     H28873  -1.119   3.957   6.345 -1.6911 -0.5930  0.3939
  214MOL0     H28874  -0.832   4.530   6.493 -1.3822  0.0266  0.5713
  214MOL0     H28875  -0.610   4.575   6.619 -3.4646  1.4177  0.1172
  214MOL0     H28876   0.992   4.248   6.486 -0.7197 -1.4770  0.9962
  214MOL0     H28877   1.203   4.127   6.506  1.0090  0.3777 -0.2854
  214MOL0     H28878   1.563   3.920   6.061  0.5716  0.6932 -1.5056
  214MOL0     H28879   1.788   3.859   6.034 -1.7255  1.1122 -0.3270
  214MOL0     H28880   2.194   3.884   6.216  1.0593 -2.8370  4.4798
  214MOL0     H28881   2.121   4.033   6.277  0.0709 -0.6102  0.2466
  214MOL0     H28882   2.064   3.753   6.393 -4.3273 -0.3140  0.5793
  214MOL0     H28883   2.012   3.910   6.458  0.4930 -1.8306  1.3883
  214MOL0     H28884   2.252   3.976   6.469 -1.5724  0.8275 -5.3722
  214MOL0     H28885   2.296   3.814   6.412  0.3932 -0.7083  1.0284
  214MOL0     H28886   2.150   3.863   6.671  1.1419  0.3913 -0.8734
  214MOL0     H28887   2.314   3.813   6.657  1.1392 -1.2550 -0.5061
  214MOL0     H28888   2.139   3.437   6.633 -0.6990 -1.1068 -0.1319
  214MOL0     H28889   1.909   4.075   6.369  0.1116 -1.5370  1.3770
  214MOL0     H28890   1.674   4.160   6.398  1.0315 -1.2189  1.5018
  215MOL0     O28891   6.216   6.234   5.242  0.2211 -0.6223 -0.5321
  215MOL0     C28892   6.148   6.136   5.261 -0.1174  0.7397  1.3368
  215MOL0     O28893   6.127   6.077   5.378  0.3669  0.3914  0.0915
  215MOL0     C28894   6.183   6.124   5.493  0.3037 -0.1739 -0.4699
  215MOL0     C28895   6.319   6.130   5.502 -0.3382  0.2262 -0.0750
  215MOL0     C28896   6.375   6.159   5.633  0.8133 -0.6730  0.2999
  215MOL0     C28897   6.293   6.189   5.750  0.3071  1.2710  0.6299
  215MOL0     O28898   6.324   6.222   5.877  0.2068 -0.2272 -0.2164
  215MOL0     C28899   6.459   6.187   5.919 -0.7020 -0.1498 -0.7947
  215MOL0     C28900   6.560   6.304   5.908  0.6847  0.4250 -0.6904
  215MOL0     C28901   6.540   6.428   5.996 -0.2434 -0.6057  0.0564
  215MOL0     C28902   6.627   6.420   6.116 -0.4792  0.6154 -0.6471
  215MOL0     C28903   6.643   6.547   6.204  0.3225  0.1658 -0.4430
  215MOL0     C28904   6.749   6.527   6.318 -0.3040  0.2310 -0.2094
  215MOL0     C28905   6.769   6.649   6.419  0.0466 -0.7085  0.5794
  215MOL0     C28906   6.647   6.661   6.515 -0.4965 -0.4656 -0.0266
  215MOL0     N28907   6.665   6.762   6.627 -0.3014 -0.0813  0.1854
  215MOL0     C28908   6.628   6.897   6.628  0.2033 -0.1689  0.8000
  215MOL0     C28909   6.677   6.948   6.739 -0.3309  1.0308  0.7059
  215MOL0     C28910   6.662   7.093   6.790  0.6290  0.9216  0.1405
  215MOL0     C28911   6.655   7.103   6.947  0.0211 -0.6242 -0.4370
  215MOL0     C28912   6.676   7.244   6.992 -0.5822  0.2767 -0.5940
  215MOL0     C28913   6.662   7.264   7.146  0.1691  0.3628 -0.8118
  215MOL0     O28914   6.538   7.205   7.188 -0.2337  0.6059  1.0441
  215MOL0     C28915   6.546   7.129   7.298  0.5802 -0.0381 -0.2854
  215MOL0     C28916   6.593   7.170   7.418 -0.2188 -0.5830  0.8562
  215MOL0     C28917   6.584   7.090   7.535  0.8465  0.0851  0.0941
  215MOL0     C28918   6.660   7.141   7.655  0.0139 -0.4305 -0.5070
  215MOL0     C28919   6.507   6.967   7.530  0.0477  0.2974  0.5204
  215MOL0     C28920   6.495   6.867   7.650 -1.2853 -0.6079 -0.9507
  215MOL0     O28921   6.442   6.743   7.614  0.0863 -0.2966 -0.5150
  215MOL0     C28922   6.437   6.645   7.707  0.1453 -0.1786  0.6503
  215MOL0     C28923   6.344   6.663   7.809  0.0698  0.5876 -0.3399
  215MOL0     C28924   6.315   6.552   7.888  0.3457  0.5598 -0.1290
  215MOL0     C28925   6.397   6.437   7.880  0.8456 -0.4903 -0.7511
  215MOL0     O28926   6.400   6.341   7.979  0.1537 -0.2301  0.1646
  215MOL0     C28927   6.283   6.292   8.041 -0.5145  0.8836 -0.0023
  215MOL0     C28928   6.224   6.180   7.954 -0.0381  0.1390  0.0835
  215MOL0     C28929   6.099   6.116   8.019  0.3714 -0.1956  0.1069
  215MOL0     C28930   6.004   6.059   7.912  0.5039  0.1959 -0.1770
  215MOL0     C28931   5.921   5.947   7.970  0.6295 -0.2525  0.7602
  215MOL0     C28932   5.776   5.954   7.926 -0.7592  0.3792 -0.5457
  215MOL0     C28933   5.689   5.849   8.002 -0.1405  0.4291  0.3838
  215MOL0     C28934   5.540   5.833   7.961 -0.1887  0.6499  1.3581
  215MOL0    Cl28935   5.476   5.668   8.004 -0.2173 -0.0502  0.0913
  215MOL0     C28936   6.494   6.421   7.782 -0.7340  0.0143  0.1646
  215MOL0     C28937   6.506   6.526   7.695 -1.0934  0.1781  0.7756
  215MOL0     O28938   6.505   6.907   7.769  0.0024 -0.4388 -1.1353
  215MOL0     C28939   6.450   6.934   7.403 -0.4219 -0.0209  0.0836
  215MOL0     C28940   6.473   7.015   7.292 -0.0363 -0.6514  0.3006
  215MOL0     N28941   6.757   6.852   6.808 -1.5131  0.1499  0.0546
  215MOL0     N28942   6.753   6.748   6.732  0.4601  0.1696  0.2677
  215MOL0     C28943   6.155   6.179   5.727 -0.0314 -0.3861  0.4574
  215MOL0     C28944   6.100   6.157   5.599  0.0893  0.2678 -0.2071
  215MOL0     C28945   6.096   6.072   5.138  0.4754 -0.4269  0.1434
  215MOL0     C28946   6.058   5.943   5.136 -0.0058  0.0671 -0.7102
  215MOL0     C28947   6.022   5.872   5.015  0.4744  0.0259  0.7046
  215MOL0     C28948   6.016   5.941   4.896 -1.0781  0.3189 -0.9306
  215MOL0     O28949   5.987   5.861   4.786 -0.3339 -0.7830 -0.5230
  215MOL0     C28950   6.040   5.879   4.658 -0.7238  0.0366 -0.8535
  215MOL0     C28951   6.128   5.772   4.601 -0.5727  0.7698  1.1936
  215MOL0     C28952   6.257   5.774   4.672 -0.2214  0.6070 -0.7488
  215MOL0     C28953   6.349   5.650   4.633  1.3700 -0.1843 -0.5348
  215MOL0     C28954   6.432   5.614   4.749  1.1172 -0.1838 -0.5293
  215MOL0     C28955   6.492   5.579   4.849 -0.8510 -0.3779 -0.2994
  215MOL0     C28956   6.056   6.077   4.893  0.2601  0.4098  0.4751
  215MOL0     C28957   6.092   6.143   5.012  0.6185  0.2280 -0.1324
  215MOL0     H28958   6.386   6.118   5.418  1.5355 -0.1482  1.3966
  215MOL0     H28959   6.483   6.165   5.645  0.7765  0.6235  0.0978
  215MOL0     H28960   6.455   6.169   6.027  0.3512  0.6345 -0.6015
  215MOL0     H28961   6.501   6.094   5.881 -3.8786 -2.0669  0.0669
  215MOL0     H28962   6.664   6.269   5.913  0.7369  0.7208  1.5129
  215MOL0     H28963   6.534   6.347   5.811 -0.2513  2.5452  0.4154
  215MOL0     H28964   6.558   6.515   5.931  0.6483  1.0575  2.4179
  215MOL0     H28965   6.440   6.426   6.040 -0.7643  2.0778 -0.8039
  215MOL0     H28966   6.582   6.340   6.175 -1.3089  0.1260 -1.8835
  215MOL0     H28967   6.726   6.385   6.083 -1.1182 -0.9799 -0.9886
  215MOL0     H28968   6.667   6.635   6.143  2.6777  0.3672  0.6713
  215MOL0     H28969   6.555   6.560   6.268  1.6915  4.0024  0.9182
  215MOL0     H28970   6.736   6.440   6.382  3.8542  0.0825  0.7056
  215MOL0     H28971   6.841   6.504   6.262 -0.2118 -0.0859  0.0719
  215MOL0     H28972   6.859   6.643   6.481 -0.2600 -1.5607  0.9468
  215MOL0     H28973   6.782   6.742   6.363 -0.4792 -1.4854 -0.8813
  215MOL0     H28974   6.642   6.561   6.560 -0.3231 -1.6913 -2.5127
  215MOL0     H28975   6.562   6.688   6.452  1.0726  2.8257 -0.9664
  215MOL0     H28976   6.565   6.943   6.552  1.0304  0.0312  0.2174
  215MOL0     H28977   6.739   7.158   6.747 -0.3446  1.3328 -1.0442
  215MOL0     H28978   6.561   7.123   6.762 -1.0191 -1.7364  2.7420
  215MOL0     H28979   6.733   7.031   6.976  0.5832  0.3233  0.4627
  215MOL0     H28980   6.559   7.061   6.978 -0.9359  0.1718 -2.1890
  215MOL0     H28981   6.596   7.297   6.940  2.3161  4.6550 -1.0644
  215MOL0     H28982   6.781   7.259   6.968 -0.2573 -0.7364  0.0856
  215MOL0     H28983   6.665   7.371   7.170  1.4424  0.1814 -0.0093
  215MOL0     H28984   6.750   7.215   7.190  0.3876  2.2938  1.0715
  215MOL0     H28985   6.635   7.270   7.421 -2.0120  0.2026  1.2962
  215MOL0     H28986   6.744   7.075   7.683  0.9912  0.5097 -1.1544
  215MOL0     H28987   6.717   7.233   7.638 -0.6061  0.2377  0.8957
  215MOL0     H28988   6.591   7.157   7.738 -0.7405 -0.2282 -1.1677
  215MOL0     H28989   6.294   6.759   7.820  0.2798  0.4968  1.8254
  215MOL0     H28990   6.230   6.568   7.954 -1.1359  2.1931 -2.2894
  215MOL0     H28991   6.313   6.258   8.140 -2.3276 -1.5247 -0.1899
  215MOL0     H28992   6.224   6.381   8.067  2.7974  2.6298  2.3276
  215MOL0     H28993   6.205   6.240   7.864  0.2008  2.7045  1.6547
  215MOL0     H28994   6.286   6.092   7.933 -0.2431 -0.2926  1.2453
  215MOL0     H28995   6.043   6.188   8.079  1.0700 -0.4141  1.0403
  215MOL0     H28996   6.130   6.030   8.080  2.3805  0.9804  0.8338
  215MOL0     H28997   5.940   6.136   7.867 -1.1787 -0.5508  0.8161
  215MOL0     H28998   6.054   6.004   7.832  1.6342 -1.6596  1.7084
  215MOL0     H28999   5.926   5.940   8.079  0.1055 -1.8633  0.7164
  215MOL0     H29000   5.964   5.854   7.932  0.2706 -0.4346  0.7914
  215MOL0     H29001   5.733   6.050   7.957 -1.0624  0.0388  0.1341
  215MOL0     H29002   5.779   5.937   7.818  0.5725  1.0316 -0.6290
  215MOL0     H29003   5.682   5.878   8.108 -1.0147 -0.0518  0.4695
  215MOL0     H29004   5.744   5.755   7.993  2.5241  1.9350  0.1570
  215MOL0     H29005   5.539   5.835   7.852 -0.4925  1.9018  1.3645
  215MOL0     H29006   5.487   5.918   8.007  2.2599  2.0811  1.7345
  215MOL0     H29007   6.553   6.330   7.771  0.2179  0.1041  3.4763
  215MOL0     H29008   6.573   6.530   7.609 -1.3106 -0.7621  0.5571
  215MOL0     H29009   6.392   6.843   7.391 -1.4464  0.8432 -2.1509
  215MOL0     H29010   6.420   6.994   7.200  1.0232 -0.4353 -0.3853
  215MOL0     H29011   6.082   6.183   5.807 -2.3499 -1.3042 -1.5022
  215MOL0     H29012   5.993   6.154   5.584 -0.4490  1.3163  2.7755
  215MOL0     H29013   6.053   5.882   5.226  2.1594  0.2031 -0.4357
  215MOL0     H29014   5.995   5.767   5.016  1.8777 -0.3680  0.6862
  215MOL0     H29015   5.954   5.888   4.590  0.5075 -0.7051 -2.5849
  215MOL0     H29016   6.094   5.974   4.659  1.3908 -0.9625 -3.9922
  215MOL0     H29017   6.138   5.801   4.496 -0.1212  0.5416  1.1690
  215MOL0     H29018   6.082   5.674   4.623 -2.0202  0.9481 -0.7973
  215MOL0     H29019   6.237   5.772   4.779  1.8309 -0.6992 -0.3229
  215MOL0     H29020   6.317   5.863   4.650  2.2226 -0.8546 -0.4403
  215MOL0     H29021   6.419   5.673   4.552  1.5649  2.2118  0.2375
  215MOL0     H29022   6.281   5.567   4.611 -0.3280  0.3962  2.0674
  215MOL0     H29023   6.562   5.551   4.925  0.7213  2.4506 -0.5601
  215MOL0     H29024   6.051   6.128   4.797  0.0735 -0.0269  0.2502
  215MOL0     H29025   6.125   6.246   5.002  0.6012  0.2411 -0.0531
  216MOL0     O29026   1.411   6.296   5.439  0.4992  0.2506 -0.0503
  216MOL0     C29027   1.411   6.197   5.367 -0.0947 -0.0014  0.0220
  216MOL0     O29028   1.409   6.065   5.414 -0.1872 -0.1300  0.2682
  216MOL0     C29029   1.376   6.026   5.544 -0.7489 -0.3769  1.2718
  216MOL0     C29030   1.314   5.898   5.549  0.5601 -0.5570 -0.0996
  216MOL0     C29031   1.282   5.840   5.675  0.4086 -0.3728 -0.3784
  216MOL0     C29032   1.305   5.913   5.795  0.6345  0.6716 -0.5004
  216MOL0     O29033   1.272   5.881   5.923 -0.2562  0.6801 -1.1816
  216MOL0     C29034   1.194   5.762   5.946  0.0786  0.3595 -0.7119
  216MOL0     C29035   1.183   5.741   6.095  0.9788 -0.2298  0.2421
  216MOL0     C29036   1.088   5.629   6.128  0.4601  0.0938 -0.2919
  216MOL0     C29037   1.125   5.582   6.273 -0.3077 -0.2525  0.0855
  216MOL0     C29038   1.022   5.493   6.337  0.0469 -0.3070  0.5148
  216MOL0     C29039   0.883   5.569   6.349 -0.2960 -0.2231 -0.2692
  216MOL0     C29040   0.772   5.484   6.423 -0.3701  0.2776 -0.3677
  216MOL0     C29041   0.698   5.551   6.542 -0.9369  0.8078  0.3756
  216MOL0     N29042   0.641   5.441   6.625 -0.3404 -0.1225  0.2504
  216MOL0     C29043   0.712   5.359   6.718 -0.4859 -0.7506  0.2007
  216MOL0     C29044   0.610   5.286   6.772 -0.6198  0.3154 -0.2758
  216MOL0     C29045   0.624   5.182   6.895 -0.2031  0.7948  0.2459
  216MOL0     C29046   0.665   5.255   7.020 -0.1083 -0.7754 -0.5975
  216MOL0     C29047   0.578   5.372   7.057  0.3276  0.0191 -0.1405
  216MOL0     C29048   0.427   5.341   7.066 -0.0254 -0.1225 -0.6275
  216MOL0     O29049   0.396   5.273   7.186  0.1793 -0.7799  0.7315
  216MOL0     C29050   0.261   5.268   7.208  0.4573  0.1103 -0.3046
  216MOL0     C29051   0.154   5.276   7.117  0.3011 -0.2647  0.4578
  216MOL0     C29052   0.021   5.242   7.150 -0.2545 -0.6348  0.5786
  216MOL0     C29053  -0.075   5.235   7.032  0.4017 -0.4321  0.5611
  216MOL0     C29054  -0.011   5.220   7.283  0.7168  0.4804  0.0192
  216MOL0     C29055  -0.144   5.181   7.335  0.2516 -0.4448 -1.2648
  216MOL0     O29056  -0.138   5.139   7.468 -0.5228 -0.5156 -1.0035
  216MOL0     C29057  -0.241   5.158   7.555  0.4290  0.6608  0.0252
  216MOL0     C29058  -0.212   5.223   7.674 -0.5094  0.6626  0.1356
  216MOL0     C29059  -0.311   5.240   7.769 -0.9022 -0.5866 -1.0421
  216MOL0     C29060  -0.435   5.178   7.758 -0.3350 -0.0388  0.1307
  216MOL0     O29061  -0.532   5.189   7.854  0.8333  0.5911  0.2177
  216MOL0     C29062  -0.526   5.288   7.951 -0.0416  0.1546 -0.1697
  216MOL0     C29063  -0.632   5.285   8.046 -0.3609  0.6440  0.5558
  216MOL0     C29064  -0.638   5.157   8.138 -0.4799 -0.2953 -0.2315
  216MOL0     C29065  -0.745   5.165   8.242  1.1509 -0.6580  0.3218
  216MOL0     C29066  -0.729   5.072   8.362  0.1056 -0.3505  0.6684
  216MOL0     C29067  -0.615   5.067   8.455  0.8887 -1.1430  0.2538
  216MOL0     C29068  -0.610   5.211   8.539  0.8013  0.2929  0.6468
  216MOL0     C29069  -0.671   5.182   8.669 -0.5584  0.0290 -1.1242
  216MOL0    Cl29070  -0.653   5.325   8.788  0.4708  0.2677 -0.3312
  216MOL0     C29071  -0.455   5.109   7.645  0.1172  0.6711 -0.1860
  216MOL0     C29072  -0.362   5.091   7.541  0.0794 -0.0626 -0.5885
  216MOL0     O29073  -0.241   5.171   7.265  0.2086 -0.6370  0.2434
  216MOL0     C29074   0.100   5.227   7.377  0.6567  0.2749  0.6658
  216MOL0     C29075   0.233   5.239   7.341  0.1762  0.1450  0.0787
  216MOL0     N29076   0.496   5.309   6.709  0.2269  0.1902 -0.6834
  216MOL0     N29077   0.512   5.405   6.621  0.3693 -0.3524  0.8730
  216MOL0     C29078   1.354   6.040   5.786 -0.1793  0.3490 -0.4752
  216MOL0     C29079   1.392   6.093   5.666  0.1463 -0.3494  0.3644
  216MOL0     C29080   1.445   6.208   5.228  0.7406  0.4260 -0.9688
  216MOL0     C29081   1.495   6.093   5.161  1.1439 -0.3772  0.0650
  216MOL0     C29082   1.525   6.108   5.023 -0.1290 -0.7313  0.7479
  216MOL0     C29083   1.511   6.232   4.956 -0.7876 -0.2243  0.2078
  216MOL0     O29084   1.542   6.240   4.819 -0.4356  0.3510  0.9716
  216MOL0     C29085   1.519   6.127   4.733 -0.3187 -0.2479 -0.5247
  216MOL0     C29086   1.568   6.183   4.600  0.0313 -0.6503 -0.0221
  216MOL0     C29087   1.721   6.210   4.605 -0.1781  0.3422 -0.0084
  216MOL0     C29088   1.782   6.212   4.466 -1.0231 -0.2486 -0.0610
  216MOL0     C29089   1.926   6.241   4.467 -0.1664 -0.3691  1.1789
  216MOL0     C29090   2.043   6.276   4.470 -0.0238  0.6399 -0.1088
  216MOL0     C29091   1.469   6.334   5.023  0.0441  0.3026  0.0744
  216MOL0     C29092   1.435   6.333   5.156  0.4535  0.5378  0.3269
  216MOL0     H29093   1.307   5.849   5.452  2.2907  1.9046 -1.5738
  216MOL0     H29094   1.240   5.740   5.681  0.1534 -0.2643 -0.3023
  216MOL0     H29095   1.093   5.787   5.911 -0.8282 -1.3146  0.5228
  216MOL0     H29096   1.239   5.667   5.916  1.5709  0.8168 -0.0081
  216MOL0     H29097   1.282   5.722   6.137  0.1170 -0.5266  2.2611
  216MOL0     H29098   1.153   5.841   6.125  2.9508 -0.4693  3.5304
  216MOL0     H29099   0.988   5.672   6.114  0.4645  0.8026  1.5602
  216MOL0     H29100   1.106   5.548   6.056  3.1209  1.1949 -0.9928
  216MOL0     H29101   1.214   5.520   6.261  0.7270  0.9006  1.6403
  216MOL0     H29102   1.159   5.664   6.335  3.1710 -2.2319  1.0572
  216MOL0     H29103   1.017   5.405   6.273  1.9438 -0.7649  0.9273
  216MOL0     H29104   1.073   5.446   6.421  1.2855  0.1552  0.0504
  216MOL0     H29105   0.902   5.665   6.398 -2.1087  0.3674 -0.6421
  216MOL0     H29106   0.834   5.585   6.252 -0.8801  0.0274  0.0609
  216MOL0     H29107   0.696   5.452   6.351 -0.5885  2.8182 -1.3754
  216MOL0     H29108   0.818   5.394   6.464  0.9206  1.1578  0.1909
  216MOL0     H29109   0.619   5.613   6.498 -1.6311 -0.8059 -0.7157
  216MOL0     H29110   0.759   5.617   6.605  0.7596  0.6880 -1.0696
  216MOL0     H29111   0.814   5.365   6.755  0.2585 -0.8367 -1.7002
  216MOL0     H29112   0.524   5.143   6.916  0.3408  0.0816  1.6846
  216MOL0     H29113   0.690   5.098   6.870 -0.9901 -0.8899  3.3768
  216MOL0     H29114   0.767   5.291   7.004 -0.5990  0.3335 -1.3645
  216MOL0     H29115   0.678   5.180   7.099  1.5189 -2.8918 -2.7367
  216MOL0     H29116   0.600   5.453   6.987  0.8665 -0.2448 -0.2808
  216MOL0     H29117   0.611   5.410   7.154  0.9429  0.0991 -0.3730
  216MOL0     H29118   0.392   5.285   6.979 -1.8492 -0.4075  0.2386
  216MOL0     H29119   0.371   5.435   7.069  1.7829  1.0199  3.3241
  216MOL0     H29120   0.168   5.292   7.011  0.9157  1.3229  0.7408
  216MOL0     H29121  -0.141   5.322   7.030 -1.8695 -1.9438 -3.5997
  216MOL0     H29122  -0.030   5.225   6.933 -0.0351 -1.0808  0.4261
  216MOL0     H29123  -0.139   5.148   7.042 -0.6290  0.3310  0.7046
  216MOL0     H29124  -0.122   5.283   7.687 -1.4431  1.7595  2.0236
  216MOL0     H29125  -0.285   5.299   7.856 -2.6260  1.4244 -1.8130
  216MOL0     H29126  -0.432   5.258   8.000  0.9942 -1.2434 -2.8243
  216MOL0     H29127  -0.525   5.386   7.903 -1.5131 -0.7991 -2.2919
  216MOL0     H29128  -0.624   5.374   8.109  0.1416 -0.6472  2.3804
  216MOL0     H29129  -0.727   5.292   7.991 -0.2020  2.2060  0.4233
  216MOL0     H29130  -0.540   5.159   8.188 -0.3709 -2.1340 -0.3014
  216MOL0     H29131  -0.645   5.069   8.074 -0.0091  1.4905 -2.8995
  216MOL0     H29132  -0.747   5.267   8.280 -1.4154 -1.5036  2.8004
  216MOL0     H29133  -0.845   5.143   8.203 -1.2809  2.8092  3.9087
  216MOL0     H29134  -0.738   4.973   8.316  0.7797 -0.7570  1.3993
  216MOL0     H29135  -0.822   5.084   8.419  0.9194  2.4280  1.5283
  216MOL0     H29136  -0.631   4.977   8.515 -1.9470 -1.5142 -0.9052
  216MOL0     H29137  -0.531   5.049   8.387 -0.5585  1.8654 -2.6514
  216MOL0     H29138  -0.671   5.288   8.490 -2.1178 -1.1143  1.7716
  216MOL0     H29139  -0.506   5.243   8.542  0.4787  1.3452  2.2249
  216MOL0     H29140  -0.626   5.093   8.714  0.9040  1.7700  1.0679
  216MOL0     H29141  -0.775   5.162   8.640 -1.7587  0.4102  2.4289
  216MOL0     H29142  -0.553   5.063   7.655  1.2605 -1.6740  1.1321
  216MOL0     H29143  -0.381   5.019   7.462 -0.6346 -0.6042  0.0598
  216MOL0     H29144   0.086   5.215   7.484  1.5060 -2.5171  0.5673
  216MOL0     H29145   0.313   5.230   7.414  0.5822 -1.3560 -0.5307
  216MOL0     H29146   1.361   6.105   5.873  0.1369  1.7417 -1.5132
  216MOL0     H29147   1.450   6.183   5.649  1.0121 -1.2288 -1.6430
  216MOL0     H29148   1.520   6.002   5.216  0.8224  0.4478  1.6358
  216MOL0     H29149   1.576   6.024   4.975  1.7620 -0.7906  2.6993
  216MOL0     H29150   1.583   6.045   4.767 -2.3681 -2.0110 -0.6906
  216MOL0     H29151   1.411   6.112   4.739 -0.8188  2.4853 -1.3901
  216MOL0     H29152   1.511   6.268   4.562 -1.4269 -1.4127  0.3865
  216MOL0     H29153   1.549   6.106   4.524  0.1318 -0.0401 -0.6726
  216MOL0     H29154   1.768   6.128   4.661  0.7988  0.2296 -0.9575
  216MOL0     H29155   1.734   6.306   4.655 -2.1615  1.5863 -1.7256
  216MOL0     H29156   1.727   6.284   4.404  1.9770  0.4320 -2.1577
  216MOL0     H29157   1.783   6.119   4.408  0.1317  1.7979 -3.6132
  216MOL0     H29158   2.144   6.311   4.473 -0.3034  1.5232 -0.8114
  216MOL0     H29159   1.476   6.422   4.961  0.3907  1.9825  2.3567
  216MOL0     H29160   1.404   6.425   5.205  0.4750  1.1744 -0.8223
  217MOL0     O29161   1.523   4.094   4.906 -0.4967  1.1386  0.3069
  217MOL0     C29162   1.561   3.986   4.857  0.0413  0.1159 -0.2748
  217MOL0     O29163   1.502   3.909   4.758 -0.7273 -0.4684 -0.1983
  217MOL0     C29164   1.392   3.954   4.692  0.2082 -0.8238 -0.3098
  217MOL0     C29165   1.275   3.978   4.766 -0.0149  0.0124 -0.4834
  217MOL0     C29166   1.154   4.020   4.707  0.1464  1.4962  0.5086
  217MOL0     C29167   1.144   4.029   4.565  0.7558  0.2143 -0.0215
  217MOL0     O29168   1.019   4.052   4.502  0.3539  0.0535 -0.4774
  217MOL0     C29169   0.916   4.134   4.579 -0.4538 -1.1944 -0.6295
  217MOL0     C29170   0.828   4.167   4.457 -0.0489 -1.0098 -0.4653
  217MOL0     C29171   0.719   4.054   4.425  0.4794  0.5415  0.2007
  217MOL0     C29172   0.602   4.055   4.524 -0.1543 -1.0952  0.8829
  217MOL0     C29173   0.494   3.966   4.468 -0.2649 -0.9347  0.1542
  217MOL0     C29174   0.532   3.826   4.436 -0.9520  0.7900 -0.5093
  217MOL0     C29175   0.407   3.735   4.407  0.5025  0.0151  0.1505
  217MOL0     C29176   0.444   3.631   4.305 -0.3470  0.3498 -0.1220
  217MOL0     N29177   0.338   3.539   4.285  0.9231  0.8758 -0.4796
  217MOL0     C29178   0.355   3.396   4.301  0.5267 -0.0957  0.6149
  217MOL0     C29179   0.237   3.337   4.254 -0.0739  0.5135  0.5277
  217MOL0     C29180   0.208   3.195   4.234 -0.9969  0.4385  0.2513
  217MOL0     C29181   0.088   3.162   4.305  0.5464 -0.2814  0.4935
  217MOL0     C29182   0.048   3.023   4.258  0.5151  0.1561 -0.3198
  217MOL0     C29183  -0.071   2.951   4.340  0.0364  0.0542  0.4834
  217MOL0     O29184  -0.202   3.012   4.334  0.5214 -0.2255  0.5348
  217MOL0     C29185  -0.289   2.979   4.431  0.7088  0.5374 -0.2667
  217MOL0     C29186  -0.281   2.884   4.540 -0.2990 -0.6731  0.4148
  217MOL0     C29187  -0.388   2.846   4.625  0.1118  0.6746 -0.3328
  217MOL0     C29188  -0.379   2.709   4.699 -0.5351  0.1043 -0.2233
  217MOL0     C29189  -0.510   2.914   4.624  0.2162  0.6430  0.4364
  217MOL0     C29190  -0.624   2.884   4.714  0.5135 -1.0643  0.9273
  217MOL0     O29191  -0.595   2.864   4.840  0.0861 -0.2314 -0.0051
  217MOL0     C29192  -0.698   2.856   4.929 -0.0277 -0.3835  0.7205
  217MOL0     C29193  -0.709   2.937   5.041 -0.1693  0.1941 -0.0306
  217MOL0     C29194  -0.820   2.928   5.125 -0.0312 -0.4449 -0.4312
  217MOL0     C29195  -0.923   2.841   5.101  0.2025  0.1624  0.4897
  217MOL0     O29196  -1.024   2.830   5.192 -0.1592 -0.9761  0.0899
  217MOL0     C29197  -1.115   2.952   5.184  0.1797  0.9520  1.1324
  217MOL0     C29198  -1.255   2.920   5.250 -0.1576 -0.1878  0.1368
  217MOL0     C29199  -1.326   3.037   5.313  0.2127  0.7955 -0.0485
  217MOL0     C29200  -1.401   3.137   5.214  0.3470  0.4300  0.3865
  217MOL0     C29201  -1.433   3.272   5.281 -0.2498  0.6499  0.1394
  217MOL0     C29202  -1.302   3.358   5.316  0.3803 -0.4281 -0.7039
  217MOL0     C29203  -1.350   3.489   5.382  0.6308  1.0519  0.2816
  217MOL0     C29204  -1.219   3.549   5.447  0.2076  1.0896  0.2492
  217MOL0    Cl29205  -1.145   3.645   5.320  0.2959  0.2534  0.0327
  217MOL0     C29206  -0.919   2.764   4.989  0.5665  0.7900  0.2677
  217MOL0     C29207  -0.810   2.766   4.911  0.2255 -0.2313 -0.5693
  217MOL0     O29208  -0.739   2.892   4.665 -0.5985 -0.1732 -0.0736
  217MOL0     C29209  -0.516   3.021   4.531  0.4539 -1.0192 -0.4840
  217MOL0     C29210  -0.412   3.050   4.439  1.2464 -0.2872 -1.2662
  217MOL0     N29211   0.160   3.450   4.209  0.1799 -0.6738 -0.6299
  217MOL0     N29212   0.221   3.566   4.232 -0.2007  0.5514 -0.4897
  217MOL0     C29213   1.262   3.998   4.495  0.5213  0.3956 -0.1974
  217MOL0     C29214   1.382   3.969   4.557  0.0565  1.2371 -0.8108
  217MOL0     C29215   1.693   3.934   4.915 -0.8104  0.0577 -0.8649
  217MOL0     C29216   1.754   3.814   4.869  0.4235 -0.2074  0.6266
  217MOL0     C29217   1.880   3.780   4.913  1.1147  0.5972  0.4304
  217MOL0     C29218   1.941   3.852   5.012  0.8271  0.5460 -0.7454
  217MOL0     O29219   2.051   3.796   5.069  1.1346  0.2782 -0.1697
  217MOL0     C29220   2.125   3.857   5.176 -0.5868 -0.1614 -0.5258
  217MOL0     C29221   2.231   3.765   5.229  0.0504 -1.0743 -0.5137
  217MOL0     C29222   2.313   3.856   5.321  0.5266  0.8993  0.6071
  217MOL0     C29223   2.407   3.763   5.388  1.3072  0.0764 -0.0336
  217MOL0     C29224   2.502   3.834   5.476  0.1912  0.1584  0.4441
  217MOL0     C29225   2.580   3.877   5.557  0.2980  0.0274  0.3468
  217MOL0     C29226   1.879   3.967   5.064 -0.2130 -0.5897  0.3228
  217MOL0     C29227   1.758   4.009   5.015  0.7555 -0.2025  0.0345
  217MOL0     H29228   1.280   3.967   4.874  0.2312 -2.3956 -0.6676
  217MOL0     H29229   1.067   4.032   4.770  0.3775 -1.1084  1.4444
  217MOL0     H29230   0.868   4.079   4.660 -1.8543  0.4218 -0.3084
  217MOL0     H29231   0.969   4.224   4.613 -0.3924 -0.8976 -1.4716
  217MOL0     H29232   0.770   4.259   4.469  0.1608 -0.8953 -0.3218
  217MOL0     H29233   0.891   4.177   4.368  2.0054 -1.6186  0.8264
  217MOL0     H29234   0.679   4.046   4.324 -0.8415 -0.6796  0.7958
  217MOL0     H29235   0.771   3.958   4.434 -2.1035 -0.9642  0.0657
  217MOL0     H29236   0.646   4.003   4.610 -1.7948 -2.5759  0.9028
  217MOL0     H29237   0.573   4.153   4.561  0.1486  0.5256 -2.8005
  217MOL0     H29238   0.413   3.981   4.541  1.5304 -0.4503  2.1525
  217MOL0     H29239   0.443   4.000   4.377 -0.5196  0.2416  0.7087
  217MOL0     H29240   0.584   3.824   4.340 -0.4025 -1.9609 -0.2569
  217MOL0     H29241   0.601   3.773   4.502 -2.4978  0.3962  0.8827
  217MOL0     H29242   0.370   3.683   4.496 -0.0487  2.0268  1.1452
  217MOL0     H29243   0.327   3.799   4.367  1.6100  3.7626  3.3403
  217MOL0     H29244   0.542   3.582   4.313  0.5092  1.6250 -2.0225
  217MOL0     H29245   0.446   3.679   4.207 -0.0847  1.7293  0.5265
  217MOL0     H29246   0.439   3.340   4.342  1.9833  3.1264  2.3569
  217MOL0     H29247   0.182   3.180   4.129 -1.4340 -0.3346  0.4630
  217MOL0     H29248   0.293   3.130   4.253 -0.9059  0.5663  0.2836
  217MOL0     H29249   0.007   3.229   4.276  0.0490 -2.0540 -2.6402
  217MOL0     H29250   0.097   3.165   4.414 -3.0568 -0.3870  0.9081
  217MOL0     H29251   0.133   2.954   4.256  0.6758  0.3607 -1.3541
  217MOL0     H29252   0.014   3.028   4.154 -0.1336 -1.6686 -0.2312
  217MOL0     H29253  -0.045   2.932   4.444 -4.1360 -0.2490  1.6795
  217MOL0     H29254  -0.078   2.856   4.287  1.2952  0.0356  0.3320
  217MOL0     H29255  -0.198   2.813   4.535  1.0701  0.9401 -1.6792
  217MOL0     H29256  -0.360   2.728   4.805 -1.1339  3.2172 -0.5766
  217MOL0     H29257  -0.475   2.661   4.676  0.0413 -0.0166 -2.7478
  217MOL0     H29258  -0.305   2.644   4.650 -0.7394 -0.8714  0.7299
  217MOL0     H29259  -0.633   3.008   5.072  0.3796 -1.3585  2.4370
  217MOL0     H29260  -0.822   2.985   5.218  4.4343  0.2435 -0.5577
  217MOL0     H29261  -1.067   3.039   5.229  3.5028  0.6659 -1.4503
  217MOL0     H29262  -1.119   2.993   5.083  0.7691  2.2953  1.6340
  217MOL0     H29263  -1.315   2.894   5.162 -1.6156  2.5111  0.2023
  217MOL0     H29264  -1.250   2.837   5.321  0.9568 -0.4893 -0.2900
  217MOL0     H29265  -1.241   3.091   5.357  0.2463  0.0671  0.8126
  217MOL0     H29266  -1.393   3.001   5.391 -0.5207 -1.9893 -1.8220
  217MOL0     H29267  -1.349   3.164   5.122  0.8049 -0.9114  0.2302
  217MOL0     H29268  -1.490   3.088   5.175  1.5102 -0.5475 -1.1787
  217MOL0     H29269  -1.498   3.256   5.368 -0.1761 -1.8449 -0.2011
  217MOL0     H29270  -1.490   3.336   5.213  1.0370  3.8613  1.8515
  217MOL0     H29271  -1.248   3.304   5.394 -3.2574  2.2936  4.2332
  217MOL0     H29272  -1.233   3.378   5.234 -0.3311 -1.9256 -1.7153
  217MOL0     H29273  -1.420   3.456   5.459  1.2657  2.0079  1.2907
  217MOL0     H29274  -1.400   3.567   5.323 -0.5982  0.2910  0.2881
  217MOL0     H29275  -1.142   3.479   5.480  1.6482  0.3837 -3.9778
  217MOL0     H29276  -1.256   3.618   5.524 -1.4802  2.8521 -1.9993
  217MOL0     H29277  -0.992   2.687   4.968  2.1604 -1.5358  2.4836
  217MOL0     H29278  -0.813   2.703   4.823 -0.5321  0.9942 -1.4671
  217MOL0     H29279  -0.612   3.072   4.526  0.3322 -1.3244 -3.7040
  217MOL0     H29280  -0.447   3.123   4.367  0.2118  0.9432  0.4261
  217MOL0     H29281   1.256   4.002   4.387 -1.3464 -3.2568 -0.4001
  217MOL0     H29282   1.475   3.953   4.503  0.6847  0.4075  0.4652
  217MOL0     H29283   1.715   3.762   4.782  0.9905  1.0334 -0.3948
  217MOL0     H29284   1.920   3.680   4.900 -1.0183 -0.4318  1.2759
  217MOL0     H29285   2.178   3.944   5.136 -0.4633 -1.0783 -2.4862
  217MOL0     H29286   2.063   3.890   5.259 -0.6438  1.9393 -1.3339
  217MOL0     H29287   2.299   3.726   5.152 -0.0465  1.4603 -2.0173
  217MOL0     H29288   2.176   3.689   5.284  1.3874 -1.5514  0.1964
  217MOL0     H29289   2.253   3.900   5.401 -0.6623  0.5142 -0.0570
  217MOL0     H29290   2.364   3.932   5.261  2.8114 -0.1250  1.1530
  217MOL0     H29291   2.469   3.712   5.313  1.5097  2.9543 -1.9627
  217MOL0     H29292   2.345   3.692   5.444 -0.5472 -0.3022 -2.4123
  217MOL0     H29293   2.637   3.915   5.639 -1.9644 -0.0297  2.0375
  217MOL0     H29294   1.924   4.016   5.149 -0.3382 -1.6822  1.0270
  217MOL0     H29295   1.714   4.095   5.064  1.0551  0.0484 -0.1325
  218MOL0     O29296   6.452   6.074   2.537 -0.5184  0.1232 -0.2619
  218MOL0     C29297   6.437   5.970   2.481 -0.0038  0.0129  0.1352
  218MOL0     O29298   6.505   5.939   2.358  0.1506 -0.0223  0.1240
  218MOL0     C29299   6.591   6.030   2.312  0.4555 -0.7498 -0.4298
  218MOL0     C29300   6.703   6.066   2.385 -0.5325 -0.3677  0.3658
  218MOL0     C29301   6.796   6.168   2.327  0.2839 -0.3965  0.3008
  218MOL0     C29302   6.767   6.228   2.201  0.0345 -0.7550  0.7240
  218MOL0     O29303   6.862   6.299   2.132 -0.1235  0.0575 -0.0625
  218MOL0     C29304   6.828   6.409   2.040  0.6160  0.0823  0.0073
  218MOL0     C29305   6.950   6.486   1.992 -0.5588  0.0331 -0.0307
  218MOL0     C29306   6.991   6.444   1.848  0.7907  0.7957 -0.1486
  218MOL0     C29307   6.915   6.532   1.745  0.2864  0.3316 -0.4489
  218MOL0     C29308   6.929   6.476   1.604  0.4618 -0.2850 -0.4120
  218MOL0     C29309   6.810   6.521   1.521  0.2454  0.1660 -0.1655
  218MOL0     C29310   6.825   6.490   1.368 -0.9261  0.4215  0.3320
  218MOL0     C29311   6.726   6.578   1.278 -0.6386  1.0734 -0.1386
  218MOL0     N29312   6.742   6.540   1.136 -0.3196 -0.6325  0.3604
  218MOL0     C29313   6.846   6.495   1.051 -0.4249 -0.8403  0.2117
  218MOL0     C29314   6.788   6.457   0.937 -0.5363 -0.1213  0.0447
  218MOL0     C29315   6.860   6.388   0.820 -0.0748  0.0349  0.5137
  218MOL0     C29316   6.916   6.244   0.852 -1.0809  0.1221 -0.4164
  218MOL0     C29317   6.986   6.160   0.740 -0.8827  0.4372  0.0712
  218MOL0     C29318   7.089   6.051   0.784 -0.5601 -0.6435 -0.0702
  218MOL0     O29319   7.168   6.001   0.674  0.6369  0.2053 -0.9863
  218MOL0     C29320   7.226   5.880   0.704 -0.3437  0.2627 -0.0126
  218MOL0     C29321   7.296   5.855   0.816 -0.2810  0.2101 -0.5085
  218MOL0     C29322   7.365   5.731   0.844 -0.0341  0.9921  0.4910
  218MOL0     C29323   7.434   5.707   0.970  0.0066  0.2751 -0.7197
  218MOL0     C29324   7.368   5.633   0.742  0.3411  0.2510 -0.7430
  218MOL0     C29325   7.442   5.506   0.727  0.0737 -0.4122  0.4147
  218MOL0     O29326   7.550   5.493   0.805 -0.2399 -0.5843  0.1408
  218MOL0     C29327   7.625   5.380   0.808 -0.6648  0.3485 -0.1653
  218MOL0     C29328   7.691   5.341   0.931  0.7230 -0.4145 -0.4901
  218MOL0     C29329   7.778   5.234   0.931 -1.1309  0.3693 -0.5420
  218MOL0     C29330   7.787   5.149   0.819 -0.0076 -0.2857 -0.0391
  218MOL0     O29331   7.886   5.062   0.831 -0.1381  0.4563 -0.0575
  218MOL0     C29332   7.878   4.944   0.749 -0.3877  0.5427 -0.3450
  218MOL0     C29333   7.981   4.835   0.765  0.2044 -0.9393  0.2637
  218MOL0     C29334   8.115   4.862   0.700 -0.3825 -0.2807  0.8610
  218MOL0     C29335   8.123   4.857   0.545  0.8684  0.5321  1.4514
  218MOL0     C29336   8.260   4.847   0.481  0.1532  0.6361  1.3810
  218MOL0     C29337   8.314   4.700   0.469 -0.1962 -0.6947  0.0022
  218MOL0     C29338   8.258   4.606   0.363 -0.3120 -0.4651  0.9522
  218MOL0     C29339   8.324   4.470   0.355  0.0244 -0.3637 -0.9365
  218MOL0    Cl29340   8.290   4.398   0.523  0.6720  0.5048  0.2474
  218MOL0     C29341   7.725   5.185   0.701 -0.9202 -0.6592 -0.0410
  218MOL0     C29342   7.647   5.307   0.695  0.1869 -0.2083  0.3965
  218MOL0     O29343   7.399   5.418   0.658  0.8276 -0.3792 -0.9821
  218MOL0     C29344   7.308   5.673   0.624  0.2095 -0.4195 -1.3208
  218MOL0     C29345   7.228   5.787   0.605 -1.0961  0.7544  1.5602
  218MOL0     N29346   6.654   6.470   0.954  0.3817  0.5851  0.0888
  218MOL0     N29347   6.631   6.526   1.066  0.2524 -0.7738  0.3873
  218MOL0     C29348   6.652   6.183   2.137  0.2169 -0.2817 -0.8481
  218MOL0     C29349   6.571   6.084   2.186  1.0196  0.0161  0.4999
  218MOL0     C29350   6.364   5.866   2.546  0.1277 -0.0047 -0.0414
  218MOL0     C29351   6.265   5.894   2.646  0.9113 -0.7267  1.4791
  218MOL0     C29352   6.214   5.789   2.728  1.7016 -0.5359 -0.7014
  218MOL0     C29353   6.243   5.656   2.697 -0.0849  0.6280 -0.6479
  218MOL0     O29354   6.178   5.565   2.780  0.0558 -0.2990  0.4917
  218MOL0     C29355   6.259   5.480   2.857 -0.5800  0.9469 -0.0910
  218MOL0     C29356   6.183   5.393   2.946  0.3817  0.1563 -0.7706
  218MOL0     C29357   6.286   5.321   3.036 -0.0367 -0.1786 -0.3842
  218MOL0     C29358   6.336   5.197   2.972  0.1616  0.2501  0.3864
  218MOL0     C29359   6.394   5.096   3.064 -0.0446 -0.5577  1.0331
  218MOL0     C29360   6.448   5.019   3.129  0.5799  0.2938  0.1348
  218MOL0     C29361   6.336   5.621   2.597 -0.2283  0.1434  0.6535
  218MOL0     C29362   6.390   5.728   2.522  0.0186  0.4846 -0.4424
  218MOL0     H29363   6.730   6.024   2.482  3.7887  0.0786 -0.4157
  218MOL0     H29364   6.881   6.198   2.386 -0.2150  2.8231 -0.4299
  218MOL0     H29365   6.766   6.370   1.958  0.4286  0.7308 -0.1671
  218MOL0     H29366   6.765   6.472   2.104  1.0465  1.1460 -0.5795
  218MOL0     H29367   6.932   6.593   2.004 -0.8903 -0.3246  4.6564
  218MOL0     H29368   7.032   6.461   2.060 -1.3255 -4.1124 -0.3522
  218MOL0     H29369   7.098   6.455   1.830  1.5244  2.9802  4.0896
  218MOL0     H29370   6.970   6.337   1.836  1.6285  0.6736 -0.5703
  218MOL0     H29371   6.810   6.533   1.776 -0.8700 -0.6127 -3.8256
  218MOL0     H29372   6.948   6.636   1.739 -1.6559  1.0238  0.0524
  218MOL0     H29373   7.023   6.513   1.561  0.7540  1.0610  1.2588
  218MOL0     H29374   6.927   6.367   1.599 -2.7216 -0.5118  2.3125
  218MOL0     H29375   6.712   6.488   1.558 -1.1556  4.0022  0.0924
  218MOL0     H29376   6.802   6.629   1.539 -0.7303 -0.4059  3.5506
  218MOL0     H29377   6.929   6.499   1.335 -0.7417  1.3063  1.1015
  218MOL0     H29378   6.796   6.385   1.361 -0.8832  0.2850  1.9002
  218MOL0     H29379   6.755   6.683   1.288  0.6655  0.5594  2.1732
  218MOL0     H29380   6.619   6.569   1.299 -1.0891  0.7084 -2.3195
  218MOL0     H29381   6.954   6.495   1.067  0.0282  0.0620 -2.3782
  218MOL0     H29382   6.780   6.388   0.745  1.2306  2.0981 -0.9863
  218MOL0     H29383   6.945   6.452   0.794 -0.9868  2.1994  2.5615
  218MOL0     H29384   6.832   6.182   0.884 -0.8016  1.3157  3.0509
  218MOL0     H29385   6.982   6.252   0.939  0.0153  1.2703 -1.3266
  218MOL0     H29386   7.037   6.234   0.677  0.0390  1.1131  1.5551
  218MOL0     H29387   6.903   6.108   0.692 -0.0250 -1.2769  0.3856
  218MOL0     H29388   7.041   5.966   0.833  0.1119  0.1542  2.0703
  218MOL0     H29389   7.147   6.096   0.865  1.5236 -2.1416 -0.6364
  218MOL0     H29390   7.304   5.935   0.890  1.6149  0.8499 -1.3409
  218MOL0     H29391   7.525   5.767   0.967  1.6286 -2.0368 -0.6643
  218MOL0     H29392   7.375   5.744   1.054  0.1706  0.2991 -0.6142
  218MOL0     H29393   7.468   5.604   0.987 -1.0309  0.2987  2.1225
  218MOL0     H29394   7.670   5.410   1.011  0.2481  1.0546 -1.8368
  218MOL0     H29395   7.826   5.211   1.026 -3.9877 -1.1273  0.6725
  218MOL0     H29396   7.778   4.903   0.764 -0.7423  0.7409 -1.9743
  218MOL0     H29397   7.871   4.977   0.645 -2.4204  2.9769  0.4821
  218MOL0     H29398   7.996   4.817   0.871  0.8474 -1.8481  0.0265
  218MOL0     H29399   7.950   4.734   0.735 -0.1783 -1.3796  2.0169
  218MOL0     H29400   8.189   4.789   0.736 -0.5472  0.0595  1.9400
  218MOL0     H29401   8.161   4.960   0.717  3.5644 -1.7197 -0.4678
  218MOL0     H29402   8.051   4.783   0.510  0.7158  1.0473  0.6406
  218MOL0     H29403   8.084   4.951   0.506 -0.7633 -2.0649 -4.1640
  218MOL0     H29404   8.335   4.910   0.531  3.0058 -0.9741 -0.5799
  218MOL0     H29405   8.249   4.891   0.382 -0.3137  1.6599  1.8666
  218MOL0     H29406   8.422   4.703   0.454 -0.1563  3.1171  0.0008
  218MOL0     H29407   8.292   4.654   0.566 -2.1422  2.0459  0.9910
  218MOL0     H29408   8.279   4.659   0.270  0.8879 -0.7635  1.0303
  218MOL0     H29409   8.149   4.600   0.366 -0.3745  0.9087  2.2404
  218MOL0     H29410   8.431   4.493   0.346 -0.5806  2.8209 -1.1439
  218MOL0     H29411   8.277   4.425   0.268 -1.4141 -0.8942  0.0762
  218MOL0     H29412   7.741   5.134   0.607 -0.7964  1.3538 -1.1768
  218MOL0     H29413   7.603   5.346   0.604 -0.6584  1.2019  1.3698
  218MOL0     H29414   7.311   5.599   0.544 -0.7988 -1.9124 -0.0100
  218MOL0     H29415   7.174   5.801   0.511 -1.7711 -0.9851  1.6530
  218MOL0     H29416   6.631   6.221   2.037  2.1157 -0.6523 -1.4335
  218MOL0     H29417   6.486   6.054   2.125  0.8817  0.7880  0.2931
  218MOL0     H29418   6.236   5.993   2.678 -1.4465 -1.3297  1.3779
  218MOL0     H29419   6.143   5.824   2.802  1.1073 -2.4510 -0.3012
  218MOL0     H29420   6.321   5.420   2.790 -2.9724 -2.4604  0.4550
  218MOL0     H29421   6.325   5.540   2.920 -1.3516  0.7534  0.9461
  218MOL0     H29422   6.121   5.325   2.887  1.6022 -1.4390 -0.2718
  218MOL0     H29423   6.114   5.453   3.007  0.1065 -2.1919  1.4121
  218MOL0     H29424   6.221   5.306   3.123 -0.4306 -0.3622 -0.7043
  218MOL0     H29425   6.370   5.387   3.060  1.1040 -1.2955 -1.1824
  218MOL0     H29426   6.399   5.226   2.887  0.0649 -1.1356 -0.1883
  218MOL0     H29427   6.253   5.141   2.929  1.3756 -2.4233  1.3324
  218MOL0     H29428   6.490   4.952   3.201 -1.0116  0.8234  1.6460
  218MOL0     H29429   6.343   5.515   2.579 -1.8924  0.2299 -0.8017
  218MOL0     H29430   6.446   5.687   2.439  1.6152  0.1814  0.7408
  219MOL0     O29431   0.485   8.195  10.036 -0.2230 -0.6759 -0.5322
  219MOL0     C29432   0.552   8.290  10.080 -0.4623 -0.6635  0.2356
  219MOL0     O29433   0.647   8.357  10.008 -0.3439 -0.2470 -0.4610
  219MOL0     C29434   0.631   8.340   9.870  0.2380 -0.2206  0.1107
  219MOL0     C29435   0.519   8.393   9.809 -0.7816  0.2463 -0.1894
  219MOL0     C29436   0.515   8.408   9.671 -0.0097 -0.6091  0.2276
  219MOL0     C29437   0.623   8.379   9.591 -0.6897  0.1356 -0.2137
  219MOL0     O29438   0.599   8.408   9.457  0.0697 -0.0729  0.1277
  219MOL0     C29439   0.687   8.345   9.363 -0.2719 -0.7257 -0.1078
  219MOL0     C29440   0.749   8.462   9.275  0.4252 -0.1065  0.6575
  219MOL0     C29441   0.638   8.550   9.211  0.9549  0.0489 -0.2530
  219MOL0     C29442   0.699   8.662   9.129  0.2542 -0.7618  0.6923
  219MOL0     C29443   0.588   8.772   9.086  1.1803  0.0004 -0.4592
  219MOL0     C29444   0.478   8.732   8.983  0.9264 -0.7596  0.4364
  219MOL0     C29445   0.397   8.857   8.935  0.4966  0.0152  0.7890
  219MOL0     C29446   0.267   8.815   8.871 -0.0081 -0.0475  0.3146
  219MOL0     N29447   0.186   8.931   8.821  1.1967 -0.3988 -0.3871
  219MOL0     C29448   0.231   9.060   8.807 -0.1026 -0.3408 -0.1620
  219MOL0     C29449   0.121   9.130   8.763  0.4604  0.3386  1.0390
  219MOL0     C29450   0.117   9.276   8.748 -0.4560  0.4991  0.4198
  219MOL0     C29451   0.059   9.329   8.877 -0.5449  0.9311 -0.2585
  219MOL0     C29452   0.146   9.290   8.993 -0.5362  0.1693  0.4048
  219MOL0     C29453   0.124   9.376   9.118 -0.6978  0.2348  0.3129
  219MOL0     O29454   0.209   9.322   9.216 -0.3815 -0.0401 -0.1457
  219MOL0     C29455   0.143   9.309   9.335  0.3141 -0.7809 -0.2552
  219MOL0     C29456   0.102   9.411   9.415 -0.8290  0.4095 -0.7353
  219MOL0     C29457   0.038   9.366   9.531  0.0274 -0.9740  0.1061
  219MOL0     C29458   0.022   9.469   9.639 -0.8230  1.3012 -0.6554
  219MOL0     C29459   0.020   9.230   9.563  0.2480 -1.1466  0.0921
  219MOL0     C29460  -0.039   9.190   9.698 -0.6839  0.3872  0.2819
  219MOL0     O29461   0.010   9.072   9.749 -0.0409  0.1249  0.6294
  219MOL0     C29462  -0.021   9.038   9.870 -0.6217  0.6948  0.0936
  219MOL0     C29463   0.074   9.058   9.970  0.8505 -0.5123  0.3511
  219MOL0     C29464   0.037   9.023  10.100  0.2067 -0.4656  0.2085
  219MOL0     C29465  -0.085   8.967  10.130 -1.3334 -0.7840 -1.3206
  219MOL0     O29466  -0.102   8.923  10.265 -0.5818  0.1208  1.2219
  219MOL0     C29467  -0.234   8.908  10.316 -0.3012 -0.4334 -0.8232
  219MOL0     C29468  -0.208   8.907  10.474  0.5645 -0.4241 -0.3496
  219MOL0     C29469  -0.344   8.904  10.550 -0.2318 -0.4320 -0.7236
  219MOL0     C29470  -0.334   8.803  10.661 -0.1142  0.3527  0.3160
  219MOL0     C29471  -0.476   8.781  10.723  0.4034 -0.0110 -0.6163
  219MOL0     C29472  -0.452   8.699  10.857 -0.8254 -0.2423 -0.0929
  219MOL0     C29473  -0.578   8.647  10.926  0.2011  0.7007 -0.6383
  219MOL0     C29474  -0.548   8.601  11.070 -0.1624 -0.9031 -0.1848
  219MOL0    Cl29475  -0.695   8.548  11.149 -0.4649  0.1390  0.2436
  219MOL0     C29476  -0.179   8.949  10.030 -0.3111 -0.7212 -0.8496
  219MOL0     C29477  -0.150   8.977   9.896  1.0786  0.1023 -0.7362
  219MOL0     O29478  -0.128   9.253   9.756 -0.2389  0.2942 -0.3215
  219MOL0     C29479   0.060   9.128   9.482  0.7338  0.0424 -0.0735
  219MOL0     C29480   0.122   9.173   9.365  1.4670  0.1246 -0.1739
  219MOL0     N29481   0.016   9.043   8.733  0.3857  0.6009 -0.0769
  219MOL0     N29482   0.064   8.922   8.770  0.4305 -0.5302  0.2017
  219MOL0     C29483   0.739   8.321   9.648  0.3393 -0.2077 -0.6781
  219MOL0     C29484   0.741   8.313   9.786  0.2311  0.5038  0.5102
  219MOL0     C29485   0.556   8.302  10.225  0.0940 -0.3436 -0.4240
  219MOL0     C29486   0.658   8.372  10.291  0.3599 -0.9839 -0.3372
  219MOL0     C29487   0.654   8.384  10.436  0.2379  0.5680  0.4753
  219MOL0     C29488   0.555   8.329  10.515  1.2258 -0.9163 -0.3756
  219MOL0     O29489   0.556   8.344  10.650 -0.6170 -0.2555  0.6275
  219MOL0     C29490   0.481   8.270  10.742  1.3484  0.8717 -0.8190
  219MOL0     C29491   0.339   8.315  10.745 -0.5414  0.0177  0.1198
  219MOL0     C29492   0.295   8.371  10.874  0.7149  0.8856 -0.1056
  219MOL0     C29493   0.283   8.275  11.000 -0.9536 -0.0939 -0.7143
  219MOL0     C29494   0.256   8.338  11.133  0.6199 -0.7067 -0.4637
  219MOL0     C29495   0.241   8.399  11.242  0.5870 -0.1307  1.3688
  219MOL0     C29496   0.444   8.275  10.440  0.8241 -0.3057 -0.8054
  219MOL0     C29497   0.444   8.256  10.307  0.4255 -0.2847 -0.6329
  219MOL0     H29498   0.445   8.437   9.875  2.5036  1.9424  2.6733
  219MOL0     H29499   0.416   8.439   9.638 -0.1165  0.5932  1.5744
  219MOL0     H29500   0.775   8.310   9.418 -1.7178 -0.5733  2.4690
  219MOL0     H29501   0.625   8.268   9.315 -1.7833 -2.1614  3.6947
  219MOL0     H29502   0.805   8.532   9.337 -0.1750  1.6694 -0.7106
  219MOL0     H29503   0.811   8.415   9.198  0.8305 -1.2288  1.6326
  219MOL0     H29504   0.583   8.480   9.147  1.6472 -1.5666  0.8570
  219MOL0     H29505   0.569   8.593   9.285  2.0972 -1.8417  2.0314
  219MOL0     H29506   0.764   8.715   9.199  0.1572 -0.9568  0.9357
  219MOL0     H29507   0.761   8.623   9.048 -0.7999  0.4267 -0.7391
  219MOL0     H29508   0.542   8.824   9.170  0.0782  2.5560 -2.4935
  219MOL0     H29509   0.644   8.851   9.034  1.3171  0.9600  1.1086
  219MOL0     H29510   0.507   8.660   8.906  0.6955 -2.1815  1.6428
  219MOL0     H29511   0.415   8.669   9.046  3.5043 -3.9790  0.0783
  219MOL0     H29512   0.366   8.920   9.020 -2.4319 -1.1618  0.7044
  219MOL0     H29513   0.454   8.922   8.869 -0.5531 -1.0131 -1.2080
  219MOL0     H29514   0.211   8.765   8.950 -0.0997  1.5464  1.2969
  219MOL0     H29515   0.286   8.750   8.784  2.0830  1.2955 -0.3034
  219MOL0     H29516   0.330   9.102   8.821 -0.0150 -1.0457  1.5727
  219MOL0     H29517   0.215   9.323   8.742 -0.5853  0.9342  1.4204
  219MOL0     H29518   0.066   9.312   8.658  0.2586  0.3015 -0.0750
  219MOL0     H29519  -0.042   9.289   8.893 -0.7841  1.5390 -0.2369
  219MOL0     H29520   0.046   9.437   8.879 -2.7658  0.7014  1.1421
  219MOL0     H29521   0.247   9.289   8.951  1.1066 -0.5320  3.9803
  219MOL0     H29522   0.108   9.192   9.024 -0.4403 -0.0320 -0.1149
  219MOL0     H29523   0.015   9.377   9.129 -0.8249  0.8027 -0.9265
  219MOL0     H29524   0.156   9.479   9.105 -2.2118  0.6136 -0.5397
  219MOL0     H29525   0.126   9.514   9.388  2.8189 -0.5745 -1.8343
  219MOL0     H29526   0.086   9.452   9.726 -2.1288  0.4718  0.1756
  219MOL0     H29527   0.058   9.566   9.601  1.4509  0.5863 -0.4680
  219MOL0     H29528  -0.085   9.472   9.664 -1.2640 -0.6949 -2.0171
  219MOL0     H29529   0.170   9.102   9.945  0.6965  0.5369  1.4968
  219MOL0     H29530   0.108   9.042  10.180 -0.7270 -1.0606  1.2042
  219MOL0     H29531  -0.314   8.982  10.304 -2.0354 -1.9173  0.9314
  219MOL0     H29532  -0.262   8.807  10.283  1.6008 -2.8919  4.1504
  219MOL0     H29533  -0.138   8.835  10.518  0.1611  0.0626  1.1517
  219MOL0     H29534  -0.164   9.006  10.486 -0.1390 -0.1838  0.3363
  219MOL0     H29535  -0.432   8.872  10.493 -0.9024 -1.7653  0.9648
  219MOL0     H29536  -0.375   8.999  10.594 -2.7808 -2.2315  1.7460
  219MOL0     H29537  -0.290   8.708  10.629 -1.3356 -0.1957  0.1785
  219MOL0     H29538  -0.269   8.844  10.738  0.9306  0.4493 -0.5899
  219MOL0     H29539  -0.541   8.724  10.655 -2.2107  0.9940  0.9021
  219MOL0     H29540  -0.526   8.875  10.745 -1.4756 -0.9525 -0.6100
  219MOL0     H29541  -0.386   8.621  10.818  0.2597 -0.2910  1.7739
  219MOL0     H29542  -0.386   8.768  10.909 -0.1293  0.1021 -1.3864
  219MOL0     H29543  -0.630   8.575  10.862  0.7936  0.8971 -1.3493
  219MOL0     H29544  -0.645   8.733  10.934 -1.4490 -0.4891 -1.1080
  219MOL0     H29545  -0.515   8.687  11.129 -1.7415 -1.0276  0.9558
  219MOL0     H29546  -0.481   8.515  11.074  0.1597 -0.6231  0.8128
  219MOL0     H29547  -0.271   8.909  10.072  0.4048  0.3674  1.9788
  219MOL0     H29548  -0.231   8.965   9.826 -1.2835 -0.8786  1.9664
  219MOL0     H29549   0.049   9.023   9.507  0.4422  0.6684  2.6793
  219MOL0     H29550   0.153   9.092   9.299  2.8738  1.4367 -1.1975
  219MOL0     H29551   0.831   8.296   9.597 -0.5721 -1.7205 -1.6603
  219MOL0     H29552   0.839   8.298   9.830  1.6723  5.3048 -0.4300
  219MOL0     H29553   0.745   8.414  10.242 -0.6136  1.8526  0.1724
  219MOL0     H29554   0.734   8.424  10.497 -0.3832  1.7478  0.5536
  219MOL0     H29555   0.493   8.163  10.719  1.9915  0.6234  0.5667
  219MOL0     H29556   0.519   8.284  10.844 -2.4491 -0.5229  0.9809
  219MOL0     H29557   0.271   8.236  10.712 -1.7499  0.6698  0.9858
  219MOL0     H29558   0.328   8.406  10.684 -6.2960  1.1246  2.2109
  219MOL0     H29559   0.196   8.416  10.866 -0.0895 -0.9348 -1.0428
  219MOL0     H29560   0.370   8.439  10.916 -0.1647  0.8426  1.6304
  219MOL0     H29561   0.378   8.222  11.007 -0.5329  0.4958 -1.6938
  219MOL0     H29562   0.201   8.207  10.976 -1.2973 -0.3043  0.9437
  219MOL0     H29563   0.229   8.445  11.338  0.7362 -1.4654  2.0528
  219MOL0     H29564   0.367   8.228  10.500  0.1730  1.6680 -0.0166
  219MOL0     H29565   0.361   8.201  10.264 -0.4976  0.9813 -0.5330
  220MOL0     O29566   3.919  10.961  10.001  0.0966  0.5456  0.1278
  220MOL0     C29567   3.997  11.024   9.929  0.8090 -0.3579 -0.8851
  220MOL0     O29568   4.095  10.967   9.861 -0.4532  0.1891 -0.5015
  220MOL0     C29569   4.087  10.831   9.831 -0.0305  0.4689 -0.9383
  220MOL0     C29570   4.092  10.812   9.690  0.1772  0.2423 -0.0708
  220MOL0     C29571   4.081  10.681   9.641 -1.0965  0.0138 -0.0932
  220MOL0     C29572   4.050  10.569   9.728 -0.1088  0.2264 -0.3845
  220MOL0     O29573   4.016  10.447   9.670 -0.3051 -0.6634 -0.9768
  220MOL0     C29574   4.042  10.326   9.750 -0.1185  0.3599 -0.6456
  220MOL0     C29575   3.952  10.219   9.702  0.5753 -0.4467 -0.1420
  220MOL0     C29576   3.926  10.109   9.808 -0.7831  0.7742  0.2083
  220MOL0     C29577   3.825  10.146   9.917  0.6553  1.6778 -0.0091
  220MOL0     C29578   3.790  10.022  10.013  0.4806 -0.3536 -0.0613
  220MOL0     C29579   3.657  10.057  10.093 -0.4378  0.7486 -0.4783
  220MOL0     C29580   3.627   9.953  10.205 -0.0525 -0.8114 -0.1131
  220MOL0     C29581   3.502   9.993  10.284  0.4045  0.3151 -0.3976
  220MOL0     N29582   3.508  10.122  10.354 -0.2493  0.8169 -0.3893
  220MOL0     C29583   3.603  10.164  10.437  0.1005 -0.3658  0.3067
  220MOL0     C29584   3.546  10.272  10.498 -1.0811  0.4885 -0.2697
  220MOL0     C29585   3.625  10.359  10.599 -0.1668  0.9283 -0.2139
  220MOL0     C29586   3.770  10.409  10.555  0.1542  0.1687 -0.6721
  220MOL0     C29587   3.778  10.447  10.409  0.6640 -0.0567 -0.1770
  220MOL0     C29588   3.679  10.566  10.386  0.7481  0.5477 -0.0044
  220MOL0     O29589   3.700  10.625  10.265  0.1849 -0.3322  0.1979
  220MOL0     C29590   3.638  10.575  10.151  0.0523  0.0770 -0.3975
  220MOL0     C29591   3.681  10.641  10.034 -0.5039  0.1675 -0.9244
  220MOL0     C29592   3.654  10.596   9.909 -0.3583 -0.3452 -0.5960
  220MOL0     C29593   3.712  10.668   9.790 -0.7389  0.7865 -0.1766
  220MOL0     C29594   3.557  10.496   9.895  0.1109  0.0730 -0.4764
  220MOL0     C29595   3.525  10.444   9.766  1.1577  0.1459  0.2541
  220MOL0     O29596   3.492  10.547   9.669  0.3591 -0.0659  0.4443
  220MOL0     C29597   3.466  10.540   9.533 -0.7201  0.2578  0.0299
  220MOL0     C29598   3.463  10.418   9.474 -0.2369 -0.3714 -0.2308
  220MOL0     C29599   3.461  10.414   9.337  0.0761  0.0298  0.1543
  220MOL0     C29600   3.427  10.526   9.266  0.1612 -0.5889 -0.3217
  220MOL0     O29601   3.391  10.519   9.138  0.0472  0.4658 -0.2327
  220MOL0     C29602   3.435  10.411   9.052 -0.4380 -0.4996  1.2865
  220MOL0     C29603   3.370  10.434   8.917  0.3658  0.3811  0.6886
  220MOL0     C29604   3.246  10.355   8.904  0.8131 -0.1247  0.5320
  220MOL0     C29605   3.183  10.382   8.772  0.0923 -0.3849  0.1347
  220MOL0     C29606   3.128  10.523   8.753  0.4390 -0.2617  0.2228
  220MOL0     C29607   3.026  10.526   8.627 -0.2903 -0.0190 -0.0150
  220MOL0     C29608   2.968  10.668   8.582  0.1369  0.0222 -0.3873
  220MOL0     C29609   3.045  10.731   8.468  0.1239  0.0433 -0.5405
  220MOL0    Cl29610   3.215  10.767   8.522  0.6090 -0.1930 -0.0876
  220MOL0     C29611   3.416  10.649   9.325 -0.3793  0.6343  0.2524
  220MOL0     C29612   3.438  10.653   9.463 -0.3058 -0.0702 -0.1000
  220MOL0     O29613   3.517  10.316   9.743 -0.2235 -0.6330 -0.2201
  220MOL0     C29614   3.500  10.444  10.011 -0.4267 -0.4776 -0.2779
  220MOL0     C29615   3.544  10.472  10.136 -0.4195 -0.2002  1.1094
  220MOL0     N29616   3.423  10.290  10.442 -0.4518 -0.1138 -0.4973
  220MOL0     N29617   3.405  10.208  10.347  0.0586 -0.2406 -0.2233
  220MOL0     C29618   4.055  10.600   9.865  0.6754  0.1314  0.1391
  220MOL0     C29619   4.073  10.727   9.921 -0.0531 -0.0673  0.2297
  220MOL0     C29620   3.961  11.167   9.901 -0.3482  0.9110 -1.2916
  220MOL0     C29621   3.836  11.212   9.869 -0.0981 -0.2523 -0.1289
  220MOL0     C29622   3.811  11.350   9.852 -0.4202  0.1548 -0.4768
  220MOL0     C29623   3.918  11.439   9.837  0.0873 -0.4648 -0.3029
  220MOL0     O29624   3.877  11.564   9.789 -0.8319  0.1124 -0.1878
  220MOL0     C29625   3.969  11.661   9.744 -0.5824 -0.0913 -0.0207
  220MOL0     C29626   3.888  11.754   9.646 -0.3590 -0.6744  0.4689
  220MOL0     C29627   3.829  11.683   9.526 -0.2507  0.0068 -0.4954
  220MOL0     C29628   3.924  11.650   9.413 -0.2071  0.0972 -0.0302
  220MOL0     C29629   3.993  11.766   9.357  0.1703 -0.3880 -0.1267
  220MOL0     C29630   4.054  11.865   9.315 -0.8153 -0.3581  0.2408
  220MOL0     C29631   4.047  11.401   9.867 -0.2984 -0.7389 -0.2877
  220MOL0     C29632   4.067  11.268   9.900  0.5292  0.1083  0.3258
  220MOL0     H29633   4.096  10.891   9.615 -2.0713 -0.0326 -0.5594
  220MOL0     H29634   4.077  10.666   9.534  2.2523  0.3035 -0.3633
  220MOL0     H29635   4.143  10.287   9.734 -0.4274 -0.3086 -1.0124
  220MOL0     H29636   4.021  10.343   9.856  1.5631 -1.5716  0.0589
  220MOL0     H29637   3.851  10.257   9.681  0.1185 -1.8683 -0.6646
  220MOL0     H29638   3.994  10.176   9.611  1.1705 -0.5895  0.2026
  220MOL0     H29639   3.891  10.018   9.757 -1.3334  0.3254  1.3632
  220MOL0     H29640   4.022  10.071   9.844 -0.9667 -1.2057 -1.2087
  220MOL0     H29641   3.858  10.234   9.972 -0.6068  1.3443  1.3300
  220MOL0     H29642   3.729  10.170   9.871 -1.8390 -1.1766  3.2278
  220MOL0     H29643   3.784   9.931   9.953  0.7938  0.0483 -0.7207
  220MOL0     H29644   3.872  10.000  10.082  1.4447 -0.4324 -1.1972
  220MOL0     H29645   3.673  10.149  10.151 -0.6624  0.2024  0.4769
  220MOL0     H29646   3.570  10.075  10.029 -1.3294  0.8734  0.7224
  220MOL0     H29647   3.591   9.866  10.148  1.0316  0.5084 -2.9961
  220MOL0     H29648   3.719   9.927  10.257  0.7112  1.7317 -0.0575
  220MOL0     H29649   3.474   9.913  10.353 -1.3488  1.2571  0.0299
  220MOL0     H29650   3.416   9.991  10.217  0.0591 -0.2562  0.0522
  220MOL0     H29651   3.703  10.122  10.444  0.3656  0.1548 -0.2277
  220MOL0     H29652   3.558  10.442  10.618  1.2391  1.7397  1.4522
  220MOL0     H29653   3.645  10.309  10.694  2.6803  0.9743 -0.6824
  220MOL0     H29654   3.837  10.323  10.557  0.8193  0.6221 -2.2363
  220MOL0     H29655   3.809  10.484  10.624 -0.8630  0.1545 -0.0455
  220MOL0     H29656   3.752  10.369  10.337  0.2730  1.1771 -1.4096
  220MOL0     H29657   3.873  10.494  10.381 -0.6213  3.8183  1.1954
  220MOL0     H29658   3.690  10.643  10.462 -0.5540 -1.2367  2.1211
  220MOL0     H29659   3.577  10.527  10.381  0.7063  0.6106  0.3376
  220MOL0     H29660   3.745  10.727  10.052  0.5012 -0.7770  0.1682
  220MOL0     H29661   3.759  10.600   9.718 -0.8123  2.3203 -1.7635
  220MOL0     H29662   3.624  10.718   9.749 -1.5077 -0.4674 -0.0922
  220MOL0     H29663   3.796  10.732   9.819  0.9250 -0.7561 -1.3378
  220MOL0     H29664   3.486  10.324   9.524  2.1218  1.3973  2.2998
  220MOL0     H29665   3.458  10.318   9.286 -1.6735 -0.4034  0.9982
  220MOL0     H29666   3.543  10.430   9.051 -0.8287  2.2295 -0.0345
  220MOL0     H29667   3.411  10.312   9.092 -1.7374  0.1562  2.1753
  220MOL0     H29668   3.354  10.542   8.908  2.6781  0.9714  2.6313
  220MOL0     H29669   3.444  10.397   8.845 -1.0832 -3.0257  0.7655
  220MOL0     H29670   3.175  10.380   8.984  0.5920  2.7329 -0.4595
  220MOL0     H29671   3.271  10.249   8.900 -1.4514 -0.7259  0.7114
  220MOL0     H29672   3.256  10.365   8.692 -1.3245 -2.7377 -0.7745
  220MOL0     H29673   3.109  10.311   8.733  0.5592  1.3176 -4.4559
  220MOL0     H29674   3.206  10.596   8.726 -1.2780  2.6293  2.4999
  220MOL0     H29675   3.088  10.551   8.851  0.4427  0.4737  0.0189
  220MOL0     H29676   3.074  10.483   8.539  2.4797  2.2258  0.2596
  220MOL0     H29677   2.945  10.460   8.659  1.8373 -0.5263  5.3319
  220MOL0     H29678   2.980  10.736   8.666  5.7489  1.2379 -1.7410
  220MOL0     H29679   2.864  10.661   8.549 -0.0989 -1.6006  0.5857
  220MOL0     H29680   2.988  10.821   8.443 -1.2800 -1.5733 -3.6834
  220MOL0     H29681   3.052  10.670   8.378 -0.3954  1.1145 -1.3295
  220MOL0     H29682   3.389  10.741   9.274 -0.6549 -0.7701 -2.2812
  220MOL0     H29683   3.421  10.743   9.522 -1.0627  1.9656 -3.2040
  220MOL0     H29684   3.430  10.364   9.990 -2.8205  0.8833  1.9701
  220MOL0     H29685   3.496  10.413  10.214 -3.2758 -2.0512 -1.8126
  220MOL0     H29686   4.018  10.526   9.936 -1.4093 -0.0320 -1.0377
  220MOL0     H29687   4.063  10.730  10.029 -0.2446 -2.3804  0.3290
  220MOL0     H29688   3.747  11.151   9.862  0.7045 -1.3613 -0.9755
  220MOL0     H29689   3.710  11.389   9.846 -0.8456 -0.8679 -0.1729
  220MOL0     H29690   4.008  11.722   9.826  1.3229 -0.3257 -0.6986
  220MOL0     H29691   4.051  11.610   9.691 -0.9919 -0.1916 -0.5677
  220MOL0     H29692   3.965  11.824   9.613 -1.8276  1.6261  1.6961
  220MOL0     H29693   3.813  11.810   9.703  2.1241  3.2848  0.1716
  220MOL0     H29694   3.744  11.744   9.495  0.4064  0.6925 -0.9788
  220MOL0     H29695   3.789  11.584   9.551 -0.9402  0.9822  2.7352
  220MOL0     H29696   3.850  11.609   9.343 -0.1750 -0.1719  0.0921
  220MOL0     H29697   3.994  11.577   9.454  0.6489  1.3108  0.7301
  220MOL0     H29698   4.108  11.952   9.283  1.3616 -2.2693 -1.6812
  220MOL0     H29699   4.123  11.478   9.879 -0.3279 -1.0699  2.6462
  220MOL0     H29700   4.170  11.235   9.910  0.4293 -0.1745  0.4280
  221MOL0     O29701   2.129   1.341   8.284 -0.7202 -0.5490  0.3201
  221MOL0     C29702   2.177   1.382   8.176  0.7143  0.1404  0.6732
  221MOL0     O29703   2.101   1.396   8.061 -0.8765 -0.5792  0.3636
  221MOL0     C29704   1.959   1.406   8.053 -0.0249  0.3950  0.3816
  221MOL0     C29705   1.897   1.478   8.154  0.1490  1.0891  0.3155
  221MOL0     C29706   1.756   1.495   8.154 -0.3966 -0.3495  0.5283
  221MOL0     C29707   1.681   1.433   8.057  0.1896 -0.3865 -0.3416
  221MOL0     O29708   1.544   1.436   8.057  0.8533  0.3836  0.0483
  221MOL0     C29709   1.483   1.525   8.151 -0.1607  0.1523 -0.3461
  221MOL0     C29710   1.334   1.555   8.106  0.1146  0.2420  0.5560
  221MOL0     C29711   1.315   1.704   8.076  0.3042  0.0594  0.5942
  221MOL0     C29712   1.329   1.804   8.203 -0.7805 -0.4440  0.3192
  221MOL0     C29713   1.310   1.939   8.142 -0.0295 -0.6149 -0.1374
  221MOL0     C29714   1.355   2.046   8.243 -0.4034  0.1944  0.0762
  221MOL0     C29715   1.320   2.189   8.216  0.1254 -0.5536 -0.6604
  221MOL0     C29716   1.386   2.309   8.296 -0.0224 -0.2082 -0.0058
  221MOL0     N29717   1.481   2.383   8.213 -0.3190  0.1392  0.3377
  221MOL0     C29718   1.579   2.338   8.126  0.5093 -0.9537  0.7671
  221MOL0     C29719   1.631   2.450   8.081 -0.1174 -0.3562 -0.0322
  221MOL0     C29720   1.737   2.444   7.973 -1.1009 -0.2614  0.0081
  221MOL0     C29721   1.880   2.468   8.024 -0.2122 -0.1332  0.5474
  221MOL0     C29722   1.918   2.616   8.033  0.3926  0.9314  0.6717
  221MOL0     C29723   2.073   2.641   8.039  0.3219 -0.7529  0.0733
  221MOL0     O29724   2.143   2.560   7.948 -0.2673  0.4356 -0.2663
  221MOL0     C29725   2.275   2.571   7.910 -0.2008 -0.5874 -0.6978
  221MOL0     C29726   2.357   2.675   7.951  0.2738 -0.0830 -0.1910
  221MOL0     C29727   2.495   2.693   7.908 -0.0586  0.4059 -0.7316
  221MOL0     C29728   2.581   2.818   7.957  0.7188 -0.1137 -0.2488
  221MOL0     C29729   2.540   2.602   7.808 -0.9427  0.5204 -0.5344
  221MOL0     C29730   2.681   2.585   7.771 -0.0542 -0.8296 -0.2098
  221MOL0     O29731   2.771   2.618   7.869  0.2412 -0.1300 -0.0478
  221MOL0     C29732   2.902   2.604   7.837 -0.6667 -0.6362  0.8031
  221MOL0     C29733   2.974   2.485   7.852  0.3662  0.2168  0.0515
  221MOL0     C29734   3.109   2.467   7.817 -0.2771  0.4842 -0.3804
  221MOL0     C29735   3.165   2.564   7.746  0.1847  0.2739 -0.2232
  221MOL0     O29736   3.295   2.539   7.693 -0.1949  0.7430 -0.2938
  221MOL0     C29737   3.393   2.648   7.685  0.1742 -0.2910 -0.4624
  221MOL0     C29738   3.526   2.606   7.623 -0.0699  0.8414 -0.2221
  221MOL0     C29739   3.501   2.577   7.477  0.2339 -0.4053  0.7696
  221MOL0     C29740   3.623   2.579   7.390 -1.0233 -0.0103  0.1590
  221MOL0     C29741   3.669   2.723   7.360  0.0842  0.5354 -0.3149
  221MOL0     C29742   3.572   2.809   7.281 -0.5814  0.4650  0.0821
  221MOL0     C29743   3.647   2.935   7.237  0.5628  0.1684  0.1661
  221MOL0     C29744   3.591   3.013   7.120  0.3654  0.1149  0.4680
  221MOL0    Cl29745   3.426   3.061   7.163 -0.2969 -0.5826 -0.1304
  221MOL0     C29746   3.102   2.688   7.722 -0.4247  1.4494  0.3697
  221MOL0     C29747   2.969   2.710   7.775 -0.8181 -0.7357  0.9794
  221MOL0     O29748   2.705   2.542   7.661  0.1845 -0.2200 -0.5696
  221MOL0     C29749   2.453   2.499   7.761 -0.0688 -0.0275  0.6712
  221MOL0     C29750   2.320   2.490   7.807 -0.4953 -0.3121  0.1009
  221MOL0     N29751   1.576   2.559   8.136  0.0761  0.2297 -0.2478
  221MOL0     N29752   1.487   2.521   8.216 -0.2035 -0.2180  0.2723
  221MOL0     C29753   1.745   1.359   7.964  0.8019 -0.1664 -0.2597
  221MOL0     C29754   1.882   1.352   7.955 -1.2016  0.0233 -0.3948
  221MOL0     C29755   2.331   1.389   8.166  0.3729  0.0481 -0.2789
  221MOL0     C29756   2.408   1.402   8.282 -0.6370  0.3426  0.0151
  221MOL0     C29757   2.548   1.390   8.270 -0.1940 -0.5023 -0.9454
  221MOL0     C29758   2.617   1.341   8.156 -0.7951 -0.1455  0.5961
  221MOL0     O29759   2.750   1.317   8.144  0.6032 -0.8574 -0.4173
  221MOL0     C29760   2.839   1.416   8.188 -0.2531  0.0282 -0.6264
  221MOL0     C29761   2.984   1.360   8.177 -0.0113  0.8886  0.5116
  221MOL0     C29762   3.089   1.462   8.210 -0.2679 -0.2179  0.1616
  221MOL0     C29763   3.233   1.414   8.201 -0.0577 -0.6360  0.5561
  221MOL0     C29764   3.259   1.341   8.070 -0.2992 -0.3881 -1.3017
  221MOL0     C29765   3.284   1.284   7.967  0.4568 -0.5840 -0.0814
  221MOL0     C29766   2.542   1.329   8.035 -0.2975 -0.4551 -0.3926
  221MOL0     C29767   2.402   1.356   8.050  0.9073  1.1325  0.1958
  221MOL0     H29768   1.959   1.523   8.231 -0.6566  0.6625  1.2339
  221MOL0     H29769   1.716   1.553   8.236 -0.1336 -3.5541  3.1277
  221MOL0     H29770   1.480   1.474   8.248 -2.9541 -0.2846 -0.5970
  221MOL0     H29771   1.534   1.621   8.162 -1.9246  1.0934 -0.0184
  221MOL0     H29772   1.339   1.489   8.019  0.4722  3.3149 -1.9791
  221MOL0     H29773   1.259   1.515   8.175 -1.0541  1.4357  0.0467
  221MOL0     H29774   1.384   1.734   7.997 -0.5556  0.7742  0.1050
  221MOL0     H29775   1.213   1.705   8.036  0.2410  0.0775  0.7558
  221MOL0     H29776   1.249   1.783   8.274 -0.7070  1.3780  1.0229
  221MOL0     H29777   1.433   1.797   8.237  0.6963  0.8206 -3.3549
  221MOL0     H29778   1.374   1.966   8.058  0.0631  2.3671  0.7527
  221MOL0     H29779   1.202   1.946   8.123  0.1875 -0.9540 -1.5911
  221MOL0     H29780   1.328   2.012   8.343 -0.1223 -0.0430  0.0742
  221MOL0     H29781   1.465   2.044   8.244 -0.4196 -1.2992  0.2023
  221MOL0     H29782   1.351   2.200   8.112 -3.7831 -3.4983 -2.3986
  221MOL0     H29783   1.211   2.205   8.213  0.0088 -1.3800 -3.6462
  221MOL0     H29784   1.431   2.269   8.387 -3.6306 -0.8108  1.6844
  221MOL0     H29785   1.304   2.374   8.326 -0.2718  0.0750 -1.2347
  221MOL0     H29786   1.598   2.235   8.096 -1.2933 -0.6073 -1.9258
  221MOL0     H29787   1.735   2.349   7.920 -1.9743  0.0801 -0.5846
  221MOL0     H29788   1.692   2.511   7.899 -0.1701 -2.2410 -2.4768
  221MOL0     H29789   1.931   2.409   7.947 -3.2671 -0.3920 -1.4419
  221MOL0     H29790   1.901   2.427   8.123  2.1760 -0.2197  0.0829
  221MOL0     H29791   1.878   2.655   8.127 -1.2039 -2.8846  1.7537
  221MOL0     H29792   1.880   2.666   7.943  0.5956 -1.1264 -0.6289
  221MOL0     H29793   2.112   2.616   8.138  3.0883  2.0171 -0.1652
  221MOL0     H29794   2.097   2.742   8.005  1.6713 -1.9838 -2.9498
  221MOL0     H29795   2.311   2.744   8.021  0.1174  0.3258 -0.6892
  221MOL0     H29796   2.683   2.785   7.979  1.0572 -1.2450 -3.1195
  221MOL0     H29797   2.587   2.895   7.880 -2.3099  0.3213 -0.1613
  221MOL0     H29798   2.529   2.861   8.043  1.1880 -1.1668  0.5762
  221MOL0     H29799   2.923   2.410   7.911 -1.2972 -0.4445 -2.1016
  221MOL0     H29800   3.171   2.379   7.830  1.2475  1.5347 -0.3765
  221MOL0     H29801   3.341   2.728   7.632 -0.8170  1.2354  2.5930
  221MOL0     H29802   3.416   2.679   7.787  0.2499 -1.8872  0.0358
  221MOL0     H29803   3.599   2.685   7.641  0.2758  0.8742 -1.6308
  221MOL0     H29804   3.575   2.525   7.678  5.6850  3.2194 -1.1012
  221MOL0     H29805   3.431   2.650   7.435 -0.5889 -2.2644 -1.2782
  221MOL0     H29806   3.442   2.486   7.466 -2.7372  1.6383 -2.3404
  221MOL0     H29807   3.705   2.528   7.440 -0.1050  0.5639 -0.7283
  221MOL0     H29808   3.619   2.525   7.295  2.1313 -0.9713  0.4513
  221MOL0     H29809   3.762   2.704   7.305 -0.8900 -3.2887 -0.9483
  221MOL0     H29810   3.697   2.771   7.454  0.9199  0.0689 -0.3183
  221MOL0     H29811   3.544   2.750   7.194  3.8849 -3.9095  1.1372
  221MOL0     H29812   3.484   2.848   7.332  1.8900  2.5473  3.1503
  221MOL0     H29813   3.752   2.907   7.220  1.5732  3.5746  0.1327
  221MOL0     H29814   3.665   3.001   7.323  0.7877 -1.4479  1.4127
  221MOL0     H29815   3.594   2.952   7.029  4.2032 -0.1334  0.5995
  221MOL0     H29816   3.650   3.105   7.118  1.0028 -0.3031 -0.0158
  221MOL0     H29817   3.161   2.765   7.673  4.7264 -1.6862  0.9276
  221MOL0     H29818   2.922   2.808   7.764  1.9644  1.2929  4.8596
  221MOL0     H29819   2.489   2.423   7.693 -1.0952  0.0673  0.0134
  221MOL0     H29820   2.246   2.422   7.765  0.7409 -0.4288 -2.0125
  221MOL0     H29821   1.687   1.301   7.895 -0.7687  0.2996  0.6202
  221MOL0     H29822   1.916   1.281   7.881  0.6325 -1.4193  1.7171
  221MOL0     H29823   2.376   1.410   8.386 -0.2232 -3.7975  0.6071
  221MOL0     H29824   2.595   1.408   8.366  1.0468 -0.8039 -1.4827
  221MOL0     H29825   2.821   1.505   8.127 -0.6379 -0.3194 -1.0212
  221MOL0     H29826   2.821   1.443   8.293 -1.0875  2.6639 -1.3572
  221MOL0     H29827   2.999   1.321   8.076  1.2454 -0.5747  1.2212
  221MOL0     H29828   2.993   1.286   8.258 -1.2409  1.1636  0.9198
  221MOL0     H29829   3.068   1.507   8.307  2.1742 -0.6929  0.9736
  221MOL0     H29830   3.065   1.542   8.139 -2.6045 -0.4331  0.6413
  221MOL0     H29831   3.261   1.352   8.287 -2.9923  0.8137  2.7123
  221MOL0     H29832   3.289   1.508   8.206 -2.6975  1.1962 -1.4960
  221MOL0     H29833   3.293   1.257   7.863 -0.1716  4.1964 -1.6318
  221MOL0     H29834   2.589   1.302   7.942  0.7760 -1.9062  0.5277
  221MOL0     H29835   2.344   1.336   7.961  0.2563 -0.0664  0.8763
  222MOL0     O29836   9.385   7.967   0.509 -0.1879  0.1142 -0.4517
  222MOL0     C29837   9.285   7.996   0.447  0.5044 -0.6826 -0.3258
  222MOL0     O29838   9.273   8.052   0.322  0.0837  0.0573  0.2051
  222MOL0     C29839   9.373   8.054   0.237  0.0281 -0.2137 -0.2924
  222MOL0     C29840   9.497   7.994   0.238  0.3840  0.5071  0.6027
  222MOL0     C29841   9.581   8.009   0.128 -0.0830 -0.1453  1.0098
  222MOL0     C29842   9.542   8.078   0.019  0.3606  0.2933 -0.2792
  222MOL0     O29843   9.635   8.079  -0.073 -0.0648  0.4000  0.1311
  222MOL0     C29844   9.620   8.166  -0.182 -0.3508  0.3288 -0.5039
  222MOL0     C29845   9.749   8.160  -0.266  0.0469 -0.4626 -0.1155
  222MOL0     C29846   9.868   8.101  -0.192  0.4226 -0.0387  0.1322
  222MOL0     C29847   9.988   8.119  -0.275  0.3106  0.5158  0.8026
  222MOL0     C29848  10.116   8.113  -0.196 -0.0339  0.1866 -0.1164
  222MOL0     C29849  10.232   8.180  -0.270 -0.6215 -0.4035  0.2349
  222MOL0     C29850  10.353   8.211  -0.182  0.0121  0.4332  0.5363
  222MOL0     C29851  10.462   8.308  -0.253 -0.2501  1.2337  0.1035
  222MOL0     N29852  10.500   8.254  -0.381 -0.3260 -0.1674 -1.1318
  222MOL0     C29853  10.534   8.127  -0.403  0.1055  0.0584  0.8265
  222MOL0     C29854  10.583   8.132  -0.527 -0.7085  0.7810  0.0706
  222MOL0     C29855  10.640   8.013  -0.593 -0.0560 -0.6086  0.9349
  222MOL0     C29856  10.695   8.046  -0.732 -0.2963 -0.6040 -0.3426
  222MOL0     C29857  10.835   7.982  -0.760 -0.4101 -0.8349  0.5291
  222MOL0     C29858  10.857   7.953  -0.907 -0.0598  0.2316 -0.3950
  222MOL0     O29859  10.762   7.839  -0.924  0.7178  0.4338  0.2020
  222MOL0     C29860  10.810   7.712  -0.920 -0.3610 -0.4985 -0.4072
  222MOL0     C29861  10.735   7.628  -0.851 -0.4175 -0.2480 -0.2704
  222MOL0     C29862  10.773   7.493  -0.837 -0.2504 -0.8934  0.4640
  222MOL0     C29863  10.675   7.406  -0.772  0.4695 -0.3117  0.0107
  222MOL0     C29864  10.903   7.451  -0.877 -0.4107  0.0254  0.6504
  222MOL0     C29865  10.965   7.313  -0.861  1.2710  1.3945 -0.6772
  222MOL0     O29866  11.099   7.300  -0.890 -0.1659  0.4291 -0.0190
  222MOL0     C29867  11.152   7.173  -0.897 -1.1050  0.5642 -0.4057
  222MOL0     C29868  11.145   7.105  -1.021  0.2360  0.2826  0.2642
  222MOL0     C29869  11.197   6.976  -1.033 -0.3550 -0.4921 -0.1543
  222MOL0     C29870  11.254   6.916  -0.920 -0.5581 -0.1085  0.0293
  222MOL0     O29871  11.323   6.797  -0.932 -0.2212  0.5401  0.9623
  222MOL0     C29872  11.266   6.697  -0.850  0.2992 -0.7053 -0.9328
  222MOL0     C29873  11.293   6.560  -0.902  0.4679 -0.0755 -0.0616
  222MOL0     C29874  11.220   6.453  -0.813 -0.4553 -0.8938 -1.6520
  222MOL0     C29875  11.259   6.306  -0.845  0.4910 -0.3726 -0.0267
  222MOL0     C29876  11.187   6.202  -0.758  0.1267  0.6086  1.3787
  222MOL0     C29877  11.215   6.058  -0.817  0.8868 -0.8373  0.0496
  222MOL0     C29878  11.126   5.950  -0.759  0.3704 -0.1627 -0.4542
  222MOL0     C29879  11.146   5.816  -0.827 -0.1130  0.3651 -0.1226
  222MOL0    Cl29880  11.296   5.726  -0.809  0.3074  0.2084 -0.2222
  222MOL0     C29881  11.278   6.993  -0.799  0.0542  0.0701 -0.2145
  222MOL0     C29882  11.218   7.118  -0.790  0.6065  0.8630 -0.7316
  222MOL0     O29883  10.886   7.221  -0.824  0.2698  0.1791  0.4648
  222MOL0     C29884  10.983   7.548  -0.945 -0.9198  0.0626  0.2479
  222MOL0     C29885  10.936   7.684  -0.969  1.6619  0.3577 -0.2135
  222MOL0     N29886  10.568   8.264  -0.581  0.0942  0.2909  0.3783
  222MOL0     N29887  10.509   8.341  -0.492 -0.6299  0.4063  0.4491
  222MOL0     C29888   9.410   8.137   0.011 -0.0642 -0.6154 -0.4331
  222MOL0     C29889   9.333   8.116   0.118  1.2836  0.2031  0.0276
  222MOL0     C29890   9.159   7.981   0.526 -0.7944 -0.2740  0.6964
  222MOL0     C29891   9.163   7.965   0.666  0.5216 -0.8573 -0.3763
  222MOL0     C29892   9.046   7.977   0.746 -0.3651 -0.0884  0.2125
  222MOL0     C29893   8.928   8.009   0.678 -1.5902  0.8765 -1.2486
  222MOL0     O29894   8.828   8.017   0.775  0.7789  0.6580  0.1492
  222MOL0     C29895   8.692   8.023   0.740  0.8741 -0.0880  0.2763
  222MOL0     C29896   8.608   8.068   0.857 -0.4411 -0.7761  0.0699
  222MOL0     C29897   8.629   8.220   0.895 -0.2937 -0.1592 -0.4446
  222MOL0     C29898   8.556   8.266   1.026 -0.1551  0.6348  0.1522
  222MOL0     C29899   8.575   8.409   1.041 -0.3684  0.5065  0.1654
  222MOL0     C29900   8.589   8.527   1.069 -0.0602 -0.7810  0.2383
  222MOL0     C29901   8.922   8.036   0.541 -0.3456  1.0068  0.0916
  222MOL0     C29902   9.040   8.027   0.469 -0.2286  0.1043  0.2052
  222MOL0     H29903   9.525   7.931   0.323 -0.8854 -2.8874 -1.2968
  222MOL0     H29904   9.678   7.960   0.131 -1.0489 -2.1069  2.2503
  222MOL0     H29905   9.531   8.138  -0.238 -1.9499  1.6333  1.2324
  222MOL0     H29906   9.600   8.266  -0.140  1.7128 -0.0080  1.4989
  222MOL0     H29907   9.724   8.095  -0.350  0.5553 -0.7375 -0.0545
  222MOL0     H29908   9.762   8.261  -0.306 -1.9842 -0.7368 -1.6177
  222MOL0     H29909   9.876   8.143  -0.091 -0.9052 -0.6946  0.5318
  222MOL0     H29910   9.845   7.996  -0.175 -1.9691  0.8306  3.1200
  222MOL0     H29911   9.987   8.044  -0.355  1.4218 -2.0644  3.0387
  222MOL0     H29912   9.973   8.216  -0.322 -1.1538 -0.1526 -0.1690
  222MOL0     H29913  10.096   8.162  -0.100  1.3755  1.0208 -0.2161
  222MOL0     H29914  10.144   8.010  -0.174  3.6183  1.2057  0.7924
  222MOL0     H29915  10.257   8.116  -0.356  0.9141 -0.4741  0.7230
  222MOL0     H29916  10.195   8.275  -0.309 -3.5254 -1.1261  0.9607
  222MOL0     H29917  10.307   8.248  -0.090 -1.9146 -0.1417 -0.1466
  222MOL0     H29918  10.396   8.121  -0.136 -1.1997  1.7841  4.7718
  222MOL0     H29919  10.549   8.339  -0.195  0.8871 -1.4232 -0.0438
  222MOL0     H29920  10.414   8.405  -0.272  1.8387  1.9757 -1.8783
  222MOL0     H29921  10.526   8.043  -0.335 -0.3292 -0.3232  0.3162
  222MOL0     H29922  10.722   7.972  -0.534  1.8040 -2.1037 -2.4000
  222MOL0     H29923  10.555   7.945  -0.603 -0.5640 -0.0769  1.5519
  222MOL0     H29924  10.704   8.154  -0.744  0.3461 -0.2731  2.4546
  222MOL0     H29925  10.621   7.998  -0.797  1.2854 -2.2165 -1.0237
  222MOL0     H29926  10.871   7.898  -0.700  2.5603  1.9443  3.0293
  222MOL0     H29927  10.902   8.062  -0.728  0.3240 -0.0169 -2.7016
  222MOL0     H29928  10.957   7.921  -0.939 -0.9255 -0.5177 -2.5745
  222MOL0     H29929  10.849   8.043  -0.968  2.9735  1.1228  0.3776
  222MOL0     H29930  10.644   7.677  -0.818 -1.4978 -1.9123 -0.6860
  222MOL0     H29931  10.581   7.459  -0.755 -0.5141 -1.7941 -0.5575
  222MOL0     H29932  10.650   7.313  -0.824  0.0780 -0.8498  1.1454
  222MOL0     H29933  10.717   7.376  -0.676 -2.5849 -2.7734  0.7432
  222MOL0     H29934  11.069   7.149  -1.086  0.6732  0.0410 -0.4247
  222MOL0     H29935  11.195   6.921  -1.126  0.5645 -0.2345 -0.3307
  222MOL0     H29936  11.319   6.696  -0.754 -0.6262  2.9911 -0.2251
  222MOL0     H29937  11.161   6.725  -0.836  0.3080 -0.5431 -1.1727
  222MOL0     H29938  11.263   6.547  -1.007  0.1592 -1.3128  0.1634
  222MOL0     H29939  11.397   6.528  -0.902  0.1553 -1.4598 -3.2470
  222MOL0     H29940  11.113   6.473  -0.812 -0.5767 -0.0387  4.5791
  222MOL0     H29941  11.246   6.470  -0.708 -1.5804  1.4810 -1.6911
  222MOL0     H29942  11.244   6.285  -0.952  2.5040  2.4876 -0.9725
  222MOL0     H29943  11.366   6.293  -0.828  0.5906  2.9030  2.9822
  222MOL0     H29944  11.080   6.224  -0.766  0.0040 -0.7645 -2.3654
  222MOL0     H29945  11.228   6.196  -0.656  0.5581 -1.5943  1.1253
  222MOL0     H29946  11.186   6.059  -0.923  3.3688  0.7090 -0.6942
  222MOL0     H29947  11.320   6.025  -0.816  1.1513 -0.1168 -1.2195
  222MOL0     H29948  11.029   5.999  -0.766 -0.6847 -1.9131  1.3090
  222MOL0     H29949  11.149   5.947  -0.652 -1.4277 -0.0307 -0.0374
  222MOL0     H29950  11.124   5.816  -0.934  0.5884 -0.4621 -0.2860
  222MOL0     H29951  11.067   5.755  -0.782 -0.9363  0.5858 -1.2375
  222MOL0     H29952  11.332   6.949  -0.715 -0.4337  0.0217  0.0806
  222MOL0     H29953  11.221   7.179  -0.700 -0.3062  2.1605 -1.5370
  222MOL0     H29954  11.087   7.532  -0.973 -0.6558  0.3665  1.0376
  222MOL0     H29955  10.987   7.754  -1.035 -0.3536  2.2165  0.0815
  222MOL0     H29956   9.374   8.204  -0.066 -1.6966 -2.9907 -1.8930
  222MOL0     H29957   9.235   8.163   0.118  2.0104  2.1911 -4.4613
  222MOL0     H29958   9.250   7.949   0.729  0.3308  2.4078  0.9411
  222MOL0     H29959   9.051   7.969   0.854 -1.2410 -0.6801  0.2137
  222MOL0     H29960   8.682   8.102   0.665 -2.1572  2.4607  3.0644
  222MOL0     H29961   8.661   7.925   0.704 -1.8224  0.0385  1.9884
  222MOL0     H29962   8.633   8.012   0.947 -1.6944 -0.7188  0.4763
  222MOL0     H29963   8.506   8.057   0.818 -0.1285  1.9313 -1.7864
  222MOL0     H29964   8.595   8.271   0.805  1.0016 -1.5177 -1.7650
  222MOL0     H29965   8.738   8.232   0.901 -0.3688  0.2192  0.3198
  222MOL0     H29966   8.601   8.210   1.108  0.6512  0.0599 -0.6705
  222MOL0     H29967   8.448   8.249   1.016  0.0150 -0.4488 -0.0095
  222MOL0     H29968   8.606   8.633   1.063  3.1018 -1.2198 -0.4723
  222MOL0     H29969   8.833   8.073   0.490 -0.1201  2.6344  0.8335
  222MOL0     H29970   9.034   8.062   0.366 -1.0927  1.6273  0.7406
  223MOL0     O29971   5.044   5.883   9.633  0.2911 -0.0306 -0.2318
  223MOL0     C29972   5.160   5.886   9.680 -0.2988  1.3036  0.8748
  223MOL0     O29973   5.207   5.962   9.777 -0.1106  0.0383 -1.4764
  223MOL0     C29974   5.118   6.047   9.853 -0.3718  0.1675  0.8127
  223MOL0     C29975   4.987   6.036   9.881  0.6815  0.8830  0.1919
  223MOL0     C29976   4.922   6.121   9.972 -0.4912  0.8967  0.9375
  223MOL0     C29977   4.989   6.217  10.046 -0.5111 -0.4129  0.1058
  223MOL0     O29978   4.942   6.299  10.144  0.0380 -0.2052  0.4422
  223MOL0     C29979   4.804   6.313  10.157  0.3422  0.1958  0.0178
  223MOL0     C29980   4.735   6.407  10.058  0.4873  0.4407  0.9554
  223MOL0     C29981   4.584   6.408  10.038 -0.3182 -0.1757 -0.3826
  223MOL0     C29982   4.505   6.419  10.169  0.0065  0.0249 -0.8241
  223MOL0     C29983   4.524   6.528  10.273  0.3099 -0.4341  0.2582
  223MOL0     C29984   4.512   6.664  10.213 -0.3104 -0.3505 -0.7179
  223MOL0     C29985   4.440   6.761  10.309  0.5545  0.0854 -0.1855
  223MOL0     C29986   4.509   6.774  10.442 -0.2910 -1.2110 -0.2561
  223MOL0     N29987   4.648   6.822  10.417  0.0317  0.8399  0.4965
  223MOL0     C29988   4.757   6.741  10.433 -1.0304 -0.1629  0.3135
  223MOL0     C29989   4.865   6.824  10.438 -0.0182  0.0966  0.1682
  223MOL0     C29990   5.005   6.785  10.478  0.8921  0.1209  0.7174
  223MOL0     C29991   5.096   6.732  10.366  0.7032 -0.4754  0.1925
  223MOL0     C29992   5.128   6.825  10.248  0.0577 -0.1033  0.4786
  223MOL0     C29993   5.011   6.829  10.147 -0.0680  0.4579  0.4453
  223MOL0     O29994   5.035   6.910  10.030 -0.4042  0.1951  0.6992
  223MOL0     C29995   4.995   7.047  10.009 -0.5980 -1.0017  0.2122
  223MOL0     C29996   4.994   7.089   9.880  0.7095 -0.5373  0.2148
  223MOL0     C29997   4.944   7.221   9.848 -0.8511  0.5499  0.0390
  223MOL0     C29998   4.958   7.266   9.701 -0.1980  0.4322  0.6534
  223MOL0     C29999   4.898   7.301   9.957 -0.3386 -0.1864  0.1288
  223MOL0     C30000   4.852   7.443   9.946 -1.1256 -0.2142  0.4002
  223MOL0     O30001   4.846   7.513  10.062  0.1970  0.0287  0.1964
  223MOL0     C30002   4.844   7.649  10.065 -0.2945  0.3030  0.1757
  223MOL0     C30003   4.959   7.715  10.055 -0.4174  0.2045  0.0354
  223MOL0     C30004   4.959   7.856  10.056 -0.4366 -0.0924 -0.1380
  223MOL0     C30005   4.838   7.928  10.076 -0.3435  0.4892 -0.1881
  223MOL0     O30006   4.847   8.063  10.065 -0.6116  0.3137 -0.0342
  223MOL0     C30007   4.773   8.132  10.157  0.1466  0.0213 -0.3176
  223MOL0     C30008   4.869   8.240  10.209 -0.5857  0.0560  0.9474
  223MOL0     C30009   4.976   8.187  10.298 -0.5753  0.6377 -0.2742
  223MOL0     C30010   5.102   8.257  10.288  0.0183 -0.5360 -0.1189
  223MOL0     C30011   5.094   8.412  10.324 -0.3097 -0.4185  0.4060
  223MOL0     C30012   5.230   8.477  10.326  0.3124  0.2512  0.0552
  223MOL0     C30013   5.206   8.620  10.347  0.3803  0.7849 -0.1259
  223MOL0     C30014   5.334   8.688  10.369 -0.0156  0.2688  0.2926
  223MOL0    Cl30015   5.429   8.673  10.221 -0.0798 -0.3365  0.2771
  223MOL0     C30016   4.716   7.861  10.077 -0.7124  0.4761  0.8707
  223MOL0     C30017   4.721   7.718  10.069  0.2231 -0.0118 -0.8296
  223MOL0     O30018   4.811   7.491   9.834  0.4324 -0.7981 -0.0965
  223MOL0     C30019   4.906   7.248  10.088 -0.4158 -0.2090 -0.2964
  223MOL0     C30020   4.948   7.119  10.115  0.4700 -0.3193 -0.8489
  223MOL0     N30021   4.815   6.951  10.416  0.7123 -0.5616 -0.2825
  223MOL0     N30022   4.689   6.949  10.395  0.0175  0.3122  0.6305
  223MOL0     C30023   5.127   6.235  10.017 -0.4588 -0.3092  0.2332
  223MOL0     C30024   5.184   6.154   9.914  0.0109 -0.3896 -0.3608
  223MOL0     C30025   5.269   5.829   9.591  0.4615  0.8247 -1.4216
  223MOL0     C30026   5.230   5.711   9.521  0.4507  0.1604  0.7189
  223MOL0     C30027   5.330   5.640   9.461 -0.3629  0.9729 -0.6234
  223MOL0     C30028   5.470   5.673   9.479  0.3315  0.6671 -0.3041
  223MOL0     O30029   5.558   5.586   9.419  0.0964  0.0840 -0.0604
  223MOL0     C30030   5.689   5.629   9.394  0.1263 -0.1470 -0.6731
  223MOL0     C30031   5.721   5.616   9.252  0.2656  1.3957  0.7709
  223MOL0     C30032   5.828   5.713   9.216  0.2190  0.6003  0.0052
  223MOL0     C30033   5.775   5.848   9.176  0.2097  0.3523  0.3943
  223MOL0     C30034   5.879   5.945   9.145  1.1145  0.1500  0.1271
  223MOL0     C30035   5.970   6.028   9.126  0.7243  0.0705  0.3008
  223MOL0     C30036   5.505   5.790   9.552 -0.1494 -0.4316  0.0201
  223MOL0     C30037   5.405   5.863   9.611  0.2092 -0.4563 -0.4090
  223MOL0     H30038   4.924   5.961   9.835  1.5865 -1.2052  2.1575
  223MOL0     H30039   4.815   6.103   9.985  0.1572 -2.1461  3.4901
  223MOL0     H30040   4.753   6.216  10.162 -0.0252  0.3378 -0.8223
  223MOL0     H30041   4.777   6.351  10.256 -1.5027 -0.5303 -0.1655
  223MOL0     H30042   4.757   6.512  10.078 -0.7808  1.2719 -1.5877
  223MOL0     H30043   4.763   6.392   9.954 -1.3402  1.2309  0.3023
  223MOL0     H30044   4.553   6.503   9.994 -0.6790  1.0281  2.2446
  223MOL0     H30045   4.558   6.331   9.965  2.2545 -0.3244 -1.2496
  223MOL0     H30046   4.401   6.418  10.135  0.4007  1.2334 -2.1653
  223MOL0     H30047   4.515   6.325  10.225  0.6095  1.0117  0.7909
  223MOL0     H30048   4.446   6.502  10.345  0.4049 -2.2939 -0.2756
  223MOL0     H30049   4.622   6.520  10.319 -0.6799 -2.1884  2.2471
  223MOL0     H30050   4.613   6.688  10.178 -0.2689  0.7295  0.0816
  223MOL0     H30051   4.449   6.660  10.124  1.0068 -0.0400 -1.7010
  223MOL0     H30052   4.431   6.863  10.271 -2.8666  1.6786  3.9826
  223MOL0     H30053   4.339   6.720  10.321  0.3881  0.4787 -0.2257
  223MOL0     H30054   4.530   6.683  10.499  0.2050  1.0187  3.4156
  223MOL0     H30055   4.467   6.851  10.507  1.8041 -0.6204  0.4523
  223MOL0     H30056   4.758   6.641  10.474  1.3095 -1.1324 -1.8597
  223MOL0     H30057   5.048   6.867  10.537  3.3657 -1.5702  1.4443
  223MOL0     H30058   4.976   6.712  10.555 -2.1128  0.3223 -0.1033
  223MOL0     H30059   5.045   6.642  10.332 -1.7671  0.6458  0.7290
  223MOL0     H30060   5.192   6.710  10.415  2.2515  3.4896 -0.6066
  223MOL0     H30061   5.222   6.795  10.201  1.2732  2.2653  1.2829
  223MOL0     H30062   5.163   6.922  10.285 -0.2434 -0.4194  1.6424
  223MOL0     H30063   4.909   6.843  10.185  0.0861 -2.5780  2.2728
  223MOL0     H30064   5.020   6.731  10.099 -0.1554  0.8594 -0.4072
  223MOL0     H30065   5.040   7.028   9.802  0.0859  2.0994 -2.3658
  223MOL0     H30066   4.861   7.287   9.655  0.1912 -2.7054 -1.9515
  223MOL0     H30067   5.010   7.362   9.704 -0.3520  0.5822 -0.8918
  223MOL0     H30068   5.025   7.200   9.646  1.5560  2.3180  0.4127
  223MOL0     H30069   5.048   7.653  10.059  0.4919  1.5204  1.3211
  223MOL0     H30070   5.048   7.917  10.049 -1.1472  0.9774  0.0516
  223MOL0     H30071   4.687   8.186  10.118 -1.6874 -2.0544  0.6379
  223MOL0     H30072   4.737   8.077  10.245  1.2344 -0.5663 -0.2193
  223MOL0     H30073   4.900   8.297  10.121 -1.8649 -1.3140 -0.4545
  223MOL0     H30074   4.807   8.304  10.273 -0.0923 -0.0474  1.5330
  223MOL0     H30075   4.990   8.084  10.262 -1.8952  0.7781 -1.2387
  223MOL0     H30076   4.938   8.189  10.400 -0.7214  1.8961 -0.3446
  223MOL0     H30077   5.179   8.211  10.351  2.2532  1.3666 -1.2873
  223MOL0     H30078   5.136   8.242  10.186 -2.1796 -2.4836 -0.6410
  223MOL0     H30079   5.055   8.434  10.423 -0.6731  0.4133  0.0888
  223MOL0     H30080   5.031   8.466  10.253 -1.5101  0.2883  1.9508
  223MOL0     H30081   5.297   8.437  10.402 -0.1990  0.2870  0.5373
  223MOL0     H30082   5.277   8.460  10.228 -3.0961 -1.9171 -1.4132
  223MOL0     H30083   5.137   8.642  10.430 -1.7293  0.8601 -1.8124
  223MOL0     H30084   5.167   8.662  10.254  2.6980  4.5139  0.3737
  223MOL0     H30085   5.394   8.638  10.446 -0.0316 -0.0257  0.1137
  223MOL0     H30086   5.324   8.793  10.399  3.2377  0.2266  2.0823
  223MOL0     H30087   4.632   7.929  10.087 -2.0635 -0.8376 -0.9585
  223MOL0     H30088   4.629   7.660  10.067 -1.2483  2.1953 -0.6632
  223MOL0     H30089   4.882   7.302  10.179 -1.1456 -2.9744  1.2720
  223MOL0     H30090   4.974   7.099  10.218  0.1042 -1.6116 -0.9891
  223MOL0     H30091   5.196   6.309  10.058 -1.1359  0.4285  0.0513
  223MOL0     H30092   5.286   6.173   9.883  0.4567  0.5931  1.5436
  223MOL0     H30093   5.129   5.671   9.530  1.1486 -1.7547  0.4390
  223MOL0     H30094   5.317   5.545   9.411  2.1176 -0.1232  0.6164
  223MOL0     H30095   5.725   5.723   9.437  2.0434 -1.3136  0.4128
  223MOL0     H30096   5.742   5.554   9.453 -1.8387 -1.1506 -0.0954
  223MOL0     H30097   5.631   5.641   9.195 -0.5082 -1.9427  0.3203
  223MOL0     H30098   5.743   5.516   9.216 -1.6310 -0.1671  3.5479
  223MOL0     H30099   5.890   5.670   9.137 -0.8108 -2.0901  0.5376
  223MOL0     H30100   5.883   5.731   9.309 -2.1825  0.8255  1.4893
  223MOL0     H30101   5.701   5.890   9.246  0.4515  0.9291  0.3144
  223MOL0     H30102   5.714   5.841   9.086 -0.0812  0.7942  0.5494
  223MOL0     H30103   6.046   6.098   9.096  0.9544  0.1740  1.1024
  223MOL0     H30104   5.602   5.835   9.571 -0.0784 -1.6534  3.1630
  223MOL0     H30105   5.425   5.949   9.675 -0.8925 -0.2443 -0.3439
  224MOL0     O30106   6.391   0.316   7.278 -0.6446 -0.2878  0.7037
  224MOL0     C30107   6.470   0.228   7.300 -0.2025  1.3237 -0.3641
  224MOL0     O30108   6.613   0.236   7.298  0.6263 -0.1218  0.8786
  224MOL0     C30109   6.666   0.352   7.262 -0.8441 -0.0201  0.2119
  224MOL0     C30110   6.632   0.429   7.143  0.0003  0.4872  0.3345
  224MOL0     C30111   6.681   0.549   7.115  0.0792 -0.6133 -0.3504
  224MOL0     C30112   6.784   0.602   7.190 -0.3803 -0.2319  0.3673
  224MOL0     O30113   6.820   0.725   7.151  0.0274  0.5269  0.1557
  224MOL0     C30114   6.966   0.740   7.129 -0.6442 -0.8131  0.2501
  224MOL0     C30115   6.995   0.876   7.073 -0.8097 -1.7040 -0.0062
  224MOL0     C30116   6.994   0.983   7.187 -0.1456 -0.5460  0.3637
  224MOL0     C30117   6.998   1.130   7.142 -0.2714 -0.4817  0.2040
  224MOL0     C30118   6.949   1.224   7.249  0.4709  0.3843 -0.5981
  224MOL0     C30119   7.035   1.347   7.243 -0.1514  0.1070 -0.8840
  224MOL0     C30120   6.995   1.462   7.325  0.6989  0.1299 -0.1122
  224MOL0     C30121   7.117   1.558   7.361 -0.5131 -0.5278 -0.7838
  224MOL0     N30122   7.086   1.647   7.464 -0.0426 -0.1100  0.0827
  224MOL0     C30123   7.163   1.674   7.574  0.4514  1.4850  0.0652
  224MOL0     C30124   7.098   1.770   7.641  0.0647 -0.1077 -0.3131
  224MOL0     C30125   7.149   1.846   7.767  1.1555  0.1210 -1.0139
  224MOL0     C30126   7.290   1.912   7.748  0.9262  0.7194  0.5204
  224MOL0     C30127   7.300   1.978   7.608 -0.1480 -0.6508  0.0757
  224MOL0     C30128   7.422   2.067   7.598 -0.2067  0.1979  0.2053
  224MOL0     O30129   7.424   2.160   7.488  0.2565 -0.3641 -0.2085
  224MOL0     C30130   7.389   2.097   7.368  0.4372 -1.1589 -0.5002
  224MOL0     C30131   7.264   2.131   7.308 -0.0308 -0.6982 -0.1009
  224MOL0     C30132   7.219   2.075   7.192 -0.1719 -0.2254  1.3045
  224MOL0     C30133   7.085   2.110   7.144  0.4643 -0.4376 -0.7440
  224MOL0     C30134   7.305   1.982   7.128  0.9109  0.7834 -0.0787
  224MOL0     C30135   7.261   1.924   6.998  0.1759 -0.0488 -0.5145
  224MOL0     O30136   7.174   1.818   7.006  0.0508 -0.4320  0.1226
  224MOL0     C30137   7.113   1.764   6.891 -0.5774 -0.6655 -0.2416
  224MOL0     C30138   7.065   1.635   6.909 -0.9831  0.3931 -0.7744
  224MOL0     C30139   6.994   1.579   6.805 -0.4768  0.7495  1.4217
  224MOL0     C30140   6.981   1.642   6.676  0.2333  0.2415 -0.2146
  224MOL0     O30141   6.910   1.603   6.562  0.1830  0.5728 -0.9125
  224MOL0     C30142   6.841   1.477   6.571 -0.7850 -1.0356 -0.0929
  224MOL0     C30143   6.791   1.433   6.441  0.0971 -0.5302  1.1480
  224MOL0     C30144   6.903   1.401   6.341 -1.0861  0.0920  0.1122
  224MOL0     C30145   6.830   1.329   6.226  0.1393  0.1323 -1.0024
  224MOL0     C30146   6.890   1.353   6.082 -0.2293 -0.5014 -0.4111
  224MOL0     C30147   6.843   1.489   6.029  0.5293 -0.7083  0.2637
  224MOL0     C30148   6.693   1.520   6.027  1.1690  0.3080 -0.0568
  224MOL0     C30149   6.619   1.398   5.975 -0.1038  0.1637  0.0238
  224MOL0    Cl30150   6.692   1.346   5.816 -0.2775 -0.4830  0.6080
  224MOL0     C30151   7.034   1.772   6.668 -0.4024 -0.4058 -0.3607
  224MOL0     C30152   7.106   1.828   6.765  0.0731 -0.8248  0.3333
  224MOL0     O30153   7.311   1.968   6.895 -0.6399  0.3047  0.3425
  224MOL0     C30154   7.425   1.941   7.189 -1.1850 -0.9988  0.3044
  224MOL0     C30155   7.475   2.006   7.308  0.7243  0.3695  0.6981
  224MOL0     N30156   6.981   1.791   7.574  0.2390  0.2548 -0.6382
  224MOL0     N30157   6.976   1.722   7.466  0.9151 -0.4901  0.0183
  224MOL0     C30158   6.835   0.529   7.298 -0.9119  0.1899  0.1829
  224MOL0     C30159   6.780   0.403   7.341 -0.5705  0.8467  0.7994
  224MOL0     C30160   6.429   0.098   7.337 -0.0627  0.5211 -1.2034
  224MOL0     C30161   6.518  -0.010   7.353 -0.6060  0.6034 -0.6699
  224MOL0     C30162   6.478  -0.122   7.421 -0.5984  0.3757 -0.4891
  224MOL0     C30163   6.361  -0.132   7.482  0.4247  0.8745 -0.3492
  224MOL0     O30164   6.332  -0.245   7.559 -0.3972 -0.5677 -0.6553
  224MOL0     C30165   6.314  -0.216   7.696 -0.1930 -0.1925  0.5226
  224MOL0     C30166   6.325  -0.338   7.788 -1.0225 -0.8612  0.0539
  224MOL0     C30167   6.464  -0.394   7.786 -0.6473  0.3519  0.2526
  224MOL0     C30168   6.470  -0.489   7.904  0.7412 -0.4918 -1.2336
  224MOL0     C30169   6.385  -0.609   7.883  0.9184 -0.7686 -0.9841
  224MOL0     C30170   6.346  -0.727   7.858  0.5924  0.4148  0.7867
  224MOL0     C30171   6.273  -0.028   7.479 -0.3308 -0.2767 -0.1890
  224MOL0     C30172   6.305   0.087   7.411  0.0741 -0.0318 -0.1770
  224MOL0     H30173   6.557   0.399   7.072 -1.7797 -0.8214  2.6337
  224MOL0     H30174   6.634   0.594   7.028 -3.4453  0.4656  1.8897
  224MOL0     H30175   7.024   0.716   7.219 -0.3392 -2.6885 -0.3983
  224MOL0     H30176   7.011   0.683   7.047 -0.4051 -0.4790  0.1479
  224MOL0     H30177   7.098   0.887   7.037  1.1091  1.2252  5.2506
  224MOL0     H30178   6.911   0.903   7.008 -1.6459 -1.5057  1.1344
  224MOL0     H30179   6.914   0.957   7.256  0.9930 -1.3230  1.4172
  224MOL0     H30180   7.091   0.982   7.236  2.0792  2.4264 -3.3852
  224MOL0     H30181   7.101   1.139   7.106  0.7442 -2.9066  2.2897
  224MOL0     H30182   6.940   1.145   7.050  0.1051  2.1486  0.3224
  224MOL0     H30183   6.843   1.245   7.230  0.1487  1.5867  2.1542
  224MOL0     H30184   6.949   1.186   7.352  0.6057 -2.4866 -1.5688
  224MOL0     H30185   7.133   1.315   7.280 -1.0596  0.1392  1.7260
  224MOL0     H30186   7.036   1.392   7.143  0.2457  0.4845 -0.7149
  224MOL0     H30187   6.914   1.524   7.285 -0.7293 -1.0864  0.7525
  224MOL0     H30188   6.960   1.416   7.419 -0.2036  1.5338  0.2655
  224MOL0     H30189   7.139   1.621   7.274  1.1204 -0.1670 -0.1489
  224MOL0     H30190   7.209   1.505   7.386  0.2613  1.1664  0.1406
  224MOL0     H30191   7.255   1.623   7.600  0.2285  2.0590  2.1865
  224MOL0     H30192   7.075   1.921   7.795  0.3190 -1.1734  0.4093
  224MOL0     H30193   7.151   1.779   7.854  1.4362  1.9987  0.4953
  224MOL0     H30194   7.374   1.842   7.756  0.0833 -0.2798  0.8233
  224MOL0     H30195   7.302   1.977   7.835  2.1147  0.9673  0.1833
  224MOL0     H30196   7.208   2.029   7.579 -0.3571 -0.4867  0.9801
  224MOL0     H30197   7.305   1.899   7.533  0.3756  1.3809 -2.1351
  224MOL0     H30198   7.506   2.000   7.582  0.7166  1.3769 -0.0441
  224MOL0     H30199   7.422   2.124   7.691 -0.2220 -1.6827  1.3997
  224MOL0     H30200   7.196   2.200   7.357  2.8936 -0.2128  3.8150
  224MOL0     H30201   7.013   2.042   7.190  1.3208 -1.6201 -1.1278
  224MOL0     H30202   7.069   2.210   7.186  1.9176  0.8764 -3.0732
  224MOL0     H30203   7.083   2.119   7.035 -1.3896  2.0223 -0.5960
  224MOL0     H30204   7.083   1.570   6.994 -2.6928 -0.2526 -0.8552
  224MOL0     H30205   6.952   1.480   6.818 -0.3473  0.7322  1.7346
  224MOL0     H30206   6.916   1.400   6.591  0.9784  0.1748 -1.6207
  224MOL0     H30207   6.763   1.477   6.648 -0.9453 -1.1003 -0.2527
  224MOL0     H30208   6.753   1.335   6.469 -4.0450  1.3458  2.8817
  224MOL0     H30209   6.708   1.496   6.408  1.4696  1.7145  1.7486
  224MOL0     H30210   6.984   1.341   6.385 -3.4487 -3.0901  0.4552
  224MOL0     H30211   6.951   1.492   6.304 -0.7020 -0.5994 -1.1173
  224MOL0     H30212   6.846   1.223   6.249 -0.9500  0.4260  1.3475
  224MOL0     H30213   6.724   1.356   6.227  0.1860  0.3150 -1.0079
  224MOL0     H30214   6.869   1.270   6.014  0.7166 -1.1767  0.0942
  224MOL0     H30215   6.999   1.358   6.075 -0.0989  1.7596  1.7842
  224MOL0     H30216   6.898   1.570   6.078  2.9554 -2.8810  1.3904
  224MOL0     H30217   6.881   1.486   5.927 -2.1623 -0.7760 -0.8163
  224MOL0     H30218   6.671   1.606   5.963 -1.5302 -2.4081 -3.1211
  224MOL0     H30219   6.666   1.542   6.130 -2.4449 -0.0233 -0.8050
  224MOL0     H30220   6.517   1.435   5.978 -0.7435 -1.5245  0.0633
  224MOL0     H30221   6.620   1.318   6.050 -0.6934  2.7022  2.9295
  224MOL0     H30222   7.038   1.829   6.576 -2.7630 -0.4489 -0.5508
  224MOL0     H30223   7.154   1.918   6.728 -0.0320 -0.6078  0.7275
  224MOL0     H30224   7.475   1.866   7.129 -3.4388 -1.6832 -0.8503
  224MOL0     H30225   7.572   1.975   7.344  1.8142 -2.2136 -3.6655
  224MOL0     H30226   6.886   0.590   7.371  2.7586  0.7958 -2.6146
  224MOL0     H30227   6.805   0.358   7.436  1.8818  1.8164  0.6894
  224MOL0     H30228   6.623  -0.016   7.327 -1.0085 -1.1626 -2.0671
  224MOL0     H30229   6.548  -0.205   7.428  0.0249  0.7755 -1.6728
  224MOL0     H30230   6.383  -0.147   7.744 -0.7677  0.1886  0.8049
  224MOL0     H30231   6.219  -0.163   7.710 -0.2161 -0.0959  0.0301
  224MOL0     H30232   6.253  -0.414   7.758  0.0734 -1.1313 -2.0710
  224MOL0     H30233   6.308  -0.292   7.886 -0.9919  2.2325 -1.2733
  224MOL0     H30234   6.536  -0.316   7.810 -0.7379  0.6067 -0.2978
  224MOL0     H30235   6.480  -0.442   7.689 -3.1600  0.3633 -0.2332
  224MOL0     H30236   6.434  -0.448   7.999 -0.5245 -1.5777 -1.2163
  224MOL0     H30237   6.575  -0.515   7.921  1.5495  0.1228 -4.5725
  224MOL0     H30238   6.304  -0.823   7.833 -1.3862  1.3899  0.1808
  224MOL0     H30239   6.179  -0.042   7.530  0.5418 -1.8969  1.0933
  224MOL0     H30240   6.250   0.177   7.441  1.1833  0.7974 -0.5740
  225MOL0     O30241   9.083  10.535   1.558 -0.5911 -0.1663 -0.0647
  225MOL0     C30242   9.152  10.440   1.589 -0.1151 -1.0605  0.5253
  225MOL0     O30243   9.144  10.361   1.698 -0.9140  0.0752 -0.3019
  225MOL0     C30244   9.032  10.349   1.782 -0.1923 -0.0391 -0.0262
  225MOL0     C30245   8.916  10.430   1.790 -0.5726 -0.5975 -0.1087
  225MOL0     C30246   8.817  10.408   1.887  0.8474  0.9443  0.4118
  225MOL0     C30247   8.847  10.317   1.987 -1.2839 -0.4179 -0.6212
  225MOL0     O30248   8.747  10.293   2.075  0.5686 -0.3633 -0.0396
  225MOL0     C30249   8.796  10.245   2.203  0.0552  0.2453  0.5761
  225MOL0     C30250   8.763  10.341   2.313  0.2708 -0.3185  0.4262
  225MOL0     C30251   8.795  10.489   2.270 -0.7631 -0.4415 -0.1028
  225MOL0     C30252   8.808  10.593   2.385 -0.7236 -0.1153 -0.2443
  225MOL0     C30253   8.679  10.633   2.448 -0.5327 -0.1439 -0.9361
  225MOL0     C30254   8.711  10.749   2.550 -0.2594  0.0416  0.4079
  225MOL0     C30255   8.588  10.803   2.623  0.4000 -0.0349 -0.2300
  225MOL0     C30256   8.525  10.938   2.577 -0.6491 -0.3169  0.0258
  225MOL0     N30257   8.487  10.932   2.431 -0.2208 -0.8022 -0.2615
  225MOL0     C30258   8.380  10.863   2.384 -1.4071  0.0426 -0.8550
  225MOL0     C30259   8.387  10.868   2.258 -0.1253  1.0860 -0.0884
  225MOL0     C30260   8.312  10.784   2.157 -0.2468 -0.2057 -0.3580
  225MOL0     C30261   8.394  10.667   2.108 -0.3802 -0.2035  0.7191
  225MOL0     C30262   8.309  10.574   2.029 -0.0721 -0.1253  0.3508
  225MOL0     C30263   8.387  10.457   1.970 -0.7484  0.7549  0.6041
  225MOL0     O30264   8.386  10.363   2.071 -0.2826  0.3403 -0.0126
  225MOL0     C30265   8.429  10.239   2.030  0.9409 -0.3076 -0.2051
  225MOL0     C30266   8.464  10.197   1.898 -1.0979 -0.9606 -0.8562
  225MOL0     C30267   8.498  10.064   1.868  1.5455 -0.6818  0.7037
  225MOL0     C30268   8.517  10.035   1.717  0.4783 -0.1549  0.0296
  225MOL0     C30269   8.516   9.965   1.973  0.2590 -0.5272 -0.0272
  225MOL0     C30270   8.540   9.824   1.954 -1.3230  0.0939  0.1544
  225MOL0     O30271   8.495   9.734   2.041 -0.0150 -0.2395 -0.3097
  225MOL0     C30272   8.498   9.594   2.022 -0.7131 -0.4237 -0.7393
  225MOL0     C30273   8.459   9.545   1.897  0.4249  0.4848  0.8130
  225MOL0     C30274   8.449   9.402   1.887 -0.1935  0.7088  0.9134
  225MOL0     C30275   8.474   9.316   1.991 -0.2336  0.5696  0.2754
  225MOL0     O30276   8.456   9.183   1.961  0.9395 -0.2459 -0.0376
  225MOL0     C30277   8.448   9.102   2.073 -0.1597 -0.7033  0.3458
  225MOL0     C30278   8.443   8.954   2.038 -0.6028 -0.7494  0.0490
  225MOL0     C30279   8.431   8.856   2.154  0.1941 -0.4986 -0.3105
  225MOL0     C30280   8.514   8.724   2.145  0.5578 -0.0950 -0.4646
  225MOL0     C30281   8.489   8.644   2.279 -0.1097  0.4810 -0.8642
  225MOL0     C30282   8.535   8.497   2.279 -0.0211 -0.5825 -0.6128
  225MOL0     C30283   8.547   8.445   2.421 -0.1682  0.0891  0.2177
  225MOL0     C30284   8.667   8.363   2.445  0.8146 -0.3103 -0.2347
  225MOL0    Cl30285   8.680   8.223   2.332  0.8284 -0.5147  0.5353
  225MOL0     C30286   8.506   9.371   2.120  0.1581  0.5354 -0.7201
  225MOL0     C30287   8.513   9.509   2.138  1.2109 -0.1075  1.0108
  225MOL0     O30288   8.607   9.797   1.855 -0.1038  0.8277 -0.1563
  225MOL0     C30289   8.485  10.011   2.102  0.5434  0.6388 -0.1805
  225MOL0     C30290   8.452  10.149   2.125 -0.7030 -0.9180 -0.9703
  225MOL0     N30291   8.498  10.940   2.212 -0.3690 -0.4025 -0.5220
  225MOL0     N30292   8.565  10.974   2.321  0.2700 -0.4471  0.6571
  225MOL0     C30293   8.957  10.243   1.981  1.1462  0.6187  0.0966
  225MOL0     C30294   9.038  10.253   1.884  1.1808 -0.1758  0.3447
  225MOL0     C30295   9.264  10.413   1.494  0.8347  0.7699  0.4286
  225MOL0     C30296   9.261  10.446   1.356 -0.7264  0.9193  0.0009
  225MOL0     C30297   9.368  10.411   1.276 -0.4518  0.6765  0.4587
  225MOL0     C30298   9.487  10.356   1.318 -0.4511 -1.1149  0.9873
  225MOL0     O30299   9.584  10.316   1.235  0.4213 -0.3777  0.0504
  225MOL0     C30300   9.641  10.420   1.146  0.3357  0.0017 -0.3126
  225MOL0     C30301   9.778  10.442   1.077  0.3182  0.0072  1.1638
  225MOL0     C30302   9.892  10.438   1.189  0.7655  0.2774  0.7980
  225MOL0     C30303   9.906  10.292   1.231 -0.0867  0.5519 -0.6861
  225MOL0     C30304  10.021  10.274   1.326  0.0180 -1.1923  0.5551
  225MOL0     C30305  10.126  10.258   1.388 -0.0370  0.2062  0.7984
  225MOL0     C30306   9.493  10.320   1.456 -0.9051  0.0446  0.2132
  225MOL0     C30307   9.383  10.353   1.542 -0.2707  0.5493 -0.4934
  225MOL0     H30308   8.897  10.506   1.715 -2.5054 -1.8112 -0.9617
  225MOL0     H30309   8.723  10.461   1.888  0.1915  0.0281 -2.1779
  225MOL0     H30310   8.756  10.145   2.224  0.1656  0.6148  2.7877
  225MOL0     H30311   8.903  10.249   2.224  0.2190  2.6142 -0.3842
  225MOL0     H30312   8.660  10.319   2.344  0.6799 -2.0438  0.6502
  225MOL0     H30313   8.823  10.310   2.399  0.2360 -1.1655  0.1612
  225MOL0     H30314   8.884  10.488   2.206 -0.2365  0.5920  0.5751
  225MOL0     H30315   8.714  10.528   2.208  0.9615  0.9144 -1.6166
  225MOL0     H30316   8.878  10.545   2.454 -1.7121  1.4137  1.9462
  225MOL0     H30317   8.856  10.688   2.362  0.9297 -0.2393  2.2446
  225MOL0     H30318   8.616  10.674   2.369  0.0180  1.3965 -0.6234
  225MOL0     H30319   8.619  10.551   2.488 -3.6239  2.0079 -0.7870
  225MOL0     H30320   8.778  10.699   2.621  2.3983 -0.7188 -2.4240
  225MOL0     H30321   8.767  10.835   2.514  0.8559 -0.6415  0.4669
  225MOL0     H30322   8.509  10.728   2.609 -0.4199  0.7914 -0.1598
  225MOL0     H30323   8.617  10.811   2.728 -3.0531 -0.5623  0.8964
  225MOL0     H30324   8.594  11.023   2.582  0.5224 -1.2927  2.0894
  225MOL0     H30325   8.435  10.952   2.638 -1.2554  0.5787 -1.0391
  225MOL0     H30326   8.320  10.786   2.432 -1.3557  0.5657  0.0629
  225MOL0     H30327   8.220  10.748   2.205 -0.9844  2.2817  0.2268
  225MOL0     H30328   8.286  10.841   2.067  2.4023 -0.6687 -1.4942
  225MOL0     H30329   8.440  10.618   2.195  1.3080 -1.4067 -0.7618
  225MOL0     H30330   8.476  10.688   2.039 -2.5567 -0.1729 -2.0694
  225MOL0     H30331   8.263  10.633   1.949 -2.8307  0.2072  2.0331
  225MOL0     H30332   8.225  10.539   2.090 -0.5841  0.7378  0.1629
  225MOL0     H30333   8.486  10.480   1.929 -0.0914 -0.1231  1.6700
  225MOL0     H30334   8.327  10.423   1.885 -3.2708 -1.9534  3.2376
  225MOL0     H30335   8.464  10.259   1.809 -1.1840 -0.2396 -0.3726
  225MOL0     H30336   8.621  10.045   1.683  0.5380  1.7989  0.6640
  225MOL0     H30337   8.480   9.936   1.690  3.4853 -1.2062 -0.6370
  225MOL0     H30338   8.459  10.101   1.652  1.6266  0.7692 -0.0961
  225MOL0     H30339   8.465   9.600   1.804 -0.6158 -0.8891 -0.1086
  225MOL0     H30340   8.441   9.346   1.794  3.4086  0.4385  0.6424
  225MOL0     H30341   8.534   9.110   2.139  0.3670 -1.3118 -0.2521
  225MOL0     H30342   8.362   9.133   2.133 -0.1733  1.9738 -0.9064
  225MOL0     H30343   8.360   8.923   1.972 -2.2142 -1.6296  2.3570
  225MOL0     H30344   8.542   8.930   2.000  0.9950  3.2445  1.1985
  225MOL0     H30345   8.325   8.828   2.147 -0.6372  1.8226  1.5869
  225MOL0     H30346   8.438   8.907   2.251 -0.9837 -1.4587  0.3053
  225MOL0     H30347   8.486   8.655   2.065  2.0326 -1.7948  0.4233
  225MOL0     H30348   8.619   8.755   2.133  0.0600  1.5659 -0.7589
  225MOL0     H30349   8.380   8.644   2.292  0.1048 -0.5338  1.1691
  225MOL0     H30350   8.540   8.698   2.359  2.2412 -1.1783 -1.1697
  225MOL0     H30351   8.474   8.451   2.200 -2.0015  0.9827 -0.0856
  225MOL0     H30352   8.634   8.490   2.233  0.4794 -2.3611  0.6456
  225MOL0     H30353   8.451   8.396   2.441 -1.3460  2.3091  0.3490
  225MOL0     H30354   8.547   8.530   2.489 -0.0510 -0.2322  0.6188
  225MOL0     H30355   8.664   8.324   2.547  0.5672  1.5561  0.5249
  225MOL0     H30356   8.758   8.423   2.440  0.1796  1.0127  2.3298
  225MOL0     H30357   8.504   9.314   2.212  0.3395  1.0203 -0.4093
  225MOL0     H30358   8.541   9.552   2.234 -0.0877 -1.1809  1.9048
  225MOL0     H30359   8.503   9.934   2.177  0.8259 -1.4975 -2.3083
  225MOL0     H30360   8.428  10.197   2.220  2.8741  0.4999 -0.6093
  225MOL0     H30361   8.967  10.158   2.048 -2.0335 -1.1799 -1.4434
  225MOL0     H30362   9.122  10.185   1.878 -0.0075 -1.6150 -4.2164
  225MOL0     H30363   9.186  10.502   1.300 -2.1834  1.5020  2.3733
  225MOL0     H30364   9.378  10.424   1.169  1.3293 -0.3969  0.4661
  225MOL0     H30365   9.572  10.414   1.062  0.9069 -1.1564 -0.7179
  225MOL0     H30366   9.611  10.518   1.186  0.9071  0.1452 -0.2183
  225MOL0     H30367   9.781  10.537   1.023 -0.7273 -0.5543  0.0870
  225MOL0     H30368   9.786  10.359   1.006 -1.8277 -2.9503  4.0728
  225MOL0     H30369   9.872  10.504   1.273 -0.6361  2.5086 -1.1487
  225MOL0     H30370   9.978  10.480   1.135 -1.6763  1.1968 -2.7148
  225MOL0     H30371   9.911  10.220   1.150 -1.2976 -3.8690  2.7449
  225MOL0     H30372   9.820  10.249   1.283  0.1414 -0.3539 -1.0468
  225MOL0     H30373  10.213  10.243   1.449 -0.5878 -1.1666  1.2589
  225MOL0     H30374   9.582  10.264   1.485  0.0482  1.2359 -0.3014
  225MOL0     H30375   9.404  10.321   1.643  2.5588 -2.0778 -1.7338
  226MOL0     O30376   4.770   8.836  10.970 -0.0349  0.4791 -0.0258
  226MOL0     C30377   4.680   8.766  10.928  0.4885 -0.2442  0.8121
  226MOL0     O30378   4.560   8.813  10.863 -0.6475  0.4604  0.2811
  226MOL0     C30379   4.534   8.946  10.883  0.9346 -0.2738 -0.5269
  226MOL0     C30380   4.518   9.043  10.778 -0.4002  0.4150 -0.2252
  226MOL0     C30381   4.503   9.181  10.799 -0.2856  0.2973  0.4780
  226MOL0     C30382   4.491   9.219  10.934  0.3019  1.1011 -0.4576
  226MOL0     O30383   4.470   9.349  10.960  0.2728 -0.1635  0.1023
  226MOL0     C30384   4.363   9.375  11.058 -0.2838 -0.0994 -0.4677
  226MOL0     C30385   4.313   9.515  11.060 -0.3688  0.1591 -0.8710
  226MOL0     C30386   4.217   9.552  10.946  0.2456  0.2158  0.4468
  226MOL0     C30387   4.179   9.700  10.950 -0.7343 -0.0043  1.0685
  226MOL0     C30388   4.089   9.735  10.828  0.1426  1.2361  0.0782
  226MOL0     C30389   4.158   9.726  10.692  0.8206  0.1583 -0.2550
  226MOL0     C30390   4.083   9.797  10.580 -0.6641  0.2134 -0.7827
  226MOL0     C30391   4.124   9.945  10.591 -0.1039 -0.1077  0.4022
  226MOL0     N30392   4.079  10.025  10.468 -0.1625 -0.8723  0.1932
  226MOL0     C30393   4.165  10.050  10.361  0.6224  0.4933 -0.5065
  226MOL0     C30394   4.095  10.142  10.278  0.2725  0.6115 -0.9276
  226MOL0     C30395   4.129  10.191  10.151 -0.5303 -0.1948  1.4084
  226MOL0     C30396   4.157  10.345  10.168  0.4545 -0.0363 -0.5809
  226MOL0     C30397   4.278  10.391  10.256  0.0852 -0.8553 -0.4247
  226MOL0     C30398   4.412  10.321  10.233  0.6229 -0.6835  0.1574
  226MOL0     O30399   4.477  10.344  10.105 -0.2468 -0.7557  0.9995
  226MOL0     C30400   4.552  10.455  10.077 -0.7340  0.6226 -0.2879
  226MOL0     C30401   4.618  10.456   9.958 -0.4295 -0.0729 -0.9813
  226MOL0     C30402   4.693  10.567   9.920 -1.4519  0.9744  0.2662
  226MOL0     C30403   4.759  10.547   9.782  0.1891 -0.1825  1.0004
  226MOL0     C30404   4.708  10.677  10.001  0.7359  0.2325  0.4413
  226MOL0     C30405   4.792  10.800   9.967 -1.0560  0.1017 -0.6452
  226MOL0     O30406   4.918  10.790   9.913  0.4321  0.9782  0.1596
  226MOL0     C30407   4.993  10.902   9.892 -0.3221 -0.7313  0.1357
  226MOL0     C30408   5.082  10.949   9.991 -0.5248  0.3395  0.6750
  226MOL0     C30409   5.152  11.061   9.962 -0.0393 -0.3424  0.9221
  226MOL0     C30410   5.123  11.149   9.860 -0.1660 -1.5028  0.2652
  226MOL0     O30411   5.168  11.273   9.839  0.6606  0.6370  0.2174
  226MOL0     C30412   5.301  11.308   9.892  0.1809 -0.7360 -0.2386
  226MOL0     C30413   5.297  11.462   9.893 -0.9570  0.1274  0.4380
  226MOL0     C30414   5.441  11.513   9.906  0.2850  0.0812  0.1971
  226MOL0     C30415   5.458  11.661   9.952 -0.7308  0.4140  0.0471
  226MOL0     C30416   5.410  11.754   9.849  0.1596 -0.5211 -0.9868
  226MOL0     C30417   5.419  11.903   9.883  0.7343  0.1929 -0.1764
  226MOL0     C30418   5.459  11.985   9.764  0.3159  0.1017  0.3609
  226MOL0     C30419   5.349  11.968   9.652  0.0901  1.1042 -0.2478
  226MOL0    Cl30420   5.404  12.082   9.531 -0.5004 -0.0378  0.1663
  226MOL0     C30421   5.027  11.101   9.759  0.4577 -0.2794 -0.2499
  226MOL0     C30422   4.966  10.977   9.774  0.0024  0.0658  0.7692
  226MOL0     O30423   4.728  10.909   9.980 -0.6975 -0.0831 -0.9215
  226MOL0     C30424   4.644  10.674  10.120  0.6429  0.0607 -0.5576
  226MOL0     C30425   4.576  10.564  10.162  1.0513  0.3197  0.6937
  226MOL0     N30426   3.978  10.170  10.353 -0.2167 -0.5892 -0.1449
  226MOL0     N30427   3.962  10.102  10.457 -0.7590  0.4620 -0.6147
  226MOL0     C30428   4.515   9.128  11.039  0.9900  0.5501  0.5958
  226MOL0     C30429   4.546   8.994  11.014  0.5195  0.4281  0.2616
  226MOL0     C30430   4.705   8.615  10.911  0.2956 -0.1031  0.4234
  226MOL0     C30431   4.837   8.565  10.928 -0.1875 -0.7036 -0.0842
  226MOL0     C30432   4.864   8.424  10.915  0.9822 -0.4099 -0.3404
  226MOL0     C30433   4.754   8.344  10.876 -0.5339  0.2984 -0.6907
  226MOL0     O30434   4.763   8.208  10.860  0.4034 -0.1763  0.3869
  226MOL0     C30435   4.883   8.142  10.898  0.7519 -0.1225 -0.1440
  226MOL0     C30436   4.979   8.137  10.781 -0.0778  0.4163  0.3113
  226MOL0     C30437   4.926   8.036  10.677 -0.0872  0.2601  0.9715
  226MOL0     C30438   5.028   7.973  10.582  0.7994  0.2882 -0.1631
  226MOL0     C30439   4.968   7.878  10.487  1.4739 -0.3062 -0.4726
  226MOL0     C30440   4.925   7.796  10.409 -1.0961  1.2238 -0.0090
  226MOL0     C30441   4.624   8.398  10.864 -0.5216 -0.6329  0.9798
  226MOL0     C30442   4.598   8.531  10.881 -0.0346 -0.2444 -0.2035
  226MOL0     H30443   4.517   9.023  10.672 -0.7986 -0.4594 -0.0677
  226MOL0     H30444   4.495   9.242  10.710 -1.0442  0.1581  0.4481
  226MOL0     H30445   4.280   9.305  11.050  0.0443 -1.3986  4.2354
  226MOL0     H30446   4.397   9.358  11.161  4.6206 -2.9849 -2.2083
  226MOL0     H30447   4.264   9.517  11.157  0.9309 -0.2605 -0.1773
  226MOL0     H30448   4.405   9.575  11.066 -0.1156 -0.2971  4.2668
  226MOL0     H30449   4.253   9.519  10.848 -3.5771  0.5840 -1.2329
  226MOL0     H30450   4.127   9.492  10.962 -1.2523  1.7012 -1.7934
  226MOL0     H30451   4.120   9.721  11.040 -4.4507  2.7519 -1.6667
  226MOL0     H30452   4.269   9.761  10.944 -1.3503  0.8276 -0.3283
  226MOL0     H30453   4.001   9.671  10.837  2.0336 -1.1782  3.4660
  226MOL0     H30454   4.049   9.836  10.836 -1.7859  0.3927  2.0118
  226MOL0     H30455   4.265   9.750  10.685  1.5865 -2.7304  0.0586
  226MOL0     H30456   4.150   9.621  10.662  4.6119 -0.6500  0.9392
  226MOL0     H30457   4.107   9.757  10.481  1.2948 -1.7949  0.4104
  226MOL0     H30458   3.974   9.797  10.587 -0.7008 -3.0754  0.8175
  226MOL0     H30459   4.232   9.963  10.592 -0.3095  1.3081  2.3075
  226MOL0     H30460   4.081   9.991  10.680 -0.7542 -1.7256  0.9564
  226MOL0     H30461   4.254   9.988  10.353 -0.8959 -2.1254  1.5012
  226MOL0     H30462   4.221  10.146  10.111 -3.3384 -3.5269 -1.9433
  226MOL0     H30463   4.051  10.167  10.079  0.4390 -0.5922  0.4673
  226MOL0     H30464   4.060  10.381  10.203 -0.9972 -3.5490 -0.5130
  226MOL0     H30465   4.171  10.371  10.063  1.6893  2.4398  0.1402
  226MOL0     H30466   4.249  10.367  10.359 -0.3891 -1.3632 -0.6736
  226MOL0     H30467   4.286  10.500  10.266  0.1414 -1.0363  2.3970
  226MOL0     H30468   4.396  10.213  10.244 -2.3400 -0.3533 -0.0788
  226MOL0     H30469   4.480  10.346  10.315  0.1771  2.1087 -0.2136
  226MOL0     H30470   4.611  10.361   9.907  1.1082 -0.3453 -0.7560
  226MOL0     H30471   4.856  10.594   9.768  1.4015 -1.9953  2.6965
  226MOL0     H30472   4.767  10.439   9.767 -0.3072 -0.5348  2.9884
  226MOL0     H30473   4.688  10.591   9.711  0.3458  1.8844  2.0499
  226MOL0     H30474   5.112  10.893  10.079 -1.7539 -3.4103 -1.0762
  226MOL0     H30475   5.218  11.084  10.045  0.6349  0.6645  0.1226
  226MOL0     H30476   5.315  11.268   9.993  3.1224  1.2798  0.2533
  226MOL0     H30477   5.373  11.269   9.820  0.1268 -1.2688 -0.0146
  226MOL0     H30478   5.252  11.495   9.798 -0.7027  2.9729  1.2096
  226MOL0     H30479   5.233  11.506   9.970 -0.2030  1.8203  0.1401
  226MOL0     H30480   5.496  11.507   9.811 -3.7297  1.9015 -2.5744
  226MOL0     H30481   5.496  11.452   9.978 -0.4618  1.4028  1.9486
  226MOL0     H30482   5.390  11.670  10.038 -1.8853 -0.1402 -0.7831
  226MOL0     H30483   5.558  11.684   9.988 -0.4967  1.6596 -1.3018
  226MOL0     H30484   5.312  11.725   9.808 -0.5896 -0.9515  1.0183
  226MOL0     H30485   5.478  11.742   9.764  1.9857  5.0339 -0.7101
  226MOL0     H30486   5.323  11.933   9.927  0.4722 -0.2525 -0.4308
  226MOL0     H30487   5.488  11.927   9.964 -0.8341  0.8946  1.0089
  226MOL0     H30488   5.563  11.961   9.740  0.0988 -0.5259  0.0180
  226MOL0     H30489   5.464  12.089   9.798  1.2857  0.7822 -1.6590
  226MOL0     H30490   5.251  11.988   9.695  0.5026  0.3206  1.1296
  226MOL0     H30491   5.356  11.868   9.607 -1.1680  0.3467  1.1702
  226MOL0     H30492   5.009  11.166   9.674 -1.8972  0.1924  0.5290
  226MOL0     H30493   4.902  10.930   9.700  1.9909 -1.1644 -0.2516
  226MOL0     H30494   4.652  10.754  10.193 -1.3464  0.4219 -0.6800
  226MOL0     H30495   4.548  10.558  10.267 -3.0812  0.5125 -0.2418
  226MOL0     H30496   4.513   9.174  11.138 -1.9066  1.5271  0.1646
  226MOL0     H30497   4.573   8.935  11.101  1.7293 -0.4488 -0.6562
  226MOL0     H30498   4.919   8.627  10.963 -3.7350  3.7333  1.3419
  226MOL0     H30499   4.960   8.377  10.931  0.3280 -1.6691  0.0667
  226MOL0     H30500   4.920   8.176  10.995 -0.3370  0.1593  0.1890
  226MOL0     H30501   4.854   8.039  10.921 -0.4690  0.6593  2.1931
  226MOL0     H30502   5.081   8.119  10.816 -0.1382 -0.0498  0.2527
  226MOL0     H30503   4.982   8.236  10.734 -0.1810 -0.8252 -2.4820
  226MOL0     H30504   4.844   8.092  10.631 -0.9436  1.9843  4.2582
  226MOL0     H30505   4.891   7.946  10.729  1.5140 -1.1876 -0.3310
  226MOL0     H30506   5.092   7.914  10.649  3.3281  2.1373 -0.7716
  226MOL0     H30507   5.082   8.046  10.521  1.5054 -0.7385 -0.8177
  226MOL0     H30508   4.894   7.723  10.336 -1.5710  0.4606  0.9328
  226MOL0     H30509   4.549   8.322  10.843  0.8080 -0.9524 -3.8908
  226MOL0     H30510   4.497   8.571  10.880 -0.3603 -1.0418 -1.3507
  227MOL0     O30511   5.776   0.097   1.636  0.2048  0.1938  0.3202
  227MOL0     C30512   5.683   0.038   1.592 -0.5494  0.1956  0.2874
  227MOL0     O30513   5.562   0.028   1.649  0.1877  1.2359  0.8865
  227MOL0     C30514   5.536   0.032   1.785 -0.0018  0.4021  0.5217
  227MOL0     C30515   5.398   0.049   1.819 -1.1814  0.3452  0.3481
  227MOL0     C30516   5.365   0.061   1.949  0.2868 -0.6710  0.3053
  227MOL0     C30517   5.456   0.055   2.058 -0.8411  0.7429 -0.2155
  227MOL0     O30518   5.431   0.033   2.189  0.2509 -0.0470  0.1964
  227MOL0     C30519   5.293   0.057   2.227 -0.6239  0.0420  0.4632
  227MOL0     C30520   5.257   0.032   2.380 -0.1032 -0.0280  0.5866
  227MOL0     C30521   5.275  -0.108   2.429  0.0108 -0.6016  0.5867
  227MOL0     C30522   5.270  -0.122   2.583 -0.2227 -0.0124  0.4334
  227MOL0     C30523   5.268  -0.268   2.605  1.4243  0.3163 -0.4802
  227MOL0     C30524   5.254  -0.294   2.755  0.6440  0.2734  0.3044
  227MOL0     C30525   5.360  -0.209   2.845 -0.2149  1.0056 -0.1418
  227MOL0     C30526   5.335  -0.241   2.999  0.3911  0.7697  0.3160
  227MOL0     N30527   5.395  -0.150   3.078 -0.1747 -0.4884 -0.1511
  227MOL0     C30528   5.511  -0.173   3.150 -0.2726 -0.6598  0.2626
  227MOL0     C30529   5.538  -0.047   3.200 -0.0613  0.0108 -0.1615
  227MOL0     C30530   5.640  -0.010   3.305  0.3196 -0.0624 -0.1901
  227MOL0     C30531   5.693  -0.131   3.385  0.2019  0.2558 -0.2468
  227MOL0     C30532   5.787  -0.071   3.492 -0.2937 -0.1028  0.6804
  227MOL0     C30533   5.824  -0.157   3.610  0.0415 -0.1921  0.3080
  227MOL0     O30534   5.709  -0.178   3.695 -0.3891  0.6366  0.3109
  227MOL0     C30535   5.720  -0.150   3.833 -0.4220 -0.1808  0.8196
  227MOL0     C30536   5.726  -0.250   3.932  0.2684 -0.6116  0.1428
  227MOL0     C30537   5.743  -0.222   4.068  0.1437  0.1426 -0.0748
  227MOL0     C30538   5.756  -0.341   4.167  0.4104  0.3381 -0.5222
  227MOL0     C30539   5.749  -0.094   4.117 -0.1630  0.2226  1.1217
  227MOL0     C30540   5.768  -0.060   4.260 -0.4412 -0.3873 -0.0247
  227MOL0     O30541   5.720   0.059   4.296 -0.0811  0.5220  0.3836
  227MOL0     C30542   5.715   0.115   4.426  0.6348  0.3945 -0.2469
  227MOL0     C30543   5.642   0.230   4.441  0.0826 -0.0090  0.5701
  227MOL0     C30544   5.628   0.298   4.564 -0.3337  0.2300  0.1918
  227MOL0     C30545   5.699   0.245   4.674 -0.5567  0.5854 -0.0799
  227MOL0     O30546   5.690   0.312   4.798  0.4206 -0.1321 -0.0830
  227MOL0     C30547   5.781   0.285   4.909 -0.2339 -0.6980  0.8391
  227MOL0     C30548   5.783   0.391   5.018 -0.4181  0.5405 -0.0304
  227MOL0     C30549   5.643   0.420   5.080  0.0421  0.3661  0.0860
  227MOL0     C30550   5.664   0.510   5.206 -0.0077 -0.0287 -0.0842
  227MOL0     C30551   5.667   0.658   5.166  0.0347  0.1657  0.2275
  227MOL0     C30552   5.684   0.747   5.284 -0.6087  0.8069  0.4690
  227MOL0     C30553   5.585   0.868   5.281  0.0604  0.1336 -0.3843
  227MOL0     C30554   5.609   0.957   5.408 -0.5425  0.3688 -0.2750
  227MOL0    Cl30555   5.511   1.103   5.418  0.2380  0.0910 -0.7351
  227MOL0     C30556   5.773   0.129   4.660 -0.4349 -0.0177 -0.2996
  227MOL0     C30557   5.787   0.071   4.540 -0.5753  1.6013 -0.2856
  227MOL0     O30558   5.842  -0.122   4.330  0.3428  0.0134  0.6359
  227MOL0     C30559   5.748   0.014   4.016  0.2681 -0.6076  0.2273
  227MOL0     C30560   5.748  -0.021   3.873  0.1331 -0.0474 -0.3465
  227MOL0     N30561   5.441   0.044   3.155 -0.3468 -0.3387  0.3287
  227MOL0     N30562   5.363  -0.016   3.077 -0.3702  0.2027  1.0264
  227MOL0     C30563   5.590   0.033   2.020 -0.2273  0.7733 -0.5161
  227MOL0     C30564   5.632   0.023   1.886  0.2421 -0.2734 -0.2477
  227MOL0     C30565   5.699  -0.022   1.457  0.5518  0.0942 -0.2840
  227MOL0     C30566   5.597  -0.101   1.401 -0.1684 -0.2112  0.0523
  227MOL0     C30567   5.614  -0.127   1.264  0.4027  0.3408  0.9843
  227MOL0     C30568   5.731  -0.102   1.193 -0.6457  0.1778  1.0001
  227MOL0     O30569   5.748  -0.112   1.059  0.2302 -0.5354  0.3572
  227MOL0     C30570   5.638  -0.168   0.975 -0.4594 -0.1831 -0.1955
  227MOL0     C30571   5.663  -0.149   0.827  0.8693 -0.6414 -0.1833
  227MOL0     C30572   5.546  -0.213   0.741  0.6324  0.7464 -0.6004
  227MOL0     C30573   5.417  -0.126   0.751 -1.3043  0.0212  0.5123
  227MOL0     C30574   5.325  -0.184   0.846  0.9326 -1.3220  0.9032
  227MOL0     C30575   5.239  -0.209   0.928  0.2588  0.5896 -0.0931
  227MOL0     C30576   5.843  -0.041   1.255  0.0014 -0.3111 -0.8781
  227MOL0     C30577   5.838  -0.015   1.397  0.8240  0.3626  0.0180
  227MOL0     H30578   5.327   0.061   1.738  0.1566  0.3918 -0.8565
  227MOL0     H30579   5.262   0.080   1.976 -0.1574 -2.1324 -0.2694
  227MOL0     H30580   5.270   0.162   2.209  1.3402  0.3052 -0.8272
  227MOL0     H30581   5.216  -0.004   2.178 -0.6570 -0.2254  0.8452
  227MOL0     H30582   5.318   0.104   2.435  0.1727  0.5179 -0.3976
  227MOL0     H30583   5.153   0.057   2.402 -0.4047 -1.6748  1.1008
  227MOL0     H30584   5.194  -0.165   2.382  1.4154 -0.8068 -1.7398
  227MOL0     H30585   5.365  -0.155   2.389 -0.9440 -1.4513 -0.6314
  227MOL0     H30586   5.362  -0.077   2.622 -0.2236  2.2290 -1.8764
  227MOL0     H30587   5.190  -0.075   2.642 -0.4893 -1.2281  1.0672
  227MOL0     H30588   5.180  -0.312   2.558  1.2070 -1.0057  1.0590
  227MOL0     H30589   5.347  -0.333   2.565  1.2970 -0.6909  0.8107
  227MOL0     H30590   5.150  -0.269   2.778 -0.2945  0.6827 -3.6355
  227MOL0     H30591   5.274  -0.400   2.770  2.8170  0.4775 -0.7343
  227MOL0     H30592   5.459  -0.245   2.815 -0.7803 -1.9069  1.1336
  227MOL0     H30593   5.353  -0.101   2.830 -0.4660  0.9829 -0.1888
  227MOL0     H30594   5.389  -0.333   3.021 -1.3796 -0.4781 -0.3018
  227MOL0     H30595   5.230  -0.257   3.024  0.9872 -0.4651  2.2226
  227MOL0     H30596   5.544  -0.275   3.167 -1.1569 -0.9631  0.2551
  227MOL0     H30597   5.724   0.026   3.245 -0.9617  2.5969 -0.5434
  227MOL0     H30598   5.596   0.065   3.372 -2.9325 -0.1262 -2.0661
  227MOL0     H30599   5.757  -0.180   3.311  0.0838  0.5381 -0.5357
  227MOL0     H30600   5.622  -0.196   3.438  0.1444  2.3260  2.3928
  227MOL0     H30601   5.747   0.026   3.525 -0.2661  0.2023 -0.1564
  227MOL0     H30602   5.880  -0.032   3.451  0.0404 -1.0785  0.4949
  227MOL0     H30603   5.905  -0.107   3.663  0.9763 -0.2398 -1.0092
  227MOL0     H30604   5.856  -0.254   3.570 -0.8258  0.3229 -1.8207
  227MOL0     H30605   5.708  -0.355   3.914 -1.2041 -0.6744  1.6765
  227MOL0     H30606   5.668  -0.332   4.231 -1.2231  2.1789 -2.8752
  227MOL0     H30607   5.766  -0.437   4.116  0.5942 -0.5213  1.0536
  227MOL0     H30608   5.850  -0.340   4.223  1.6567 -0.0301 -2.5142
  227MOL0     H30609   5.594   0.276   4.355 -1.5070 -3.4976 -0.6065
  227MOL0     H30610   5.575   0.390   4.584  2.5239  1.7261  1.4983
  227MOL0     H30611   5.744   0.188   4.944 -0.4059 -0.6784  0.7081
  227MOL0     H30612   5.883   0.285   4.869 -0.1311  1.3694  1.0029
  227MOL0     H30613   5.845   0.344   5.096 -1.1699  0.0383  0.2741
  227MOL0     H30614   5.828   0.483   4.979 -2.1371  0.5019 -2.2722
  227MOL0     H30615   5.600   0.322   5.101  3.1732 -1.3582 -1.0047
  227MOL0     H30616   5.573   0.465   5.008  2.9649  2.7261 -1.5074
  227MOL0     H30617   5.581   0.492   5.276  1.4741 -3.0917  1.0484
  227MOL0     H30618   5.758   0.483   5.255 -0.0103  0.4721  0.2132
  227MOL0     H30619   5.570   0.677   5.118 -1.2284 -0.3443  2.4138
  227MOL0     H30620   5.739   0.672   5.085  0.1210 -0.6144  0.1658
  227MOL0     H30621   5.673   0.692   5.378  0.8145 -0.5048 -0.0947
  227MOL0     H30622   5.787   0.781   5.295 -0.2211  1.3884 -3.6432
  227MOL0     H30623   5.479   0.843   5.280 -0.0354  0.4234  0.9549
  227MOL0     H30624   5.599   0.940   5.199  0.3841 -0.0226 -0.4687
  227MOL0     H30625   5.713   0.990   5.405  0.2486 -2.0093 -1.3645
  227MOL0     H30626   5.615   0.901   5.502 -2.5630  1.8755  0.8348
  227MOL0     H30627   5.829   0.098   4.748 -0.6964 -0.8461 -0.4154
  227MOL0     H30628   5.846  -0.019   4.534  0.2197  2.0398  0.7558
  227MOL0     H30629   5.774   0.117   4.039  2.0619 -0.6979 -1.0933
  227MOL0     H30630   5.749   0.058   3.799  0.7232 -1.6045 -2.0791
  227MOL0     H30631   5.647   0.015   2.111 -0.7092 -1.1608 -0.5558
  227MOL0     H30632   5.733  -0.005   1.860 -0.6099 -1.4322 -2.5586
  227MOL0     H30633   5.512  -0.135   1.459  0.4643 -0.5817  0.7803
  227MOL0     H30634   5.532  -0.177   1.212  1.2250  0.5617 -0.6050
  227MOL0     H30635   5.621  -0.272   1.006 -1.3310  0.6891  2.4960
  227MOL0     H30636   5.548  -0.115   1.008 -1.0851 -1.8981  1.0111
  227MOL0     H30637   5.761  -0.186   0.796  0.7833  0.1639 -1.4810
  227MOL0     H30638   5.652  -0.043   0.803  2.9401 -0.4943 -0.6659
  227MOL0     H30639   5.528  -0.313   0.780  0.6932  1.7294  2.1666
  227MOL0     H30640   5.574  -0.217   0.636  1.4854  3.9002 -0.6134
  227MOL0     H30641   5.371  -0.124   0.651 -1.1177  2.1447  0.4168
  227MOL0     H30642   5.448  -0.021   0.761  1.9328 -0.7742  0.0845
  227MOL0     H30643   5.165  -0.237   1.001 -0.3491 -1.8527 -1.5508
  227MOL0     H30644   5.937  -0.018   1.206  0.8572 -0.0511  0.8066
  227MOL0     H30645   5.927   0.012   1.452 -0.3796  2.9164  0.8945
  228MOL0     O30646  10.722   0.735   5.889  0.6488 -0.1269  0.5210
  228MOL0     C30647  10.658   0.747   5.785 -0.4828 -0.8376  0.8815
  228MOL0     O30648  10.612   0.864   5.735  0.0216 -0.6891  0.0945
  228MOL0     C30649  10.620   0.970   5.822 -0.2724 -0.4569 -0.1365
  228MOL0     C30650  10.582   0.971   5.961  0.2466 -0.4758 -0.5792
  228MOL0     C30651  10.600   1.090   6.036  0.2702  0.2300  1.4135
  228MOL0     C30652  10.650   1.204   5.968  0.9297  0.5116  0.1088
  228MOL0     O30653  10.641   1.325   6.031  0.7206 -0.0655  0.0564
  228MOL0     C30654  10.656   1.339   6.170  0.5237  0.3729  0.4187
  228MOL0     C30655  10.773   1.435   6.210  0.3749  0.4394 -0.2770
  228MOL0     C30656  10.777   1.445   6.351 -0.5010  0.2627 -0.8987
  228MOL0     C30657  10.885   1.546   6.384 -1.2175 -0.3801  0.4550
  228MOL0     C30658  10.935   1.532   6.531 -1.2491 -0.5499 -0.5581
  228MOL0     C30659  11.037   1.643   6.573 -0.0661  0.7034 -0.0040
  228MOL0     C30660  11.090   1.628   6.718  0.7781 -0.4351  0.2236
  228MOL0     C30661  10.996   1.691   6.832 -0.6574 -0.1870 -0.2172
  228MOL0     N30662  10.872   1.623   6.866  0.2463  0.4340  0.0460
  228MOL0     C30663  10.757   1.689   6.897  0.6761 -0.0014  0.1414
  228MOL0     C30664  10.659   1.594   6.903 -0.4236 -0.7957 -0.0763
  228MOL0     C30665  10.509   1.624   6.919  0.4956 -0.1999 -0.5891
  228MOL0     C30666  10.427   1.641   6.795  0.5168  0.1369  0.0936
  228MOL0     C30667  10.435   1.543   6.680  0.9359 -0.0381 -0.0443
  228MOL0     C30668  10.402   1.400   6.728 -0.1267  0.0329 -0.1428
  228MOL0     O30669  10.258   1.390   6.753 -0.1959  0.4837 -0.9385
  228MOL0     C30670  10.211   1.273   6.814 -0.2895  0.0246 -0.8040
  228MOL0     C30671  10.086   1.277   6.872  0.7284 -0.2190 -0.3883
  228MOL0     C30672  10.019   1.169   6.937  0.1374  0.5384 -0.2832
  228MOL0     C30673   9.865   1.182   6.953  0.1254 -0.6796  0.5610
  228MOL0     C30674  10.082   1.045   6.947 -0.1411  1.9645  0.4864
  228MOL0     C30675  10.028   0.925   7.020 -0.1239  0.2700 -0.0339
  228MOL0     O30676  10.121   0.830   7.053 -0.4615 -0.5346 -0.1250
  228MOL0     C30677  10.076   0.731   7.134  0.3006  0.3585  0.4528
  228MOL0     C30678  10.118   0.607   7.095 -0.6509 -0.1125  0.3941
  228MOL0     C30679  10.102   0.495   7.178 -0.5401  1.1981 -0.5715
  228MOL0     C30680  10.023   0.507   7.295 -0.0580 -0.2036 -0.1508
  228MOL0     O30681   9.990   0.404   7.375 -0.2708  0.6755  0.0365
  228MOL0     C30682   9.975   0.272   7.312  0.5639  0.6932 -0.2758
  228MOL0     C30683   9.902   0.175   7.407 -0.9277 -1.0038  0.4975
  228MOL0     C30684   9.759   0.214   7.430  0.2603  0.3228  0.1042
  228MOL0     C30685   9.672   0.180   7.302  0.4898  0.0628  0.4376
  228MOL0     C30686   9.655   0.030   7.267 -0.1672  0.6062  0.5766
  228MOL0     C30687   9.588  -0.043   7.376  0.0219 -0.1967  0.5077
  228MOL0     C30688   9.567  -0.196   7.343  0.1121 -0.6335 -0.1752
  228MOL0     C30689   9.591  -0.305   7.458  0.2548 -0.0811  0.6669
  228MOL0    Cl30690   9.763  -0.332   7.507 -0.0091  0.2016  0.4210
  228MOL0     C30691   9.981   0.630   7.331 -0.1786 -0.7304 -0.2561
  228MOL0     C30692  10.015   0.744   7.259  0.2935  0.4900  0.4880
  228MOL0     O30693   9.921   0.938   7.080 -0.1961  0.2366 -0.1913
  228MOL0     C30694  10.210   1.038   6.887 -0.3268 -0.6440  0.0653
  228MOL0     C30695  10.273   1.146   6.826  0.4621  0.4287  0.2674
  228MOL0     N30696  10.724   1.463   6.906 -0.2088 -0.3341  0.1899
  228MOL0     N30697  10.848   1.479   6.872  0.2900 -0.6276 -0.2726
  228MOL0     C30698  10.686   1.200   5.844  0.0803 -0.9790 -0.7468
  228MOL0     C30699  10.679   1.083   5.769  0.4807  0.2151 -0.0488
  228MOL0     C30700  10.636   0.633   5.695 -0.3079  0.3139 -0.8069
  228MOL0     C30701  10.533   0.624   5.597 -0.0846 -0.1990 -0.3562
  228MOL0     C30702  10.523   0.526   5.504 -0.3432 -0.4751  0.7983
  228MOL0     C30703  10.607   0.415   5.499  0.4932  0.1571  0.0988
  228MOL0     O30704  10.591   0.305   5.418 -0.0884  0.5723 -0.5135
  228MOL0     C30705  10.500   0.303   5.309  0.1913  0.3341 -0.5155
  228MOL0     C30706  10.586   0.354   5.194 -0.1116  0.2956  0.1472
  228MOL0     C30707  10.507   0.368   5.061  0.5487 -0.5268  0.3835
  228MOL0     C30708  10.386   0.467   5.080 -0.1490  0.3622 -0.0483
  228MOL0     C30709  10.433   0.594   5.126  0.1322 -0.3068  0.7602
  228MOL0     C30710  10.473   0.704   5.176  0.4142 -0.5890  0.2338
  228MOL0     C30711  10.699   0.409   5.607  0.0315 -0.9065 -0.3693
  228MOL0     C30712  10.718   0.514   5.699 -0.5482 -0.1595  0.7331
  228MOL0     H30713  10.546   0.877   6.002 -2.6183  0.9625  0.4953
  228MOL0     H30714  10.556   1.098   6.136 -3.7246  0.3579 -0.1514
  228MOL0     H30715  10.558   1.358   6.215 -1.0921 -0.8253 -2.3510
  228MOL0     H30716  10.674   1.242   6.216 -1.6616 -0.4031 -0.2126
  228MOL0     H30717  10.868   1.397   6.172  2.6939  4.4347  0.8463
  228MOL0     H30718  10.761   1.535   6.167  8.1195  2.4402  0.6817
  228MOL0     H30719  10.674   1.458   6.386 -1.0209 -2.0392 -1.4126
  228MOL0     H30720  10.802   1.343   6.380  0.1321 -0.5444 -3.8796
  228MOL0     H30721  10.966   1.552   6.311 -2.7629 -0.2311 -1.3264
  228MOL0     H30722  10.836   1.644   6.377 -0.8513 -0.2806 -0.9443
  228MOL0     H30723  10.847   1.552   6.593 -0.1004  1.3678  0.5328
  228MOL0     H30724  10.972   1.434   6.563 -1.6880 -0.1219  1.3513
  228MOL0     H30725  11.118   1.623   6.502 -0.6037 -0.8455 -0.2108
  228MOL0     H30726  10.987   1.739   6.556  2.5325  1.6848 -3.2592
  228MOL0     H30727  11.096   1.519   6.729 -1.0991 -0.8451 -2.0450
  228MOL0     H30728  11.194   1.660   6.730  1.0162 -1.9675  3.3153
  228MOL0     H30729  10.984   1.800   6.825  2.0587  0.4442  2.7330
  228MOL0     H30730  11.056   1.682   6.923  0.9223  1.9072 -0.9721
  228MOL0     H30731  10.723   1.792   6.898 -3.1241 -1.1136  1.2182
  228MOL0     H30732  10.466   1.556   6.994 -1.0310  1.3296  0.0055
  228MOL0     H30733  10.503   1.721   6.969  3.7924  0.1346 -0.6216
  228MOL0     H30734  10.479   1.728   6.752  3.1128 -1.6881 -0.7084
  228MOL0     H30735  10.321   1.660   6.812 -0.1021 -1.2425 -1.9258
  228MOL0     H30736  10.537   1.546   6.639  0.1844 -0.0517 -2.0515
  228MOL0     H30737  10.360   1.571   6.606 -0.9521  2.6516  2.6365
  228MOL0     H30738  10.454   1.380   6.821  2.1854  1.8292 -0.9463
  228MOL0     H30739  10.431   1.323   6.655  2.7652 -1.3138  2.2362
  228MOL0     H30740  10.025   1.357   6.832  0.1225 -1.3506 -1.8053
  228MOL0     H30741   9.831   1.283   6.927  0.9901 -0.6232 -0.4448
  228MOL0     H30742   9.826   1.097   6.897  0.1991  0.9405 -2.1560
  228MOL0     H30743   9.841   1.178   7.060 -1.0547  3.1534  0.5861
  228MOL0     H30744  10.170   0.593   7.001  1.2913 -0.0374  1.4197
  228MOL0     H30745  10.128   0.394   7.147  0.2232  1.3707 -0.5050
  228MOL0     H30746   9.910   0.274   7.224  1.6945 -0.3662 -1.1670
  228MOL0     H30747  10.077   0.236   7.300  1.9434  4.0182  0.5101
  228MOL0     H30748   9.904   0.070   7.378 -0.3470 -0.7882 -0.2672
  228MOL0     H30749   9.946   0.168   7.507 -0.0105 -1.7836  0.0485
  228MOL0     H30750   9.749   0.323   7.439 -1.4577  0.2068 -0.0377
  228MOL0     H30751   9.719   0.159   7.515 -2.0638 -2.7096 -2.7099
  228MOL0     H30752   9.575   0.227   7.324 -0.2309 -0.8698 -0.6287
  228MOL0     H30753   9.714   0.231   7.214  0.4349  0.6320  0.7350
  228MOL0     H30754   9.752  -0.018   7.250  0.1091  0.5181  2.2437
  228MOL0     H30755   9.597   0.034   7.174 -0.4005  1.0019  0.7376
  228MOL0     H30756   9.654  -0.040   7.464  0.1949 -0.2118  0.3792
  228MOL0     H30757   9.490  -0.008   7.409 -1.7995 -3.8382 -0.5014
  228MOL0     H30758   9.613  -0.225   7.249  1.3049  0.2007  0.1159
  228MOL0     H30759   9.460  -0.204   7.324 -0.3859  1.4788  1.3508
  228MOL0     H30760   9.543  -0.398   7.426  1.1475  0.1923 -1.6500
  228MOL0     H30761   9.532  -0.276   7.546  1.3902 -4.2188  3.0811
  228MOL0     H30762   9.928   0.649   7.424  3.8480  0.3232  2.0759
  228MOL0     H30763   9.983   0.834   7.311 -0.8049 -2.3267  5.3117
  228MOL0     H30764  10.260   0.942   6.890 -1.0022 -0.9980  0.2968
  228MOL0     H30765  10.372   1.140   6.781 -0.0299 -0.0568 -0.7855
  228MOL0     H30766  10.716   1.292   5.796  0.0298 -1.7374 -2.2730
  228MOL0     H30767  10.686   1.085   5.660 -4.4545  0.1865 -0.5840
  228MOL0     H30768  10.466   0.709   5.593  1.6253  1.1431 -2.4308
  228MOL0     H30769  10.454   0.541   5.421  0.4459 -3.6769 -0.5724
  228MOL0     H30770  10.468   0.201   5.286  3.0356 -0.8374  0.2107
  228MOL0     H30771  10.412   0.367   5.321  1.8665  3.8177 -4.1831
  228MOL0     H30772  10.658   0.275   5.169  0.5929  0.7489  0.7415
  228MOL0     H30773  10.628   0.449   5.228  2.2802 -0.8573  0.6205
  228MOL0     H30774  10.475   0.265   5.042 -1.9659  0.4169 -0.9013
  228MOL0     H30775  10.563   0.399   4.973  2.4294 -2.5719  0.7645
  228MOL0     H30776  10.302   0.425   5.136 -1.3778 -4.2506 -4.5670
  228MOL0     H30777  10.339   0.479   4.981 -1.2138  1.3393  0.5554
  228MOL0     H30778  10.500   0.797   5.221 -0.5027 -0.1486 -0.0801
  228MOL0     H30779  10.755   0.316   5.600  3.0997  0.8751 -1.1436
  228MOL0     H30780  10.796   0.515   5.774  0.1053 -0.4253  0.0737
  229MOL0     O30781   6.868   2.877   1.984 -0.0094 -0.1021  0.3314
  229MOL0     C30782   6.881   2.934   1.875 -0.5870  0.9060  0.8259
  229MOL0     O30783   6.889   2.880   1.751  0.1292  0.6268 -0.7902
  229MOL0     C30784   6.881   2.744   1.750 -0.5298 -0.9079  0.9057
  229MOL0     C30785   6.761   2.687   1.719  0.1746  0.2480  0.7109
  229MOL0     C30786   6.730   2.557   1.755  0.3605 -0.7206 -0.4342
  229MOL0     C30787   6.840   2.472   1.803 -0.2948  0.4922  0.6040
  229MOL0     O30788   6.830   2.341   1.845  0.1080 -0.1459  0.1093
  229MOL0     C30789   6.722   2.296   1.935  0.1537 -0.3930 -0.2007
  229MOL0     C30790   6.744   2.147   1.957 -1.0293  0.4939 -0.4729
  229MOL0     C30791   6.695   2.094   1.819 -0.0219 -0.7460  0.5203
  229MOL0     C30792   6.552   2.038   1.821 -0.5792  0.1276  0.1887
  229MOL0     C30793   6.488   2.023   1.678 -0.5043  0.1208  0.4294
  229MOL0     C30794   6.339   2.014   1.673  0.3209  0.4662 -0.2319
  229MOL0     C30795   6.290   1.898   1.768  0.5308  0.5043  0.4876
  229MOL0     C30796   6.163   1.821   1.728 -0.4821 -1.0510 -0.0102
  229MOL0     N30797   6.122   1.720   1.823 -0.6899  0.1042 -0.0188
  229MOL0     C30798   6.082   1.587   1.791  0.7419 -0.2415 -0.5420
  229MOL0     C30799   6.014   1.548   1.905  0.3467 -0.4479  0.0958
  229MOL0     C30800   5.946   1.420   1.936  0.8318 -0.0879 -0.7421
  229MOL0     C30801   6.051   1.314   1.924  0.6098  0.2910 -0.1454
  229MOL0     C30802   5.990   1.178   1.949 -1.0228 -0.7311 -0.4123
  229MOL0     C30803   5.949   1.170   2.098  0.2986  0.3537  0.1381
  229MOL0     O30804   5.971   1.034   2.147  0.0845 -0.2308  0.9584
  229MOL0     C30805   6.058   1.014   2.257  0.1056 -0.4728 -1.3446
  229MOL0     C30806   6.175   0.941   2.251  0.0671  0.8887  0.2329
  229MOL0     C30807   6.270   0.924   2.359  0.7033 -0.4710 -0.1045
  229MOL0     C30808   6.379   0.825   2.330  0.6417  0.9143  0.0293
  229MOL0     C30809   6.225   0.980   2.481  0.3663 -0.1912 -0.7556
  229MOL0     C30810   6.302   0.955   2.610  1.1792 -0.5341  0.7674
  229MOL0     O30811   6.251   1.001   2.730  0.1240  0.0247  0.8002
  229MOL0     C30812   6.323   0.985   2.845 -0.3197  0.0102  0.2354
  229MOL0     C30813   6.458   1.015   2.858 -0.1595  0.3942  0.0614
  229MOL0     C30814   6.525   0.993   2.974  0.5906  0.5240  0.8074
  229MOL0     C30815   6.458   0.935   3.085  0.5014 -1.2885 -0.8735
  229MOL0     O30816   6.536   0.925   3.196  0.1917 -0.6858  0.0854
  229MOL0     C30817   6.475   0.940   3.325 -0.4216  0.3797  0.0084
  229MOL0     C30818   6.570   1.010   3.418 -0.2298 -0.3893 -0.3883
  229MOL0     C30819   6.501   1.060   3.550 -0.3248 -0.2912 -0.3019
  229MOL0     C30820   6.598   1.121   3.641  0.0531 -0.4654 -0.0944
  229MOL0     C30821   6.707   1.024   3.691 -0.2745  1.2638 -0.4032
  229MOL0     C30822   6.850   1.063   3.658  0.1260  0.0857  0.4252
  229MOL0     C30823   6.889   1.197   3.727  0.3476  0.5313 -0.4065
  229MOL0     C30824   7.041   1.230   3.733 -0.3062 -0.1247 -0.5710
  229MOL0    Cl30825   7.090   1.337   3.870 -0.0460 -0.0181 -0.3803
  229MOL0     C30826   6.321   0.906   3.080 -0.7650 -0.4462  0.7975
  229MOL0     C30827   6.260   0.941   2.958 -0.6148 -1.1873  0.1614
  229MOL0     O30828   6.402   0.888   2.607 -0.3524  0.5403 -0.1739
  229MOL0     C30829   6.104   1.038   2.492  0.7301 -0.4738  0.5224
  229MOL0     C30830   6.019   1.070   2.384  0.7015 -0.4531  0.0678
  229MOL0     N30831   6.013   1.646   1.995  0.1677 -0.0761 -0.4334
  229MOL0     N30832   6.068   1.754   1.944 -1.1680  0.2232 -0.9126
  229MOL0     C30833   6.969   2.531   1.815 -0.0715  0.7296  0.1332
  229MOL0     C30834   6.986   2.665   1.791  0.6667 -0.3834 -0.4364
  229MOL0     C30835   6.889   3.084   1.867 -1.0466  0.3997 -0.0967
  229MOL0     C30836   6.924   3.153   1.749 -0.4380 -0.3826 -1.2540
  229MOL0     C30837   6.934   3.293   1.742  0.2126 -0.2734 -0.0600
  229MOL0     C30838   6.901   3.369   1.855  0.0583  1.3627  0.6952
  229MOL0     O30839   6.922   3.506   1.848  0.4893 -0.4657 -0.3467
  229MOL0     C30840   6.813   3.592   1.905  0.6688  0.7609 -0.3943
  229MOL0     C30841   6.845   3.742   1.896 -0.0395 -0.2419 -0.3256
  229MOL0     C30842   6.971   3.776   1.975 -0.2659 -0.2810 -0.0656
  229MOL0     C30843   7.099   3.807   1.896  0.6341  0.1149  0.3646
  229MOL0     C30844   7.200   3.829   2.000 -0.5123 -0.1253  0.6877
  229MOL0     C30845   7.298   3.854   2.074  0.7783  0.7241  0.0060
  229MOL0     C30846   6.863   3.300   1.966 -0.2698  0.3513  0.7928
  229MOL0     C30847   6.850   3.157   1.972  0.5450 -0.5784 -0.2298
  229MOL0     H30848   6.680   2.744   1.675 -2.5414 -3.0731  1.0353
  229MOL0     H30849   6.641   2.497   1.742  1.4614 -3.2578  2.3913
  229MOL0     H30850   6.722   2.345   2.033  2.0395  1.5125 -1.0728
  229MOL0     H30851   6.621   2.323   1.903  0.0179  1.4461  1.5834
  229MOL0     H30852   6.851   2.130   1.974 -0.7508 -0.0761 -2.5177
  229MOL0     H30853   6.686   2.101   2.038  2.3334  1.5612  2.8642
  229MOL0     H30854   6.703   2.169   1.739 -3.0651 -1.4507 -0.5989
  229MOL0     H30855   6.758   2.012   1.784 -2.6318 -3.3666  1.4834
  229MOL0     H30856   6.555   1.940   1.871  1.7828  0.8154  1.5623
  229MOL0     H30857   6.487   2.105   1.878  0.0719 -1.3731  2.8722
  229MOL0     H30858   6.508   2.117   1.625  2.2035 -1.5002 -1.6957
  229MOL0     H30859   6.550   1.948   1.628 -0.4947  1.2388 -1.2989
  229MOL0     H30860   6.296   2.112   1.695 -2.7977 -0.5902 -0.9909
  229MOL0     H30861   6.329   1.993   1.566 -0.3831  0.7373 -0.2285
  229MOL0     H30862   6.375   1.829   1.766 -0.3795 -0.6687 -2.6823
  229MOL0     H30863   6.267   1.943   1.865  3.6452 -0.8166  2.0127
  229MOL0     H30864   6.156   1.784   1.626 -3.7580  0.5847 -0.5047
  229MOL0     H30865   6.089   1.901   1.715 -0.3266 -1.2303 -2.2865
  229MOL0     H30866   6.079   1.534   1.696 -0.4818  0.8775 -1.1546
  229MOL0     H30867   5.909   1.418   2.039  3.3347 -2.7843  0.2508
  229MOL0     H30868   5.856   1.413   1.874 -0.4772  2.3336  0.7107
  229MOL0     H30869   6.130   1.317   2.000  0.6549 -1.7422 -0.0485
  229MOL0     H30870   6.104   1.315   1.828  1.5641  0.1903  0.3683
  229MOL0     H30871   6.064   1.100   1.928  3.6256  3.4167 -1.5393
  229MOL0     H30872   5.901   1.168   1.887 -0.6837  0.9469 -1.2376
  229MOL0     H30873   5.846   1.204   2.113  0.4626  0.7737  0.3231
  229MOL0     H30874   6.010   1.237   2.160  0.7388 -2.9524  3.7340
  229MOL0     H30875   6.208   0.904   2.154  0.4183  4.3201 -1.1298
  229MOL0     H30876   6.391   0.811   2.222  0.3224 -0.1420  0.1222
  229MOL0     H30877   6.476   0.864   2.360  1.6037 -0.2140 -1.4898
  229MOL0     H30878   6.353   0.739   2.392  0.3979  0.5632 -0.5487
  229MOL0     H30879   6.503   1.056   2.769 -2.6132 -0.4353 -1.6707
  229MOL0     H30880   6.630   1.017   2.983  0.9037 -0.1705 -0.6268
  229MOL0     H30881   6.376   0.984   3.314 -1.5291 -1.5976  1.5461
  229MOL0     H30882   6.470   0.841   3.372  0.7941 -0.2645 -1.1564
  229MOL0     H30883   6.649   0.940   3.449 -0.3594 -0.4035 -0.0829
  229MOL0     H30884   6.613   1.090   3.357  0.6078  1.3830  2.2950
  229MOL0     H30885   6.458   0.974   3.601 -0.6525 -1.3762 -2.3223
  229MOL0     H30886   6.426   1.136   3.528  0.1334  0.3008  0.1341
  229MOL0     H30887   6.644   1.199   3.579  1.1026 -3.4095 -3.3284
  229MOL0     H30888   6.559   1.177   3.726  0.7404 -1.4247  0.8693
  229MOL0     H30889   6.696   0.926   3.643  1.7603  1.0178 -0.4367
  229MOL0     H30890   6.700   1.011   3.799  4.4522  4.1765  0.5580
  229MOL0     H30891   6.913   0.983   3.697 -1.4813 -0.4338  2.0673
  229MOL0     H30892   6.868   1.070   3.550  2.0450 -1.1278  0.6208
  229MOL0     H30893   6.843   1.197   3.827 -1.1476 -1.0814 -1.0375
  229MOL0     H30894   6.828   1.278   3.685 -4.3121 -1.7221  1.2483
  229MOL0     H30895   7.066   1.266   3.633  0.3336  1.6060  0.1654
  229MOL0     H30896   7.096   1.136   3.743 -1.6265 -0.7316  1.5517
  229MOL0     H30897   6.264   0.860   3.160  0.3539 -0.2902  1.7151
  229MOL0     H30898   6.153   0.922   2.958 -1.3504  2.0627 -2.0028
  229MOL0     H30899   6.065   1.054   2.592 -0.4618  3.1128 -0.3921
  229MOL0     H30900   5.926   1.123   2.401  0.0001 -2.0114  1.3071
  229MOL0     H30901   7.050   2.475   1.861 -1.4961 -0.1541  1.6848
  229MOL0     H30902   7.083   2.708   1.813 -0.4593 -0.0170  5.4248
  229MOL0     H30903   6.953   3.106   1.656 -2.0327  0.0749 -2.0134
  229MOL0     H30904   6.978   3.351   1.662  0.9403 -3.6113 -2.2767
  229MOL0     H30905   6.711   3.576   1.871  0.2097  0.6065  0.9904
  229MOL0     H30906   6.807   3.571   2.012 -1.3473 -2.2151 -0.9889
  229MOL0     H30907   6.760   3.800   1.933  0.2705 -0.7401  1.2240
  229MOL0     H30908   6.854   3.769   1.791  0.4543 -2.2109 -0.8313
  229MOL0     H30909   7.005   3.703   2.049  3.5441  0.1252 -1.2133
  229MOL0     H30910   6.951   3.865   2.036  0.0818 -0.9118  0.9936
  229MOL0     H30911   7.080   3.898   1.838  1.0341  1.1674  1.8198
  229MOL0     H30912   7.137   3.726   1.832 -2.1497  1.8104 -3.8465
  229MOL0     H30913   7.382   3.854   2.140 -0.6907 -1.7606  2.0730
  229MOL0     H30914   6.841   3.358   2.055 -1.8993 -1.6405  1.7528
  229MOL0     H30915   6.818   3.115   2.067 -1.3490  0.5618 -0.3372
  230MOL0     O30916  10.052   5.039   4.745 -0.2451  0.2464 -0.0024
  230MOL0     C30917   9.996   4.929   4.716 -0.0469  0.5495 -0.0496
  230MOL0     O30918   9.917   4.910   4.607  0.7865  0.2054  0.7481
  230MOL0     C30919   9.869   5.021   4.538  0.1300 -1.0131  0.3729
  230MOL0     C30920   9.872   5.019   4.399 -0.7727  0.1023  0.1990
  230MOL0     C30921   9.833   5.130   4.324 -0.5593 -0.1190 -0.2997
  230MOL0     C30922   9.763   5.237   4.390 -0.1787 -0.2133  0.1919
  230MOL0     O30923   9.707   5.342   4.306 -0.3298 -0.3029  0.7513
  230MOL0     C30924   9.679   5.322   4.165 -0.2466 -0.5817 -0.0815
  230MOL0     C30925   9.591   5.423   4.091  0.5754  0.2394 -0.6288
  230MOL0     C30926   9.571   5.392   3.950  0.8857 -0.6365 -0.0231
  230MOL0     C30927   9.445   5.463   3.887 -0.3523  0.9443  0.2117
  230MOL0     C30928   9.454   5.442   3.731  0.0984 -0.0694 -0.0530
  230MOL0     C30929   9.353   5.512   3.648  0.9213  0.0039 -0.5753
  230MOL0     C30930   9.378   5.667   3.629  0.1987 -0.1030  0.2047
  230MOL0     C30931   9.259   5.737   3.556  0.1390 -0.0001  0.0848
  230MOL0     N30932   9.262   5.692   3.413 -1.0355 -0.0684 -0.0625
  230MOL0     C30933   9.345   5.744   3.322  0.2981 -0.7398 -0.1328
  230MOL0     C30934   9.307   5.701   3.205  0.7014  0.1531  0.3353
  230MOL0     C30935   9.392   5.709   3.083  0.1258 -0.1219  0.4934
  230MOL0     C30936   9.308   5.678   2.954  0.4591  0.3875 -0.1855
  230MOL0     C30937   9.395   5.677   2.832  0.0127 -0.2801  0.5647
  230MOL0     C30938   9.461   5.816   2.785  0.4383  0.1062  0.5303
  230MOL0     O30939   9.564   5.805   2.686  0.8138 -0.0586 -0.1917
  230MOL0     C30940   9.642   5.912   2.663 -0.0052 -0.4546  0.5356
  230MOL0     C30941   9.594   6.040   2.689  0.3000 -0.1132  0.2730
  230MOL0     C30942   9.671   6.153   2.672 -0.1595  0.0342 -0.4950
  230MOL0     C30943   9.622   6.285   2.707 -0.2767  0.1704  0.1490
  230MOL0     C30944   9.802   6.139   2.629 -0.1638  0.5162  0.2315
  230MOL0     C30945   9.896   6.248   2.590 -0.3579  1.3190 -0.1479
  230MOL0     O30946  10.014   6.239   2.643  0.1682  0.6377 -0.2838
  230MOL0     C30947  10.101   6.347   2.629 -1.4014 -0.4885 -0.4355
  230MOL0     C30948  10.142   6.381   2.500 -0.6637 -0.2620  0.3617
  230MOL0     C30949  10.234   6.481   2.474 -0.1956 -0.1950 -0.1203
  230MOL0     C30950  10.278   6.564   2.575  0.3197  0.0658 -0.2641
  230MOL0     O30951  10.378   6.664   2.562  0.6029  0.3111  0.8665
  230MOL0     C30952  10.411   6.719   2.436 -0.6894 -0.2056  0.1103
  230MOL0     C30953  10.493   6.848   2.441  0.6052  0.4808 -0.0660
  230MOL0     C30954  10.550   6.885   2.309 -0.3742  0.2299 -0.8364
  230MOL0     C30955  10.446   6.872   2.190 -0.9162  0.4843 -0.4121
  230MOL0     C30956  10.520   6.907   2.052  0.1776  0.1407  0.0310
  230MOL0     C30957  10.539   7.057   2.017  0.1633  0.2805 -1.1391
  230MOL0     C30958  10.627   7.079   1.897  0.0901 -0.3778  0.0253
  230MOL0     C30959  10.635   7.221   1.841 -0.9196 -0.4889 -0.5186
  230MOL0    Cl30960  10.774   7.210   1.730  0.0767 -0.5917 -0.2459
  230MOL0     C30961  10.224   6.540   2.707 -0.7054 -0.4272 -0.1474
  230MOL0     C30962  10.137   6.436   2.732  0.3765 -0.1805  0.2829
  230MOL0     O30963   9.862   6.342   2.516  0.0628  0.7713  1.2488
  230MOL0     C30964   9.857   6.003   2.615  0.5295 -0.6093 -0.2549
  230MOL0     C30965   9.773   5.893   2.630 -0.4163  0.4470 -0.3920
  230MOL0     N30966   9.188   5.632   3.213 -0.8493  0.5136  0.2194
  230MOL0     N30967   9.155   5.639   3.341 -0.5161 -0.0880 -0.2198
  230MOL0     C30968   9.758   5.244   4.534  0.0794 -0.3671  0.1782
  230MOL0     C30969   9.811   5.133   4.596  0.5181  1.3844 -0.6656
  230MOL0     C30970  10.046   4.806   4.788 -1.2786  0.3232 -0.1877
  230MOL0     C30971  10.030   4.679   4.730 -0.4296 -1.0242  0.3751
  230MOL0     C30972  10.071   4.562   4.799 -0.9430  0.0476  0.1954
  230MOL0     C30973  10.116   4.563   4.931  0.1185 -0.5097 -0.9235
  230MOL0     O30974  10.135   4.444   4.986  0.4912 -0.6713 -0.6320
  230MOL0     C30975  10.223   4.438   5.104  0.3096 -0.2281  0.2117
  230MOL0     C30976  10.259   4.292   5.118  0.7734  0.8122 -0.0356
  230MOL0     C30977  10.370   4.237   5.033 -0.0851  0.5713  0.0027
  230MOL0     C30978  10.414   4.100   5.089  0.0263  0.4873 -1.1338
  230MOL0     C30979  10.305   4.011   5.138  0.2483  0.7541  0.8480
  230MOL0     C30980  10.219   3.941   5.175  0.3480 -0.5375  0.0230
  230MOL0     C30981  10.147   4.693   4.982 -0.6321  0.3141  0.5046
  230MOL0     C30982  10.105   4.811   4.917  0.1667  0.1029  0.5244
  230MOL0     H30983   9.924   4.935   4.353 -2.8487 -0.7158 -0.7921
  230MOL0     H30984   9.858   5.113   4.220  0.4638 -0.9012  0.0601
  230MOL0     H30985   9.781   5.326   4.127  0.6405 -2.4035  1.9296
  230MOL0     H30986   9.646   5.220   4.142  4.3489 -3.0426  2.7892
  230MOL0     H30987   9.494   5.416   4.141  0.2340  0.2705 -1.2733
  230MOL0     H30988   9.630   5.524   4.111  1.0037  0.0252 -0.3791
  230MOL0     H30989   9.663   5.430   3.904  0.5146  0.4814  0.1118
  230MOL0     H30990   9.574   5.285   3.928 -0.5655 -1.3746  2.8482
  230MOL0     H30991   9.352   5.421   3.925  0.6716 -0.6740  1.0243
  230MOL0     H30992   9.456   5.568   3.917  2.7640  0.2405  1.9717
  230MOL0     H30993   9.549   5.453   3.678 -0.4756  1.1547 -0.8775
  230MOL0     H30994   9.420   5.338   3.730 -3.3016  0.8237 -3.6487
  230MOL0     H30995   9.358   5.460   3.552 -3.0991  0.4949 -1.2656
  230MOL0     H30996   9.253   5.493   3.688  0.1260  1.0322 -1.9632
  230MOL0     H30997   9.403   5.709   3.727 -1.4433 -0.8942  0.9939
  230MOL0     H30998   9.463   5.696   3.565 -1.0280  2.0946 -0.5090
  230MOL0     H30999   9.257   5.847   3.551 -0.3608 -0.0638 -3.8981
  230MOL0     H31000   9.167   5.702   3.603 -1.2404  2.5204 -0.5613
  230MOL0     H31001   9.438   5.800   3.336 -0.8918  1.3524 -0.1089
  230MOL0     H31002   9.443   5.805   3.071 -2.3942  0.9596 -3.5690
  230MOL0     H31003   9.463   5.626   3.095  0.3115 -0.4538 -2.2187
  230MOL0     H31004   9.226   5.749   2.951  0.4824  0.4287  0.1403
  230MOL0     H31005   9.258   5.580   2.947  1.5388 -0.1322 -0.9555
  230MOL0     H31006   9.331   5.645   2.749  0.1798 -0.4350  0.4955
  230MOL0     H31007   9.479   5.608   2.845  0.4419 -0.4107 -2.2790
  230MOL0     H31008   9.489   5.872   2.874 -0.7534 -0.2393  1.1383
  230MOL0     H31009   9.380   5.875   2.741  1.0973 -0.4930 -1.6283
  230MOL0     H31010   9.493   6.058   2.724 -0.3360 -1.6492 -0.6684
  230MOL0     H31011   9.699   6.358   2.732 -0.3221  0.8259 -1.5462
  230MOL0     H31012   9.569   6.326   2.621  1.1599  2.0270  0.0998
  230MOL0     H31013   9.557   6.272   2.795  2.0833  2.1725  2.3474
  230MOL0     H31014  10.113   6.316   2.418 -0.2169 -0.2789  0.2153
  230MOL0     H31015  10.277   6.485   2.374  1.2665  1.7347  0.5281
  230MOL0     H31016  10.467   6.650   2.373  1.8212  1.9905 -0.2894
  230MOL0     H31017  10.317   6.744   2.386 -0.3966 -1.7023 -1.2464
  230MOL0     H31018  10.433   6.934   2.471 -0.6083  1.8767 -5.5553
  230MOL0     H31019  10.575   6.836   2.513  0.7270  1.1635 -0.0904
  230MOL0     H31020  10.628   6.812   2.286 -0.8274 -1.1946  1.7736
  230MOL0     H31021  10.597   6.984   2.312  0.4778 -0.1867  0.9006
  230MOL0     H31022  10.415   6.767   2.183 -0.3335 -0.1084  3.7462
  230MOL0     H31023  10.358   6.933   2.212  0.2410  1.6738  1.0314
  230MOL0     H31024  10.468   6.849   1.975  1.3462  0.1977 -0.8273
  230MOL0     H31025  10.620   6.862   2.050  0.2902  0.4280 -1.7676
  230MOL0     H31026  10.435   7.088   2.005  0.5793  2.6563  0.7710
  230MOL0     H31027  10.578   7.103   2.108 -0.9733 -0.1845 -0.3879
  230MOL0     H31028  10.573   7.017   1.825 -0.4033  0.2407 -0.1405
  230MOL0     H31029  10.723   7.029   1.914 -0.4908 -1.4843  0.0683
  230MOL0     H31030  10.670   7.288   1.920 -0.0123 -2.2098  0.5764
  230MOL0     H31031  10.542   7.252   1.792 -0.0834  2.1064 -0.6547
  230MOL0     H31032  10.261   6.605   2.785  0.2027 -2.2187  1.0044
  230MOL0     H31033  10.108   6.426   2.837  1.4414 -2.4670  0.4180
  230MOL0     H31034   9.960   5.975   2.595  0.1213 -4.3549  1.8676
  230MOL0     H31035   9.821   5.796   2.621  1.7252  1.0233  2.9932
  230MOL0     H31036   9.720   5.327   4.592  1.0030  0.0123  0.2597
  230MOL0     H31037   9.809   5.138   4.705  0.6662 -1.6086 -0.4638
  230MOL0     H31038   9.970   4.660   4.641  1.5574 -2.5091 -0.7293
  230MOL0     H31039  10.064   4.469   4.743  2.4782 -0.0816 -0.2503
  230MOL0     H31040  10.309   4.504   5.088  0.0168  0.5069  1.5039
  230MOL0     H31041  10.169   4.467   5.195  0.3764 -2.0523  0.8720
  230MOL0     H31042  10.169   4.230   5.122 -0.1221  1.9878 -0.8900
  230MOL0     H31043  10.280   4.305   5.224 -0.0187  1.5162  0.0504
  230MOL0     H31044  10.455   4.306   5.029  0.5622 -0.2271 -3.8716
  230MOL0     H31045  10.323   4.227   4.935 -3.6166  0.1098  1.5854
  230MOL0     H31046  10.479   4.119   5.175 -0.2639  0.8990 -1.0028
  230MOL0     H31047  10.472   4.044   5.015  0.7797 -0.4144  0.1099
  230MOL0     H31048  10.154   3.860   5.199 -0.1198 -0.3985 -0.7240
  230MOL0     H31049  10.185   4.709   5.083 -3.8105  0.4595  1.8127
  230MOL0     H31050  10.124   4.912   4.954 -0.0708  1.0279 -1.6867
  231MOL0     O31051  11.454   0.179   6.552  0.3275  0.2093  0.6017
  231MOL0     C31052  11.363   0.198   6.478 -0.0425 -0.4131  0.8207
  231MOL0     O31053  11.283   0.309   6.478 -0.5919  0.2261 -0.6783
  231MOL0     C31054  11.326   0.423   6.549 -0.2880  0.8929 -0.4271
  231MOL0     C31055  11.456   0.468   6.559  1.0256  0.2482  0.7757
  231MOL0     C31056  11.486   0.599   6.610  0.2129  0.4131  0.8262
  231MOL0     C31057  11.391   0.684   6.667  0.2955 -0.4866  0.4752
  231MOL0     O31058  11.427   0.812   6.706  0.3558  0.5468  0.4595
  231MOL0     C31059  11.461   0.806   6.844  0.4792 -0.1993  0.2838
  231MOL0     C31060  11.542   0.936   6.881 -0.0738 -0.7597 -0.8537
  231MOL0     C31061  11.700   0.923   6.854  0.1652  0.4504 -0.3571
  231MOL0     C31062  11.781   0.975   6.977  0.5560  1.2202  0.1718
  231MOL0     C31063  11.941   0.966   6.949 -0.1204 -0.7487  0.0862
  231MOL0     C31064  12.028   1.029   7.058  0.6261  0.3761  0.2899
  231MOL0     C31065  12.178   1.050   7.005 -0.5772 -0.0495 -0.6714
  231MOL0     C31066  12.281   1.100   7.118 -0.2917  0.9199 -0.7413
  231MOL0     N31067  12.344   0.976   7.160  0.2273 -0.5361 -0.3834
  231MOL0     C31068  12.310   0.894   7.263 -0.4375  0.5463  0.5535
  231MOL0     C31069  12.374   0.777   7.231  0.4571 -0.2432  0.0975
  231MOL0     C31070  12.356   0.647   7.300  0.3519 -0.0436 -0.0631
  231MOL0     C31071  12.210   0.614   7.322 -0.3794  0.8292  0.1879
  231MOL0     C31072  12.136   0.608   7.191  1.6408  0.2532  0.5284
  231MOL0     C31073  11.978   0.584   7.202 -0.3792  1.3575 -0.6446
  231MOL0     O31074  11.925   0.709   7.223 -0.2577  0.4248  0.3334
  231MOL0     C31075  11.791   0.718   7.246 -0.7783  0.5064 -0.6728
  231MOL0     C31076  11.751   0.823   7.328 -0.1156  0.4973  0.2891
  231MOL0     C31077  11.607   0.850   7.347  0.3416 -0.7326 -1.0574
  231MOL0     C31078  11.578   0.964   7.446 -0.1552  0.2606  0.0975
  231MOL0     C31079  11.521   0.779   7.261 -0.4141 -0.3311  0.0573
  231MOL0     C31080  11.378   0.801   7.266  0.4491 -0.1252 -0.0197
  231MOL0     O31081  11.325   0.876   7.371 -0.9401 -0.0070  0.1792
  231MOL0     C31082  11.199   0.916   7.352  0.6973  0.0878 -0.3845
  231MOL0     C31083  11.174   1.045   7.299 -0.0127  0.2262  0.0342
  231MOL0     C31084  11.054   1.092   7.261  0.0489  1.0699 -0.0236
  231MOL0     C31085  10.944   1.015   7.301  0.3910 -0.0271  0.2524
  231MOL0     O31086  10.819   1.060   7.265 -0.4507  0.0363  0.4359
  231MOL0     C31087  10.774   1.014   7.144  0.5017  0.3153  0.2930
  231MOL0     C31088  10.616   1.005   7.138 -0.0484  0.7590  1.1996
  231MOL0     C31089  10.568   1.150   7.138  0.1125 -0.0100  0.2404
  231MOL0     C31090  10.419   1.161   7.171  0.2460  1.1955 -0.2290
  231MOL0     C31091  10.363   1.300   7.177 -0.4663 -0.2877  0.6351
  231MOL0     C31092  10.227   1.294   7.238 -0.1900 -0.9943 -0.2339
  231MOL0     C31093  10.173   1.433   7.216 -0.1064 -0.2798 -0.4784
  231MOL0     C31094  10.236   1.567   7.288 -0.0397  0.2468 -0.2110
  231MOL0    Cl31095  10.217   1.567   7.471 -0.0783 -0.2546  0.1441
  231MOL0     C31096  10.961   0.882   7.344  0.4221 -1.3192  0.6381
  231MOL0     C31097  11.090   0.832   7.376  0.2477 -0.5998  0.1166
  231MOL0     O31098  11.300   0.752   7.177  0.4825 -1.2407  0.1677
  231MOL0     C31099  11.564   0.668   7.188 -1.1905 -0.1408  0.0482
  231MOL0     C31100  11.699   0.631   7.187  0.7378  0.0302  0.7869
  231MOL0     N31101  12.458   0.801   7.125 -0.0220 -0.0547 -0.1235
  231MOL0     N31102  12.440   0.912   7.084  0.6806 -0.2296  0.1973
  231MOL0     C31103  11.258   0.633   6.668  0.3908  0.5593  0.6274
  231MOL0     C31104  11.227   0.503   6.611 -0.3308  0.3133 -0.4067
  231MOL0     C31105  11.329   0.091   6.381 -0.8366 -0.1129  0.1668
  231MOL0     C31106  11.222   0.097   6.290  0.1745 -0.5861 -0.2588
  231MOL0     C31107  11.180  -0.009   6.216 -0.7803  0.1609 -0.2167
  231MOL0     C31108  11.246  -0.137   6.213 -0.1717 -0.2658 -0.8695
  231MOL0     O31109  11.200  -0.242   6.127 -0.0170  0.8781  0.4478
  231MOL0     C31110  11.302  -0.336   6.084  0.9524 -0.4948 -0.5861
  231MOL0     C31111  11.313  -0.460   6.176  0.0873  0.9135 -0.4227
  231MOL0     C31112  11.452  -0.533   6.172 -0.1740 -0.4146 -0.1115
  231MOL0     C31113  11.503  -0.578   6.034  0.1259 -0.3757  0.2731
  231MOL0     C31114  11.421  -0.675   5.968 -0.0315 -0.9021  0.4760
  231MOL0     C31115  11.338  -0.750   5.921  0.1667  0.2926  0.6683
  231MOL0     C31116  11.354  -0.141   6.305  0.0422  0.7517 -0.4180
  231MOL0     C31117  11.396  -0.030   6.386 -0.4926  0.5616  0.9629
  231MOL0     H31118  11.535   0.406   6.517  0.4821 -0.1749  0.3688
  231MOL0     H31119  11.582   0.647   6.625  0.5091 -0.2080  0.9741
  231MOL0     H31120  11.371   0.797   6.904  1.4171 -1.7172  1.5380
  231MOL0     H31121  11.522   0.716   6.860 -1.2781 -1.4756  0.0713
  231MOL0     H31122  11.495   1.020   6.829 -0.0460 -0.0652  0.2120
  231MOL0     H31123  11.527   0.967   6.985  1.3340  1.4113 -1.2487
  231MOL0     H31124  11.744   0.829   6.818  0.7490 -0.2935  2.1360
  231MOL0     H31125  11.711   0.998   6.775 -1.3315  0.2509 -0.7906
  231MOL0     H31126  11.764   1.078   7.009  2.3052  1.2246  1.2547
  231MOL0     H31127  11.759   0.910   7.062  1.3690  3.9445  2.6376
  231MOL0     H31128  11.968   0.860   6.936  1.2145 -0.4527  0.3004
  231MOL0     H31129  11.958   1.010   6.851 -0.3183  0.5697  0.6265
  231MOL0     H31130  11.984   1.121   7.100 -3.1199 -1.6204  1.2225
  231MOL0     H31131  12.030   0.967   7.148  0.7350  3.0895  2.3009
  231MOL0     H31132  12.205   0.950   6.971 -1.8058 -0.7597  0.3824
  231MOL0     H31133  12.165   1.127   6.929 -2.6943 -0.3329 -0.6477
  231MOL0     H31134  12.225   1.155   7.194  1.6245  2.8035 -0.5631
  231MOL0     H31135  12.348   1.166   7.062 -0.3314 -0.2874 -2.2833
  231MOL0     H31136  12.235   0.915   7.339  0.6640 -1.2044  2.2355
  231MOL0     H31137  12.397   0.576   7.227 -0.9680  0.5459 -1.4247
  231MOL0     H31138  12.415   0.640   7.392  0.8094 -1.1511 -0.4180
  231MOL0     H31139  12.166   0.684   7.394 -1.0246 -0.3006  0.9237
  231MOL0     H31140  12.200   0.515   7.369 -0.1751  0.6580 -0.1292
  231MOL0     H31141  12.182   0.526   7.135 -0.0653  0.0448 -0.6496
  231MOL0     H31142  12.149   0.706   7.143  0.3244  0.0437 -0.3056
  231MOL0     H31143  11.955   0.511   7.280  2.2676 -0.7413 -1.6678
  231MOL0     H31144  11.950   0.533   7.109 -2.1705 -2.1287  1.5912
  231MOL0     H31145  11.833   0.883   7.367  1.8708 -2.1296  0.4551
  231MOL0     H31146  11.534   0.932   7.541  0.3213 -1.1912 -0.1452
  231MOL0     H31147  11.669   1.019   7.471  0.8423 -0.7908 -1.0815
  231MOL0     H31148  11.513   1.037   7.397 -0.5036 -1.3045 -1.8962
  231MOL0     H31149  11.254   1.109   7.262  1.4046 -0.8032  1.2190
  231MOL0     H31150  11.046   1.186   7.207 -1.1189  0.2514 -1.3340
  231MOL0     H31151  10.812   1.074   7.061 -0.7283 -0.2912 -0.7375
  231MOL0     H31152  10.805   0.912   7.121 -0.2200  0.1664 -0.0460
  231MOL0     H31153  10.582   0.947   7.052  2.3348  0.1155  0.6066
  231MOL0     H31154  10.588   0.944   7.224  1.1124 -1.2934  0.2049
  231MOL0     H31155  10.572   1.186   7.035 -0.6902  0.6866  0.4439
  231MOL0     H31156  10.633   1.202   7.209 -1.6721 -0.5999  2.4239
  231MOL0     H31157  10.367   1.108   7.090 -2.7852  0.0916  2.2416
  231MOL0     H31158  10.393   1.104   7.261  0.6262  1.3577 -0.0146
  231MOL0     H31159  10.363   1.348   7.078 -2.1376 -3.3088 -0.9680
  231MOL0     H31160  10.427   1.361   7.242  0.4307 -1.5163  0.9496
  231MOL0     H31161  10.166   1.224   7.180 -3.2614 -0.1754  1.7777
  231MOL0     H31162  10.221   1.259   7.341  0.0980 -1.7964 -0.4864
  231MOL0     H31163  10.067   1.424   7.241  0.0573  1.2278  0.8885
  231MOL0     H31164  10.160   1.446   7.108 -0.3796 -2.4862 -0.7637
  231MOL0     H31165  10.177   1.649   7.246 -2.0073 -1.2126 -0.4329
  231MOL0     H31166  10.341   1.582   7.262  0.8769 -1.4227  2.1741
  231MOL0     H31167  10.872   0.822   7.361 -0.5384  0.2181  1.1700
  231MOL0     H31168  11.097   0.735   7.423 -1.4086 -0.1146  1.4857
  231MOL0     H31169  11.491   0.617   7.126 -0.9247  0.9051 -1.1708
  231MOL0     H31170  11.740   0.559   7.117  1.9369 -0.1906  1.6861
  231MOL0     H31171  11.186   0.694   6.722  0.1994 -0.8652  2.0760
  231MOL0     H31172  11.122   0.477   6.604 -0.3143  0.5996 -2.4153
  231MOL0     H31173  11.171   0.192   6.293 -1.2806 -1.2072 -2.6253
  231MOL0     H31174  11.090   0.016   6.161 -1.9940 -0.4466  1.4345
  231MOL0     H31175  11.272  -0.371   5.985 -0.2303  0.3234 -0.5417
  231MOL0     H31176  11.399  -0.288   6.068  0.1322  0.8216 -1.8341
  231MOL0     H31177  11.251  -0.546   6.150  0.2658  0.2877  1.1150
  231MOL0     H31178  11.274  -0.436   6.276  0.2116  4.4951 -1.0857
  231MOL0     H31179  11.456  -0.627   6.229 -0.5733 -1.2083 -1.3401
  231MOL0     H31180  11.532  -0.476   6.220  2.4201 -2.9859 -1.0606
  231MOL0     H31181  11.605  -0.615   6.042 -0.8668 -3.2949  0.6087
  231MOL0     H31182  11.514  -0.486   5.976  0.7690 -0.7200 -0.1506
  231MOL0     H31183  11.273  -0.819   5.871  2.1487 -0.4039 -1.0793
  231MOL0     H31184  11.389  -0.244   6.311 -2.0466  0.0185  0.2621
  231MOL0     H31185  11.476  -0.032   6.460 -1.2490  0.1050  1.7969
  232MOL0     O31186  11.218  10.993   6.789 -0.9247  0.1035  0.5016
  232MOL0     C31187  11.207  11.112   6.759  0.6339  0.5516  0.1884
  232MOL0     O31188  11.124  11.153   6.655  0.8485  0.6666  0.9216
  232MOL0     C31189  11.058  11.069   6.561  0.2654 -0.6029 -0.6141
  232MOL0     C31190  11.027  11.126   6.431 -0.5344  0.3911 -0.1358
  232MOL0     C31191  10.948  11.038   6.348  1.4520  0.5824  0.8447
  232MOL0     C31192  10.933  10.905   6.379 -0.4733 -0.5487  0.4551
  232MOL0     O31193  10.888  10.835   6.279 -1.1456  0.7018  0.4275
  232MOL0     C31194  10.914  10.695   6.270 -0.1965 -0.3204  0.9489
  232MOL0     C31195  11.023  10.673   6.154 -0.4713  0.7569  0.3113
  232MOL0     C31196  11.029  10.514   6.150  0.1069 -0.5374  0.8105
  232MOL0     C31197  11.114  10.453   6.260 -0.4862 -0.3398 -0.8365
  232MOL0     C31198  11.041  10.327   6.321 -0.2991 -0.3146  0.6108
  232MOL0     C31199  10.923  10.357   6.416  0.1089  0.5322 -0.8219
  232MOL0     C31200  10.859  10.232   6.469 -0.3869  0.3822  0.1594
  232MOL0     C31201  10.765  10.166   6.363  0.0533  0.2490 -0.0567
  232MOL0     N31202  10.674  10.057   6.417  0.0454  0.7182  0.3279
  232MOL0     C31203  10.566  10.000   6.350  0.2198 -0.4939 -0.0681
  232MOL0     C31204  10.518   9.917   6.448 -0.2945 -0.2778 -0.3577
  232MOL0     C31205  10.402   9.829   6.433  0.3404 -0.1093  0.4809
  232MOL0     C31206  10.424   9.717   6.327 -0.4301  0.6276  0.6124
  232MOL0     C31207  10.541   9.627   6.349 -1.0831 -0.2339 -1.0775
  232MOL0     C31208  10.553   9.525   6.230 -0.8068 -0.4672 -0.4643
  232MOL0     O31209  10.668   9.454   6.261 -0.4610  0.7225  0.2925
  232MOL0     C31210  10.677   9.354   6.361 -0.1216  0.0435  0.2463
  232MOL0     C31211  10.780   9.359   6.451 -0.9832  0.7443 -0.2697
  232MOL0     C31212  10.791   9.277   6.563 -0.1201 -0.2365  0.9065
  232MOL0     C31213  10.911   9.302   6.655  0.4299 -0.2387  0.2475
  232MOL0     C31214  10.688   9.185   6.582 -0.3732 -0.4308  0.2097
  232MOL0     C31215  10.684   9.083   6.694 -0.4305 -1.0167  0.3780
  232MOL0     O31216  10.558   9.042   6.719 -0.1913  0.3371  0.6337
  232MOL0     C31217  10.538   8.958   6.824 -0.5113  0.0475  0.1444
  232MOL0     C31218  10.531   9.019   6.956 -0.7292 -0.0016  0.4671
  232MOL0     C31219  10.509   8.939   7.066  0.6079  0.5432 -0.1350
  232MOL0     C31220  10.489   8.801   7.052  1.2414 -0.6070  1.0716
  232MOL0     O31221  10.467   8.711   7.155 -0.3050 -0.1240  0.2413
  232MOL0     C31222  10.357   8.727   7.244  0.5318  0.1386 -0.3205
  232MOL0     C31223  10.230   8.668   7.176 -0.0375  0.0251 -0.0549
  232MOL0     C31224  10.248   8.521   7.127  0.8063  0.5467 -0.8134
  232MOL0     C31225  10.357   8.425   7.179  0.1564  0.7985  0.2349
  232MOL0     C31226  10.369   8.309   7.082  0.3980 -0.0151  0.3970
  232MOL0     C31227  10.252   8.206   7.087 -0.5628  0.7187  0.7730
  232MOL0     C31228  10.280   8.079   6.999  0.5219 -0.1070  0.7373
  232MOL0     C31229  10.196   7.969   7.039 -0.3981  0.3514  0.8246
  232MOL0    Cl31230  10.242   7.819   6.952 -0.0012 -0.8757  0.1392
  232MOL0     C31231  10.499   8.745   6.927 -1.3645  0.1352 -0.6635
  232MOL0     C31232  10.513   8.820   6.807 -0.1110 -0.5416 -0.7514
  232MOL0     O31233  10.780   9.046   6.758 -0.8552 -0.1582 -0.9620
  232MOL0     C31234  10.578   9.179   6.487 -0.0700  0.6727  0.0266
  232MOL0     C31235  10.572   9.262   6.374  0.8145  0.2093  0.8281
  232MOL0     N31236  10.595   9.914   6.561  0.0336 -0.3032  0.5337
  232MOL0     N31237  10.686  10.001   6.543 -0.0197 -0.0657  0.3521
  232MOL0     C31238  10.956  10.866   6.503 -0.3312  0.2479  0.4962
  232MOL0     C31239  11.018  10.942   6.598 -0.4966  0.4027 -0.5103
  232MOL0     C31240  11.289  11.223   6.821  0.0759  0.0834  0.5365
  232MOL0     C31241  11.327  11.338   6.748  0.3101  0.7534  0.1290
  232MOL0     C31242  11.390  11.445   6.821 -0.7852  1.2243 -0.2526
  232MOL0     C31243  11.421  11.440   6.954  0.0849  0.0990 -0.0538
  232MOL0     O31244  11.470  11.550   7.022 -0.2446 -0.4379  0.0096
  232MOL0     C31245  11.608  11.585   6.986  0.5109 -0.0181  0.5483
  232MOL0     C31246  11.692  11.626   7.122 -0.0451 -0.7383  0.6740
  232MOL0     C31247  11.844  11.638   7.091 -1.2566  0.2800 -0.4672
  232MOL0     C31248  11.918  11.695   7.211  0.3580 -1.0016 -0.3182
  232MOL0     C31249  12.064  11.727   7.192 -0.2997  1.1593 -0.9364
  232MOL0     C31250  12.170  11.745   7.144 -0.1033  0.2890 -0.5832
  232MOL0     C31251  11.391  11.324   7.027  0.0251 -0.2397 -0.5837
  232MOL0     C31252  11.324  11.221   6.960  0.4116 -0.3688 -0.7336
  232MOL0     H31253  11.057  11.229   6.414  3.4415 -0.2430  1.6401
  232MOL0     H31254  10.903  11.086   6.262 -0.2489 -0.2059  1.2638
  232MOL0     H31255  10.954  10.640   6.356  0.2017  0.4682  1.2840
  232MOL0     H31256  10.818  10.659   6.231 -1.2596  2.8495  0.3146
  232MOL0     H31257  10.990  10.724   6.063 -1.3141 -0.3411 -0.0189
  232MOL0     H31258  11.122  10.704   6.189 -1.5113  0.5029  3.8818
  232MOL0     H31259  10.927  10.475   6.140 -0.3935  0.9222 -0.2612
  232MOL0     H31260  11.089  10.491   6.062  0.0193  1.9569  0.0144
  232MOL0     H31261  11.213  10.423   6.224  2.1334  4.6574  1.2815
  232MOL0     H31262  11.135  10.525   6.339 -0.4590 -0.9051 -0.3212
  232MOL0     H31263  10.999  10.269   6.238  0.6388  2.4192 -1.9421
  232MOL0     H31264  11.123  10.277   6.372  0.6553  0.0882 -0.4727
  232MOL0     H31265  10.962  10.397   6.511 -0.5099 -1.5401  0.3753
  232MOL0     H31266  10.853  10.434   6.384 -2.2274  0.7183  3.8781
  232MOL0     H31267  10.935  10.157   6.489 -2.5760 -2.9258 -2.6829
  232MOL0     H31268  10.799  10.256   6.557  1.6388 -2.0005  2.3246
  232MOL0     H31269  10.813  10.125   6.274 -2.3503 -0.7851 -0.9675
  232MOL0     H31270  10.707  10.251   6.325 -0.8449 -1.0774 -1.7591
  232MOL0     H31271  10.545  10.027   6.247  0.2554  0.3755  0.1449
  232MOL0     H31272  10.389   9.779   6.530 -0.4444 -3.2413 -1.1161
  232MOL0     H31273  10.314   9.887   6.403  1.3504  1.5021  0.4876
  232MOL0     H31274  10.421   9.760   6.226 -2.2607  1.9007  1.1560
  232MOL0     H31275  10.336   9.651   6.324 -1.6835  2.1779 -2.6899
  232MOL0     H31276  10.520   9.562   6.435  1.3955 -3.2212 -2.5487
  232MOL0     H31277  10.632   9.685   6.361 -0.9669 -0.7858  1.3755
  232MOL0     H31278  10.591   9.571   6.139  1.7989  1.4193  1.4120
  232MOL0     H31279  10.464   9.464   6.214  0.8658 -2.9709 -0.7651
  232MOL0     H31280  10.857   9.433   6.434  0.4600  0.1063  2.8260
  232MOL0     H31281  10.870   9.344   6.748 -2.9800 -3.3969  0.4030
  232MOL0     H31282  10.954   9.203   6.671  1.2542 -0.5652 -3.1464
  232MOL0     H31283  10.987   9.372   6.619 -1.6786  1.3075 -1.4261
  232MOL0     H31284  10.536   9.124   6.984 -1.1154 -0.4229  2.2157
  232MOL0     H31285  10.501   8.983   7.165  0.4663 -0.1454  0.1681
  232MOL0     H31286  10.390   8.674   7.334 -0.8853 -1.3379 -0.6205
  232MOL0     H31287  10.342   8.830   7.279 -0.6829 -0.6967  1.8559
  232MOL0     H31288  10.155   8.667   7.255  1.4274  2.9556  1.5512
  232MOL0     H31289  10.206   8.739   7.096  2.0034  0.7605 -0.0954
  232MOL0     H31290  10.258   8.534   7.019 -3.7814  3.3672 -1.1637
  232MOL0     H31291  10.150   8.475   7.143  1.0315 -0.1079 -1.2727
  232MOL0     H31292  10.446   8.488   7.176  0.7364 -0.0330 -1.8723
  232MOL0     H31293  10.341   8.387   7.281 -1.5506 -0.2474 -0.3763
  232MOL0     H31294  10.460   8.258   7.114  1.5046  2.1327  0.7685
  232MOL0     H31295  10.393   8.358   6.987  3.6793  2.6834  2.4312
  232MOL0     H31296  10.251   8.171   7.191  2.8446 -2.9722 -0.1690
  232MOL0     H31297  10.156   8.253   7.066 -1.6937 -0.0616  3.7390
  232MOL0     H31298  10.385   8.053   7.016  0.7065 -0.5147 -0.8834
  232MOL0     H31299  10.269   8.100   6.892  3.9879  0.7058  0.4224
  232MOL0     H31300  10.094   7.997   7.012 -0.7553 -1.1812  0.5062
  232MOL0     H31301  10.212   7.958   7.147  1.2352 -0.5602  0.5095
  232MOL0     H31302  10.507   8.637   6.924 -4.1048 -0.2993  1.9613
  232MOL0     H31303  10.505   8.771   6.711 -1.9455 -0.4154 -0.6913
  232MOL0     H31304  10.493   9.114   6.504  2.3545 -2.2182  2.2531
  232MOL0     H31305  10.489   9.253   6.304  2.2910 -1.2356 -0.8484
  232MOL0     H31306  10.923  10.770   6.542  1.9427 -0.4572  0.8235
  232MOL0     H31307  11.029  10.892   6.694  0.1605  0.0144 -0.7866
  232MOL0     H31308  11.306  11.344   6.641 -3.3386 -0.0349  0.6866
  232MOL0     H31309  11.409  11.536   6.766 -0.1069  2.9546  2.6407
  232MOL0     H31310  11.662  11.504   6.937 -0.9397  0.1080 -1.3510
  232MOL0     H31311  11.604  11.666   6.913 -1.4977  0.9162  1.6274
  232MOL0     H31312  11.682  11.551   7.200 -0.4727 -1.8235 -0.3928
  232MOL0     H31313  11.649  11.721   7.157 -0.4797  0.1456 -2.0117
  232MOL0     H31314  11.856  11.708   7.007  0.6533  0.9674  0.3248
  232MOL0     H31315  11.884  11.540   7.065  0.4300  1.0196 -0.7962
  232MOL0     H31316  11.922  11.620   7.291 -4.3183 -1.0858  0.0869
  232MOL0     H31317  11.867  11.779   7.260  1.6265 -0.5313  0.2505
  232MOL0     H31318  12.266  11.767   7.102  0.3885  1.2482  0.9575
  232MOL0     H31319  11.408  11.340   7.133  0.8878  0.6239 -0.8372
  232MOL0     H31320  11.270  11.143   7.013 -1.7466  2.5201  1.6405
  233MOL0     O31321   1.107   7.617   1.735 -0.0259  0.6081 -0.6215
  233MOL0     C31322   1.015   7.543   1.702 -0.0090  0.5463  0.4976
  233MOL0     O31323   0.906   7.583   1.638 -0.2559 -0.3195 -0.5937
  233MOL0     C31324   0.893   7.713   1.609  0.1733 -1.0379  0.1057
  233MOL0     C31325   0.830   7.809   1.694 -0.1391  0.0267 -0.7614
  233MOL0     C31326   0.807   7.940   1.653 -0.0747 -0.2242 -0.4511
  233MOL0     C31327   0.864   7.980   1.530  0.3077  0.5603  0.1361
  233MOL0     O31328   0.817   8.098   1.483  0.3592 -0.0700 -0.3896
  233MOL0     C31329   0.773   8.095   1.348  0.1809 -0.2883 -0.4102
  233MOL0     C31330   0.704   8.233   1.324  0.1755  0.6029 -0.4910
  233MOL0     C31331   0.679   8.221   1.172  0.1012 -0.6049  0.2341
  233MOL0     C31332   0.645   8.353   1.108  0.3211 -0.0171  0.0172
  233MOL0     C31333   0.497   8.381   1.122  0.8836 -0.5900 -0.0405
  233MOL0     C31334   0.469   8.537   1.085  0.4271  0.0689 -0.1046
  233MOL0     C31335   0.328   8.548   1.043  0.7786 -1.0161  0.4942
  233MOL0     C31336   0.298   8.490   0.895  0.0954  0.0149 -0.4561
  233MOL0     N31337   0.162   8.532   0.854  0.4422 -0.3340 -1.1776
  233MOL0     C31338   0.111   8.661   0.833  0.3775 -0.2824 -0.3248
  233MOL0     C31339  -0.016   8.633   0.799  0.4481 -0.3383  0.0557
  233MOL0     C31340  -0.125   8.735   0.757 -0.9217  0.0619  0.5542
  233MOL0     C31341  -0.105   8.787   0.619  0.0311 -0.1514 -0.9321
  233MOL0     C31342  -0.200   8.726   0.515 -0.1489 -0.4442  0.5074
  233MOL0     C31343  -0.133   8.609   0.451  0.1239  0.9699  0.2176
  233MOL0     O31344  -0.200   8.565   0.332 -0.6386 -0.2168  0.2572
  233MOL0     C31345  -0.141   8.617   0.214  0.2334 -0.2306 -0.0493
  233MOL0     C31346  -0.203   8.731   0.161  0.6390 -0.3254  0.3122
  233MOL0     C31347  -0.157   8.793   0.043 -0.7694 -0.5993 -0.1010
  233MOL0     C31348  -0.239   8.908  -0.010  0.6309  0.3439  0.7347
  233MOL0     C31349  -0.037   8.741  -0.015  1.5624 -0.4035 -0.5435
  233MOL0     C31350   0.031   8.800  -0.130  0.8009 -0.0164 -0.1895
  233MOL0     O31351   0.123   8.729  -0.200 -0.4700  0.5313 -0.1396
  233MOL0     C31352   0.132   8.722  -0.343 -0.2443  0.4407 -0.6421
  233MOL0     C31353   0.012   8.741  -0.425 -1.5593  0.7352 -0.4168
  233MOL0     C31354   0.033   8.751  -0.559 -0.4005  0.3527 -0.7977
  233MOL0     C31355   0.153   8.720  -0.625 -0.0888 -0.4130  0.1090
  233MOL0     O31356   0.153   8.709  -0.762 -1.0664  0.2743 -0.3050
  233MOL0     C31357   0.278   8.726  -0.839  0.0616 -0.6076 -1.2675
  233MOL0     C31358   0.243   8.737  -0.988  0.5382  0.6724 -0.2289
  233MOL0     C31359   0.329   8.835  -1.061 -0.3484  0.0512  0.8149
  233MOL0     C31360   0.272   8.876  -1.191  0.4550 -0.1209  0.4742
  233MOL0     C31361   0.331   8.813  -1.317 -0.4769  0.5907 -0.4687
  233MOL0     C31362   0.488   8.779  -1.315  0.3655 -0.8275 -0.5353
  233MOL0     C31363   0.527   8.734  -1.459 -0.3377  0.3425  0.6605
  233MOL0     C31364   0.581   8.845  -1.547  0.4334 -1.5523 -0.1078
  233MOL0    Cl31365   0.445   8.914  -1.639 -0.1026  0.2924  0.4260
  233MOL0     C31366   0.274   8.701  -0.548 -0.0547  0.1787  0.1468
  233MOL0     C31367   0.264   8.703  -0.402  0.1735  0.4542 -0.0286
  233MOL0     O31368  -0.023   8.905  -0.172  0.6053  0.5132 -0.6145
  233MOL0     C31369   0.023   8.623   0.036  0.1386  0.9335  0.4953
  233MOL0     C31370  -0.043   8.554   0.141 -0.5659 -0.1193 -0.4243
  233MOL0     N31371  -0.032   8.493   0.792 -0.4020  0.4543  1.1192
  233MOL0     N31372   0.071   8.434   0.838 -0.1174  0.1440  0.1728
  233MOL0     C31373   0.927   7.892   1.445  0.5687  0.2922  0.3967
  233MOL0     C31374   0.950   7.764   1.489  0.3479  0.8408  0.1337
  233MOL0     C31375   1.017   7.401   1.748  0.1248 -0.5273 -0.0036
  233MOL0     C31376   1.133   7.342   1.810 -0.1653 -0.3068 -0.2996
  233MOL0     C31377   1.140   7.206   1.852  0.4912 -0.1928  0.5581
  233MOL0     C31378   1.036   7.124   1.815 -0.3017  0.1881  0.9073
  233MOL0     O31379   1.046   6.997   1.861  0.0588 -0.9201 -0.7677
  233MOL0     C31380   0.986   6.895   1.782 -0.9473  0.8463 -0.0385
  233MOL0     C31381   1.057   6.884   1.645  0.3289  0.3547  0.6011
  233MOL0     C31382   0.981   6.776   1.566  0.5911 -0.0454 -0.7806
  233MOL0     C31383   1.048   6.756   1.428  1.5006  0.3818 -0.9334
  233MOL0     C31384   1.038   6.878   1.343  0.4886  0.2299 -0.5843
  233MOL0     C31385   1.034   6.982   1.278 -0.7004 -0.0035 -1.1102
  233MOL0     C31386   0.922   7.180   1.767 -0.3864 -0.2698  0.6745
  233MOL0     C31387   0.908   7.313   1.732 -0.2732  0.3485 -0.2137
  233MOL0     H31388   0.792   7.781   1.792 -0.9210  0.7433 -0.8456
  233MOL0     H31389   0.733   8.007   1.694 -2.2839 -0.7276 -3.3145
  233MOL0     H31390   0.836   8.086   1.259 -2.8158 -1.0157 -2.6322
  233MOL0     H31391   0.695   8.018   1.344 -1.2663  1.0039  1.0218
  233MOL0     H31392   0.612   8.232   1.382  0.0666  3.4771 -0.4549
  233MOL0     H31393   0.761   8.321   1.355 -0.9643  0.5974  1.8221
  233MOL0     H31394   0.768   8.183   1.121  1.2666 -0.8342  2.3207
  233MOL0     H31395   0.607   8.142   1.148  0.5585 -0.6546 -1.0488
  233MOL0     H31396   0.698   8.441   1.143 -0.9124  0.5821  0.4141
  233MOL0     H31397   0.665   8.343   1.000 -1.0331  3.4190 -0.6651
  233MOL0     H31398   0.442   8.308   1.062  0.0356 -0.1247  0.1672
  233MOL0     H31399   0.459   8.370   1.224  0.3748  3.5649  0.3601
  233MOL0     H31400   0.505   8.614   1.155  2.9545 -0.1352 -1.0562
  233MOL0     H31401   0.519   8.573   0.995 -0.3972  3.8937  0.7941
  233MOL0     H31402   0.256   8.499   1.108 -0.0450 -0.8413 -0.2745
  233MOL0     H31403   0.311   8.656   1.032 -1.8467 -1.5255 -1.2366
  233MOL0     H31404   0.312   8.382   0.893  1.9120  0.2355 -0.9829
  233MOL0     H31405   0.370   8.529   0.822  0.4774 -1.0426 -0.6622
  233MOL0     H31406   0.147   8.762   0.851  1.7670 -0.4495 -1.9330
  233MOL0     H31407  -0.218   8.681   0.772 -0.5548 -0.2518  1.8310
  233MOL0     H31408  -0.106   8.811   0.835  3.1965 -2.1068  2.0075
  233MOL0     H31409  -0.000   8.780   0.588  0.6959  0.6101  1.0160
  233MOL0     H31410  -0.123   8.894   0.633 -1.2318 -0.4779  0.1203
  233MOL0     H31411  -0.210   8.800   0.435 -1.2785 -0.4170  0.6656
  233MOL0     H31412  -0.297   8.705   0.560 -1.8667  2.0100 -1.7098
  233MOL0     H31413  -0.143   8.538   0.534 -0.4451  2.1904  1.2409
  233MOL0     H31414  -0.026   8.624   0.439  0.0715  2.0686  0.9939
  233MOL0     H31415  -0.292   8.763   0.215  0.1863 -1.0723  0.0353
  233MOL0     H31416  -0.328   8.920   0.053 -0.0937 -0.0169 -0.1981
  233MOL0     H31417  -0.182   9.002  -0.010 -0.2308  0.9203  2.4186
  233MOL0     H31418  -0.283   8.886  -0.108  0.2073 -3.3162  1.6151
  233MOL0     H31419  -0.080   8.748  -0.369 -1.0032  1.6872  0.4045
  233MOL0     H31420  -0.047   8.776  -0.629  0.8626  0.3441 -2.3115
  233MOL0     H31421   0.325   8.818  -0.804 -1.0313 -0.4211 -0.2526
  233MOL0     H31422   0.336   8.634  -0.821 -1.0699 -1.2644 -0.8919
  233MOL0     H31423   0.262   8.636  -1.027  2.8279  0.1234  2.0343
  233MOL0     H31424   0.141   8.776  -0.996  0.0758 -0.4234  0.0625
  233MOL0     H31425   0.430   8.797  -1.075  0.6352  2.6609  0.1656
  233MOL0     H31426   0.330   8.934  -1.014 -2.4673  1.0439 -1.0223
  233MOL0     H31427   0.165   8.855  -1.200  0.4101  0.7399 -1.6517
  233MOL0     H31428   0.289   8.984  -1.199  0.2545 -0.1984 -1.3272
  233MOL0     H31429   0.305   8.884  -1.397  0.3382  0.1713 -1.1188
  233MOL0     H31430   0.288   8.714  -1.337  1.9861 -0.8602  0.9133
  233MOL0     H31431   0.539   8.868  -1.276 -1.0132 -0.6339  0.9058
  233MOL0     H31432   0.512   8.692  -1.254 -0.5407 -0.5995  0.1715
  233MOL0     H31433   0.440   8.686  -1.505  0.8112  2.5467 -4.5990
  233MOL0     H31434   0.608   8.662  -1.451 -1.0560 -0.6371 -0.5721
  233MOL0     H31435   0.657   8.807  -1.616  2.4900 -2.6879  2.5967
  233MOL0     H31436   0.629   8.920  -1.483 -0.9743  0.3656 -1.2060
  233MOL0     H31437   0.367   8.698  -0.604 -0.2562  0.8606 -0.2331
  233MOL0     H31438   0.349   8.688  -0.336  0.7255  0.8855 -0.6237
  233MOL0     H31439   0.112   8.574  -0.000 -1.9072 -0.2488 -3.5568
  233MOL0     H31440  -0.006   8.460   0.180 -1.9778  0.2903  2.0939
  233MOL0     H31441   0.964   7.919   1.346  1.5588 -0.2905  0.5958
  233MOL0     H31442   1.009   7.696   1.428  1.7829  0.8345  1.4802
  233MOL0     H31443   1.216   7.405   1.842 -0.8132  2.1852 -3.0812
  233MOL0     H31444   1.221   7.153   1.902  2.3476  0.0226 -2.0111
  233MOL0     H31445   1.012   6.795   1.818 -0.8215  0.6059 -0.7770
  233MOL0     H31446   0.877   6.890   1.770 -0.8358  1.6340 -1.6018
  233MOL0     H31447   1.165   6.865   1.643  0.4844  1.1607 -2.0943
  233MOL0     H31448   1.047   6.979   1.591  0.6260  0.0582  0.0206
  233MOL0     H31449   0.878   6.809   1.548  0.0104 -1.5790 -0.4625
  233MOL0     H31450   0.968   6.683   1.622 -0.6664  1.0424  0.8533
  233MOL0     H31451   0.992   6.676   1.379 -1.5364  1.2594  0.8439
  233MOL0     H31452   1.156   6.737   1.426  1.4186 -0.2960 -0.0071
  233MOL0     H31453   1.049   7.079   1.235 -0.9045  1.2133  1.3384
  233MOL0     H31454   0.841   7.108   1.761 -0.2080 -0.3148 -2.3403
  233MOL0     H31455   0.811   7.339   1.691  0.0142 -1.6807 -2.3758
  234MOL0     O31456   8.244   5.861   5.187  0.7408  0.2333  0.2133
  234MOL0     C31457   8.137   5.799   5.206  0.4398 -0.2218 -0.4620
  234MOL0     O31458   8.129   5.669   5.197  0.1132  0.5449  0.2276
  234MOL0     C31459   8.246   5.597   5.196 -0.1129  1.0156 -0.5813
  234MOL0     C31460   8.301   5.564   5.322  0.1910 -0.0441  0.3234
  234MOL0     C31461   8.393   5.451   5.327 -0.5092 -1.0340 -0.1138
  234MOL0     C31462   8.439   5.389   5.211 -0.1966 -0.4013 -0.0596
  234MOL0     O31463   8.520   5.278   5.215 -0.2533  0.1184 -0.2778
  234MOL0     C31464   8.633   5.277   5.303 -0.4650 -0.3080  0.2277
  234MOL0     C31465   8.725   5.166   5.259  0.3124 -0.0976 -0.3015
  234MOL0     C31466   8.785   5.187   5.121 -0.9244  0.4845 -0.3328
  234MOL0     C31467   8.887   5.067   5.075 -0.0808 -0.5663 -0.2603
  234MOL0     C31468   8.926   5.088   4.934 -0.6060  0.2100 -1.0636
  234MOL0     C31469   8.833   5.037   4.825  0.5591 -0.0647  1.5697
  234MOL0     C31470   8.867   5.106   4.688 -0.4048  0.0907 -0.4889
  234MOL0     C31471   9.007   5.106   4.634  0.3402  0.9772  0.0766
  234MOL0     N31472   9.048   4.975   4.566  0.8246 -0.6664 -0.8630
  234MOL0     C31473   9.131   4.889   4.628 -0.1334  0.7050  0.2462
  234MOL0     C31474   9.161   4.804   4.532 -1.1007 -0.0844  0.0086
  234MOL0     C31475   9.238   4.678   4.565 -0.2094 -0.2145 -0.0751
  234MOL0     C31476   9.391   4.692   4.555 -0.5189  0.5099 -0.3263
  234MOL0     C31477   9.446   4.702   4.411 -0.8384 -0.0558 -0.0676
  234MOL0     C31478   9.601   4.728   4.408  0.3344 -0.5121 -0.5225
  234MOL0     O31479   9.658   4.712   4.538  0.2566 -0.2964 -0.7124
  234MOL0     C31480   9.721   4.591   4.553 -0.8284  0.4656 -0.0282
  234MOL0     C31481   9.821   4.530   4.471  0.9725 -0.3715 -0.5639
  234MOL0     C31482   9.870   4.401   4.493  0.3584 -0.5238  0.8650
  234MOL0     C31483   9.946   4.336   4.374 -0.7999  0.2151  0.4640
  234MOL0     C31484   9.820   4.329   4.601  0.3988 -0.2566  0.9222
  234MOL0     C31485   9.866   4.198   4.631 -0.7658 -0.8946  0.8822
  234MOL0     O31486   9.999   4.177   4.632  0.3443  0.1237  0.3176
  234MOL0     C31487  10.048   4.055   4.664  0.4056 -0.5625 -0.1908
  234MOL0     C31488  10.146   4.043   4.769  0.6706  0.7521  1.2127
  234MOL0     C31489  10.180   3.910   4.812  0.8812 -0.9365  0.7114
  234MOL0     C31490  10.119   3.796   4.769 -0.4587 -0.4120 -0.7165
  234MOL0     O31491  10.139   3.672   4.827  0.5766 -0.2133 -0.4064
  234MOL0     C31492  10.216   3.674   4.952 -0.9735 -0.5126  0.0180
  234MOL0     C31493  10.262   3.538   4.989  0.7208 -0.5515 -0.1434
  234MOL0     C31494  10.352   3.466   4.887  0.1255 -0.4893 -0.5635
  234MOL0     C31495  10.398   3.338   4.949 -1.3669 -0.8646  0.1664
  234MOL0     C31496  10.510   3.269   4.870  0.6704  0.4117 -0.5314
  234MOL0     C31497  10.472   3.227   4.731 -0.2203  0.5593  0.3369
  234MOL0     C31498  10.558   3.123   4.675  0.3284  0.0295  0.3882
  234MOL0     C31499  10.519   3.092   4.530  0.1298 -0.8018  0.7073
  234MOL0    Cl31500  10.529   2.919   4.496 -0.2218 -0.1947 -0.0831
  234MOL0     C31501  10.036   3.814   4.654 -0.8201 -0.2285 -0.0826
  234MOL0     C31502  10.009   3.939   4.595  0.1865  0.1772 -0.1859
  234MOL0     O31503   9.784   4.134   4.677 -0.2104  0.6289 -0.1449
  234MOL0     C31504   9.736   4.394   4.700 -0.1965 -0.8800 -0.3601
  234MOL0     C31505   9.687   4.518   4.670  0.9035 -0.1135  0.2393
  234MOL0     N31506   9.112   4.844   4.413 -0.2183 -0.6948  0.2200
  234MOL0     N31507   9.037   4.946   4.437  0.6152  1.0263  0.3054
  234MOL0     C31508   8.391   5.435   5.087  0.1121  0.1125 -0.7382
  234MOL0     C31509   8.287   5.526   5.081  0.5321  0.3876 -0.0359
  234MOL0     C31510   8.019   5.879   5.246 -0.5386  0.1453 -0.5857
  234MOL0     C31511   8.020   6.014   5.236  0.0321 -0.9090 -0.4209
  234MOL0     C31512   7.902   6.079   5.275 -0.1598  0.0827  0.5839
  234MOL0     C31513   7.797   6.023   5.337 -0.7526  0.2791  1.2671
  234MOL0     O31514   7.690   6.101   5.375  0.2002 -0.0885 -0.8967
  234MOL0     C31515   7.574   6.074   5.292 -0.7831  1.0425 -0.8628
  234MOL0     C31516   7.468   6.175   5.328  0.0465  0.1584 -0.1683
  234MOL0     C31517   7.403   6.118   5.464  0.1273 -0.6453  0.4107
  234MOL0     C31518   7.280   6.199   5.503 -0.1449 -0.4689 -0.3184
  234MOL0     C31519   7.164   6.175   5.419  0.8315  0.3239 -0.1365
  234MOL0     C31520   7.063   6.149   5.354 -0.3293  1.4451  0.6182
  234MOL0     C31521   7.807   5.889   5.367  0.0600  0.3309  0.0302
  234MOL0     C31522   7.913   5.813   5.310 -0.3851  0.4511  0.3192
  234MOL0     H31523   8.281   5.614   5.417  1.5603  1.3364 -0.0680
  234MOL0     H31524   8.439   5.433   5.424 -0.6284  2.3479  0.7290
  234MOL0     H31525   8.682   5.375   5.293  2.0023 -1.5158 -0.2695
  234MOL0     H31526   8.601   5.275   5.408 -2.5505 -4.6757 -0.2961
  234MOL0     H31527   8.814   5.167   5.323  1.6530 -1.2843 -2.0399
  234MOL0     H31528   8.688   5.064   5.271  2.7642 -0.9760  0.6842
  234MOL0     H31529   8.706   5.185   5.044  1.2177 -3.7688 -2.7816
  234MOL0     H31530   8.827   5.287   5.133 -0.1032  0.0514  0.4465
  234MOL0     H31531   8.973   5.086   5.140 -0.8481 -3.1657  1.6991
  234MOL0     H31532   8.846   4.968   5.093 -2.5207  0.6512  1.5227
  234MOL0     H31533   8.944   5.193   4.910  1.2833  0.1322 -0.1936
  234MOL0     H31534   9.022   5.036   4.931 -1.0870 -0.7767 -0.0990
  234MOL0     H31535   8.824   4.929   4.814 -2.7787  0.2910 -0.5076
  234MOL0     H31536   8.727   5.059   4.835  0.6030  2.8682 -2.0432
  234MOL0     H31537   8.811   5.058   4.607  1.1875 -1.3115 -0.8042
  234MOL0     H31538   8.830   5.209   4.697 -0.7979  0.0208 -1.2269
  234MOL0     H31539   9.083   5.123   4.711  0.4385  0.8118  0.0166
  234MOL0     H31540   9.010   5.184   4.558 -0.7462  1.5486  0.6040
  234MOL0     H31541   9.141   4.890   4.736 -1.4421 -0.3658  0.4122
  234MOL0     H31542   9.212   4.635   4.662  1.1489  2.1454  1.4408
  234MOL0     H31543   9.211   4.603   4.489  2.7662 -0.1651 -1.3411
  234MOL0     H31544   9.427   4.608   4.616 -1.3044 -0.3905 -1.0756
  234MOL0     H31545   9.419   4.785   4.606 -1.3557  1.6005 -1.7943
  234MOL0     H31546   9.405   4.793   4.367  2.1662  0.4546 -2.1041
  234MOL0     H31547   9.428   4.610   4.355 -0.8252  1.1651 -2.1802
  234MOL0     H31548   9.629   4.831   4.382  0.6697 -0.4700 -0.0111
  234MOL0     H31549   9.644   4.673   4.324  2.4248  0.5711 -0.2364
  234MOL0     H31550   9.859   4.583   4.384 -2.7856 -0.2399 -2.3067
  234MOL0     H31551   9.961   4.228   4.385  3.0501  0.7486  2.6203
  234MOL0     H31552   9.898   4.370   4.282 -0.6091  0.7159  0.5455
  234MOL0     H31553  10.048   4.376   4.364 -0.3418 -1.4379 -2.5380
  234MOL0     H31554  10.194   4.131   4.812  0.0303  1.9744 -0.4423
  234MOL0     H31555  10.268   3.906   4.877 -0.9037 -1.2298  3.2699
  234MOL0     H31556  10.311   3.728   4.950 -0.6991 -0.9527  0.9469
  234MOL0     H31557  10.151   3.715   5.030 -0.8778 -0.6769  0.1820
  234MOL0     H31558  10.313   3.538   5.085 -0.5332 -1.7722  0.5625
  234MOL0     H31559  10.176   3.472   5.005  0.0958  0.2466 -0.1558
  234MOL0     H31560  10.438   3.529   4.866 -0.9993  0.4826 -2.4829
  234MOL0     H31561  10.296   3.444   4.795  2.4230 -1.9393 -1.7142
  234MOL0     H31562  10.433   3.356   5.051  0.3261  1.6442 -0.7769
  234MOL0     H31563  10.318   3.266   4.970 -1.3759 -0.8758  0.0939
  234MOL0     H31564  10.539   3.182   4.930 -0.2627 -1.7215 -2.9942
  234MOL0     H31565  10.592   3.340   4.859  0.5043  0.5904 -0.6217
  234MOL0     H31566  10.372   3.186   4.750  0.8771 -2.0685  0.9901
  234MOL0     H31567  10.471   3.317   4.670  0.9099  2.0125  2.3158
  234MOL0     H31568  10.547   3.032   4.735 -2.3851  0.3080  0.4136
  234MOL0     H31569  10.661   3.159   4.682  0.4927 -0.4403  0.4413
  234MOL0     H31570  10.574   3.160   4.464  2.3364 -1.3384  1.8991
  234MOL0     H31571  10.413   3.114   4.518  0.6290  1.0822 -0.7305
  234MOL0     H31572  10.002   3.722   4.608 -0.1425 -0.0415 -0.9800
  234MOL0     H31573   9.938   3.933   4.512  1.9745 -0.3162 -1.7536
  234MOL0     H31574   9.716   4.346   4.795 -0.3728  0.5040  0.3143
  234MOL0     H31575   9.636   4.574   4.748  0.7857  1.2912 -0.8118
  234MOL0     H31576   8.447   5.392   5.005  0.5878  0.0045 -0.3613
  234MOL0     H31577   8.231   5.550   4.991 -2.8477  0.5544  1.9354
  234MOL0     H31578   8.099   6.073   5.191 -0.8486  0.8007  0.1754
  234MOL0     H31579   7.887   6.186   5.265 -0.9297 -0.1855 -2.3043
  234MOL0     H31580   7.594   6.088   5.185  3.7306 -0.6783 -0.4957
  234MOL0     H31581   7.538   5.972   5.310 -2.2051  1.5856 -0.5411
  234MOL0     H31582   7.397   6.174   5.245 -0.7046  0.4511  0.4659
  234MOL0     H31583   7.512   6.275   5.343 -0.7143  0.3116  1.1111
  234MOL0     H31584   7.473   6.113   5.548  0.3283  2.4926  0.5482
  234MOL0     H31585   7.361   6.018   5.447 -0.3659 -0.2813 -0.6010
  234MOL0     H31586   7.323   6.299   5.503  3.4806 -1.5676  4.9898
  234MOL0     H31587   7.258   6.183   5.609 -2.3113 -1.2060 -0.8260
  234MOL0     H31588   6.970   6.114   5.312  2.3141 -2.0869 -3.1384
  234MOL0     H31589   7.725   5.839   5.416  1.2261 -1.4444  0.2587
  234MOL0     H31590   7.927   5.707   5.332  2.7856  0.5388 -0.7509
  235MOL0     O31591   1.655  10.719   9.160  0.7063  0.0538  0.2889
  235MOL0     C31592   1.669  10.627   9.247 -0.7433  0.2083  0.4659
  235MOL0     O31593   1.672  10.493   9.223 -0.5463 -0.3366  0.0052
  235MOL0     C31594   1.701  10.448   9.093  0.1067 -0.0043 -0.5750
  235MOL0     C31595   1.804  10.481   9.001  0.6403 -0.0261  0.0402
  235MOL0     C31596   1.829  10.409   8.882  0.5428 -0.0981 -0.5768
  235MOL0     C31597   1.753  10.306   8.850 -0.0955  0.5360  0.1954
  235MOL0     O31598   1.783  10.260   8.721 -0.1916  1.0356  0.5463
  235MOL0     C31599   1.707  10.153   8.655 -0.6619  0.1200  0.1629
  235MOL0     C31600   1.777  10.016   8.669 -0.3248 -0.1590  0.0541
  235MOL0     C31601   1.904  10.023   8.572  0.6921 -0.3854 -1.1050
  235MOL0     C31602   1.945   9.875   8.534 -1.3733  0.3135  0.1668
  235MOL0     C31603   2.092   9.871   8.488  0.0051  0.1851  0.4393
  235MOL0     C31604   2.105   9.789   8.357 -0.0385 -0.3057 -0.6635
  235MOL0     C31605   2.245   9.807   8.305  0.5710  0.9246 -0.1519
  235MOL0     C31606   2.257   9.932   8.214  0.0249  0.1013 -0.2553
  235MOL0     N31607   2.368   9.923   8.117  0.5890  0.1034  0.1155
  235MOL0     C31608   2.499   9.904   8.170 -0.1679 -0.4840  1.4443
  235MOL0     C31609   2.559   9.849   8.061  0.3281  0.8194  0.3151
  235MOL0     C31610   2.710   9.822   8.048  0.3735  0.5024  0.2664
  235MOL0     C31611   2.750   9.773   7.913 -0.2150  0.4669  0.9083
  235MOL0     C31612   2.767   9.901   7.828  0.1491  0.2675  0.0665
  235MOL0     C31613   2.880   9.994   7.867 -0.3641  0.3531  1.0869
  235MOL0     O31614   3.001   9.923   7.888  0.9822  0.1609 -0.6494
  235MOL0     C31615   3.095   9.975   7.975  0.4489 -0.9267 -0.1810
  235MOL0     C31616   3.116  10.114   7.974  0.0591 -0.0835 -0.0836
  235MOL0     C31617   3.201  10.183   8.064 -0.4413 -0.6599  0.3211
  235MOL0     C31618   3.227  10.338   8.035  0.1764  0.4349 -0.1722
  235MOL0     C31619   3.261  10.108   8.168 -0.5973 -0.0811  0.2117
  235MOL0     C31620   3.358  10.180   8.267  0.1065 -0.5926 -0.0651
  235MOL0     O31621   3.436  10.282   8.228 -0.4495 -0.5519  0.4442
  235MOL0     C31622   3.502  10.354   8.322  1.0508  0.4669 -0.8588
  235MOL0     C31623   3.643  10.340   8.336  0.2682  0.0736  0.1043
  235MOL0     C31624   3.712  10.411   8.431  0.0824 -0.4387 -0.6787
  235MOL0     C31625   3.650  10.508   8.515 -0.4411  0.3044 -0.5562
  235MOL0     O31626   3.738  10.585   8.584  0.9438  0.1017  0.3032
  235MOL0     C31627   3.682  10.691   8.663 -0.8450  0.0021  0.0171
  235MOL0     C31628   3.799  10.757   8.733 -0.7029  0.5343 -0.0007
  235MOL0     C31629   3.849  10.882   8.669 -0.6583 -0.1543 -0.1156
  235MOL0     C31630   3.975  10.937   8.742  1.0518  0.2235 -0.1751
  235MOL0     C31631   4.011  11.080   8.691  0.2296  0.4126  0.5790
  235MOL0     C31632   4.079  11.156   8.808  0.1965  0.0393 -0.7553
  235MOL0     C31633   3.970  11.212   8.923  0.1449  0.3133 -0.0840
  235MOL0     C31634   4.029  11.310   9.027 -0.0472 -0.2140  0.0138
  235MOL0    Cl31635   4.129  11.433   8.946 -0.2962 -0.1238 -0.4178
  235MOL0     C31636   3.515  10.532   8.492  0.5847 -0.0268 -0.8090
  235MOL0     C31637   3.437  10.448   8.402  0.0584  0.0547  0.0652
  235MOL0     O31638   3.357  10.134   8.378  1.0682  0.0407 -0.2728
  235MOL0     C31639   3.254   9.968   8.164 -0.5436 -0.5417 -0.3213
  235MOL0     C31640   3.172   9.901   8.069 -0.3717  0.1738  0.3366
  235MOL0     N31641   2.464   9.823   7.960  0.0271 -0.6793 -0.1954
  235MOL0     N31642   2.352   9.877   7.996 -0.5084  0.3478  0.5456
  235MOL0     C31643   1.655  10.259   8.939 -0.4467 -0.7923  0.2332
  235MOL0     C31644   1.630  10.340   9.058  0.0718  0.2436 -0.5149
  235MOL0     C31645   1.657  10.665   9.390  0.9650 -0.0039  0.0926
  235MOL0     C31646   1.643  10.800   9.427  1.1362 -0.0204  0.2583
  235MOL0     C31647   1.630  10.840   9.563  0.5155  0.3321 -0.1444
  235MOL0     C31648   1.636  10.743   9.664  0.8802  0.4891  0.2009
  235MOL0     O31649   1.617  10.774   9.793 -0.2516  0.0898  0.0213
  235MOL0     C31650   1.484  10.753   9.852 -0.6556  0.7322 -0.3681
  235MOL0     C31651   1.374  10.842   9.832  0.5257 -1.0388 -0.3355
  235MOL0     C31652   1.404  10.989   9.851  0.0197 -0.9414  0.2927
  235MOL0     C31653   1.269  11.069   9.856  0.1783  0.4752 -0.0159
  235MOL0     C31654   1.209  11.053   9.995 -0.7392  0.2769 -0.0072
  235MOL0     C31655   1.183  11.037  10.115  0.4109  0.1524  0.3628
  235MOL0     C31656   1.658  10.613   9.625  0.3070  0.0415 -0.1205
  235MOL0     C31657   1.665  10.574   9.489  0.3212  0.3201 -0.5462
  235MOL0     H31658   1.862  10.570   9.024  3.3345 -1.9544  1.3328
  235MOL0     H31659   1.911  10.445   8.822  1.0229 -2.0984 -1.1868
  235MOL0     H31660   1.607  10.148   8.699 -1.2655  1.9499 -0.9288
  235MOL0     H31661   1.679  10.178   8.553  1.4568  1.7050 -0.0854
  235MOL0     H31662   1.817  10.003   8.771 -0.2463  1.4514  0.2569
  235MOL0     H31663   1.718   9.924   8.665  2.1999 -1.9657  1.3614
  235MOL0     H31664   1.883  10.090   8.488  0.0993 -1.4783 -1.8543
  235MOL0     H31665   1.988  10.069   8.624 -0.6150 -1.2808  2.0531
  235MOL0     H31666   1.941   9.799   8.612  0.5711  2.5061  2.6144
  235MOL0     H31667   1.879   9.844   8.453 -1.0918  1.0138 -0.3431
  235MOL0     H31668   2.138   9.966   8.459 -0.5669 -0.2159 -2.0385
  235MOL0     H31669   2.152   9.829   8.569 -0.7175 -2.5590 -0.3336
  235MOL0     H31670   2.090   9.684   8.383 -0.4381  1.0084  6.0218
  235MOL0     H31671   2.033   9.822   8.281  1.3899 -0.6596 -2.2279
  235MOL0     H31672   2.326   9.809   8.378 -0.2316 -1.1655  0.8920
  235MOL0     H31673   2.263   9.714   8.249 -0.5259  0.1729  0.6955
  235MOL0     H31674   2.261  10.020   8.279 -0.7647 -1.1295  1.5578
  235MOL0     H31675   2.169   9.946   8.151 -0.7766 -0.0018  0.8086
  235MOL0     H31676   2.552   9.913   8.265  0.8152 -0.7630  0.9326
  235MOL0     H31677   2.778   9.900   8.086  1.6923 -1.2848  1.7568
  235MOL0     H31678   2.720   9.737   8.116 -1.2181 -1.0418 -1.3550
  235MOL0     H31679   2.679   9.703   7.868 -1.6659  1.7736  1.1093
  235MOL0     H31680   2.846   9.720   7.926  0.2987  1.4138  1.0731
  235MOL0     H31681   2.675   9.960   7.824  0.2979  0.4365 -1.4678
  235MOL0     H31682   2.784   9.874   7.723 -0.2724 -0.3407  0.1431
  235MOL0     H31683   2.862  10.054   7.957  1.5000  0.2015  1.5940
  235MOL0     H31684   2.891  10.067   7.787 -1.0465 -1.8164 -1.1397
  235MOL0     H31685   3.076  10.175   7.894  1.3346 -2.3539 -2.6399
  235MOL0     H31686   3.185  10.407   8.109 -0.1100 -0.2426  0.3140
  235MOL0     H31687   3.336  10.350   8.033  0.0913  1.1953 -1.1411
  235MOL0     H31688   3.193  10.379   7.940 -0.8872  0.5362  0.2395
  235MOL0     H31689   3.700  10.270   8.275  0.6045 -0.6037  1.1640
  235MOL0     H31690   3.816  10.384   8.449 -0.1106 -2.2934 -2.0090
  235MOL0     H31691   3.627  10.764   8.602  1.8133  0.8489 -1.5207
  235MOL0     H31692   3.631  10.648   8.750 -3.5572  0.4742 -1.2270
  235MOL0     H31693   3.766  10.789   8.832 -0.6028 -2.5169  1.1224
  235MOL0     H31694   3.880  10.684   8.747  1.4100  2.7840  0.2797
  235MOL0     H31695   3.771  10.958   8.662  1.1096  1.8136  0.4041
  235MOL0     H31696   3.865  10.851   8.565  1.6639 -0.9821  0.4105
  235MOL0     H31697   3.945  10.931   8.847  2.7563  1.5361  0.4274
  235MOL0     H31698   4.054  10.865   8.716 -1.7142 -2.5777 -1.5526
  235MOL0     H31699   3.924  11.135   8.655  0.4112 -1.5283 -3.3580
  235MOL0     H31700   4.079  11.086   8.606  2.0380  3.7329  2.0330
  235MOL0     H31701   4.157  11.093   8.850  1.8105  0.2839 -3.2014
  235MOL0     H31702   4.128  11.242   8.762 -0.4838  1.0206  0.2889
  235MOL0     H31703   3.914  11.130   8.969  2.7836 -0.6621  1.6164
  235MOL0     H31704   3.892  11.265   8.869  1.7834  0.8785 -2.0290
  235MOL0     H31705   4.075  11.253   9.108 -1.4968  0.3610  1.3014
  235MOL0     H31706   3.959  11.370   9.087  0.6200  3.1137 -2.2353
  235MOL0     H31707   3.463  10.616   8.538  0.9185 -0.8980  1.2680
  235MOL0     H31708   3.341  10.480   8.363  1.1784  1.7413 -1.4912
  235MOL0     H31709   3.301   9.912   8.245 -1.5712  0.0531  0.7031
  235MOL0     H31710   3.158   9.793   8.065  0.4570 -0.0337  2.0860
  235MOL0     H31711   1.592  10.175   8.914  1.7651 -1.3887 -4.5074
  235MOL0     H31712   1.552  10.304   9.125 -0.0948  1.9509  0.2419
  235MOL0     H31713   1.653  10.868   9.343  3.4228  0.1092  0.5688
  235MOL0     H31714   1.625  10.944   9.590 -4.4367 -0.2876  2.3308
  235MOL0     H31715   1.440  10.661   9.813  0.4789  1.1208 -2.7703
  235MOL0     H31716   1.505  10.740   9.958 -1.4185  0.3765 -0.2527
  235MOL0     H31717   1.305  10.802   9.907 -0.7961 -0.8903 -1.4195
  235MOL0     H31718   1.337  10.816   9.732 -0.0708 -1.5375  0.0120
  235MOL0     H31719   1.466  11.021   9.766 -0.6442  0.5651  0.3594
  235MOL0     H31720   1.458  11.008   9.944 -0.1011  2.2801 -0.2084
  235MOL0     H31721   1.196  11.034   9.783  0.3442  1.6516 -0.7636
  235MOL0     H31722   1.298  11.168   9.821 -3.1007  2.1576  1.6354
  235MOL0     H31723   1.154  11.039  10.218  0.8607 -2.1893  0.5768
  235MOL0     H31724   1.657  10.537   9.702  1.3797  0.0210 -0.1147
  235MOL0     H31725   1.675  10.469   9.463  0.6723  0.3020 -0.3431
  236MOL0     O31726   7.477   5.734  11.454  0.5569  0.3109 -0.0242
  236MOL0     C31727   7.563   5.817  11.478  0.1359 -0.3061 -0.2591
  236MOL0     O31728   7.641   5.820  11.595  0.3128 -0.1545  0.5689
  236MOL0     C31729   7.672   5.710  11.680  0.3542  1.1992 -0.1962
  236MOL0     C31730   7.746   5.736  11.788 -0.5106  0.4608  0.0526
  236MOL0     C31731   7.791   5.633  11.865  0.0418  1.1056  0.1003
  236MOL0     C31732   7.751   5.502  11.839  0.0790  0.1353  0.2834
  236MOL0     O31733   7.790   5.397  11.924 -0.1732 -0.0423 -0.0782
  236MOL0     C31734   7.822   5.264  11.870  0.1399  0.4577 -0.0619
  236MOL0     C31735   7.939   5.197  11.936  0.4985  0.0307  0.7346
  236MOL0     C31736   8.070   5.266  11.891  0.1552  0.5260  0.0075
  236MOL0     C31737   8.126   5.196  11.769 -0.3734  0.5219  1.0615
  236MOL0     C31738   8.236   5.271  11.686 -0.5752 -0.4369 -0.1093
  236MOL0     C31739   8.358   5.300  11.775 -1.0648  0.0416 -0.2565
  236MOL0     C31740   8.494   5.325  11.689 -0.1487 -0.1505 -0.6541
  236MOL0     C31741   8.561   5.197  11.643  0.7582  0.3901 -0.4056
  236MOL0     N31742   8.681   5.245  11.568 -1.0261  0.6947  0.2592
  236MOL0     C31743   8.797   5.304  11.623 -1.2830 -0.1681 -0.0346
  236MOL0     C31744   8.871   5.350  11.522 -0.2191  1.4223  0.1963
  236MOL0     C31745   9.008   5.408  11.518 -0.2976 -0.5917 -0.3470
  236MOL0     C31746   9.126   5.323  11.555  0.0594  0.1875 -0.3366
  236MOL0     C31747   9.162   5.320  11.704 -0.2294 -0.0224  0.2363
  236MOL0     C31748   9.276   5.229  11.718  0.0527  0.2280 -0.3514
  236MOL0     O31749   9.399   5.297  11.694 -0.4676 -0.3067  1.2130
  236MOL0     C31750   9.483   5.232  11.614  0.8063 -0.1870 -0.7481
  236MOL0     C31751   9.546   5.118  11.658  0.2615  0.6271 -0.7148
  236MOL0     C31752   9.633   5.043  11.579 -0.3775 -0.2206 -0.0294
  236MOL0     C31753   9.713   4.944  11.654  0.1135 -0.6014  0.7381
  236MOL0     C31754   9.649   5.081  11.438  0.4936 -0.2168 -1.1085
  236MOL0     C31755   9.741   5.011  11.344  0.2757  0.6405  0.8258
  236MOL0     O31756   9.733   5.060  11.215 -0.6697  0.2977  0.7332
  236MOL0     C31757   9.848   5.056  11.141 -0.2628 -0.0776  0.2614
  236MOL0     C31758   9.936   5.167  11.123  0.6857  0.7779  0.7449
  236MOL0     C31759  10.050   5.149  11.042  0.0727  0.0589  0.6632
  236MOL0     C31760  10.098   5.029  10.994 -0.3305  1.0582 -0.6862
  236MOL0     O31761  10.222   5.024  10.927  0.0473 -0.5224 -0.3232
  236MOL0     C31762  10.254   4.908  10.848 -0.4519 -0.0672 -0.6133
  236MOL0     C31763  10.167   4.880  10.731  0.3487 -0.4871 -0.5493
  236MOL0     C31764  10.233   4.864  10.590 -0.5016  0.0527 -0.1488
  236MOL0     C31765  10.341   4.963  10.548  0.8629 -0.0087  0.5801
  236MOL0     C31766  10.302   5.040  10.422  0.0562 -0.9089 -0.5978
  236MOL0     C31767  10.378   5.170  10.411  0.4035 -0.9118 -0.0258
  236MOL0     C31768  10.350   5.244  10.279  1.3867  0.4764 -0.7004
  236MOL0     C31769  10.203   5.290  10.267 -0.3927  0.2680 -0.0841
  236MOL0    Cl31770  10.148   5.381  10.407  0.1206 -0.1342  0.5975
  236MOL0     C31771  10.011   4.918  11.011 -0.7658 -0.7279  0.5469
  236MOL0     C31772   9.890   4.936  11.081  1.2388 -0.1182 -0.4243
  236MOL0     O31773   9.809   4.915  11.375  0.4576  0.6917  1.1936
  236MOL0     C31774   9.584   5.198  11.395 -0.5393  0.2037  0.2258
  236MOL0     C31775   9.503   5.272  11.482  0.2941  0.4553 -0.1304
  236MOL0     N31776   8.796   5.319  11.405 -1.5106  0.2521  0.0833
  236MOL0     N31777   8.683   5.258  11.432 -0.4485 -0.0473 -0.3497
  236MOL0     C31778   7.667   5.468  11.734  0.8953 -0.1585  0.4670
  236MOL0     C31779   7.616   5.575  11.655  0.0668 -0.5692  0.7839
  236MOL0     C31780   7.585   5.932  11.390  0.1675  0.4051  0.8259
  236MOL0     C31781   7.697   6.016  11.405  0.1006  1.2020 -0.5670
  236MOL0     C31782   7.729   6.100  11.294  0.4041 -0.1768  0.4948
  236MOL0     C31783   7.667   6.096  11.180  0.0046 -0.4985  0.3638
  236MOL0     O31784   7.712   6.193  11.092  0.5283 -0.2998  0.0318
  236MOL0     C31785   7.657   6.198  10.963  0.1936  0.6275  0.7831
  236MOL0     C31786   7.705   6.074  10.875 -0.5760 -0.3607  0.6018
  236MOL0     C31787   7.843   6.103  10.823  0.4694 -0.5029 -0.2084
  236MOL0     C31788   7.900   5.984  10.736 -1.4595 -0.2895  0.4754
  236MOL0     C31789   7.822   5.957  10.612 -0.1428 -0.3334 -0.0642
  236MOL0     C31790   7.755   5.931  10.510 -0.1811 -0.2916 -0.2695
  236MOL0     C31791   7.551   6.016  11.162  0.5764 -1.2019 -0.1694
  236MOL0     C31792   7.508   5.936  11.273 -0.3006 -0.4538  0.0120
  236MOL0     H31793   7.788   5.836  11.785  0.3514  0.1271  0.6677
  236MOL0     H31794   7.849   5.650  11.956  1.0762 -0.4526 -0.2208
  236MOL0     H31795   7.735   5.200  11.888  1.7779 -1.9791 -0.3899
  236MOL0     H31796   7.834   5.264  11.761 -0.2220 -2.9559 -0.2257
  236MOL0     H31797   7.919   5.205  12.043  0.5486  0.3191  0.7251
  236MOL0     H31798   7.936   5.092  11.906  1.6722 -0.5075  2.3784
  236MOL0     H31799   8.076   5.372  11.866 -0.0728  0.7927  1.0662
  236MOL0     H31800   8.142   5.271  11.973 -1.1853  1.6601  1.1505
  236MOL0     H31801   8.164   5.096  11.791  2.3173  1.4376  0.9732
  236MOL0     H31802   8.043   5.188  11.698  1.7787 -1.9073 -1.3987
  236MOL0     H31803   8.265   5.206  11.602 -1.6706  0.2078 -1.0174
  236MOL0     H31804   8.206   5.365  11.640  1.1763 -0.3582 -1.2049
  236MOL0     H31805   8.348   5.394  11.831 -1.2769  0.2995 -0.7226
  236MOL0     H31806   8.385   5.226  11.850  1.6060  2.2698  1.1927
  236MOL0     H31807   8.465   5.383  11.601 -2.5227 -1.0491 -0.5214
  236MOL0     H31808   8.564   5.392  11.741 -0.0143 -1.8758  1.5488
  236MOL0     H31809   8.499   5.140  11.574 -1.5913  1.0836  1.0251
  236MOL0     H31810   8.587   5.136  11.730  3.5033 -0.1020 -1.4752
  236MOL0     H31811   8.824   5.299  11.728  0.2148  0.4697 -0.3689
  236MOL0     H31812   9.027   5.456  11.422  1.3674 -0.7678 -0.1334
  236MOL0     H31813   8.993   5.488  11.591  0.0892  0.0224 -0.9367
  236MOL0     H31814   9.209   5.371  11.502  0.9776 -0.2975  0.6363
  236MOL0     H31815   9.112   5.228  11.503  0.6346 -0.4714  0.6990
  236MOL0     H31816   9.076   5.275  11.755  0.2909 -0.4229  0.7794
  236MOL0     H31817   9.192   5.418  11.741  1.7602  0.6936 -2.8948
  236MOL0     H31818   9.267   5.154  11.638  0.8056  1.4039 -1.5967
  236MOL0     H31819   9.277   5.182  11.816  1.4566  0.2214 -0.3387
  236MOL0     H31820   9.519   5.096  11.761 -2.7560  0.3949 -1.4658
  236MOL0     H31821   9.663   4.920  11.749 -2.7579 -2.3373 -1.0672
  236MOL0     H31822   9.730   4.852  11.598  0.6970 -0.0569  0.0074
  236MOL0     H31823   9.810   4.980  11.689  0.2686 -3.7293  4.2680
  236MOL0     H31824   9.914   5.265  11.164  3.0027  0.8352  1.9930
  236MOL0     H31825  10.120   5.230  11.027 -0.5328  0.5979  0.6911
  236MOL0     H31826  10.358   4.933  10.829  0.3448  1.3591  4.2348
  236MOL0     H31827  10.259   4.816  10.908 -0.3020  0.4691  0.2187
  236MOL0     H31828  10.112   4.787  10.750 -2.2141  1.2879  1.4301
  236MOL0     H31829  10.093   4.960  10.722 -0.2111 -0.8794  0.3931
  236MOL0     H31830  10.163   4.864  10.506  1.7322  0.1180 -2.1203
  236MOL0     H31831  10.288   4.769  10.592 -0.9549 -0.2341 -1.0426
  236MOL0     H31832  10.362   5.038  10.624 -1.1009  2.0795 -0.8219
  236MOL0     H31833  10.437   4.918  10.523  2.0347  2.2398  0.7620
  236MOL0     H31834  10.194   5.058  10.421  0.0839 -0.7421 -0.7378
  236MOL0     H31835  10.322   4.967  10.342 -1.3631 -0.2019 -1.6384
  236MOL0     H31836  10.368   5.236  10.497 -2.2351 -2.8839  1.3589
  236MOL0     H31837  10.481   5.134  10.416  0.1369 -1.4954  1.6587
  236MOL0     H31838  10.366   5.172  10.198 -0.5614 -0.9903  0.1404
  236MOL0     H31839  10.420   5.326  10.261  0.1481  1.2183 -2.4121
  236MOL0     H31840  10.127   5.212  10.252 -1.2801  0.3148  3.3604
  236MOL0     H31841  10.202   5.353  10.178  2.6494 -2.3400 -2.1960
  236MOL0     H31842  10.045   4.823  10.972 -0.1661 -0.9129  1.5116
  236MOL0     H31843   9.823   4.852  11.096  2.3402 -0.5058  3.3662
  236MOL0     H31844   9.600   5.235  11.294  4.0701  2.1472  1.3898
  236MOL0     H31845   9.453   5.364  11.454  0.0396 -0.2291 -1.9823
  236MOL0     H31846   7.615   5.375  11.713 -5.3251  2.3832  2.3956
  236MOL0     H31847   7.540   5.552  11.581 -0.4764  2.2565  0.3508
  236MOL0     H31848   7.747   6.028  11.500 -2.2441  2.0756  0.6521
  236MOL0     H31849   7.813   6.169  11.298 -1.2758  2.0650 -0.3819
  236MOL0     H31850   7.548   6.206  10.958  0.2596  0.6735 -1.6303
  236MOL0     H31851   7.674   6.294  10.912 -1.3835 -0.0096 -1.0681
  236MOL0     H31852   7.636   6.057  10.792  2.2487 -2.0027 -1.5976
  236MOL0     H31853   7.698   5.978  10.927 -1.5492 -0.3269  0.5448
  236MOL0     H31854   7.909   6.114  10.910 -1.6731 -1.5106  1.6579
  236MOL0     H31855   7.840   6.194  10.762 -1.8213  0.4109  1.1117
  236MOL0     H31856   7.916   5.907  10.811 -1.0199  2.2744  3.2053
  236MOL0     H31857   7.997   6.011  10.693 -0.9241  0.0299  1.8474
  236MOL0     H31858   7.682   5.889  10.444  0.3622 -1.7098 -0.0069
  236MOL0     H31859   7.494   6.022  11.071 -2.4522 -0.6622  1.6359
  236MOL0     H31860   7.414   5.890  11.244  0.2289 -1.1119 -0.6877
  237MOL0     O31861   6.879   7.548   7.391  0.3709  0.1280  0.1256
  237MOL0     C31862   6.992   7.574   7.420 -0.5422  0.2350  0.0296
  237MOL0     O31863   7.049   7.697   7.383  0.5672  0.1416  0.3196
  237MOL0     C31864   6.964   7.803   7.339  0.6700 -0.0496 -0.4320
  237MOL0     C31865   6.862   7.864   7.415  0.5992 -0.1117  0.4575
  237MOL0     C31866   6.780   7.967   7.361 -0.0535 -0.3358  0.2261
  237MOL0     C31867   6.814   8.014   7.232  1.5662 -0.8042 -0.0124
  237MOL0     O31868   6.737   8.118   7.180  0.2767  0.4718  0.0108
  237MOL0     C31869   6.670   8.199   7.276  0.2890  0.1232  0.3331
  237MOL0     C31870   6.609   8.319   7.208  0.6233  0.5736  0.2676
  237MOL0     C31871   6.495   8.392   7.285  0.4562  1.0867  0.0765
  237MOL0     C31872   6.452   8.531   7.230 -0.6754  0.1900  0.3610
  237MOL0     C31873   6.340   8.596   7.319 -0.1165 -0.6286 -0.4529
  237MOL0     C31874   6.284   8.720   7.242 -0.0377  0.8543  0.1097
  237MOL0     C31875   6.195   8.804   7.334  0.6667 -0.0140 -0.0291
  237MOL0     C31876   6.115   8.913   7.265 -0.2017 -0.1609  0.4796
  237MOL0     N31877   6.027   8.992   7.365  0.3474 -0.4572 -0.3435
  237MOL0     C31878   6.057   9.105   7.438  0.2971 -0.3449 -0.1693
  237MOL0     C31879   5.961   9.129   7.527  0.4649 -1.1249  0.4571
  237MOL0     C31880   5.956   9.232   7.632 -0.2783  1.0004  0.0858
  237MOL0     C31881   5.965   9.171   7.769 -0.5837 -1.1209  0.1753
  237MOL0     C31882   5.929   9.279   7.867  0.0607  0.4168  0.1214
  237MOL0     C31883   5.780   9.286   7.884  0.2353  0.1406 -0.4406
  237MOL0     O31884   5.733   9.427   7.893  0.0236 -0.3825 -0.2232
  237MOL0     C31885   5.772   9.512   7.999 -0.2251 -0.4263  1.2418
  237MOL0     C31886   5.752   9.642   7.979  0.3655 -0.5701 -0.5371
  237MOL0     C31887   5.809   9.735   8.066 -0.2212 -0.0009  0.1236
  237MOL0     C31888   5.822   9.883   8.021 -0.4387  0.1529 -0.4720
  237MOL0     C31889   5.871   9.697   8.185  0.0841  0.4178 -0.3148
  237MOL0     C31890   5.895   9.790   8.301  0.1513  0.5172  0.0081
  237MOL0     O31891   5.981   9.738   8.389 -0.5021  1.1500 -0.4143
  237MOL0     C31892   6.033   9.799   8.498  0.2711 -0.9969  0.1333
  237MOL0     C31893   6.114   9.714   8.571 -0.6475 -1.0529  0.1221
  237MOL0     C31894   6.190   9.758   8.684 -0.2731  0.0305 -0.3724
  237MOL0     C31895   6.174   9.891   8.736 -0.5691 -0.2106 -0.5319
  237MOL0     O31896   6.235   9.937   8.859 -0.7206  0.4151  0.7748
  237MOL0     C31897   6.347   9.861   8.913 -0.2987  0.2450  0.0549
  237MOL0     C31898   6.407   9.920   9.043 -0.4192  1.2111 -0.2122
  237MOL0     C31899   6.528   9.836   9.084  0.3130 -0.3851 -0.7840
  237MOL0     C31900   6.648   9.856   8.996 -0.4539  0.4467  0.4687
  237MOL0     C31901   6.763   9.767   9.049 -0.1827  0.7824 -0.2643
  237MOL0     C31902   6.888   9.761   8.950  0.5108  0.2694  0.3098
  237MOL0     C31903   6.963   9.900   8.931  0.5917  0.5364 -0.4598
  237MOL0     C31904   6.906   9.990   8.824 -0.6986 -1.2999  0.0674
  237MOL0    Cl31905   6.990  10.150   8.787  0.1009  1.1561 -0.0317
  237MOL0     C31906   6.091   9.979   8.661  0.0417  0.2031  0.8930
  237MOL0     C31907   6.024   9.931   8.542 -0.7294 -0.2025  0.2861
  237MOL0     O31908   5.840   9.897   8.311 -0.2624 -0.6078  0.1275
  237MOL0     C31909   5.879   9.556   8.204  0.6365 -0.0901 -0.5385
  237MOL0     C31910   5.844   9.463   8.103  0.4902  0.2323 -0.1278
  237MOL0     N31911   5.864   9.036   7.502 -0.5815 -0.4926  0.5715
  237MOL0     N31912   5.914   8.949   7.414  0.9285 -0.0590 -0.3501
  237MOL0     C31913   6.918   7.959   7.161 -0.5857  0.2015  0.2612
  237MOL0     C31914   6.992   7.847   7.209 -0.9544  0.7357 -0.0570
  237MOL0     C31915   7.078   7.484   7.496  0.1149  0.9141 -0.5464
  237MOL0     C31916   7.219   7.463   7.470 -0.1044  0.3714  0.6638
  237MOL0     C31917   7.288   7.350   7.524 -0.4426 -0.1419  0.1537
  237MOL0     C31918   7.232   7.253   7.601  0.1238  0.8775 -0.1549
  237MOL0     O31919   7.316   7.163   7.661  0.0871  1.3674 -1.2632
  237MOL0     C31920   7.251   7.056   7.730  0.6970 -0.2784  0.5996
  237MOL0     C31921   7.220   7.110   7.872  0.2122  0.1888 -0.6554
  237MOL0     C31922   7.328   7.207   7.935 -0.4732 -1.0701 -0.0303
  237MOL0     C31923   7.463   7.152   7.980  0.6191 -0.3229 -0.4258
  237MOL0     C31924   7.547   7.250   8.044 -0.6632 -0.4130 -0.2563
  237MOL0     C31925   7.615   7.341   8.088  1.0049  0.5622 -0.0249
  237MOL0     C31926   7.091   7.269   7.628 -0.3463 -1.0310 -0.6292
  237MOL0     C31927   7.020   7.386   7.579  0.1660 -0.0343 -0.2207
  237MOL0     H31928   6.848   7.837   7.520  0.0218  2.2650  1.0572
  237MOL0     H31929   6.702   7.998   7.430  1.2720  2.0488  0.7931
  237MOL0     H31930   6.581   8.147   7.313 -1.6547  1.3623 -2.3162
  237MOL0     H31931   6.728   8.226   7.365 -1.2940 -3.6397  2.7616
  237MOL0     H31932   6.688   8.393   7.192 -0.5364  1.8950  0.3502
  237MOL0     H31933   6.563   8.285   7.114 -0.4480  2.4804  0.0379
  237MOL0     H31934   6.411   8.324   7.297  2.5177 -1.3256  1.9401
  237MOL0     H31935   6.524   8.409   7.389 -2.8483 -1.1058  1.4949
  237MOL0     H31936   6.539   8.596   7.242 -0.0470 -0.2021 -1.7538
  237MOL0     H31937   6.431   8.516   7.124  1.5609  3.1816 -0.6347
  237MOL0     H31938   6.261   8.522   7.334 -1.8721  1.2862  0.2242
  237MOL0     H31939   6.380   8.621   7.418 -0.2622  1.6827 -0.9203
  237MOL0     H31940   6.362   8.787   7.206 -0.3486  0.8648 -0.5614
  237MOL0     H31941   6.244   8.694   7.144  0.5519  0.2519  0.0239
  237MOL0     H31942   6.115   8.736   7.364  0.1087  0.9080  0.6354
  237MOL0     H31943   6.237   8.831   7.431 -0.1365 -0.3137  0.4054
  237MOL0     H31944   6.050   8.882   7.182  2.2514  2.7049 -2.8285
  237MOL0     H31945   6.196   8.971   7.219  0.1080 -1.0316 -0.1136
  237MOL0     H31946   6.147   9.165   7.432  1.1787 -1.5405  0.6670
  237MOL0     H31947   6.039   9.302   7.616 -0.3392  1.2574  0.8427
  237MOL0     H31948   5.863   9.289   7.625 -0.1172  1.9199  3.5605
  237MOL0     H31949   6.069   9.139   7.780  0.3191  1.3629 -0.3485
  237MOL0     H31950   5.899   9.088   7.795 -4.4246  1.8448  0.8736
  237MOL0     H31951   5.966   9.374   7.827  2.0380 -0.7497 -0.9986
  237MOL0     H31952   5.968   9.269   7.969  1.8617 -2.1894 -0.6996
  237MOL0     H31953   5.755   9.220   7.967  0.7444  0.4777 -0.0146
  237MOL0     H31954   5.726   9.252   7.795 -2.7208  1.2417  0.8066
  237MOL0     H31955   5.687   9.679   7.899 -2.3392 -0.9147  1.3636
  237MOL0     H31956   5.737   9.935   8.065  0.6220  0.2984  1.5036
  237MOL0     H31957   5.914   9.926   8.060 -1.1210 -0.7813  2.3736
  237MOL0     H31958   5.837   9.893   7.913  0.5014  1.5365 -0.2288
  237MOL0     H31959   6.139   9.613   8.540 -3.9704 -2.7071  2.2345
  237MOL0     H31960   6.256   9.692   8.738  2.2871  0.8433 -2.3041
  237MOL0     H31961   6.305   9.764   8.943 -0.0808  1.2384  4.1965
  237MOL0     H31962   6.431   9.853   8.844  0.7733  1.8088  1.0864
  237MOL0     H31963   6.441  10.024   9.036 -1.3077  1.7256  2.2245
  237MOL0     H31964   6.335   9.913   9.125  1.8845 -1.9376  1.7871
  237MOL0     H31965   6.501   9.730   9.080  0.5199 -0.5082  0.6323
  237MOL0     H31966   6.550   9.870   9.186 -0.0417  1.3363 -1.2371
  237MOL0     H31967   6.633   9.837   8.889 -2.4115  1.5081  0.5113
  237MOL0     H31968   6.678   9.960   9.008  1.0631  0.6028 -3.4119
  237MOL0     H31969   6.718   9.668   9.043  0.3074  0.4989  0.5918
  237MOL0     H31970   6.786   9.798   9.152 -0.6238 -2.7343  1.0093
  237MOL0     H31971   6.965   9.690   8.982 -0.4607 -1.1002 -0.3345
  237MOL0     H31972   6.845   9.724   8.857 -0.4769 -0.4954  1.0612
  237MOL0     H31973   7.068   9.873   8.913  0.7088 -1.5324  2.6853
  237MOL0     H31974   6.946   9.941   9.031 -0.4498 -0.6146 -0.1517
  237MOL0     H31975   6.803  10.024   8.829 -0.0880  0.4495  3.5895
  237MOL0     H31976   6.914   9.937   8.728 -2.1091  3.3677 -2.9927
  237MOL0     H31977   6.062  10.081   8.685  0.1895  0.5980 -0.5149
  237MOL0     H31978   5.965  10.002   8.484 -0.5278 -0.4478 -0.2326
  237MOL0     H31979   5.919   9.519   8.297 -0.6854 -2.9984 -1.0123
  237MOL0     H31980   5.868   9.359   8.122  1.7990  0.9224  2.5214
  237MOL0     H31981   6.934   7.997   7.060  0.1114  3.5347  1.5000
  237MOL0     H31982   7.064   7.797   7.145 -0.8508  1.3682 -0.4399
  237MOL0     H31983   7.276   7.538   7.417  0.8026 -0.2377  0.7627
  237MOL0     H31984   7.396   7.349   7.510 -0.4040 -0.1680  0.4463
  237MOL0     H31985   7.160   7.023   7.679  1.5363 -1.2324 -0.3452
  237MOL0     H31986   7.317   6.969   7.721  0.1282 -0.5217 -2.5162
  237MOL0     H31987   7.200   7.025   7.938  0.2400 -0.0590 -0.9643
  237MOL0     H31988   7.125   7.164   7.868  0.3114  0.3052 -2.5397
  237MOL0     H31989   7.275   7.251   8.020 -3.6345  1.8533 -3.1916
  237MOL0     H31990   7.332   7.299   7.876 -0.7117  0.6998  2.5886
  237MOL0     H31991   7.516   7.124   7.888 -0.6923  0.3749 -1.4228
  237MOL0     H31992   7.443   7.070   8.049  1.2543  0.1248  0.3137
  237MOL0     H31993   7.681   7.417   8.123  1.4862  0.5303 -0.8327
  237MOL0     H31994   7.029   7.202   7.686 -1.5769 -1.1212 -1.9901
  237MOL0     H31995   6.915   7.405   7.596  0.0532  0.4645 -1.3969
  238MOL0     O31996   6.252   4.701   4.691 -0.2969 -0.6325 -0.1395
  238MOL0     C31997   6.326   4.607   4.692  0.2522 -0.0018  0.0469
  238MOL0     O31998   6.329   4.509   4.592 -0.1305  0.1856 -1.0725
  238MOL0     C31999   6.230   4.489   4.499  0.7629  0.2852 -0.1032
  238MOL0     C32000   6.258   4.462   4.367  0.0164  0.3076 -0.2553
  238MOL0     C32001   6.161   4.446   4.273  0.3597 -1.2292  0.7343
  238MOL0     C32002   6.027   4.480   4.297 -0.9566  1.0526 -0.0623
  238MOL0     O32003   5.926   4.463   4.213  0.7582  0.4727  0.6762
  238MOL0     C32004   5.938   4.463   4.069 -0.7151 -0.2964  0.5007
  238MOL0     C32005   5.795   4.460   4.004  0.3386 -0.0061 -0.2698
  238MOL0     C32006   5.695   4.574   4.051  1.2662  0.9929 -0.7773
  238MOL0     C32007   5.554   4.553   3.995  0.0556 -0.2059 -0.0654
  238MOL0     C32008   5.448   4.650   4.053  0.4388  0.3553 -0.1224
  238MOL0     C32009   5.479   4.797   4.018  0.0192  0.2879 -0.8090
  238MOL0     C32010   5.355   4.886   4.038  0.0176 -0.1024  0.2120
  238MOL0     C32011   5.373   5.034   3.982 -0.2959  0.5697  0.3400
  238MOL0     N32012   5.259   5.114   4.019  0.0198  0.2568  0.1973
  238MOL0     C32013   5.216   5.175   4.142 -0.6698 -0.1008 -0.5212
  238MOL0     C32014   5.100   5.225   4.111  0.1321  0.9024  0.2940
  238MOL0     C32015   5.025   5.314   4.202 -0.4960 -0.2477  0.4705
  238MOL0     C32016   4.943   5.233   4.300  0.2968 -0.0698 -0.0136
  238MOL0     C32017   4.853   5.329   4.377  0.7681 -0.6725 -0.1232
  238MOL0     C32018   4.754   5.246   4.458 -0.1341 -0.4570  0.0988
  238MOL0     O32019   4.644   5.193   4.378 -0.1066  0.0354 -0.0606
  238MOL0     C32020   4.535   5.270   4.354  0.1753  0.1946 -0.5214
  238MOL0     C32021   4.452   5.225   4.252  0.4930  0.2563  0.4181
  238MOL0     C32022   4.338   5.292   4.225  0.4766 -1.2860 -0.0281
  238MOL0     C32023   4.240   5.220   4.124 -0.4068 -0.3046  0.5268
  238MOL0     C32024   4.303   5.416   4.285 -0.6840  0.8767  0.6084
  238MOL0     C32025   4.170   5.489   4.278 -1.0296  0.5721  0.5902
  238MOL0     O32026   4.091   5.459   4.172 -0.1471  0.0660 -0.8164
  238MOL0     C32027   3.977   5.528   4.166  0.9302 -0.0791  0.2745
  238MOL0     C32028   3.900   5.592   4.272 -0.3044 -1.3141 -0.2051
  238MOL0     C32029   3.788   5.662   4.242  0.1956 -1.1545  0.7474
  238MOL0     C32030   3.743   5.678   4.112 -0.4060  0.2302  0.8604
  238MOL0     O32031   3.617   5.735   4.076 -0.3512 -0.3328 -0.2017
  238MOL0     C32032   3.523   5.753   4.180 -0.8927 -0.2119  0.8508
  238MOL0     C32033   3.403   5.829   4.120 -0.0015  0.4741 -0.1283
  238MOL0     C32034   3.296   5.731   4.079  0.3168 -0.1075  0.2827
  238MOL0     C32035   3.222   5.771   3.951 -0.4128 -0.0616  0.1544
  238MOL0     C32036   3.100   5.681   3.922  0.7202 -0.5557 -0.7177
  238MOL0     C32037   2.990   5.680   4.030 -0.1654 -0.2009  0.0283
  238MOL0     C32038   2.954   5.821   4.075 -0.0801  0.0240  0.0823
  238MOL0     C32039   2.807   5.835   4.112  0.0303  0.4515  0.8574
  238MOL0    Cl32040   2.753   5.731   4.263 -0.3464  0.3979  0.1853
  238MOL0     C32041   3.823   5.632   4.012  0.4752 -0.4133 -0.9941
  238MOL0     C32042   3.938   5.562   4.033 -0.1444  0.6396 -0.5827
  238MOL0     O32043   4.152   5.575   4.365  0.3984  0.0014 -0.2632
  238MOL0     C32044   4.396   5.460   4.380  0.0837 -0.1506  0.4419
  238MOL0     C32045   4.506   5.387   4.411 -0.6231  0.2500 -0.5865
  238MOL0     N32046   5.076   5.209   3.972  0.3196  0.2850  0.7156
  238MOL0     N32047   5.166   5.137   3.929 -0.1084 -0.3882 -0.0155
  238MOL0     C32048   5.995   4.498   4.430 -0.0388 -0.1315  0.2651
  238MOL0     C32049   6.088   4.490   4.535  0.3510  1.1752 -0.1144
  238MOL0     C32050   6.402   4.583   4.811 -0.2664  0.1820 -0.6636
  238MOL0     C32051   6.404   4.676   4.920  0.9346 -0.4287 -0.4053
  238MOL0     C32052   6.479   4.650   5.035 -0.7023  0.7917  0.6277
  238MOL0     C32053   6.573   4.543   5.028 -0.1498  0.0053  0.3338
  238MOL0     O32054   6.657   4.510   5.139  0.0754 -0.2882  0.5649
  238MOL0     C32055   6.669   4.591   5.254  0.2117  0.4255 -0.1950
  238MOL0     C32056   6.787   4.557   5.342  0.5653 -0.0094  0.5950
  238MOL0     C32057   6.923   4.598   5.278  0.3426 -0.3609 -0.1611
  238MOL0     C32058   7.037   4.495   5.251  0.3046 -1.0502 -0.1848
  238MOL0     C32059   7.096   4.446   5.367 -0.2508  0.5157 -0.9513
  238MOL0     C32060   7.167   4.422   5.464 -0.8361  0.2221 -0.9009
  238MOL0     C32061   6.560   4.451   4.919 -0.1556  0.6768 -0.4631
  238MOL0     C32062   6.473   4.468   4.821 -0.6699  0.2794 -1.1892
  238MOL0     H32063   6.359   4.455   4.328 -0.1520 -1.0221 -0.5037
  238MOL0     H32064   6.186   4.405   4.175  6.6892  2.4928  0.2916
  238MOL0     H32065   5.999   4.548   4.039  3.0843 -2.4187  1.5470
  238MOL0     H32066   5.981   4.366   4.043 -1.5838 -0.7165  0.5962
  238MOL0     H32067   5.794   4.445   3.895  0.6626 -0.5194 -0.2023
  238MOL0     H32068   5.756   4.369   4.050 -1.1787  1.3496  1.2831
  238MOL0     H32069   5.687   4.584   4.160  1.4385 -0.9862 -0.5450
  238MOL0     H32070   5.733   4.673   4.025 -1.5067  2.3158 -0.2326
  238MOL0     H32071   5.554   4.547   3.886 -0.2314 -2.4038  0.0082
  238MOL0     H32072   5.519   4.458   4.038  0.8608  0.3976  2.0020
  238MOL0     H32073   5.352   4.616   4.012 -1.4388  1.7954  2.7233
  238MOL0     H32074   5.437   4.631   4.160  2.6160 -3.2584 -0.4077
  238MOL0     H32075   5.551   4.840   4.088 -0.7106  0.3933 -0.1091
  238MOL0     H32076   5.524   4.801   3.918 -1.3372  0.6795 -1.4218
  238MOL0     H32077   5.271   4.838   3.986  1.3794 -1.3558 -0.9120
  238MOL0     H32078   5.332   4.890   4.145 -0.0331 -0.9621  0.2427
  238MOL0     H32079   5.394   5.019   3.876 -1.8368 -0.3937  0.1309
  238MOL0     H32080   5.462   5.069   4.036  0.6504 -0.5762 -0.4270
  238MOL0     H32081   5.262   5.176   4.240 -1.7527  0.2260 -0.0046
  238MOL0     H32082   5.098   5.370   4.260  0.4833 -0.4391 -0.5431
  238MOL0     H32083   4.969   5.385   4.141 -0.2608 -0.3747  0.1049
  238MOL0     H32084   5.012   5.190   4.373  1.9506 -0.1544 -1.5559
  238MOL0     H32085   4.878   5.161   4.248  0.8496 -1.0896  0.6653
  238MOL0     H32086   4.794   5.391   4.309 -1.1147 -1.6362  0.5801
  238MOL0     H32087   4.909   5.402   4.437 -0.3157  1.1216 -1.2112
  238MOL0     H32088   4.719   5.302   4.546  0.3840  0.2981 -0.1691
  238MOL0     H32089   4.810   5.165   4.505  0.6412  0.6105  1.0803
  238MOL0     H32090   4.471   5.136   4.192 -1.6443  0.5919 -0.8710
  238MOL0     H32091   4.228   5.285   4.037  0.2748 -0.9689 -0.0726
  238MOL0     H32092   4.269   5.125   4.079  0.0946  0.0820  0.0158
  238MOL0     H32093   4.148   5.196   4.178  0.1481 -0.6725  1.3181
  238MOL0     H32094   3.931   5.566   4.373 -0.1032 -3.5354 -0.7797
  238MOL0     H32095   3.736   5.693   4.332  3.1471  0.3760  2.0703
  238MOL0     H32096   3.497   5.655   4.220  1.1437 -1.4570 -0.6662
  238MOL0     H32097   3.568   5.828   4.246  2.5413 -1.6674  0.3581
  238MOL0     H32098   3.369   5.894   4.202  2.4626  0.9920  0.5618
  238MOL0     H32099   3.421   5.891   4.032  0.4942 -0.4941 -0.7247
  238MOL0     H32100   3.221   5.741   4.157  0.5268  0.8688  0.3769
  238MOL0     H32101   3.345   5.633   4.072  0.3268 -0.3803  3.0725
  238MOL0     H32102   3.192   5.875   3.965  1.3330  0.6010 -0.7182
  238MOL0     H32103   3.301   5.764   3.876  2.8555  1.8284  3.0603
  238MOL0     H32104   3.136   5.581   3.896  2.6872 -0.9844  2.9956
  238MOL0     H32105   3.045   5.714   3.833 -3.4833 -0.5968  1.6026
  238MOL0     H32106   2.903   5.632   3.986  0.1926  0.4407 -1.4406
  238MOL0     H32107   3.034   5.622   4.112  1.6414 -2.6702 -2.4912
  238MOL0     H32108   2.969   5.886   3.989 -1.0222 -1.0776 -0.9563
  238MOL0     H32109   3.023   5.854   4.153 -1.6168  0.7601  1.1792
  238MOL0     H32110   2.757   5.801   4.021  0.3136  2.4208 -0.0665
  238MOL0     H32111   2.782   5.938   4.137  1.6900  0.9209  0.6742
  238MOL0     H32112   3.785   5.647   3.911  0.2435  1.9906 -0.6002
  238MOL0     H32113   3.985   5.530   3.941  0.3707  0.5637 -0.2941
  238MOL0     H32114   4.385   5.554   4.433  0.6470  1.0328 -1.4522
  238MOL0     H32115   4.568   5.424   4.491 -1.0491 -3.7308  1.8549
  238MOL0     H32116   5.889   4.506   4.449 -0.0003  1.1770  0.0507
  238MOL0     H32117   6.047   4.493   4.636 -0.8752 -1.1876 -0.4692
  238MOL0     H32118   6.346   4.768   4.920 -0.7143 -1.3473  2.4645
  238MOL0     H32119   6.490   4.716   5.121 -0.1631  1.9838 -0.3266
  238MOL0     H32120   6.668   4.696   5.225  3.6212  1.0167  1.3326
  238MOL0     H32121   6.594   4.557   5.325  2.1851 -2.5543  0.6440
  238MOL0     H32122   6.796   4.450   5.364  2.5942 -0.2217 -0.9217
  238MOL0     H32123   6.776   4.602   5.441  2.6660 -0.9732  1.3450
  238MOL0     H32124   6.962   4.672   5.348 -2.1251 -0.9431  1.9631
  238MOL0     H32125   6.907   4.644   5.180 -1.5930 -0.1668  0.2089
  238MOL0     H32126   7.114   4.540   5.187 -0.2018 -0.1267 -0.1557
  238MOL0     H32127   7.007   4.403   5.200  2.5609 -2.8032  1.4152
  238MOL0     H32128   7.238   4.405   5.543 -0.1171  1.0582 -1.3522
  238MOL0     H32129   6.627   4.368   4.934  0.2902  0.9689 -0.8070
  238MOL0     H32130   6.451   4.388   4.751 -1.1805 -0.8141  0.1640
  239MOL0     O32131  10.667   8.123   0.935  0.0634  0.3786  0.2622
  239MOL0     C32132  10.584   8.085   1.019 -0.2543 -0.6283  0.5517
  239MOL0     O32133  10.459   8.141   1.027 -0.5225  0.0137  0.6474
  239MOL0     C32134  10.435   8.221   0.919 -0.1616 -0.7123  0.6159
  239MOL0     C32135  10.439   8.360   0.926 -0.8723  0.1273  0.0530
  239MOL0     C32136  10.420   8.433   0.807 -0.1430  0.2827 -1.0722
  239MOL0     C32137  10.397   8.377   0.679 -0.7226 -0.1329  0.2515
  239MOL0     O32138  10.391   8.464   0.564  0.4415 -0.4032 -0.0731
  239MOL0     C32139  10.321   8.419   0.446 -0.4769 -1.1281 -0.1393
  239MOL0     C32140  10.431   8.363   0.355  0.4409 -0.2421 -0.1249
  239MOL0     C32141  10.495   8.450   0.252 -0.3465  0.0921 -0.3936
  239MOL0     C32142  10.603   8.380   0.169 -0.1549  0.5426  0.1198
  239MOL0     C32143  10.709   8.472   0.119  0.5999  0.7400 -0.0257
  239MOL0     C32144  10.651   8.579   0.031 -1.2070 -1.2503  0.2385
  239MOL0     C32145  10.759   8.667  -0.011  0.6158 -0.7128  0.6905
  239MOL0     C32146  10.716   8.803  -0.071  0.8189  0.9256  0.3605
  239MOL0     N32147  10.818   8.864  -0.159  1.0968  0.7821  0.1762
  239MOL0     C32148  10.806   8.871  -0.301  0.6873  0.4135 -0.8580
  239MOL0     C32149  10.902   8.955  -0.331  0.7453  0.4213  0.3874
  239MOL0     C32150  10.934   9.008  -0.477  0.2651 -0.0079  0.1127
  239MOL0     C32151  10.806   9.068  -0.546  0.3071  0.8989  0.2888
  239MOL0     C32152  10.742   9.186  -0.471  0.9252 -0.4293 -0.7276
  239MOL0     C32153  10.640   9.152  -0.366  0.5490 -0.2146 -0.6469
  239MOL0     O32154  10.520   9.089  -0.418 -0.6742  0.5408  0.4282
  239MOL0     C32155  10.454   9.018  -0.326 -0.8503  0.3682  0.8715
  239MOL0     C32156  10.432   9.049  -0.196  0.6965 -0.3455 -0.7149
  239MOL0     C32157  10.379   8.962  -0.099 -0.5447 -0.7221  1.1274
  239MOL0     C32158  10.358   9.020   0.047  0.1414 -1.5785 -0.2785
  239MOL0     C32159  10.351   8.829  -0.139  0.6763  0.7384 -0.1848
  239MOL0     C32160  10.293   8.729  -0.048  0.1984 -0.3196  0.4631
  239MOL0     O32161  10.193   8.648  -0.091  0.0908  0.4242 -0.0138
  239MOL0     C32162  10.119   8.553  -0.023 -0.1990 -0.0201 -0.9733
  239MOL0     C32163  10.123   8.533   0.122  0.0135 -0.3810  0.0427
  239MOL0     C32164  10.036   8.443   0.184 -0.6826  0.1971  0.0197
  239MOL0     C32165   9.929   8.396   0.111 -0.2145 -0.3453  0.9374
  239MOL0     O32166   9.835   8.328   0.186  0.1532  0.4190  0.3145
  239MOL0     C32167   9.695   8.339   0.173  0.5720 -0.9986 -0.9102
  239MOL0     C32168   9.657   8.486   0.216  0.7974  0.8526 -0.3278
  239MOL0     C32169   9.513   8.507   0.173  0.4543 -0.1783  0.2208
  239MOL0     C32170   9.454   8.622   0.252  0.3207  0.2524  0.2994
  239MOL0     C32171   9.304   8.654   0.232  0.2571 -0.5755 -0.6020
  239MOL0     C32172   9.266   8.692   0.080  0.5573  0.5986 -0.0949
  239MOL0     C32173   9.333   8.813   0.025 -1.0039 -0.1840  0.2514
  239MOL0     C32174   9.273   8.830  -0.125  0.0006  0.2810 -0.0877
  239MOL0    Cl32175   9.359   8.948  -0.216 -0.5675  0.1530  0.0460
  239MOL0     C32176   9.921   8.416  -0.031 -0.3727  0.1554 -0.4167
  239MOL0     C32177  10.021   8.494  -0.098  0.5149 -0.4917  0.1316
  239MOL0     O32178  10.349   8.725   0.061 -0.7439  0.3862  0.7841
  239MOL0     C32179  10.361   8.795  -0.269  0.9077 -0.2053 -0.2736
  239MOL0     C32180  10.409   8.890  -0.363 -0.5021  0.9643 -0.3720
  239MOL0     N32181  10.981   8.974  -0.216 -0.0663  0.7741  0.6855
  239MOL0     N32182  10.926   8.925  -0.110  0.9857 -0.2866  0.9581
  239MOL0     C32183  10.381   8.238   0.671  0.2683 -1.3091  0.1639
  239MOL0     C32184  10.390   8.167   0.795 -0.7178 -0.3448 -0.3410
  239MOL0     C32185  10.618   7.984   1.120 -0.0517  0.3433 -0.4269
  239MOL0     C32186  10.539   7.978   1.232  0.1015  0.2876 -0.2417
  239MOL0     C32187  10.570   7.899   1.340  0.3887 -0.6162 -0.2649
  239MOL0     C32188  10.676   7.810   1.341  0.1175  0.4988  0.8248
  239MOL0     O32189  10.696   7.728   1.452 -0.5167  0.1257 -0.1689
  239MOL0     C32190  10.775   7.607   1.447  1.1604 -0.0020 -0.2921
  239MOL0     C32191  10.901   7.631   1.530  0.0424 -0.1811  0.0423
  239MOL0     C32192  10.981   7.505   1.527 -0.1638  0.4692  0.9419
  239MOL0     C32193  11.109   7.507   1.616  0.2437  0.7368 -0.6681
  239MOL0     C32194  11.193   7.386   1.594 -0.9582  0.1356  0.9583
  239MOL0     C32195  11.255   7.282   1.575  0.1055 -0.1547 -0.1330
  239MOL0     C32196  10.758   7.809   1.227 -0.4832 -0.5022 -0.1843
  239MOL0     C32197  10.727   7.898   1.122  0.5210 -0.8554 -0.4549
  239MOL0     H32198  10.473   8.404   1.019  1.0543 -1.2871  0.0680
  239MOL0     H32199  10.432   8.541   0.817 -0.0689  0.1980 -0.2458
  239MOL0     H32200  10.243   8.348   0.473 -0.9509 -0.0579  1.4524
  239MOL0     H32201  10.278   8.501   0.388 -0.8214 -1.9986 -1.1454
  239MOL0     H32202  10.502   8.320   0.427  0.7139  1.5875  0.7601
  239MOL0     H32203  10.379   8.284   0.300 -0.6455  2.2435 -2.9632
  239MOL0     H32204  10.424   8.502   0.188  0.3127  3.5863  1.4603
  239MOL0     H32205  10.545   8.522   0.318 -1.0677 -0.8253  1.2297
  239MOL0     H32206  10.658   8.312   0.234 -1.5823 -0.6675  0.1170
  239MOL0     H32207  10.561   8.310   0.096  0.0956 -0.1456  0.6289
  239MOL0     H32208  10.772   8.509   0.200  1.3691  0.6932 -0.6032
  239MOL0     H32209  10.777   8.411   0.059  1.3235  0.9772  0.5453
  239MOL0     H32210  10.594   8.549  -0.058 -1.4628  2.6081 -1.0668
  239MOL0     H32211  10.588   8.643   0.093 -0.2076 -1.0725  1.0986
  239MOL0     H32212  10.822   8.692   0.075  0.5174  2.3498 -0.0003
  239MOL0     H32213  10.811   8.607  -0.086 -0.1347 -1.4099  0.7308
  239MOL0     H32214  10.697   8.869   0.015  0.5896  1.1218  0.1613
  239MOL0     H32215  10.624   8.790  -0.128 -0.3159 -0.7311  2.4417
  239MOL0     H32216  10.740   8.828  -0.375 -1.9075  0.1438  1.4282
  239MOL0     H32217  11.016   9.081  -0.479  0.1160  0.1929  1.0729
  239MOL0     H32218  10.979   8.932  -0.542 -1.5381  1.8830 -3.6313
  239MOL0     H32219  10.736   8.984  -0.548  2.0265 -0.6442  1.0313
  239MOL0     H32220  10.839   9.086  -0.649  2.4233 -5.7822 -0.6839
  239MOL0     H32221  10.703   9.264  -0.536  0.9714  1.2978  1.2229
  239MOL0     H32222  10.813   9.243  -0.410 -1.9801  2.4927  0.2127
  239MOL0     H32223  10.603   9.246  -0.323 -3.7248 -0.9062 -2.3156
  239MOL0     H32224  10.692   9.085  -0.297  1.2409  0.2345 -0.7203
  239MOL0     H32225  10.473   9.147  -0.172 -2.2040  0.8630 -0.1898
  239MOL0     H32226  10.262   8.990   0.090 -1.5937  2.6263 -0.6496
  239MOL0     H32227  10.436   8.988   0.116  0.2952 -1.4709 -0.4018
  239MOL0     H32228  10.359   9.129   0.041 -0.5919 -1.5635 -0.2257
  239MOL0     H32229  10.194   8.590   0.183 -0.9409 -0.4364  1.2476
  239MOL0     H32230  10.033   8.429   0.291 -0.8095 -1.9831 -0.2255
  239MOL0     H32231   9.677   8.337   0.065  0.4467 -0.7793 -0.8945
  239MOL0     H32232   9.637   8.266   0.229  0.2370 -0.5429 -0.6633
  239MOL0     H32233   9.668   8.494   0.324  1.5383 -1.0448 -0.2241
  239MOL0     H32234   9.724   8.559   0.170 -1.3098  1.7129 -2.2321
  239MOL0     H32235   9.449   8.420   0.188  1.2307 -1.3118 -2.4230
  239MOL0     H32236   9.507   8.532   0.066  2.0894  0.1818  0.1824
  239MOL0     H32237   9.484   8.587   0.352  0.6901 -0.8863 -0.1881
  239MOL0     H32238   9.503   8.717   0.229 -3.7934  3.4359  3.2221
  239MOL0     H32239   9.281   8.740   0.295  4.6227 -0.9507  1.8651
  239MOL0     H32240   9.252   8.562   0.261  2.5140 -1.8686 -0.4046
  239MOL0     H32241   9.295   8.605   0.019 -2.3379  0.8569 -2.0154
  239MOL0     H32242   9.157   8.697   0.080  0.5110 -0.2478  0.2520
  239MOL0     H32243   9.437   8.783   0.007 -0.4758  1.3012  0.6585
  239MOL0     H32244   9.325   8.908   0.080 -1.6714 -0.3446  0.4415
  239MOL0     H32245   9.169   8.863  -0.115 -0.2693 -0.7047  0.4921
  239MOL0     H32246   9.266   8.737  -0.182  2.3254 -1.7534  2.6486
  239MOL0     H32247   9.832   8.391  -0.088 -1.3414 -0.9741  1.4592
  239MOL0     H32248  10.005   8.517  -0.203  0.7766  0.7407  0.3513
  239MOL0     H32249  10.327   8.698  -0.305  0.1569  0.1579 -0.5711
  239MOL0     H32250  10.440   8.846  -0.457  2.4813 -0.8886  1.3270
  239MOL0     H32251  10.371   8.195   0.572 -1.3638  1.1480 -0.8580
  239MOL0     H32252  10.392   8.058   0.796  1.4087 -0.3506  0.2915
  239MOL0     H32253  10.448   8.038   1.227 -0.7920 -0.9995  0.0201
  239MOL0     H32254  10.519   7.897   1.436  0.1786 -3.5272 -0.3426
  239MOL0     H32255  10.708   7.539   1.500 -1.3177  3.2390  1.0065
  239MOL0     H32256  10.802   7.571   1.347  2.9859  0.8000 -0.1345
  239MOL0     H32257  10.870   7.660   1.631  1.1795  0.6643  0.1566
  239MOL0     H32258  10.967   7.705   1.485  0.4272 -1.9507 -2.5037
  239MOL0     H32259  11.007   7.475   1.425  0.3990 -2.0523  1.7523
  239MOL0     H32260  10.923   7.417   1.556 -2.8055  0.9112 -2.3756
  239MOL0     H32261  11.085   7.513   1.722 -0.9423  1.7216 -0.9810
  239MOL0     H32262  11.169   7.592   1.583  0.9840  1.3812  2.0610
  239MOL0     H32263  11.318   7.197   1.559  1.2468 -0.0004  2.9148
  239MOL0     H32264  10.847   7.748   1.229  0.4663  0.7738 -1.5690
  239MOL0     H32265  10.794   7.922   1.040  0.7572  0.5096  0.1167
  240MOL0     O32266   5.532   3.865   4.584 -0.1775  0.0777  0.3555
  240MOL0     C32267   5.597   3.803   4.505  0.4948 -0.5818 -0.3549
  240MOL0     O32268   5.550   3.755   4.387  0.0147  0.5257 -0.5061
  240MOL0     C32269   5.437   3.808   4.324  0.7763  0.4410 -0.3075
  240MOL0     C32270   5.384   3.942   4.327 -0.2597 -0.0277 -0.1247
  240MOL0     C32271   5.270   3.981   4.263  0.7461 -0.0208  0.5594
  240MOL0     C32272   5.206   3.891   4.184  0.7231 -0.6346  0.3605
  240MOL0     O32273   5.107   3.952   4.107 -0.1479  0.2554  0.1482
  240MOL0     C32274   5.064   3.896   3.986 -0.5140  0.9132 -0.7965
  240MOL0     C32275   4.950   3.979   3.944 -0.3858 -0.2373 -0.7847
  240MOL0     C32276   4.825   3.900   3.916  0.0751  0.5020  0.6319
  240MOL0     C32277   4.714   3.992   3.851 -0.9619  0.1972 -0.0669
  240MOL0     C32278   4.628   3.931   3.747  0.1522  0.0545 -0.5374
  240MOL0     C32279   4.539   3.822   3.807 -0.2550  0.4221  1.1217
  240MOL0     C32280   4.412   3.875   3.869 -0.1865 -0.3323 -0.6242
  240MOL0     C32281   4.339   3.764   3.953 -0.5216 -0.4481 -0.1321
  240MOL0     N32282   4.200   3.795   3.968  0.0589 -0.2794 -0.5826
  240MOL0     C32283   4.105   3.708   4.029 -0.4451  0.0598  0.1921
  240MOL0     C32284   3.991   3.777   4.037  0.4826  0.0221 -0.0888
  240MOL0     C32285   3.855   3.740   4.087 -1.2937  0.1126  0.7996
  240MOL0     C32286   3.813   3.842   4.194  0.4229  0.7072  0.3405
  240MOL0     C32287   3.670   3.806   4.245  0.3474  0.3529  0.0423
  240MOL0     C32288   3.549   3.875   4.171 -0.9366 -0.1979  0.0465
  240MOL0     O32289   3.467   3.785   4.098  0.2145 -0.0071 -0.3375
  240MOL0     C32290   3.358   3.842   4.040  0.2472 -0.5350  0.0105
  240MOL0     C32291   3.236   3.782   4.072 -0.4815  0.4344  0.4387
  240MOL0     C32292   3.112   3.826   4.023  0.0550 -0.0478 -0.3213
  240MOL0     C32293   2.989   3.760   4.073  0.0268  0.0363 -0.4158
  240MOL0     C32294   3.112   3.941   3.936  0.5557 -1.2410 -0.3591
  240MOL0     C32295   2.988   4.001   3.881 -0.4823 -0.8414  1.0878
  240MOL0     O32296   3.006   4.076   3.764  0.5173 -0.3758  0.2451
  240MOL0     C32297   2.907   4.158   3.706 -0.0077 -0.0558 -0.2478
  240MOL0     C32298   2.782   4.192   3.755  0.2733 -0.4469 -0.2616
  240MOL0     C32299   2.689   4.279   3.685  0.3108  1.0469 -0.0359
  240MOL0     C32300   2.728   4.336   3.565 -0.6048  0.7462  0.0531
  240MOL0     O32301   2.635   4.415   3.502  0.1653 -0.6261  0.0518
  240MOL0     C32302   2.641   4.443   3.364  1.0286 -0.2655 -0.9199
  240MOL0     C32303   2.600   4.584   3.333  0.9094 -0.3498 -0.7364
  240MOL0     C32304   2.613   4.610   3.185 -0.4457  0.5674  0.3541
  240MOL0     C32305   2.552   4.743   3.137 -0.0412 -0.2927 -0.1751
  240MOL0     C32306   2.601   4.767   2.992  0.0125  0.1504  0.3530
  240MOL0     C32307   2.516   4.871   2.918 -0.5048  0.8659 -0.0494
  240MOL0     C32308   2.530   4.847   2.769  0.1228 -0.0099  0.7239
  240MOL0     C32309   2.440   4.936   2.682 -0.8154 -0.9451  0.0182
  240MOL0    Cl32310   2.479   5.101   2.676  0.0471 -0.1239 -0.7119
  240MOL0     C32311   2.860   4.296   3.526  0.7359 -0.2131 -0.2163
  240MOL0     C32312   2.944   4.215   3.587 -0.9721 -0.0215  0.0164
  240MOL0     O32313   2.884   4.004   3.951 -0.9770 -1.0431 -0.0788
  240MOL0     C32314   3.237   3.988   3.895 -0.0365 -1.0433  0.3999
  240MOL0     C32315   3.361   3.947   3.945  0.6465 -0.7600 -0.3972
  240MOL0     N32316   4.012   3.895   3.967  0.3018 -0.0639  0.4249
  240MOL0     N32317   4.134   3.904   3.917 -0.0945  0.4299  0.5462
  240MOL0     C32318   5.258   3.767   4.159  0.3099  0.1104  0.8958
  240MOL0     C32319   5.366   3.718   4.241  0.7895 -0.4852  0.4170
  240MOL0     C32320   5.735   3.780   4.536 -0.1741  0.6572  0.1875
  240MOL0     C32321   5.772   3.804   4.678  0.2163  0.3170 -0.4934
  240MOL0     C32322   5.898   3.769   4.725  0.1950  0.4761  0.1507
  240MOL0     C32323   6.007   3.737   4.632 -0.5215 -0.9753 -0.3260
  240MOL0     O32324   6.130   3.687   4.666 -0.5717  0.2456  0.5390
  240MOL0     C32325   6.171   3.718   4.796  0.3757  0.8276  0.0230
  240MOL0     C32326   6.323   3.699   4.806  0.2392 -0.0494  0.1262
  240MOL0     C32327   6.366   3.696   4.951 -0.2756  0.4481 -0.0341
  240MOL0     C32328   6.519   3.673   4.952 -0.9801  0.3688  0.3388
  240MOL0     C32329   6.601   3.782   4.900  0.0424  0.2897  0.6715
  240MOL0     C32330   6.677   3.871   4.855 -0.2383  0.8982 -0.5484
  240MOL0     C32331   5.965   3.719   4.494 -0.5213 -0.1474  0.5893
  240MOL0     C32332   5.830   3.727   4.453  0.1876  0.3617 -0.9703
  240MOL0     H32333   5.446   4.012   4.382  0.5732 -2.0817  1.7156
  240MOL0     H32334   5.248   4.088   4.263  0.0204 -0.1659 -0.2249
  240MOL0     H32335   5.143   3.889   3.910  0.4559 -0.3284  0.2836
  240MOL0     H32336   5.023   3.796   4.004  1.4574  0.4931  2.0753
  240MOL0     H32337   4.914   4.047   4.021 -1.4983  0.1608 -1.6176
  240MOL0     H32338   4.982   4.044   3.863  0.7173  1.1498  0.7074
  240MOL0     H32339   4.848   3.809   3.859 -3.6707  0.1268 -0.5325
  240MOL0     H32340   4.786   3.853   4.006  1.4199 -2.8353 -0.3600
  240MOL0     H32341   4.659   4.009   3.943 -0.0875  4.5050 -0.1421
  240MOL0     H32342   4.761   4.086   3.821  1.8733 -1.3083 -0.7343
  240MOL0     H32343   4.571   4.015   3.707  0.6441  0.1087 -1.1391
  240MOL0     H32344   4.686   3.889   3.664  0.5459 -0.4673 -0.0076
  240MOL0     H32345   4.511   3.763   3.719 -3.0863  1.8740  0.9442
  240MOL0     H32346   4.597   3.759   3.875  1.0727 -2.0855 -2.0965
  240MOL0     H32347   4.421   3.968   3.927 -0.7358  0.1763 -1.3296
  240MOL0     H32348   4.356   3.901   3.779 -1.5421 -0.5916  0.1290
  240MOL0     H32349   4.378   3.738   4.052 -3.4969 -2.6215  0.6204
  240MOL0     H32350   4.329   3.679   3.885 -0.2164 -1.7513  1.4042
  240MOL0     H32351   4.128   3.607   4.062  3.2036  0.2424 -1.2715
  240MOL0     H32352   3.782   3.752   4.005  1.5267 -1.2449 -2.1346
  240MOL0     H32353   3.853   3.637   4.125  1.1761  0.3058  1.5883
  240MOL0     H32354   3.805   3.936   4.139 -1.9956 -0.7447 -2.0867
  240MOL0     H32355   3.900   3.844   4.260  2.6955  2.6092 -2.4792
  240MOL0     H32356   3.656   3.851   4.344  1.1993  2.7880 -0.8726
  240MOL0     H32357   3.650   3.699   4.250 -1.6396  0.7338  2.5442
  240MOL0     H32358   3.598   3.940   4.097  0.4492 -1.0089  0.2071
  240MOL0     H32359   3.494   3.933   4.245 -2.1715  1.4324 -2.0411
  240MOL0     H32360   3.258   3.701   4.141  1.4414  0.4813 -0.0462
  240MOL0     H32361   3.016   3.673   4.133 -0.1833  0.1238 -0.1954
  240MOL0     H32362   2.944   3.822   4.151 -1.0882 -0.6625 -0.4819
  240MOL0     H32363   2.918   3.743   3.991  1.4631  0.1945 -1.7461
  240MOL0     H32364   2.746   4.155   3.850 -0.1706 -2.9194 -1.3034
  240MOL0     H32365   2.588   4.306   3.716 -0.8229 -1.6335 -1.0230
  240MOL0     H32366   2.742   4.422   3.327  1.5659 -1.5830  1.1616
  240MOL0     H32367   2.569   4.378   3.314 -1.4329  1.8614 -0.3610
  240MOL0     H32368   2.505   4.620   3.373  0.0671 -0.3782 -2.6184
  240MOL0     H32369   2.681   4.643   3.377 -0.1588  0.5212  0.1153
  240MOL0     H32370   2.561   4.531   3.130 -1.0433 -0.5436  2.4144
  240MOL0     H32371   2.717   4.603   3.151 -0.3840  1.7516  0.2435
  240MOL0     H32372   2.443   4.746   3.141 -0.1305  5.0975  0.3788
  240MOL0     H32373   2.599   4.826   3.190  1.5517 -1.7332  0.7873
  240MOL0     H32374   2.586   4.671   2.941 -0.4489  0.5311 -0.2265
  240MOL0     H32375   2.709   4.782   2.996  0.1311 -0.4523 -0.3075
  240MOL0     H32376   2.414   4.850   2.951  0.1852 -0.2769  1.4652
  240MOL0     H32377   2.548   4.974   2.941  1.2729 -0.1024  2.2636
  240MOL0     H32378   2.505   4.741   2.757 -0.7673  0.0115  2.1276
  240MOL0     H32379   2.628   4.868   2.725 -0.8452  0.6579 -1.2313
  240MOL0     H32380   2.338   4.918   2.717 -1.3754  1.0400 -0.4786
  240MOL0     H32381   2.435   4.902   2.578 -0.9059  0.3375 -0.4196
  240MOL0     H32382   2.905   4.318   3.430  0.7965 -3.0291 -0.9292
  240MOL0     H32383   3.034   4.184   3.535 -1.8515  1.1688 -2.3591
  240MOL0     H32384   3.244   4.071   3.825  1.9491 -1.2845  0.2368
  240MOL0     H32385   3.451   3.990   3.903  0.0643  1.0493  0.1284
  240MOL0     H32386   5.210   3.704   4.083  3.8968  2.1593 -3.5203
  240MOL0     H32387   5.406   3.619   4.224 -0.1284 -0.2224 -4.8153
  240MOL0     H32388   5.702   3.832   4.755 -0.1001  0.2502 -0.7513
  240MOL0     H32389   5.915   3.766   4.832  0.8932 -2.0236  0.0349
  240MOL0     H32390   6.144   3.820   4.827 -0.7694  0.1282  1.4403
  240MOL0     H32391   6.116   3.648   4.859 -0.4731  1.8374  0.4422
  240MOL0     H32392   6.366   3.790   4.763 -0.8557 -0.2748 -1.5244
  240MOL0     H32393   6.357   3.615   4.747 -0.6543  1.4099 -2.6465
  240MOL0     H32394   6.321   3.616   5.010 -0.8901  0.7429 -0.1024
  240MOL0     H32395   6.325   3.780   5.007 -0.2460  0.8770 -0.6512
  240MOL0     H32396   6.535   3.597   4.876 -2.1750  0.3341  0.0971
  240MOL0     H32397   6.564   3.647   5.049 -0.8280 -1.4723 -0.1905
  240MOL0     H32398   6.743   3.950   4.826  0.9438  1.0774  2.2657
  240MOL0     H32399   6.039   3.690   4.420 -1.4671 -1.2226  0.0465
  240MOL0     H32400   5.812   3.709   4.348  2.4661 -1.9740 -1.0507
  241MOL0     O32401   1.165   8.563   9.037  0.1571  0.2448 -0.1339
  241MOL0     C32402   1.144   8.589   9.152  0.8229  1.1118 -0.2338
  241MOL0     O32403   1.147   8.709   9.204  0.2081 -0.0795 -0.0589
  241MOL0     C32404   1.160   8.824   9.131  0.1039 -0.1293 -1.0064
  241MOL0     C32405   1.271   8.847   9.054 -0.8414 -0.7045  0.7841
  241MOL0     C32406   1.273   8.961   8.972  0.0812  0.2327 -0.0467
  241MOL0     C32407   1.152   9.030   8.950  0.5245 -0.2238  0.2422
  241MOL0     O32408   1.154   9.135   8.862 -0.1183 -0.2857  0.0320
  241MOL0     C32409   1.099   9.106   8.727 -0.2279 -0.6254 -0.0087
  241MOL0     C32410   1.128   9.220   8.630 -0.2495  0.3229 -0.2488
  241MOL0     C32411   1.282   9.258   8.631  0.6921 -0.0104  0.7216
  241MOL0     C32412   1.324   9.334   8.509  0.4421  0.5985 -0.4602
  241MOL0     C32413   1.460   9.299   8.468 -0.1860 -0.3659  0.1134
  241MOL0     C32414   1.501   9.372   8.348 -0.3120 -0.3863 -0.3249
  241MOL0     C32415   1.483   9.520   8.365  0.1517  0.7486 -0.6693
  241MOL0     C32416   1.576   9.604   8.269 -0.4851 -0.1098  0.0744
  241MOL0     N32417   1.517   9.601   8.138 -0.5731  1.1100 -0.2887
  241MOL0     C32418   1.576   9.552   8.022  0.1183  0.2382  0.0091
  241MOL0     C32419   1.491   9.567   7.920  0.3248  0.2449 -0.2027
  241MOL0     C32420   1.516   9.530   7.777 -0.4776 -0.3032  0.5846
  241MOL0     C32421   1.579   9.388   7.756 -0.3602  0.1687  0.3624
  241MOL0     C32422   1.729   9.387   7.704  0.1218 -0.6355 -0.0390
  241MOL0     C32423   1.770   9.234   7.699 -0.5574 -0.5101  0.6789
  241MOL0     O32424   1.788   9.169   7.827  0.2119  0.3715  0.3005
  241MOL0     C32425   1.740   9.039   7.828  0.5163 -1.0951  0.1379
  241MOL0     C32426   1.822   8.946   7.772  0.4133 -0.8035  0.3044
  241MOL0     C32427   1.773   8.818   7.743 -0.2879 -0.5321 -0.2323
  241MOL0     C32428   1.885   8.724   7.685 -0.4043 -0.5903 -0.1120
  241MOL0     C32429   1.648   8.777   7.794  0.5242  0.6686  0.1605
  241MOL0     C32430   1.587   8.638   7.785  0.3214  0.4856 -0.1628
  241MOL0     O32431   1.478   8.615   7.860 -0.5756 -0.1548  0.5800
  241MOL0     C32432   1.425   8.490   7.833 -1.2340 -0.6598 -0.6530
  241MOL0     C32433   1.424   8.400   7.934  0.1817 -0.3326 -0.2131
  241MOL0     C32434   1.367   8.272   7.915  0.1440 -0.1939 -0.1774
  241MOL0     C32435   1.335   8.230   7.788 -0.7481  0.4111 -0.0022
  241MOL0     O32436   1.309   8.089   7.773  0.5055 -0.6086  0.1487
  241MOL0     C32437   1.298   8.032   7.637  0.0201  0.2603  1.0492
  241MOL0     C32438   1.296   7.879   7.651  0.8571  0.1238  0.3114
  241MOL0     C32439   1.353   7.807   7.522  0.4208  0.2230 -1.1377
  241MOL0     C32440   1.291   7.677   7.519 -0.2594 -0.8819  0.8334
  241MOL0     C32441   1.303   7.608   7.375  0.0752 -0.1827 -0.4550
  241MOL0     C32442   1.270   7.465   7.378 -0.4115  0.2585  0.1648
  241MOL0     C32443   1.236   7.396   7.242  0.1195  0.2231  0.4291
  241MOL0     C32444   1.150   7.266   7.253 -0.7526 -0.6369 -0.4478
  241MOL0    Cl32445   1.048   7.215   7.115 -0.3184  0.6028 -0.1052
  241MOL0     C32446   1.340   8.325   7.684 -0.6152 -0.0018  0.3458
  241MOL0     C32447   1.379   8.455   7.705 -0.3499 -0.6349 -0.7095
  241MOL0     O32448   1.638   8.568   7.700  0.3494 -0.0560  0.9755
  241MOL0     C32449   1.567   8.875   7.847  0.1930 -0.5074  0.5645
  241MOL0     C32450   1.608   9.010   7.865 -0.3804  0.3952 -0.7123
  241MOL0     N32451   1.375   9.626   7.969 -0.7992  0.4811 -0.2287
  241MOL0     N32452   1.393   9.650   8.099  0.8722 -0.0678  0.3211
  241MOL0     C32453   1.042   9.020   9.042  0.6407  0.5894 -0.9228
  241MOL0     C32454   1.048   8.918   9.138 -0.2936 -0.1497  0.4103
  241MOL0     C32455   1.122   8.475   9.241 -0.3386  0.3403 -0.6269
  241MOL0     C32456   1.083   8.349   9.195  0.0198  0.1960  0.0785
  241MOL0     C32457   1.065   8.235   9.285 -0.8334  0.9327  0.7222
  241MOL0     C32458   1.095   8.246   9.418 -0.4838  0.5309 -0.3524
  241MOL0     O32459   1.079   8.132   9.504  0.1982  0.3271 -0.2221
  241MOL0     C32460   1.076   8.142   9.644 -0.4942  0.5577  0.6115
  241MOL0     C32461   1.222   8.110   9.686 -0.5161  0.2074 -0.1381
  241MOL0     C32462   1.237   8.109   9.840  0.4045  0.1404  0.2367
  241MOL0     C32463   1.378   8.048   9.874  0.9376 -0.0506 -0.2100
  241MOL0     C32464   1.405   8.103  10.009  0.7015  0.3266  0.7700
  241MOL0     C32465   1.422   8.146  10.119 -0.7889  0.3690  0.7296
  241MOL0     C32466   1.147   8.369   9.464  0.0638  0.3222  0.1673
  241MOL0     C32467   1.155   8.476   9.376 -0.8458  0.1270 -0.1947
  241MOL0     H32468   1.357   8.784   9.070  2.6335  2.8502 -1.8173
  241MOL0     H32469   1.360   8.998   8.919 -0.9672  3.1610  0.1014
  241MOL0     H32470   1.160   9.023   8.692  0.3939  0.7013 -2.2934
  241MOL0     H32471   0.993   9.088   8.745 -0.2976  1.1407  1.7807
  241MOL0     H32472   1.114   9.190   8.526 -0.1340  1.0470 -0.4750
  241MOL0     H32473   1.066   9.307   8.651  1.3392  1.3699  0.2540
  241MOL0     H32474   1.316   9.315   8.718  3.1095 -1.6496  0.9416
  241MOL0     H32475   1.357   9.179   8.627  3.7318  2.6537 -3.1872
  241MOL0     H32476   1.263   9.311   8.421  0.1595  1.4478 -0.4968
  241MOL0     H32477   1.305   9.439   8.533 -3.1827  0.0079 -0.1484
  241MOL0     H32478   1.530   9.350   8.536 -1.3159  2.1893 -0.5109
  241MOL0     H32479   1.482   9.193   8.456  0.6339 -0.2333  0.3423
  241MOL0     H32480   1.605   9.344   8.333 -1.0648 -1.8473 -3.9107
  241MOL0     H32481   1.434   9.336   8.269 -3.1452  0.8709  1.3487
  241MOL0     H32482   1.377   9.533   8.346 -0.1977 -2.2061 -1.2938
  241MOL0     H32483   1.509   9.552   8.466 -0.3794 -0.6137 -0.0738
  241MOL0     H32484   1.672   9.551   8.274 -0.4925 -0.4071 -2.0854
  241MOL0     H32485   1.580   9.710   8.294 -0.8273 -0.0772 -0.0051
  241MOL0     H32486   1.670   9.499   8.029  1.7167  2.5580 -1.9472
  241MOL0     H32487   1.420   9.544   7.725 -0.4401 -0.1527  0.5553
  241MOL0     H32488   1.588   9.599   7.732 -1.4675 -0.6894 -1.7487
  241MOL0     H32489   1.519   9.340   7.679  0.3887 -0.4214  0.1378
  241MOL0     H32490   1.573   9.328   7.848 -1.0370 -1.3543 -0.6375
  241MOL0     H32491   1.795   9.450   7.763 -1.8562 -0.9798  2.7655
  241MOL0     H32492   1.726   9.429   7.603  1.7811 -2.0927 -0.7476
  241MOL0     H32493   1.869   9.230   7.652  0.2453 -0.1054  2.2658
  241MOL0     H32494   1.692   9.185   7.639  0.7364 -0.7230 -0.8933
  241MOL0     H32495   1.926   8.968   7.751  0.6336  0.7652  2.7430
  241MOL0     H32496   1.869   8.725   7.577 -1.7341  3.0451 -0.0082
  241MOL0     H32497   1.979   8.774   7.705 -0.6277 -1.3605  3.6651
  241MOL0     H32498   1.886   8.627   7.737  0.3586 -0.6524 -0.2321
  241MOL0     H32499   1.472   8.426   8.028  3.2202  0.9084 -1.9278
  241MOL0     H32500   1.372   8.198   7.994 -3.6000 -1.2663 -0.7571
  241MOL0     H32501   1.215   8.069   7.576 -0.2060  1.4180  2.0382
  241MOL0     H32502   1.386   8.054   7.576  0.1642 -1.8922  0.3978
  241MOL0     H32503   1.348   7.859   7.745 -1.8948  1.0303  2.1482
  241MOL0     H32504   1.196   7.839   7.670  1.7057 -1.9904  0.5676
  241MOL0     H32505   1.459   7.791   7.544 -0.7107 -4.8173  2.2457
  241MOL0     H32506   1.342   7.857   7.425  0.1624 -2.0047 -2.3188
  241MOL0     H32507   1.341   7.609   7.588 -0.3551 -0.9210  0.8647
  241MOL0     H32508   1.190   7.676   7.561 -0.6811 -2.3660 -0.1425
  241MOL0     H32509   1.409   7.607   7.347 -0.2695  0.8314 -1.9066
  241MOL0     H32510   1.248   7.664   7.298  1.5713 -0.5123 -1.8225
  241MOL0     H32511   1.358   7.418   7.423 -0.3788 -0.2639 -0.4333
  241MOL0     H32512   1.183   7.449   7.442 -1.0838 -1.7063 -1.1306
  241MOL0     H32513   1.327   7.362   7.193 -0.4201 -2.1935  0.9453
  241MOL0     H32514   1.189   7.472   7.179  0.7681  0.8869  0.7249
  241MOL0     H32515   1.082   7.285   7.336  0.6358 -0.0046  0.5819
  241MOL0     H32516   1.220   7.183   7.265 -0.3601 -0.1640  0.6553
  241MOL0     H32517   1.304   8.293   7.587  0.2967 -1.1324  0.3579
  241MOL0     H32518   1.372   8.524   7.622 -1.7828 -1.5909 -1.4225
  241MOL0     H32519   1.468   8.852   7.886 -1.0828 -0.0349 -2.1227
  241MOL0     H32520   1.537   9.085   7.896 -0.2754  0.9308 -1.7326
  241MOL0     H32521   0.958   9.086   9.023  0.6257  1.3888  1.6163
  241MOL0     H32522   0.969   8.895   9.209 -0.6144  0.5985  0.2992
  241MOL0     H32523   1.059   8.344   9.089 -1.5920  0.6879  0.3818
  241MOL0     H32524   1.037   8.146   9.230  3.5215  0.6976 -1.5551
  241MOL0     H32525   1.061   8.247   9.673  0.4173  0.7045  0.6083
  241MOL0     H32526   0.996   8.077   9.681 -0.3455  0.2816  0.4513
  241MOL0     H32527   1.282   8.193   9.648  2.1897 -2.7362 -2.8961
  241MOL0     H32528   1.262   8.018   9.642 -0.7425  0.0474 -0.0085
  241MOL0     H32529   1.157   8.045   9.879 -0.1641 -1.3558 -3.0293
  241MOL0     H32530   1.241   8.212   9.878  2.2754  0.7136 -1.3733
  241MOL0     H32531   1.464   8.076   9.812  2.3229 -1.5689  0.9357
  241MOL0     H32532   1.376   7.939   9.875 -1.5509 -0.0687 -0.0329
  241MOL0     H32533   1.430   8.185  10.218 -1.9815 -2.3082  1.9602
  241MOL0     H32534   1.168   8.397   9.567 -1.3750  0.5795  0.4083
  241MOL0     H32535   1.187   8.568   9.423  1.5305  0.8418 -2.9326
  242MOL0     O32536  10.328  10.978   6.351 -0.1806 -0.5097  0.6001
  242MOL0     C32537  10.444  10.964   6.312 -0.5145 -1.1515  0.9606
  242MOL0     O32538  10.550  11.028   6.364 -0.1515 -0.8492  0.2311
  242MOL0     C32539  10.524  11.143   6.432  1.6562 -0.3496  0.5079
  242MOL0     C32540  10.428  11.242   6.393  0.0821 -1.3687 -0.0323
  242MOL0     C32541  10.422  11.360   6.474 -0.4127  0.1251 -0.1064
  242MOL0     C32542  10.496  11.380   6.593  0.0826 -0.2922  0.3342
  242MOL0     O32543  10.479  11.478   6.687 -0.0748  0.4237 -0.4435
  242MOL0     C32544  10.554  11.602   6.650  0.1305  0.1394 -0.3408
  242MOL0     C32545  10.631  11.651   6.776  1.1904 -0.1724 -0.1741
  242MOL0     C32546  10.529  11.742   6.859 -0.8838  0.3650 -0.0175
  242MOL0     C32547  10.596  11.792   6.996 -0.1384  0.5380  0.3759
  242MOL0     C32548  10.487  11.851   7.088  0.3036 -0.7579  0.3332
  242MOL0     C32549  10.542  11.905   7.218 -0.2011 -0.0621 -0.7477
  242MOL0     C32550  10.443  11.917   7.331  0.3292 -0.6447  0.0173
  242MOL0     C32551  10.408  11.788   7.391 -0.7372  0.2462 -0.6660
  242MOL0     N32552  10.428  11.783   7.540  0.0635  0.1925 -0.0683
  242MOL0     C32553  10.331  11.829   7.623  0.5434  1.0559  0.0283
  242MOL0     C32554  10.387  11.810   7.750 -0.5216 -0.0750 -0.3869
  242MOL0     C32555  10.328  11.859   7.881 -0.0689 -0.2440  0.2202
  242MOL0     C32556  10.180  11.840   7.891  0.2311  0.3648  0.4963
  242MOL0     C32557  10.122  11.896   8.027 -0.2001  0.4007  0.3145
  242MOL0     C32558  10.143  12.049   8.043  0.1516  0.3864  0.5018
  242MOL0     O32559  10.128  12.118   7.921 -0.5626  0.0720  0.2502
  242MOL0     C32560  10.125  12.259   7.919  0.1074  1.3063  0.0282
  242MOL0     C32561  10.126  12.320   7.797 -0.7800  0.6768 -0.8092
  242MOL0     C32562  10.130  12.456   7.784  0.1057 -0.9115  0.0307
  242MOL0     C32563  10.144  12.514   7.637  0.7886  0.0917  0.9709
  242MOL0     C32564  10.114  12.541   7.892 -0.5078 -0.1116 -0.1229
  242MOL0     C32565  10.115  12.690   7.876  0.2456 -0.9972 -0.1621
  242MOL0     O32566  10.161  12.769   7.975  0.6310  0.6462 -0.1701
  242MOL0     C32567  10.216  12.896   7.952 -0.2442  0.8014 -0.3442
  242MOL0     C32568  10.232  12.949   7.830  0.3480 -0.2027 -0.1523
  242MOL0     C32569  10.289  13.083   7.821  0.0366 -0.1526  0.5900
  242MOL0     C32570  10.340  13.155   7.936  0.5220 -0.7084  0.3201
  242MOL0     O32571  10.386  13.278   7.938 -0.2925 -0.1859  0.5577
  242MOL0     C32572  10.457  13.340   7.834 -0.2954 -0.5440 -0.7353
  242MOL0     C32573  10.484  13.480   7.882  0.7642 -0.4421  0.2331
  242MOL0     C32574  10.574  13.458   8.005 -0.6265  0.6356  0.5961
  242MOL0     C32575  10.619  13.590   8.070 -0.1548 -0.4374 -0.6297
  242MOL0     C32576  10.718  13.570   8.192 -0.2528  0.4344  0.1272
  242MOL0     C32577  10.686  13.673   8.302  0.2070 -0.1418 -0.1199
  242MOL0     C32578  10.597  13.612   8.420  0.1342  0.4245 -0.3720
  242MOL0     C32579  10.549  13.704   8.530 -0.8575 -0.4430 -0.4832
  242MOL0    Cl32580  10.691  13.796   8.611  0.5084  0.2590  0.0151
  242MOL0     C32581  10.313  13.104   8.058  0.5681  1.2293  0.4525
  242MOL0     C32582  10.252  12.974   8.066  0.4355 -0.0955 -0.0930
  242MOL0     O32583  10.029  12.727   7.795  1.7264  0.1377 -0.1354
  242MOL0     C32584  10.109  12.478   8.019  0.1727  0.6071 -0.2174
  242MOL0     C32585  10.122  12.341   8.027  0.0366  0.3896  1.0767
  242MOL0     N32586  10.506  11.742   7.732  0.3437  0.3015  0.0550
  242MOL0     N32587  10.530  11.733   7.609 -0.8533  0.5305  1.2006
  242MOL0     C32588  10.576  11.273   6.633  0.2800  0.9738  0.2945
  242MOL0     C32589  10.597  11.163   6.552  0.6770 -0.5402  0.6052
  242MOL0     C32590  10.478  10.894   6.183 -0.0667  0.4490 -0.5051
  242MOL0     C32591  10.607  10.880   6.139 -0.8692  1.1642 -0.6567
  242MOL0     C32592  10.648  10.821   6.021 -1.4093 -0.3964 -0.8914
  242MOL0     C32593  10.561  10.737   5.957  0.0603  0.1255 -0.6028
  242MOL0     O32594  10.600  10.650   5.859 -0.2967  0.8892 -0.2253
  242MOL0     C32595  10.723  10.681   5.789 -0.7246 -0.0975 -0.1574
  242MOL0     C32596  10.715  10.597   5.662 -0.1935 -0.0072 -0.3905
  242MOL0     C32597  10.588  10.626   5.581 -0.2275 -0.1914 -0.6757
  242MOL0     C32598  10.615  10.671   5.444 -0.5780 -0.2136  0.1558
  242MOL0     C32599  10.489  10.702   5.367 -0.5653  0.3902 -0.6035
  242MOL0     C32600  10.383  10.723   5.319  0.1296 -0.2705  0.5252
  242MOL0     C32601  10.431  10.735   6.005 -0.6972 -0.6056 -0.8862
  242MOL0     C32602  10.388  10.818   6.110  0.2583  0.0738 -0.7373
  242MOL0     H32603  10.365  11.246   6.305 -3.0106 -0.6025  2.0433
  242MOL0     H32604  10.379  11.455   6.443  1.3527  1.1390  0.3787
  242MOL0     H32605  10.631  11.582   6.574  2.6846 -1.4118  2.4291
  242MOL0     H32606  10.491  11.679   6.605 -1.7938  0.0822  2.0707
  242MOL0     H32607  10.662  11.562   6.832 -1.7589 -1.5964 -0.5789
  242MOL0     H32608  10.719  11.699   6.733  0.8006  1.4196  0.7181
  242MOL0     H32609  10.485  11.817   6.792  0.1292 -0.5185 -1.7488
  242MOL0     H32610  10.446  11.676   6.886 -2.1653  1.0151 -2.1359
  242MOL0     H32611  10.630  11.702   7.048 -0.7394 -0.4747 -0.9218
  242MOL0     H32612  10.689  11.848   6.983  0.6573 -0.8247 -0.0463
  242MOL0     H32613  10.447  11.940   7.038  0.2077 -0.9781  0.0131
  242MOL0     H32614  10.409  11.777   7.107  0.1745 -1.0028 -1.0401
  242MOL0     H32615  10.633  11.848   7.242 -0.1509 -0.2363 -1.3362
  242MOL0     H32616  10.574  12.008   7.198  3.5212 -0.8595  0.2586
  242MOL0     H32617  10.484  11.989   7.402  0.7058  3.9577 -4.3522
  242MOL0     H32618  10.352  11.960   7.288 -0.2054 -1.2724  0.5022
  242MOL0     H32619  10.454  11.706   7.335 -3.5411  0.3926 -3.4954
  242MOL0     H32620  10.304  11.771   7.363 -0.6697  1.2145 -1.5453
  242MOL0     H32621  10.229  11.850   7.593 -0.4167  0.6782  2.7637
  242MOL0     H32622  10.377  11.798   7.958  3.8203 -2.4500 -3.5782
  242MOL0     H32623  10.364  11.962   7.892  1.7057 -0.7275 -0.6486
  242MOL0     H32624  10.157  11.733   7.887 -1.5425  0.7565 -0.5161
  242MOL0     H32625  10.130  11.888   7.807 -0.3674 -3.4237 -1.5603
  242MOL0     H32626  10.153  11.837   8.114  0.2896  0.4422  0.1712
  242MOL0     H32627  10.015  11.879   8.013  0.2344 -2.0686 -0.4966
  242MOL0     H32628  10.245  12.055   8.081  1.5383  4.0928 -3.0348
  242MOL0     H32629  10.071  12.091   8.115  0.8268 -0.3844  1.6523
  242MOL0     H32630  10.121  12.244   7.720 -0.1417  0.1801 -0.3732
  242MOL0     H32631  10.211  12.598   7.619 -0.7688  0.9041 -1.7067
  242MOL0     H32632  10.166  12.437   7.562 -0.6371  0.2691  0.3313
  242MOL0     H32633  10.055  12.573   7.611  2.2613  2.2269  0.4695
  242MOL0     H32634  10.204  12.893   7.741 -0.4975 -0.1872  0.1018
  242MOL0     H32635  10.305  13.134   7.727 -1.4529 -1.6022 -0.5243
  242MOL0     H32636  10.552  13.296   7.804 -0.7437 -3.2707  1.4280
  242MOL0     H32637  10.406  13.355   7.738  0.7911 -0.5021 -1.3164
  242MOL0     H32638  10.540  13.538   7.808  0.5304 -0.3342  0.1404
  242MOL0     H32639  10.390  13.528   7.907 -0.4793 -2.7168  0.2054
  242MOL0     H32640  10.658  13.390   7.985 -0.6987  0.3005  1.3881
  242MOL0     H32641  10.517  13.402   8.080 -0.6185 -1.8461 -1.1110
  242MOL0     H32642  10.674  13.651   7.998  1.0564  1.3154  1.6402
  242MOL0     H32643  10.531  13.648   8.098  0.9607 -0.0688  2.6412
  242MOL0     H32644  10.825  13.570   8.167  0.0026 -0.6786  1.1168
  242MOL0     H32645  10.696  13.472   8.235 -0.4851  1.3169  2.1756
  242MOL0     H32646  10.777  13.698   8.357  0.0256 -1.8429  1.0192
  242MOL0     H32647  10.636  13.761   8.259 -1.6408 -0.4179  1.3424
  242MOL0     H32648  10.675  13.548   8.462 -0.5437 -0.8428 -1.0167
  242MOL0     H32649  10.512  13.560   8.376 -0.5141  0.2643  1.0376
  242MOL0     H32650  10.488  13.651   8.605 -3.4141  1.4496 -1.0755
  242MOL0     H32651  10.479  13.775   8.485 -1.0856 -1.0828 -1.1643
  242MOL0     H32652  10.365  13.141   8.145 -0.3424  2.0476  0.6686
  242MOL0     H32653  10.223  12.931   8.161  1.9668 -0.9667  0.0171
  242MOL0     H32654  10.112  12.539   8.109  1.8708 -0.3055  0.3824
  242MOL0     H32655  10.140  12.292   8.123 -1.0959  0.3666  1.2960
  242MOL0     H32656  10.632  11.285   6.725 -0.6414 -1.6011  1.2693
  242MOL0     H32657  10.675  11.095   6.587  3.2499  2.9221  2.2254
  242MOL0     H32658  10.678  10.949   6.184  1.2104 -1.2250 -0.0046
  242MOL0     H32659  10.753  10.829   5.994 -1.1998 -0.9775 -0.2803
  242MOL0     H32660  10.738  10.788   5.770  1.3298 -0.6017 -1.7570
  242MOL0     H32661  10.814  10.652   5.842  0.2588  3.1407  0.1722
  242MOL0     H32662  10.725  10.493   5.693  0.7702  0.3842  0.6850
  242MOL0     H32663  10.801  10.603   5.593 -0.6739 -0.0410 -1.0027
  242MOL0     H32664  10.518  10.692   5.633 -1.9068  1.2948 -4.4983
  242MOL0     H32665  10.529  10.534   5.574  0.3929 -0.8356  1.5371
  242MOL0     H32666  10.667  10.590   5.393  1.0165 -0.3560  1.9082
  242MOL0     H32667  10.682  10.757   5.445  0.3547 -0.9357  0.6785
  242MOL0     H32668  10.296  10.757   5.266  1.6635  2.7071 -0.2559
  242MOL0     H32669  10.365  10.669   5.949 -1.8963 -0.8974  0.7960
  242MOL0     H32670  10.284  10.812   6.140 -0.6618  1.8050 -3.2516
  243MOL0     O32671   1.493   2.582   6.366  0.1541 -0.4445  0.6338
  243MOL0     C32672   1.385   2.640   6.365 -0.0551 -0.1462  0.2945
  243MOL0     O32673   1.357   2.749   6.283 -0.4649  0.0749 -0.5963
  243MOL0     C32674   1.434   2.797   6.185 -0.4783 -0.1773  0.0731
  243MOL0     C32675   1.533   2.722   6.117 -0.0407  0.1360  0.0656
  243MOL0     C32676   1.595   2.781   6.012  0.4901 -1.1618 -0.4807
  243MOL0     C32677   1.554   2.905   5.954 -0.7192  0.3002  0.0112
  243MOL0     O32678   1.599   2.962   5.832  0.1939  0.8703  0.1680
  243MOL0     C32679   1.741   2.970   5.811  0.2285 -0.9650 -0.5395
  243MOL0     C32680   1.794   3.107   5.875  0.6533  0.1886  0.2618
  243MOL0     C32681   1.939   3.113   5.922  0.5630  0.6065  0.6147
  243MOL0     C32682   1.964   3.039   6.058  0.8091 -0.0099  0.4043
  243MOL0     C32683   2.100   3.044   6.122  0.6332 -0.6258 -0.4672
  243MOL0     C32684   2.133   3.186   6.163 -0.7992 -0.8121  0.5262
  243MOL0     C32685   2.286   3.200   6.188 -0.3577  0.7354 -0.0707
  243MOL0     C32686   2.313   3.309   6.296 -0.0035  0.7307 -0.6973
  243MOL0     N32687   2.326   3.448   6.238  1.2857  0.0530  0.3907
  243MOL0     C32688   2.252   3.505   6.140 -0.8613  0.1950  0.7766
  243MOL0     C32689   2.306   3.625   6.112 -1.6459 -0.3523  0.5864
  243MOL0     C32690   2.273   3.692   5.985 -0.2066  0.2275  0.0034
  243MOL0     C32691   2.372   3.696   5.866  0.2409 -0.2952 -0.6425
  243MOL0     C32692   2.451   3.562   5.839  0.6763  0.8902 -0.5587
  243MOL0     C32693   2.368   3.483   5.733  1.4249 -0.7822  0.0152
  243MOL0     O32694   2.237   3.438   5.784  0.0998 -0.1589 -0.2049
  243MOL0     C32695   2.125   3.460   5.712  1.1227  0.4895 -0.4216
  243MOL0     C32696   2.057   3.353   5.665 -0.2021 -0.0519 -0.3934
  243MOL0     C32697   1.949   3.371   5.577  0.1384 -0.1467 -0.1012
  243MOL0     C32698   1.893   3.251   5.518  0.7434  0.6812 -0.1504
  243MOL0     C32699   1.905   3.505   5.533  0.5440  0.3499 -0.9138
  243MOL0     C32700   1.782   3.537   5.455  0.3454  0.5595 -1.1826
  243MOL0     O32701   1.774   3.662   5.400  0.6370  0.3630 -0.7318
  243MOL0     C32702   1.660   3.703   5.345  0.0281 -0.3532  0.3685
  243MOL0     C32703   1.549   3.758   5.416 -0.4304 -0.2808 -0.4381
  243MOL0     C32704   1.439   3.803   5.346 -0.5304  0.0970  1.0056
  243MOL0     C32705   1.419   3.779   5.206  0.4562  0.1953  1.1170
  243MOL0     O32706   1.308   3.826   5.130  0.3387  0.5869 -1.0748
  243MOL0     C32707   1.181   3.852   5.202  0.1323 -0.0092 -1.1259
  243MOL0     C32708   1.076   3.878   5.103 -0.2136 -0.3492  0.4626
  243MOL0     C32709   0.953   3.954   5.161 -0.0791 -0.3447  0.5098
  243MOL0     C32710   0.886   3.884   5.291  0.1912  0.3873 -0.0571
  243MOL0     C32711   0.757   3.934   5.329  0.0323 -0.8256 -0.3771
  243MOL0     C32712   0.659   3.964   5.219  0.1062  0.1426 -0.1880
  243MOL0     C32713   0.621   3.833   5.157 -0.2895 -0.0755 -0.1933
  243MOL0     C32714   0.518   3.842   5.046 -0.5513  0.2348 -0.0305
  243MOL0    Cl32715   0.550   3.984   4.936 -0.1755  0.1322 -0.2256
  243MOL0     C32716   1.528   3.718   5.142 -0.6685 -0.2742  0.7526
  243MOL0     C32717   1.647   3.676   5.210  0.1340 -0.7584  1.0197
  243MOL0     O32718   1.690   3.454   5.458  0.7321  0.3227 -1.0424
  243MOL0     C32719   1.980   3.610   5.582  0.1470 -0.1959  0.2736
  243MOL0     C32720   2.085   3.588   5.679 -0.0863 -0.2661  0.4575
  243MOL0     N32721   2.414   3.641   6.189  0.4663 -0.4472 -0.7404
  243MOL0     N32722   2.423   3.537   6.275  0.0231  0.7356  0.6443
  243MOL0     C32723   1.455   2.970   6.020  0.1086 -1.2852 -0.3620
  243MOL0     C32724   1.395   2.925   6.141  0.6403 -0.5254  0.4959
  243MOL0     C32725   1.274   2.592   6.446 -0.0045 -0.3942 -0.8833
  243MOL0     C32726   1.161   2.668   6.475  0.8731  0.6154  0.2853
  243MOL0     C32727   1.050   2.625   6.540  0.6122 -0.2002  0.5097
  243MOL0     C32728   1.042   2.488   6.574  0.9124 -0.8219  0.2063
  243MOL0     O32729   0.937   2.439   6.645 -0.1702  0.7954 -0.3847
  243MOL0     C32730   0.814   2.507   6.648 -0.1202 -0.6634 -0.0918
  243MOL0     C32731   0.743   2.516   6.509 -0.1339 -0.3296  0.0167
  243MOL0     C32732   0.641   2.634   6.516  0.4656 -0.0425 -0.5999
  243MOL0     C32733   0.566   2.661   6.382 -0.0768  0.4041 -0.2241
  243MOL0     C32734   0.529   2.549   6.299 -0.5463  0.5408  0.9697
  243MOL0     C32735   0.493   2.442   6.248  0.0119 -0.8192  0.4812
  243MOL0     C32736   1.154   2.407   6.551 -0.4641  0.5628 -0.2941
  243MOL0     C32737   1.263   2.456   6.487 -0.6394  1.0534  0.8188
  243MOL0     H32738   1.566   2.625   6.153  0.3596 -0.6237 -2.1764
  243MOL0     H32739   1.676   2.725   5.965  2.0483  2.1478 -2.0777
  243MOL0     H32740   1.786   2.882   5.860  0.4165 -0.1748  0.7437
  243MOL0     H32741   1.756   2.972   5.702 -0.7763  2.5102 -0.7287
  243MOL0     H32742   1.767   3.191   5.810 -4.5096 -0.1500  1.5094
  243MOL0     H32743   1.737   3.125   5.966  1.6193  0.5523  0.8061
  243MOL0     H32744   2.002   3.064   5.847  3.1358  2.1185  1.6509
  243MOL0     H32745   1.978   3.215   5.927  0.8310  0.5081  0.5806
  243MOL0     H32746   1.894   3.079   6.132  1.4731 -0.3627  1.2369
  243MOL0     H32747   1.940   2.933   6.042 -0.6449  0.7355 -3.9563
  243MOL0     H32748   2.111   2.988   6.215 -1.6191  1.6398  1.2784
  243MOL0     H32749   2.169   2.995   6.052  0.1497  0.7104 -1.9357
  243MOL0     H32750   2.092   3.254   6.089 -0.3352  2.4794  3.0659
  243MOL0     H32751   2.093   3.209   6.263  3.6354 -2.4853  3.0048
  243MOL0     H32752   2.326   3.111   6.238  1.9593  1.0656 -1.2094
  243MOL0     H32753   2.341   3.222   6.096  0.5831 -0.6940  0.1206
  243MOL0     H32754   2.407   3.290   6.347 -0.6916  1.2446  0.8143
  243MOL0     H32755   2.234   3.302   6.371  2.9316 -2.0825  2.4870
  243MOL0     H32756   2.166   3.454   6.099 -0.4008 -0.8163  1.0284
  243MOL0     H32757   2.183   3.646   5.944  0.1453 -0.2442 -0.2456
  243MOL0     H32758   2.245   3.797   5.996  2.1097  1.1121 -1.7565
  243MOL0     H32759   2.454   3.754   5.910  1.9978 -1.4156 -2.2855
  243MOL0     H32760   2.329   3.742   5.777  0.6617  1.1416 -0.1422
  243MOL0     H32761   2.468   3.498   5.927  1.0400  1.0767 -0.4939
  243MOL0     H32762   2.546   3.589   5.793  0.9256 -0.0301 -0.5988
  243MOL0     H32763   2.423   3.390   5.718  3.0139  0.3777 -2.0240
  243MOL0     H32764   2.358   3.528   5.634 -0.1939 -1.0120  0.0390
  243MOL0     H32765   2.080   3.253   5.701  0.5461  0.1614 -0.2751
  243MOL0     H32766   1.867   3.257   5.411 -1.8850 -2.9748  0.0745
  243MOL0     H32767   1.945   3.156   5.531 -0.4416 -0.0153 -0.2821
  243MOL0     H32768   1.798   3.221   5.563  2.1838 -2.2827  1.1518
  243MOL0     H32769   1.553   3.777   5.523 -1.3417  1.6985 -0.6984
  243MOL0     H32770   1.363   3.861   5.398 -3.1579 -1.7309 -0.5312
  243MOL0     H32771   1.157   3.759   5.255  3.7245  0.1390  1.0705
  243MOL0     H32772   1.185   3.937   5.270  1.1185  0.5407 -1.8444
  243MOL0     H32773   1.111   3.952   5.031 -0.9772 -0.0448  0.3991
  243MOL0     H32774   1.055   3.786   5.049  0.4732 -0.0073 -0.4019
  243MOL0     H32775   0.875   3.958   5.084 -0.6882 -2.8905  0.8698
  243MOL0     H32776   0.984   4.057   5.179  0.0118 -0.7992  3.4983
  243MOL0     H32777   0.874   3.778   5.265  0.1048  0.4393 -0.2307
  243MOL0     H32778   0.946   3.875   5.382  2.2537  1.8034 -1.1998
  243MOL0     H32779   0.774   4.023   5.390  0.1255 -0.5178 -0.8483
  243MOL0     H32780   0.716   3.858   5.397  1.9315 -2.3180 -0.8015
  243MOL0     H32781   0.567   4.000   5.264 -0.0067  1.5305 -1.4463
  243MOL0     H32782   0.691   4.049   5.158 -0.0476  3.2863  3.7602
  243MOL0     H32783   0.580   3.769   5.235  0.7793 -2.2826 -1.3550
  243MOL0     H32784   0.713   3.791   5.117  0.3161 -0.4396  1.5160
  243MOL0     H32785   0.421   3.867   5.089 -1.5797 -0.3601 -1.8635
  243MOL0     H32786   0.505   3.748   4.991  2.5954  1.4543 -3.2656
  243MOL0     H32787   1.522   3.675   5.043  2.1797 -2.3139  1.3486
  243MOL0     H32788   1.724   3.627   5.153  2.2024  0.7307  2.3681
  243MOL0     H32789   1.936   3.708   5.572 -2.6836 -1.4003 -0.0164
  243MOL0     H32790   2.135   3.679   5.711  0.5994 -0.8826  1.1718
  243MOL0     H32791   1.420   3.060   5.971 -1.2950 -2.0723 -0.8351
  243MOL0     H32792   1.310   2.971   6.191  0.8057 -0.8614  1.0865
  243MOL0     H32793   1.170   2.770   6.439  0.2352 -0.3547 -2.9409
  243MOL0     H32794   0.962   2.685   6.561  0.6829  0.0877  0.0071
  243MOL0     H32795   0.733   2.462   6.706 -2.6416 -0.8838 -3.4583
  243MOL0     H32796   0.828   2.610   6.680 -0.1259 -0.9413  0.8096
  243MOL0     H32797   0.689   2.423   6.493 -1.3509  0.6454 -1.9678
  243MOL0     H32798   0.807   2.538   6.423 -0.5932 -0.3038 -0.3180
  243MOL0     H32799   0.690   2.725   6.551 -1.5310  0.3356  1.4487
  243MOL0     H32800   0.578   2.597   6.598 -0.0148 -0.0190 -0.9494
  243MOL0     H32801   0.628   2.724   6.319 -3.7755  1.7959 -2.8374
  243MOL0     H32802   0.485   2.731   6.408  1.0040  1.0232  1.6726
  243MOL0     H32803   0.443   2.354   6.215 -2.2957  0.1461  1.1784
  243MOL0     H32804   1.142   2.303   6.581 -1.2845  0.5547 -0.6283
  243MOL0     H32805   1.348   2.393   6.463 -0.5525  0.9899  1.2805
  244MOL0     O32806  10.079   5.487   7.546 -0.6013 -0.2086  0.0982
  244MOL0     C32807  10.167   5.574   7.567 -0.8230  0.8923  0.6289
  244MOL0     O32808  10.283   5.581   7.494 -0.4850  0.3625  0.4461
  244MOL0     C32809  10.283   5.496   7.383 -0.7194 -0.9638  0.5988
  244MOL0     C32810  10.183   5.468   7.299  0.1222 -0.1021  0.9587
  244MOL0     C32811  10.208   5.395   7.182 -0.8078  0.6302  0.2613
  244MOL0     C32812  10.333   5.336   7.154  0.5216 -0.3344  0.1249
  244MOL0     O32813  10.346   5.268   7.032 -0.1005 -0.2046  0.4942
  244MOL0     C32814  10.457   5.180   7.009  0.0294  0.1269  0.4083
  244MOL0     C32815  10.416   5.095   6.885 -0.1749  0.7952 -0.5234
  244MOL0     C32816  10.357   5.180   6.776 -0.4423  0.8746 -0.6177
  244MOL0     C32817  10.459   5.286   6.731 -0.0891  0.0002 -0.2560
  244MOL0     C32818  10.451   5.332   6.591 -0.3053  1.1363 -0.2904
  244MOL0     C32819  10.556   5.443   6.559  1.0854  0.0717  0.1681
  244MOL0     C32820  10.527   5.474   6.415  0.0564 -0.4437 -0.1441
  244MOL0     C32821  10.623   5.578   6.363 -0.2953  0.3898  0.1847
  244MOL0     N32822  10.741   5.516   6.308 -0.8911  0.5015 -0.3858
  244MOL0     C32823  10.857   5.542   6.361  0.2604  0.2239  0.4878
  244MOL0     C32824  10.946   5.482   6.273 -0.0704  0.3828 -0.1484
  244MOL0     C32825  11.099   5.486   6.283  0.9773  0.3824 -0.4331
  244MOL0     C32826  11.165   5.577   6.174  0.8152 -0.5520  0.5097
  244MOL0     C32827  11.117   5.730   6.195 -0.9977  0.0420  0.3021
  244MOL0     C32828  11.169   5.829   6.098 -0.8341 -0.0488 -1.0746
  244MOL0     O32829  11.305   5.835   6.107  0.0524 -0.9021  0.5883
  244MOL0     C32830  11.400   5.859   6.005  0.8254  0.1653  0.2365
  244MOL0     C32831  11.366   5.891   5.875 -0.3969 -0.2116 -0.3401
  244MOL0     C32832  11.464   5.892   5.776  0.3571  1.3052  0.4327
  244MOL0     C32833  11.410   5.882   5.633 -0.1323 -0.0784 -0.1316
  244MOL0     C32834  11.605   5.886   5.808 -0.0536 -0.2082  0.0246
  244MOL0     C32835  11.713   5.882   5.715 -0.3353 -0.4425  0.4258
  244MOL0     O32836  11.694   5.846   5.580 -0.2553  0.0277  0.1297
  244MOL0     C32837  11.811   5.851   5.507  0.4027 -0.8349  0.1186
  244MOL0     C32838  11.865   5.971   5.459  1.1507  0.1069  0.3317
  244MOL0     C32839  11.991   5.974   5.392 -0.7258 -0.5017 -0.4112
  244MOL0     C32840  12.073   5.867   5.390  0.2625  1.0027 -0.4280
  244MOL0     O32841  12.192   5.874   5.325  0.1438  0.9526 -0.0552
  244MOL0     C32842  12.200   5.771   5.225  0.5779  1.6852 -0.3267
  244MOL0     C32843  12.314   5.777   5.113  0.3487 -0.1601  0.6796
  244MOL0     C32844  12.290   5.893   5.014  0.6835 -0.2519  0.6756
  244MOL0     C32845  12.181   5.853   4.910  1.3336  0.1762  0.0576
  244MOL0     C32846  12.134   5.958   4.803 -0.2965  0.5059  1.1431
  244MOL0     C32847  12.036   6.051   4.864  0.2439  0.0963 -0.4084
  244MOL0     C32848  12.037   6.189   4.788 -0.7779 -0.1197  0.4261
  244MOL0     C32849  11.953   6.284   4.870 -0.0260  0.5967  0.0760
  244MOL0    Cl32850  11.910   6.421   4.781  0.4122 -0.0541  0.3669
  244MOL0     C32851  12.020   5.746   5.443  0.0504 -0.3650 -0.4689
  244MOL0     C32852  11.893   5.736   5.498 -1.1505 -0.6440 -0.3704
  244MOL0     O32853  11.813   5.939   5.762 -0.7084  0.5454 -0.0960
  244MOL0     C32854  11.646   5.858   5.943  0.1134  0.1575  0.5556
  244MOL0     C32855  11.540   5.836   6.038 -0.1135 -0.2413 -0.1809
  244MOL0     N32856  10.871   5.420   6.177  0.0427  1.1095  0.6839
  244MOL0     N32857  10.754   5.446   6.192 -0.0834  0.4099 -1.0411
  244MOL0     C32858  10.438   5.352   7.246 -0.8491  0.1103 -0.7331
  244MOL0     C32859  10.410   5.433   7.366 -0.2609  0.0413  0.2077
  244MOL0     C32860  10.140   5.661   7.677 -0.2889  0.3807 -0.0002
  244MOL0     C32861  10.197   5.786   7.680  0.1571  0.0175 -0.8029
  244MOL0     C32862  10.168   5.881   7.783 -0.8526  0.2270 -0.0632
  244MOL0     C32863  10.104   5.839   7.901  0.2344  0.5514 -0.2905
  244MOL0     O32864  10.111   5.931   8.009  0.0265  0.1648 -0.4027
  244MOL0     C32865  10.052   5.899   8.143  0.2215  0.7391 -1.1013
  244MOL0     C32866  10.167   5.908   8.241 -0.0351  0.1685 -1.2858
  244MOL0     C32867  10.229   6.050   8.246 -0.2633 -0.9398 -0.2171
  244MOL0     C32868  10.347   6.047   8.347  0.3971  0.1257 -0.1435
  244MOL0     C32869  10.403   6.181   8.376  0.1444 -0.1844 -0.5322
  244MOL0     C32870  10.455   6.289   8.411  0.3206  0.5552 -0.4024
  244MOL0     C32871  10.052   5.711   7.906  0.0066 -1.0880  0.1177
  244MOL0     C32872  10.067   5.621   7.797 -0.2820  0.7037  0.6144
  244MOL0     H32873  10.086   5.517   7.306 -0.1954  0.0613 -2.6397
  244MOL0     H32874  10.125   5.364   7.120 -1.1144  0.4763  0.7467
  244MOL0     H32875  10.545   5.242   6.991 -1.0546  2.5929  2.7670
  244MOL0     H32876  10.491   5.119   7.093 -0.0716 -1.7361 -0.8502
  244MOL0     H32877  10.499   5.035   6.847 -1.4247  0.7451 -3.4661
  244MOL0     H32878  10.348   5.015   6.916  0.4354  0.2281 -0.6088
  244MOL0     H32879  10.338   5.104   6.700 -0.3690 -0.6260  0.7961
  244MOL0     H32880  10.264   5.219   6.818 -0.4457  1.5122 -1.2070
  244MOL0     H32881  10.428   5.371   6.793 -0.6253 -0.2405 -0.1943
  244MOL0     H32882  10.560   5.247   6.747 -0.9692 -1.9447  0.8253
  244MOL0     H32883  10.465   5.250   6.520  1.2005  0.1819  1.0261
  244MOL0     H32884  10.348   5.367   6.584 -0.9224 -0.7973 -1.7061
  244MOL0     H32885  10.546   5.536   6.615  2.9046  3.0726 -3.9637
  244MOL0     H32886  10.657   5.403   6.574  1.0318 -0.2473 -0.2963
  244MOL0     H32887  10.538   5.381   6.360 -0.1879  0.4655 -1.7785
  244MOL0     H32888  10.427   5.519   6.406  1.1075  2.4582  1.3610
  244MOL0     H32889  10.647   5.646   6.445 -1.2892  2.2859 -1.0173
  244MOL0     H32890  10.588   5.643   6.283  3.1920  2.1259 -0.1267
  244MOL0     H32891  10.889   5.596   6.450  1.9227  1.4521 -0.8132
  244MOL0     H32892  11.148   5.505   6.379  0.4250 -2.7428  0.5872
  244MOL0     H32893  11.135   5.384   6.265 -0.0994 -0.6668  2.7141
  244MOL0     H32894  11.140   5.545   6.072 -1.5257 -2.9509  1.7049
  244MOL0     H32895  11.273   5.568   6.182  0.8837  0.2857  0.6542
  244MOL0     H32896  11.120   5.780   6.293  2.0605  2.0971 -0.6966
  244MOL0     H32897  11.011   5.728   6.167 -0.3171  2.3637 -2.9812
  244MOL0     H32898  11.123   5.928   6.102 -0.1847  0.2280  0.5502
  244MOL0     H32899  11.143   5.798   5.996 -1.7676  3.8650 -2.2015
  244MOL0     H32900  11.260   5.903   5.854  0.0581  2.2257 -1.5290
  244MOL0     H32901  11.305   5.907   5.613 -0.0847  0.4496  0.2483
  244MOL0     H32902  11.460   5.957   5.571 -1.9007  0.8768 -0.4642
  244MOL0     H32903  11.441   5.787   5.588  1.5828  1.2604 -1.9424
  244MOL0     H32904  11.814   6.066   5.470  0.5067  0.1763 -2.4264
  244MOL0     H32905  12.019   6.058   5.330  1.2170 -0.8718 -0.1149
  244MOL0     H32906  12.220   5.675   5.272  0.0370  1.3502 -0.7681
  244MOL0     H32907  12.104   5.758   5.172 -0.6868  1.3119  1.9316
  244MOL0     H32908  12.407   5.785   5.169 -2.4447  2.9034  5.5865
  244MOL0     H32909  12.303   5.683   5.056 -1.3201  1.2649 -1.5053
  244MOL0     H32910  12.383   5.903   4.957 -0.5100 -0.3118 -1.3631
  244MOL0     H32911  12.275   5.991   5.060  0.5395 -0.1138  0.3330
  244MOL0     H32912  12.220   5.765   4.857  2.2009  1.5353 -1.6462
  244MOL0     H32913  12.092   5.813   4.960  0.6485 -3.3747 -3.4525
  244MOL0     H32914  12.099   5.915   4.708  1.4750  0.7261  0.3626
  244MOL0     H32915  12.221   6.017   4.775  0.0370 -0.7195 -0.5676
  244MOL0     H32916  11.939   6.004   4.847 -0.4756  0.6548  1.8670
  244MOL0     H32917  12.058   6.054   4.971  1.0286 -0.8022 -0.5337
  244MOL0     H32918  11.994   6.181   4.688 -1.5443 -4.1234  0.9099
  244MOL0     H32919  12.143   6.217   4.790  0.0277 -2.8682  0.0980
  244MOL0     H32920  12.003   6.311   4.964  0.8387 -1.3905  0.2564
  244MOL0     H32921  11.866   6.222   4.897  1.7196 -2.1851 -0.2844
  244MOL0     H32922  12.071   5.651   5.434 -3.8851 -2.6187 -1.7864
  244MOL0     H32923  11.877   5.638   5.542 -1.1905 -0.7012 -0.5108
  244MOL0     H32924  11.748   5.849   5.979  0.5359 -2.5089 -0.9926
  244MOL0     H32925  11.567   5.824   6.143 -1.2546 -2.2973 -0.0819
  244MOL0     H32926  10.534   5.303   7.232 -0.6383  1.2270 -4.2310
  244MOL0     H32927  10.491   5.465   7.431 -0.6467 -0.7610  1.1053
  244MOL0     H32928  10.251   5.836   7.600  0.3929  0.4363 -0.3825
  244MOL0     H32929  10.219   5.976   7.782  2.2979 -1.3023 -1.9314
  244MOL0     H32930   9.982   5.979   8.166 -0.2223  0.0806 -0.0949
  244MOL0     H32931   9.996   5.805   8.149 -0.5657  1.2996  1.5722
  244MOL0     H32932  10.241   5.834   8.208 -0.1409 -0.0407 -1.0546
  244MOL0     H32933  10.132   5.885   8.342 -0.9343  0.2151 -1.5795
  244MOL0     H32934  10.151   6.123   8.269 -1.2608 -2.4098  1.2802
  244MOL0     H32935  10.261   6.088   8.148 -1.8514  1.0342 -0.0328
  244MOL0     H32936  10.433   5.992   8.309  1.0541 -0.8517  2.5001
  244MOL0     H32937  10.326   6.000   8.444  3.1355  1.3494  1.1643
  244MOL0     H32938  10.507   6.376   8.444  2.5404  0.0373 -2.2583
  244MOL0     H32939   9.984   5.692   7.989 -0.9898 -0.1996 -0.4676
  244MOL0     H32940  10.003   5.535   7.810 -2.1714  2.1941  1.7741
  245MOL0     O32941   9.139   8.013   6.035 -0.5409 -0.1257 -0.4351
  245MOL0     C32942   9.219   8.100   6.072 -0.2103  0.1121 -0.2564
  245MOL0     O32943   9.186   8.202   6.157  0.4045 -0.2507 -0.1422
  245MOL0     C32944   9.056   8.208   6.197 -0.2517 -0.1113  0.5659
  245MOL0     C32945   8.982   8.321   6.150 -0.2565  0.3494  0.5247
  245MOL0     C32946   8.854   8.333   6.164  0.2239 -0.4283 -0.3428
  245MOL0     C32947   8.796   8.247   6.248  0.9151  0.3086 -0.8366
  245MOL0     O32948   8.666   8.258   6.297  0.1188 -0.1040  0.2949
  245MOL0     C32949   8.565   8.192   6.223 -0.0689  0.0878  0.3135
  245MOL0     C32950   8.509   8.299   6.135 -0.2716 -0.3402 -1.0464
  245MOL0     C32951   8.525   8.284   5.984 -0.1870  0.1179  0.3234
  245MOL0     C32952   8.428   8.388   5.914  0.0077  0.6534  0.0117
  245MOL0     C32953   8.465   8.529   5.947 -0.0065 -0.1478 -0.0936
  245MOL0     C32954   8.389   8.638   5.866 -0.0225  0.7493 -0.3260
  245MOL0     C32955   8.438   8.785   5.883 -0.8642 -0.6356  1.0508
  245MOL0     C32956   8.589   8.791   5.844  1.0576  0.0359  0.0008
  245MOL0     N32957   8.628   8.743   5.713 -0.2154 -0.9771 -0.5289
  245MOL0     C32958   8.727   8.657   5.689 -0.2269  0.8788 -0.0579
  245MOL0     C32959   8.729   8.635   5.554  0.5497  0.2818 -0.9650
  245MOL0     C32960   8.812   8.526   5.490  0.8847  0.2874  0.5333
  245MOL0     C32961   8.958   8.565   5.488 -0.7337  0.3926  0.4676
  245MOL0     C32962   9.014   8.654   5.375  0.6283  0.4489 -0.6450
  245MOL0     C32963   9.144   8.720   5.412  0.6626  0.9787 -1.0352
  245MOL0     O32964   9.211   8.759   5.297  0.4970  0.0584  0.1967
  245MOL0     C32965   9.315   8.848   5.303 -0.0481  0.1572 -0.7478
  245MOL0     C32966   9.362   8.875   5.179 -0.4777 -0.3219 -0.9012
  245MOL0     C32967   9.457   8.979   5.154 -0.1420 -0.6911 -0.1998
  245MOL0     C32968   9.493   9.010   5.011 -0.1197  0.2096  0.2139
  245MOL0     C32969   9.506   9.045   5.263 -0.1745 -0.5978 -0.0390
  245MOL0     C32970   9.604   9.163   5.258 -0.1069  0.8400  1.7757
  245MOL0     O32971   9.684   9.157   5.153  0.5774 -0.4157  0.5351
  245MOL0     C32972   9.737   9.270   5.097  0.2251  0.0697 -0.1664
  245MOL0     C32973   9.672   9.392   5.093 -0.0596  0.5511  0.1721
  245MOL0     C32974   9.745   9.510   5.075 -0.6719  0.0106 -1.4648
  245MOL0     C32975   9.880   9.510   5.043 -0.1782  0.1171 -0.1875
  245MOL0     O32976   9.948   9.624   5.023  0.6509  0.0052 -0.3721
  245MOL0     C32977   9.893   9.747   5.080 -0.5511 -0.1261  0.9535
  245MOL0     C32978   9.996   9.858   5.051  0.1785  0.8887  0.6189
  245MOL0     C32979   9.926   9.987   5.020 -0.3125 -0.1546  0.4703
  245MOL0     C32980  10.025  10.107   5.004  0.4490 -0.1035 -1.2930
  245MOL0     C32981   9.943  10.238   4.950  0.5084 -0.3782 -0.1181
  245MOL0     C32982   9.991  10.318   4.828 -0.4276 -0.2237 -1.0802
  245MOL0     C32983  10.037  10.235   4.705  0.1047  0.2639  0.5523
  245MOL0     C32984  10.143  10.311   4.617 -0.6099 -0.1838 -0.3914
  245MOL0    Cl32985  10.063  10.438   4.522 -0.3276 -0.3595  0.4082
  245MOL0     C32986   9.938   9.380   5.025 -0.3998 -0.3503  0.5499
  245MOL0     C32987   9.867   9.261   5.050 -0.1525 -0.1556 -1.0231
  245MOL0     O32988   9.594   9.259   5.334  0.3867 -0.4791 -0.4423
  245MOL0     C32989   9.459   9.023   5.388 -0.1901 -1.1702 -0.3976
  245MOL0     C32990   9.363   8.918   5.408  0.1579 -0.6471 -0.4972
  245MOL0     N32991   8.634   8.719   5.499 -0.6766  0.5141 -0.5605
  245MOL0     N32992   8.575   8.784   5.593  0.6101  0.5447 -0.9228
  245MOL0     C32993   8.854   8.134   6.310 -0.2604 -0.2417  0.3577
  245MOL0     C32994   8.994   8.112   6.277  0.2635 -0.5782  0.6379
  245MOL0     C32995   9.345   8.089   6.007 -0.8865 -0.3243 -0.5860
  245MOL0     C32996   9.386   7.990   5.916  1.0331 -0.1177 -0.5424
  245MOL0     C32997   9.506   7.988   5.845  0.6273 -0.5627  0.1365
  245MOL0     C32998   9.593   8.092   5.855 -0.1392 -0.2248 -0.8429
  245MOL0     O32999   9.702   8.085   5.775 -0.0991 -1.4226 -0.2831
  245MOL0     C33000   9.822   8.168   5.810  1.1591  0.3391  0.4451
  245MOL0     C33001   9.935   8.119   5.726  0.2495  0.5591  0.0161
  245MOL0     C33002   9.979   7.978   5.788 -0.5270  0.5562  0.1156
  245MOL0     C33003  10.109   7.940   5.727  0.0042 -0.4779 -0.6177
  245MOL0     C33004  10.155   7.804   5.767  0.1004  0.3084  0.3154
  245MOL0     C33005  10.180   7.690   5.791 -0.1970  0.4867  0.5322
  245MOL0     C33006   9.564   8.182   5.958  0.1954 -0.3362 -0.6039
  245MOL0     C33007   9.440   8.194   6.030 -0.0864 -0.2611  0.2761
  245MOL0     H33008   9.028   8.394   6.085  1.1788  0.2336  1.3650
  245MOL0     H33009   8.796   8.416   6.124 -1.3936 -1.3975 -0.1015
  245MOL0     H33010   8.604   8.108   6.165 -0.1487  1.1121 -1.2841
  245MOL0     H33011   8.488   8.147   6.287  1.9682 -4.8171 -0.2013
  245MOL0     H33012   8.403   8.302   6.160  0.0908 -1.2935  0.6972
  245MOL0     H33013   8.544   8.398   6.167 -2.3936 -0.0278  0.4959
  245MOL0     H33014   8.621   8.320   5.946 -0.8419  1.0447 -0.4908
  245MOL0     H33015   8.505   8.186   5.939  0.7833 -0.0475  0.2303
  245MOL0     H33016   8.440   8.368   5.807 -0.9012  1.3142 -0.2274
  245MOL0     H33017   8.320   8.374   5.921  0.2202 -1.0050  0.3537
  245MOL0     H33018   8.470   8.547   6.055  0.2168 -2.6578  0.3698
  245MOL0     H33019   8.572   8.540   5.926  0.0420 -0.6921 -0.1286
  245MOL0     H33020   8.392   8.617   5.759  0.6887  0.6792 -0.2992
  245MOL0     H33021   8.284   8.637   5.897 -0.0860  2.8727 -0.3752
  245MOL0     H33022   8.379   8.838   5.808  1.0394 -0.4356 -0.3756
  245MOL0     H33023   8.419   8.825   5.983 -1.8225 -0.9566  1.0075
  245MOL0     H33024   8.643   8.749   5.929 -0.2818  0.3531  1.0480
  245MOL0     H33025   8.623   8.895   5.853  2.2780 -0.4828  2.0754
  245MOL0     H33026   8.787   8.614   5.768  0.7250  1.8272 -0.2485
  245MOL0     H33027   8.804   8.434   5.550  0.3740 -0.7263 -1.0142
  245MOL0     H33028   8.773   8.509   5.390  2.9895 -0.9011 -0.1541
  245MOL0     H33029   9.019   8.475   5.471  0.9858  1.9825 -3.1097
  245MOL0     H33030   8.991   8.613   5.580 -0.4477 -1.7209  1.5135
  245MOL0     H33031   8.932   8.726   5.369 -0.9973 -1.2446  0.1913
  245MOL0     H33032   9.029   8.602   5.280  1.7283  1.6148 -1.1412
  245MOL0     H33033   9.204   8.642   5.459 -2.1017 -2.7204 -3.1508
  245MOL0     H33034   9.123   8.807   5.475 -0.1697 -0.4185  0.7000
  245MOL0     H33035   9.341   8.805   5.099  1.5302 -0.7267 -1.1425
  245MOL0     H33036   9.484   9.119   5.007  2.2480  0.4394 -0.8667
  245MOL0     H33037   9.593   8.974   4.983 -0.1990 -1.8275  2.2230
  245MOL0     H33038   9.426   8.966   4.937 -2.2994 -2.8456  3.6481
  245MOL0     H33039   9.565   9.403   5.102 -0.6263 -1.5532 -2.7270
  245MOL0     H33040   9.683   9.599   5.070 -1.0152 -0.2304 -1.5308
  245MOL0     H33041   9.799   9.768   5.028 -0.5821 -1.5227  0.4277
  245MOL0     H33042   9.853   9.755   5.182 -1.8646  2.4810  0.3277
  245MOL0     H33043  10.059   9.866   5.139 -0.6643  1.3896  1.1907
  245MOL0     H33044  10.060   9.832   4.966 -1.3226 -0.2320 -0.2326
  245MOL0     H33045   9.843  10.015   5.086 -1.5239  2.7623 -2.0230
  245MOL0     H33046   9.885   9.957   4.923  0.9476  0.0436 -0.1335
  245MOL0     H33047  10.066  10.123   5.104  0.5520 -3.4430 -0.6936
  245MOL0     H33048  10.109  10.084   4.938  0.9568 -1.3815 -0.2296
  245MOL0     H33049   9.934  10.309   5.033 -0.8337 -2.0378  1.2448
  245MOL0     H33050   9.840  10.203   4.933  0.1295 -1.2607  3.2406
  245MOL0     H33051   9.924  10.400   4.800  1.3075  1.1159 -1.4704
  245MOL0     H33052  10.079  10.369   4.868 -1.0566  1.7718 -2.0943
  245MOL0     H33053   9.953  10.208   4.641  0.4713 -2.2804  1.0401
  245MOL0     H33054  10.085  10.143   4.739  1.8647  1.5285  1.6742
  245MOL0     H33055  10.196  10.253   4.540 -2.3538  0.0731 -1.8541
  245MOL0     H33056  10.227  10.349   4.676 -0.0716 -2.4614  0.4129
  245MOL0     H33057  10.036   9.371   4.980 -0.4018 -1.0672  0.6810
  245MOL0     H33058   9.915   9.164   5.055  1.8039  0.8078  2.1763
  245MOL0     H33059   9.494   9.078   5.474  0.4955 -3.2906  0.7694
  245MOL0     H33060   9.310   8.919   5.503 -0.5336  1.9045 -0.8396
  245MOL0     H33061   8.797   8.072   6.379  0.9393 -3.4382 -1.3297
  245MOL0     H33062   9.060   8.044   6.330  2.2587  2.0449  1.7240
  245MOL0     H33063   9.316   7.909   5.900  3.6604 -1.9018 -4.5678
  245MOL0     H33064   9.521   7.903   5.779  1.7925 -0.1776 -0.1180
  245MOL0     H33065   9.804   8.270   5.775  2.1796  0.4281  0.1270
  245MOL0     H33066   9.858   8.183   5.912 -0.7880 -0.4405  1.3008
  245MOL0     H33067  10.013   8.196   5.733  0.8969  0.5160 -3.8963
  245MOL0     H33068   9.908   8.112   5.620  2.0960  1.1748 -0.5405
  245MOL0     H33069   9.901   7.909   5.754  0.1072 -0.3050  0.3805
  245MOL0     H33070   9.985   7.975   5.897 -1.4094  1.1217  0.1808
  245MOL0     H33071  10.184   8.019   5.734 -1.1486  0.8349 -2.2253
  245MOL0     H33072  10.084   7.930   5.621 -0.7894  1.4670 -0.6692
  245MOL0     H33073  10.202   7.589   5.821 -0.8983 -1.2989 -4.0928
  245MOL0     H33074   9.618   8.276   5.956 -0.3837 -0.0086 -2.2430
  245MOL0     H33075   9.410   8.269   6.103 -2.8313 -1.5527  0.6168
  246MOL0     O33076   9.258  10.458   5.626 -0.1294  0.5413  0.4491
  246MOL0     C33077   9.349  10.397   5.669  0.2061  0.9537 -0.6294
  246MOL0     O33078   9.472  10.382   5.594  0.4026  0.6544 -0.4812
  246MOL0     C33079   9.474  10.426   5.461 -0.6912 -0.3850  0.4555
  246MOL0     C33080   9.513  10.331   5.367  0.0071 -0.4252  0.6732
  246MOL0     C33081   9.508  10.358   5.232 -1.0241  0.0994  0.9121
  246MOL0     C33082   9.474  10.481   5.190  0.2049  0.0882 -0.1629
  246MOL0     O33083   9.484  10.519   5.063  0.0044  0.5316 -0.8020
  246MOL0     C33084   9.510  10.429   4.960  0.4671  0.4623  0.1022
  246MOL0     C33085   9.464  10.514   4.839  0.1672  0.3711 -0.1474
  246MOL0     C33086   9.527  10.472   4.703 -0.6911  1.4874  0.0351
  246MOL0     C33087   9.462  10.355   4.650 -0.8234  0.4815 -0.7275
  246MOL0     C33088   9.540  10.306   4.528  0.4854  0.8028  0.0437
  246MOL0     C33089   9.459  10.221   4.426 -0.2077 -0.0370  0.3586
  246MOL0     C33090   9.547  10.195   4.309  0.3397 -0.7826 -0.3675
  246MOL0     C33091   9.469  10.137   4.199  0.6487 -0.1013 -0.0516
  246MOL0     N33092   9.536  10.160   4.063 -0.9083  0.1395 -0.7476
  246MOL0     C33093   9.676  10.159   4.055  0.3892  0.4288 -0.3736
  246MOL0     C33094   9.698  10.207   3.932 -0.3626 -0.3231  1.0822
  246MOL0     C33095   9.838  10.248   3.882  0.8169  0.1279  0.8344
  246MOL0     C33096   9.885  10.152   3.772  0.7349 -0.3517 -0.3283
  246MOL0     C33097  10.017  10.197   3.720  0.8057  0.7742 -0.5742
  246MOL0     C33098  10.043  10.115   3.595 -0.5638 -0.4314  0.1302
  246MOL0     O33099  10.190  10.105   3.576 -0.4240 -0.0221  0.2146
  246MOL0     C33100  10.218  10.022   3.473  0.5486 -0.8245  0.3601
  246MOL0     C33101  10.211   9.884   3.497  0.6460 -0.1074  1.1024
  246MOL0     C33102  10.243   9.792   3.394 -0.1238  0.3611  0.6877
  246MOL0     C33103  10.245   9.643   3.426  0.1762  0.2734 -0.3498
  246MOL0     C33104  10.290   9.846   3.265  0.0332  0.3996  0.0645
  246MOL0     C33105  10.316   9.755   3.154  0.0796  0.5197 -0.0783
  246MOL0     O33106  10.358   9.629   3.182 -0.0797 -0.6043  0.1676
  246MOL0     C33107  10.387   9.544   3.077  0.2139 -0.3129  0.0799
  246MOL0     C33108  10.471   9.579   2.976  0.1114  0.4204  2.2691
  246MOL0     C33109  10.497   9.493   2.865 -0.7134 -1.5134 -0.0095
  246MOL0     C33110  10.421   9.372   2.855 -0.0789 -0.3814 -0.2720
  246MOL0     O33111  10.434   9.285   2.749  0.3422  0.2739  0.3324
  246MOL0     C33112  10.535   9.307   2.646 -0.7637 -0.0511  0.6602
  246MOL0     C33113  10.674   9.234   2.679  0.1158  0.5765  0.1682
  246MOL0     C33114  10.806   9.307   2.705  0.9574  0.4470 -0.4069
  246MOL0     C33115  10.937   9.220   2.708  0.0897  0.8459 -0.3872
  246MOL0     C33116  11.074   9.289   2.751 -0.0301  0.2744 -0.1703
  246MOL0     C33117  11.185   9.190   2.803 -0.2472 -0.7151 -0.7645
  246MOL0     C33118  11.315   9.260   2.822 -0.8852 -0.7100  0.9347
  246MOL0     C33119  11.419   9.177   2.876  0.2855 -0.8209  0.1117
  246MOL0    Cl33120  11.588   9.231   2.837  0.2270 -0.0211 -0.7257
  246MOL0     C33121  10.335   9.336   2.958  0.0296 -0.3745 -0.2292
  246MOL0     C33122  10.329   9.418   3.075  0.3145 -0.1861  0.7964
  246MOL0     O33123  10.287   9.799   3.038 -0.4306  0.3776 -0.3213
  246MOL0     C33124  10.285   9.980   3.255 -0.4648  0.0580  0.1517
  246MOL0     C33125  10.243  10.072   3.348 -0.0326  0.1510 -0.0212
  246MOL0     N33126   9.572  10.230   3.876  0.3432  0.0280  0.3986
  246MOL0     N33127   9.478  10.204   3.956 -1.0515 -0.5026  1.2372
  246MOL0     C33128   9.446  10.584   5.281  0.1343 -0.0139  0.3432
  246MOL0     C33129   9.449  10.558   5.419  0.4078  0.2126  0.0111
  246MOL0     C33130   9.340  10.326   5.804  0.1900 -0.3121 -0.4108
  246MOL0     C33131   9.242  10.355   5.902  0.4434  0.0304 -0.8257
  246MOL0     C33132   9.242  10.302   6.031 -0.6159  0.1867  0.2472
  246MOL0     C33133   9.343  10.210   6.064 -0.0224 -0.7033 -0.6437
  246MOL0     O33134   9.364  10.168   6.194  0.9486  0.1481  0.3016
  246MOL0     C33135   9.271  10.061   6.231 -0.0201 -1.0087  0.6053
  246MOL0     C33136   9.169  10.093   6.346  1.1038 -0.4078  0.5698
  246MOL0     C33137   9.208  10.189   6.447 -0.4305 -0.5370 -1.2138
  246MOL0     C33138   9.304  10.118   6.544  0.6860 -0.3647 -0.6136
  246MOL0     C33139   9.340  10.197   6.668  0.9395 -0.1198  0.7397
  246MOL0     C33140   9.367  10.277   6.754  0.1497  0.2762  0.3815
  246MOL0     C33141   9.440  10.168   5.965  0.5831 -0.2365 -0.8335
  246MOL0     C33142   9.450  10.242   5.844  0.0154 -0.1476  0.2609
  246MOL0     H33143   9.550  10.235   5.400 -0.0928  0.2212  2.7916
  246MOL0     H33144   9.538  10.278   5.165 -0.0879 -0.1885  1.6521
  246MOL0     H33145   9.616  10.402   4.956  0.8024  1.8359 -0.8940
  246MOL0     H33146   9.450  10.340   4.979 -1.8570  1.6557 -1.2655
  246MOL0     H33147   9.356  10.519   4.824  0.1103 -0.2607  0.0092
  246MOL0     H33148   9.510  10.611   4.862 -1.5081  0.6643  2.3527
  246MOL0     H33149   9.519  10.558   4.637  1.2630  0.6236 -1.4435
  246MOL0     H33150   9.633  10.449   4.721 -0.8265  0.9764  0.2104
  246MOL0     H33151   9.461  10.281   4.731  1.6806  1.9219  0.7707
  246MOL0     H33152   9.359  10.372   4.620 -1.3260 -2.2858 -0.7834
  246MOL0     H33153   9.563  10.400   4.478  0.1914  0.9557  0.1921
  246MOL0     H33154   9.634  10.257   4.553  1.0410  0.9661 -1.6405
  246MOL0     H33155   9.430  10.125   4.470  2.0211  0.2632  2.7473
  246MOL0     H33156   9.367  10.273   4.398 -1.5454 -1.3545  2.0378
  246MOL0     H33157   9.587  10.292   4.277  0.5294 -1.4229 -2.1527
  246MOL0     H33158   9.628  10.134   4.350 -0.3571 -0.6212  1.3711
  246MOL0     H33159   9.371  10.186   4.200 -0.1519 -1.5340 -1.7200
  246MOL0     H33160   9.460  10.030   4.220  2.1484  0.0312  1.3790
  246MOL0     H33161   9.741  10.132   4.138 -2.4319  0.2039  1.9394
  246MOL0     H33162   9.833  10.344   3.829  1.8779  0.8476  1.9770
  246MOL0     H33163   9.904  10.258   3.969  1.7558 -1.7619  0.3859
  246MOL0     H33164   9.803  10.160   3.700 -1.0203  1.0180  1.7259
  246MOL0     H33165   9.898  10.051   3.812  0.3122  0.1059  1.0074
  246MOL0     H33166  10.098  10.194   3.793  1.1990  3.4315 -0.8092
  246MOL0     H33167   9.996  10.300   3.692  0.0540  1.6616  2.7937
  246MOL0     H33168   9.999  10.169   3.510  0.4747  1.4747  0.7484
  246MOL0     H33169   9.997  10.016   3.607  0.7345 -1.3527 -1.9298
  246MOL0     H33170  10.182   9.838   3.590 -2.3098  0.7058  0.6849
  246MOL0     H33171  10.201   9.636   3.526 -1.9252  1.7516 -1.0960
  246MOL0     H33172  10.183   9.588   3.354 -1.9876 -1.9261  2.9255
  246MOL0     H33173  10.351   9.617   3.425  0.0963 -0.0735  0.0861
  246MOL0     H33174  10.518   9.677   2.975 -1.9150  1.5321 -0.9398
  246MOL0     H33175  10.556   9.534   2.784 -2.3024  1.0643  0.0115
  246MOL0     H33176  10.493   9.281   2.549 -0.0150 -0.9187  0.5585
  246MOL0     H33177  10.558   9.411   2.620  0.3328  0.6365  3.8881
  246MOL0     H33178  10.668   9.176   2.772  1.4182 -1.0144 -0.6877
  246MOL0     H33179  10.689   9.161   2.599  1.8897 -2.4665  3.0395
  246MOL0     H33180  10.794   9.360   2.799 -2.2602 -2.6573  1.1788
  246MOL0     H33181  10.833   9.377   2.626  4.3381 -0.0516  0.1612
  246MOL0     H33182  10.915   9.135   2.774 -1.7852  0.9856 -0.7557
  246MOL0     H33183  10.956   9.164   2.616  2.8892  0.1781  0.5095
  246MOL0     H33184  11.045   9.355   2.832 -1.3909 -2.1842  1.4701
  246MOL0     H33185  11.111   9.330   2.656 -1.1269 -2.2717 -1.8300
  246MOL0     H33186  11.151   9.144   2.897  0.7937 -2.4383 -1.2023
  246MOL0     H33187  11.198   9.107   2.733 -2.9733 -1.6469 -0.3160
  246MOL0     H33188  11.298   9.347   2.886  0.2869 -2.2164  3.4200
  246MOL0     H33189  11.346   9.294   2.723 -0.7170 -1.0899  0.8589
  246MOL0     H33190  11.410   9.074   2.842  1.9963 -0.4572 -1.6144
  246MOL0     H33191  11.409   9.172   2.985 -0.5836  3.1052  0.3631
  246MOL0     H33192  10.284   9.240   2.965 -1.3207  0.4308  2.9024
  246MOL0     H33193  10.270   9.391   3.162 -1.0461 -0.2329 -0.0908
  246MOL0     H33194  10.302  10.012   3.152 -1.9747 -2.8895 -1.1354
  246MOL0     H33195  10.240  10.173   3.307  3.5640 -0.8425 -3.4103
  246MOL0     H33196   9.430  10.680   5.233  0.3320 -0.7059 -1.1689
  246MOL0     H33197   9.420  10.639   5.486 -2.1576  2.0953 -3.0299
  246MOL0     H33198   9.172  10.433   5.873  2.7991  2.3342 -0.7122
  246MOL0     H33199   9.163  10.326   6.101 -1.0491 -2.4431  0.7729
  246MOL0     H33200   9.216  10.013   6.150  0.3872 -2.1046  0.9570
  246MOL0     H33201   9.340   9.986   6.273  3.2181  1.4262  0.0752
  246MOL0     H33202   9.123  10.004   6.390 -3.2898  0.7733 -1.0961
  246MOL0     H33203   9.087  10.149   6.301  0.8860 -0.1639  1.2608
  246MOL0     H33204   9.116  10.215   6.499  1.2431  3.0368  0.2492
  246MOL0     H33205   9.261  10.278   6.413  0.9545  0.0582  2.1341
  246MOL0     H33206   9.395  10.092   6.489  1.2586 -0.8933  0.5329
  246MOL0     H33207   9.271  10.018   6.574  0.3087  0.4778  2.0678
  246MOL0     H33208   9.374  10.350   6.832  0.2267  1.5197 -0.7384
  246MOL0     H33209   9.515  10.101   6.006  0.1796 -0.2236 -0.0433
  246MOL0     H33210   9.533  10.219   5.777  1.1086  0.6240  1.2979
  247MOL0     O33211   3.419   8.575   1.756  0.6038  0.0638 -0.4411
  247MOL0     C33212   3.403   8.496   1.844 -0.6737 -0.1779 -0.8555
  247MOL0     O33213   3.289   8.479   1.915 -0.0975  0.7733  0.4711
  247MOL0     C33214   3.196   8.569   1.895 -0.2963 -0.5097 -0.3092
  247MOL0     C33215   3.178   8.678   1.992 -0.0947  0.3636 -0.6667
  247MOL0     C33216   3.070   8.754   1.975  0.4503  0.4023 -0.2696
  247MOL0     C33217   2.978   8.740   1.867  0.6786  0.2292 -0.0881
  247MOL0     O33218   2.879   8.832   1.846  0.2918  0.4163 -0.7079
  247MOL0     C33219   2.789   8.850   1.955 -0.0722 -0.5121 -0.5004
  247MOL0     C33220   2.651   8.826   1.919  0.4598  0.4447  0.4774
  247MOL0     C33221   2.621   8.675   1.869 -0.0146  0.2727 -0.0265
  247MOL0     C33222   2.629   8.643   1.720 -0.3878  0.1788 -0.1137
  247MOL0     C33223   2.615   8.492   1.676 -0.2414  0.9362 -0.1316
  247MOL0     C33224   2.665   8.397   1.785  0.1866 -0.3166  0.1785
  247MOL0     C33225   2.644   8.253   1.728  0.0391 -0.7564 -0.6966
  247MOL0     C33226   2.681   8.153   1.837  0.4130 -0.7964 -0.0935
  247MOL0     N33227   2.704   8.015   1.807 -0.2159  0.2553  0.3452
  247MOL0     C33228   2.609   7.919   1.833  0.3101  0.0237 -0.0895
  247MOL0     C33229   2.649   7.807   1.782 -0.8080  0.2048  0.4231
  247MOL0     C33230   2.597   7.664   1.802  0.6953 -0.6477  0.1307
  247MOL0     C33231   2.449   7.659   1.771  0.4968 -0.4483  0.4659
  247MOL0     C33232   2.424   7.667   1.618 -0.8653  0.3784 -0.5994
  247MOL0     C33233   2.274   7.647   1.590  0.8274  0.5193  0.8169
  247MOL0     O33234   2.191   7.752   1.640 -0.2901  0.4757 -0.0390
  247MOL0     C33235   2.176   7.858   1.553  0.0510  0.0072 -0.6543
  247MOL0     C33236   2.077   7.859   1.454  0.5304 -0.7980 -0.2149
  247MOL0     C33237   2.067   7.973   1.374 -0.7192 -0.2911 -0.6991
  247MOL0     C33238   1.976   7.976   1.248 -0.1130 -0.2171 -0.0338
  247MOL0     C33239   2.153   8.084   1.400  0.2160 -0.2681  0.8287
  247MOL0     C33240   2.153   8.198   1.308  0.3752 -0.6644  0.1785
  247MOL0     O33241   2.186   8.179   1.180 -1.1223  0.3234  0.6923
  247MOL0     C33242   2.214   8.289   1.098 -0.5485  0.2047  0.2705
  247MOL0     C33243   2.305   8.386   1.135 -0.3196  0.7681  0.2204
  247MOL0     C33244   2.315   8.495   1.052  0.9607  0.2811  0.4172
  247MOL0     C33245   2.248   8.500   0.931 -0.2335 -0.3093  0.5792
  247MOL0     O33246   2.272   8.606   0.858 -0.1310  0.1372 -0.2698
  247MOL0     C33247   2.167   8.669   0.781 -0.6019  0.0318 -0.0066
  247MOL0     C33248   2.139   8.805   0.848  0.1804 -0.7794  0.0003
  247MOL0     C33249   2.012   8.873   0.809  0.5107 -1.1503  0.4014
  247MOL0     C33250   1.994   9.018   0.870 -0.9100  0.7068  0.3354
  247MOL0     C33251   1.903   9.036   0.990 -0.9319  0.1979  0.9644
  247MOL0     C33252   1.898   9.162   1.065 -0.2418 -0.3066  1.3661
  247MOL0     C33253   1.874   9.295   0.981 -0.9401 -0.0059 -0.8214
  247MOL0     C33254   1.731   9.294   0.932  0.1305 -0.1758 -0.3003
  247MOL0    Cl33255   1.705   9.461   0.854  0.0721  0.0285  0.2351
  247MOL0     C33256   2.167   8.395   0.891 -0.2593  0.0789 -0.4188
  247MOL0     C33257   2.151   8.284   0.974 -1.5538 -1.0367  0.6456
  247MOL0     O33258   2.128   8.303   1.364  0.3081  0.6377 -0.9119
  247MOL0     C33259   2.238   8.083   1.515  0.1493  1.0652  0.3487
  247MOL0     C33260   2.246   7.970   1.590  0.6646  0.3674 -0.0945
  247MOL0     N33261   2.775   7.832   1.722 -0.0363 -0.5192  0.2810
  247MOL0     N33262   2.806   7.953   1.734  0.2802 -0.4887 -0.1893
  247MOL0     C33263   3.005   8.648   1.770 -0.5320  0.4147 -0.0654
  247MOL0     C33264   3.117   8.561   1.787  0.6294 -0.0208 -1.2323
  247MOL0     C33265   3.528   8.402   1.865 -0.7539 -0.2364 -0.4726
  247MOL0     C33266   3.644   8.416   1.780 -0.6953 -0.2917  0.1677
  247MOL0     C33267   3.760   8.329   1.799 -0.1727  0.4279  0.9629
  247MOL0     C33268   3.756   8.234   1.903 -0.7814 -0.4419  0.6205
  247MOL0     O33269   3.847   8.142   1.934  0.3802  0.9213 -0.8170
  247MOL0     C33270   3.942   8.117   1.832 -0.9887  1.0517 -0.4929
  247MOL0     C33271   4.036   8.008   1.890  0.5154  0.0071  0.3405
  247MOL0     C33272   3.954   7.893   1.952 -0.3122  0.3124  0.5646
  247MOL0     C33273   4.026   7.759   1.944 -0.3093 -0.2879 -0.1411
  247MOL0     C33274   4.165   7.768   1.988  0.4838  0.4376 -1.3332
  247MOL0     C33275   4.279   7.769   2.019  0.1365  1.2843  0.1469
  247MOL0     C33276   3.639   8.220   1.971 -0.0269 -0.2634  0.1485
  247MOL0     C33277   3.525   8.298   1.954 -0.8285  0.5098  0.2457
  247MOL0     H33278   3.238   8.682   2.083  2.7990  1.5092 -2.4847
  247MOL0     H33279   3.051   8.834   2.046 -4.4427  0.2320 -1.0191
  247MOL0     H33280   2.818   8.797   2.046  1.5157 -3.1807 -2.4205
  247MOL0     H33281   2.794   8.952   1.994  0.4665 -0.9796  0.6834
  247MOL0     H33282   2.580   8.860   1.995 -0.9155  2.5327 -1.6031
  247MOL0     H33283   2.614   8.896   1.844 -2.3330  2.0280  3.0791
  247MOL0     H33284   2.675   8.608   1.936 -0.3386  1.0705  1.0694
  247MOL0     H33285   2.516   8.657   1.895  0.3086 -2.1917 -0.2498
  247MOL0     H33286   2.552   8.700   1.665  1.1150 -0.3769 -2.9972
  247MOL0     H33287   2.722   8.679   1.675  0.6266 -1.5835  0.5121
  247MOL0     H33288   2.507   8.475   1.669  0.0954 -1.7816  0.2004
  247MOL0     H33289   2.661   8.463   1.582 -1.0226  0.1459 -0.2937
  247MOL0     H33290   2.772   8.418   1.795  0.6836 -1.0816 -2.6040
  247MOL0     H33291   2.603   8.406   1.875 -1.5584  3.8812 -1.2272
  247MOL0     H33292   2.535   8.244   1.726 -0.0829  0.4165 -0.3791
  247MOL0     H33293   2.691   8.236   1.630 -0.3073  4.0815 -1.9593
  247MOL0     H33294   2.596   8.163   1.904  0.6513  0.1016  0.0892
  247MOL0     H33295   2.771   8.193   1.884  0.7267 -1.2290 -0.3150
  247MOL0     H33296   2.517   7.926   1.890 -0.6642 -2.0462 -1.2923
  247MOL0     H33297   2.654   7.586   1.751 -1.0222 -3.0062  1.6119
  247MOL0     H33298   2.584   7.637   1.907  0.2606 -0.6437  0.0794
  247MOL0     H33299   2.389   7.745   1.803  2.8407  2.0553 -1.4180
  247MOL0     H33300   2.404   7.565   1.806  1.4438 -1.5535 -1.1545
  247MOL0     H33301   2.474   7.582   1.571 -1.2415  0.6313 -1.4779
  247MOL0     H33302   2.472   7.757   1.578 -0.6989  2.0021  2.8938
  247MOL0     H33303   2.253   7.555   1.645 -0.7834  0.0093 -0.5692
  247MOL0     H33304   2.254   7.628   1.485 -0.4747 -1.5564  1.3763
  247MOL0     H33305   2.017   7.772   1.429  0.4462 -0.3115 -1.7578
  247MOL0     H33306   1.931   8.074   1.229 -1.1698 -0.4671  1.0962
  247MOL0     H33307   2.028   7.970   1.151  0.9399  2.0921  0.3143
  247MOL0     H33308   1.894   7.907   1.267 -2.0732  1.4398 -1.9197
  247MOL0     H33309   2.360   8.372   1.228  0.7245  0.9225 -0.3531
  247MOL0     H33310   2.369   8.582   1.088  1.5523  0.5016 -0.9506
  247MOL0     H33311   2.177   8.700   0.677 -3.2263  2.5772  0.3579
  247MOL0     H33312   2.074   8.613   0.798 -2.3620  2.6013 -0.5765
  247MOL0     H33313   2.144   8.784   0.955  0.2304 -2.0115 -0.2303
  247MOL0     H33314   2.219   8.875   0.821 -2.0025  1.2593 -1.5191
  247MOL0     H33315   1.932   8.806   0.842 -2.1968  1.9845  0.6440
  247MOL0     H33316   2.005   8.887   0.701  1.1726  0.7132  0.5733
  247MOL0     H33317   2.092   9.058   0.897 -0.4708 -0.7720  1.0687
  247MOL0     H33318   1.948   9.084   0.796 -4.3411  1.9840  3.3258
  247MOL0     H33319   1.931   8.961   1.065 -1.4961 -0.8382  0.1656
  247MOL0     H33320   1.801   9.016   0.956 -0.2252  0.9183 -1.7971
  247MOL0     H33321   1.826   9.139   1.145 -2.0738 -2.8944 -0.8325
  247MOL0     H33322   1.990   9.170   1.123  1.0500  3.3302 -0.8538
  247MOL0     H33323   1.948   9.290   0.901 -0.8624 -2.0723 -0.6826
  247MOL0     H33324   1.894   9.383   1.042 -0.8729 -1.0037  0.6494
  247MOL0     H33325   1.665   9.284   1.018  1.1257 -1.3651  0.3637
  247MOL0     H33326   1.703   9.222   0.855  1.4700  1.0693 -2.0257
  247MOL0     H33327   2.114   8.394   0.796 -0.9365 -0.3777 -0.0502
  247MOL0     H33328   2.097   8.193   0.948 -0.2532 -1.4210 -0.8599
  247MOL0     H33329   2.312   8.160   1.536  1.3024  0.3170 -0.8263
  247MOL0     H33330   2.305   7.961   1.681 -1.2560 -1.1194  1.0862
  247MOL0     H33331   2.938   8.636   1.686  0.3611  1.4961 -0.9562
  247MOL0     H33332   3.136   8.487   1.709 -0.9665 -2.0447  0.1803
  247MOL0     H33333   3.651   8.498   1.710 -3.9238  1.4062  1.5978
  247MOL0     H33334   3.845   8.340   1.732 -1.0282  0.3561 -0.1660
  247MOL0     H33335   3.890   8.082   1.743 -0.9572 -1.1218  0.2658
  247MOL0     H33336   4.004   8.207   1.828  2.0150 -0.6860  1.9667
  247MOL0     H33337   4.093   8.055   1.971  1.0738 -0.7482  0.3904
  247MOL0     H33338   4.107   7.981   1.811  1.0808  1.6258  0.2520
  247MOL0     H33339   3.860   7.882   1.897  2.0908  0.6571 -4.0495
  247MOL0     H33340   3.934   7.912   2.058 -0.4417  0.4220  0.5204
  247MOL0     H33341   4.038   7.723   1.841  0.4429 -0.1638 -0.0986
  247MOL0     H33342   3.975   7.692   2.014  0.3991 -2.2498 -1.4013
  247MOL0     H33343   4.380   7.754   2.054 -0.7311  0.9123  2.6695
  247MOL0     H33344   3.633   8.150   2.053  1.1048 -0.5237  0.0193
  247MOL0     H33345   3.435   8.281   2.013 -1.1230  2.1212  0.3148
  248MOL0     O33346   8.392   8.640   9.197 -0.2825  0.8941 -0.2706
  248MOL0     C33347   8.391   8.554   9.113 -0.1650  0.3312 -0.2980
  248MOL0     O33348   8.314   8.432   9.115  0.3545 -0.0176 -0.3738
  248MOL0     C33349   8.246   8.385   9.221  0.4313 -0.2395  0.5818
  248MOL0     C33350   8.177   8.271   9.205 -0.0660  0.2647 -0.3026
  248MOL0     C33351   8.110   8.220   9.318 -0.2203 -0.8758  0.1679
  248MOL0     C33352   8.104   8.268   9.443 -0.6828 -0.2895  0.8236
  248MOL0     O33353   8.041   8.214   9.558  0.2120  0.2248  0.0288
  248MOL0     C33354   8.035   8.068   9.551  1.1387  0.6696 -0.6566
  248MOL0     C33355   8.065   8.007   9.688 -0.6211 -0.1100 -0.1639
  248MOL0     C33356   8.042   7.846   9.700 -0.1338 -0.3592  1.4679
  248MOL0     C33357   7.909   7.805   9.751  0.6836 -0.0660  0.4577
  248MOL0     C33358   7.878   7.658   9.756  0.6602 -0.1484 -0.1605
  248MOL0     C33359   7.778   7.616   9.645  0.3728  0.0369 -0.6026
  248MOL0     C33360   7.715   7.477   9.677 -0.2810 -0.5324 -1.2479
  248MOL0     C33361   7.631   7.485   9.803  0.5258 -0.2873 -0.6225
  248MOL0     N33362   7.543   7.365   9.820  0.1166  0.8921 -0.0200
  248MOL0     C33363   7.440   7.316   9.736  0.5887  0.1307 -0.6741
  248MOL0     C33364   7.398   7.197   9.781 -1.0513  0.3298  0.3582
  248MOL0     C33365   7.287   7.106   9.717 -1.1902  0.3774  0.5266
  248MOL0     C33366   7.324   6.957   9.693  0.6230 -0.4963 -0.4329
  248MOL0     C33367   7.204   6.860   9.732 -0.0146  0.1941 -0.8252
  248MOL0     C33368   7.209   6.710   9.678 -0.4159 -0.2108 -0.2521
  248MOL0     O33369   7.148   6.615   9.769 -0.9356  0.3713  0.2722
  248MOL0     C33370   7.180   6.491   9.735 -0.1486 -0.2951 -0.2370
  248MOL0     C33371   7.157   6.392   9.832  0.7746  1.2448  1.5245
  248MOL0     C33372   7.152   6.257   9.793  0.3332 -0.1211  0.2662
  248MOL0     C33373   7.114   6.146   9.901  0.4692  0.2201  0.3908
  248MOL0     C33374   7.197   6.216   9.662  0.1059 -0.0003 -0.9100
  248MOL0     C33375   7.194   6.078   9.614 -0.0585 -0.2968  0.1737
  248MOL0     O33376   7.080   6.003   9.628 -0.0435 -0.0483  0.0969
  248MOL0     C33377   7.089   5.867   9.602  0.9503  0.0754  0.3408
  248MOL0     C33378   7.067   5.773   9.700  0.0488 -0.3472 -1.0108
  248MOL0     C33379   7.090   5.641   9.673  0.0568 -0.5431  0.3880
  248MOL0     C33380   7.109   5.594   9.543  0.6083  0.4179  1.1830
  248MOL0     O33381   7.127   5.467   9.498  0.4898  0.7860  0.0416
  248MOL0     C33382   7.176   5.378   9.606  0.6313 -0.2212  0.0135
  248MOL0     C33383   7.215   5.247   9.552  0.0118  0.2179  0.1582
  248MOL0     C33384   7.091   5.169   9.515  0.3213  0.2542  0.6699
  248MOL0     C33385   7.131   5.026   9.474 -0.8703 -0.7521 -0.0002
  248MOL0     C33386   7.256   5.012   9.379  1.0219  0.1576  0.2300
  248MOL0     C33387   7.278   4.871   9.321 -0.1323 -0.0052 -1.0605
  248MOL0     C33388   7.345   4.769   9.408 -0.4674  0.2696  0.0846
  248MOL0     C33389   7.366   4.632   9.322 -0.1133 -0.1309  0.2793
  248MOL0    Cl33390   7.419   4.497   9.431 -0.4539 -0.0317 -0.2704
  248MOL0     C33391   7.100   5.686   9.431 -0.0169  0.2738 -0.6476
  248MOL0     C33392   7.109   5.827   9.466  0.3184  0.2593 -0.6245
  248MOL0     O33393   7.294   6.046   9.551 -0.3292 -0.7167  0.8219
  248MOL0     C33394   7.242   6.312   9.573  0.0345 -0.0830 -0.8538
  248MOL0     C33395   7.230   6.446   9.612 -1.0284 -0.7943 -0.6275
  248MOL0     N33396   7.483   7.167   9.891  0.4388  0.8975  0.7540
  248MOL0     N33397   7.562   7.268   9.910 -0.0026 -0.4663 -0.6834
  248MOL0     C33398   8.162   8.393   9.451 -1.0785 -0.5835 -0.1656
  248MOL0     C33399   8.229   8.457   9.346 -0.8895 -0.9113  0.1376
  248MOL0     C33400   8.462   8.593   8.992 -0.8164 -0.1395  0.9856
  248MOL0     C33401   8.462   8.512   8.878  0.2264 -0.4654  0.2798
  248MOL0     C33402   8.530   8.539   8.768 -0.0464 -0.3492 -0.5226
  248MOL0     C33403   8.613   8.653   8.747  0.3506  0.6040 -0.1860
  248MOL0     O33404   8.679   8.666   8.628 -0.4518 -0.2791  1.1313
  248MOL0     C33405   8.761   8.779   8.600  0.2448 -0.2866 -0.2970
  248MOL0     C33406   8.908   8.760   8.617 -0.1441 -0.6963 -0.3189
  248MOL0     C33407   8.984   8.893   8.637  0.1911  0.7035 -0.1849
  248MOL0     C33408   9.138   8.897   8.629 -0.2371 -0.6233  1.2163
  248MOL0     C33409   9.184   9.034   8.614 -0.3793  0.0674 -0.0258
  248MOL0     C33410   9.239   9.146   8.618 -0.8482 -0.4377  0.8492
  248MOL0     C33411   8.613   8.734   8.866 -0.1218 -0.2537 -0.1219
  248MOL0     C33412   8.541   8.707   8.977 -0.3343 -0.0256  0.1849
  248MOL0     H33413   8.169   8.217   9.111 -0.3774  0.5010 -0.4107
  248MOL0     H33414   8.047   8.135   9.290 -1.2784 -1.0118  2.6533
  248MOL0     H33415   7.936   8.042   9.511  0.5585  3.1238 -1.0014
  248MOL0     H33416   8.108   8.033   9.477  1.6886  1.0178 -0.2865
  248MOL0     H33417   8.173   8.027   9.687 -0.3559 -1.2889 -2.2604
  248MOL0     H33418   8.028   8.056   9.778  3.4437  2.5086  0.3309
  248MOL0     H33419   8.049   7.808   9.598  3.3742  2.9781  0.2118
  248MOL0     H33420   8.115   7.795   9.762  0.3450 -2.1063 -0.4529
  248MOL0     H33421   7.884   7.851   9.847 -1.9377 -1.0121  0.2976
  248MOL0     H33422   7.843   7.854   9.678  1.8345 -0.8727 -1.1966
  248MOL0     H33423   7.973   7.603   9.759  0.8696  0.2361  1.9175
  248MOL0     H33424   7.842   7.636   9.857 -0.7273  0.5332 -0.4751
  248MOL0     H33425   7.699   7.689   9.629  0.4534  0.6716  1.5369
  248MOL0     H33426   7.827   7.612   9.547  0.1012  1.1972 -0.7985
  248MOL0     H33427   7.651   7.445   9.594  0.0756  0.1443 -1.7970
  248MOL0     H33428   7.803   7.415   9.698  0.9332  0.3471 -3.3734
  248MOL0     H33429   7.571   7.577   9.799  0.0503 -0.6169 -1.2111
  248MOL0     H33430   7.687   7.510   9.893 -1.2924  4.5110 -0.5104
  248MOL0     H33431   7.393   7.379   9.661 -0.6548  0.1532  0.0868
  248MOL0     H33432   7.197   7.099   9.779 -1.5546 -2.1696 -0.1752
  248MOL0     H33433   7.262   7.135   9.614  0.3636 -0.8250 -0.2353
  248MOL0     H33434   7.408   6.922   9.755 -2.3138 -2.9308  2.5399
  248MOL0     H33435   7.350   6.944   9.588  2.3710  0.1230 -0.1168
  248MOL0     H33436   7.107   6.890   9.691 -0.5453 -2.1311 -1.3842
  248MOL0     H33437   7.204   6.851   9.841 -1.2515 -2.0338 -0.9487
  248MOL0     H33438   7.315   6.689   9.657 -0.0085  0.3764  1.0912
  248MOL0     H33439   7.156   6.702   9.583  1.7855 -0.6919 -1.5035
  248MOL0     H33440   7.117   6.426   9.926 -1.0529 -0.4399  1.4226
  248MOL0     H33441   7.077   6.189   9.994 -3.1484  2.2616 -1.7636
  248MOL0     H33442   7.040   6.076   9.861  0.8520  0.6919 -1.2451
  248MOL0     H33443   7.209   6.094   9.917  1.7243  2.2781  0.0790
  248MOL0     H33444   7.040   5.814   9.797  2.6187 -1.5465  0.3096
  248MOL0     H33445   7.083   5.574   9.758 -0.3992  0.3774  1.1058
  248MOL0     H33446   7.268   5.421   9.645 -0.1461  0.5283  1.0621
  248MOL0     H33447   7.109   5.370   9.691  3.7581  0.7887  2.7651
  248MOL0     H33448   7.285   5.268   9.470 -1.2055  3.7904 -0.1103
  248MOL0     H33449   7.268   5.191   9.630 -0.8183  0.3655  0.8316
  248MOL0     H33450   7.037   5.219   9.434 -0.2659  1.1999  1.6094
  248MOL0     H33451   7.010   5.150   9.586 -0.9602 -0.9303 -1.0300
  248MOL0     H33452   7.161   4.972   9.565 -1.5378  0.8381  1.2211
  248MOL0     H33453   7.040   4.981   9.434 -0.7349 -0.0089 -1.1843
  248MOL0     H33454   7.344   5.054   9.427 -0.6811  3.1106  1.0282
  248MOL0     H33455   7.231   5.072   9.291  4.2106 -1.9157 -2.3231
  248MOL0     H33456   7.185   4.820   9.292  1.5205 -2.1742 -2.9009
  248MOL0     H33457   7.341   4.887   9.233  1.8470  1.3193  0.5354
  248MOL0     H33458   7.281   4.740   9.492 -1.4957 -2.3471 -1.4959
  248MOL0     H33459   7.442   4.807   9.443 -1.1497  3.6815 -1.3487
  248MOL0     H33460   7.455   4.661   9.265  0.2683  0.9062  1.3380
  248MOL0     H33461   7.282   4.607   9.257  0.8043  0.0987 -1.0370
  248MOL0     H33462   7.110   5.661   9.326 -4.0905  2.9939 -1.9411
  248MOL0     H33463   7.111   5.895   9.382 -2.3121 -1.1921 -2.0290
  248MOL0     H33464   7.273   6.286   9.472 -2.6407  0.9955 -2.0554
  248MOL0     H33465   7.259   6.523   9.541  1.2965  0.0275  1.0965
  248MOL0     H33466   8.147   8.447   9.544 -0.6366 -1.2615  0.3177
  248MOL0     H33467   8.281   8.543   9.386 -2.3283 -1.2672  3.0419
  248MOL0     H33468   8.397   8.424   8.880  0.6184 -0.7795  2.2710
  248MOL0     H33469   8.511   8.486   8.676 -0.5834  0.5647 -0.9435
  248MOL0     H33470   8.752   8.797   8.492  0.6527 -4.5356 -1.2104
  248MOL0     H33471   8.718   8.863   8.655 -4.6056 -1.8967 -1.0876
  248MOL0     H33472   8.950   8.713   8.528  1.3990  2.2732 -1.2883
  248MOL0     H33473   8.933   8.697   8.703  0.8837 -0.3693 -0.3684
  248MOL0     H33474   8.948   8.941   8.728  0.9317  0.7663  0.0775
  248MOL0     H33475   8.945   8.956   8.556  2.4254  1.0775 -1.0319
  248MOL0     H33476   9.165   8.850   8.534  0.0103  3.2680 -0.8333
  248MOL0     H33477   9.183   8.848   8.716  1.4400 -0.8352  0.2815
  248MOL0     H33478   9.292   9.239   8.616 -1.4930 -0.0584 -1.1094
  248MOL0     H33479   8.682   8.818   8.871 -0.2243 -0.1056 -0.9739
  248MOL0     H33480   8.552   8.762   9.070  2.8924  0.4484 -0.3665
  249MOL0     O33481   2.103   2.881   3.432  0.1557 -0.0829 -0.1134
  249MOL0     C33482   2.058   2.921   3.535  0.5965 -0.3957  0.1742
  249MOL0     O33483   2.086   2.867   3.658 -0.3009  0.4566 -0.4737
  249MOL0     C33484   2.149   2.745   3.654 -1.0434 -0.1081  1.3541
  249MOL0     C33485   2.070   2.629   3.629  0.1960  0.5723  0.3203
  249MOL0     C33486   2.128   2.496   3.607  0.7139 -0.6883  0.3734
  249MOL0     C33487   2.267   2.492   3.598 -1.2745 -0.1281 -0.8641
  249MOL0     O33488   2.349   2.382   3.573  0.0587 -0.2257  0.7418
  249MOL0     C33489   2.282   2.253   3.558 -0.0564 -0.9744  0.3050
  249MOL0     C33490   2.388   2.152   3.564 -0.3569 -0.3341 -0.2000
  249MOL0     C33491   2.435   2.098   3.427  0.5936  0.8424 -0.5099
  249MOL0     C33492   2.494   2.192   3.328 -0.3286  0.1225 -0.8133
  249MOL0     C33493   2.583   2.121   3.221 -0.7139 -0.0902 -0.3543
  249MOL0     C33494   2.628   2.221   3.105  0.2911  0.0677 -0.1365
  249MOL0     C33495   2.526   2.247   2.996 -0.1097 -0.1830 -0.9721
  249MOL0     C33496   2.537   2.382   2.922  0.2568  0.1251  0.3815
  249MOL0     N33497   2.431   2.397   2.814 -0.5212 -0.0373  0.4615
  249MOL0     C33498   2.387   2.518   2.765  0.9241 -0.6256  0.6554
  249MOL0     C33499   2.300   2.491   2.663 -0.9424  0.4752  0.3525
  249MOL0     C33500   2.250   2.592   2.568  0.1389  0.0812  0.0527
  249MOL0     C33501   2.127   2.656   2.643 -0.3556  0.2513  0.4932
  249MOL0     C33502   2.078   2.772   2.548  0.9801 -0.5405 -1.5214
  249MOL0     C33503   2.159   2.903   2.536 -0.4826  1.2231 -0.4403
  249MOL0     O33504   2.068   2.991   2.466 -0.4278 -0.5976  0.0363
  249MOL0     C33505   2.085   3.130   2.465 -0.6869 -0.7101  0.3614
  249MOL0     C33506   1.975   3.218   2.466  0.5616  0.5623  0.0845
  249MOL0     C33507   1.998   3.351   2.468  0.1121 -0.0239 -0.1809
  249MOL0     C33508   1.881   3.441   2.492 -1.0556  0.2412  0.6612
  249MOL0     C33509   2.132   3.407   2.464  0.6835 -0.7292  0.1321
  249MOL0     C33510   2.157   3.556   2.444  0.9480  1.0716  0.3213
  249MOL0     O33511   2.269   3.605   2.499 -0.7523 -0.3480 -0.2674
  249MOL0     C33512   2.299   3.732   2.456 -0.0203  0.2337 -0.3661
  249MOL0     C33513   2.329   3.766   2.326 -0.2366 -0.0264  0.8678
  249MOL0     C33514   2.351   3.901   2.293  1.4012 -0.0726  0.7042
  249MOL0     C33515   2.340   4.003   2.388 -1.0114 -0.1185  0.4265
  249MOL0     O33516   2.348   4.136   2.349 -0.2874 -0.9970  0.9884
  249MOL0     C33517   2.296   4.172   2.221 -0.1672  1.0126 -0.5237
  249MOL0     C33518   2.216   4.300   2.217 -0.3480  0.3082 -0.0117
  249MOL0     C33519   2.268   4.428   2.292 -0.3251 -0.8563 -1.3062
  249MOL0     C33520   2.232   4.550   2.217 -0.3013  0.0926  0.5890
  249MOL0     C33521   2.271   4.676   2.285 -0.9169 -0.3855  1.2569
  249MOL0     C33522   2.284   4.787   2.173 -0.0076  0.4571 -0.0808
  249MOL0     C33523   2.368   4.910   2.211 -0.0258 -0.3636  0.3759
  249MOL0     C33524   2.514   4.892   2.255  0.4083  0.3004  0.0426
  249MOL0    Cl33525   2.607   4.830   2.122  0.4858  0.5291 -0.3716
  249MOL0     C33526   2.325   3.969   2.520  0.0188  0.7343  0.2305
  249MOL0     C33527   2.303   3.835   2.554  0.6481 -0.3198 -0.5023
  249MOL0     O33528   2.071   3.617   2.386  0.6743 -0.2930  0.0308
  249MOL0     C33529   2.244   3.317   2.462 -0.0271 -0.2037  0.4133
  249MOL0     C33530   2.214   3.176   2.466  0.2171 -0.0335  0.1356
  249MOL0     N33531   2.292   2.355   2.658 -0.0759  0.1712  0.2730
  249MOL0     N33532   2.362   2.299   2.748 -0.5409  0.7171 -0.1765
  249MOL0     C33533   2.338   2.611   3.607 -0.6666 -0.8892 -0.0662
  249MOL0     C33534   2.287   2.740   3.637  0.7929 -0.1175  0.4583
  249MOL0     C33535   1.974   3.045   3.539 -0.5918 -0.2628 -0.8411
  249MOL0     C33536   1.910   3.088   3.657  0.6430 -0.7129 -0.3162
  249MOL0     C33537   1.836   3.207   3.657  0.2748  0.3422 -0.0967
  249MOL0     C33538   1.820   3.292   3.536  0.0142 -0.0224 -0.7209
  249MOL0     O33539   1.750   3.418   3.555  0.3574 -0.0268 -0.0444
  249MOL0     C33540   1.644   3.422   3.651 -0.1712  1.5056 -0.1977
  249MOL0     C33541   1.558   3.541   3.608  0.5582 -0.4830  0.5252
  249MOL0     C33542   1.655   3.658   3.590 -0.9419  0.3967 -0.3163
  249MOL0     C33543   1.657   3.717   3.448 -0.8622  0.9279 -0.4148
  249MOL0     C33544   1.776   3.812   3.449 -0.1678  0.1318 -0.3279
  249MOL0     C33545   1.871   3.887   3.444 -0.3796  0.6927 -0.2214
  249MOL0     C33546   1.886   3.255   3.423  0.6085 -0.1577 -1.3485
  249MOL0     C33547   1.959   3.132   3.427  0.4201 -0.6454  0.0872
  249MOL0     H33548   1.965   2.635   3.654  0.3016 -3.3015  2.3887
  249MOL0     H33549   2.067   2.409   3.588 -0.0978 -0.3149  1.2199
  249MOL0     H33550   2.204   2.232   3.632 -1.1086  0.1677 -0.4416
  249MOL0     H33551   2.234   2.248   3.459  1.3392 -1.4144 -0.3723
  249MOL0     H33552   2.469   2.188   3.629 -1.3413 -0.0409  0.9153
  249MOL0     H33553   2.338   2.065   3.607 -2.5745  0.2661 -1.4438
  249MOL0     H33554   2.510   2.020   3.444 -0.2196 -0.1233 -1.3003
  249MOL0     H33555   2.346   2.053   3.383  1.1569 -0.6569 -0.1526
  249MOL0     H33556   2.417   2.247   3.273  1.8278  1.4404 -2.6753
  249MOL0     H33557   2.549   2.268   3.385  1.3353 -0.7877 -1.1640
  249MOL0     H33558   2.678   2.089   3.266  1.2198  1.0110 -3.3806
  249MOL0     H33559   2.534   2.034   3.176 -1.0459  0.0204 -0.2065
  249MOL0     H33560   2.632   2.314   3.163  2.3504 -0.6135  0.9224
  249MOL0     H33561   2.721   2.193   3.056 -0.2681 -0.1774 -1.0748
  249MOL0     H33562   2.529   2.158   2.933  0.7078 -1.5225  0.8651
  249MOL0     H33563   2.426   2.256   3.039  0.7623 -0.7083  1.3101
  249MOL0     H33564   2.632   2.400   2.870 -0.4973  0.9288 -0.7673
  249MOL0     H33565   2.531   2.455   3.003 -0.9175 -2.4838  2.7901
  249MOL0     H33566   2.427   2.613   2.798 -0.8239  0.5312 -0.4609
  249MOL0     H33567   2.327   2.670   2.562 -0.2043  0.3002 -2.1059
  249MOL0     H33568   2.231   2.551   2.468  1.8104 -2.2273  0.5843
  249MOL0     H33569   2.148   2.692   2.744 -3.4992  1.5198  0.8236
  249MOL0     H33570   2.055   2.574   2.637  0.4316 -0.4041 -0.3022
  249MOL0     H33571   1.980   2.805   2.584  2.5547  2.0113  0.8390
  249MOL0     H33572   2.061   2.718   2.454 -1.6739 -0.5833 -1.0898
  249MOL0     H33573   2.248   2.891   2.474 -1.0721  2.6438 -1.6090
  249MOL0     H33574   2.187   2.935   2.637 -2.1584  2.3851 -0.2988
  249MOL0     H33575   1.873   3.179   2.461  0.3527  1.1485 -0.2959
  249MOL0     H33576   1.851   3.476   2.392  2.2509 -2.1198 -1.3967
  249MOL0     H33577   1.801   3.379   2.532  0.4129  0.1765  3.7419
  249MOL0     H33578   1.886   3.529   2.556 -0.8463 -0.2625  1.3539
  249MOL0     H33579   2.342   3.682   2.259  0.8857 -1.2710  2.5488
  249MOL0     H33580   2.376   3.915   2.189  0.7635 -3.4916 -0.0343
  249MOL0     H33581   2.377   4.181   2.148  0.1283 -0.7183 -0.4446
  249MOL0     H33582   2.224   4.097   2.188 -0.7030  0.2476  2.1680
  249MOL0     H33583   2.174   4.312   2.117 -1.0939 -1.8304 -0.0087
  249MOL0     H33584   2.127   4.279   2.277 -2.0176  0.7503 -2.2207
  249MOL0     H33585   2.377   4.427   2.299 -0.2550  2.1796 -0.6087
  249MOL0     H33586   2.222   4.434   2.391  0.9995 -2.2291 -0.5666
  249MOL0     H33587   2.292   4.552   2.125  1.8002  1.1023  1.8929
  249MOL0     H33588   2.126   4.549   2.192 -0.2139  1.3543  0.1011
  249MOL0     H33589   2.368   4.661   2.333  0.3100  0.3113 -0.8823
  249MOL0     H33590   2.201   4.713   2.361 -3.0001  3.2171 -2.0205
  249MOL0     H33591   2.324   4.741   2.082 -0.3407 -1.3527  0.6544
  249MOL0     H33592   2.181   4.807   2.141 -0.3043 -3.0555 -1.7779
  249MOL0     H33593   2.310   4.964   2.286  1.3850  1.2320  0.3679
  249MOL0     H33594   2.378   4.979   2.128 -0.7930 -1.4869 -0.6872
  249MOL0     H33595   2.534   4.826   2.340  0.7898  3.2582  2.4151
  249MOL0     H33596   2.550   4.990   2.290 -0.0992  0.5070 -0.0053
  249MOL0     H33597   2.310   4.051   2.589 -0.3628 -0.2449  1.3438
  249MOL0     H33598   2.294   3.811   2.660  1.9244 -0.8876 -0.5063
  249MOL0     H33599   2.343   3.355   2.440 -0.0779 -0.1089  0.3475
  249MOL0     H33600   2.297   3.106   2.461  2.0203  1.8807  1.3202
  249MOL0     H33601   2.446   2.600   3.598 -0.6475 -1.4451  0.8039
  249MOL0     H33602   2.342   2.833   3.643 -0.6147  0.6733  1.3689
  249MOL0     H33603   1.915   3.022   3.743  0.7503 -0.9480 -0.5022
  249MOL0     H33604   1.791   3.229   3.753 -1.2735 -0.2644 -0.6489
  249MOL0     H33605   1.584   3.331   3.647  0.8896  0.7815 -0.2271
  249MOL0     H33606   1.667   3.436   3.757 -3.2140  0.3262  0.7269
  249MOL0     H33607   1.482   3.558   3.686 -0.6267 -1.2309 -0.4203
  249MOL0     H33608   1.491   3.510   3.527  0.0070 -0.7554  1.0719
  249MOL0     H33609   1.750   3.633   3.638 -1.2072  0.0386  0.0301
  249MOL0     H33610   1.621   3.738   3.657  0.2572 -0.4014  1.3029
  249MOL0     H33611   1.566   3.764   3.410 -1.0167 -0.0188 -1.2663
  249MOL0     H33612   1.680   3.627   3.389  1.2349 -0.0817  1.7733
  249MOL0     H33613   1.960   3.948   3.445 -0.2516  0.5071  1.1001
  249MOL0     H33614   1.904   3.314   3.334  0.0716 -0.5011 -1.6956
  249MOL0     H33615   2.014   3.099   3.339  0.6831 -2.0537  0.7560
  250MOL0     O33616   9.821   8.060   2.045 -0.1517  0.0689 -0.3560
  250MOL0     C33617   9.719   8.125   2.047 -0.0667  0.0479 -0.3987
  250MOL0     O33618   9.675   8.196   2.161  0.5377  0.3758 -0.1686
  250MOL0     C33619   9.764   8.201   2.270  1.3959  0.8296 -0.4046
  250MOL0     C33620   9.837   8.324   2.291  0.5583 -0.0356  0.7389
  250MOL0     C33621   9.908   8.348   2.411 -0.8984 -0.3695 -0.1623
  250MOL0     C33622   9.908   8.244   2.509 -0.0384  0.5664 -0.0165
  250MOL0     O33623   9.978   8.237   2.623 -0.7633 -0.5591 -0.4793
  250MOL0     C33624  10.114   8.282   2.609 -1.2096  0.8586  0.2695
  250MOL0     C33625  10.178   8.277   2.753 -0.7380 -0.3370  0.4234
  250MOL0     C33626  10.193   8.135   2.797 -1.0946  0.8855 -0.6387
  250MOL0     C33627  10.281   8.134   2.921 -0.5887  0.4550 -0.1948
  250MOL0     C33628  10.276   8.003   3.003  0.3509  0.3171 -0.2583
  250MOL0     C33629  10.363   7.893   2.933  0.2190  0.2994 -0.9629
  250MOL0     C33630  10.372   7.760   3.009  0.1466  0.2336 -0.3995
  250MOL0     C33631  10.249   7.678   2.988  0.0907  0.0590 -0.0745
  250MOL0     N33632  10.130   7.731   3.064 -0.6535 -0.1767  0.1543
  250MOL0     C33633  10.106   7.694   3.199  0.4001  0.7568  0.5713
  250MOL0     C33634   9.976   7.730   3.222 -0.7094 -0.2238 -0.3494
  250MOL0     C33635   9.920   7.732   3.368  0.1975 -0.8588  0.4298
  250MOL0     C33636   9.855   7.597   3.399 -0.8863 -0.2347 -0.3183
  250MOL0     C33637   9.731   7.573   3.307 -0.3431 -0.4669 -0.6877
  250MOL0     C33638   9.613   7.666   3.350 -0.2820  0.3260 -0.0482
  250MOL0     O33639   9.505   7.584   3.365 -0.1647 -0.4553  0.1482
  250MOL0     C33640   9.389   7.656   3.387 -0.8886 -0.0334  0.3941
  250MOL0     C33641   9.369   7.732   3.508 -0.9219  0.4784  0.0770
  250MOL0     C33642   9.257   7.812   3.538 -0.0195  0.4288 -0.2103
  250MOL0     C33643   9.234   7.855   3.678 -0.0174 -0.6504 -0.3722
  250MOL0     C33644   9.172   7.835   3.425 -0.9690 -0.2870 -1.2179
  250MOL0     C33645   9.061   7.932   3.437 -0.0130 -0.0853  0.5940
  250MOL0     O33646   9.090   8.036   3.520 -0.3432 -0.4811 -0.5186
  250MOL0     C33647   9.002   8.139   3.529  0.0904 -0.2025 -0.4414
  250MOL0     C33648   8.991   8.230   3.429  0.6751  0.0446 -0.6333
  250MOL0     C33649   8.888   8.328   3.429 -0.2743 -0.0948  0.7450
  250MOL0     C33650   8.799   8.337   3.529  0.2331 -0.1104  0.4918
  250MOL0     O33651   8.705   8.431   3.516 -0.0256 -0.3861 -0.4778
  250MOL0     C33652   8.597   8.441   3.606  0.2170 -1.0417 -0.2372
  250MOL0     C33653   8.494   8.536   3.549 -0.0766 -0.8257 -0.8323
  250MOL0     C33654   8.390   8.465   3.468  0.5378  0.2642  0.4656
  250MOL0     C33655   8.422   8.472   3.309  0.5194  0.0127  0.0574
  250MOL0     C33656   8.349   8.588   3.246 -0.2475  1.2982  0.2028
  250MOL0     C33657   8.342   8.572   3.095  0.0121 -0.2598 -0.0793
  250MOL0     C33658   8.260   8.692   3.039 -0.2471 -0.2794  0.4641
  250MOL0     C33659   8.261   8.682   2.889  0.1500  0.2416  0.5756
  250MOL0    Cl33660   8.134   8.548   2.845 -0.0829  0.1175  0.2746
  250MOL0     C33661   8.803   8.244   3.629  0.2656 -0.3715 -0.2033
  250MOL0     C33662   8.903   8.148   3.633 -0.1913  0.6905  0.4426
  250MOL0     O33663   8.963   7.925   3.362  0.4272  0.4877 -0.3447
  250MOL0     C33664   9.189   7.763   3.313  0.5968  0.7503  0.6167
  250MOL0     C33665   9.303   7.679   3.281  0.3155  0.5378 -0.2710
  250MOL0     N33666   9.921   7.793   3.111  0.7332 -0.0335 -0.0518
  250MOL0     N33667  10.012   7.794   3.017 -0.3632  0.2578 -0.0076
  250MOL0     C33668   9.847   8.120   2.485  0.4390 -0.6045  0.7298
  250MOL0     C33669   9.768   8.105   2.367  0.4564  0.4662  0.0295
  250MOL0     C33670   9.651   8.148   1.922 -0.0025  0.5961  0.2139
  250MOL0     C33671   9.641   8.057   1.818  0.6395  0.2615  0.2304
  250MOL0     C33672   9.557   8.086   1.710 -0.7404  0.0252  0.0754
  250MOL0     C33673   9.519   8.218   1.691  0.0427  1.0627  0.6678
  250MOL0     O33674   9.430   8.253   1.592 -0.7933 -0.1804 -0.3234
  250MOL0     C33675   9.461   8.372   1.525  0.3160 -0.1765 -0.1861
  250MOL0     C33676   9.597   8.365   1.452 -0.5532 -0.2234  0.4044
  250MOL0     C33677   9.609   8.255   1.344 -0.0195  0.0865 -0.4188
  250MOL0     C33678   9.750   8.265   1.291 -0.2923 -0.1696  0.3347
  250MOL0     C33679   9.775   8.163   1.189 -0.1854  0.6511 -0.2228
  250MOL0     C33680   9.814   8.068   1.129  0.1404  0.7933  0.3468
  250MOL0     C33681   9.534   8.314   1.792 -0.5864 -0.1717 -0.1879
  250MOL0     C33682   9.610   8.285   1.903 -0.3422  0.3073  0.1372
  250MOL0     H33683   9.838   8.384   2.200 -4.0256 -2.3132 -1.1602
  250MOL0     H33684   9.954   8.441   2.441 -2.6238  0.8899 -1.2768
  250MOL0     H33685  10.165   8.212   2.541 -1.1424 -0.2440  1.4135
  250MOL0     H33686  10.124   8.380   2.561  0.4995  1.1851  1.2328
  250MOL0     H33687  10.277   8.324   2.748 -1.6857  1.5929 -3.0321
  250MOL0     H33688  10.110   8.331   2.819 -0.5829 -3.5178  3.5018
  250MOL0     H33689  10.094   8.104   2.833  0.6199 -0.9532  3.1136
  250MOL0     H33690  10.238   8.063   2.728 -0.9760  1.3426 -1.0350
  250MOL0     H33691  10.385   8.158   2.896 -0.8302  1.3142 -0.3710
  250MOL0     H33692  10.249   8.205   2.998  0.0694 -0.1432  0.6661
  250MOL0     H33693  10.328   8.020   3.098 -0.7158 -5.5982  1.8473
  250MOL0     H33694  10.170   7.994   3.026 -1.0216  5.1257 -3.3257
  250MOL0     H33695  10.325   7.867   2.833  2.7951  0.8539 -2.1837
  250MOL0     H33696  10.462   7.938   2.919 -0.1014  0.5303 -2.8551
  250MOL0     H33697  10.460   7.712   2.966  1.3802  0.8185  1.3223
  250MOL0     H33698  10.394   7.772   3.116  1.1248 -0.5889 -0.5017
  250MOL0     H33699  10.284   7.580   3.023 -0.8186  0.1503  1.1388
  250MOL0     H33700  10.220   7.673   2.883 -3.6790 -1.1224  0.8563
  250MOL0     H33701  10.179   7.652   3.267  0.1831  3.1520  2.4214
  250MOL0     H33702   9.990   7.767   3.444  1.3938 -2.3925  0.0838
  250MOL0     H33703   9.839   7.805   3.356  0.1670 -0.9949 -0.2470
  250MOL0     H33704   9.817   7.610   3.501 -1.3251  1.0119 -0.6263
  250MOL0     H33705   9.923   7.511   3.397 -1.4611 -0.6761 -2.0581
  250MOL0     H33706   9.707   7.466   3.306 -2.2245 -0.0987  0.6535
  250MOL0     H33707   9.752   7.604   3.204 -0.5057 -1.2274 -0.9613
  250MOL0     H33708   9.604   7.757   3.289 -2.1574  0.4507  0.3688
  250MOL0     H33709   9.641   7.711   3.446 -0.0239 -0.8143  0.4252
  250MOL0     H33710   9.452   7.730   3.577  1.2176 -1.5000 -2.3073
  250MOL0     H33711   9.250   7.761   3.731  0.7284 -0.5298 -0.3675
  250MOL0     H33712   9.304   7.931   3.715 -1.8963  0.1839  1.6554
  250MOL0     H33713   9.130   7.881   3.699  0.2790  0.2418  0.0210
  250MOL0     H33714   9.073   8.239   3.358  1.2636 -0.4918 -0.0333
  250MOL0     H33715   8.901   8.402   3.351  0.2425 -1.0785 -0.1251
  250MOL0     H33716   8.540   8.348   3.621 -0.0792 -0.8650 -0.2457
  250MOL0     H33717   8.630   8.490   3.697  1.0289 -0.8944 -0.6058
  250MOL0     H33718   8.438   8.592   3.624  2.2261 -1.0981  1.2306
  250MOL0     H33719   8.543   8.615   3.490 -5.2207  2.1976 -1.6794
  250MOL0     H33720   8.295   8.515   3.493  0.0035  1.5532 -3.4783
  250MOL0     H33721   8.373   8.362   3.500  0.6796  0.1503  0.1724
  250MOL0     H33722   8.531   8.482   3.301  0.4937  0.1960 -0.0678
  250MOL0     H33723   8.387   8.377   3.267  1.5739  0.1395 -1.1602
  250MOL0     H33724   8.379   8.689   3.275  2.7556  1.1667 -2.0379
  250MOL0     H33725   8.249   8.563   3.282 -1.3409  1.7260 -2.2733
  250MOL0     H33726   8.436   8.565   3.040 -1.0842  1.5503 -2.3755
  250MOL0     H33727   8.289   8.481   3.067  0.1642 -0.1083 -0.8836
  250MOL0     H33728   8.309   8.788   3.057  0.6715 -0.7753  0.6813
  250MOL0     H33729   8.155   8.694   3.069 -0.6929  0.4872 -1.0243
  250MOL0     H33730   8.366   8.663   2.868  0.6373  1.0875  2.0837
  250MOL0     H33731   8.235   8.772   2.833 -0.2211  1.6528  2.8605
  250MOL0     H33732   8.732   8.232   3.710 -0.0203  0.1144 -0.3794
  250MOL0     H33733   8.916   8.070   3.708  1.8078 -1.5242 -2.0005
  250MOL0     H33734   9.117   7.776   3.233  3.2329  1.9907 -1.6667
  250MOL0     H33735   9.306   7.635   3.181 -1.1267  1.1632 -0.6244
  250MOL0     H33736   9.863   8.046   2.563  2.8150  0.6317  1.5167
  250MOL0     H33737   9.706   8.016   2.358  1.5298 -0.2443 -0.5814
  250MOL0     H33738   9.686   7.961   1.840  0.5278  0.3226  0.7530
  250MOL0     H33739   9.533   8.015   1.632  1.0543  1.0133 -1.4432
  250MOL0     H33740   9.386   8.386   1.446 -0.0117 -0.3106  0.1002
  250MOL0     H33741   9.465   8.459   1.592 -1.2765 -0.8181  0.7876
  250MOL0     H33742   9.669   8.364   1.534  0.5839  1.8158 -0.4949
  250MOL0     H33743   9.608   8.465   1.409 -1.8377 -0.1334  0.2399
  250MOL0     H33744   9.540   8.259   1.259 -0.7550 -1.2116  0.0827
  250MOL0     H33745   9.590   8.162   1.398 -1.3937  1.1679  1.0132
  250MOL0     H33746   9.821   8.249   1.372 -1.0661  2.7000  1.7054
  250MOL0     H33747   9.766   8.360   1.239 -0.7212 -1.0894 -1.5909
  250MOL0     H33748   9.826   7.982   1.066 -1.9311  1.2880 -0.8001
  250MOL0     H33749   9.484   8.410   1.791  0.4846  0.4510 -3.1956
  250MOL0     H33750   9.622   8.354   1.986  1.6283 -0.1145  0.2722
  251MOL0     O33751   5.599   0.747   3.953 -0.9354  0.0478 -0.4145
  251MOL0     C33752   5.610   0.627   3.921 -0.5390 -0.8035 -0.3428
  251MOL0     O33753   5.622   0.526   4.012  0.5491  0.8315 -0.0485
  251MOL0     C33754   5.605   0.556   4.146 -0.0050  0.5661  0.3284
  251MOL0     C33755   5.701   0.521   4.242 -0.6537 -0.4825 -0.3569
  251MOL0     C33756   5.678   0.540   4.373  0.2737 -0.0343 -0.5231
  251MOL0     C33757   5.556   0.602   4.421  0.1108  0.2060  0.1837
  251MOL0     O33758   5.535   0.642   4.553  0.0621 -0.4427  0.1423
  251MOL0     C33759   5.663   0.654   4.639  0.7022  0.2634 -1.0989
  251MOL0     C33760   5.613   0.707   4.781  0.4183  1.2140 -0.6201
  251MOL0     C33761   5.602   0.859   4.777 -0.4309 -0.0085  0.1291
  251MOL0     C33762   5.557   0.912   4.904  0.4650 -0.7012  0.2712
  251MOL0     C33763   5.539   1.061   4.896  0.0630  0.4365 -0.0973
  251MOL0     C33764   5.449   1.110   5.015  0.4278 -0.0820 -0.2543
  251MOL0     C33765   5.413   1.253   4.982 -0.1123 -0.3428 -0.3159
  251MOL0     C33766   5.276   1.293   5.038  0.6602 -0.1832 -0.0835
  251MOL0     N33767   5.175   1.218   4.966  0.6804  0.5437 -0.1118
  251MOL0     C33768   5.165   1.210   4.823  0.3453  0.7609 -0.4389
  251MOL0     C33769   5.075   1.110   4.818  0.1567 -0.6402 -0.1114
  251MOL0     C33770   5.010   1.042   4.707 -0.8371 -0.0141 -0.1202
  251MOL0     C33771   5.109   0.939   4.645  0.2204  0.2681 -0.0288
  251MOL0     C33772   5.024   0.837   4.560  0.0074 -0.6801 -0.0705
  251MOL0     C33773   5.096   0.743   4.463 -0.3577  1.0663  0.4009
  251MOL0     O33774   5.127   0.812   4.338 -0.0010 -0.0720 -0.3225
  251MOL0     C33775   5.146   0.742   4.223 -0.9526 -0.0356  0.9538
  251MOL0     C33776   5.165   0.826   4.116  1.5327  0.2138  0.5402
  251MOL0     C33777   5.186   0.777   3.987 -0.1654 -0.3830  0.2397
  251MOL0     C33778   5.202   0.875   3.875  0.1335 -0.0211 -0.1605
  251MOL0     C33779   5.185   0.637   3.965  0.8741 -0.5051 -0.0676
  251MOL0     C33780   5.198   0.581   3.828 -0.5354 -0.1484  0.1984
  251MOL0     O33781   5.147   0.645   3.721  0.1409 -0.0050  0.3509
  251MOL0     C33782   5.170   0.599   3.594  0.4508 -0.6575 -0.1306
  251MOL0     C33783   5.155   0.462   3.559  1.1655  1.1672 -0.2457
  251MOL0     C33784   5.158   0.417   3.423 -0.1221 -0.2867 -0.7886
  251MOL0     C33785   5.185   0.512   3.325 -1.7799  0.3291 -0.3677
  251MOL0     O33786   5.200   0.463   3.195  0.1752 -0.1563 -1.2251
  251MOL0     C33787   5.243   0.538   3.083 -0.4912 -0.1413 -0.1929
  251MOL0     C33788   5.267   0.448   2.968 -0.2532  0.3773 -0.0730
  251MOL0     C33789   5.352   0.502   2.851 -0.6888  0.2551  0.4959
  251MOL0     C33790   5.389   0.389   2.751 -0.4422 -0.5597 -0.2086
  251MOL0     C33791   5.478   0.445   2.632 -0.4430  0.9097  0.0738
  251MOL0     C33792   5.539   0.339   2.532  0.5917 -0.4498 -0.1950
  251MOL0     C33793   5.653   0.415   2.461  0.5672  0.6845 -0.5831
  251MOL0     C33794   5.704   0.332   2.348 -0.2375 -0.4009  0.5840
  251MOL0    Cl33795   5.565   0.329   2.231 -0.2105  0.1847  0.1882
  251MOL0     C33796   5.190   0.645   3.357 -0.3331 -0.4105  0.1350
  251MOL0     C33797   5.190   0.692   3.494 -1.1906  0.3483 -0.5664
  251MOL0     O33798   5.267   0.481   3.825  0.0274 -0.0610 -0.2950
  251MOL0     C33799   5.154   0.548   4.075  0.4017 -0.4071 -0.4122
  251MOL0     C33800   5.135   0.601   4.205 -0.2178 -0.2649 -0.0578
  251MOL0     N33801   5.023   1.070   4.934  0.2341  0.8925 -0.4643
  251MOL0     N33802   5.087   1.133   5.030  0.2793 -0.1171  0.0445
  251MOL0     C33803   5.461   0.642   4.326 -0.4548  0.1879 -1.0813
  251MOL0     C33804   5.483   0.613   4.194  0.1070  0.3914  0.0601
  251MOL0     C33805   5.621   0.602   3.784  0.0930  0.8128 -0.0829
  251MOL0     C33806   5.625   0.705   3.690 -0.0377  0.5542 -1.0093
  251MOL0     C33807   5.627   0.674   3.551 -0.8626 -0.6368  0.4136
  251MOL0     C33808   5.620   0.541   3.501 -0.7330  0.0054 -0.0123
  251MOL0     O33809   5.642   0.517   3.367  0.1795 -0.1298  0.6684
  251MOL0     C33810   5.535   0.441   3.299 -0.3874  0.1837  0.2445
  251MOL0     C33811   5.594   0.407   3.158  0.5533  0.5244  0.5829
  251MOL0     C33812   5.730   0.343   3.178  0.0484 -1.0767  0.1011
  251MOL0     C33813   5.791   0.280   3.049 -0.3053  0.4853  0.3153
  251MOL0     C33814   5.915   0.195   3.075 -0.6196 -0.7021  0.5156
  251MOL0     C33815   6.012   0.118   3.081  0.4883 -0.6903  0.0410
  251MOL0     C33816   5.608   0.442   3.595 -0.2748  1.0892  0.2442
  251MOL0     C33817   5.609   0.469   3.732 -0.5231  0.9372 -0.3222
  251MOL0     H33818   5.785   0.460   4.211 -0.6455  0.3435 -2.0970
  251MOL0     H33819   5.747   0.491   4.441  0.6973  0.7055 -0.4116
  251MOL0     H33820   5.713   0.558   4.656 -0.8275 -0.1677  1.5371
  251MOL0     H33821   5.726   0.736   4.605 -0.3722  0.9911 -1.3887
  251MOL0     H33822   5.515   0.674   4.815  0.2458  2.5354  0.2468
  251MOL0     H33823   5.694   0.665   4.843 -2.7962 -2.4868  1.5711
  251MOL0     H33824   5.703   0.897   4.762 -0.2757  0.1358  1.4440
  251MOL0     H33825   5.539   0.887   4.693  1.2239  2.5383 -0.3668
  251MOL0     H33826   5.462   0.860   4.918  1.5066 -4.4219 -4.0732
  251MOL0     H33827   5.631   0.887   4.982  0.2938  0.3698  0.7940
  251MOL0     H33828   5.632   1.118   4.900  2.0218 -2.5670 -0.6690
  251MOL0     H33829   5.486   1.088   4.804 -0.0593  2.1046  0.4200
  251MOL0     H33830   5.358   1.052   5.028 -0.0421  0.8863  1.0551
  251MOL0     H33831   5.505   1.097   5.108 -3.9154 -2.6451  2.3396
  251MOL0     H33832   5.484   1.318   5.034 -0.2942  0.9772 -1.6349
  251MOL0     H33833   5.410   1.273   4.875 -0.8394 -0.7573 -0.3764
  251MOL0     H33834   5.250   1.397   5.018 -1.4335 -1.2726 -4.1290
  251MOL0     H33835   5.272   1.268   5.144  0.6781 -2.3228 -0.5398
  251MOL0     H33836   5.213   1.261   4.740 -0.4073  0.0370 -1.3343
  251MOL0     H33837   4.918   0.992   4.739 -0.4282 -0.6001  0.1513
  251MOL0     H33838   4.980   1.113   4.629 -3.0407 -2.0458 -1.2479
  251MOL0     H33839   5.174   0.890   4.718  2.6520  3.1905 -0.0364
  251MOL0     H33840   5.178   0.999   4.584 -0.4948  0.8783 -0.2571
  251MOL0     H33841   4.932   0.880   4.521 -1.2794 -0.6714  2.7160
  251MOL0     H33842   4.982   0.770   4.636  0.6048 -0.7969  0.1682
  251MOL0     H33843   5.031   0.662   4.428  1.0766  0.3185 -0.6068
  251MOL0     H33844   5.182   0.696   4.511 -1.1309 -1.5572 -0.6276
  251MOL0     H33845   5.171   0.934   4.132  2.0675  0.4952 -1.3466
  251MOL0     H33846   5.288   0.851   3.812  0.4347 -0.4257  0.3927
  251MOL0     H33847   5.107   0.874   3.821  0.1307 -1.0231 -0.1397
  251MOL0     H33848   5.220   0.976   3.915  3.3701 -1.3917  2.2676
  251MOL0     H33849   5.134   0.381   3.628 -1.5965 -0.3030 -2.6219
  251MOL0     H33850   5.156   0.310   3.408  0.2245 -0.2724 -0.9392
  251MOL0     H33851   5.169   0.617   3.068 -0.6288 -0.0742  0.7506
  251MOL0     H33852   5.334   0.592   3.110  0.1368 -0.8891 -0.7744
  251MOL0     H33853   5.318   0.353   2.988  0.4144  0.5277 -0.9853
  251MOL0     H33854   5.166   0.425   2.933 -0.1742  1.6278 -1.1930
  251MOL0     H33855   5.448   0.540   2.889 -0.5622 -0.7369  1.2079
  251MOL0     H33856   5.312   0.587   2.796  1.1874  1.0823  0.3350
  251MOL0     H33857   5.441   0.299   2.784 -1.7998 -0.7068  1.6724
  251MOL0     H33858   5.299   0.348   2.705 -0.3752  1.0241 -1.9042
  251MOL0     H33859   5.559   0.510   2.665  2.2756 -0.9712 -2.3979
  251MOL0     H33860   5.411   0.501   2.566  0.3400 -1.2260 -2.7160
  251MOL0     H33861   5.575   0.262   2.601 -0.1806 -0.3758  0.3081
  251MOL0     H33862   5.467   0.281   2.473  0.4652 -0.0917 -0.3914
  251MOL0     H33863   5.726   0.444   2.537 -1.0200  0.4955  1.0713
  251MOL0     H33864   5.619   0.509   2.417  0.4201  2.3439  2.7846
  251MOL0     H33865   5.725   0.230   2.381 -3.3108 -1.2872  0.1780
  251MOL0     H33866   5.798   0.366   2.304  1.2444 -1.0356  3.1020
  251MOL0     H33867   5.207   0.720   3.281  0.5782 -0.7209  0.0241
  251MOL0     H33868   5.203   0.799   3.508 -0.9585  0.6111 -2.5266
  251MOL0     H33869   5.140   0.442   4.057 -0.4369  0.0163 -2.5404
  251MOL0     H33870   5.091   0.541   4.284 -1.1421  1.6349  0.9314
  251MOL0     H33871   5.379   0.702   4.364 -0.8877 -1.5563  0.9619
  251MOL0     H33872   5.415   0.651   4.119 -0.4108 -0.6922 -0.0301
  251MOL0     H33873   5.617   0.808   3.722  0.5001 -0.0978  1.4282
  251MOL0     H33874   5.638   0.753   3.477  0.7000  1.5617  2.8051
  251MOL0     H33875   5.519   0.342   3.342 -0.3057 -0.3524 -0.9245
  251MOL0     H33876   5.442   0.499   3.298 -0.0639  0.7044 -0.2501
  251MOL0     H33877   5.602   0.498   3.098  3.8416  0.3432  0.5331
  251MOL0     H33878   5.533   0.335   3.103  2.7537 -0.6723 -0.4374
  251MOL0     H33879   5.722   0.275   3.263 -0.4921 -2.6545 -1.1640
  251MOL0     H33880   5.800   0.422   3.208 -0.1281  0.0128 -2.1343
  251MOL0     H33881   5.819   0.357   2.977  0.4461  0.4879  0.6001
  251MOL0     H33882   5.715   0.212   3.008 -1.3162  0.3896  2.2310
  251MOL0     H33883   6.101   0.059   3.073  0.3872 -1.0359  1.2625
  251MOL0     H33884   5.614   0.339   3.563  0.0928  1.1152  0.2302
  251MOL0     H33885   5.583   0.387   3.798 -1.8663  1.9755  0.5007
  252MOL0     O33886   4.930   5.472   9.580  0.3408  0.1520  0.8711
  252MOL0     C33887   4.820   5.487   9.522  0.7192 -0.1524 -0.1850
  252MOL0     O33888   4.789   5.462   9.397  0.5422 -0.4444  0.1050
  252MOL0     C33889   4.874   5.405   9.306 -0.3683  0.0539 -0.1899
  252MOL0     C33890   4.960   5.302   9.341  0.2166  0.4310 -0.0464
  252MOL0     C33891   5.050   5.249   9.238  0.8601 -0.3540  0.4650
  252MOL0     C33892   5.031   5.293   9.102 -0.5220 -1.0768  0.0531
  252MOL0     O33893   5.135   5.256   9.016  0.5594 -0.1989 -0.3974
  252MOL0     C33894   5.093   5.209   8.878  0.0311  0.5523 -0.8787
  252MOL0     C33895   5.211   5.137   8.830 -1.3957 -0.1492 -0.2688
  252MOL0     C33896   5.172   5.085   8.683 -0.1703  0.0520 -0.2302
  252MOL0     C33897   5.184   5.207   8.591  0.7573 -0.8806 -0.5796
  252MOL0     C33898   5.213   5.158   8.450  0.8295 -0.4156 -0.1607
  252MOL0     C33899   5.172   5.257   8.345  0.9027  0.0786 -1.3194
  252MOL0     C33900   5.199   5.213   8.200 -0.1883 -0.1054 -0.1728
  252MOL0     C33901   5.347   5.231   8.162 -1.4887 -1.0493  0.5658
  252MOL0     N33902   5.357   5.183   8.015 -0.1849 -0.0016 -1.0166
  252MOL0     C33903   5.287   5.244   7.915  0.7154 -0.4883  0.1951
  252MOL0     C33904   5.315   5.177   7.803  0.2739 -0.3872  0.4823
  252MOL0     C33905   5.270   5.189   7.660 -0.5379 -1.3464  0.5012
  252MOL0     C33906   5.337   5.298   7.583  0.2207 -0.2370  0.2450
  252MOL0     C33907   5.296   5.444   7.628  0.3630 -0.3409  0.0287
  252MOL0     C33908   5.342   5.560   7.536  0.3313  0.2035 -0.1618
  252MOL0     O33909   5.231   5.640   7.517  0.1202  0.7250 -0.2940
  252MOL0     C33910   5.237   5.754   7.446  0.4210  0.5137 -0.5613
  252MOL0     C33911   5.346   5.837   7.430 -0.7443 -0.2705  0.4793
  252MOL0     C33912   5.347   5.950   7.342  0.2013  0.5868 -0.3988
  252MOL0     C33913   5.484   6.024   7.320 -1.5206  0.5525  0.2468
  252MOL0     C33914   5.220   5.997   7.301  0.1501 -0.4153  0.1150
  252MOL0     C33915   5.206   6.129   7.224  0.1726 -0.3844 -0.7823
  252MOL0     O33916   5.071   6.187   7.223  0.3805  0.3590 -0.1801
  252MOL0     C33917   5.038   6.312   7.166 -0.2414 -0.4901 -0.1054
  252MOL0     C33918   4.918   6.318   7.084 -0.5454  0.0701  0.1002
  252MOL0     C33919   4.884   6.433   7.006  0.6292  0.3321 -0.6892
  252MOL0     C33920   4.972   6.547   7.021  1.3382 -0.5490 -0.2293
  252MOL0     O33921   4.953   6.665   6.955 -0.1838 -0.5841  0.1287
  252MOL0     C33922   4.863   6.662   6.842 -0.4881 -0.2476  0.2969
  252MOL0     C33923   4.886   6.806   6.797 -0.1283 -0.9327  0.0675
  252MOL0     C33924   4.788   6.852   6.685 -0.1066  0.0049  0.9799
  252MOL0     C33925   4.788   7.005   6.682 -0.3715  0.1959 -0.0377
  252MOL0     C33926   4.679   7.064   6.582 -0.4583 -0.3553  0.0167
  252MOL0     C33927   4.694   7.219   6.533 -0.2304  0.6627  0.3356
  252MOL0     C33928   4.629   7.300   6.652  0.4354  0.4036  1.1834
  252MOL0     C33929   4.614   7.447   6.624  0.2349  0.8443 -0.7159
  252MOL0    Cl33930   4.542   7.508   6.479  0.2712 -0.4425 -0.0052
  252MOL0     C33931   5.094   6.537   7.084 -0.4898  0.3792 -0.3674
  252MOL0     C33932   5.134   6.418   7.166  1.2993  0.2644 -0.1616
  252MOL0     O33933   5.300   6.172   7.159 -0.4094  0.4421  0.1730
  252MOL0     C33934   5.102   5.920   7.320  0.5126  0.5495  0.7300
  252MOL0     C33935   5.118   5.801   7.388 -0.6225 -0.2066  1.2169
  252MOL0     N33936   5.395   5.067   7.838 -0.0725  0.0569 -0.6268
  252MOL0     N33937   5.421   5.073   7.967 -0.2619  0.5004  1.0637
  252MOL0     C33938   4.938   5.393   9.073  0.0090 -0.7188 -0.4978
  252MOL0     C33939   4.863   5.454   9.174 -0.6777 -0.8525  0.0672
  252MOL0     C33940   4.714   5.556   9.592  0.5949 -0.3263 -0.4295
  252MOL0     C33941   4.732   5.613   9.720 -0.8889  0.2725 -0.0185
  252MOL0     C33942   4.630   5.685   9.784 -0.3877  1.0322  0.3361
  252MOL0     C33943   4.511   5.705   9.717 -0.0686 -0.3664 -0.4190
  252MOL0     O33944   4.412   5.774   9.783  1.3289  0.6653 -0.0296
  252MOL0     C33945   4.286   5.710   9.794 -0.8973 -0.3038  0.7060
  252MOL0     C33946   4.281   5.632   9.923 -0.6171  0.2771 -0.0795
  252MOL0     C33947   4.302   5.729  10.042 -0.2894  0.3480  0.5008
  252MOL0     C33948   4.283   5.665  10.179  0.6287  0.1042 -0.6612
  252MOL0     C33949   4.138   5.631  10.191 -0.7074 -0.1728 -1.1195
  252MOL0     C33950   4.023   5.614  10.191 -0.1481  0.0501  0.6987
  252MOL0     C33951   4.495   5.656   9.591  0.2578 -0.7979  0.4036
  252MOL0     C33952   4.590   5.577   9.531  0.1603 -0.2176  0.0922
  252MOL0     H33953   4.973   5.250   9.435  3.3872 -1.3096 -1.2620
  252MOL0     H33954   5.124   5.176   9.271  0.1902  0.2195  3.5579
  252MOL0     H33955   5.017   5.134   8.900  2.4790 -1.4999  1.2122
  252MOL0     H33956   5.060   5.292   8.815 -0.4011  0.2021 -1.1108
  252MOL0     H33957   5.304   5.195   8.832 -0.2356 -1.9046 -0.2038
  252MOL0     H33958   5.229   5.056   8.901 -3.8379 -0.7334 -0.2555
  252MOL0     H33959   5.239   5.004   8.656 -4.4306 -5.0312  2.5949
  252MOL0     H33960   5.071   5.044   8.682 -0.0473 -0.2926  0.5346
  252MOL0     H33961   5.110   5.287   8.600  1.3812 -0.2824 -0.6315
  252MOL0     H33962   5.282   5.248   8.619 -0.3452  4.0323 -2.7885
  252MOL0     H33963   5.316   5.123   8.439  0.6214 -1.1679  0.1839
  252MOL0     H33964   5.148   5.073   8.428  0.9870 -0.0540 -2.1864
  252MOL0     H33965   5.065   5.276   8.353  0.5872 -1.7105 -1.0536
  252MOL0     H33966   5.214   5.355   8.371 -0.7502  0.4894 -0.0560
  252MOL0     H33967   5.175   5.108   8.180  2.0255 -0.6177 -0.5016
  252MOL0     H33968   5.126   5.282   8.158 -0.1756  0.5452  0.8383
  252MOL0     H33969   5.415   5.174   8.226 -2.7845  0.5439  3.5074
  252MOL0     H33970   5.374   5.337   8.160  1.4221 -1.6755 -1.5282
  252MOL0     H33971   5.212   5.322   7.926  0.5435 -1.0171  3.6179
  252MOL0     H33972   5.296   5.104   7.597 -1.3973  0.2458 -2.1936
  252MOL0     H33973   5.161   5.196   7.652 -0.4785  0.1677  0.7391
  252MOL0     H33974   5.309   5.279   7.479 -0.9528  0.2326  0.4597
  252MOL0     H33975   5.444   5.277   7.589 -0.0209 -2.0234 -0.7717
  252MOL0     H33976   5.333   5.461   7.729 -2.8540 -0.3602  1.3400
  252MOL0     H33977   5.191   5.462   7.652  0.1794  0.3993 -1.2046
  252MOL0     H33978   5.390   5.533   7.442 -2.5844  2.4410 -2.4855
  252MOL0     H33979   5.419   5.616   7.590 -2.7625  2.2702  2.5548
  252MOL0     H33980   5.442   5.823   7.478 -0.7375  0.9716  0.8610
  252MOL0     H33981   5.569   5.989   7.379 -0.3379 -0.1606 -1.7810
  252MOL0     H33982   5.510   6.042   7.215  0.5265  0.4760  0.7073
  252MOL0     H33983   5.470   6.127   7.355  3.5719  2.5880 -2.6379
  252MOL0     H33984   4.862   6.226   7.070  0.9304 -1.0038  1.0085
  252MOL0     H33985   4.799   6.425   6.940 -0.7933  2.0730  0.8232
  252MOL0     H33986   4.893   6.598   6.758 -0.2367 -2.5565  2.0542
  252MOL0     H33987   4.762   6.647   6.881 -1.6810  0.6361 -2.1973
  252MOL0     H33988   4.886   6.878   6.879  0.4475  0.0958 -0.8124
  252MOL0     H33989   4.982   6.821   6.745 -0.4666 -1.3070 -0.6848
  252MOL0     H33990   4.688   6.812   6.703 -0.0727 -0.4672  0.1923
  252MOL0     H33991   4.821   6.797   6.596 -1.8878 -0.2019  0.4074
  252MOL0     H33992   4.759   7.035   6.783 -0.0926 -2.2978  0.8611
  252MOL0     H33993   4.887   7.046   6.663  1.4603 -3.3642  0.9174
  252MOL0     H33994   4.577   7.040   6.612 -0.2821  0.0616  0.9871
  252MOL0     H33995   4.699   7.007   6.490  0.0895  1.3338 -0.9714
  252MOL0     H33996   4.791   7.265   6.513 -0.0172 -0.4435 -1.3177
  252MOL0     H33997   4.640   7.233   6.439  2.6940  1.6347 -1.3328
  252MOL0     H33998   4.693   7.297   6.740  1.3805 -0.5058  0.4915
  252MOL0     H33999   4.531   7.254   6.667 -0.2392  0.3129 -2.4525
  252MOL0     H34000   4.714   7.491   6.625  0.3820  0.5345 -1.2174
  252MOL0     H34001   4.573   7.487   6.717 -0.3763  0.7281 -0.9265
  252MOL0     H34002   5.163   6.619   7.101  0.3391  0.0855 -2.0865
  252MOL0     H34003   5.228   6.401   7.218 -0.4045 -1.1232  2.7397
  252MOL0     H34004   5.014   5.959   7.270  1.4150  0.6357 -0.8683
  252MOL0     H34005   5.034   5.740   7.419  0.0607 -1.4717  0.6621
  252MOL0     H34006   4.927   5.430   8.972 -1.8559  0.0698 -0.0502
  252MOL0     H34007   4.795   5.537   9.157 -2.1936 -1.0760  3.9282
  252MOL0     H34008   4.821   5.586   9.774 -1.6182 -0.7755  0.7013
  252MOL0     H34009   4.637   5.728   9.883 -0.7221  0.7930  0.4641
  252MOL0     H34010   4.208   5.787   9.788  0.6619  1.7522  3.6441
  252MOL0     H34011   4.266   5.652   9.704  0.0518  0.9710 -0.3671
  252MOL0     H34012   4.359   5.556   9.923  1.0915  1.8773 -2.3708
  252MOL0     H34013   4.182   5.586   9.925 -0.0826 -1.2702 -3.1280
  252MOL0     H34014   4.226   5.806  10.024 -3.1248 -2.4524 -0.2195
  252MOL0     H34015   4.399   5.780  10.041 -1.3950  2.6391 -1.6832
  252MOL0     H34016   4.307   5.735  10.259  3.3368  1.2664 -2.3695
  252MOL0     H34017   4.342   5.572  10.182 -2.6019 -2.0931  1.3581
  252MOL0     H34018   3.918   5.591  10.197 -0.9462  3.3790  1.7756
  252MOL0     H34019   4.407   5.668   9.528 -0.1654 -2.4214  0.6590
  252MOL0     H34020   4.568   5.540   9.432  0.6647  0.5914 -0.3313
  253MOL0     O34021   0.884   2.898   5.177 -0.7712  1.3709  0.0056
  253MOL0     C34022   0.991   2.849   5.214  0.1707 -0.4596 -0.1052
  253MOL0     O34023   1.054   2.883   5.325  0.4477  0.4090 -0.0040
  253MOL0     C34024   0.996   2.977   5.408  0.2227  0.6993  0.1817
  253MOL0     C34025   0.934   2.927   5.524 -0.4383  0.0849  0.5279
  253MOL0     C34026   0.904   3.012   5.618  0.7431 -1.6263 -0.9513
  253MOL0     C34027   0.910   3.153   5.594  0.1144  0.1572 -0.8497
  253MOL0     O34028   0.847   3.234   5.688  0.2972 -0.3317 -0.0802
  253MOL0     C34029   0.911   3.358   5.737  0.6985 -0.3053  1.0369
  253MOL0     C34030   1.037   3.338   5.818 -0.1432  1.0929 -0.5897
  253MOL0     C34031   1.172   3.327   5.731  1.3890 -0.2074  0.1037
  253MOL0     C34032   1.251   3.200   5.782  0.9994  0.1502  0.2187
  253MOL0     C34033   1.371   3.163   5.694  0.1320  0.2732  0.8950
  253MOL0     C34034   1.327   3.117   5.555 -0.1999 -0.7919  0.5158
  253MOL0     C34035   1.434   3.041   5.481  0.8951 -0.1960 -0.6688
  253MOL0     C34036   1.399   3.006   5.330  0.7581  0.1253  0.4151
  253MOL0     N34037   1.481   2.900   5.266 -0.8624 -1.0450 -0.5097
  253MOL0     C34038   1.575   2.926   5.171  0.3159  0.7160 -0.1817
  253MOL0     C34039   1.617   2.796   5.150  0.5623  0.3571 -0.1465
  253MOL0     C34040   1.736   2.768   5.055  0.1655 -0.9634  0.6233
  253MOL0     C34041   1.833   2.883   5.031 -0.2318 -0.6268  0.6067
  253MOL0     C34042   1.941   2.851   4.927  0.4707 -0.0802  0.4407
  253MOL0     C34043   2.000   2.980   4.870 -0.3114  0.7749 -1.2105
  253MOL0     O34044   2.119   2.956   4.788  0.3868  0.2306  0.0149
  253MOL0     C34045   2.114   2.995   4.657  0.4468 -0.0328 -0.3540
  253MOL0     C34046   2.195   3.093   4.616  0.7660 -0.5989 -0.1361
  253MOL0     C34047   2.217   3.103   4.475 -0.7370 -0.8604 -0.4537
  253MOL0     C34048   2.307   3.210   4.419  0.2998  1.1025 -0.2947
  253MOL0     C34049   2.145   3.019   4.390 -1.0607 -0.0915  0.5072
  253MOL0     C34050   2.146   3.040   4.251 -1.0193 -0.5413  0.5876
  253MOL0     O34051   2.239   2.971   4.173  0.0322  0.2667  0.4135
  253MOL0     C34052   2.318   3.025   4.080 -0.3567 -0.0389  0.3378
  253MOL0     C34053   2.393   2.931   4.008  0.2095  1.0206  0.2885
  253MOL0     C34054   2.486   2.951   3.901  0.5779  0.3638 -0.4523
  253MOL0     C34055   2.497   3.079   3.863  0.2876 -1.7372 -0.6569
  253MOL0     O34056   2.575   3.111   3.754  0.5336  0.3967 -0.0553
  253MOL0     C34057   2.541   3.055   3.629 -0.1113 -0.6141  0.4559
  253MOL0     C34058   2.575   3.156   3.529 -0.3742 -0.0654 -0.1293
  253MOL0     C34059   2.466   3.265   3.543 -0.2618 -0.5441 -0.3482
  253MOL0     C34060   2.470   3.369   3.435  0.2078  0.0388  1.0098
  253MOL0     C34061   2.330   3.433   3.412  0.0833 -0.0510  0.2511
  253MOL0     C34062   2.280   3.518   3.523 -1.0397  0.1528 -0.7574
  253MOL0     C34063   2.130   3.534   3.501 -0.4924 -0.8066  0.0588
  253MOL0     C34064   2.067   3.647   3.579 -0.0474  0.3360  0.2261
  253MOL0    Cl34065   2.082   3.663   3.766 -0.6295  0.3538  0.2055
  253MOL0     C34066   2.429   3.189   3.926  1.1935 -1.1746 -0.3742
  253MOL0     C34067   2.339   3.160   4.038 -0.5313  0.6184  0.2119
  253MOL0     O34068   2.052   3.116   4.214 -0.0703 -0.4861  0.4068
  253MOL0     C34069   2.067   2.924   4.438  0.3495 -0.4636  1.4418
  253MOL0     C34070   2.049   2.914   4.573  0.5529  0.0099 -0.5800
  253MOL0     N34071   1.543   2.704   5.224  1.4047  0.1228 -0.0576
  253MOL0     N34072   1.459   2.768   5.289  0.5518  0.6952 -0.1710
  253MOL0     C34073   0.963   3.207   5.478 -0.5167  0.2547  0.3679
  253MOL0     C34074   1.010   3.116   5.383 -0.1795 -0.3765 -0.7673
  253MOL0     C34075   1.052   2.748   5.124  0.5407  0.4781  0.4976
  253MOL0     C34076   1.017   2.733   4.985 -0.4332  0.7299 -0.4376
  253MOL0     C34077   1.073   2.630   4.915 -1.1868  0.4889  0.4050
  253MOL0     C34078   1.177   2.555   4.969 -0.3687  0.1067 -0.0494
  253MOL0     O34079   1.228   2.450   4.888 -0.4965  0.2558 -0.3912
  253MOL0     C34080   1.378   2.452   4.879  0.5499  0.3258 -0.1543
  253MOL0     C34081   1.430   2.552   4.782  0.3804 -0.3532 -0.1695
  253MOL0     C34082   1.580   2.534   4.760  0.3113 -0.4670  0.4118
  253MOL0     C34083   1.611   2.636   4.651 -0.5899  0.0244 -0.0376
  253MOL0     C34084   1.757   2.634   4.613  0.1725 -0.3964 -1.1057
  253MOL0     C34085   1.871   2.624   4.584  0.3612 -0.1110  0.4334
  253MOL0     C34086   1.215   2.574   5.100 -0.5765  1.0356 -0.2897
  253MOL0     C34087   1.153   2.660   5.182  0.0388 -0.3369 -0.7606
  253MOL0     H34088   0.945   2.819   5.528 -1.5506 -0.2940 -3.0969
  253MOL0     H34089   0.859   2.974   5.710 -1.1940 -3.3309 -2.5009
  253MOL0     H34090   0.933   3.428   5.655 -2.5061  0.0063  0.2763
  253MOL0     H34091   0.838   3.403   5.805 -3.3601 -1.4960 -2.1409
  253MOL0     H34092   1.042   3.424   5.885  0.4965 -0.0012  0.8165
  253MOL0     H34093   1.020   3.242   5.869  2.7745 -0.9782 -3.1276
  253MOL0     H34094   1.146   3.327   5.624  0.5490 -0.1473  0.3043
  253MOL0     H34095   1.223   3.421   5.755 -2.1760  2.0781 -0.3846
  253MOL0     H34096   1.293   3.232   5.877  2.9580  1.2188 -0.9397
  253MOL0     H34097   1.174   3.122   5.780  0.9497  0.0954 -3.2419
  253MOL0     H34098   1.441   3.248   5.697 -0.1835  0.5594  0.3376
  253MOL0     H34099   1.407   3.072   5.742 -1.0760 -1.8422 -1.9696
  253MOL0     H34100   1.230   3.067   5.551 -0.8521  0.5126 -1.8299
  253MOL0     H34101   1.297   3.200   5.491 -4.4306 -0.5214  2.4717
  253MOL0     H34102   1.529   3.094   5.486  1.8543 -1.9550  0.8558
  253MOL0     H34103   1.458   2.950   5.537  1.3504  0.2680 -0.0939
  253MOL0     H34104   1.396   3.098   5.272 -1.1224  0.0468  0.3046
  253MOL0     H34105   1.292   2.981   5.335 -0.5802  3.6084 -4.1325
  253MOL0     H34106   1.599   3.019   5.120  0.0360 -1.0193 -3.8259
  253MOL0     H34107   1.786   2.681   5.100  0.1317 -0.7051  1.1675
  253MOL0     H34108   1.696   2.725   4.963  0.5454 -1.5696  0.7362
  253MOL0     H34109   1.880   2.904   5.127  2.1543 -1.3041 -0.3519
  253MOL0     H34110   1.778   2.973   5.001  1.3360  0.7732  1.7661
  253MOL0     H34111   1.890   2.803   4.843  1.5516  0.1012 -0.3495
  253MOL0     H34112   2.015   2.786   4.975 -1.2915 -0.4591  2.7872
  253MOL0     H34113   2.026   3.044   4.955  1.4488 -2.4573  0.8793
  253MOL0     H34114   1.934   3.042   4.809  0.2393 -0.1809 -2.8218
  253MOL0     H34115   2.247   3.160   4.683 -0.4430 -1.1951  1.4583
  253MOL0     H34116   2.369   3.256   4.497  0.3564  3.3168 -1.5330
  253MOL0     H34117   2.378   3.167   4.347  2.2045  0.4467  1.8802
  253MOL0     H34118   2.238   3.291   4.391 -1.3269  0.8778  2.7075
  253MOL0     H34119   2.374   2.827   4.032 -0.2265  1.4312  1.8530
  253MOL0     H34120   2.546   2.872   3.858  0.1365  0.9839 -2.3132
  253MOL0     H34121   2.604   2.967   3.610  0.1387 -0.3967  0.2789
  253MOL0     H34122   2.433   3.041   3.621 -0.7918  3.6093 -0.1554
  253MOL0     H34123   2.668   3.212   3.548 -0.7012  0.5941 -0.4107
  253MOL0     H34124   2.562   3.110   3.431 -2.6216  0.9107 -0.3590
  253MOL0     H34125   2.476   3.319   3.637 -2.4016 -1.9986  0.8071
  253MOL0     H34126   2.370   3.213   3.531 -0.6311  0.4920 -2.1342
  253MOL0     H34127   2.549   3.443   3.449  0.7143  0.0934 -1.5613
  253MOL0     H34128   2.501   3.314   3.346 -1.3564 -2.1951  1.7561
  253MOL0     H34129   2.262   3.347   3.404  0.5848 -0.5218  0.9031
  253MOL0     H34130   2.336   3.476   3.312  1.1259 -0.8517 -0.0488
  253MOL0     H34131   2.301   3.467   3.617  2.9742 -1.0984 -2.1218
  253MOL0     H34132   2.338   3.610   3.538  0.1649 -1.1461  4.9047
  253MOL0     H34133   2.083   3.438   3.524  0.0185 -0.2494  4.3415
  253MOL0     H34134   2.114   3.573   3.400 -2.6547  2.4133  1.4514
  253MOL0     H34135   1.961   3.628   3.557  0.4072 -1.4241 -0.6727
  253MOL0     H34136   2.093   3.734   3.517 -0.8948 -1.1597 -2.3866
  253MOL0     H34137   2.445   3.294   3.902 -2.7745 -0.5492 -1.0035
  253MOL0     H34138   2.286   3.240   4.090 -1.6636 -0.8648  1.4201
  253MOL0     H34139   2.009   2.860   4.372  4.2887 -1.7073 -1.2040
  253MOL0     H34140   1.978   2.842   4.613 -0.7732  0.9597 -1.1466
  253MOL0     H34141   0.978   3.313   5.456 -1.8913  0.1416 -1.3784
  253MOL0     H34142   1.058   3.154   5.293 -3.2394 -1.2033 -2.8956
  253MOL0     H34143   0.938   2.792   4.942 -2.7853 -1.6706  0.3358
  253MOL0     H34144   1.033   2.610   4.816 -2.0358 -1.0801  1.0259
  253MOL0     H34145   1.427   2.483   4.972  1.0064 -3.8195  1.1830
  253MOL0     H34146   1.422   2.353   4.861  0.1986  0.5346 -2.5276
  253MOL0     H34147   1.407   2.654   4.815  1.7919 -0.1405  0.2365
  253MOL0     H34148   1.380   2.525   4.688 -0.9625 -0.4602  0.5465
  253MOL0     H34149   1.616   2.437   4.724 -1.4021 -0.2077 -2.3094
  253MOL0     H34150   1.633   2.555   4.853 -1.6385  1.3113  1.2188
  253MOL0     H34151   1.562   2.734   4.661 -2.0644 -0.1330 -3.8865
  253MOL0     H34152   1.557   2.600   4.562  1.8231  2.6662 -2.8086
  253MOL0     H34153   1.976   2.625   4.562  0.2036 -1.1739 -0.5005
  253MOL0     H34154   1.287   2.499   5.128 -1.9054 -1.5058 -3.0644
  253MOL0     H34155   1.178   2.672   5.287 -4.3647 -1.7672  0.7086
  254MOL0     O34156   5.553   1.397   8.920 -0.5120 -0.3530  0.8656
  254MOL0     C34157   5.578   1.523   8.934  0.3119  0.9522 -0.2953
  254MOL0     O34158   5.551   1.613   8.842 -0.9882  0.4300 -0.6715
  254MOL0     C34159   5.436   1.594   8.767 -0.0720  0.2962  0.1819
  254MOL0     C34160   5.428   1.671   8.654 -0.0878 -0.6013  0.0913
  254MOL0     C34161   5.319   1.662   8.566  0.5181  0.4240  1.2256
  254MOL0     C34162   5.216   1.581   8.607 -0.0319  0.1076  0.0058
  254MOL0     O34163   5.107   1.566   8.525 -0.0390 -0.6240  0.2872
  254MOL0     C34164   5.116   1.609   8.383  0.5798 -0.0601 -0.0360
  254MOL0     C34165   4.987   1.595   8.316 -0.2390  0.1447  0.0805
  254MOL0     C34166   4.931   1.454   8.314 -0.0497 -0.1306 -0.5896
  254MOL0     C34167   5.019   1.346   8.246  0.4328 -0.8835  1.1214
  254MOL0     C34168   5.007   1.223   8.329  0.1899  0.1453  0.1111
  254MOL0     C34169   5.102   1.220   8.450  0.3768  0.4930 -0.8988
  254MOL0     C34170   5.243   1.171   8.410  0.3527  0.5905 -0.3126
  254MOL0     C34171   5.325   1.147   8.536 -0.0878 -0.4226 -0.5668
  254MOL0     N34172   5.467   1.150   8.515 -0.2939  0.8772 -0.5661
  254MOL0     C34173   5.553   1.248   8.572 -0.9463  0.2659  0.5396
  254MOL0     C34174   5.680   1.212   8.535 -0.2573 -0.5940 -0.3295
  254MOL0     C34175   5.796   1.299   8.581  0.8223  0.3449 -0.9095
  254MOL0     C34176   5.907   1.215   8.642 -0.8555 -1.0501 -0.0277
  254MOL0     C34177   5.975   1.266   8.775 -0.0743 -0.0212 -0.4552
  254MOL0     C34178   6.028   1.408   8.749  0.5907  0.1574  0.7350
  254MOL0     O34179   6.103   1.436   8.865 -0.4140 -0.7041 -0.7324
  254MOL0     C34180   6.123   1.572   8.897 -0.3072  0.1413 -1.0298
  254MOL0     C34181   6.158   1.671   8.810  0.8956 -0.1431  0.1354
  254MOL0     C34182   6.176   1.806   8.850 -0.5464  1.0361 -0.1470
  254MOL0     C34183   6.229   1.901   8.748 -0.0774 -0.7321  0.1334
  254MOL0     C34184   6.160   1.839   8.987 -0.1824 -1.0616 -0.4791
  254MOL0     C34185   6.159   1.977   9.045  0.4349  0.4912  0.6014
  254MOL0     O34186   6.224   1.996   9.158  0.2712  1.2481  0.3634
  254MOL0     C34187   6.286   2.114   9.189  0.3834  0.3530  1.0191
  254MOL0     C34188   6.340   2.196   9.091  0.3296  0.0082  0.5833
  254MOL0     C34189   6.437   2.299   9.116 -0.1121  0.7601  0.8488
  254MOL0     C34190   6.456   2.339   9.242  0.3797  1.2132 -0.8351
  254MOL0     O34191   6.499   2.457   9.297 -1.2468  0.1122  0.7646
  254MOL0     C34192   6.523   2.568   9.211 -0.8960  0.4430  0.2618
  254MOL0     C34193   6.473   2.699   9.286  0.1331  0.6460 -0.1725
  254MOL0     C34194   6.321   2.721   9.278 -0.1007  0.4724 -0.6115
  254MOL0     C34195   6.284   2.845   9.355 -0.4946 -0.6761 -0.3315
  254MOL0     C34196   6.139   2.846   9.410 -0.2516 -0.0882  0.1114
  254MOL0     C34197   6.123   2.931   9.535  0.6016 -0.4463 -0.3719
  254MOL0     C34198   5.977   2.912   9.586 -0.5617 -0.0069  0.3936
  254MOL0     C34199   5.973   2.793   9.686  0.3605 -0.2985  0.4669
  254MOL0    Cl34200   5.799   2.777   9.754  0.4231 -0.3731 -0.3069
  254MOL0     C34201   6.409   2.257   9.343  0.0526  0.2053  0.2657
  254MOL0     C34202   6.333   2.140   9.318 -0.3690 -0.6348  0.7150
  254MOL0     O34203   6.098   2.065   8.985 -0.0403  0.3059 -0.9936
  254MOL0     C34204   6.139   1.736   9.078 -1.2874 -0.0585  0.4115
  254MOL0     C34205   6.117   1.600   9.030 -0.3575  0.0190  0.3965
  254MOL0     N34206   5.673   1.104   8.458  0.3779  0.3527  0.6608
  254MOL0     N34207   5.550   1.066   8.449  0.0368  0.4017  0.2591
  254MOL0     C34208   5.214   1.513   8.717 -0.3964  0.6742 -0.7492
  254MOL0     C34209   5.322   1.524   8.810 -0.2853 -0.6080 -0.7699
  254MOL0     C34210   5.661   1.568   9.048  1.2895  0.1616 -0.3319
  254MOL0     C34211   5.717   1.696   9.049 -0.1546 -0.2563 -0.3213
  254MOL0     C34212   5.787   1.737   9.167 -0.4712  0.1418 -0.2472
  254MOL0     C34213   5.802   1.653   9.277 -0.2567 -0.3407  0.7644
  254MOL0     O34214   5.897   1.691   9.368 -0.1476  0.2330 -0.1971
  254MOL0     C34215   5.930   1.609   9.483 -1.0839  1.3237  0.2491
  254MOL0     C34216   6.031   1.674   9.569 -0.4333  0.3768 -0.1540
  254MOL0     C34217   5.982   1.803   9.632 -0.6655  0.2994 -0.6979
  254MOL0     C34218   5.855   1.805   9.723 -0.5544  0.3443  1.0676
  254MOL0     C34219   5.871   1.837   9.866  1.2230 -0.2171 -0.1684
  254MOL0     C34220   5.875   1.856   9.980  0.4688 -0.2867 -0.5549
  254MOL0     C34221   5.728   1.532   9.278 -1.4555  0.1443  0.0605
  254MOL0     C34222   5.669   1.490   9.157 -0.2566 -0.0528 -0.2603
  254MOL0     H34223   5.517   1.729   8.631 -0.6216  0.7731  1.3418
  254MOL0     H34224   5.326   1.723   8.477  2.1368 -1.1587  0.1951
  254MOL0     H34225   5.144   1.715   8.383  0.3222  0.1067  3.1425
  254MOL0     H34226   5.192   1.550   8.331  1.6930 -0.1156  1.5871
  254MOL0     H34227   4.908   1.659   8.354 -0.5711  1.6500 -2.8463
  254MOL0     H34228   4.998   1.621   8.210  1.2614 -1.3486 -0.1682
  254MOL0     H34229   4.912   1.423   8.417  0.6170  0.7220 -0.2019
  254MOL0     H34230   4.834   1.432   8.269 -0.8798  2.6512 -0.3260
  254MOL0     H34231   4.952   1.329   8.162 -1.3173  0.1025  2.2412
  254MOL0     H34232   5.120   1.374   8.213 -1.1631  2.1618 -1.8228
  254MOL0     H34233   4.902   1.200   8.347 -0.4930  0.1399 -3.1521
  254MOL0     H34234   5.024   1.132   8.270 -2.2121 -0.1315 -0.2402
  254MOL0     H34235   5.102   1.321   8.494  3.1499  0.8699 -1.5846
  254MOL0     H34236   5.053   1.148   8.516  2.8638 -1.4304 -1.0585
  254MOL0     H34237   5.233   1.081   8.349  2.2534  0.5190 -0.5604
  254MOL0     H34238   5.285   1.251   8.348  4.7046 -2.1211 -1.3480
  254MOL0     H34239   5.298   1.048   8.576 -4.3927  0.3349 -1.1414
  254MOL0     H34240   5.294   1.229   8.602  2.2596  0.0166  0.0931
  254MOL0     H34241   5.527   1.334   8.633 -3.6039  0.4924 -0.7776
  254MOL0     H34242   5.832   1.355   8.494  3.5084 -0.9882 -0.7908
  254MOL0     H34243   5.758   1.369   8.654  2.0375 -0.0753  0.1754
  254MOL0     H34244   5.973   1.171   8.566  0.2820 -0.0833  0.3599
  254MOL0     H34245   5.863   1.124   8.683  0.7183 -1.8743 -0.0958
  254MOL0     H34246   6.064   1.204   8.792  1.2929  1.5536 -1.5424
  254MOL0     H34247   5.901   1.272   8.856 -0.7702  1.6570 -1.1596
  254MOL0     H34248   5.949   1.482   8.732  1.6561  1.4305  1.0846
  254MOL0     H34249   6.083   1.408   8.655 -1.0877  3.1230 -0.3933
  254MOL0     H34250   6.178   1.657   8.705  0.7608 -0.6106  0.1677
  254MOL0     H34251   6.275   1.846   8.665  0.4948 -1.2861  0.8005
  254MOL0     H34252   6.158   1.968   8.699  1.3951  0.1359 -0.8810
  254MOL0     H34253   6.311   1.957   8.794  1.2450  0.1275 -2.9709
  254MOL0     H34254   6.313   2.172   8.989  1.1969  0.5520  0.2183
  254MOL0     H34255   6.478   2.359   9.036  3.3078 -0.7980  1.2152
  254MOL0     H34256   6.632   2.572   9.200 -0.9352  1.0716  0.0631
  254MOL0     H34257   6.472   2.560   9.115 -2.6363  0.0990  1.1721
  254MOL0     H34258   6.496   2.695   9.393 -3.3150  0.4324  0.6911
  254MOL0     H34259   6.525   2.786   9.244 -2.3044  3.4739  2.2050
  254MOL0     H34260   6.277   2.632   9.323 -0.7486  1.1187  0.0399
  254MOL0     H34261   6.293   2.733   9.173 -1.2456  0.9844 -0.2619
  254MOL0     H34262   6.344   2.866   9.444 -1.9754 -1.9221  1.0282
  254MOL0     H34263   6.301   2.931   9.290 -1.0183  1.4541  2.1865
  254MOL0     H34264   6.113   2.745   9.443  0.3880  0.4444  2.5253
  254MOL0     H34265   6.085   2.867   9.318  1.0059  2.2551 -0.1907
  254MOL0     H34266   6.201   2.915   9.610 -0.0068 -0.3324  0.2960
  254MOL0     H34267   6.138   3.034   9.501  0.5460 -0.7788 -1.4602
  254MOL0     H34268   5.906   2.890   9.507 -0.6648 -0.8531  0.7136
  254MOL0     H34269   5.934   3.000   9.634 -0.2978  1.0042 -1.1562
  254MOL0     H34270   6.049   2.801   9.765 -0.2757  1.6292  0.9446
  254MOL0     H34271   5.988   2.699   9.632  1.7014  0.7791 -1.0971
  254MOL0     H34272   6.428   2.286   9.445  0.0550  3.9268 -0.6612
  254MOL0     H34273   6.316   2.067   9.396 -2.1211 -1.3533 -0.2807
  254MOL0     H34274   6.136   1.753   9.185 -0.7248 -1.5658  0.6885
  254MOL0     H34275   6.099   1.513   9.092  1.5412 -0.5099  0.2479
  254MOL0     H34276   5.135   1.441   8.736  1.3961 -0.5151  3.1495
  254MOL0     H34277   5.332   1.462   8.898  1.5967  0.6775 -0.0314
  254MOL0     H34278   5.693   1.769   8.972  0.3869 -0.8945 -1.1281
  254MOL0     H34279   5.834   1.834   9.174 -1.5286  0.5357  3.0261
  254MOL0     H34280   5.840   1.587   9.542 -0.8203 -0.6698 -0.0562
  254MOL0     H34281   5.963   1.509   9.455 -0.5200  0.6658  2.9550
  254MOL0     H34282   6.126   1.696   9.519 -0.6315 -0.4887 -0.9416
  254MOL0     H34283   6.058   1.603   9.648  0.9514  1.2058  0.1451
  254MOL0     H34284   5.973   1.881   9.556 -0.3154  0.8851 -0.1520
  254MOL0     H34285   6.066   1.835   9.694 -2.9116 -1.1563  3.4528
  254MOL0     H34286   5.801   1.710   9.712 -2.6354  1.3220  2.0973
  254MOL0     H34287   5.786   1.884   9.692 -1.1050 -0.6998 -0.5171
  254MOL0     H34288   5.888   1.881  10.084 -2.7577 -1.6993  0.3137
  254MOL0     H34289   5.731   1.463   9.361  0.7778  2.6347  2.2577
  254MOL0     H34290   5.612   1.400   9.180 -2.2750  1.2075 -0.1011
  255MOL0     O34291   6.283   1.277   0.444 -0.2007 -0.3585 -0.0684
  255MOL0     C34292   6.300   1.386   0.499  1.1577 -0.0229  0.6161
  255MOL0     O34293   6.199   1.470   0.551 -0.0855 -0.2580 -0.1966
  255MOL0     C34294   6.072   1.430   0.537  0.2747 -0.0021  0.6326
  255MOL0     C34295   5.988   1.471   0.433 -0.2836  0.6652  0.7929
  255MOL0     C34296   5.863   1.416   0.412  0.2911  0.2364 -0.0344
  255MOL0     C34297   5.818   1.334   0.522  0.4617 -0.0376  0.2617
  255MOL0     O34298   5.690   1.286   0.514 -0.2311 -0.6179  0.6087
  255MOL0     C34299   5.600   1.320   0.619 -1.6670  0.2838 -0.0648
  255MOL0     C34300   5.493   1.213   0.610  0.4300  0.1035 -0.4664
  255MOL0     C34301   5.533   1.082   0.669 -0.1839 -0.6370 -0.2362
  255MOL0     C34302   5.412   0.986   0.670 -0.2376 -0.3375 -0.0306
  255MOL0     C34303   5.445   0.852   0.754  0.6627 -0.1209  0.0114
  255MOL0     C34304   5.516   0.739   0.681  0.0579  0.1196 -0.0452
  255MOL0     C34305   5.660   0.764   0.681 -0.7018 -1.2434  0.5579
  255MOL0     C34306   5.730   0.641   0.614  0.0907 -0.3791 -0.3790
  255MOL0     N34307   5.713   0.518   0.697 -0.6166  1.5107 -0.8063
  255MOL0     C34308   5.793   0.483   0.801 -0.0001  0.1796 -0.1292
  255MOL0     C34309   5.755   0.357   0.833 -0.2336 -0.0200  0.1639
  255MOL0     C34310   5.830   0.267   0.929 -1.1368 -0.1169 -0.1703
  255MOL0     C34311   5.975   0.246   0.876  0.1968  0.1706 -0.2397
  255MOL0     C34312   5.986   0.118   0.789 -0.0631  0.1710  0.1299
  255MOL0     C34313   6.131   0.062   0.765  0.4710 -0.0438  0.5167
  255MOL0     O34314   6.208   0.073   0.885  0.1402 -0.3424  0.3355
  255MOL0     C34315   6.188  -0.027   0.982 -0.1484 -0.1434  0.7567
  255MOL0     C34316   6.259  -0.013   1.095  0.5864  0.8498  0.3496
  255MOL0     C34317   6.246  -0.091   1.210  1.1021  0.0957 -0.0072
  255MOL0     C34318   6.320  -0.074   1.338 -0.3893  1.0959  0.0933
  255MOL0     C34319   6.150  -0.197   1.201 -0.4570  0.8219 -1.4009
  255MOL0     C34320   6.116  -0.274   1.332  0.3328  0.1252  0.7901
  255MOL0     O34321   6.074  -0.199   1.442 -0.5526  0.3698 -0.1041
  255MOL0     C34322   6.099  -0.229   1.573  0.5273 -0.7544  0.7463
  255MOL0     C34323   6.019  -0.170   1.676  0.6114 -0.6868  0.0998
  255MOL0     C34324   6.032  -0.190   1.811 -0.4602 -0.2157  1.6958
  255MOL0     C34325   6.131  -0.279   1.851  0.6980 -0.7056 -0.3458
  255MOL0     O34326   6.177  -0.287   1.988  0.5323 -0.8598  0.8235
  255MOL0     C34327   6.218  -0.418   2.038 -0.7533 -0.2262  0.1436
  255MOL0     C34328   6.198  -0.425   2.185  0.2832 -0.0689  0.5388
  255MOL0     C34329   6.170  -0.555   2.263 -0.0984  0.1474  0.6726
  255MOL0     C34330   6.274  -0.672   2.233 -0.2890 -0.2147  0.2600
  255MOL0     C34331   6.256  -0.801   2.318 -0.4556 -0.2148  0.1089
  255MOL0     C34332   6.371  -0.906   2.307 -0.1764 -0.4705  0.1244
  255MOL0     C34333   6.514  -0.862   2.353  0.1657  0.9470  0.0708
  255MOL0     C34334   6.524  -0.789   2.491 -1.0850  0.5126  0.5139
  255MOL0    Cl34335   6.433  -0.885   2.620  0.5729 -0.0807  0.1638
  255MOL0     C34336   6.201  -0.348   1.755 -0.7160 -0.9095  0.8949
  255MOL0     C34337   6.188  -0.323   1.618 -0.9607 -0.6236 -0.0922
  255MOL0     O34338   6.137  -0.395   1.330 -0.4452 -0.5310 -0.3675
  255MOL0     C34339   6.078  -0.216   1.084 -0.3316 -0.3277 -0.4746
  255MOL0     C34340   6.091  -0.134   0.976  0.4115  0.5448  0.4655
  255MOL0     N34341   5.651   0.326   0.751  0.2684 -0.0408 -0.0110
  255MOL0     N34342   5.616   0.420   0.674  0.2560  0.4148  0.0486
  255MOL0     C34343   5.901   1.300   0.636  0.5094 -0.1718  0.2586
  255MOL0     C34344   6.031   1.342   0.628 -0.0569  0.5678  0.2886
  255MOL0     C34345   6.432   1.436   0.521 -0.2819  0.8199 -0.1810
  255MOL0     C34346   6.538   1.360   0.468  1.0817 -0.4007 -0.7027
  255MOL0     C34347   6.668   1.403   0.490  0.5019  0.8079 -0.3285
  255MOL0     C34348   6.699   1.517   0.567  0.2491  0.2455 -0.2628
  255MOL0     O34349   6.837   1.548   0.578 -0.5078  0.4081 -0.2348
  255MOL0     C34350   6.884   1.640   0.684 -0.8746 -0.0153  0.4965
  255MOL0     C34351   6.872   1.572   0.821  0.5064 -0.0282  0.9942
  255MOL0     C34352   6.937   1.433   0.822  0.0479 -0.5819  0.3654
  255MOL0     C34353   6.951   1.390   0.974  0.1173 -0.7369 -0.4937
  255MOL0     C34354   7.004   1.262   0.972 -0.4226 -0.0279  0.1736
  255MOL0     C34355   7.044   1.151   0.976  0.2304 -0.0969 -0.1187
  255MOL0     C34356   6.592   1.606   0.610  1.0642  0.5402  0.4618
  255MOL0     C34357   6.468   1.563   0.575 -0.3027  0.1049  0.7766
  255MOL0     H34358   6.023   1.550   0.367  0.8873  1.7962  2.6549
  255MOL0     H34359   5.792   1.453   0.338  0.9269 -0.3158 -0.9328
  255MOL0     H34360   5.655   1.326   0.713 -1.0228  0.6803 -0.4628
  255MOL0     H34361   5.560   1.421   0.606  1.1545  1.4982 -0.0197
  255MOL0     H34362   5.405   1.248   0.665  0.4848  3.3167 -2.1866
  255MOL0     H34363   5.445   1.187   0.516 -2.8478 -0.1698  1.1262
  255MOL0     H34364   5.612   1.045   0.604  1.9743  1.5394  1.0038
  255MOL0     H34365   5.591   1.095   0.761  0.3992 -0.4178 -0.6321
  255MOL0     H34366   5.327   1.034   0.720 -1.7265 -2.6951 -0.1304
  255MOL0     H34367   5.386   0.956   0.568 -0.2369  1.7654 -0.6791
  255MOL0     H34368   5.491   0.873   0.850  0.6555  2.7748 -0.5125
  255MOL0     H34369   5.347   0.806   0.772  0.0367  0.7711 -0.9881
  255MOL0     H34370   5.508   0.642   0.732 -1.0360 -0.1087 -0.6263
  255MOL0     H34371   5.474   0.738   0.580 -0.7266  1.5482  0.2448
  255MOL0     H34372   5.688   0.845   0.614 -0.2359 -0.8834  1.1792
  255MOL0     H34373   5.706   0.781   0.779 -2.4730  0.4157  1.1580
  255MOL0     H34374   5.837   0.658   0.599  0.3436 -0.4128  1.2254
  255MOL0     H34375   5.681   0.630   0.517 -1.1926 -0.2400  0.2341
  255MOL0     H34376   5.885   0.521   0.844  1.3823 -2.9480 -0.0212
  255MOL0     H34377   5.835   0.319   1.025  2.2976  0.2352 -0.4372
  255MOL0     H34378   5.790   0.165   0.939 -1.5947  0.0160 -0.6029
  255MOL0     H34379   6.045   0.226   0.958  2.2387  0.1497 -1.9111
  255MOL0     H34380   6.006   0.338   0.825 -0.3353  0.7510  0.4397
  255MOL0     H34381   5.941   0.128   0.690  0.2345  1.0260  0.0654
  255MOL0     H34382   5.934   0.041   0.846  2.9227 -1.1582  1.2920
  255MOL0     H34383   6.183   0.116   0.685  0.5275 -2.6762 -1.3616
  255MOL0     H34384   6.123  -0.044   0.740  1.0572  0.3774 -1.7005
  255MOL0     H34385   6.336   0.063   1.110  2.1989 -0.7913  0.7571
  255MOL0     H34386   6.261  -0.030   1.419 -1.0108  0.1228  0.1978
  255MOL0     H34387   6.357  -0.169   1.377 -2.2424 -1.2391 -3.3300
  255MOL0     H34388   6.407  -0.012   1.317  0.9080 -0.7930 -0.4124
  255MOL0     H34389   5.941  -0.108   1.633  0.3811 -1.0462 -0.0108
  255MOL0     H34390   5.965  -0.140   1.880 -0.8942  2.3908 -0.4327
  255MOL0     H34391   6.153  -0.492   1.990  0.0272  0.5961 -2.3206
  255MOL0     H34392   6.321  -0.441   2.013 -0.4901 -0.3240  1.2608
  255MOL0     H34393   6.285  -0.385   2.238  0.0601 -1.0728  1.7067
  255MOL0     H34394   6.123  -0.352   2.217 -1.1959 -1.0654 -0.5108
  255MOL0     H34395   6.069  -0.586   2.233  0.2849 -1.1098  0.6024
  255MOL0     H34396   6.165  -0.542   2.372 -1.3222 -1.7162  0.8816
  255MOL0     H34397   6.271  -0.694   2.126  0.8604 -0.0547  0.1859
  255MOL0     H34398   6.377  -0.636   2.242  0.2668 -1.2268 -1.4832
  255MOL0     H34399   6.154  -0.839   2.305 -1.4274  1.8572  1.1937
  255MOL0     H34400   6.255  -0.776   2.424  1.1855 -1.5136  0.4835
  255MOL0     H34401   6.342  -0.997   2.360 -1.1312 -0.5702 -0.5386
  255MOL0     H34402   6.372  -0.929   2.200  2.1831 -1.1616  0.2417
  255MOL0     H34403   6.567  -0.811   2.273 -0.2572 -0.3886 -1.1028
  255MOL0     H34404   6.575  -0.952   2.361  1.5099  1.8389  0.2275
  255MOL0     H34405   6.477  -0.692   2.473  2.6963  2.6307  1.1026
  255MOL0     H34406   6.630  -0.779   2.514 -0.7672 -1.9210  0.3827
  255MOL0     H34407   6.267  -0.426   1.790  2.3029  1.5964  1.2165
  255MOL0     H34408   6.243  -0.377   1.541 -2.2140  0.1884 -1.6096
  255MOL0     H34409   6.030  -0.313   1.086 -2.1319  0.4462 -2.3383
  255MOL0     H34410   6.032  -0.157   0.888 -0.3157 -0.0215  1.0802
  255MOL0     H34411   5.873   1.239   0.722  0.7248  1.1034  1.2651
  255MOL0     H34412   6.102   1.300   0.698 -2.2522  0.2103  2.4304
  255MOL0     H34413   6.517   1.264   0.422  0.2110  0.3359 -1.9196
  255MOL0     H34414   6.756   1.359   0.445  1.5790  0.2321  2.1622
  255MOL0     H34415   6.991   1.646   0.661 -1.0568 -0.0827 -0.3922
  255MOL0     H34416   6.836   1.738   0.695  0.3975  0.3917  3.4328
  255MOL0     H34417   6.766   1.553   0.838  0.2954  0.1497 -0.0507
  255MOL0     H34418   6.919   1.638   0.894 -1.5708 -0.0497  2.4460
  255MOL0     H34419   7.027   1.442   0.760 -0.6713 -1.6470 -0.8656
  255MOL0     H34420   6.865   1.369   0.771 -1.1525  0.0419  1.2353
  255MOL0     H34421   6.851   1.385   1.019  0.5561 -3.0574  0.4029
  255MOL0     H34422   7.014   1.462   1.024 -2.1285  0.3055  0.9918
  255MOL0     H34423   7.095   1.059   0.957  2.9042  1.2129  0.2237
  255MOL0     H34424   6.605   1.707   0.646  1.9447 -0.0556  1.9358
  255MOL0     H34425   6.387   1.634   0.592 -1.8352 -1.5442  0.7186
  256MOL0     O34426  10.635   0.832   8.611 -0.0336  0.1525  0.7165
  256MOL0     C34427  10.692   0.740   8.537 -0.3811 -0.3147 -0.4979
  256MOL0     O34428  10.679   0.610   8.553  0.8485  0.4307 -0.3840
  256MOL0     C34429  10.591   0.555   8.647 -0.0252 -0.7357 -0.7620
  256MOL0     C34430  10.545   0.430   8.622 -0.7958  0.2089  0.2201
  256MOL0     C34431  10.468   0.371   8.719  0.9642 -0.5614  0.2509
  256MOL0     C34432  10.427   0.432   8.833  0.3198  0.8662 -0.0634
  256MOL0     O34433  10.334   0.365   8.918  0.4863 -0.5296 -0.2203
  256MOL0     C34434  10.375   0.247   8.977 -0.2441 -0.0449 -0.1861
  256MOL0     C34435  10.253   0.149   8.978  0.5505 -0.1290  0.3646
  256MOL0     C34436  10.294   0.018   9.050  0.2445 -0.8513  0.5113
  256MOL0     C34437  10.191  -0.084   9.056  0.3028 -0.6199 -0.3413
  256MOL0     C34438  10.228  -0.217   9.129 -0.0025  0.2578  0.0225
  256MOL0     C34439  10.120  -0.330   9.123 -0.4068 -0.1073 -0.9483
  256MOL0     C34440   9.989  -0.320   9.211 -0.2912  0.8528 -1.5116
  256MOL0     C34441   9.899  -0.437   9.183  0.6853 -0.1647  0.1924
  256MOL0     N34442   9.843  -0.437   9.041 -1.0957  0.5437 -0.4305
  256MOL0     C34443   9.768  -0.336   8.984  1.0031  0.6617  0.7056
  256MOL0     C34444   9.749  -0.365   8.855  0.2289 -0.0364 -0.4331
  256MOL0     C34445   9.659  -0.287   8.762  0.1741  0.5066  0.7686
  256MOL0     C34446   9.514  -0.320   8.763 -0.0344  0.0592 -0.4769
  256MOL0     C34447   9.470  -0.469   8.771 -0.2295  0.4439 -0.5254
  256MOL0     C34448   9.315  -0.471   8.778  0.2345 -0.0499  0.5282
  256MOL0     O34449   9.272  -0.468   8.636 -0.3977  0.6901 -0.6260
  256MOL0     C34450   9.233  -0.593   8.582 -0.1152 -0.3508 -0.6753
  256MOL0     C34451   9.127  -0.588   8.501  0.2218  1.1754  0.4437
  256MOL0     C34452   9.057  -0.706   8.451  0.3838 -1.5705 -0.3406
  256MOL0     C34453   8.936  -0.679   8.362  0.4914 -0.3449  0.3416
  256MOL0     C34454   9.104  -0.828   8.474 -1.0374  0.2082 -0.1967
  256MOL0     C34455   9.042  -0.955   8.433  0.4166 -0.2004 -0.6533
  256MOL0     O34456   8.908  -0.951   8.407  0.1072 -0.2709 -0.2475
  256MOL0     C34457   8.836  -1.059   8.445  0.2428 -0.0747 -1.0082
  256MOL0     C34458   8.734  -1.098   8.362 -0.0909 -0.0684  0.9063
  256MOL0     C34459   8.663  -1.222   8.397 -0.2466  0.6699 -0.1643
  256MOL0     C34460   8.695  -1.295   8.516 -0.1534  0.0975 -0.4211
  256MOL0     O34461   8.636  -1.415   8.558 -0.0632  0.6633  0.0006
  256MOL0     C34462   8.719  -1.525   8.581  0.1519  0.2860 -0.0549
  256MOL0     C34463   8.822  -1.564   8.466  1.4188  0.2932  0.2901
  256MOL0     C34464   8.975  -1.570   8.510 -0.1419 -0.2478  0.1275
  256MOL0     C34465   9.084  -1.629   8.410 -0.1387  0.1877  0.8072
  256MOL0     C34466   9.222  -1.644   8.474 -0.1714  0.4177 -0.5101
  256MOL0     C34467   9.334  -1.689   8.387 -0.2825 -0.3149 -0.7361
  256MOL0     C34468   9.360  -1.844   8.376 -0.5503 -1.1865 -0.3801
  256MOL0     C34469   9.431  -1.924   8.492  0.3368 -0.0183 -0.9030
  256MOL0    Cl34470   9.581  -1.866   8.559 -0.1502 -0.4409  0.3858
  256MOL0     C34471   8.791  -1.235   8.602 -0.4834 -0.5781  0.2072
  256MOL0     C34472   8.857  -1.123   8.567 -0.2464  0.2437 -0.0201
  256MOL0     O34473   9.113  -1.051   8.418 -0.0583  0.9187 -0.3481
  256MOL0     C34474   9.227  -0.836   8.552 -0.2794  0.1565  0.4018
  256MOL0     C34475   9.287  -0.715   8.612 -0.7774 -0.5156 -0.1443
  256MOL0     N34476   9.814  -0.487   8.833  0.5117  0.1110 -0.4613
  256MOL0     N34477   9.871  -0.524   8.942 -0.8997  0.0746  0.1504
  256MOL0     C34478  10.463   0.558   8.860  0.4359  0.3573  0.8264
  256MOL0     C34479  10.549   0.621   8.771 -1.0999  0.3649  1.0028
  256MOL0     C34480  10.772   0.798   8.432  0.2207  0.4276 -0.5702
  256MOL0     C34481  10.872   0.719   8.367  0.0750 -0.3504  0.5234
  256MOL0     C34482  10.932   0.769   8.255 -1.2346 -0.1509  0.2180
  256MOL0     C34483  10.907   0.890   8.202 -0.2957 -0.3007  0.2274
  256MOL0     O34484  10.982   0.930   8.097 -0.3685 -0.4322 -0.0037
  256MOL0     C34485  10.908   0.924   7.975 -0.1864  0.1859  0.9925
  256MOL0     C34486  10.868   0.796   7.914 -0.7490 -0.2540  0.3643
  256MOL0     C34487  10.722   0.787   7.879  0.8284  0.0009 -0.5070
  256MOL0     C34488  10.677   0.638   7.868 -0.7749 -0.9037 -0.3073
  256MOL0     C34489  10.721   0.572   7.747 -0.4018 -0.4641  0.2086
  256MOL0     C34490  10.750   0.500   7.651  0.0638  0.1846  0.1577
  256MOL0     C34491  10.809   0.967   8.269  0.8971  0.0095  0.4000
  256MOL0     C34492  10.744   0.926   8.382 -0.6979 -0.2227  1.0439
  256MOL0     H34493  10.571   0.378   8.530  0.2913  1.8627 -0.4359
  256MOL0     H34494  10.418   0.278   8.694  1.1315  0.0487 -2.6834
  256MOL0     H34495  10.470   0.207   8.943  1.3213 -0.8564  4.3828
  256MOL0     H34496  10.399   0.263   9.083  2.2821 -2.5552 -0.2830
  256MOL0     H34497  10.175   0.208   9.027 -1.9975 -1.4686 -1.7757
  256MOL0     H34498  10.216   0.128   8.877  0.5156  0.7473  0.1866
  256MOL0     H34499  10.380  -0.032   9.005  1.5851  2.4940 -0.9844
  256MOL0     H34500  10.317   0.043   9.153 -0.2891  0.4648  0.3253
  256MOL0     H34501  10.111  -0.030   9.107  0.5368  2.2477 -2.6838
  256MOL0     H34502  10.165  -0.118   8.955 -3.0275  1.5150 -0.3711
  256MOL0     H34503  10.315  -0.264   9.083 -0.6688  0.5172 -1.5716
  256MOL0     H34504  10.268  -0.192   9.227 -0.2277  2.3812 -0.3885
  256MOL0     H34505  10.091  -0.345   9.019 -1.8510 -0.2795 -0.5485
  256MOL0     H34506  10.177  -0.415   9.159  0.4275 -0.1785 -2.3872
  256MOL0     H34507  10.008  -0.312   9.318 -3.0371 -1.6649 -0.6636
  256MOL0     H34508   9.931  -0.230   9.190 -0.6172  0.5294 -2.0363
  256MOL0     H34509   9.817  -0.447   9.255 -0.0998 -2.5667 -0.9010
  256MOL0     H34510   9.963  -0.525   9.196  0.4487 -0.2887  0.5267
  256MOL0     H34511   9.737  -0.241   9.026  1.0228  1.4616 -0.9783
  256MOL0     H34512   9.654  -0.180   8.784 -1.2397  0.2513  1.8579
  256MOL0     H34513   9.697  -0.282   8.660  2.3504  2.0778  1.5761
  256MOL0     H34514   9.471  -0.275   8.673 -0.8605  2.4076  0.9955
  256MOL0     H34515   9.470  -0.273   8.852 -0.7915  2.3301 -1.9446
  256MOL0     H34516   9.503  -0.513   8.865 -1.2110 -1.1260 -0.8870
  256MOL0     H34517   9.521  -0.529   8.696  2.6361 -0.2246  1.7879
  256MOL0     H34518   9.277  -0.379   8.825 -3.1411 -1.0760  0.0433
  256MOL0     H34519   9.290  -0.567   8.824  0.7366 -1.3888 -1.8714
  256MOL0     H34520   9.084  -0.493   8.472 -0.2982  0.4890 -1.1861
  256MOL0     H34521   8.954  -0.576   8.329  1.2341  0.5014  3.0625
  256MOL0     H34522   8.934  -0.753   8.282 -0.2454  0.7151 -0.6490
  256MOL0     H34523   8.841  -0.686   8.416 -0.6809  0.4887 -1.4895
  256MOL0     H34524   8.716  -1.053   8.265 -2.2604 -0.9447  0.8403
  256MOL0     H34525   8.592  -1.269   8.330 -2.2842  0.3379  2.0975
  256MOL0     H34526   8.780  -1.504   8.670  0.8857  1.6181 -0.8304
  256MOL0     H34527   8.650  -1.606   8.604  0.7221  0.1658  1.3690
  256MOL0     H34528   8.791  -1.664   8.436  0.7124  1.0162 -1.4792
  256MOL0     H34529   8.810  -1.500   8.378  1.7707 -0.2473 -0.1548
  256MOL0     H34530   8.975  -1.632   8.600  2.7484 -0.9159 -0.2481
  256MOL0     H34531   8.998  -1.466   8.538 -2.7081  1.6830 -4.0159
  256MOL0     H34532   9.060  -1.732   8.380 -0.4284 -0.1105  2.0223
  256MOL0     H34533   9.090  -1.572   8.317  0.3643 -4.1996 -2.1725
  256MOL0     H34534   9.216  -1.729   8.543  2.4254 -0.2498 -0.9818
  256MOL0     H34535   9.253  -1.555   8.529 -0.7588  1.7242 -2.2310
  256MOL0     H34536   9.315  -1.650   8.287 -0.4241  0.9844 -0.2310
  256MOL0     H34537   9.428  -1.642   8.419 -0.5800  0.6927 -1.2787
  256MOL0     H34538   9.406  -1.870   8.281 -0.1624  0.2987 -0.6200
  256MOL0     H34539   9.261  -1.890   8.365  0.0263 -2.1726 -1.7288
  256MOL0     H34540   9.444  -2.024   8.448 -1.3175 -0.1928 -1.0620
  256MOL0     H34541   9.364  -1.940   8.577  1.4718  0.1433  0.0487
  256MOL0     H34542   8.820  -1.269   8.701 -2.3362  3.6899  2.5011
  256MOL0     H34543   8.940  -1.088   8.627 -0.3483 -0.1152  0.3306
  256MOL0     H34544   9.269  -0.934   8.572  2.4509  1.1609 -0.1095
  256MOL0     H34545   9.372  -0.714   8.680 -0.1590  3.0025 -0.7542
  256MOL0     H34546  10.419   0.602   8.949 -1.4534 -1.9080  1.1245
  256MOL0     H34547  10.587   0.718   8.802  0.0754  0.7661 -1.4731
  256MOL0     H34548  10.907   0.624   8.406  2.1824  0.9217  1.8684
  256MOL0     H34549  11.004   0.719   8.191 -0.0582 -0.7963  1.9651
  256MOL0     H34550  10.814   0.973   8.002 -0.8128 -0.9958  1.0307
  256MOL0     H34551  10.970   0.982   7.906 -0.5175  0.3617  0.8379
  256MOL0     H34552  10.909   0.713   7.974  4.3218 -0.1385 -2.4345
  256MOL0     H34553  10.929   0.772   7.827  0.5696  2.1481  0.5668
  256MOL0     H34554  10.708   0.826   7.778  2.3265  1.4812 -0.1900
  256MOL0     H34555  10.655   0.832   7.953 -0.1501  0.0347 -1.3898
  256MOL0     H34556  10.570   0.647   7.850 -0.6491  1.9541 -0.1361
  256MOL0     H34557  10.697   0.590   7.964 -2.2566 -0.7212  0.1090
  256MOL0     H34558  10.758   0.434   7.567  1.1778 -0.4312  0.7259
  256MOL0     H34559  10.782   1.056   8.212  1.1175 -1.3136 -1.9262
  256MOL0     H34560  10.674   0.996   8.426 -0.8810 -0.5597  1.2909
  257MOL0     O34561   0.684   6.651   8.746  0.2909  0.2706 -0.8481
  257MOL0     C34562   0.799   6.626   8.701  0.1005 -1.2751  0.8733
  257MOL0     O34563   0.911   6.707   8.708 -0.7190  0.4233 -0.1262
  257MOL0     C34564   0.897   6.820   8.794  0.5833  1.1395  1.0263
  257MOL0     C34565   0.809   6.926   8.768  0.1822  0.0838  0.3032
  257MOL0     C34566   0.802   7.035   8.851  0.5763 -0.3651 -0.0815
  257MOL0     C34567   0.884   7.045   8.969 -0.6323  0.5207 -0.2630
  257MOL0     O34568   0.861   7.140   9.063  0.3853  0.2263 -0.0382
  257MOL0     C34569   0.965   7.172   9.163 -0.7755 -1.0030  0.1415
  257MOL0     C34570   0.895   7.228   9.290  0.1906 -0.5091  0.5056
  257MOL0     C34571   1.002   7.273   9.394  0.7615  0.1926  0.1041
  257MOL0     C34572   1.096   7.395   9.385  0.7614 -0.8447  0.1583
  257MOL0     C34573   1.030   7.532   9.391 -1.4252  0.6310 -1.6215
  257MOL0     C34574   1.140   7.643   9.382  0.0609 -0.1219 -0.1279
  257MOL0     C34575   1.086   7.779   9.331 -0.8856  0.8137  0.0390
  257MOL0     C34576   1.201   7.874   9.310  0.2445  0.8408 -0.4800
  257MOL0     N34577   1.296   7.840   9.203  0.8526  0.5933 -1.2901
  257MOL0     C34578   1.265   7.838   9.068  0.2179 -1.0853  0.8699
  257MOL0     C34579   1.381   7.803   9.005 -0.1351  0.1117 -0.3067
  257MOL0     C34580   1.398   7.807   8.858  1.5158  1.0423 -0.7922
  257MOL0     C34581   1.447   7.952   8.821 -0.3830  0.2170 -0.0611
  257MOL0     C34582   1.514   7.972   8.677  0.2388 -0.8899 -0.4717
  257MOL0     C34583   1.421   7.932   8.573 -0.1680 -0.0835  0.1608
  257MOL0     O34584   1.429   7.788   8.559 -0.1222  0.1755 -0.4881
  257MOL0     C34585   1.383   7.723   8.442  0.2539 -0.7172 -1.3294
  257MOL0     C34586   1.411   7.753   8.307  0.3466 -0.6020 -0.8477
  257MOL0     C34587   1.349   7.689   8.199 -0.1745  0.1034 -0.1164
  257MOL0     C34588   1.387   7.747   8.062 -0.3620 -0.2345  0.2158
  257MOL0     C34589   1.256   7.583   8.223 -1.3792  0.2598  0.3040
  257MOL0     C34590   1.183   7.512   8.117  1.0587 -0.8028 -0.1800
  257MOL0     O34591   1.140   7.578   8.010 -0.1463 -0.4528  0.2982
  257MOL0     C34592   1.012   7.549   7.962 -0.8146  0.1497 -0.3360
  257MOL0     C34593   0.891   7.571   8.030 -0.0984 -0.0096 -0.3620
  257MOL0     C34594   0.773   7.533   7.975 -0.1229 -0.3585  0.2376
  257MOL0     C34595   0.767   7.468   7.843 -0.7259  0.4742  0.1696
  257MOL0     O34596   0.646   7.428   7.803  0.8798 -0.1111 -0.1715
  257MOL0     C34597   0.644   7.308   7.734  0.0485  0.3988  0.2450
  257MOL0     C34598   0.640   7.193   7.842  0.4880 -0.3987  0.3970
  257MOL0     C34599   0.583   7.060   7.787 -1.1093  0.4276 -0.8725
  257MOL0     C34600   0.695   6.975   7.731  1.1956 -0.3827  0.4428
  257MOL0     C34601   0.644   6.844   7.691 -0.8076  0.1787 -0.0930
  257MOL0     C34602   0.573   6.840   7.552  0.1574  0.0816  0.4206
  257MOL0     C34603   0.514   6.709   7.523  0.6506  1.0192  0.5288
  257MOL0     C34604   0.367   6.690   7.549  0.6876  0.2837  0.0010
  257MOL0    Cl34605   0.350   6.642   7.720  0.2953  0.3494 -0.0083
  257MOL0     C34606   0.893   7.453   7.772 -0.4178  1.0353 -0.3680
  257MOL0     C34607   1.012   7.496   7.832 -0.4920  0.2119 -0.5468
  257MOL0     O34608   1.131   7.404   8.155  0.2509  0.0357  0.3448
  257MOL0     C34609   1.237   7.548   8.355  0.5492 -0.0440 -0.2149
  257MOL0     C34610   1.300   7.614   8.464  0.8226  0.0759  0.4663
  257MOL0     N34611   1.473   7.766   9.094  0.4152 -0.1875 -0.6684
  257MOL0     N34612   1.420   7.783   9.211 -0.0798 -0.7269 -0.1801
  257MOL0     C34613   0.972   6.936   8.988 -0.8908 -0.5072 -0.5664
  257MOL0     C34614   0.973   6.824   8.902  0.2066 -0.0107 -0.1260
  257MOL0     C34615   0.811   6.504   8.626 -0.5852  0.5002 -0.1533
  257MOL0     C34616   0.929   6.437   8.627  0.0992 -0.1944 -0.6510
  257MOL0     C34617   0.940   6.323   8.544 -0.0115 -0.1120  0.0690
  257MOL0     C34618   0.834   6.278   8.461  0.7635 -0.3729 -0.4072
  257MOL0     O34619   0.849   6.160   8.399 -0.6204  0.6715 -0.2362
  257MOL0     C34620   0.779   6.050   8.469  0.0320 -0.2658  0.2447
  257MOL0     C34621   0.746   5.945   8.369 -0.6911 -0.6841  0.0246
  257MOL0     C34622   0.678   5.831   8.450  0.0713  0.5437  0.9175
  257MOL0     C34623   0.528   5.849   8.491 -1.5323 -0.8599  0.3818
  257MOL0     C34624   0.448   5.730   8.521 -0.6478  0.2091 -0.4899
  257MOL0     C34625   0.375   5.638   8.546  0.4321 -0.7665 -0.4462
  257MOL0     C34626   0.715   6.334   8.472 -0.1851 -0.0312  1.4068
  257MOL0     C34627   0.705   6.452   8.546 -0.2836  0.5269 -1.0987
  257MOL0     H34628   0.745   6.907   8.683  1.8187  2.1137 -1.5009
  257MOL0     H34629   0.733   7.118   8.837  0.5653  0.1665  2.5519
  257MOL0     H34630   1.041   7.098   9.189  0.1308  0.3786  1.7010
  257MOL0     H34631   1.021   7.256   9.118 -1.8956  2.1458  4.0206
  257MOL0     H34632   0.839   7.318   9.262 -0.4731 -1.4073 -1.2591
  257MOL0     H34633   0.827   7.146   9.317  1.7619 -1.4924  1.6660
  257MOL0     H34634   0.942   7.285   9.485  0.1524 -0.0564 -0.2605
  257MOL0     H34635   1.057   7.180   9.410  0.8507 -0.0308 -1.3812
  257MOL0     H34636   1.166   7.393   9.469  0.2245 -3.0341  0.6182
  257MOL0     H34637   1.155   7.396   9.292  2.7197  2.3363  1.2929
  257MOL0     H34638   0.960   7.537   9.308 -2.9031 -0.6427 -0.5186
  257MOL0     H34639   0.976   7.543   9.486 -0.6734 -2.2951 -0.7364
  257MOL0     H34640   1.183   7.653   9.482 -0.3316 -2.4017  0.3256
  257MOL0     H34641   1.222   7.598   9.325  1.4933  0.1410  1.6376
  257MOL0     H34642   1.030   7.757   9.239  2.7752 -1.6714 -1.8480
  257MOL0     H34643   1.024   7.821   9.410  2.5598  2.5532  2.0763
  257MOL0     H34644   1.249   7.898   9.406 -0.2381  0.4798 -0.1441
  257MOL0     H34645   1.165   7.974   9.284  1.1702  1.0851 -0.8816
  257MOL0     H34646   1.168   7.861   9.025  0.2785 -1.4335  0.5486
  257MOL0     H34647   1.470   7.729   8.829  1.7042 -1.7897  5.6052
  257MOL0     H34648   1.307   7.795   8.798  0.5924  1.0138  0.5858
  257MOL0     H34649   1.526   7.970   8.895 -0.7662 -2.1633  1.0291
  257MOL0     H34650   1.360   8.011   8.850 -0.6348  0.7377 -1.7818
  257MOL0     H34651   1.596   7.900   8.687  1.7309  1.0225  3.8526
  257MOL0     H34652   1.549   8.076   8.671  0.0822 -0.7762  0.4327
  257MOL0     H34653   1.447   7.983   8.480  0.8514 -1.1769 -0.1807
  257MOL0     H34654   1.314   7.945   8.588  0.2290  0.4208  3.2463
  257MOL0     H34655   1.459   7.850   8.302 -1.7651  0.4751 -1.4419
  257MOL0     H34656   1.493   7.774   8.064 -0.9002  2.0860  1.0183
  257MOL0     H34657   1.371   7.677   7.979  0.6877 -0.2269  0.0018
  257MOL0     H34658   1.319   7.830   8.038 -1.7637 -0.6215  2.5460
  257MOL0     H34659   0.875   7.610   8.130 -0.7801  2.5072 -1.3819
  257MOL0     H34660   0.681   7.558   8.027 -0.5012 -0.1767 -0.5048
  257MOL0     H34661   0.556   7.297   7.670  0.0666 -0.2892  0.3317
  257MOL0     H34662   0.729   7.286   7.669 -0.1416 -2.5472  0.8267
  257MOL0     H34663   0.739   7.195   7.889  0.3989  1.3070  0.5925
  257MOL0     H34664   0.573   7.235   7.917 -0.8671 -1.7310 -0.0274
  257MOL0     H34665   0.496   7.082   7.725 -0.8707  4.9938  0.0200
  257MOL0     H34666   0.545   7.005   7.873 -1.5691  1.4996 -0.3607
  257MOL0     H34667   0.750   7.024   7.650 -0.5627  1.5127  0.3356
  257MOL0     H34668   0.777   6.966   7.803  2.1784 -0.7159 -0.6814
  257MOL0     H34669   0.581   6.791   7.764 -3.0536  1.5193 -0.9431
  257MOL0     H34670   0.732   6.782   7.673 -0.5253  0.7260 -0.6132
  257MOL0     H34671   0.496   6.916   7.542 -0.9250 -0.9975  0.3202
  257MOL0     H34672   0.647   6.872   7.478 -1.7354  2.9010 -0.4132
  257MOL0     H34673   0.577   6.631   7.567  4.1471  2.4221 -1.5905
  257MOL0     H34674   0.515   6.699   7.414 -1.6277 -2.2870  0.6294
  257MOL0     H34675   0.324   6.616   7.481 -2.6224  0.5779  1.5562
  257MOL0     H34676   0.301   6.775   7.535 -1.8159 -1.7189 -1.1661
  257MOL0     H34677   0.898   7.400   7.677  1.3029 -2.7204  1.5820
  257MOL0     H34678   1.106   7.476   7.782  0.1735  0.8949  0.3968
  257MOL0     H34679   1.177   7.459   8.373 -0.1852  0.8486  2.1444
  257MOL0     H34680   1.294   7.564   8.560 -1.3674 -1.9278 -0.6279
  257MOL0     H34681   1.042   6.926   9.071  1.3090 -1.0090 -2.3765
  257MOL0     H34682   1.038   6.741   8.928  1.2668  0.3269 -1.5985
  257MOL0     H34683   1.011   6.469   8.690 -0.6997 -0.5297  0.5792
  257MOL0     H34684   1.030   6.262   8.540  0.5157  0.6918 -0.6818
  257MOL0     H34685   0.854   6.008   8.538  0.5548  0.9642  0.4431
  257MOL0     H34686   0.693   6.086   8.524  0.5754 -1.2340  1.7839
  257MOL0     H34687   0.838   5.903   8.327 -0.7548  1.8303 -2.9318
  257MOL0     H34688   0.681   5.980   8.289  0.3999  2.4179  0.3529
  257MOL0     H34689   0.738   5.815   8.540  0.9291  0.8889  0.4261
  257MOL0     H34690   0.668   5.744   8.384  4.0798 -0.3755  1.2400
  257MOL0     H34691   0.473   5.889   8.404  0.0350 -0.1890 -0.3499
  257MOL0     H34692   0.523   5.926   8.569  0.2333  1.0420 -1.2418
  257MOL0     H34693   0.316   5.550   8.562  0.9386 -1.0549 -0.1346
  257MOL0     H34694   0.628   6.296   8.420 -0.1180 -0.1474  1.3808
  257MOL0     H34695   0.612   6.509   8.550  1.2760  3.1684  1.1964
  258MOL0     O34696   9.809   7.196   3.946  0.0839  0.3709  0.3470
  258MOL0     C34697   9.881   7.110   3.901 -0.0856 -0.1272 -0.6141
  258MOL0     O34698   9.849   7.033   3.799  0.5162  0.2973 -1.0262
  258MOL0     C34699   9.731   7.048   3.724  0.2006 -0.1464 -0.5592
  258MOL0     C34700   9.598   7.045   3.772 -0.5990  0.1624  0.0222
  258MOL0     C34701   9.490   7.080   3.694 -0.5371  0.0666  0.8809
  258MOL0     C34702   9.505   7.098   3.563  0.5825 -0.3303  0.3352
  258MOL0     O34703   9.400   7.132   3.479 -0.3743  0.3193 -0.3954
  258MOL0     C34704   9.275   7.056   3.478  0.0127  0.1837  0.8599
  258MOL0     C34705   9.158   7.140   3.412  0.1963  0.2117 -0.5944
  258MOL0     C34706   9.193   7.229   3.291  0.9617  0.1994  0.2028
  258MOL0     C34707   9.067   7.278   3.216 -0.5430  0.6214 -0.0739
  258MOL0     C34708   9.106   7.357   3.085  0.5474 -0.4321  0.1226
  258MOL0     C34709   8.986   7.428   3.009  0.6317  0.4968 -0.4961
  258MOL0     C34710   9.012   7.449   2.867  0.2223  0.5424  0.5111
  258MOL0     C34711   9.138   7.520   2.829 -0.0876  0.1602 -1.0524
  258MOL0     N34712   9.156   7.519   2.678  0.4235  0.1570 -0.6903
  258MOL0     C34713   9.199   7.415   2.602 -0.1844 -0.8076  0.4615
  258MOL0     C34714   9.222   7.469   2.476  0.6144 -0.0843 -0.2690
  258MOL0     C34715   9.263   7.381   2.357 -0.6642 -0.5795  0.0007
  258MOL0     C34716   9.417   7.351   2.345 -0.9622 -0.2014 -0.3844
  258MOL0     C34717   9.451   7.290   2.204  0.9305 -0.5377 -0.0079
  258MOL0     C34718   9.476   7.391   2.094 -0.2040  0.0446  0.4585
  258MOL0     O34719   9.539   7.329   1.972  0.9847  0.1801 -0.2472
  258MOL0     C34720   9.529   7.392   1.854  0.1320  0.2431  0.7397
  258MOL0     C34721   9.510   7.330   1.732 -0.2380  0.2143 -0.5187
  258MOL0     C34722   9.514   7.391   1.616  0.0396 -0.2296 -0.3963
  258MOL0     C34723   9.502   7.308   1.496  0.4884 -0.0955  0.8123
  258MOL0     C34724   9.523   7.531   1.602 -0.3226 -0.1369 -0.4123
  258MOL0     C34725   9.495   7.608   1.471 -0.1301 -0.8322 -0.9575
  258MOL0     O34726   9.547   7.738   1.481 -0.2459 -0.8506 -0.1686
  258MOL0     C34727   9.513   7.823   1.382 -0.4841  0.4250 -0.0582
  258MOL0     C34728   9.424   7.931   1.395  0.8957 -0.3602 -0.1448
  258MOL0     C34729   9.386   8.003   1.288 -0.4114 -0.5862  0.1859
  258MOL0     C34730   9.453   7.984   1.164 -0.5453 -0.6211  0.8121
  258MOL0     O34731   9.430   8.044   1.037  0.4510  1.3254  0.2952
  258MOL0     C34732   9.302   8.088   1.015 -0.4052 -0.2070 -0.3520
  258MOL0     C34733   9.315   8.244   1.048 -0.6771  0.4798  0.2155
  258MOL0     C34734   9.197   8.320   1.001  1.0952 -0.2988  0.4738
  258MOL0     C34735   9.188   8.336   0.849  0.6283  0.0968 -0.1487
  258MOL0     C34736   9.288   8.448   0.793 -0.2370  0.4086  0.3958
  258MOL0     C34737   9.270   8.490   0.647  0.2372  0.9657  1.0980
  258MOL0     C34738   9.304   8.378   0.540  0.1864 -0.7057  0.0276
  258MOL0     C34739   9.434   8.302   0.573 -0.8960  0.1826  0.0643
  258MOL0    Cl34740   9.571   8.417   0.616  0.0115  0.4071  0.1284
  258MOL0     C34741   9.549   7.884   1.156  0.8580 -0.1272  0.4249
  258MOL0     C34742   9.572   7.803   1.261 -0.1104 -0.3711  0.6741
  258MOL0     O34743   9.412   7.570   1.388  0.0205  0.7420 -0.5907
  258MOL0     C34744   9.546   7.592   1.714 -0.0535  0.5812  0.5527
  258MOL0     C34745   9.551   7.528   1.841  0.5958 -0.3624  1.0705
  258MOL0     N34746   9.192   7.602   2.480  0.2136 -0.5674  0.1603
  258MOL0     N34747   9.156   7.636   2.601 -0.8806  0.1547 -0.1516
  258MOL0     C34748   9.638   7.101   3.508  1.5491  1.1958  0.2839
  258MOL0     C34749   9.749   7.068   3.593  0.4992 -0.1478  0.5870
  258MOL0     C34750  10.007   7.102   3.970 -0.2902 -0.2170 -0.0528
  258MOL0     C34751  10.084   6.991   3.952  0.6024  0.1224  0.5880
  258MOL0     C34752  10.214   6.989   4.001 -0.2577 -0.0411  0.0018
  258MOL0     C34753  10.269   7.074   4.089 -0.0085  0.3057 -0.7482
  258MOL0     O34754  10.390   7.059   4.160  1.0911 -0.2091  1.2840
  258MOL0     C34755  10.453   6.928   4.158  0.2716 -0.0266  0.0005
  258MOL0     C34756  10.560   6.932   4.266 -0.2900  0.6538  0.0480
  258MOL0     C34757  10.648   7.058   4.271  0.4138  1.3995  0.4385
  258MOL0     C34758  10.774   7.033   4.360  0.8385  0.0971  0.3896
  258MOL0     C34759  10.876   7.136   4.371 -0.0414  0.0036 -0.8687
  258MOL0     C34760  10.948   7.230   4.376  0.1667 -0.4087 -1.1127
  258MOL0     C34761  10.198   7.188   4.108  0.7124 -0.3197 -0.9448
  258MOL0     C34762  10.071   7.201   4.049 -0.1683 -0.0706 -1.4700
  258MOL0     H34763   9.578   7.028   3.878  0.0879 -2.0063 -0.1552
  258MOL0     H34764   9.388   7.082   3.731 -0.7462  1.6586  0.3157
  258MOL0     H34765   9.288   6.971   3.412 -1.1980  2.3814 -2.5056
  258MOL0     H34766   9.238   7.014   3.572  0.7842 -1.6673  0.3628
  258MOL0     H34767   9.083   7.064   3.390  0.0086  0.5690 -1.2032
  258MOL0     H34768   9.111   7.198   3.493 -0.5720  2.5642 -2.6045
  258MOL0     H34769   9.249   7.317   3.322 -0.3219  0.8973  0.6300
  258MOL0     H34770   9.248   7.163   3.224 -0.3432  1.2792 -2.0466
  258MOL0     H34771   9.009   7.191   3.185  0.2985  0.6239 -1.7944
  258MOL0     H34772   8.999   7.329   3.285 -1.0961  1.2288 -1.0432
  258MOL0     H34773   9.180   7.435   3.102 -0.4213  1.1471 -2.4161
  258MOL0     H34774   9.153   7.287   3.015 -1.5316 -2.3201  0.4663
  258MOL0     H34775   8.895   7.370   3.025  0.6818 -0.0527 -1.9903
  258MOL0     H34776   8.971   7.528   3.052  0.4534  0.5068 -0.5818
  258MOL0     H34777   9.021   7.350   2.821 -0.9408  0.6220  0.0916
  258MOL0     H34778   8.925   7.493   2.818  1.3413  1.1611 -0.9883
  258MOL0     H34779   9.216   7.463   2.879 -0.1483  0.9168 -0.0547
  258MOL0     H34780   9.135   7.622   2.868  1.5882 -1.1098  2.9080
  258MOL0     H34781   9.216   7.311   2.629  3.4709 -0.6039 -0.4222
  258MOL0     H34782   9.203   7.291   2.370 -0.2770 -0.9788 -0.8756
  258MOL0     H34783   9.243   7.442   2.268 -0.3420  0.9441  0.9368
  258MOL0     H34784   9.438   7.278   2.424  2.5723 -0.2129 -1.2118
  258MOL0     H34785   9.482   7.435   2.372  0.9243 -0.8370 -2.6300
  258MOL0     H34786   9.369   7.228   2.167  0.9018 -1.5868  1.6740
  258MOL0     H34787   9.538   7.225   2.218  0.8736 -0.4429  0.8681
  258MOL0     H34788   9.547   7.471   2.117  1.0020 -0.2698 -1.8375
  258MOL0     H34789   9.382   7.437   2.062 -1.1009 -2.4478 -0.8091
  258MOL0     H34790   9.510   7.222   1.725  0.2949  0.3155 -4.4081
  258MOL0     H34791   9.565   7.336   1.410 -0.3882 -0.6327 -0.0230
  258MOL0     H34792   9.530   7.204   1.509 -1.3897 -1.0738 -1.9819
  258MOL0     H34793   9.399   7.309   1.458  0.2926 -0.2072  1.3381
  258MOL0     H34794   9.377   7.953   1.490 -1.9754 -1.5735 -1.1886
  258MOL0     H34795   9.305   8.076   1.287 -1.0779 -1.2667  1.6758
  258MOL0     H34796   9.278   8.081   0.909  0.1651  0.0770 -0.5010
  258MOL0     H34797   9.219   8.031   1.059 -0.6097 -0.3157 -0.8717
  258MOL0     H34798   9.321   8.263   1.155 -2.0652  0.1736  0.3612
  258MOL0     H34799   9.406   8.283   1.001 -1.4103  1.1877 -0.6613
  258MOL0     H34800   9.181   8.420   1.042 -0.9811 -1.3624  2.4815
  258MOL0     H34801   9.112   8.268   1.045 -0.4361  1.2266 -0.5759
  258MOL0     H34802   9.197   8.245   0.788 -2.8884 -0.5227  0.0435
  258MOL0     H34803   9.086   8.372   0.830  0.0564 -1.7840 -0.8968
  258MOL0     H34804   9.389   8.423   0.827  1.5476  3.6392 -2.0013
  258MOL0     H34805   9.270   8.539   0.851 -0.1011 -0.9022  2.6207
  258MOL0     H34806   9.163   8.505   0.630 -0.0580 -1.5478  0.2839
  258MOL0     H34807   9.316   8.586   0.623  2.0969  0.1362  1.1747
  258MOL0     H34808   9.303   8.425   0.441  1.0001 -1.9730 -0.6040
  258MOL0     H34809   9.223   8.305   0.536  0.6241 -1.1697 -0.4599
  258MOL0     H34810   9.463   8.244   0.485  0.6469  2.9746 -1.3841
  258MOL0     H34811   9.407   8.239   0.658 -1.5452 -0.5631 -0.6753
  258MOL0     H34812   9.600   7.863   1.062  2.0811  0.1561  1.0035
  258MOL0     H34813   9.653   7.732   1.249  0.4300  0.4207 -0.5343
  258MOL0     H34814   9.538   7.700   1.723  2.2926  0.7568  1.0694
  258MOL0     H34815   9.581   7.588   1.927  0.9082  0.2411  0.5475
  258MOL0     H34816   9.656   7.131   3.406  2.6122  1.7887  0.6317
  258MOL0     H34817   9.847   7.082   3.550  0.4450  4.2825  1.4119
  258MOL0     H34818  10.032   6.909   3.904 -0.1391 -0.5523  2.4307
  258MOL0     H34819  10.275   6.904   3.970  1.2527  1.1659 -0.4753
  258MOL0     H34820  10.385   6.843   4.172  1.9280 -1.9394 -2.5087
  258MOL0     H34821  10.487   6.911   4.055  1.3009  0.5062  0.2395
  258MOL0     H34822  10.618   6.840   4.257  1.9411  1.8154  1.6932
  258MOL0     H34823  10.513   6.925   4.365  2.5811  1.3682  1.5657
  258MOL0     H34824  10.590   7.143   4.307  1.3808  1.6655  1.4332
  258MOL0     H34825  10.689   7.081   4.172  2.2083 -0.3022  0.7222
  258MOL0     H34826  10.823   6.941   4.328 -0.9388 -1.0876  0.9501
  258MOL0     H34827  10.735   7.031   4.462 -3.4493  0.7877 -1.0561
  258MOL0     H34828  11.012   7.313   4.400 -1.8682  1.0516 -0.4344
  258MOL0     H34829  10.252   7.262   4.166  0.1778 -1.1467  0.6441
  258MOL0     H34830  10.021   7.296   4.062  0.7010  0.4961 -2.1582
  259MOL0     O34831  11.448   5.203   8.432  0.8391  0.1931  0.2775
  259MOL0     C34832  11.348   5.164   8.486  0.0554 -1.0392  0.2018
  259MOL0     O34833  11.244   5.097   8.415  0.2744 -0.3398  0.5313
  259MOL0     C34834  11.253   5.044   8.288  0.6779  1.6175 -0.0345
  259MOL0     C34835  11.206   4.910   8.247 -1.0376 -0.0553 -0.1214
  259MOL0     C34836  11.229   4.860   8.126  0.3266  0.3761  0.3011
  259MOL0     C34837  11.294   4.936   8.030  0.0563  1.1138 -0.4459
  259MOL0     O34838  11.321   4.872   7.912  0.1101 -0.4626 -0.1274
  259MOL0     C34839  11.443   4.914   7.845 -1.0169 -0.6941 -1.0376
  259MOL0     C34840  11.478   4.846   7.715  0.3004 -0.1099  0.4925
  259MOL0     C34841  11.585   4.906   7.635  0.1159  1.1616 -1.8862
  259MOL0     C34842  11.583   4.855   7.494 -0.0768 -0.7019 -0.0290
  259MOL0     C34843  11.712   4.805   7.441  0.5921 -0.0690  0.1692
  259MOL0     C34844  11.716   4.754   7.292  0.3089 -0.7006 -0.4189
  259MOL0     C34845  11.723   4.881   7.196 -0.4745 -0.2064  0.2355
  259MOL0     C34846  11.674   4.847   7.051 -0.0261  1.0546  0.4587
  259MOL0     N34847  11.534   4.800   7.047  0.0313  0.6993  0.2496
  259MOL0     C34848  11.436   4.844   7.136 -0.6375  0.0166  1.1112
  259MOL0     C34849  11.331   4.762   7.118 -0.4166  0.4625  0.3804
  259MOL0     C34850  11.202   4.750   7.201  0.5053 -0.2352 -0.1124
  259MOL0     C34851  11.247   4.679   7.326 -0.0465 -0.0308 -0.4386
  259MOL0     C34852  11.156   4.718   7.440 -0.1968 -1.0364  0.5495
  259MOL0     C34853  11.079   4.603   7.485  0.0135 -1.2732  0.9015
  259MOL0     O34854  11.159   4.486   7.506  0.0557 -0.1677 -0.4144
  259MOL0     C34855  11.194   4.458   7.639  0.0999 -1.1436 -0.4471
  259MOL0     C34856  11.220   4.324   7.679  0.0952 -0.2823  0.0304
  259MOL0     C34857  11.253   4.290   7.810  0.8920  0.0563 -0.1437
  259MOL0     C34858  11.289   4.136   7.829  0.3090  0.0115  0.4239
  259MOL0     C34859  11.263   4.393   7.913  0.5212 -0.5280  0.1437
  259MOL0     C34860  11.271   4.367   8.065  0.9205 -0.3872  0.2307
  259MOL0     O34861  11.261   4.468   8.151 -0.5094  0.2381 -0.5415
  259MOL0     C34862  11.202   4.444   8.277 -0.6788  0.4751 -0.0308
  259MOL0     C34863  11.247   4.534   8.375  0.1549  1.1525  0.1988
  259MOL0     C34864  11.183   4.533   8.498  0.4777  0.0469  0.3577
  259MOL0     C34865  11.073   4.448   8.520  0.8778 -1.1888  0.3701
  259MOL0     O34866  11.004   4.457   8.636  0.9827 -0.3800 -0.2459
  259MOL0     C34867  10.956   4.593   8.662  1.1283  0.6109 -0.1311
  259MOL0     C34868  10.912   4.601   8.806 -0.4703  0.8231  0.4404
  259MOL0     C34869  11.004   4.664   8.911 -0.0316  0.1903  0.1675
  259MOL0     C34870  10.926   4.662   9.048  0.0083  0.2143  0.1503
  259MOL0     C34871  11.013   4.721   9.162  0.1055  0.0407  1.0695
  259MOL0     C34872  11.086   4.861   9.127  0.1240 -0.1819  0.8771
  259MOL0     C34873  11.138   4.927   9.251  0.3838  0.2967  0.5047
  259MOL0     C34874  11.027   5.008   9.332  0.6797 -0.4082 -0.7833
  259MOL0    Cl34875  11.081   5.058   9.499  0.6324 -0.0749  0.0020
  259MOL0     C34876  11.028   4.359   8.417  0.2488 -0.2909  0.3388
  259MOL0     C34877  11.096   4.357   8.296  0.4768 -0.1892  0.0647
  259MOL0     O34878  11.288   4.247   8.093  0.1677 -1.1981 -0.4811
  259MOL0     C34879  11.233   4.521   7.872  0.3660 -1.3351  0.8637
  259MOL0     C34880  11.194   4.564   7.745 -0.4327 -0.1180  0.4589
  259MOL0     N34881  11.376   4.658   7.037  0.1359  0.9323 -0.0541
  259MOL0     N34882  11.492   4.685   6.982 -0.4879 -0.1075  0.4840
  259MOL0     C34883  11.311   5.073   8.058 -0.7567 -0.7849 -0.1678
  259MOL0     C34884  11.290   5.130   8.185 -0.8401 -0.3197  0.1182
  259MOL0     C34885  11.324   5.193   8.629 -0.5199  0.2472  1.5052
  259MOL0     C34886  11.391   5.303   8.686  0.3229 -0.0663 -0.4593
  259MOL0     C34887  11.356   5.350   8.814  0.0762  0.2061  0.7042
  259MOL0     C34888  11.254   5.277   8.889  0.2528 -0.5517  0.2661
  259MOL0     O34889  11.215   5.329   9.012 -0.4752  0.8056  0.6673
  259MOL0     C34890  11.131   5.261   9.103  0.2809 -0.2307  0.0873
  259MOL0     C34891  11.063   5.361   9.193 -0.0919  0.4187  0.0821
  259MOL0     C34892  11.141   5.386   9.334  1.2920  0.7608  0.0761
  259MOL0     C34893  11.038   5.414   9.447  0.3687  0.6804 -0.6977
  259MOL0     C34894  11.119   5.444   9.569 -0.1004  0.4924 -0.5083
  259MOL0     C34895  11.188   5.472   9.669 -0.1490  0.0461 -0.0189
  259MOL0     C34896  11.202   5.159   8.830  0.4993 -0.4147 -0.9111
  259MOL0     C34897  11.231   5.123   8.698 -1.1258 -0.7218  0.4938
  259MOL0     H34898  11.171   4.847   8.328  1.4994 -2.7860 -0.9687
  259MOL0     H34899  11.221   4.754   8.107  1.5847 -0.0943  2.1449
  259MOL0     H34900  11.424   5.019   7.824 -1.9522 -0.6710 -0.1476
  259MOL0     H34901  11.527   4.905   7.913  0.1809  2.6976 -1.8903
  259MOL0     H34902  11.482   4.737   7.726 -2.1209 -0.4758 -1.3748
  259MOL0     H34903  11.384   4.854   7.660  0.6563  2.2512  0.1194
  259MOL0     H34904  11.566   5.014   7.633 -0.4321  1.1892  0.8890
  259MOL0     H34905  11.684   4.871   7.667 -1.4436 -1.3782  0.7419
  259MOL0     H34906  11.512   4.772   7.484  1.5738 -2.0197 -1.3841
  259MOL0     H34907  11.536   4.942   7.446 -3.9109 -3.5643 -2.1310
  259MOL0     H34908  11.784   4.886   7.458 -0.5181  0.2359  4.5599
  259MOL0     H34909  11.728   4.713   7.499 -1.9801 -0.1466  0.8810
  259MOL0     H34910  11.796   4.688   7.258  0.1804 -0.5976 -0.9471
  259MOL0     H34911  11.633   4.683   7.282 -0.3127  0.0137 -0.4366
  259MOL0     H34912  11.649   4.956   7.224 -0.0946  0.1622  0.2669
  259MOL0     H34913  11.813   4.943   7.197 -0.3940 -0.2793  2.4678
  259MOL0     H34914  11.734   4.768   7.004 -1.1448 -1.0391  2.3272
  259MOL0     H34915  11.680   4.936   6.988  1.6412  0.3753 -0.3923
  259MOL0     H34916  11.451   4.930   7.201  1.4343 -0.0683  0.8014
  259MOL0     H34917  11.166   4.848   7.235  1.3376 -0.7567  2.4871
  259MOL0     H34918  11.140   4.685   7.138  0.4353  0.6863 -1.0367
  259MOL0     H34919  11.349   4.700   7.359 -0.2759 -1.7294  1.6075
  259MOL0     H34920  11.251   4.572   7.304 -2.6636 -0.9717  2.6905
  259MOL0     H34921  11.084   4.795   7.410  1.9208  0.4624 -1.0185
  259MOL0     H34922  11.217   4.766   7.517 -2.4696  0.7979  1.3621
  259MOL0     H34923  10.998   4.581   7.415 -0.0927 -0.3283  0.7110
  259MOL0     H34924  11.036   4.632   7.581  3.5453 -3.5588  3.4173
  259MOL0     H34925  11.206   4.248   7.602  0.4944  1.1620 -1.5372
  259MOL0     H34926  11.310   4.088   7.732 -2.7339 -0.3241 -0.1591
  259MOL0     H34927  11.383   4.131   7.885  0.8926 -0.4384 -0.5605
  259MOL0     H34928  11.209   4.077   7.875  1.7456 -2.1432  0.3411
  259MOL0     H34929  11.328   4.602   8.350  1.1822 -0.0638  0.1108
  259MOL0     H34930  11.216   4.608   8.569  0.2013 -0.1299  0.6778
  259MOL0     H34931  11.015   4.680   8.634 -1.4978  2.3974 -0.4790
  259MOL0     H34932  10.867   4.604   8.599  0.7538 -3.0347 -0.4786
  259MOL0     H34933  10.824   4.665   8.803  0.0705  1.6378  1.5603
  259MOL0     H34934  10.888   4.501   8.843  1.0302 -0.0924 -0.9068
  259MOL0     H34935  11.033   4.766   8.885 -2.9578  1.2724  0.7590
  259MOL0     H34936  11.086   4.592   8.922  0.7787  0.4677 -3.0860
  259MOL0     H34937  10.831   4.716   9.045 -0.6273 -0.8950 -1.8366
  259MOL0     H34938  10.913   4.563   9.092  1.1151 -0.2963 -0.6355
  259MOL0     H34939  11.092   4.653   9.195 -0.4714  0.5251  3.6852
  259MOL0     H34940  10.936   4.724   9.241 -0.0784  0.2238  0.8842
  259MOL0     H34941  11.169   4.832   9.063 -0.8749 -1.3394  0.0534
  259MOL0     H34942  11.021   4.922   9.064  1.5315 -0.9735 -1.4426
  259MOL0     H34943  11.212   5.005   9.230 -1.6488  2.4601  0.9690
  259MOL0     H34944  11.184   4.851   9.314  0.3530 -1.6280 -1.6686
  259MOL0     H34945  10.950   4.935   9.360  1.9218 -1.1370  0.9412
  259MOL0     H34946  10.983   5.079   9.263  0.4467  0.3654  0.1395
  259MOL0     H34947  10.945   4.290   8.425  0.2670 -0.2840  0.6001
  259MOL0     H34948  11.088   4.278   8.222 -0.1777  0.5574 -0.6805
  259MOL0     H34949  11.235   4.606   7.939 -0.9269  1.2907 -2.1798
  259MOL0     H34950  11.179   4.671   7.730 -0.0035 -0.1797 -0.4945
  259MOL0     H34951  11.342   5.145   7.983 -1.5784  0.4133  0.6089
  259MOL0     H34952  11.316   5.235   8.191 -0.8531  0.1352 -4.1644
  259MOL0     H34953  11.473   5.358   8.642  2.0557 -1.5413  0.8160
  259MOL0     H34954  11.399   5.442   8.852 -1.2267  0.3741  1.8450
  259MOL0     H34955  11.050   5.208   9.053  0.1894 -2.0330  1.9809
  259MOL0     H34956  11.180   5.187   9.167 -0.3468 -0.3850  0.3964
  259MOL0     H34957  10.965   5.318   9.218  0.4769 -2.0150 -1.5374
  259MOL0     H34958  11.069   5.454   9.135  1.8299  0.9516  1.0411
  259MOL0     H34959  11.216   5.464   9.316  4.6064 -2.4886 -1.6177
  259MOL0     H34960  11.201   5.296   9.347 -1.3660 -0.8396  2.4615
  259MOL0     H34961  10.985   5.319   9.451  0.1423  0.8136  2.6738
  259MOL0     H34962  10.969   5.498   9.432 -0.4803  0.1350  0.0323
  259MOL0     H34963  11.242   5.483   9.762  1.6678 -0.9490 -0.9026
  259MOL0     H34964  11.121   5.108   8.882 -1.8568  3.2757 -0.5642
  259MOL0     H34965  11.184   5.039   8.648  1.7102 -2.3930  0.4360
  260MOL0     O34966   8.947   4.921   7.467  0.4549 -0.4278  0.2968
  260MOL0     C34967   8.859   4.840   7.497  0.3335 -0.5105 -0.1182
  260MOL0     O34968   8.766   4.778   7.412 -0.0874 -0.2853  0.0582
  260MOL0     C34969   8.779   4.799   7.281 -0.6062 -0.3334  0.2547
  260MOL0     C34970   8.739   4.919   7.227 -0.2671 -0.1567  0.5734
  260MOL0     C34971   8.729   4.929   7.089 -0.3056  0.5080  1.2468
  260MOL0     C34972   8.745   4.818   7.003  0.5010  0.7672 -0.3155
  260MOL0     O34973   8.715   4.820   6.872  0.5402  0.6873  0.3025
  260MOL0     C34974   8.610   4.908   6.829 -0.6867  0.4557  0.1488
  260MOL0     C34975   8.551   4.842   6.709 -0.1875  0.0460 -1.3393
  260MOL0     C34976   8.471   4.717   6.739  1.2413 -0.5046 -0.6197
  260MOL0     C34977   8.414   4.650   6.617 -0.1466  0.7713 -0.1018
  260MOL0     C34978   8.347   4.510   6.652  0.6077 -0.8423  0.1978
  260MOL0     C34979   8.449   4.404   6.614  0.7186  0.2782 -0.3894
  260MOL0     C34980   8.377   4.273   6.586 -0.7055 -0.2363 -0.3698
  260MOL0     C34981   8.470   4.155   6.559 -0.3857  0.1615 -0.2628
  260MOL0     N34982   8.469   4.052   6.666 -0.0087 -1.0080  0.1101
  260MOL0     C34983   8.363   3.991   6.732 -0.4917 -0.2631  0.7423
  260MOL0     C34984   8.429   3.895   6.809  0.4054 -0.5773 -0.8403
  260MOL0     C34985   8.354   3.824   6.911  1.6765  1.1689 -0.6174
  260MOL0     C34986   8.356   3.891   7.047 -0.0409  0.2066 -0.0667
  260MOL0     C34987   8.236   3.988   7.059  0.4986  0.1780  0.5437
  260MOL0     C34988   8.236   4.030   7.203 -0.6314  0.1800 -0.1867
  260MOL0     O34989   8.365   4.069   7.263 -0.1533 -0.6532  0.3672
  260MOL0     C34990   8.432   3.968   7.329 -0.1542 -0.0399 -0.6720
  260MOL0     C34991   8.374   3.885   7.426 -0.1192  0.6127 -0.7030
  260MOL0     C34992   8.448   3.785   7.499  0.0338  0.6944  0.2468
  260MOL0     C34993   8.363   3.717   7.605  0.0591  0.3856 -0.4859
  260MOL0     C34994   8.586   3.780   7.475  0.6336 -0.1651  0.1572
  260MOL0     C34995   8.676   3.691   7.553  0.5606 -0.2636  0.2501
  260MOL0     O34996   8.732   3.588   7.484 -0.3430 -0.1421  0.0319
  260MOL0     C34997   8.816   3.499   7.543 -0.9629  0.9000 -0.0121
  260MOL0     C34998   8.761   3.404   7.620  0.2373  0.7204 -0.0776
  260MOL0     C34999   8.837   3.289   7.650  0.0586 -0.2974 -0.0825
  260MOL0     C35000   8.974   3.289   7.639 -0.0118  0.0017 -0.0927
  260MOL0     O35001   9.033   3.174   7.667  0.3797 -0.4773 -0.8778
  260MOL0     C35002   9.170   3.183   7.716 -0.5596 -0.0847 -0.5993
  260MOL0     C35003   9.278   3.092   7.642 -0.2669  0.9240  0.3634
  260MOL0     C35004   9.243   2.950   7.650  1.3516  0.6578 -0.5045
  260MOL0     C35005   9.370   2.868   7.640  1.0653  1.3576  0.0909
  260MOL0     C35006   9.357   2.716   7.626 -0.0490 -0.6422  0.9061
  260MOL0     C35007   9.315   2.674   7.479  0.4906 -0.1025 -1.1965
  260MOL0     C35008   9.343   2.528   7.457 -0.3130  0.3747 -0.0560
  260MOL0     C35009   9.283   2.484   7.324 -0.3482 -0.0872 -0.2549
  260MOL0    Cl35010   9.369   2.326   7.288  0.4576  0.5430 -0.0189
  260MOL0     C35011   9.037   3.395   7.571  0.9539  0.1360 -0.2504
  260MOL0     C35012   8.955   3.499   7.521  1.2606  0.2607 -0.2333
  260MOL0     O35013   8.673   3.703   7.674 -0.9499  0.2357  0.2309
  260MOL0     C35014   8.642   3.871   7.390 -0.1023 -0.7771  0.2894
  260MOL0     C35015   8.566   3.955   7.306  0.0459  0.1456 -1.0051
  260MOL0     N35016   8.561   3.910   6.793  0.6033 -0.3753 -0.3657
  260MOL0     N35017   8.586   4.005   6.704  0.0349  0.8440 -0.3767
  260MOL0     C35018   8.787   4.693   7.054 -0.2636  0.0604 -0.1601
  260MOL0     C35019   8.797   4.691   7.195  0.2355  0.6764  0.9013
  260MOL0     C35020   8.853   4.787   7.638 -0.1295 -0.4849 -0.7183
  260MOL0     C35021   8.786   4.671   7.674  0.1953 -0.3494 -0.1190
  260MOL0     C35022   8.785   4.620   7.798 -0.4060 -0.3218 -0.4110
  260MOL0     C35023   8.837   4.702   7.902 -0.0143 -0.0458 -0.4903
  260MOL0     O35024   8.818   4.655   8.033  1.5112  0.3253  0.0574
  260MOL0     C35025   8.911   4.702   8.125  0.0641 -0.5648  0.2492
  260MOL0     C35026   8.893   4.598   8.240 -0.0803  1.1704  0.6846
  260MOL0     C35027   8.982   4.472   8.219 -0.8491  0.7860 -0.1691
  260MOL0     C35028   8.991   4.377   8.331  0.9424 -0.0260  0.2954
  260MOL0     C35029   8.851   4.341   8.368  0.0978 -0.8691 -0.0576
  260MOL0     C35030   8.738   4.314   8.403 -0.3714 -0.3955 -0.2465
  260MOL0     C35031   8.895   4.823   7.872  0.4364 -0.3564  0.5687
  260MOL0     C35032   8.911   4.868   7.750 -0.6248  0.0410  0.2019
  260MOL0     H35033   8.709   5.007   7.283  3.3014  2.8644 -1.7629
  260MOL0     H35034   8.711   5.021   7.033 -0.6443 -2.1349 -3.5241
  260MOL0     H35035   8.533   4.926   6.906 -3.8862  0.2604 -2.7697
  260MOL0     H35036   8.651   5.008   6.812  1.1246 -0.3273 -0.1903
  260MOL0     H35037   8.470   4.909   6.681 -0.3223  0.4170 -0.1443
  260MOL0     H35038   8.629   4.820   6.636  0.3121  2.5874 -1.6610
  260MOL0     H35039   8.524   4.640   6.796  0.6463 -1.8702 -1.8318
  260MOL0     H35040   8.384   4.739   6.800  2.1631  1.4874  0.0562
  260MOL0     H35041   8.336   4.708   6.567 -2.0339 -0.0299  1.7184
  260MOL0     H35042   8.499   4.634   6.551  0.2447  3.3935 -0.3130
  260MOL0     H35043   8.311   4.523   6.754 -0.8656 -2.0471 -0.1370
  260MOL0     H35044   8.262   4.493   6.586  1.8903  3.3662 -2.9712
  260MOL0     H35045   8.496   4.422   6.517  0.9097 -0.1739 -0.3851
  260MOL0     H35046   8.522   4.382   6.693 -1.7578  0.4492  2.1233
  260MOL0     H35047   8.307   4.259   6.669 -2.0965  0.9491 -1.2989
  260MOL0     H35048   8.307   4.286   6.503  2.3295  3.8513 -2.7012
  260MOL0     H35049   8.572   4.185   6.535 -0.9733  1.1782 -1.6373
  260MOL0     H35050   8.432   4.106   6.468 -0.0858 -2.4866  0.9389
  260MOL0     H35051   8.255   3.996   6.721 -0.3082 -0.1892 -1.3296
  260MOL0     H35052   8.255   3.792   6.878  3.1778 -5.4304 -0.0058
  260MOL0     H35053   8.393   3.725   6.933 -0.3492  0.4294 -0.1961
  260MOL0     H35054   8.454   3.938   7.058  0.5366 -0.3188 -2.3897
  260MOL0     H35055   8.343   3.819   7.128 -3.7027  1.2006  0.4065
  260MOL0     H35056   8.147   3.947   7.011  3.2711 -0.8458 -4.4310
  260MOL0     H35057   8.258   4.071   6.992 -0.4206 -1.2660 -1.6523
  260MOL0     H35058   8.190   3.950   7.262  0.8478 -1.3462 -0.9775
  260MOL0     H35059   8.167   4.114   7.209  1.4544  1.8621  1.8323
  260MOL0     H35060   8.270   3.893   7.455 -0.9182 -2.3293 -2.3336
  260MOL0     H35061   8.296   3.791   7.651 -1.4267 -0.8020 -0.6774
  260MOL0     H35062   8.293   3.645   7.562 -1.2767  2.4089 -1.8471
  260MOL0     H35063   8.416   3.672   7.690 -0.3341  1.0127  0.1064
  260MOL0     H35064   8.658   3.392   7.653  0.2653  1.9405  0.5122
  260MOL0     H35065   8.785   3.199   7.683  0.1809 -1.6209 -3.1750
  260MOL0     H35066   9.205   3.286   7.708 -0.0833 -0.1652  0.3194
  260MOL0     H35067   9.184   3.154   7.821 -0.3054 -2.4861 -1.2305
  260MOL0     H35068   9.288   3.115   7.536  1.0085 -1.1841 -0.0447
  260MOL0     H35069   9.374   3.107   7.693  0.2760  2.4716 -1.0479
  260MOL0     H35070   9.175   2.935   7.566  0.5772  2.1062 -0.1649
  260MOL0     H35071   9.193   2.926   7.744  0.1048 -1.2029 -1.5865
  260MOL0     H35072   9.433   2.894   7.554 -0.4541  1.0617 -1.1446
  260MOL0     H35073   9.424   2.881   7.734  0.5099 -1.8302  0.9553
  260MOL0     H35074   9.283   2.662   7.686 -2.1981  0.2523 -0.8021
  260MOL0     H35075   9.463   2.689   7.633  0.2058 -0.5959 -1.7867
  260MOL0     H35076   9.207   2.692   7.476  0.2890 -0.2915  2.0603
  260MOL0     H35077   9.359   2.731   7.396 -0.1840 -2.1109 -3.0444
  260MOL0     H35078   9.293   2.471   7.535 -1.7119  4.3987  2.2651
  260MOL0     H35079   9.452   2.514   7.458 -0.3456 -0.2524 -1.7600
  260MOL0     H35080   9.312   2.563   7.255  0.3355 -0.4323 -0.3775
  260MOL0     H35081   9.174   2.475   7.330 -0.2745 -0.3919  1.1134
  260MOL0     H35082   9.141   3.386   7.541  0.2166 -1.5570 -2.5843
  260MOL0     H35083   9.005   3.575   7.461 -1.0087  2.7998  0.8976
  260MOL0     H35084   8.750   3.868   7.392  0.1435  2.2067  4.1070
  260MOL0     H35085   8.610   4.025   7.236 -0.7150  1.1249 -0.5154
  260MOL0     H35086   8.798   4.603   6.994  2.0131 -0.3446  0.7593
  260MOL0     H35087   8.823   4.593   7.234 -2.0615 -0.9274 -1.3066
  260MOL0     H35088   8.742   4.612   7.594  1.5424  1.6640 -2.4866
  260MOL0     H35089   8.744   4.522   7.822 -1.8183 -0.5107 -3.1953
  260MOL0     H35090   9.011   4.704   8.082 -0.0563 -1.7759 -0.1312
  260MOL0     H35091   8.891   4.802   8.165 -1.2777 -0.4920 -0.5288
  260MOL0     H35092   8.790   4.564   8.246  0.3464 -0.8321 -1.7588
  260MOL0     H35093   8.910   4.649   8.335 -0.6977  1.2266  0.7685
  260MOL0     H35094   9.085   4.503   8.199 -0.1152 -1.9865 -1.1047
  260MOL0     H35095   8.946   4.423   8.127  0.6138  2.0225 -1.4605
  260MOL0     H35096   9.051   4.420   8.412  1.3899 -1.1262  0.5729
  260MOL0     H35097   9.048   4.284   8.316 -1.8019 -1.1678 -6.0263
  260MOL0     H35098   8.635   4.284   8.410 -1.0040  1.7066  0.0518
  260MOL0     H35099   8.941   4.877   7.954 -0.3466 -1.2555  1.6409
  260MOL0     H35100   8.963   4.961   7.731 -2.4319  0.8167 -1.2354
  261MOL0     O35101   9.824   8.614   7.801  0.1819 -0.4931  0.8861
  261MOL0     C35102   9.898   8.587   7.894 -0.2861 -0.4419  0.4253
  261MOL0     O35103   9.990   8.674   7.953  0.8284 -0.3961 -0.4409
  261MOL0     C35104   9.969   8.807   7.930 -0.4407 -0.0715 -0.0277
  261MOL0     C35105  10.075   8.892   7.906  0.4057  0.3247 -0.5154
  261MOL0     C35106  10.071   9.025   7.888  0.1150 -0.4893 -1.7049
  261MOL0     C35107   9.950   9.088   7.924 -0.6627 -0.2555 -0.6396
  261MOL0     O35108   9.957   9.223   7.915 -0.0469  0.5897 -0.2288
  261MOL0     C35109   9.830   9.284   7.875 -0.7275  0.1601 -0.4107
  261MOL0     C35110   9.787   9.357   7.996  0.0845  0.2993 -0.6046
  261MOL0     C35111   9.869   9.483   8.003 -0.1394  0.1846 -0.4803
  261MOL0     C35112   9.838   9.530   8.151  0.8744 -0.1930 -0.5740
  261MOL0     C35113   9.936   9.627   8.214 -0.0043  0.0192  0.2515
  261MOL0     C35114   9.896   9.776   8.215 -0.0700 -0.2889 -0.8617
  261MOL0     C35115   9.774   9.812   8.304 -0.3845  0.6038  0.6161
  261MOL0     C35116   9.750   9.959   8.296 -1.2726 -0.3707 -0.2417
  261MOL0     N35117   9.802  10.042   8.409  0.0101  0.3869  0.1191
  261MOL0     C35118   9.936  10.046   8.436  0.3679 -0.1804 -0.1418
  261MOL0     C35119   9.950  10.125   8.543 -0.9993 -0.8446 -0.3752
  261MOL0     C35120  10.079  10.185   8.601  0.1182  0.5445  1.3703
  261MOL0     C35121  10.164  10.091   8.695  0.5643 -0.4198 -0.6865
  261MOL0     C35122  10.095  10.077   8.839 -0.2580 -0.0517 -0.4315
  261MOL0     C35123  10.098  10.192   8.941 -0.1424  0.7284 -0.8373
  261MOL0     O35124  10.225  10.247   8.942  0.6537 -0.4852  0.3933
  261MOL0     C35125  10.317  10.220   9.039 -0.3418 -0.1460 -0.3356
  261MOL0     C35126  10.418  10.311   9.055 -0.5471 -0.6200 -0.0644
  261MOL0     C35127  10.523  10.300   9.152 -0.3230 -0.5825 -0.2463
  261MOL0     C35128  10.607  10.425   9.154 -0.0744  0.6368  0.1231
  261MOL0     C35129  10.521  10.187   9.234  0.0453  0.3111 -0.3400
  261MOL0     C35130  10.616  10.180   9.339  0.6243  0.8285 -0.5996
  261MOL0     O35131  10.582  10.096   9.435  0.2652  0.5832 -0.3475
  261MOL0     C35132  10.681  10.036   9.517  0.0431  0.3223  0.2915
  261MOL0     C35133  10.820  10.066   9.532  0.1963 -0.4766  0.4551
  261MOL0     C35134  10.899   9.995   9.619 -0.5590  0.6427 -0.0811
  261MOL0     C35135  10.854   9.885   9.693  0.1252  0.4757  0.3060
  261MOL0     O35136  10.939   9.813   9.776  0.2310  0.5033 -0.1469
  261MOL0     C35137  10.910   9.680   9.819 -0.3704  0.0269 -0.7821
  261MOL0     C35138  10.948   9.567   9.714  0.5525 -0.3382 -0.5295
  261MOL0     C35139  10.924   9.422   9.769  0.6495  0.3688 -0.2030
  261MOL0     C35140  11.004   9.314   9.701  0.2073  0.0207 -0.3898
  261MOL0     C35141  10.931   9.288   9.564  0.2124  0.0595  0.1528
  261MOL0     C35142  11.007   9.177   9.483 -0.1673  0.0985  0.3821
  261MOL0     C35143  11.146   9.216   9.431 -0.1090 -0.5127  0.0999
  261MOL0     C35144  11.141   9.341   9.331 -0.0155  0.5881 -0.5377
  261MOL0    Cl35145  10.992   9.356   9.231 -0.2351  0.5788 -0.1024
  261MOL0     C35146  10.718   9.849   9.686  0.7689  0.0763  0.3422
  261MOL0     C35147  10.636   9.930   9.597 -0.0264  0.9205  0.0209
  261MOL0     O35148  10.721  10.240   9.331  0.4161  0.6257  0.2858
  261MOL0     C35149  10.418  10.089   9.216  0.2623 -0.4732  0.3701
  261MOL0     C35150  10.317  10.106   9.122  0.5808 -0.5115 -0.4744
  261MOL0     N35151   9.819  10.154   8.580 -0.2709 -0.7133 -0.2508
  261MOL0     N35152   9.734  10.125   8.491  0.6136 -0.8411 -1.1555
  261MOL0     C35153   9.843   9.013   7.969  1.2820  0.3364  0.7898
  261MOL0     C35154   9.849   8.873   7.967  1.1433 -0.4610  0.8016
  261MOL0     C35155   9.857   8.470   7.960 -0.7557 -0.0623 -0.5874
  261MOL0     C35156   9.746   8.396   7.917  0.4854  1.1808  0.9325
  261MOL0     C35157   9.706   8.284   7.988 -0.2160  0.2588  0.1329
  261MOL0     C35158   9.758   8.259   8.113 -0.6442 -0.0983 -1.0389
  261MOL0     O35159   9.729   8.143   8.191 -0.4727 -0.3137 -0.0146
  261MOL0     C35160   9.601   8.079   8.187 -0.3689 -0.2068  0.5516
  261MOL0     C35161   9.551   8.006   8.311  0.4008  0.3761 -0.2865
  261MOL0     C35162   9.655   7.952   8.406 -0.1387 -0.4551 -0.4733
  261MOL0     C35163   9.754   7.852   8.360  0.3446 -0.5734  0.0672
  261MOL0     C35164   9.853   7.811   8.465  0.4270  0.4040 -0.2770
  261MOL0     C35165   9.935   7.752   8.539  0.3941 -0.8877  0.1069
  261MOL0     C35166   9.850   8.343   8.171  1.0590 -0.1405 -0.0261
  261MOL0     C35167   9.898   8.454   8.092 -0.1514  0.9966  0.1970
  261MOL0     H35168  10.166   8.835   7.892  0.3982 -0.2456  1.4889
  261MOL0     H35169  10.163   9.080   7.868 -2.0660  4.5274  0.3369
  261MOL0     H35170   9.842   9.361   7.798  0.3784 -0.4010 -0.8138
  261MOL0     H35171   9.758   9.209   7.843  2.1249 -3.1516  0.2772
  261MOL0     H35172   9.682   9.385   7.979 -1.0803 -3.3000 -0.2445
  261MOL0     H35173   9.795   9.289   8.081  0.8682  0.5769 -0.4521
  261MOL0     H35174   9.978   9.480   7.995 -0.0742  0.8977  0.0307
  261MOL0     H35175   9.835   9.562   7.934 -3.8278 -1.0963 -0.3707
  261MOL0     H35176   9.737   9.573   8.157  2.0331  2.5200  1.2391
  261MOL0     H35177   9.830   9.448   8.223 -3.0993  1.1995  0.8560
  261MOL0     H35178   9.941   9.599   8.319  2.8303 -1.1042 -0.0777
  261MOL0     H35179  10.036   9.613   8.172  0.1809 -1.7940  1.2225
  261MOL0     H35180   9.979   9.841   8.243 -2.6022  2.8396 -0.0308
  261MOL0     H35181   9.890   9.808   8.111  1.5860  0.3612 -0.7743
  261MOL0     H35182   9.684   9.764   8.264 -0.5664 -0.0937  1.8141
  261MOL0     H35183   9.786   9.775   8.406 -0.9301  0.0155  0.4746
  261MOL0     H35184   9.641   9.969   8.295 -1.2083  2.0664  2.5390
  261MOL0     H35185   9.792   9.987   8.199  2.3729 -2.7251  0.4512
  261MOL0     H35186  10.014  10.015   8.367  0.4360  1.9770 -1.1170
  261MOL0     H35187  10.147  10.220   8.522 -0.6338  1.3391  1.0548
  261MOL0     H35188  10.040  10.272   8.655 -0.8269  2.8986 -2.6625
  261MOL0     H35189  10.261  10.141   8.702 -0.7802  2.2490  0.8092
  261MOL0     H35190  10.177   9.994   8.646 -1.4185 -0.5945 -0.9507
  261MOL0     H35191  10.144   9.993   8.891 -0.2709  0.5575  0.6070
  261MOL0     H35192   9.991  10.044   8.835  0.0655 -1.4816  1.3391
  261MOL0     H35193  10.078  10.162   9.044 -1.6564 -1.6730 -1.7291
  261MOL0     H35194  10.029  10.271   8.912 -0.4346  0.3561 -1.1790
  261MOL0     H35195  10.412  10.408   9.007  1.1163 -0.2992  0.3060
  261MOL0     H35196  10.596  10.467   9.255  1.1382 -0.7186  0.8570
  261MOL0     H35197  10.712  10.404   9.133 -0.4523  1.1184 -2.5300
  261MOL0     H35198  10.575  10.498   9.079 -2.4423 -2.2791 -1.9541
  261MOL0     H35199  10.864  10.156   9.489  0.2655 -0.8771 -0.3308
  261MOL0     H35200  10.996  10.021   9.659 -0.2866  0.2554 -0.4926
  261MOL0     H35201  10.981   9.667   9.902 -0.1223  0.9395 -0.8448
  261MOL0     H35202  10.807   9.674   9.854 -1.2842  0.4286 -3.2347
  261MOL0     H35203  10.893   9.590   9.622  0.8690 -1.3243 -0.9755
  261MOL0     H35204  11.053   9.584   9.687 -0.0354 -1.3054 -3.8904
  261MOL0     H35205  10.817   9.399   9.775  0.4235  1.6013  0.9658
  261MOL0     H35206  10.955   9.423   9.874 -0.5819 -0.2991  0.1813
  261MOL0     H35207  11.099   9.369   9.690 -0.6064  1.3150 -1.2128
  261MOL0     H35208  11.020   9.227   9.766  0.5952 -0.7212 -1.4378
  261MOL0     H35209  10.908   9.381   9.512  2.3089  0.5112 -0.0216
  261MOL0     H35210  10.828   9.253   9.577 -0.4949  1.8177 -0.4538
  261MOL0     H35211  11.021   9.093   9.551 -4.5285 -0.7383  0.5220
  261MOL0     H35212  10.938   9.150   9.403 -1.4112  2.3024  0.6304
  261MOL0     H35213  11.201   9.140   9.375  0.6221  2.5569 -3.7818
  261MOL0     H35214  11.199   9.241   9.524 -1.2212  2.6951 -0.0036
  261MOL0     H35215  11.222   9.304   9.266 -0.2381 -3.7281  1.2731
  261MOL0     H35216  11.187   9.429   9.377  1.9497 -1.4695  1.7201
  261MOL0     H35217  10.667   9.764   9.729 -0.5727  0.7548  0.1602
  261MOL0     H35218  10.532   9.900   9.610  1.2145 -2.9102  3.3796
  261MOL0     H35219  10.402  10.008   9.286 -4.3753 -0.4968 -0.3997
  261MOL0     H35220  10.235  10.034   9.127  1.6374 -1.7292  4.6162
  261MOL0     H35221   9.755   9.062   8.010  2.6558  3.6359  0.1198
  261MOL0     H35222   9.762   8.817   7.998  2.4599 -3.1699 -0.0717
  261MOL0     H35223   9.706   8.420   7.819 -0.8002  0.3266  1.2141
  261MOL0     H35224   9.636   8.224   7.931 -2.6102  0.9395  2.1536
  261MOL0     H35225   9.525   8.156   8.168  1.2496  0.8785 -2.0435
  261MOL0     H35226   9.597   8.003   8.108 -0.3753 -1.1099  1.3984
  261MOL0     H35227   9.477   7.931   8.284 -0.3517  0.0627  2.3519
  261MOL0     H35228   9.492   8.080   8.366 -0.0098 -1.0233  1.2279
  261MOL0     H35229   9.595   7.928   8.494  1.0033  1.3543  0.8889
  261MOL0     H35230   9.714   8.041   8.434 -1.0341 -0.3563  1.2254
  261MOL0     H35231   9.815   7.881   8.274  2.6431  1.4300  2.2059
  261MOL0     H35232   9.696   7.763   8.333 -0.8206 -1.6863  5.1880
  261MOL0     H35233  10.004   7.694   8.596  0.8398 -2.1325 -1.6070
  261MOL0     H35234   9.888   8.330   8.272  0.7030  2.2679  0.4831
  261MOL0     H35235   9.963   8.523   8.145 -1.6539  1.2755  1.7461
  262MOL0     O35236   6.777   6.019   7.059 -0.6367  0.6577 -0.3832
  262MOL0     C35237   6.690   6.061   7.137 -0.6328 -0.7587  0.1900
  262MOL0     O35238   6.595   5.985   7.207 -0.6557  0.6102  0.0159
  262MOL0     C35239   6.615   5.846   7.212 -0.4111  0.5789  1.0920
  262MOL0     C35240   6.504   5.767   7.218 -0.7458 -0.2873 -0.2473
  262MOL0     C35241   6.525   5.627   7.228 -0.0877  0.1642 -0.9325
  262MOL0     C35242   6.648   5.565   7.240 -0.2398 -0.4424 -0.0620
  262MOL0     O35243   6.661   5.430   7.283  0.1480 -0.7282  0.3805
  262MOL0     C35244   6.735   5.405   7.408  0.1685 -0.2407  0.9843
  262MOL0     C35245   6.663   5.300   7.495  0.0233  0.1999  0.2651
  262MOL0     C35246   6.531   5.335   7.554 -0.1928  0.3174  0.6729
  262MOL0     C35247   6.460   5.231   7.644  0.0540  0.0674  0.7976
  262MOL0     C35248   6.323   5.279   7.674  1.1436 -0.6847 -0.2748
  262MOL0     C35249   6.223   5.220   7.580  1.1543 -0.5249  0.0758
  262MOL0     C35250   6.078   5.251   7.639 -0.3403  0.4057  0.0821
  262MOL0     C35251   5.951   5.226   7.544 -0.2934  0.3412 -0.0020
  262MOL0     N35252   5.947   5.115   7.450  0.4226 -0.2848 -0.2712
  262MOL0     C35253   5.884   5.112   7.335 -0.1227 -1.0939  0.3820
  262MOL0     C35254   5.874   4.984   7.288  0.1032 -0.2829 -0.3659
  262MOL0     C35255   5.807   4.947   7.162 -0.3254 -0.6454  1.0178
  262MOL0     C35256   5.895   5.008   7.047 -0.5549  0.1240  0.9596
  262MOL0     C35257   5.816   5.022   6.912 -0.4314  0.6449 -0.6280
  262MOL0     C35258   5.902   5.097   6.803 -1.0055 -0.7585  0.1935
  262MOL0     O35259   5.894   5.021   6.680  0.2162  0.0812 -0.5422
  262MOL0     C35260   5.795   5.050   6.594 -0.1002  0.2276 -0.8449
  262MOL0     C35261   5.800   5.000   6.467 -0.7188  0.0980 -0.1445
  262MOL0     C35262   5.709   5.027   6.363 -0.2351 -0.0543 -0.5182
  262MOL0     C35263   5.740   4.979   6.222 -0.2576  0.6216  0.4148
  262MOL0     C35264   5.597   5.107   6.395 -0.2607  0.0690  1.7368
  262MOL0     C35265   5.482   5.137   6.303  0.1909 -0.1341 -0.1740
  262MOL0     O35266   5.379   5.214   6.360 -0.3696  0.0869 -0.2049
  262MOL0     C35267   5.277   5.244   6.277 -0.6696 -1.1048 -0.3364
  262MOL0     C35268   5.167   5.155   6.265  0.0110 -0.0690  0.1218
  262MOL0     C35269   5.051   5.193   6.191 -0.7540  0.7876  0.2477
  262MOL0     C35270   5.042   5.313   6.128  1.4549  0.6673  0.9820
  262MOL0     O35271   4.938   5.330   6.036 -0.3097 -0.1629  0.2531
  262MOL0     C35272   4.899   5.463   5.999  0.0803  0.4677  0.5494
  262MOL0     C35273   4.750   5.463   5.953 -0.1432  0.1388  0.7419
  262MOL0     C35274   4.702   5.606   5.944  1.2519  0.0794 -0.3128
  262MOL0     C35275   4.559   5.596   5.895 -0.5572  0.6517 -0.4306
  262MOL0     C35276   4.493   5.735   5.909 -0.7362  0.3533  1.0178
  262MOL0     C35277   4.532   5.830   5.791  0.2529 -0.1957 -0.3034
  262MOL0     C35278   4.437   5.952   5.783 -0.1033 -0.4130 -0.8226
  262MOL0     C35279   4.316   5.927   5.703  0.7603 -1.5848 -0.6398
  262MOL0    Cl35280   4.352   5.944   5.539  0.1014 -0.7850  0.4253
  262MOL0     C35281   5.149   5.398   6.136  0.7970 -0.2992  0.5363
  262MOL0     C35282   5.273   5.366   6.210 -0.8051  0.0446  1.0559
  262MOL0     O35283   5.486   5.109   6.187  0.0176  0.8259 -0.4414
  262MOL0     C35284   5.599   5.156   6.519  0.5304  0.2336 -0.2210
  262MOL0     C35285   5.686   5.130   6.618  0.6622 -0.2856  0.3269
  262MOL0     N35286   5.958   4.913   7.376 -0.4187  0.2698  0.1674
  262MOL0     N35287   5.995   4.988   7.477  0.8612  0.3926 -0.9641
  262MOL0     C35288   6.765   5.647   7.227 -0.7239  0.4248  0.5585
  262MOL0     C35289   6.749   5.784   7.206 -0.2911  0.0556 -0.5981
  262MOL0     C35290   6.679   6.212   7.139  0.2919  0.3509 -0.6486
  262MOL0     C35291   6.773   6.295   7.075 -0.3368 -0.2607 -0.5898
  262MOL0     C35292   6.776   6.426   7.113  0.0798  0.2508  0.3260
  262MOL0     C35293   6.675   6.482   7.194  0.9019  0.2995 -0.2557
  262MOL0     O35294   6.660   6.616   7.225  0.5749  0.4610  0.1818
  262MOL0     C35295   6.750   6.710   7.155 -0.9328  0.1918  0.5710
  262MOL0     C35296   6.868   6.737   7.249 -0.2783 -0.3054 -0.3111
  262MOL0     C35297   6.809   6.796   7.381 -0.0702 -0.1808 -0.1080
  262MOL0     C35298   6.908   6.902   7.451 -0.2076 -0.4433  0.5234
  262MOL0     C35299   6.939   7.012   7.371 -0.4838 -1.0510  0.4651
  262MOL0     C35300   6.955   7.118   7.312 -0.4719  0.1550  0.2130
  262MOL0     C35301   6.572   6.400   7.246  0.1292 -0.0397  0.3638
  262MOL0     C35302   6.578   6.266   7.219  1.1650  0.4975  0.1624
  262MOL0     H35303   6.410   5.819   7.233 -0.3538 -0.4668  4.2072
  262MOL0     H35304   6.445   5.558   7.250  0.9170 -0.5811  0.4980
  262MOL0     H35305   6.835   5.372   7.378  0.0286  1.0262 -1.0743
  262MOL0     H35306   6.737   5.495   7.469  2.5614 -0.3040  1.1035
  262MOL0     H35307   6.654   5.208   7.436  2.0764 -0.1334  0.3957
  262MOL0     H35308   6.726   5.284   7.583 -0.6264 -2.9602  0.3081
  262MOL0     H35309   6.550   5.422   7.617  1.8709 -1.1076  2.1898
  262MOL0     H35310   6.466   5.368   7.473  3.0651  3.0998 -1.0580
  262MOL0     H35311   6.480   5.131   7.605  2.7726 -0.4703  3.2174
  262MOL0     H35312   6.508   5.213   7.741 -1.5674 -3.1404  1.1387
  262MOL0     H35313   6.300   5.241   7.774 -0.2522  3.3945  1.1580
  262MOL0     H35314   6.325   5.388   7.669 -1.1700 -0.6027 -0.6251
  262MOL0     H35315   6.232   5.261   7.479  2.9476  2.8331  1.3985
  262MOL0     H35316   6.231   5.111   7.577  0.4355 -0.5619 -2.3393
  262MOL0     H35317   6.064   5.205   7.738  0.3490 -0.4809 -0.2162
  262MOL0     H35318   6.074   5.356   7.668  1.7577  0.1200  1.6384
  262MOL0     H35319   5.931   5.317   7.488 -0.5212  0.5577  0.4217
  262MOL0     H35320   5.863   5.199   7.603 -0.2710 -2.4475 -1.1085
  262MOL0     H35321   5.850   5.205   7.291  0.4506 -0.2685  1.6036
  262MOL0     H35322   5.807   4.837   7.154 -0.2854 -0.6063  0.4291
  262MOL0     H35323   5.702   4.975   7.148 -1.1821 -4.5829 -2.5983
  262MOL0     H35324   5.987   4.951   7.028 -0.1298  0.2579  2.4966
  262MOL0     H35325   5.931   5.104   7.085 -0.1132 -0.7955  2.9962
  262MOL0     H35326   5.718   5.065   6.936  0.1618  1.5398  0.2639
  262MOL0     H35327   5.790   4.923   6.874  0.8346 -1.1444  2.7388
  262MOL0     H35328   6.008   5.104   6.829 -0.6260  2.4787 -1.7270
  262MOL0     H35329   5.870   5.201   6.787  0.9732 -0.2341 -0.6319
  262MOL0     H35330   5.882   4.931   6.450 -3.1096 -3.1492  0.5354
  262MOL0     H35331   5.842   4.947   6.201 -0.4769 -1.9144  2.5824
  262MOL0     H35332   5.676   4.899   6.184 -0.6803 -1.0626  4.1574
  262MOL0     H35333   5.724   5.071   6.165 -3.5461 -2.0904 -3.6019
  262MOL0     H35334   5.170   5.063   6.322  0.7003 -1.4620 -2.0412
  262MOL0     H35335   4.978   5.113   6.187 -0.1313  0.2490 -0.5178
  262MOL0     H35336   4.914   5.526   6.087 -0.9752  2.6277 -0.7432
  262MOL0     H35337   4.957   5.509   5.918 -2.1750 -0.2246 -1.5667
  262MOL0     H35338   4.734   5.417   5.855  2.0961 -2.2176  1.3802
  262MOL0     H35339   4.691   5.405   6.023 -3.5351  0.2675 -1.7658
  262MOL0     H35340   4.772   5.662   5.881  0.1490 -0.0352 -1.6871
  262MOL0     H35341   4.710   5.648   6.044  1.6911  3.0545 -1.4929
  262MOL0     H35342   4.552   5.572   5.788  1.3597 -2.8489  0.0588
  262MOL0     H35343   4.502   5.526   5.957  2.2964  2.9446  5.4882
  262MOL0     H35344   4.517   5.781   6.006 -1.6655  0.8099  1.0351
  262MOL0     H35345   4.385   5.728   5.898 -0.8904  1.0395  1.9087
  262MOL0     H35346   4.629   5.877   5.773  0.1146  0.5388  0.7681
  262MOL0     H35347   4.499   5.787   5.696 -2.3387  2.4970 -0.7841
  262MOL0     H35348   4.480   6.039   5.732 -0.7123 -0.7336 -1.9272
  262MOL0     H35349   4.405   5.983   5.882  1.2538  0.5622 -0.6589
  262MOL0     H35350   4.244   6.004   5.734  1.3476 -0.1847 -2.5182
  262MOL0     H35351   4.275   5.828   5.723  2.4175 -1.9942  0.9816
  262MOL0     H35352   5.146   5.489   6.077  0.3923  0.2481  1.3656
  262MOL0     H35353   5.349   5.436   6.241 -0.7313 -0.2604  1.5670
  262MOL0     H35354   5.509   5.207   6.553  1.7186  0.8674  2.2681
  262MOL0     H35355   5.675   5.164   6.721 -2.4772 -1.4970  0.4777
  262MOL0     H35356   6.858   5.593   7.241 -1.0896  0.0477  1.6735
  262MOL0     H35357   6.835   5.850   7.211 -1.3654  1.5082 -0.7506
  262MOL0     H35358   6.855   6.254   7.017  1.9644 -1.4786  3.2293
  262MOL0     H35359   6.864   6.479   7.076 -0.4845  1.2954  0.4324
  262MOL0     H35360   6.791   6.678   7.059 -2.5507  0.9383 -0.4076
  262MOL0     H35361   6.702   6.806   7.136 -1.6118 -0.7269 -3.1278
  262MOL0     H35362   6.929   6.807   7.193 -0.9131 -0.9489 -1.8731
  262MOL0     H35363   6.936   6.655   7.277 -0.8535 -1.8203 -3.0029
  262MOL0     H35364   6.783   6.715   7.449 -1.0181  0.8040  0.7241
  262MOL0     H35365   6.715   6.847   7.361  0.3975  0.2574 -1.2662
  262MOL0     H35366   7.006   6.854   7.468  1.9942  1.8240 -3.9506
  262MOL0     H35367   6.875   6.941   7.548  0.1034 -1.8880  1.2459
  262MOL0     H35368   6.973   7.206   7.254 -0.0485  1.2344  1.9427
  262MOL0     H35369   6.484   6.431   7.302 -0.0325 -0.7284  0.5079
  262MOL0     H35370   6.510   6.202   7.274 -2.1339  4.0868  0.7207
  263MOL0     O35371   5.857   9.453   2.165  0.2507  0.1370 -0.1197
  263MOL0     C35372   5.901   9.357   2.103  0.1013  0.9578 -0.7948
  263MOL0     O35373   5.989   9.257   2.155 -0.6577 -0.0990  0.7639
  263MOL0     C35374   6.053   9.292   2.279 -0.2888  0.0019  0.5040
  263MOL0     C35375   6.036   9.210   2.389 -1.4053  0.6333 -0.4959
  263MOL0     C35376   6.097   9.236   2.509 -0.0404  0.1304 -0.6726
  263MOL0     C35377   6.177   9.351   2.526  0.0663  0.1924  0.1547
  263MOL0     O35378   6.235   9.391   2.647 -1.3555  0.1347  0.0817
  263MOL0     C35379   6.173   9.336   2.764 -0.6761  0.2246 -0.6103
  263MOL0     C35380   6.253   9.384   2.880  0.0650 -0.2732 -0.6265
  263MOL0     C35381   6.263   9.543   2.875 -0.1569  0.0980  0.1206
  263MOL0     C35382   6.136   9.628   2.871  0.2221  0.3011 -0.1438
  263MOL0     C35383   6.163   9.778   2.878  0.1748 -0.1535 -1.0406
  263MOL0     C35384   6.047   9.861   2.818 -0.2287  0.4760 -1.1841
  263MOL0     C35385   5.915   9.843   2.897 -0.1498  0.3243 -0.2286
  263MOL0     C35386   5.806   9.940   2.879  0.4169 -0.7860 -0.3343
  263MOL0     N35387   5.768   9.933   2.735 -0.6007  0.9557 -0.9925
  263MOL0     C35388   5.692   9.827   2.689  0.1021 -0.2081 -0.5210
  263MOL0     C35389   5.657   9.856   2.562  0.4993  0.4135  1.2154
  263MOL0     C35390   5.589   9.752   2.481 -0.2463  0.2960  0.5271
  263MOL0     C35391   5.562   9.803   2.334 -0.2764 -0.2426 -0.3880
  263MOL0     C35392   5.486   9.695   2.249  0.5719  0.1354  0.2394
  263MOL0     C35393   5.476   9.723   2.097 -0.2954  0.0275 -1.1123
  263MOL0     O35394   5.418   9.616   2.029  0.2992  0.1041  0.7978
  263MOL0     C35395   5.287   9.597   1.989  0.2043 -0.6361 -0.9615
  263MOL0     C35396   5.263   9.500   1.902 -0.5510 -0.5488 -0.1611
  263MOL0     C35397   5.144   9.470   1.851  0.3199 -0.0135  0.5057
  263MOL0     C35398   5.128   9.358   1.753  0.2472 -0.0429  0.6083
  263MOL0     C35399   5.034   9.548   1.885  0.3682 -0.5684  0.0533
  263MOL0     C35400   4.907   9.549   1.802  0.6467 -0.9429 -0.5174
  263MOL0     O35401   4.830   9.654   1.824 -0.2695 -0.4711 -0.8279
  263MOL0     C35402   4.715   9.653   1.764  0.8895 -0.0340  0.2600
  263MOL0     C35403   4.611   9.558   1.793 -0.4434 -0.2415 -0.3222
  263MOL0     C35404   4.491   9.565   1.721 -0.3620 -0.6747 -0.6342
  263MOL0     C35405   4.464   9.659   1.630  0.5435 -0.2726 -0.6544
  263MOL0     O35406   4.350   9.670   1.549  0.4767  0.3051 -0.4923
  263MOL0     C35407   4.250   9.570   1.567  0.7042  0.5157  1.3032
  263MOL0     C35408   4.121   9.596   1.484 -0.2329 -0.3922 -0.4506
  263MOL0     C35409   4.146   9.620   1.338  0.2889 -0.6657  0.9726
  263MOL0     C35410   4.215   9.498   1.268 -0.3903 -0.0761  0.2404
  263MOL0     C35411   4.245   9.524   1.119  0.0459  0.2038 -0.1137
  263MOL0     C35412   4.315   9.404   1.048 -0.3890 -0.3629 -1.2500
  263MOL0     C35413   4.326   9.411   0.896  0.0295  0.5374 -0.1720
  263MOL0     C35414   4.350   9.262   0.846 -0.3319 -0.6904  0.5720
  263MOL0    Cl35415   4.519   9.222   0.886 -0.4602  0.1594 -0.0624
  263MOL0     C35416   4.563   9.753   1.610 -0.4624 -0.5826  0.4234
  263MOL0     C35417   4.684   9.758   1.675 -0.3872  0.8730 -1.0537
  263MOL0     O35418   4.879   9.454   1.726  0.0920 -0.5947 -0.2337
  263MOL0     C35419   5.057   9.654   1.970 -0.4425 -0.3636  0.0715
  263MOL0     C35420   5.186   9.693   2.017  0.1704 -0.4873 -0.4873
  263MOL0     N35421   5.727   9.972   2.531  0.4723 -0.4400  0.2655
  263MOL0     N35422   5.789  10.021   2.640  0.3099 -0.4463  0.6222
  263MOL0     C35423   6.195   9.436   2.418  0.0845  1.0342  1.6134
  263MOL0     C35424   6.131   9.407   2.290 -0.2869 -0.5665  0.6493
  263MOL0     C35425   5.821   9.323   1.981 -0.3987  0.7025  0.9160
  263MOL0     C35426   5.716   9.409   1.926  0.0321 -0.2409 -0.5253
  263MOL0     C35427   5.654   9.383   1.803 -0.4943  0.3558 -0.4132
  263MOL0     C35428   5.685   9.267   1.734 -0.5523  0.8656  0.9676
  263MOL0     O35429   5.637   9.231   1.608 -0.0738 -0.1970 -0.1741
  263MOL0     C35430   5.544   9.303   1.533 -0.1974  0.4859  0.7103
  263MOL0     C35431   5.494   9.213   1.415 -0.9050 -0.4738  0.0792
  263MOL0     C35432   5.604   9.192   1.310 -0.0817  1.3044  0.3307
  263MOL0     C35433   5.570   9.081   1.218  0.4930  0.2273 -0.7678
  263MOL0     C35434   5.686   9.046   1.129  0.7023 -1.4974 -0.1279
  263MOL0     C35435   5.795   9.046   1.087 -0.5610 -0.4876  0.1048
  263MOL0     C35436   5.771   9.179   1.798 -0.2141  0.7984 -0.1392
  263MOL0     C35437   5.851   9.202   1.907  0.4529  0.4355 -0.0172
  263MOL0     H35438   5.976   9.122   2.372  0.6141 -0.6130 -1.5419
  263MOL0     H35439   6.089   9.160   2.586  1.6236 -0.7572 -1.3107
  263MOL0     H35440   6.068   9.364   2.750 -0.9768 -0.9054 -0.6953
  263MOL0     H35441   6.173   9.227   2.776 -2.5215  0.2721  0.0995
  263MOL0     H35442   6.217   9.353   2.979  2.9576  2.2162  1.4313
  263MOL0     H35443   6.352   9.339   2.867  0.3500 -1.0213  3.0812
  263MOL0     H35444   6.316   9.575   2.964 -1.9614 -3.6732  2.8164
  263MOL0     H35445   6.328   9.583   2.797 -0.3056  5.7398  2.4709
  263MOL0     H35446   6.075   9.601   2.785  1.3164 -0.5152 -0.6922
  263MOL0     H35447   6.063   9.605   2.949  0.4249 -0.6027 -0.2021
  263MOL0     H35448   6.189   9.804   2.981  3.0007 -1.8728 -1.1922
  263MOL0     H35449   6.256   9.806   2.825  0.7467  0.9124  0.4638
  263MOL0     H35450   6.073   9.967   2.813 -3.7275  1.8317  3.1479
  263MOL0     H35451   6.048   9.833   2.712  0.5402  0.5869 -1.2075
  263MOL0     H35452   5.877   9.741   2.888  1.4429 -0.2127 -1.4107
  263MOL0     H35453   5.942   9.855   3.002  2.6862  0.2823 -0.8773
  263MOL0     H35454   5.844  10.039   2.904 -1.3696  0.1117 -1.0128
  263MOL0     H35455   5.730   9.920   2.955  1.3595 -1.4924  0.4521
  263MOL0     H35456   5.664   9.735   2.738  1.2571 -1.6199 -2.4000
  263MOL0     H35457   5.648   9.662   2.461 -3.0745 -0.5767 -6.9962
  263MOL0     H35458   5.494   9.732   2.532  0.1103  2.3313  2.1375
  263MOL0     H35459   5.664   9.814   2.296 -0.0802  2.0333  0.6386
  263MOL0     H35460   5.503   9.895   2.336 -0.9768 -0.6069 -1.9373
  263MOL0     H35461   5.387   9.682   2.294  0.8980 -1.9475  0.4361
  263MOL0     H35462   5.535   9.600   2.270  4.7116  2.7763  4.7367
  263MOL0     H35463   5.574   9.757   2.065  0.0714  0.4882  0.3975
  263MOL0     H35464   5.412   9.811   2.082 -2.2782 -1.3530 -1.1995
  263MOL0     H35465   5.349   9.438   1.880  1.1171  1.4456  0.4363
  263MOL0     H35466   5.212   9.288   1.749 -0.2401 -0.5863 -1.9366
  263MOL0     H35467   5.036   9.304   1.776 -0.8718  0.8492 -1.4396
  263MOL0     H35468   5.115   9.381   1.647 -0.7110 -5.1131 -0.6330
  263MOL0     H35469   4.622   9.470   1.856 -0.0347  1.3774  2.0177
  263MOL0     H35470   4.417   9.490   1.748 -0.9721  0.5885  1.4371
  263MOL0     H35471   4.291   9.476   1.531 -0.0676 -0.0524  1.8868
  263MOL0     H35472   4.228   9.558   1.673 -0.5757 -0.8585  0.9095
  263MOL0     H35473   4.049   9.514   1.480 -0.9228  0.1837  0.0123
  263MOL0     H35474   4.077   9.681   1.537  1.4956  0.8566 -0.9167
  263MOL0     H35475   4.214   9.705   1.325 -0.6611 -0.1074 -0.7211
  263MOL0     H35476   4.052   9.645   1.288  0.4300  0.7959  1.3861
  263MOL0     H35477   4.312   9.489   1.316  1.4704 -1.4523 -3.3751
  263MOL0     H35478   4.160   9.406   1.288  1.7355 -1.3166  0.5961
  263MOL0     H35479   4.311   9.611   1.115 -1.3871  1.4098  1.3286
  263MOL0     H35480   4.150   9.548   1.071  1.5826  1.7185 -2.6082
  263MOL0     H35481   4.420   9.391   1.074  0.1964 -1.4693 -3.8036
  263MOL0     H35482   4.259   9.319   1.088 -4.0203  2.3326 -0.1355
  263MOL0     H35483   4.411   9.473   0.868  1.2279 -0.9058  0.1889
  263MOL0     H35484   4.235   9.454   0.853  1.9736  3.1130 -1.9742
  263MOL0     H35485   4.343   9.260   0.736 -0.0004 -0.0980  0.5308
  263MOL0     H35486   4.282   9.194   0.896 -0.2940  0.3063  2.0349
  263MOL0     H35487   4.537   9.813   1.523 -2.4008  0.2784  1.5533
  263MOL0     H35488   4.760   9.834   1.659 -0.5946  1.2890 -0.1391
  263MOL0     H35489   4.973   9.718   1.996 -0.1826  0.3123 -0.6923
  263MOL0     H35490   5.202   9.777   2.083 -1.7866  0.8389 -1.5889
  263MOL0     H35491   6.245   9.532   2.422 -1.6612  2.4968 -3.5009
  263MOL0     H35492   6.151   9.467   2.203  0.3538 -0.9082  0.5574
  263MOL0     H35493   5.690   9.502   1.976 -0.5347 -1.0147  0.6652
  263MOL0     H35494   5.585   9.459   1.766 -1.4229  0.6101  1.6610
  263MOL0     H35495   5.469   9.316   1.612 -0.5652 -1.4689  0.7183
  263MOL0     H35496   5.591   9.393   1.492 -0.1236 -0.5585 -1.6435
  263MOL0     H35497   5.401   9.252   1.373 -1.4132  1.1872  2.5105
  263MOL0     H35498   5.462   9.115   1.451  0.6302 -1.3362 -0.8212
  263MOL0     H35499   5.701   9.157   1.347 -0.8731 -0.9526  0.3776
  263MOL0     H35500   5.631   9.282   1.253  3.3612  0.6366  0.6869
  263MOL0     H35501   5.483   9.101   1.154 -1.6195 -0.4883  1.7198
  263MOL0     H35502   5.543   8.990   1.271  1.0525  0.7586  0.4614
  263MOL0     H35503   5.896   9.031   1.055  0.4671  1.3090  2.2778
  263MOL0     H35504   5.781   9.085   1.744  3.0072  3.3541 -4.8277
  263MOL0     H35505   5.902   9.114   1.943 -2.5760 -2.0720 -1.3774
  264MOL0     O35506   6.038   4.357   1.147 -0.5369  0.6596  0.7064
  264MOL0     C35507   6.145   4.413   1.129 -0.0598 -0.7221  0.9609
  264MOL0     O35508   6.183   4.534   1.174  0.0464 -0.3200 -0.4027
  264MOL0     C35509   6.081   4.609   1.233 -0.5857 -0.3670 -0.8459
  264MOL0     C35510   6.106   4.684   1.352  0.0427 -0.2292 -0.1817
  264MOL0     C35511   6.005   4.754   1.416  0.0871 -0.0234 -0.7715
  264MOL0     C35512   5.878   4.764   1.356 -1.1204 -0.2583  0.0184
  264MOL0     O35513   5.774   4.820   1.419  0.2439  0.4856  0.6245
  264MOL0     C35514   5.741   4.768   1.554 -0.1790  0.1213  0.5110
  264MOL0     C35515   5.824   4.837   1.665 -0.5798  0.2367 -0.3562
  264MOL0     C35516   5.864   4.748   1.782 -0.3261  0.0507 -0.1974
  264MOL0     C35517   5.931   4.825   1.898  0.2732 -0.1030  0.5331
  264MOL0     C35518   6.077   4.864   1.869 -0.7499  0.4836  0.6631
  264MOL0     C35519   6.184   4.762   1.921 -0.7369  0.1649  0.5710
  264MOL0     C35520   6.140   4.615   1.907  1.0492  0.5552  0.3367
  264MOL0     C35521   6.246   4.515   1.952  1.2627 -0.4293  0.0617
  264MOL0     N35522   6.341   4.495   1.841 -0.2122  0.1907 -1.0361
  264MOL0     C35523   6.332   4.410   1.740 -0.1922 -0.3053 -0.7857
  264MOL0     C35524   6.422   4.439   1.652 -0.5831  0.2753  0.9415
  264MOL0     C35525   6.431   4.363   1.512 -0.2277  0.0010  0.0866
  264MOL0     C35526   6.474   4.219   1.517 -0.5934  1.0373  0.1552
  264MOL0     C35527   6.518   4.147   1.387  0.7382 -0.0231  0.1276
  264MOL0     C35528   6.557   4.002   1.406 -0.1427 -0.5963 -0.5888
  264MOL0     O35529   6.577   3.946   1.278  0.4355  0.5165  0.3921
  264MOL0     C35530   6.614   3.814   1.269 -0.5930 -0.0589  0.3272
  264MOL0     C35531   6.680   3.739   1.372  0.7382  0.2401  0.5950
  264MOL0     C35532   6.725   3.611   1.348 -0.3471 -0.1545 -1.1430
  264MOL0     C35533   6.822   3.545   1.448 -0.0915  0.9567  0.2631
  264MOL0     C35534   6.690   3.543   1.228  0.3515  0.3269  0.3058
  264MOL0     C35535   6.714   3.404   1.212  0.4909 -0.5475  1.1767
  264MOL0     O35536   6.690   3.313   1.310  0.2595  0.7568 -0.4850
  264MOL0     C35537   6.738   3.188   1.300 -0.0542 -0.9502  0.9252
  264MOL0     C35538   6.705   3.111   1.183 -0.1957 -0.2566 -0.5213
  264MOL0     C35539   6.742   2.973   1.178 -0.5658 -0.0502  0.3411
  264MOL0     C35540   6.834   2.928   1.276 -0.9389 -0.6480  0.0006
  264MOL0     O35541   6.890   2.802   1.272  0.2392 -1.0946 -0.0095
  264MOL0     C35542   6.809   2.706   1.331 -0.5088  0.3724 -0.2530
  264MOL0     C35543   6.894   2.582   1.351 -0.1314 -0.2129  0.5296
  264MOL0     C35544   6.797   2.472   1.401  1.4469  0.2030  0.1392
  264MOL0     C35545   6.868   2.346   1.430 -0.4020  0.0915 -0.2522
  264MOL0     C35546   6.844   2.249   1.315 -0.2101 -0.6477 -1.0296
  264MOL0     C35547   6.926   2.131   1.351 -1.0558  1.3985 -0.1864
  264MOL0     C35548   6.893   2.053   1.487  0.2461 -0.0377  0.2220
  264MOL0     C35549   6.990   1.926   1.503  0.6213 -1.1660 -0.1199
  264MOL0    Cl35550   6.966   1.855   1.653  0.3105  0.1959 -0.3298
  264MOL0     C35551   6.872   3.004   1.383 -0.1502 -0.3576  0.3262
  264MOL0     C35552   6.817   3.131   1.400  0.0589 -0.3337 -0.7186
  264MOL0     O35553   6.768   3.381   1.102  0.5472 -0.0404  0.1199
  264MOL0     C35554   6.635   3.619   1.126  0.5755  0.6966 -0.2025
  264MOL0     C35555   6.588   3.745   1.142  0.6868 -0.8608 -0.6840
  264MOL0     N35556   6.501   4.546   1.699  0.2745  0.1342  0.1086
  264MOL0     N35557   6.450   4.569   1.819  0.6555 -0.1316 -0.0520
  264MOL0     C35558   5.852   4.708   1.235  0.4646  0.0103 -0.9280
  264MOL0     C35559   5.951   4.635   1.173  0.1109  1.6455 -1.1563
  264MOL0     C35560   6.255   4.331   1.073 -0.3592  0.0832 -0.5362
  264MOL0     C35561   6.372   4.395   1.011 -0.3295  0.0727 -0.5005
  264MOL0     C35562   6.484   4.319   0.958 -0.7445 -0.4875  0.1368
  264MOL0     C35563   6.481   4.177   0.969 -0.0189  0.2308  0.8591
  264MOL0     O35564   6.582   4.087   0.940  1.1641  0.6455  0.0223
  264MOL0     C35565   6.684   4.147   0.859 -0.2291  0.3809  0.2676
  264MOL0     C35566   6.765   4.026   0.798  0.4947 -0.3604 -0.0255
  264MOL0     C35567   6.885   3.990   0.883 -1.8719  0.5531 -0.3224
  264MOL0     C35568   6.978   3.890   0.806  0.8212  0.2643 -0.3516
  264MOL0     C35569   6.929   3.754   0.827  0.0409 -0.6647 -0.3272
  264MOL0     C35570   6.893   3.642   0.821 -0.0320  0.2884 -0.3718
  264MOL0     C35571   6.376   4.119   1.042  0.6402  0.2105  0.6655
  264MOL0     C35572   6.262   4.194   1.088 -0.0130  0.3643 -0.3585
  264MOL0     H35573   6.201   4.663   1.401  1.0693 -1.2924 -2.4882
  264MOL0     H35574   6.035   4.816   1.499 -0.1787  0.6299 -1.1556
  264MOL0     H35575   5.632   4.774   1.562 -0.2736 -0.3480 -0.2291
  264MOL0     H35576   5.759   4.660   1.549 -3.9447 -0.6227 -2.0692
  264MOL0     H35577   5.909   4.898   1.631 -0.4785 -0.3355 -1.1488
  264MOL0     H35578   5.759   4.915   1.705 -0.2566 -0.6417  2.0388
  264MOL0     H35579   5.764   4.710   1.807 -1.8003  2.2977 -2.1760
  264MOL0     H35580   5.929   4.674   1.733 -2.4230  0.6978 -4.4716
  264MOL0     H35581   5.875   4.918   1.902 -0.7927 -0.7736  2.8687
  264MOL0     H35582   5.920   4.787   2.000  1.0390 -1.2290  0.2163
  264MOL0     H35583   6.093   4.887   1.764 -0.9859  0.5223  0.6353
  264MOL0     H35584   6.107   4.961   1.911  1.6197 -0.7906  2.1615
  264MOL0     H35585   6.272   4.775   1.858 -0.0861  1.9006  1.7735
  264MOL0     H35586   6.213   4.784   2.024  3.3381 -0.5765 -0.2534
  264MOL0     H35587   6.043   4.588   1.950  1.9021 -3.6474  0.0923
  264MOL0     H35588   6.116   4.583   1.805 -1.0514 -1.3782  1.3565
  264MOL0     H35589   6.203   4.417   1.971 -1.6478  0.2149 -2.4325
  264MOL0     H35590   6.299   4.545   2.043  1.4008  0.3401 -0.2636
  264MOL0     H35591   6.259   4.329   1.738 -1.6553  0.9280 -0.1148
  264MOL0     H35592   6.328   4.366   1.474 -0.1781 -4.1215 -0.9330
  264MOL0     H35593   6.487   4.431   1.448 -0.3705  0.4986  0.4887
  264MOL0     H35594   6.399   4.158   1.568 -0.4333  1.0943  0.4627
  264MOL0     H35595   6.568   4.208   1.573  0.1387  0.3640 -1.1392
  264MOL0     H35596   6.591   4.200   1.325 -2.9953  1.7235 -3.2364
  264MOL0     H35597   6.437   4.156   1.315  0.8866  3.6873  0.2276
  264MOL0     H35598   6.493   3.946   1.475  0.0325  1.9135  1.8250
  264MOL0     H35599   6.656   3.992   1.451  0.1455 -3.0499 -1.6229
  264MOL0     H35600   6.691   3.784   1.470 -0.7687 -0.4370  1.0983
  264MOL0     H35601   6.876   3.619   1.507  1.2616  0.1313  0.0896
  264MOL0     H35602   6.768   3.473   1.512 -0.8585  1.6595  0.4303
  264MOL0     H35603   6.908   3.495   1.403  0.9508  4.0980 -1.4942
  264MOL0     H35604   6.648   3.144   1.097 -1.5148 -1.7467 -0.2756
  264MOL0     H35605   6.722   2.903   1.097 -1.1988 -0.9880  1.2762
  264MOL0     H35606   6.771   2.739   1.428  0.4526 -0.1956  0.3421
  264MOL0     H35607   6.730   2.664   1.268 -1.4891  1.1944  0.4016
  264MOL0     H35608   6.934   2.541   1.258 -0.8022  3.0503 -1.3680
  264MOL0     H35609   6.974   2.606   1.421  0.0557  1.2339 -0.1477
  264MOL0     H35610   6.717   2.452   1.330  1.4036 -2.2951  0.7984
  264MOL0     H35611   6.751   2.498   1.497  0.8701  0.0748 -0.0972
  264MOL0     H35612   6.973   2.373   1.446  0.1290  0.3725 -3.4817
  264MOL0     H35613   6.839   2.302   1.525 -0.7412  3.0263  1.1244
  264MOL0     H35614   6.872   2.295   1.220 -1.0511  2.6267  0.1756
  264MOL0     H35615   6.738   2.230   1.299 -1.2603  3.7079 -0.4444
  264MOL0     H35616   6.905   2.061   1.271 -2.2387  1.8505 -0.2858
  264MOL0     H35617   7.030   2.166   1.350 -1.3025  2.1553 -0.1889
  264MOL0     H35618   6.787   2.026   1.494  0.4958 -0.6314  2.0638
  264MOL0     H35619   6.906   2.105   1.582 -0.0684  0.8335 -0.1969
  264MOL0     H35620   7.090   1.969   1.506  0.0404  0.4078 -1.5041
  264MOL0     H35621   6.965   1.865   1.416 -1.9196  1.0196 -1.0536
  264MOL0     H35622   6.943   2.965   1.455  1.5784  1.3928 -0.3268
  264MOL0     H35623   6.848   3.195   1.482 -1.9892 -0.9705  0.6447
  264MOL0     H35624   6.611   3.578   1.028 -1.0700  2.9454 -0.8211
  264MOL0     H35625   6.533   3.779   1.054  0.3602 -1.5009 -0.7373
  264MOL0     H35626   5.752   4.724   1.197 -0.1027  0.1581  0.5470
  264MOL0     H35627   5.922   4.578   1.086  1.3334  1.8699 -1.7356
  264MOL0     H35628   6.370   4.504   1.004  0.6533  0.1979  0.7644
  264MOL0     H35629   6.566   4.361   0.900 -0.0789 -0.8667  0.7898
  264MOL0     H35630   6.648   4.201   0.771  0.2251 -1.1362 -0.9064
  264MOL0     H35631   6.744   4.213   0.921  2.3174 -0.8289 -0.7607
  264MOL0     H35632   6.803   4.073   0.707  2.6307  1.1766  1.5525
  264MOL0     H35633   6.697   3.941   0.784 -2.9761  2.2922 -0.7162
  264MOL0     H35634   6.870   3.957   0.986 -0.0853  0.1362 -0.1638
  264MOL0     H35635   6.928   4.091   0.889 -1.4558  0.3793 -0.3105
  264MOL0     H35636   7.083   3.889   0.836  0.4880  1.1838  0.9192
  264MOL0     H35637   6.977   3.913   0.699 -0.3677 -0.7819 -0.5891
  264MOL0     H35638   6.853   3.542   0.823 -0.3930  0.3969  3.0038
  264MOL0     H35639   6.373   4.012   1.057 -0.4236 -0.4348 -3.2650
  264MOL0     H35640   6.182   4.155   1.151  0.8124  0.6951  0.9221
  265MOL0     O35641   3.088   4.204   1.005 -0.9236  0.6335 -0.7606
  265MOL0     C35642   3.186   4.178   1.085 -0.3166  0.0757  0.2961
  265MOL0     O35643   3.281   4.265   1.126 -0.1524  0.5442  1.0323
  265MOL0     C35644   3.235   4.394   1.136  0.7033 -0.1369  0.1048
  265MOL0     C35645   3.100   4.439   1.162  0.1350 -0.5573 -0.4751
  265MOL0     C35646   3.070   4.578   1.174 -0.5317  0.4724 -0.1461
  265MOL0     C35647   3.175   4.671   1.153 -0.8372  0.2957 -0.0876
  265MOL0     O35648   3.153   4.805   1.170  0.5006  0.1034 -0.4921
  265MOL0     C35649   3.173   4.906   1.071 -0.2346  0.0724 -0.0212
  265MOL0     C35650   3.199   5.041   1.140  0.0513  0.1240 -0.2578
  265MOL0     C35651   3.248   5.152   1.052  0.3791  0.3311  0.4080
  265MOL0     C35652   3.395   5.141   1.059  0.4748  0.3750 -0.5975
  265MOL0     C35653   3.482   5.251   0.970  1.3458  0.0452  0.1243
  265MOL0     C35654   3.454   5.277   0.820 -0.4654 -1.5124  0.4314
  265MOL0     C35655   3.489   5.159   0.723  0.1995 -0.8557 -0.1682
  265MOL0     C35656   3.525   5.195   0.579  1.0202 -0.1227  0.3806
  265MOL0     N35657   3.421   5.279   0.512  0.5633  0.6440 -0.0969
  265MOL0     C35658   3.422   5.389   0.429 -1.1656 -0.7927  0.6931
  265MOL0     C35659   3.292   5.426   0.407  0.1598 -0.6105 -0.0922
  265MOL0     C35660   3.229   5.544   0.336  0.3114 -0.0945 -0.0996
  265MOL0     C35661   3.265   5.545   0.185 -0.7231 -0.5571  0.6090
  265MOL0     C35662   3.189   5.657   0.115  0.0782  0.8671  0.4844
  265MOL0     C35663   3.159   5.610  -0.034 -0.9950 -0.8583 -0.5550
  265MOL0     O35664   3.289   5.576  -0.105 -0.0228  0.1462 -0.3293
  265MOL0     C35665   3.284   5.510  -0.226  0.2440 -0.0431 -0.6920
  265MOL0     C35666   3.179   5.445  -0.279 -0.3685  0.8412 -0.3105
  265MOL0     C35667   3.185   5.369  -0.403 -1.2782  0.3423 -0.4696
  265MOL0     C35668   3.067   5.279  -0.444  0.5787  0.4118  0.6421
  265MOL0     C35669   3.303   5.366  -0.473  0.4773  0.1618 -0.0986
  265MOL0     C35670   3.335   5.290  -0.600  0.3642 -0.4146 -0.1709
  265MOL0     O35671   3.225   5.243  -0.668 -0.0834  0.6307 -0.3074
  265MOL0     C35672   3.244   5.208  -0.797  1.0588 -0.1748  0.6391
  265MOL0     C35673   3.247   5.309  -0.893  0.1142 -0.0228  0.7421
  265MOL0     C35674   3.248   5.281  -1.028  0.5808 -0.1747 -0.1872
  265MOL0     C35675   3.253   5.151  -1.071 -0.1188 -0.1668 -0.1231
  265MOL0     O35676   3.254   5.134  -1.207  0.0557  0.7525  0.1483
  265MOL0     C35677   3.209   5.013  -1.268 -0.9970  0.0843  0.0936
  265MOL0     C35678   3.180   5.027  -1.421  0.0733 -0.3723  0.3765
  265MOL0     C35679   3.074   5.134  -1.447  0.9039  0.1244  0.1615
  265MOL0     C35680   2.993   5.095  -1.571 -0.4568 -0.5539  0.7173
  265MOL0     C35681   3.069   5.018  -1.690 -0.2637  0.3425 -0.0010
  265MOL0     C35682   3.190   5.100  -1.738  0.7114 -0.7608  0.0789
  265MOL0     C35683   3.140   5.209  -1.838  0.6946 -0.5429  0.6537
  265MOL0     C35684   3.242   5.299  -1.908  0.3357  0.3385 -0.0457
  265MOL0    Cl35685   3.180   5.441  -2.004  0.0858 -0.6784 -0.4531
  265MOL0     C35686   3.263   5.051  -0.977  0.3078 -0.7643 -0.4228
  265MOL0     C35687   3.264   5.081  -0.840 -0.0459 -0.1513 -0.4759
  265MOL0     O35688   3.446   5.295  -0.645 -0.4935 -0.2761 -0.1850
  265MOL0     C35689   3.407   5.445  -0.421 -0.3522 -0.4895 -0.1435
  265MOL0     C35690   3.396   5.506  -0.298 -0.8027  0.7672  0.1940
  265MOL0     N35691   3.216   5.324   0.459 -0.9008  0.5327 -1.2709
  265MOL0     N35692   3.292   5.230   0.507 -0.4628  0.1140 -0.0686
  265MOL0     C35693   3.308   4.626   1.127  0.1954 -0.4505  0.4113
  265MOL0     C35694   3.325   4.490   1.121 -0.7876  1.5500  0.1666
  265MOL0     C35695   3.184   4.038   1.133  0.2470 -0.4072 -1.3233
  265MOL0     C35696   3.220   4.001   1.261  1.2064  0.2613  0.2879
  265MOL0     C35697   3.211   3.870   1.309  1.2906  0.0693  0.6756
  265MOL0     C35698   3.156   3.773   1.221 -0.6492 -0.5431  0.1296
  265MOL0     O35699   3.146   3.654   1.284 -1.0388  0.6908 -1.0287
  265MOL0     C35700   3.146   3.544   1.196  0.0824 -0.0434  0.2490
  265MOL0     C35701   3.114   3.418   1.288  0.7409  0.2268  0.7347
  265MOL0     C35702   2.980   3.430   1.355  0.3433 -0.6583 -0.2196
  265MOL0     C35703   2.975   3.312   1.462  0.2856 -1.0419 -0.0374
  265MOL0     C35704   2.841   3.289   1.512  0.5223 -0.0579 -0.7313
  265MOL0     C35705   2.723   3.284   1.542 -0.3038 -1.1770 -0.0558
  265MOL0     C35706   3.137   3.805   1.083  0.9101  0.8653  0.0020
  265MOL0     C35707   3.140   3.937   1.048 -0.7106 -1.2078 -0.0243
  265MOL0     H35708   3.021   4.366   1.175  0.3383 -0.7192 -0.1478
  265MOL0     H35709   2.971   4.616   1.199 -0.4911 -0.4981  1.6645
  265MOL0     H35710   3.263   4.878   1.015  0.4424  1.0359  0.5520
  265MOL0     H35711   3.092   4.918   0.999  0.9302  1.0452 -1.2313
  265MOL0     H35712   3.102   5.065   1.185 -1.6696 -0.0893 -3.5610
  265MOL0     H35713   3.258   5.019   1.229 -2.3936 -1.0781  1.2014
  265MOL0     H35714   3.207   5.142   0.951 -1.1092 -0.9806  1.1086
  265MOL0     H35715   3.214   5.247   1.094 -2.3871 -0.5213  0.2449
  265MOL0     H35716   3.436   5.149   1.160  1.7279 -0.7002 -0.9894
  265MOL0     H35717   3.431   5.046   1.020 -1.9178 -1.5589  1.5531
  265MOL0     H35718   3.472   5.345   1.025  2.3826 -0.7279  1.7308
  265MOL0     H35719   3.591   5.237   0.972  1.3827  0.2600 -0.3577
  265MOL0     H35720   3.351   5.309   0.801 -0.9861 -2.1956  1.9683
  265MOL0     H35721   3.518   5.363   0.799 -1.2374 -1.2167 -0.9089
  265MOL0     H35722   3.571   5.116   0.781  0.2172  1.8041  2.0084
  265MOL0     H35723   3.400   5.095   0.717 -0.9856  0.7290  0.0200
  265MOL0     H35724   3.542   5.099   0.530  0.8626 -0.6267  1.2870
  265MOL0     H35725   3.620   5.249   0.580  1.7617 -1.3949  0.0348
  265MOL0     H35726   3.503   5.451   0.391 -2.5813  0.8270  0.2038
  265MOL0     H35727   3.120   5.543   0.341  0.2289  3.0426  3.1241
  265MOL0     H35728   3.269   5.633   0.386  3.3594 -1.5674  0.3484
  265MOL0     H35729   3.251   5.449   0.135 -1.8163  0.7207 -1.6718
  265MOL0     H35730   3.372   5.567   0.181 -0.5392 -1.2703  1.3121
  265MOL0     H35731   3.245   5.751   0.113 -0.4335  1.1853 -1.6036
  265MOL0     H35732   3.097   5.684   0.168 -0.0209 -0.9194  1.3018
  265MOL0     H35733   3.115   5.689  -0.095  1.9870  1.1603 -0.2646
  265MOL0     H35734   3.090   5.525  -0.026 -1.1194 -0.6904  0.2680
  265MOL0     H35735   3.091   5.418  -0.222 -1.8447  4.4645 -0.5994
  265MOL0     H35736   3.031   5.318  -0.540 -0.0702  2.8643  1.7986
  265MOL0     H35737   3.100   5.176  -0.461  0.0224  0.7035 -3.3986
  265MOL0     H35738   2.984   5.286  -0.373 -1.4824 -1.1620 -1.4469
  265MOL0     H35739   3.238   5.412  -0.860  0.7825 -0.0902  1.1292
  265MOL0     H35740   3.249   5.360  -1.102  1.0831 -0.3927 -0.4151
  265MOL0     H35741   3.278   4.931  -1.247 -1.7359  0.0570  2.8982
  265MOL0     H35742   3.120   4.981  -1.214 -2.1015 -0.3129 -1.8903
  265MOL0     H35743   3.271   5.051  -1.478 -0.4459  3.4751  0.8824
  265MOL0     H35744   3.143   4.931  -1.458  1.1492 -0.2656 -1.0432
  265MOL0     H35745   3.109   5.237  -1.435 -0.4970  0.5112  1.1564
  265MOL0     H35746   3.004   5.127  -1.364  0.6860  1.1320  0.0718
  265MOL0     H35747   2.914   5.032  -1.528  0.6778 -0.9273  2.3478
  265MOL0     H35748   2.943   5.183  -1.613  2.5322  0.7292 -0.4431
  265MOL0     H35749   2.993   4.995  -1.765  0.8717 -1.3993 -0.6956
  265MOL0     H35750   3.104   4.922  -1.652 -3.9248 -0.7954  0.9351
  265MOL0     H35751   3.247   5.145  -1.656 -1.4145  0.8244  0.7661
  265MOL0     H35752   3.266   5.036  -1.784 -0.4824 -1.0916 -1.5045
  265MOL0     H35753   3.066   5.274  -1.792 -0.7865 -3.0398  1.9885
  265MOL0     H35754   3.082   5.156  -1.914  0.1803 -4.6606  3.6320
  265MOL0     H35755   3.291   5.240  -1.987 -0.2764 -0.7460  0.3623
  265MOL0     H35756   3.312   5.331  -1.831  1.2039 -1.5632  0.0174
  265MOL0     H35757   3.237   4.950  -1.008 -2.9569  0.2448 -1.3330
  265MOL0     H35758   3.291   4.996  -0.779  2.5052 -2.4036 -4.2691
  265MOL0     H35759   3.507   5.452  -0.462  1.4102 -1.0874  3.5789
  265MOL0     H35760   3.486   5.554  -0.263  0.0780 -0.8534  0.2571
  265MOL0     H35761   3.385   4.700   1.108  0.4796 -1.0847 -1.0716
  265MOL0     H35762   3.426   4.456   1.099 -0.6227 -0.1270  3.0178
  265MOL0     H35763   3.257   4.084   1.320 -1.9206  0.6773  1.8898
  265MOL0     H35764   3.232   3.849   1.413 -0.5764 -1.4064  0.8068
  265MOL0     H35765   3.059   3.555   1.131  0.4970  1.4783 -0.1040
  265MOL0     H35766   3.242   3.523   1.148  0.3230 -0.9978  1.0986
  265MOL0     H35767   3.187   3.407   1.368  1.8498  1.3441 -0.0703
  265MOL0     H35768   3.106   3.326   1.231  0.0773  0.2849  0.7319
  265MOL0     H35769   2.908   3.416   1.274 -0.9619  3.3513 -0.0125
  265MOL0     H35770   2.952   3.528   1.395 -0.1608 -1.0790  0.4894
  265MOL0     H35771   3.041   3.343   1.544 -0.0955  0.1848 -0.1670
  265MOL0     H35772   3.014   3.220   1.419  0.2946 -0.8381 -0.4736
  265MOL0     H35773   2.623   3.284   1.579 -1.6456  0.8526 -3.2806
  265MOL0     H35774   3.087   3.739   1.014 -1.5231  3.2859 -0.7403
  265MOL0     H35775   3.117   3.978   0.950 -0.8589 -1.0370  0.0803
  266MOL0     O35776   8.205   7.295   9.807 -0.7262 -0.4920 -0.3179
  266MOL0     C35777   8.105   7.289   9.735 -0.5356 -0.6194  0.4679
  266MOL0     O35778   7.985   7.241   9.769 -0.2623 -0.5225 -0.2286
  266MOL0     C35779   7.946   7.187   9.886  0.6349  0.5070  0.0332
  266MOL0     C35780   7.994   7.214  10.014  0.1931 -0.3318 -0.6092
  266MOL0     C35781   7.950   7.158  10.128  0.6165 -0.1247  0.4228
  266MOL0     C35782   7.841   7.064  10.126 -0.3573 -0.1300 -0.9276
  266MOL0     O35783   7.812   6.994  10.244 -0.4170 -0.6194  1.0165
  266MOL0     C35784   7.676   6.997  10.287  0.0738 -0.1267 -0.4863
  266MOL0     C35785   7.674   6.944  10.434  0.4428 -0.4379  0.1577
  266MOL0     C35786   7.543   6.993  10.503 -1.3277  0.3268  0.1557
  266MOL0     C35787   7.548   6.946  10.650 -0.2751  0.4032  0.4906
  266MOL0     C35788   7.657   7.007  10.737  0.8115 -0.5090  0.4559
  266MOL0     C35789   7.655   7.158  10.725 -0.1721 -0.2346  0.1097
  266MOL0     C35790   7.762   7.223  10.812 -0.6040  0.2111 -0.0892
  266MOL0     C35791   7.712   7.370  10.859 -0.7875 -0.6368 -0.6347
  266MOL0     N35792   7.620   7.355  10.981 -0.0643 -0.5269 -0.1152
  266MOL0     C35793   7.581   7.246  11.060  0.2524 -0.0554  0.5452
  266MOL0     C35794   7.489   7.298  11.153  0.2854  0.1395  0.7070
  266MOL0     C35795   7.417   7.217  11.249 -0.0874 -0.0455 -0.7044
  266MOL0     C35796   7.268   7.167  11.209  0.2311 -0.2943 -0.5823
  266MOL0     C35797   7.179   7.134  11.334  0.5612  0.0828 -0.2982
  266MOL0     C35798   7.038   7.089  11.282 -0.1671 -0.3418 -0.6706
  266MOL0     O35799   7.053   6.972  11.197 -0.5663 -0.1014 -0.3558
  266MOL0     C35800   6.941   6.897  11.170 -0.6248 -0.0586  1.0168
  266MOL0     C35801   6.802   6.937  11.194 -1.1072  0.3081  1.1553
  266MOL0     C35802   6.693   6.863  11.158  0.6029 -0.2181 -0.4160
  266MOL0     C35803   6.567   6.926  11.193 -0.3834  0.1494 -0.4028
  266MOL0     C35804   6.717   6.733  11.115 -0.1182 -0.6497  1.1413
  266MOL0     C35805   6.606   6.641  11.083 -0.5448  0.8646  1.0511
  266MOL0     O35806   6.524   6.600  11.178  0.6359  0.3076 -0.0486
  266MOL0     C35807   6.431   6.504  11.136 -0.1042 -1.2578  0.4515
  266MOL0     C35808   6.456   6.381  11.075 -0.5978 -0.4470 -0.6612
  266MOL0     C35809   6.362   6.290  11.027  0.6223  0.5364 -0.7973
  266MOL0     C35810   6.220   6.317  11.049  0.3211 -0.3100  0.2204
  266MOL0     O35811   6.113   6.249  11.008  0.4912 -0.8315  0.2302
  266MOL0     C35812   6.127   6.132  10.927  0.4524  0.2436  0.5024
  266MOL0     C35813   5.979   6.116  10.893 -0.6356 -0.3223  1.1027
  266MOL0     C35814   5.903   6.059  11.021 -0.9527  0.0358  0.3198
  266MOL0     C35815   5.760   6.036  10.990 -0.4986 -0.0367  0.5922
  266MOL0     C35816   5.656   6.026  11.105  1.2439  0.1307 -0.7227
  266MOL0     C35817   5.693   5.949  11.234  0.0695  0.2669  0.1263
  266MOL0     C35818   5.716   5.804  11.205 -0.6273  0.0296 -0.3073
  266MOL0     C35819   5.757   5.721  11.328 -0.1072  0.3509 -0.2763
  266MOL0    Cl35820   5.916   5.785  11.395 -0.0723 -0.2302 -0.5319
  266MOL0     C35821   6.193   6.436  11.115 -0.2608 -0.2585  0.5669
  266MOL0     C35822   6.297   6.528  11.166  1.9126 -0.7147 -0.2269
  266MOL0     O35823   6.607   6.610  10.960 -0.5795 -0.3204 -0.5870
  266MOL0     C35824   6.848   6.689  11.078  0.1702 -1.0908 -0.9548
  266MOL0     C35825   6.963   6.777  11.100  0.6651  1.9158  0.3561
  266MOL0     N35826   7.483   7.435  11.138  1.1621 -0.1704  0.2898
  266MOL0     N35827   7.551   7.462  11.033 -0.7524  0.7707  1.1592
  266MOL0     C35828   7.791   7.028  10.005  0.4199 -0.0629  0.3177
  266MOL0     C35829   7.838   7.089   9.885 -0.5100  0.0932 -0.9779
  266MOL0     C35830   8.115   7.351   9.600  0.4683  0.2425 -0.8497
  266MOL0     C35831   8.223   7.433   9.571  0.2071  0.1753  0.0647
  266MOL0     C35832   8.239   7.491   9.455  0.2795 -0.0639  0.2057
  266MOL0     C35833   8.152   7.475   9.345  0.7458 -0.3180 -0.0748
  266MOL0     O35834   8.181   7.526   9.214  0.6803  0.9541 -0.1389
  266MOL0     C35835   8.163   7.431   9.106  0.4156 -0.6471 -0.1892
  266MOL0     C35836   8.250   7.474   8.998  0.0133  0.3189 -0.0870
  266MOL0     C35837   8.397   7.423   9.025  0.3285  0.4848 -0.0307
  266MOL0     C35838   8.503   7.472   8.930 -1.2401 -0.2988 -0.7280
  266MOL0     C35839   8.558   7.606   8.958 -0.0377  0.8899 -0.0360
  266MOL0     C35840   8.582   7.722   8.982 -0.3789  0.3111  0.5680
  266MOL0     C35841   8.041   7.392   9.376  0.7001 -0.3924 -0.1383
  266MOL0     C35842   8.024   7.322   9.499  0.0911 -0.6725 -0.9021
  266MOL0     H35843   8.074   7.287  10.024 -0.7461  0.9880 -2.3249
  266MOL0     H35844   7.992   7.202  10.218  1.2160  0.9422 -0.3626
  266MOL0     H35845   7.641   7.100  10.277  2.0761  0.7688  0.9898
  266MOL0     H35846   7.614   6.934  10.223  1.2614 -2.3638  0.4221
  266MOL0     H35847   7.691   6.837  10.449  1.4338 -0.6362 -2.0805
  266MOL0     H35848   7.765   6.982  10.480 -0.2402 -1.9525  3.0209
  266MOL0     H35849   7.553   7.099  10.480  1.5673 -0.1769 -1.3602
  266MOL0     H35850   7.454   6.943  10.462  0.3069 -0.1277 -3.1716
  266MOL0     H35851   7.452   6.966  10.698 -0.5379  1.0651 -0.2751
  266MOL0     H35852   7.559   6.837  10.650 -1.5280  0.2647 -0.0355
  266MOL0     H35853   7.638   6.977  10.841 -1.9844 -4.3260 -0.9073
  266MOL0     H35854   7.748   6.957  10.704 -0.6974 -3.4933  0.4578
  266MOL0     H35855   7.688   7.187  10.624 -1.5564  0.7292 -0.0930
  266MOL0     H35856   7.561   7.205  10.756  1.7880  3.1440  1.4781
  266MOL0     H35857   7.772   7.166  10.904 -1.7373  0.1244 -0.0046
  266MOL0     H35858   7.851   7.228  10.748 -1.6592 -0.0816 -1.6349
  266MOL0     H35859   7.675   7.420  10.769  1.8093  1.6470 -0.5567
  266MOL0     H35860   7.795   7.426  10.902  0.4384 -1.7552 -1.4505
  266MOL0     H35861   7.600   7.140  11.046 -0.2377  0.0846 -1.5241
  266MOL0     H35862   7.483   7.134  11.275  0.6928  0.5834 -0.6277
  266MOL0     H35863   7.410   7.271  11.344  0.0116  0.2832 -0.8850
  266MOL0     H35864   7.276   7.078  11.147  0.6884  0.5016 -1.7109
  266MOL0     H35865   7.232   7.247  11.143 -0.2057  0.2247  0.2580
  266MOL0     H35866   7.166   7.218  11.403 -0.6771  0.8605 -1.4246
  266MOL0     H35867   7.228   7.055  11.391  3.2187 -0.1146 -2.6416
  266MOL0     H35868   6.998   7.173  11.224 -1.4371 -2.0713 -2.4545
  266MOL0     H35869   6.979   7.087  11.374  0.4805  1.6706 -0.1675
  266MOL0     H35870   6.790   7.039  11.229 -0.2811  0.5177  0.8437
  266MOL0     H35871   6.580   7.033  11.213 -1.2897 -0.1246  2.0061
  266MOL0     H35872   6.500   6.906  11.110  1.5166 -1.7389 -1.5812
  266MOL0     H35873   6.529   6.890  11.289 -1.6097  3.1655  0.3825
  266MOL0     H35874   6.561   6.353  11.068 -0.3136  0.9360 -3.1526
  266MOL0     H35875   6.379   6.190  10.989 -1.9759  0.8124 -2.9175
  266MOL0     H35876   6.170   6.149  10.829 -3.4527  1.8624 -1.1421
  266MOL0     H35877   6.158   6.044  10.985  0.3711  0.4420  0.8520
  266MOL0     H35878   5.929   6.203  10.848  0.7850  0.3789  0.8102
  266MOL0     H35879   5.969   6.042  10.813  1.9208  1.0858 -0.6835
  266MOL0     H35880   5.908   6.127  11.107  1.6229 -0.4669  0.6588
  266MOL0     H35881   5.939   5.959  11.046 -2.3849 -0.3592  0.8651
  266MOL0     H35882   5.727   6.123  10.932 -0.3414 -0.0480  0.4875
  266MOL0     H35883   5.751   5.952  10.920  2.0050 -1.2322  1.5758
  266MOL0     H35884   5.568   5.976  11.063 -0.7885  2.5355  0.4216
  266MOL0     H35885   5.621   6.125  11.138  2.7358  0.6717 -0.6677
  266MOL0     H35886   5.776   6.000  11.283 -1.1755  0.3248  2.3231
  266MOL0     H35887   5.609   5.965  11.303 -0.3407 -1.2935  0.0405
  266MOL0     H35888   5.804   5.794  11.140  0.3156 -1.4740  1.1247
  266MOL0     H35889   5.624   5.769  11.158 -0.5987 -0.7867  0.2314
  266MOL0     H35890   5.777   5.617  11.299  0.6950 -0.1194  1.7780
  266MOL0     H35891   5.682   5.709  11.407 -1.0303 -1.8437 -1.3797
  266MOL0     H35892   6.086   6.451  11.131 -0.8526  0.2288 -3.0023
  266MOL0     H35893   6.266   6.619  11.216 -0.6246 -3.2031  3.1715
  266MOL0     H35894   6.860   6.593  11.028  2.6751 -2.5582  2.0609
  266MOL0     H35895   7.057   6.727  11.080 -0.4229 -0.5864  1.0314
  266MOL0     H35896   7.732   6.937   9.998  2.0954 -1.1479 -0.1599
  266MOL0     H35897   7.797   7.067   9.786  0.0887 -1.9411 -0.8223
  266MOL0     H35898   8.292   7.448   9.653 -0.5948  2.3272  0.4146
  266MOL0     H35899   8.335   7.531   9.424  0.7355 -0.9759  0.3955
  266MOL0     H35900   8.195   7.333   9.145  1.6738 -0.3049 -0.3186
  266MOL0     H35901   8.058   7.417   9.080  0.8183 -3.9981 -0.4896
  266MOL0     H35902   8.269   7.581   8.995  2.8149 -0.1034 -0.4298
  266MOL0     H35903   8.215   7.438   8.901  0.5592  0.6337 -0.4067
  266MOL0     H35904   8.398   7.314   9.013 -2.1673  0.0396  2.6389
  266MOL0     H35905   8.428   7.441   9.128  2.9482  2.6416 -1.0883
  266MOL0     H35906   8.453   7.484   8.834  0.1725 -0.4644 -1.5062
  266MOL0     H35907   8.597   7.415   8.932 -0.6869  0.5990  0.8682
  266MOL0     H35908   8.605   7.823   9.008 -1.4399  0.3786  1.3080
  266MOL0     H35909   7.965   7.385   9.299 -0.4256 -0.2743  0.9151
  266MOL0     H35910   7.939   7.259   9.522  1.0885 -1.7821 -0.1325
  267MOL0     O35911   7.602   8.339  10.410 -1.1690  0.7496  0.5983
  267MOL0     C35912   7.551   8.227  10.417 -0.4205 -0.1257  0.5077
  267MOL0     O35913   7.631   8.115  10.422  0.8361 -0.7282 -0.2407
  267MOL0     C35914   7.756   8.119  10.362 -0.1244  1.2536  0.0551
  267MOL0     C35915   7.856   8.031  10.414  0.3002 -0.1346  0.3425
  267MOL0     C35916   7.985   8.025  10.369  0.7171 -1.6597  1.1686
  267MOL0     C35917   8.028   8.119  10.275  0.0158 -0.1618 -0.7578
  267MOL0     O35918   8.168   8.122  10.263  0.0160 -0.0308 -0.1596
  267MOL0     C35919   8.218   8.168  10.137 -0.2240  0.0888  0.3416
  267MOL0     C35920   8.192   8.049  10.035  0.5905  0.3870 -0.2505
  267MOL0     C35921   8.301   7.936  10.060 -0.0684 -0.8277 -0.0175
  267MOL0     C35922   8.296   7.823   9.953  0.4236 -1.2866 -0.2859
  267MOL0     C35923   8.409   7.719   9.974 -0.9723 -1.0513 -0.7111
  267MOL0     C35924   8.382   7.591   9.899  0.1786  0.2828  0.2612
  267MOL0     C35925   8.488   7.484   9.932  0.8141 -0.3623  0.8195
  267MOL0     C35926   8.631   7.515   9.868  0.6919 -0.0302 -0.2822
  267MOL0     N35927   8.626   7.545   9.727 -0.8849 -1.0013  0.4180
  267MOL0     C35928   8.591   7.456   9.618 -0.7283 -1.1167 -0.6284
  267MOL0     C35929   8.646   7.505   9.509  0.0152  0.2319  0.9792
  267MOL0     C35930   8.659   7.436   9.364  0.0288 -0.5227  0.2614
  267MOL0     C35931   8.810   7.408   9.350 -0.4902  0.2004 -0.0626
  267MOL0     C35932   8.845   7.384   9.203  0.3578 -0.1854  0.3742
  267MOL0     C35933   8.971   7.322   9.170 -0.6775  0.3317  0.6579
  267MOL0     O35934   8.961   7.255   9.044  0.0100 -0.9579 -0.1372
  267MOL0     C35935   8.985   7.121   9.042 -0.5857  0.8853  0.1874
  267MOL0     C35936   9.026   7.070   8.913  0.0040  0.2345 -0.1726
  267MOL0     C35937   9.038   6.932   8.901  0.0020 -0.0017  0.6285
  267MOL0     C35938   9.078   6.891   8.758  0.0111 -0.1710  1.1351
  267MOL0     C35939   9.016   6.843   9.006  0.2414 -0.1982 -0.6130
  267MOL0     C35940   9.031   6.697   8.999 -0.1042  0.8680 -0.5528
  267MOL0     O35941   9.029   6.628   8.883  0.3391  0.1743  0.7273
  267MOL0     C35942   9.001   6.492   8.877  0.9381  0.3193  0.0442
  267MOL0     C35943   9.085   6.399   8.933 -0.4273  0.9554  0.1251
  267MOL0     C35944   9.066   6.260   8.910  0.1641  0.8745 -1.0088
  267MOL0     C35945   8.946   6.216   8.843 -0.1868  0.0884  0.2330
  267MOL0     O35946   8.929   6.078   8.832 -0.3082 -0.1228  0.6912
  267MOL0     C35947   8.789   6.033   8.830 -0.3329 -0.1970 -0.3351
  267MOL0     C35948   8.786   5.888   8.876 -0.6171  0.9113 -0.7893
  267MOL0     C35949   8.876   5.792   8.799  0.1109  0.1006  0.3263
  267MOL0     C35950   8.838   5.758   8.658  0.7780  0.3415  0.0393
  267MOL0     C35951   8.941   5.675   8.578 -1.0469 -0.8529 -0.0835
  267MOL0     C35952   8.886   5.580   8.477 -0.6277 -0.5554 -0.7199
  267MOL0     C35953   8.797   5.654   8.372 -0.4258  0.3175 -1.0654
  267MOL0     C35954   8.785   5.570   8.245  0.4842  0.5912  0.1825
  267MOL0    Cl35955   8.708   5.417   8.285  0.6021 -0.2221 -0.4595
  267MOL0     C35956   8.865   6.302   8.777 -0.3491  0.0802 -0.3539
  267MOL0     C35957   8.888   6.444   8.801  0.3134 -0.4012 -0.4562
  267MOL0     O35958   9.032   6.639   9.113  1.0547  0.4299 -0.0761
  267MOL0     C35959   8.968   6.896   9.124 -0.5245 -0.1991  0.2487
  267MOL0     C35960   8.949   7.029   9.142  0.0245 -0.5717  0.3893
  267MOL0     N35961   8.700   7.632   9.536  0.1174 -0.1839  0.3705
  267MOL0     N35962   8.696   7.655   9.663  0.2174  0.3211  0.0605
  267MOL0     C35963   7.930   8.201  10.228  0.2023  0.6409 -0.1645
  267MOL0     C35964   7.793   8.198  10.260 -0.0888 -0.9157 -0.1007
  267MOL0     C35965   7.407   8.225  10.447 -0.3541 -0.1829 -0.3381
  267MOL0     C35966   7.361   8.118  10.518 -0.3159 -1.0031 -0.3252
  267MOL0     C35967   7.228   8.120  10.562 -0.0673  1.2667  0.9015
  267MOL0     C35968   7.138   8.221  10.532  0.1058  0.0744 -0.3624
  267MOL0     O35969   7.007   8.204  10.576  0.4290  0.1615 -0.3782
  267MOL0     C35970   6.913   8.310  10.553 -0.2098 -0.0394 -0.4671
  267MOL0     C35971   6.838   8.281  10.416  0.6851  0.2458  0.6305
  267MOL0     C35972   6.731   8.386  10.392  0.3798  0.3306  0.1572
  267MOL0     C35973   6.658   8.353  10.258  0.2070  0.0747 -0.4085
  267MOL0     C35974   6.593   8.470  10.195  0.1790  0.4440 -0.9405
  267MOL0     C35975   6.535   8.567  10.151 -0.3394 -0.2852  0.0400
  267MOL0     C35976   7.181   8.314  10.442  0.8202 -0.9677  0.7257
  267MOL0     C35977   7.319   8.317  10.408  0.1081 -0.7447  0.0796
  267MOL0     H35978   7.828   7.959  10.490  5.7779 -0.2451  2.7636
  267MOL0     H35979   8.067   7.964  10.407  2.4135  0.0553  0.4783
  267MOL0     H35980   8.168   8.261  10.108 -1.6117  0.5332  3.7012
  267MOL0     H35981   8.323   8.197  10.139 -0.3307  0.5033  0.0607
  267MOL0     H35982   8.094   8.000  10.034  3.0450 -5.5956  2.6966
  267MOL0     H35983   8.211   8.086   9.934  0.9791  2.4087  0.5195
  267MOL0     H35984   8.404   7.971  10.049 -0.1408 -0.2706  0.9474
  267MOL0     H35985   8.291   7.913  10.167 -2.8103  3.0904  0.7729
  267MOL0     H35986   8.202   7.769   9.969 -1.0949  1.0406 -0.8820
  267MOL0     H35987   8.292   7.877   9.858 -0.3025 -1.2140 -0.2210
  267MOL0     H35988   8.500   7.760   9.930 -0.4673  0.0687  1.2765
  267MOL0     H35989   8.427   7.710  10.081 -3.6819 -1.0867 -0.1806
  267MOL0     H35990   8.285   7.552   9.933  0.7041  1.8784  4.0657
  267MOL0     H35991   8.374   7.615   9.793  0.0728  0.6702  0.3549
  267MOL0     H35992   8.496   7.483  10.042  3.4631 -1.4858  0.7049
  267MOL0     H35993   8.457   7.384   9.901  0.0746 -1.0898  3.6139
  267MOL0     H35994   8.704   7.434   9.876  1.1085  0.1858 -1.7680
  267MOL0     H35995   8.674   7.599   9.924  0.3232 -0.6772  1.0150
  267MOL0     H35996   8.550   7.356   9.627 -0.1954 -1.2297  1.0550
  267MOL0     H35997   8.606   7.340   9.368 -0.3442 -0.3343 -0.1800
  267MOL0     H35998   8.614   7.500   9.289 -1.5306  0.8374  2.2477
  267MOL0     H35999   8.840   7.321   9.409  2.0852  1.8453  1.2428
  267MOL0     H36000   8.863   7.500   9.377 -0.5536  0.6508 -1.4057
  267MOL0     H36001   8.844   7.486   9.162  4.0924  0.7558  2.1767
  267MOL0     H36002   8.767   7.316   9.169  0.4344 -0.6983  1.1979
  267MOL0     H36003   8.999   7.258   9.255 -4.8185 -0.8738  1.3521
  267MOL0     H36004   9.044   7.399   9.145  1.3148 -1.6733 -0.0896
  267MOL0     H36005   9.041   7.139   8.832  2.7926  2.1474  1.7752
  267MOL0     H36006   9.008   6.824   8.707  0.6475 -0.4357  0.6042
  267MOL0     H36007   9.097   6.968   8.683  0.4903 -0.0526  1.3738
  267MOL0     H36008   9.169   6.832   8.773 -1.1708 -1.8333  2.2515
  267MOL0     H36009   9.173   6.429   8.990  0.1563 -0.5791  0.0873
  267MOL0     H36010   9.145   6.201   8.957  1.9548  2.5245 -1.8140
  267MOL0     H36011   8.725   6.091   8.897 -1.4135 -0.5831 -1.0017
  267MOL0     H36012   8.750   6.051   8.729  0.2194 -1.6243 -0.8215
  267MOL0     H36013   8.828   5.884   8.977 -0.4433  2.8887 -0.7380
  267MOL0     H36014   8.683   5.853   8.880  0.6999 -3.4429  0.2379
  267MOL0     H36015   8.875   5.697   8.853 -1.8165 -0.5904 -0.8298
  267MOL0     H36016   8.977   5.836   8.795 -1.2139  3.6842  1.8702
  267MOL0     H36017   8.747   5.699   8.668 -0.2015  2.0452  1.7364
  267MOL0     H36018   8.810   5.856   8.618  0.5799  1.1175  1.9750
  267MOL0     H36019   9.012   5.636   8.651 -0.5982  0.5978  0.2849
  267MOL0     H36020   9.004   5.748   8.526 -0.6379 -1.7480 -0.8731
  267MOL0     H36021   8.962   5.519   8.426 -1.2752 -1.3799 -0.7229
  267MOL0     H36022   8.819   5.514   8.532  0.4784 -0.1058  1.2852
  267MOL0     H36023   8.844   5.752   8.356  0.7403  0.1727  0.9979
  267MOL0     H36024   8.700   5.681   8.415 -1.1191  1.6008 -3.2642
  267MOL0     H36025   8.889   5.551   8.219  0.1355  0.9820 -1.6656
  267MOL0     H36026   8.734   5.621   8.163 -0.8729  0.5735  0.9783
  267MOL0     H36027   8.788   6.278   8.705 -0.5450  4.3941 -1.8962
  267MOL0     H36028   8.815   6.511   8.759  1.6341 -0.3623 -2.8249
  267MOL0     H36029   8.936   6.833   9.206 -1.4646 -2.3784 -1.6924
  267MOL0     H36030   8.907   7.057   9.238 -1.1043  0.0118 -0.2636
  267MOL0     H36031   7.963   8.272  10.152  0.8521 -0.2563 -0.7385
  267MOL0     H36032   7.717   8.255  10.206 -0.1081  0.1886  1.0651
  267MOL0     H36033   7.421   8.039  10.563 -1.0359 -1.6528 -0.4714
  267MOL0     H36034   7.179   8.033  10.606 -2.0500  1.2945 -1.0817
  267MOL0     H36035   6.839   8.328  10.631  1.4502 -1.0380  1.4090
  267MOL0     H36036   6.968   8.404  10.543  0.9775 -0.6212  0.3899
  267MOL0     H36037   6.788   8.184  10.431 -0.2995  0.4718 -0.9638
  267MOL0     H36038   6.919   8.275  10.343  0.8581 -0.5116  0.8693
  267MOL0     H36039   6.776   8.486  10.395  0.9524  0.0607  1.7870
  267MOL0     H36040   6.654   8.383  10.471  1.5624  1.8424  1.4395
  267MOL0     H36041   6.582   8.277  10.274  0.0081  0.0026 -1.5714
  267MOL0     H36042   6.730   8.306  10.190 -1.5627 -0.2990 -2.1299
  267MOL0     H36043   6.492   8.660  10.117 -1.7117 -0.7908  0.3331
  267MOL0     H36044   7.115   8.392  10.406  1.3078 -0.3138  1.2229
  267MOL0     H36045   7.358   8.404  10.355 -0.2180  0.0403  1.0863
  268MOL0     O36046   1.530   0.142   6.346  0.7729 -0.0200  0.3190
  268MOL0     C36047   1.533   0.226   6.441  0.6246  0.0095  0.3542
  268MOL0     O36048   1.469   0.214   6.562 -0.2332 -1.3298 -0.5002
  268MOL0     C36049   1.384   0.115   6.596  0.0999  0.0228 -0.3838
  268MOL0     C36050   1.412  -0.023   6.577 -0.1528  0.0989  0.0122
  268MOL0     C36051   1.316  -0.123   6.597 -0.2227 -0.3562 -0.7223
  268MOL0     C36052   1.186  -0.086   6.650  0.4096 -0.2391 -0.4749
  268MOL0     O36053   1.095  -0.186   6.660 -0.7503  0.7899  0.5150
  268MOL0     C36054   0.976  -0.150   6.731  0.4039  1.1176 -0.4630
  268MOL0     C36055   0.897  -0.280   6.749 -0.1713 -0.5859 -1.8344
  268MOL0     C36056   0.759  -0.261   6.812  0.2275 -0.2095 -0.1373
  268MOL0     C36057   0.674  -0.386   6.831 -0.5937 -0.0197 -0.6085
  268MOL0     C36058   0.549  -0.345   6.895 -0.3523 -0.3846 -0.7341
  268MOL0     C36059   0.458  -0.467   6.899  0.7751 -0.1807  0.6752
  268MOL0     C36060   0.315  -0.416   6.921  0.2543  0.0457  1.1917
  268MOL0     C36061   0.236  -0.425   7.048 -0.7636  0.5124  0.3372
  268MOL0     N36062   0.276  -0.337   7.156  0.5006 -0.2425 -0.2997
  268MOL0     C36063   0.386  -0.348   7.240  0.0405  0.1313  0.7015
  268MOL0     C36064   0.369  -0.255   7.337  0.7360  0.9634  0.4072
  268MOL0     C36065   0.439  -0.238   7.471 -0.7097  0.6878 -0.0951
  268MOL0     C36066   0.587  -0.239   7.464 -0.1279 -0.9534  0.4953
  268MOL0     C36067   0.648  -0.119   7.389 -0.0535  0.8268  1.6652
  268MOL0     C36068   0.792  -0.139   7.341  0.1910 -0.6406 -0.9173
  268MOL0     O36069   0.832  -0.037   7.252 -0.1085  0.1922 -0.8509
  268MOL0     C36070   0.968  -0.011   7.232  0.4056 -0.4964  1.1545
  268MOL0     C36071   1.074  -0.035   7.317  0.0483  0.2961 -0.6840
  268MOL0     C36072   1.206  -0.001   7.279  0.3606  0.5874  0.7077
  268MOL0     C36073   1.318  -0.013   7.376 -0.3801  0.2018 -1.1056
  268MOL0     C36074   1.230   0.038   7.145 -0.7990 -0.4299  0.4051
  268MOL0     C36075   1.359   0.055   7.084 -0.4599 -0.3700 -0.3710
  268MOL0     O36076   1.370   0.137   6.977 -0.3279 -0.0114  0.2847
  268MOL0     C36077   1.496   0.170   6.938 -1.0884 -0.8281  0.5243
  268MOL0     C36078   1.552   0.298   6.960 -0.3465  0.4650  0.2164
  268MOL0     C36079   1.681   0.324   6.919  0.1531 -0.0133  0.2525
  268MOL0     C36080   1.750   0.226   6.858 -0.8504  0.7732  0.3923
  268MOL0     O36081   1.887   0.254   6.822  0.4913 -0.0403  0.0844
  268MOL0     C36082   1.918   0.238   6.689 -0.8993 -0.2727 -0.1601
  268MOL0     C36083   2.022   0.345   6.655 -0.2637 -0.3174 -0.2775
  268MOL0     C36084   2.062   0.357   6.509 -0.5959 -0.0269  0.1067
  268MOL0     C36085   2.140   0.491   6.490  0.0305  0.1328 -0.6752
  268MOL0     C36086   2.184   0.506   6.337 -0.8092 -0.2093  0.0958
  268MOL0     C36087   2.290   0.611   6.326 -0.4090  0.3182 -0.2561
  268MOL0     C36088   2.335   0.658   6.185 -0.2763 -0.1347 -0.8017
  268MOL0     C36089   2.396   0.548   6.096 -0.5267 -0.3969 -0.5857
  268MOL0    Cl36090   2.508   0.618   5.974  0.1272  0.0350 -0.1826
  268MOL0     C36091   1.699   0.095   6.839  0.8146  0.5971 -0.9553
  268MOL0     C36092   1.573   0.062   6.883  1.4761 -0.2818 -0.1195
  268MOL0     O36093   1.447  -0.019   7.127 -0.0072  0.0845  0.0476
  268MOL0     C36094   1.123   0.074   7.065  0.0558 -0.1493 -0.1064
  268MOL0     C36095   0.992   0.052   7.106 -0.3796  0.2358 -0.3442
  268MOL0     N36096   0.254  -0.186   7.306 -0.8737  1.2713 -0.2812
  268MOL0     N36097   0.206  -0.230   7.201 -0.2177  0.2030 -0.0651
  268MOL0     C36098   1.154   0.053   6.663 -1.2154 -1.5404  0.8857
  268MOL0     C36099   1.250   0.155   6.635 -0.0280 -0.0682  0.4738
  268MOL0     C36100   1.610   0.351   6.426 -1.2059 -0.1333  0.0206
  268MOL0     C36101   1.706   0.364   6.320  0.8047  1.1183 -0.0146
  268MOL0     C36102   1.785   0.477   6.317 -0.1681  0.9718  0.3103
  268MOL0     C36103   1.775   0.579   6.405 -0.3228 -0.2042 -0.1195
  268MOL0     O36104   1.871   0.680   6.377 -0.0358 -0.4864  0.1842
  268MOL0     C36105   1.879   0.785   6.464 -0.2701 -0.1572 -0.2686
  268MOL0     C36106   1.997   0.882   6.418 -0.4058  0.9081 -0.1241
  268MOL0     C36107   2.079   0.948   6.534 -0.0783  0.7256  0.7066
  268MOL0     C36108   2.009   0.964   6.666  0.5786 -0.1716 -0.3755
  268MOL0     C36109   2.093   1.016   6.783  0.1212 -0.7484  0.2599
  268MOL0     C36110   2.165   1.075   6.862 -0.8162 -0.3973  0.2517
  268MOL0     C36111   1.677   0.565   6.503  0.7448 -0.2018 -0.5237
  268MOL0     C36112   1.594   0.457   6.521  0.7979 -1.0153  0.1100
  268MOL0     H36113   1.510  -0.034   6.533  0.3330  1.1600  0.7785
  268MOL0     H36114   1.348  -0.226   6.584 -2.7023 -1.1834 -0.7420
  268MOL0     H36115   1.004  -0.117   6.831  0.6561  4.6571 -1.5691
  268MOL0     H36116   0.912  -0.079   6.677 -1.4472  0.0456  0.2216
  268MOL0     H36117   0.888  -0.330   6.652 -1.0762  2.6683 -3.5837
  268MOL0     H36118   0.950  -0.336   6.827  0.3822 -0.3231 -2.0215
  268MOL0     H36119   0.776  -0.207   6.906 -0.8935  1.4910 -0.8652
  268MOL0     H36120   0.703  -0.196   6.743 -1.7675 -1.8440 -0.1563
  268MOL0     H36121   0.647  -0.432   6.736 -2.1171 -1.3585  0.4261
  268MOL0     H36122   0.727  -0.456   6.896 -3.8885  0.1409  2.5455
  268MOL0     H36123   0.579  -0.318   6.996  0.6744 -2.1929 -0.5104
  268MOL0     H36124   0.500  -0.268   6.835 -0.8615  0.4657  0.7290
  268MOL0     H36125   0.466  -0.516   6.801  1.8726 -0.2888  0.8104
  268MOL0     H36126   0.473  -0.551   6.968  3.1787  0.1999  0.7022
  268MOL0     H36127   0.297  -0.314   6.887 -2.8482 -0.0297  2.2855
  268MOL0     H36128   0.258  -0.481   6.854 -0.5111 -0.8625  2.6561
  268MOL0     H36129   0.234  -0.523   7.097  0.6021  0.2408 -0.1133
  268MOL0     H36130   0.131  -0.416   7.017 -0.4100 -2.6981 -2.3918
  268MOL0     H36131   0.460  -0.427   7.243 -3.0156 -3.0857 -1.8884
  268MOL0     H36132   0.381  -0.163   7.525 -2.2302 -1.1916  0.9906
  268MOL0     H36133   0.415  -0.328   7.529  2.2731 -0.1435  0.0194
  268MOL0     H36134   0.628  -0.330   7.419  1.6053  0.0524 -0.0680
  268MOL0     H36135   0.619  -0.226   7.568 -0.5017 -2.4230  0.8138
  268MOL0     H36136   0.635  -0.019   7.432  1.1105  2.1169 -0.7647
  268MOL0     H36137   0.580  -0.114   7.303 -2.5317 -2.6315  3.2102
  268MOL0     H36138   0.812  -0.233   7.289 -0.9102  0.7861 -4.1634
  268MOL0     H36139   0.856  -0.135   7.430  0.6158 -1.7144 -1.1573
  268MOL0     H36140   1.063  -0.073   7.418 -0.2638  1.4769 -0.2558
  268MOL0     H36141   1.385  -0.098   7.360  0.8989  1.0226 -0.2569
  268MOL0     H36142   1.379   0.076   7.363  1.2197 -0.5631  0.7969
  268MOL0     H36143   1.280   0.001   7.477  0.2918 -0.3643 -0.7648
  268MOL0     H36144   1.485   0.378   6.989 -1.7448 -0.2600 -0.9079
  268MOL0     H36145   1.708   0.429   6.927 -0.0809  0.1685 -1.1118
  268MOL0     H36146   1.966   0.140   6.679  3.2385  1.3961  1.1076
  268MOL0     H36147   1.831   0.248   6.623 -0.4160  0.3226 -0.7226
  268MOL0     H36148   1.972   0.438   6.682 -0.2704 -0.2328 -0.5761
  268MOL0     H36149   2.108   0.343   6.723 -0.7051 -1.0440  0.2684
  268MOL0     H36150   1.981   0.365   6.436 -2.2365  2.9040  2.0754
  268MOL0     H36151   2.128   0.273   6.484 -1.8583 -0.5623 -1.5914
  268MOL0     H36152   2.084   0.576   6.529 -1.3003 -0.7413 -0.5839
  268MOL0     H36153   2.225   0.480   6.558 -3.0775  1.7774  3.9887
  268MOL0     H36154   2.100   0.534   6.274 -3.8817  0.9742  4.3328
  268MOL0     H36155   2.223   0.408   6.305 -0.6792  0.1244 -0.8020
  268MOL0     H36156   2.268   0.697   6.389 -1.4596  0.1449 -0.3777
  268MOL0     H36157   2.380   0.569   6.372 -0.9189 -4.1495 -2.7496
  268MOL0     H36158   2.413   0.732   6.209 -1.0235  0.4082 -0.0036
  268MOL0     H36159   2.259   0.717   6.132 -0.2091 -0.0754 -0.8336
  268MOL0     H36160   2.323   0.489   6.041  0.7203 -1.8554 -0.7445
  268MOL0     H36161   2.461   0.486   6.158  0.5578 -0.2786 -1.5760
  268MOL0     H36162   1.767   0.020   6.800  1.1142 -2.9635  5.1711
  268MOL0     H36163   1.515  -0.028   6.865 -2.7344  1.6049  2.3222
  268MOL0     H36164   1.137   0.103   6.961  0.8711  0.9957  0.3070
  268MOL0     H36165   0.914   0.069   7.033 -0.1140 -2.5143 -1.3601
  268MOL0     H36166   1.061   0.097   6.696 -0.7890  0.9230 -0.8686
  268MOL0     H36167   1.218   0.256   6.656 -0.3593  0.1251 -0.8719
  268MOL0     H36168   1.716   0.279   6.254 -5.6139 -1.4171  1.5367
  268MOL0     H36169   1.859   0.485   6.237  3.2495 -3.3017  2.5713
  268MOL0     H36170   1.795   0.851   6.486  0.5151  0.2918  1.6182
  268MOL0     H36171   1.921   0.749   6.559  0.6581  0.9486 -0.2390
  268MOL0     H36172   1.949   0.951   6.349 -2.3550  2.1518  2.3164
  268MOL0     H36173   2.075   0.830   6.360 -0.4550 -2.0483  2.2136
  268MOL0     H36174   2.102   1.051   6.505 -2.7985  1.4872  1.0095
  268MOL0     H36175   2.160   0.878   6.557 -0.6819  0.4567  2.0885
  268MOL0     H36176   1.977   0.867   6.705 -0.1709  0.7923  1.5282
  268MOL0     H36177   1.917   1.022   6.651  1.6611  1.4620 -1.0462
  268MOL0     H36178   2.241   1.094   6.935  2.5905 -2.5291 -2.4471
  268MOL0     H36179   1.658   0.650   6.568 -1.7467 -0.2612 -1.0609
  268MOL0     H36180   1.517   0.471   6.596 -0.2992  2.6300 -1.4785
  269MOL0     O36181   7.207   2.889  10.325 -0.0203 -0.6508  0.1884
  269MOL0     C36182   7.249   2.951  10.227  0.9182 -0.7571  0.0474
  269MOL0     O36183   7.370   2.931  10.172 -0.4558 -0.2445 -0.3507
  269MOL0     C36184   7.465   2.852  10.233 -0.0766  0.4132 -0.9385
  269MOL0     C36185   7.555   2.792  10.142  0.0769 -0.0818  0.4882
  269MOL0     C36186   7.680   2.746  10.180 -0.2013 -0.8391  0.4323
  269MOL0     C36187   7.711   2.742  10.318 -0.1979  0.0295 -0.3714
  269MOL0     O36188   7.836   2.699  10.364  0.1045 -0.3522 -0.0719
  269MOL0     C36189   7.830   2.588  10.454 -0.0331  0.4155  0.2143
  269MOL0     C36190   7.949   2.493  10.425 -0.7347 -0.5733  0.1155
  269MOL0     C36191   7.974   2.402  10.538  0.7502  0.2575 -0.7452
  269MOL0     C36192   8.117   2.334  10.537 -0.3004 -0.6087  1.1314
  269MOL0     C36193   8.128   2.193  10.596 -0.9303  0.9903  1.1908
  269MOL0     C36194   8.272   2.136  10.551  0.3822 -0.2789  0.1164
  269MOL0     C36195   8.286   1.996  10.630 -0.4955 -0.7550  0.3482
  269MOL0     C36196   8.416   1.922  10.585 -0.6324 -0.4200 -0.6230
  269MOL0     N36197   8.519   1.960  10.684 -0.7081 -0.2303  0.5520
  269MOL0     C36198   8.587   2.076  10.686 -0.9391  0.3939  0.9811
  269MOL0     C36199   8.647   2.080  10.803 -0.4686  0.1413 -0.5918
  269MOL0     C36200   8.740   2.196  10.852 -0.2450 -0.1231 -0.2398
  269MOL0     C36201   8.681   2.283  10.965  0.9089 -0.9281  0.1230
  269MOL0     C36202   8.792   2.339  11.056  0.6500 -0.7517 -0.3167
  269MOL0     C36203   8.742   2.450  11.160 -0.0528  0.9953 -0.5912
  269MOL0     O36204   8.845   2.553  11.186  0.0116  0.0045 -0.1810
  269MOL0     C36205   8.801   2.669  11.247  0.0434 -0.5441  0.6898
  269MOL0     C36206   8.691   2.672  11.327  0.4230  0.1095 -0.4518
  269MOL0     C36207   8.648   2.782  11.400  0.1891  0.0338 -0.3202
  269MOL0     C36208   8.513   2.769  11.464  0.6959  0.4283 -0.0251
  269MOL0     C36209   8.739   2.888  11.409  0.7003  0.0603 -0.3302
  269MOL0     C36210   8.737   2.988  11.514  0.4507 -1.0948 -0.4666
  269MOL0     O36211   8.642   2.977  11.616  0.7366  0.6144  0.3199
  269MOL0     C36212   8.651   3.041  11.732 -0.5222  0.0831 -0.1468
  269MOL0     C36213   8.685   3.180  11.740 -0.3085  0.7217 -0.4651
  269MOL0     C36214   8.679   3.246  11.864  0.2350  0.4650 -0.3364
  269MOL0     C36215   8.639   3.181  11.986 -0.4863 -1.3699 -0.1823
  269MOL0     O36216   8.618   3.226  12.110 -0.7388  1.1863 -0.5400
  269MOL0     C36217   8.614   3.366  12.139  0.3512 -0.3377 -0.4249
  269MOL0     C36218   8.501   3.388  12.244 -0.0248  0.5034 -0.6277
  269MOL0     C36219   8.383   3.290  12.244 -0.0167  0.5930  0.0213
  269MOL0     C36220   8.289   3.318  12.357  0.0872  0.6501  0.5922
  269MOL0     C36221   8.179   3.219  12.367 -0.8732  0.1730 -0.3868
  269MOL0     C36222   8.112   3.173  12.242  0.4481 -0.1530  0.9670
  269MOL0     C36223   8.035   3.280  12.156  0.6810 -0.2016  0.1650
  269MOL0     C36224   7.895   3.314  12.218  0.4626  0.0792 -0.4183
  269MOL0    Cl36225   7.823   3.401  12.075  0.3336 -0.2338 -0.4454
  269MOL0     C36226   8.620   3.042  11.969 -0.6568  0.1475  0.5266
  269MOL0     C36227   8.626   2.978  11.856 -0.1277 -0.1663  0.5041
  269MOL0     O36228   8.822   3.080  11.506  0.4357 -0.1991  0.3783
  269MOL0     C36229   8.860   2.883  11.328  0.4989 -1.1306  0.6859
  269MOL0     C36230   8.888   2.774  11.246 -0.0834 -0.7286 -0.1608
  269MOL0     N36231   8.623   1.967  10.873 -0.5780  0.3493  0.4707
  269MOL0     N36232   8.550   1.891  10.798 -0.5471 -0.0480  0.4895
  269MOL0     C36233   7.623   2.795  10.410 -0.1785 -0.1802  0.5302
  269MOL0     C36234   7.502   2.850  10.374  0.7367 -0.5215  0.7146
  269MOL0     C36235   7.177   3.071  10.176 -0.3416 -0.2219 -0.5346
  269MOL0     C36236   7.216   3.157  10.059  1.0464  0.1133  0.6268
  269MOL0     C36237   7.140   3.274  10.027  0.6875  0.5041  0.0241
  269MOL0     C36238   7.023   3.303  10.098 -0.4363 -0.2772  0.3433
  269MOL0     O36239   6.949   3.419  10.075 -0.1589 -0.1022 -0.1879
  269MOL0     C36240   7.021   3.526  10.002 -0.7839  1.2362 -0.2089
  269MOL0     C36241   6.938   3.652  10.003 -0.2608 -0.2351  0.4967
  269MOL0     C36242   6.894   3.705  10.142 -0.4338  0.7080  0.9733
  269MOL0     C36243   6.753   3.754  10.147  0.2638 -0.1936 -0.6589
  269MOL0     C36244   6.652   3.651  10.111  0.3778  0.7314 -0.1343
  269MOL0     C36245   6.556   3.571  10.091 -0.7578 -0.4282 -0.1176
  269MOL0     C36246   6.979   3.220  10.202  0.2567  0.6650  0.9972
  269MOL0     C36247   7.065   3.114  10.250  0.1838 -0.2647  0.9575
  269MOL0     H36248   7.536   2.807  10.037  0.7897  2.2602  0.6413
  269MOL0     H36249   7.753   2.713  10.107 -0.1989 -3.9238  1.7119
  269MOL0     H36250   7.839   2.615  10.560 -0.4054  2.8458 -0.3190
  269MOL0     H36251   7.736   2.533  10.448 -0.1849  0.7845 -1.1793
  269MOL0     H36252   7.936   2.460  10.322  0.2733 -2.5235  0.5752
  269MOL0     H36253   8.041   2.552  10.425 -1.1047  0.1093  2.2928
  269MOL0     H36254   7.952   2.444  10.636  0.8642  1.0484 -1.0558
  269MOL0     H36255   7.899   2.325  10.515 -0.6282  1.3894 -0.1682
  269MOL0     H36256   8.165   2.340  10.439 -1.0937 -1.0663  0.7078
  269MOL0     H36257   8.173   2.391  10.612  2.4699 -1.6610  0.0174
  269MOL0     H36258   8.118   2.186  10.705 -3.2815  1.4027  1.0602
  269MOL0     H36259   8.056   2.119  10.559  1.4228 -0.9787  0.3406
  269MOL0     H36260   8.275   2.120  10.443  3.2438  2.8083 -0.4293
  269MOL0     H36261   8.359   2.199  10.571  2.1888 -3.0852  1.6732
  269MOL0     H36262   8.309   2.015  10.735  3.9678  0.2975 -0.5949
  269MOL0     H36263   8.201   1.931  10.608 -0.8217 -0.3136  0.2855
  269MOL0     H36264   8.448   1.958  10.487 -2.2091  0.3720 -0.8859
  269MOL0     H36265   8.386   1.817  10.586  1.4353 -1.0467  0.4194
  269MOL0     H36266   8.602   2.153  10.612  1.6307 -0.6154  0.3165
  269MOL0     H36267   8.834   2.154  10.888 -0.2693  0.2557  0.2816
  269MOL0     H36268   8.762   2.261  10.768  1.1024  0.8457  0.8251
  269MOL0     H36269   8.636   2.234  11.052  1.6849  4.0107  3.7421
  269MOL0     H36270   8.615   2.359  10.922 -2.3701 -3.6916 -0.1735
  269MOL0     H36271   8.867   2.391  10.996  0.4090 -0.9708 -0.8141
  269MOL0     H36272   8.841   2.254  11.105 -0.9681 -0.6344  1.6380
  269MOL0     H36273   8.732   2.403  11.258  0.0320  1.0424 -0.5604
  269MOL0     H36274   8.641   2.481  11.133 -2.1505 -4.6718 -0.5951
  269MOL0     H36275   8.613   2.598  11.321  0.8727 -0.6583  2.2379
  269MOL0     H36276   8.433   2.744  11.393 -3.8482  2.2169  4.0003
  269MOL0     H36277   8.514   2.708  11.555 -1.1897  0.5778  0.1311
  269MOL0     H36278   8.474   2.865  11.498 -1.8175  0.4927 -2.6440
  269MOL0     H36279   8.691   3.240  11.650 -2.8994 -0.2134 -1.3894
  269MOL0     H36280   8.683   3.354  11.857 -2.0985  0.4856 -4.1962
  269MOL0     H36281   8.709   3.388  12.188  0.8237 -2.0723 -0.4966
  269MOL0     H36282   8.588   3.424  12.050  1.1145 -2.8500 -2.3765
  269MOL0     H36283   8.553   3.374  12.339  1.9497  2.0389 -1.4046
  269MOL0     H36284   8.454   3.486  12.244 -0.4144  0.3391  0.8799
  269MOL0     H36285   8.422   3.189  12.258 -0.3583  0.5166  0.4336
  269MOL0     H36286   8.339   3.298  12.144  0.1942 -0.1775 -0.1385
  269MOL0     H36287   8.345   3.310  12.451  2.8129  2.7278 -0.7155
  269MOL0     H36288   8.246   3.419  12.352  0.6235  0.9621  1.8545
  269MOL0     H36289   8.096   3.255  12.428 -0.9545  1.6956 -1.3559
  269MOL0     H36290   8.215   3.129  12.417 -0.4284  1.6127  2.0663
  269MOL0     H36291   8.192   3.124  12.187  1.0765  1.4147  0.4186
  269MOL0     H36292   8.046   3.089  12.266  1.4080 -1.2767 -0.1987
  269MOL0     H36293   8.022   3.253  12.051  0.0345 -1.6935  0.6030
  269MOL0     H36294   8.088   3.374  12.143  0.2004 -0.4021 -6.0453
  269MOL0     H36295   7.908   3.385  12.300  4.7186  3.0656 -3.2574
  269MOL0     H36296   7.837   3.227  12.250  0.9349  0.2061  0.8774
  269MOL0     H36297   8.594   2.976  12.051  0.1129 -0.5825  0.2021
  269MOL0     H36298   8.608   2.871  11.858 -0.8012 -0.1638 -2.0571
  269MOL0     H36299   8.927   2.967  11.313 -3.2126  1.7277 -1.7008
  269MOL0     H36300   8.975   2.754  11.185  4.1138 -3.6620  5.7087
  269MOL0     H36301   7.652   2.802  10.514  0.2764 -2.0471  0.5736
  269MOL0     H36302   7.433   2.890  10.448 -2.4208 -0.7943 -1.8243
  269MOL0     H36303   7.313   3.132  10.018  0.3984 -3.1428  0.8322
  269MOL0     H36304   7.159   3.328   9.935 -0.3040  0.2405 -0.3539
  269MOL0     H36305   7.123   3.543  10.038 -0.7015 -1.9471  1.4981
  269MOL0     H36306   7.034   3.487   9.901  2.8161  2.1716 -0.2441
  269MOL0     H36307   6.850   3.637   9.940 -0.8665  0.6257  1.1278
  269MOL0     H36308   7.006   3.729   9.967  0.7675 -1.7521 -0.9901
  269MOL0     H36309   6.966   3.785  10.162 -0.2868  1.3168 -1.6432
  269MOL0     H36310   6.900   3.625  10.216  0.0956  0.0075  0.1918
  269MOL0     H36311   6.733   3.843  10.086 -3.4398 -0.8717 -0.6577
  269MOL0     H36312   6.733   3.784  10.250 -0.4167 -0.0965 -0.8158
  269MOL0     H36313   6.473   3.506  10.076 -1.6934  0.3887  1.3553
  269MOL0     H36314   6.893   3.254  10.259 -1.8770  0.1321 -1.6633
  269MOL0     H36315   7.034   3.075  10.347  2.7111 -0.6450  1.6864
  270MOL0     O36316   3.611   4.016   8.644  0.3948  0.4948  0.3202
  270MOL0     C36317   3.501   4.070   8.626 -1.4354  0.2113  0.0068
  270MOL0     O36318   3.379   4.024   8.648 -0.0782 -0.6860 -0.0227
  270MOL0     C36319   3.350   3.901   8.709 -0.5745 -0.2163  0.2933
  270MOL0     C36320   3.272   3.904   8.826 -0.1316 -0.4931 -0.3457
  270MOL0     C36321   3.261   3.784   8.896 -0.7863  0.5615  0.1887
  270MOL0     C36322   3.316   3.661   8.854 -0.8385 -0.4362  0.1639
  270MOL0     O36323   3.312   3.552   8.934 -0.4393  0.1624 -0.4083
  270MOL0     C36324   3.335   3.429   8.875 -0.3789 -1.0720  0.6071
  270MOL0     C36325   3.279   3.307   8.930  0.4930 -0.0693 -0.1469
  270MOL0     C36326   3.156   3.332   9.022  0.6736  0.0103 -0.9625
  270MOL0     C36327   3.107   3.197   9.082 -0.1581 -0.8839  0.0821
  270MOL0     C36328   3.159   3.153   9.219  0.1606  0.1595  1.2300
  270MOL0     C36329   3.145   2.998   9.244  0.6438 -0.2162  0.5325
  270MOL0     C36330   3.175   2.961   9.390  0.3592  0.6080 -0.5281
  270MOL0     C36331   3.305   3.026   9.458 -0.4262  0.7508 -0.2346
  270MOL0     N36332   3.433   3.011   9.379  0.0509  0.3703  0.6182
  270MOL0     C36333   3.506   2.892   9.384  0.5618  0.7390 -1.0581
  270MOL0     C36334   3.605   2.902   9.296  0.1817 -0.4704  1.0761
  270MOL0     C36335   3.703   2.797   9.253 -0.6269 -0.6494  0.5044
  270MOL0     C36336   3.822   2.787   9.354  0.2409  0.5139  0.4774
  270MOL0     C36337   3.891   2.920   9.364 -0.9208  0.1602  0.4724
  270MOL0     C36338   4.026   2.909   9.441  0.0783 -0.5232  0.5890
  270MOL0     O36339   4.147   2.878   9.370  0.9856  0.1768 -0.4671
  270MOL0     C36340   4.218   2.979   9.302 -0.3197  0.3999  0.6831
  270MOL0     C36341   4.174   3.110   9.286  0.3475  0.5868  0.3147
  270MOL0     C36342   4.227   3.199   9.201  0.3115  1.2547  0.0892
  270MOL0     C36343   4.172   3.337   9.184 -0.1523  0.2104 -0.6764
  270MOL0     C36344   4.345   3.153   9.126  0.8277  0.5084  0.1794
  270MOL0     C36345   4.425   3.225   9.036  0.2081  0.0173 -0.3619
  270MOL0     O36346   4.468   3.161   8.921 -0.3455 -0.0312 -0.3487
  270MOL0     C36347   4.572   3.215   8.846  0.6442  0.3995 -0.0851
  270MOL0     C36348   4.695   3.255   8.901  0.5062 -0.2820  0.5303
  270MOL0     C36349   4.794   3.310   8.824  0.4653  0.2979 -1.3520
  270MOL0     C36350   4.767   3.327   8.684  0.0574 -0.3013  0.5101
  270MOL0     O36351   4.855   3.362   8.584  0.0908  0.6810 -0.2178
  270MOL0     C36352   4.994   3.372   8.621 -0.0650  0.7241  0.3784
  270MOL0     C36353   5.066   3.490   8.558  0.2891  0.7478 -0.4611
  270MOL0     C36354   5.008   3.531   8.427  0.6277 -0.7075 -0.8063
  270MOL0     C36355   5.029   3.426   8.318 -0.0162 -0.6960  0.3205
  270MOL0     C36356   4.941   3.465   8.191 -1.1087 -1.3163  0.3873
  270MOL0     C36357   4.970   3.386   8.068  0.4994  0.4243  1.1100
  270MOL0     C36358   4.865   3.406   7.957 -0.6218 -0.3771  0.0401
  270MOL0     C36359   4.886   3.359   7.818  0.4924  0.2763  0.5700
  270MOL0    Cl36360   4.725   3.327   7.728  0.0035 -0.3440  0.5786
  270MOL0     C36361   4.654   3.274   8.628  0.3022  0.2789  0.2226
  270MOL0     C36362   4.554   3.234   8.708 -0.1521  0.6699 -0.5090
  270MOL0     O36363   4.438   3.341   9.062  0.7214 -0.1761 -0.6051
  270MOL0     C36364   4.394   3.018   9.143 -0.5307  0.1818 -0.6866
  270MOL0     C36365   4.330   2.934   9.234  0.1338 -0.0954  0.9131
  270MOL0     N36366   3.584   3.019   9.223 -0.4856  0.1592  0.1882
  270MOL0     N36367   3.477   3.081   9.269  0.5950 -0.2034  0.5195
  270MOL0     C36368   3.394   3.662   8.736  0.2944  0.2640 -0.3092
  270MOL0     C36369   3.401   3.780   8.661 -0.0321  0.7222  0.0502
  270MOL0     C36370   3.513   4.206   8.563  0.3583 -0.7330  1.2593
  270MOL0     C36371   3.635   4.253   8.521 -0.2868 -0.0003 -0.0373
  270MOL0     C36372   3.649   4.380   8.477  0.1903 -0.1648  1.3686
  270MOL0     C36373   3.539   4.467   8.447  0.1746  0.8924 -0.6932
  270MOL0     O36374   3.566   4.583   8.369  0.2033 -0.4062 -0.7091
  270MOL0     C36375   3.467   4.635   8.283  0.0095  0.1847  0.1558
  270MOL0     C36376   3.526   4.765   8.212 -0.0902  0.2022  0.0048
  270MOL0     C36377   3.570   4.727   8.068 -0.5896 -1.1247 -0.4797
  270MOL0     C36378   3.594   4.857   7.995 -0.7972  0.2538  0.2348
  270MOL0     C36379   3.471   4.915   7.959  1.1955  0.0967 -0.4323
  270MOL0     C36380   3.359   4.961   7.929  0.2190 -0.9222  0.0882
  270MOL0     C36381   3.412   4.412   8.477 -0.5121 -0.4404  0.8036
  270MOL0     C36382   3.397   4.288   8.548 -0.9587  0.7510  0.5872
  270MOL0     H36383   3.248   4.005   8.856  0.3330 -0.7888  1.0873
  270MOL0     H36384   3.216   3.762   8.992 -0.1673 -3.1406 -0.2252
  270MOL0     H36385   3.292   3.430   8.774 -0.1061 -2.9396  0.4266
  270MOL0     H36386   3.441   3.419   8.850 -0.1209  0.2896  1.0596
  270MOL0     H36387   3.233   3.233   8.863 -1.2320 -1.4383  2.3693
  270MOL0     H36388   3.365   3.265   8.982  0.5412  2.3825  1.8922
  270MOL0     H36389   3.177   3.408   9.098  1.6882  1.1060 -2.2833
  270MOL0     H36390   3.079   3.366   8.952 -0.2694  5.6040  2.2109
  270MOL0     H36391   2.997   3.198   9.083 -0.2234  2.2645  1.2255
  270MOL0     H36392   3.132   3.119   9.010  4.3110  1.3378 -1.0893
  270MOL0     H36393   3.266   3.173   9.229  0.1478 -0.3184  2.5268
  270MOL0     H36394   3.116   3.215   9.298 -0.1890 -0.6145  1.6567
  270MOL0     H36395   3.041   2.971   9.229  0.9235 -1.6314  0.9543
  270MOL0     H36396   3.206   2.927   9.188 -0.4704 -0.4899 -0.3528
  270MOL0     H36397   3.094   2.992   9.457  0.9286 -0.9399  0.9431
  270MOL0     H36398   3.182   2.853   9.404  2.4806  0.8983  1.2537
  270MOL0     H36399   3.323   3.023   9.566  2.9342  0.8099 -0.6865
  270MOL0     H36400   3.268   3.129   9.452 -0.1390  1.0702  2.4508
  270MOL0     H36401   3.476   2.798   9.430  2.1644  0.7999  0.1860
  270MOL0     H36402   3.660   2.697   9.257  1.5926 -1.6771 -0.0147
  270MOL0     H36403   3.717   2.803   9.144  0.6179  2.6917  0.7352
  270MOL0     H36404   3.897   2.727   9.300 -0.2980  1.9562 -2.0671
  270MOL0     H36405   3.783   2.752   9.450  0.7599  1.9087  1.2262
  270MOL0     H36406   3.831   2.988   9.425 -0.3581  1.1736 -0.0645
  270MOL0     H36407   3.922   2.959   9.266  1.3560  0.4861  1.2591
  270MOL0     H36408   4.023   2.825   9.512 -1.8549 -1.0011  0.0108
  270MOL0     H36409   4.045   2.995   9.506  1.2279  0.1556 -0.6243
  270MOL0     H36410   4.077   3.138   9.326 -0.9340  1.1256 -2.8750
  270MOL0     H36411   4.178   3.369   9.080 -1.0235  2.9596  0.0253
  270MOL0     H36412   4.068   3.345   9.216  0.4500 -0.2136  1.5934
  270MOL0     H36413   4.238   3.386   9.257  0.5663 -0.3399 -0.9382
  270MOL0     H36414   4.716   3.258   9.008 -3.3899  0.1014  1.4240
  270MOL0     H36415   4.878   3.346   8.883  2.0962 -2.7493 -1.6310
  270MOL0     H36416   5.006   3.389   8.728 -0.7779 -0.6908  0.7187
  270MOL0     H36417   5.039   3.274   8.601  1.6805  1.9369 -2.1755
  270MOL0     H36418   5.041   3.565   8.633 -0.9979 -1.0576  0.9953
  270MOL0     H36419   5.174   3.481   8.544 -0.1820 -2.4417 -3.5823
  270MOL0     H36420   5.053   3.624   8.392  1.7307 -1.4505 -1.4324
  270MOL0     H36421   4.902   3.551   8.442  1.2141  1.7438  0.6577
  270MOL0     H36422   5.137   3.424   8.300  0.1069  1.7705  0.4929
  270MOL0     H36423   4.996   3.325   8.347 -1.0575 -1.0171 -1.8049
  270MOL0     H36424   4.947   3.572   8.168  0.5133 -1.2629  0.9089
  270MOL0     H36425   4.835   3.446   8.210 -1.1267 -2.5389 -0.8079
  270MOL0     H36426   5.063   3.420   8.023 -0.9734  1.0465 -1.7625
  270MOL0     H36427   4.984   3.281   8.095 -1.0182 -0.2879 -0.5730
  270MOL0     H36428   4.844   3.513   7.946 -1.8825 -0.6402 -0.3935
  270MOL0     H36429   4.771   3.355   7.982  0.6053 -2.2211  1.1535
  270MOL0     H36430   4.947   3.430   7.762 -0.3108 -0.2254 -1.0035
  270MOL0     H36431   4.929   3.259   7.809 -0.7778 -0.2385  0.0198
  270MOL0     H36432   4.633   3.284   8.522 -5.5196  0.8966  1.1312
  270MOL0     H36433   4.458   3.211   8.662 -0.7136  2.3927 -0.2671
  270MOL0     H36434   4.486   2.985   9.096 -0.5434  0.0710 -0.6350
  270MOL0     H36435   4.366   2.832   9.249 -2.6585 -1.1077  1.3968
  270MOL0     H36436   3.467   3.587   8.707  0.5950 -0.1034  1.3173
  270MOL0     H36437   3.466   3.782   8.574 -1.9191 -0.2034 -1.4502
  270MOL0     H36438   3.732   4.204   8.528 -0.1925  0.1287 -0.4670
  270MOL0     H36439   3.750   4.416   8.463  0.5069 -0.6209  2.3691
  270MOL0     H36440   3.434   4.563   8.208  2.1808 -0.4423 -0.2937
  270MOL0     H36441   3.388   4.663   8.353  1.6540  0.9327  1.8178
  270MOL0     H36442   3.614   4.806   8.262 -1.6731  3.5800  0.2525
  270MOL0     H36443   3.443   4.836   8.207 -2.3190 -2.2672 -4.0923
  270MOL0     H36444   3.482   4.676   8.027 -2.4849  0.5270  1.2884
  270MOL0     H36445   3.660   4.665   8.059  0.9223  1.1068 -1.6765
  270MOL0     H36446   3.646   4.843   7.901  0.7268  1.2983  0.8754
  270MOL0     H36447   3.640   4.928   8.065  0.5265 -1.7848  1.5325
  270MOL0     H36448   3.275   5.024   7.909 -1.4040 -1.6480  3.7850
  270MOL0     H36449   3.318   4.464   8.458 -0.6945 -0.3594  1.8773
  270MOL0     H36450   3.301   4.249   8.579 -1.0036 -0.8014 -1.3131
  271MOL0     O36451  10.356   3.478   9.078  0.0949  0.0150 -0.1665
  271MOL0     C36452  10.292   3.492   9.184  0.6193 -0.4893  0.1519
  271MOL0     O36453  10.327   3.564   9.289  0.3002 -0.7655 -0.0617
  271MOL0     C36454  10.440   3.654   9.280  0.2994  0.1904 -0.3160
  271MOL0     C36455  10.561   3.626   9.210 -0.5462  0.4768  0.1517
  271MOL0     C36456  10.656   3.730   9.198  0.0469  0.6703  0.3667
  271MOL0     C36457  10.632   3.852   9.251 -0.7757  0.2913 -0.2744
  271MOL0     O36458  10.734   3.943   9.233  0.7752 -0.5398 -0.7539
  271MOL0     C36459  10.691   4.079   9.217  0.6517  0.4893  0.0824
  271MOL0     C36460  10.794   4.155   9.133 -1.2710 -0.2673  0.3665
  271MOL0     C36461  10.816   4.136   8.979  0.1536  0.5773 -0.3436
  271MOL0     C36462  10.706   4.202   8.890 -0.1208  0.3268  0.3313
  271MOL0     C36463  10.745   4.164   8.748 -0.3236  0.1739  1.1281
  271MOL0     C36464  10.641   4.232   8.657 -0.1771  0.4383  0.0177
  271MOL0     C36465  10.652   4.163   8.515 -1.0868 -0.1602  0.5458
  271MOL0     C36466  10.544   4.226   8.426  0.2243 -0.8955 -0.2407
  271MOL0     N36467  10.579   4.361   8.373  0.2087  0.5950  0.3427
  271MOL0     C36468  10.687   4.387   8.294 -0.3002  0.6407  0.2581
  271MOL0     C36469  10.706   4.523   8.293 -0.4581  0.0109  0.6747
  271MOL0     C36470  10.809   4.587   8.207 -0.8725 -0.0078 -0.0868
  271MOL0     C36471  10.741   4.664   8.098  0.8149  1.3677  0.1895
  271MOL0     C36472  10.825   4.636   7.965  1.0389  0.2800  0.1027
  271MOL0     C36473  10.750   4.655   7.831  0.7431 -0.1097 -0.7808
  271MOL0     O36474  10.675   4.529   7.821 -0.1001 -0.3089  0.0398
  271MOL0     C36475  10.610   4.502   7.704  0.6474 -0.4631  0.1339
  271MOL0     C36476  10.596   4.585   7.592 -0.1347  0.3106 -0.1854
  271MOL0     C36477  10.543   4.521   7.479  0.6209  0.2656  0.8207
  271MOL0     C36478  10.562   4.592   7.339  0.2753 -0.6142 -0.2401
  271MOL0     C36479  10.486   4.397   7.477 -0.0421  0.3449  0.1904
  271MOL0     C36480  10.412   4.328   7.360 -0.4799  0.7476 -0.9617
  271MOL0     O36481  10.310   4.239   7.395  0.0371  0.1948 -0.7061
  271MOL0     C36482  10.247   4.165   7.296  0.3328  0.1781  0.2275
  271MOL0     C36483  10.321   4.089   7.198  0.1803  0.0779  0.1886
  271MOL0     C36484  10.251   4.017   7.098  0.1515  0.3285  0.0032
  271MOL0     C36485  10.112   4.027   7.086 -0.0511  0.0769  0.3337
  271MOL0     O36486  10.028   3.986   6.984  0.3905  0.3238  0.0067
  271MOL0     C36487  10.062   3.893   6.881 -0.3734 -0.0358 -0.9124
  271MOL0     C36488  10.001   3.752   6.912 -0.1424 -0.0368 -0.1777
  271MOL0     C36489   9.855   3.740   6.958  1.0292 -0.6455  0.3725
  271MOL0     C36490   9.753   3.797   6.865 -0.2671 -0.4068  0.3395
  271MOL0     C36491   9.613   3.759   6.905  0.6196 -0.2782 -0.4458
  271MOL0     C36492   9.503   3.840   6.825  0.6853  0.1672  0.0059
  271MOL0     C36493   9.476   3.972   6.887 -0.0410  0.0635  0.1891
  271MOL0     C36494   9.391   4.062   6.803  0.0817 -1.5222 -0.0533
  271MOL0    Cl36495   9.345   4.217   6.888  0.2897  0.0889  0.1695
  271MOL0     C36496  10.054   4.109   7.181  0.5836  1.1830 -0.3328
  271MOL0     C36497  10.115   4.174   7.289  0.4293  0.6416 -1.2873
  271MOL0     O36498  10.453   4.340   7.246 -0.2917  0.2852  0.3159
  271MOL0     C36499  10.496   4.324   7.596 -0.5987  0.4820  0.7561
  271MOL0     C36500  10.561   4.380   7.707 -0.2493 -0.1919 -0.7667
  271MOL0     N36501  10.613   4.571   8.378 -0.4033 -0.0871 -0.7402
  271MOL0     N36502  10.533   4.476   8.423  0.5159  0.0081 -1.1510
  271MOL0     C36503  10.519   3.885   9.311  0.1265  0.0268  0.3580
  271MOL0     C36504  10.417   3.790   9.322 -0.5141  0.4864 -0.9778
  271MOL0     C36505  10.175   3.399   9.219  0.0151 -0.0293 -0.0658
  271MOL0     C36506  10.132   3.294   9.133  0.0858 -0.7253  0.3949
  271MOL0     C36507  10.008   3.235   9.159 -0.5066  0.3399 -0.2599
  271MOL0     C36508   9.944   3.255   9.280 -0.1276 -0.3664 -0.2145
  271MOL0     O36509   9.845   3.174   9.326 -0.4759  0.5096 -0.4496
  271MOL0     C36510   9.835   3.046   9.257 -0.8540  0.0287 -0.5059
  271MOL0     C36511   9.733   2.968   9.318 -0.4734  0.9499  0.1510
  271MOL0     C36512   9.704   2.834   9.252  0.3646 -1.0534  0.0565
  271MOL0     C36513   9.720   2.714   9.349  0.1175 -0.8206  0.5723
  271MOL0     C36514   9.679   2.587   9.293 -0.0513 -0.0990  0.5291
  271MOL0     C36515   9.655   2.475   9.248 -0.0310  0.1540 -0.1701
  271MOL0     C36516   9.988   3.353   9.369  0.3428 -0.1218  0.7150
  271MOL0     C36517  10.099   3.422   9.335  0.2690 -1.3185  0.0127
  271MOL0     H36518  10.579   3.522   9.184  2.4570  0.7969  0.6590
  271MOL0     H36519  10.738   3.696   9.135  0.4087 -0.2492  1.3040
  271MOL0     H36520  10.596   4.088   9.164 -0.2812  0.4594  1.6810
  271MOL0     H36521  10.678   4.128   9.314  2.6735  1.8022 -0.2516
  271MOL0     H36522  10.756   4.255   9.154  1.9164  0.9409  0.7648
  271MOL0     H36523  10.893   4.154   9.179 -0.6127 -0.9715 -1.0055
  271MOL0     H36524  10.913   4.179   8.951  0.0165  0.0718 -1.6600
  271MOL0     H36525  10.815   4.029   8.961  0.8481  0.4106  0.5001
  271MOL0     H36526  10.606   4.169   8.918 -1.1947  0.0555 -3.3555
  271MOL0     H36527  10.715   4.309   8.910 -0.7835  0.3129  0.7259
  271MOL0     H36528  10.844   4.204   8.722  0.3072 -2.6898 -1.5317
  271MOL0     H36529  10.738   4.056   8.741 -2.8786  0.0899  3.4288
  271MOL0     H36530  10.539   4.227   8.696  0.0765  0.8804  0.7516
  271MOL0     H36531  10.654   4.339   8.638  1.8755 -0.1554 -2.4015
  271MOL0     H36532  10.751   4.188   8.477 -0.2885 -2.0635  1.2659
  271MOL0     H36533  10.620   4.060   8.527  0.2632 -0.5717  0.8044
  271MOL0     H36534  10.446   4.235   8.473  1.6358  1.2218  2.6590
  271MOL0     H36535  10.537   4.165   8.336 -0.0811 -1.9155  0.4662
  271MOL0     H36536  10.749   4.325   8.230  0.8366  0.1793  1.7545
  271MOL0     H36537  10.869   4.657   8.264  1.8303  0.8772 -3.6445
  271MOL0     H36538  10.882   4.511   8.174 -1.3544 -1.0255  1.1195
  271MOL0     H36539  10.735   4.772   8.114 -1.4496  1.7062 -2.2776
  271MOL0     H36540  10.641   4.620   8.093  1.3754  0.0954 -3.1413
  271MOL0     H36541  10.884   4.544   7.966  2.6153  1.2034 -1.4688
  271MOL0     H36542  10.908   4.708   7.971  1.7621 -0.5879  0.8057
  271MOL0     H36543  10.807   4.677   7.740  0.3842 -0.6257 -1.1332
  271MOL0     H36544  10.686   4.743   7.841  3.8952  2.4690 -1.2500
  271MOL0     H36545  10.647   4.679   7.575  1.5895  0.3886  4.2610
  271MOL0     H36546  10.613   4.688   7.354 -0.4771  0.1192 -2.0867
  271MOL0     H36547  10.620   4.515   7.289  2.4063 -0.0080  1.1656
  271MOL0     H36548  10.470   4.621   7.287 -1.1151  1.8950  3.2559
  271MOL0     H36549  10.430   4.086   7.206  0.2214 -1.5004 -0.6523
  271MOL0     H36550  10.305   3.937   7.049  0.4369 -0.4928  1.5844
  271MOL0     H36551  10.031   3.933   6.784 -1.7216  1.4934  0.0768
  271MOL0     H36552  10.169   3.877   6.868 -0.2601  0.6849 -0.8964
  271MOL0     H36553  10.022   3.699   6.818 -3.1975  1.4303 -1.8498
  271MOL0     H36554  10.062   3.697   6.984 -1.9910  0.6950  2.0872
  271MOL0     H36555   9.831   3.786   7.054 -2.1260 -1.4542  0.0875
  271MOL0     H36556   9.828   3.634   6.966  1.1121 -0.9949 -2.7548
  271MOL0     H36557   9.759   3.907   6.868 -4.5112  0.0221  0.2859
  271MOL0     H36558   9.772   3.776   6.759  1.3285  1.1183  0.2782
  271MOL0     H36559   9.604   3.784   7.011  1.4833  2.2723 -0.8791
  271MOL0     H36560   9.589   3.653   6.894 -0.4822 -0.3334  1.8499
  271MOL0     H36561   9.534   3.859   6.722 -0.5450 -0.1475 -0.4469
  271MOL0     H36562   9.405   3.792   6.817  0.3026  1.1259 -1.5993
  271MOL0     H36563   9.572   4.026   6.889 -0.9138  1.6533  1.3643
  271MOL0     H36564   9.428   3.956   6.984  0.1905 -2.9167 -0.1133
  271MOL0     H36565   9.298   4.007   6.784 -2.0313  2.4406 -2.6439
  271MOL0     H36566   9.435   4.087   6.706 -0.3982 -0.4517 -0.0055
  271MOL0     H36567   9.945   4.112   7.180  0.5133 -0.4649 -0.0155
  271MOL0     H36568  10.044   4.229   7.351  0.6826 -0.6859  0.2559
  271MOL0     H36569  10.459   4.223   7.614  0.9992  0.1767  2.8627
  271MOL0     H36570  10.586   4.324   7.797 -0.0250  2.5145  0.9596
  271MOL0     H36571  10.511   3.984   9.354  6.6293  2.3166 -2.4710
  271MOL0     H36572  10.329   3.820   9.377 -0.8088 -1.8049 -0.1320
  271MOL0     H36573  10.194   3.263   9.050  1.2821 -0.3338  1.1047
  271MOL0     H36574   9.976   3.162   9.086 -1.2501  1.1577 -0.7798
  271MOL0     H36575   9.812   3.047   9.150 -1.4181 -1.2776 -0.4092
  271MOL0     H36576   9.926   2.989   9.274 -0.9088  0.2836  0.6976
  271MOL0     H36577   9.636   3.018   9.323 -2.2526 -2.1472 -0.3553
  271MOL0     H36578   9.765   2.943   9.420  2.3872  1.3187 -0.5824
  271MOL0     H36579   9.776   2.822   9.170  0.2235 -0.4511 -0.1575
  271MOL0     H36580   9.600   2.833   9.220  0.8745 -0.0049 -1.8316
  271MOL0     H36581   9.646   2.726   9.429  1.3602 -4.0827  2.4000
  271MOL0     H36582   9.820   2.719   9.392  0.2132 -1.3332  0.4130
  271MOL0     H36583   9.645   2.371   9.229  2.3990 -0.3285  0.8032
  271MOL0     H36584   9.929   3.370   9.459  0.0718 -3.5289  1.3170
  271MOL0     H36585  10.118   3.504   9.403 -2.2741 -0.3269 -0.3533
  272MOL0     O36586   9.451   7.054  11.331 -0.2999 -0.4023 -0.7866
  272MOL0     C36587   9.545   7.100  11.396  0.1166  1.1535  0.7026
  272MOL0     O36588   9.675   7.073  11.365  0.0648  0.1581  0.2651
  272MOL0     C36589   9.722   6.981  11.265 -1.1380 -0.0400  0.3958
  272MOL0     C36590   9.647   6.892  11.198 -0.1617 -0.2107 -0.3013
  272MOL0     C36591   9.696   6.818  11.092 -0.3180 -0.9119  0.3265
  272MOL0     C36592   9.823   6.834  11.052 -0.3732  0.2397 -0.0054
  272MOL0     O36593   9.863   6.746  10.954  0.2723 -0.6307  0.1624
  272MOL0     C36594   9.988   6.747  10.902 -0.7522 -0.0007 -0.0625
  272MOL0     C36595  10.000   6.636  10.792  0.4623 -0.5254 -0.5419
  272MOL0     C36596  10.153   6.596  10.788  0.3473 -0.4527 -0.0456
  272MOL0     C36597  10.190   6.514  10.665  0.7722 -0.0888  0.1024
  272MOL0     C36598  10.339   6.467  10.652  0.6439  0.2455 -0.0610
  272MOL0     C36599  10.377   6.405  10.518  0.5429 -0.4989  0.0512
  272MOL0     C36600  10.314   6.277  10.480 -0.0898  0.6660 -0.5031
  272MOL0     C36601  10.419   6.201  10.396  0.4237 -0.0323  0.5105
  272MOL0     N36602  10.349   6.091  10.333 -0.0303 -0.2742  0.2257
  272MOL0     C36603  10.294   5.975  10.388  0.0678 -0.7691  0.6815
  272MOL0     C36604  10.219   5.910  10.290  0.2323  0.7877 -0.8504
  272MOL0     C36605  10.127   5.795  10.326  0.3696  0.0905  0.2963
  272MOL0     C36606  10.020   5.826  10.432 -0.0331 -0.2794  0.0550
  272MOL0     C36607   9.930   5.699  10.466  1.4089 -0.9202  0.1898
  272MOL0     C36608   9.798   5.709  10.386  0.2064  0.2073  0.2682
  272MOL0     O36609   9.715   5.816  10.432  0.3273  0.1642 -0.0427
  272MOL0     C36610   9.643   5.877  10.329 -0.2260 -0.5010 -0.0799
  272MOL0     C36611   9.556   5.818  10.242 -0.4953 -0.3429  0.5270
  272MOL0     C36612   9.503   5.889  10.131 -0.4873 -0.2961  0.5346
  272MOL0     C36613   9.426   5.817  10.023 -0.3070 -0.2297 -0.6090
  272MOL0     C36614   9.544   6.024  10.112 -0.0175 -0.4620  0.3290
  272MOL0     C36615   9.537   6.107   9.983  0.4110  0.1821 -0.6261
  272MOL0     O36616   9.559   6.240   9.991  0.1802 -0.3937 -0.0403
  272MOL0     C36617   9.491   6.317   9.899 -0.1446  0.0733 -0.1708
  272MOL0     C36618   9.527   6.449   9.923  0.3655  0.1499  0.8033
  272MOL0     C36619   9.483   6.546   9.834  0.1580  0.6784 -0.2605
  272MOL0     C36620   9.408   6.512   9.720 -0.4842  0.1755 -1.2448
  272MOL0     O36621   9.350   6.596   9.628  0.2927 -0.4267  0.3378
  272MOL0     C36622   9.442   6.688   9.570 -0.4741 -0.7504  0.7549
  272MOL0     C36623   9.536   6.638   9.461 -0.4350  0.6823 -0.4833
  272MOL0     C36624   9.459   6.609   9.332 -0.1567  0.2654  0.1474
  272MOL0     C36625   9.559   6.585   9.218  0.0067  1.0249  0.4988
  272MOL0     C36626   9.508   6.560   9.081 -0.5093 -0.0753  1.0186
  272MOL0     C36627   9.613   6.558   8.968 -1.6488  0.4368  0.2864
  272MOL0     C36628   9.563   6.475   8.835 -0.6938 -0.3156 -0.3428
  272MOL0     C36629   9.662   6.517   8.715  0.8223  0.2101 -0.9053
  272MOL0    Cl36630   9.812   6.424   8.758 -0.2948  0.4928 -0.4678
  272MOL0     C36631   9.364   6.384   9.710  0.1677 -0.7251  0.4022
  272MOL0     C36632   9.403   6.280   9.794  0.2769  0.0157 -0.2327
  272MOL0     O36633   9.535   6.046   9.874 -0.5236  0.4157 -0.0284
  272MOL0     C36634   9.629   6.081  10.208 -0.6861 -0.2975 -0.2997
  272MOL0     C36635   9.677   6.007  10.321  0.1879  0.2528  0.0649
  272MOL0     N36636  10.241   5.987  10.176  0.7438 -0.6890  0.0375
  272MOL0     N36637  10.309   6.094  10.199 -0.7204 -0.2018  0.1859
  272MOL0     C36638   9.905   6.916  11.130  0.3146 -0.1564 -0.7016
  272MOL0     C36639   9.850   6.998  11.228 -0.2070 -0.1523 -0.5846
  272MOL0     C36640   9.512   7.191  11.511  1.2023 -0.0628  0.4358
  272MOL0     C36641   9.387   7.243  11.527  0.0837 -0.3622 -0.2632
  272MOL0     C36642   9.359   7.332  11.635 -0.7496 -0.0200  0.3068
  272MOL0     C36643   9.465   7.387  11.713 -0.7521 -0.1326 -0.0075
  272MOL0     O36644   9.448   7.482  11.811 -0.1559  0.0077 -0.6631
  272MOL0     C36645   9.323   7.539  11.850 -0.1687 -0.0127  0.0930
  272MOL0     C36646   9.336   7.605  11.988 -0.6338  0.4939 -1.2246
  272MOL0     C36647   9.402   7.513  12.102 -1.0054 -0.0066 -0.1142
  272MOL0     C36648   9.380   7.575  12.234  0.2683  0.3705  0.2964
  272MOL0     C36649   9.433   7.709  12.265  0.3876  0.2592 -0.1674
  272MOL0     C36650   9.468   7.820  12.290  0.5924 -0.1487  0.0232
  272MOL0     C36651   9.591   7.322  11.701  0.2977 -0.3437  0.0009
  272MOL0     C36652   9.620   7.236  11.593  0.2671 -1.4343  0.4688
  272MOL0     H36653   9.540   6.888  11.216 -0.0753  1.1550  0.7340
  272MOL0     H36654   9.629   6.762  11.028  1.3163 -0.7519 -1.6220
  272MOL0     H36655  10.011   6.837  10.845  1.0246 -0.1349  0.3997
  272MOL0     H36656  10.059   6.740  10.985  0.5133  5.0842 -0.4183
  272MOL0     H36657   9.929   6.558  10.819 -0.1754  0.0486 -0.5396
  272MOL0     H36658   9.963   6.674  10.697 -0.5461 -3.7821 -1.5862
  272MOL0     H36659  10.223   6.680  10.792  2.5739 -2.2758  1.8262
  272MOL0     H36660  10.176   6.552  10.885 -1.6024 -1.0965  0.1611
  272MOL0     H36661  10.144   6.415  10.663  4.4231 -2.0204  1.6902
  272MOL0     H36662  10.162   6.567  10.574  0.4416  0.9111  0.7616
  272MOL0     H36663  10.408   6.550  10.671  0.9999  0.4557 -1.9775
  272MOL0     H36664  10.359   6.394  10.731  2.4132  0.4526 -0.2856
  272MOL0     H36665  10.371   6.478  10.437  1.5880  3.7906  3.4487
  272MOL0     H36666  10.483   6.380  10.533  0.3849 -1.5881 -0.5380
  272MOL0     H36667  10.283   6.220  10.568  0.0367 -0.1738 -0.9892
  272MOL0     H36668  10.223   6.292  10.421 -0.7004  0.5460  0.3918
  272MOL0     H36669  10.498   6.155  10.456  0.4264 -2.8107 -1.3854
  272MOL0     H36670  10.449   6.273  10.320  0.8802 -2.5225 -1.8505
  272MOL0     H36671  10.312   5.938  10.488  0.4903 -0.6499  0.6517
  272MOL0     H36672  10.071   5.757  10.239 -0.5698  1.3353  0.3134
  272MOL0     H36673  10.189   5.713  10.362 -2.7171 -1.3467  2.8865
  272MOL0     H36674   9.963   5.912  10.395  2.2591  1.3677  0.1741
  272MOL0     H36675  10.058   5.864  10.527 -3.4784  3.2247  0.2618
  272MOL0     H36676   9.909   5.699  10.573  1.0777 -0.1930  0.1306
  272MOL0     H36677   9.990   5.609  10.447  0.2916 -1.4297 -1.0808
  272MOL0     H36678   9.756   5.611  10.409 -0.7612  0.5746  0.1315
  272MOL0     H36679   9.812   5.708  10.277 -2.6548 -0.2859 -0.1651
  272MOL0     H36680   9.529   5.716  10.268 -0.3264  0.5856  5.0974
  272MOL0     H36681   9.419   5.712  10.052  1.0428 -0.5985 -1.5412
  272MOL0     H36682   9.329   5.866  10.012 -0.0229  0.3692 -0.4837
  272MOL0     H36683   9.474   5.820   9.925 -1.4890  1.3251 -1.1785
  272MOL0     H36684   9.586   6.472  10.011  2.3909  0.6737 -0.6163
  272MOL0     H36685   9.503   6.649   9.861 -2.7178  1.9447 -2.4114
  272MOL0     H36686   9.386   6.768   9.521  1.9176 -0.1894 -1.3251
  272MOL0     H36687   9.502   6.735   9.649  0.3784 -3.6110  1.9483
  272MOL0     H36688   9.609   6.718   9.445  1.3139 -0.8558 -0.5017
  272MOL0     H36689   9.592   6.553   9.500 -2.2888  0.0514  0.9866
  272MOL0     H36690   9.397   6.698   9.318 -1.8914 -0.7658  0.9477
  272MOL0     H36691   9.402   6.516   9.342  3.2560 -1.9985  0.3158
  272MOL0     H36692   9.636   6.663   9.219  0.3617  0.6789  0.7168
  272MOL0     H36693   9.620   6.497   9.240 -0.7161 -0.3095 -2.4380
  272MOL0     H36694   9.442   6.644   9.059 -0.8470 -0.9199 -1.6238
  272MOL0     H36695   9.445   6.470   9.081 -0.7401  0.0623 -0.1416
  272MOL0     H36696   9.634   6.664   8.954 -1.4611  0.0003 -4.5986
  272MOL0     H36697   9.700   6.503   9.004  0.3411  2.3246 -1.3803
  272MOL0     H36698   9.462   6.514   8.815  0.3405  3.0383  0.3503
  272MOL0     H36699   9.551   6.367   8.836 -1.8083 -0.2658 -2.4675
  272MOL0     H36700   9.685   6.624   8.708  0.5285  0.2730 -0.9197
  272MOL0     H36701   9.617   6.478   8.624  3.5907 -0.2223 -2.1870
  272MOL0     H36702   9.302   6.348   9.629 -0.6599 -3.3495  2.0897
  272MOL0     H36703   9.384   6.179   9.760  3.2506  0.2342 -3.0870
  272MOL0     H36704   9.653   6.186  10.201 -0.9391 -0.1278  1.0914
  272MOL0     H36705   9.744   6.042  10.399 -1.8263  6.1398 -0.3799
  272MOL0     H36706  10.005   6.937  11.092  0.0835 -2.1536 -2.6673
  272MOL0     H36707   9.905   7.074  11.282 -2.3445 -0.0388  1.5907
  272MOL0     H36708   9.304   7.227  11.459 -0.1365  2.2402 -0.7164
  272MOL0     H36709   9.260   7.375  11.646 -1.4739 -1.1860 -1.1615
  272MOL0     H36710   9.289   7.604  11.769  1.1743  1.5722  0.7393
  272MOL0     H36711   9.246   7.463  11.868 -1.3714  0.9751 -0.7120
  272MOL0     H36712   9.230   7.614  12.014 -0.1990  2.4370  0.1748
  272MOL0     H36713   9.387   7.702  11.982  0.6849  0.2005  2.5420
  272MOL0     H36714   9.511   7.508  12.087 -0.8459  2.9364 -0.4967
  272MOL0     H36715   9.346   7.419  12.103 -1.1896  0.1005 -0.2596
  272MOL0     H36716   9.419   7.506  12.310  2.8046  0.9205 -0.4336
  272MOL0     H36717   9.276   7.599  12.259  0.1871  1.6434 -1.1189
  272MOL0     H36718   9.510   7.917  12.310 -0.5857 -0.1648  3.0047
  272MOL0     H36719   9.683   7.340  11.756  2.2838 -1.9859 -2.5427
  272MOL0     H36720   9.725   7.217  11.571 -0.1731 -4.0832  0.3344
  273MOL0     O36721   2.930   0.378   2.939  0.2353  0.9840  0.9635
  273MOL0     C36722   2.919   0.353   2.812 -0.0009  0.8074 -0.1199
  273MOL0     O36723   2.824   0.283   2.754  0.7386 -0.0944  0.9137
  273MOL0     C36724   2.709   0.263   2.833 -0.1009 -0.2867  0.4089
  273MOL0     C36725   2.679   0.127   2.856 -0.0681  0.5843 -0.1620
  273MOL0     C36726   2.576   0.095   2.950 -0.6022 -0.7759 -0.7621
  273MOL0     C36727   2.494   0.200   3.007  0.6063  0.2913  0.1151
  273MOL0     O36728   2.385   0.171   3.090  0.0142 -0.6074 -0.3582
  273MOL0     C36729   2.316   0.041   3.083 -0.2744 -0.3687  0.2177
  273MOL0     C36730   2.374  -0.062   3.188 -0.0888  0.7562  1.1173
  273MOL0     C36731   2.362  -0.016   3.332  0.3928 -0.3291 -0.7684
  273MOL0     C36732   2.430  -0.122   3.421  0.5996 -0.1949 -0.0028
  273MOL0     C36733   2.432  -0.096   3.566  0.6694  0.2098 -0.5278
  273MOL0     C36734   2.515   0.027   3.599 -0.5581  0.9433 -0.4613
  273MOL0     C36735   2.501   0.046   3.744  0.1828 -1.5684  0.5202
  273MOL0     C36736   2.611   0.143   3.806 -0.2733  0.0215  0.8914
  273MOL0     N36737   2.574   0.195   3.939 -0.4626 -0.8893 -0.8539
  273MOL0     C36738   2.573   0.328   3.986 -0.1999 -1.1951  0.6383
  273MOL0     C36739   2.541   0.313   4.118  0.4002 -0.7022  0.3110
  273MOL0     C36740   2.494   0.418   4.224  0.0022  0.3749  0.2956
  273MOL0     C36741   2.364   0.493   4.179 -0.5093  0.1857  0.8047
  273MOL0     C36742   2.335   0.613   4.263  0.6529 -0.9141  1.0033
  273MOL0     C36743   2.417   0.735   4.229  0.0239  1.4942 -0.7466
  273MOL0     O36744   2.337   0.853   4.253  0.2807 -0.4450 -0.1802
  273MOL0     C36745   2.317   0.906   4.377  0.1377  0.1257 -0.6090
  273MOL0     C36746   2.410   0.896   4.487  0.2034 -0.6064  0.2540
  273MOL0     C36747   2.396   0.986   4.596  1.2053  0.7534 -0.6030
  273MOL0     C36748   2.507   0.984   4.709 -0.5411  0.3798 -0.1832
  273MOL0     C36749   2.285   1.075   4.601  0.0399  1.1734 -0.1784
  273MOL0     C36750   2.280   1.177   4.705 -1.0338 -0.7436 -0.6463
  273MOL0     O36751   2.399   1.243   4.749 -0.3982  0.4923  1.2930
  273MOL0     C36752   2.394   1.344   4.842 -0.9351  0.1385  0.2597
  273MOL0     C36753   2.334   1.467   4.820 -0.2447  0.2105  0.7489
  273MOL0     C36754   2.329   1.565   4.921  1.7919  0.4010 -0.0788
  273MOL0     C36755   2.397   1.542   5.036  0.0118  0.1504 -0.2753
  273MOL0     O36756   2.408   1.643   5.115  0.0877  0.3865  0.2687
  273MOL0     C36757   2.394   1.599   5.248  1.1868  0.0065 -0.2238
  273MOL0     C36758   2.403   1.729   5.325  0.4461  0.1946  0.1431
  273MOL0     C36759   2.549   1.757   5.344  0.6640  0.1009 -0.1668
  273MOL0     C36760   2.559   1.859   5.451 -0.6007 -0.6870 -0.3533
  273MOL0     C36761   2.700   1.907   5.473 -0.6695  0.2201  0.5044
  273MOL0     C36762   2.713   2.018   5.574  1.2359  0.4300  0.4722
  273MOL0     C36763   2.836   2.092   5.559 -0.6223  0.4548  0.5199
  273MOL0     C36764   2.871   2.157   5.692  0.5442 -0.9735 -0.4263
  273MOL0    Cl36765   2.738   2.260   5.760 -0.1711  0.3000  0.0335
  273MOL0     C36766   2.453   1.415   5.060 -0.7967  0.4755 -0.5072
  273MOL0     C36767   2.457   1.319   4.965  0.3410 -0.4281 -0.1272
  273MOL0     O36768   2.176   1.200   4.763 -0.2697  0.4803 -0.2724
  273MOL0     C36769   2.193   1.070   4.502 -0.3968 -0.4473 -0.5710
  273MOL0     C36770   2.197   0.984   4.401 -0.0723 -0.7895  0.6236
  273MOL0     N36771   2.518   0.177   4.142  0.9544  0.2869  0.1773
  273MOL0     N36772   2.533   0.107   4.036  0.0320 -0.0904  0.1287
  273MOL0     C36773   2.520   0.334   2.970  0.9554  0.3157 -0.3660
  273MOL0     C36774   2.629   0.367   2.893  0.0665 -0.5273  0.0521
  273MOL0     C36775   3.039   0.385   2.736 -0.0959  0.1334  0.6013
  273MOL0     C36776   3.135   0.484   2.775  0.4373  0.4426 -0.8466
  273MOL0     C36777   3.243   0.513   2.690  0.0938  0.3977  0.0105
  273MOL0     C36778   3.274   0.430   2.581  1.1149 -0.9656  0.2375
  273MOL0     O36779   3.391   0.457   2.508  0.6206  0.3423  0.6924
  273MOL0     C36780   3.376   0.455   2.366  0.4042  0.7384  0.1680
  273MOL0     C36781   3.397   0.600   2.306 -0.4748  0.3699  0.5594
  273MOL0     C36782   3.479   0.702   2.401  1.3427  0.1768  0.4677
  273MOL0     C36783   3.530   0.809   2.305 -0.5804 -0.0804 -0.7293
  273MOL0     C36784   3.583   0.920   2.381 -0.7184 -0.2080 -0.2274
  273MOL0     C36785   3.606   1.027   2.452 -0.3554  0.1400  0.9368
  273MOL0     C36786   3.180   0.331   2.551  0.4695 -0.0814  0.8409
  273MOL0     C36787   3.064   0.309   2.620  0.8215 -0.4707  0.1831
  273MOL0     H36788   2.747   0.048   2.826 -1.1750 -1.0842  1.4845
  273MOL0     H36789   2.548  -0.007   2.971 -1.1132 -0.1104  2.2084
  273MOL0     H36790   2.211   0.064   3.105 -0.3336  0.3724 -0.7839
  273MOL0     H36791   2.327  -0.003   2.984  1.0987 -2.7306  1.3313
  273MOL0     H36792   2.323  -0.159   3.185  3.9471 -1.9072  5.2867
  273MOL0     H36793   2.478  -0.087   3.169 -0.8932 -1.3461 -1.0381
  273MOL0     H36794   2.417   0.077   3.346  2.5508 -1.8662  1.7686
  273MOL0     H36795   2.257  -0.007   3.364 -0.5492 -3.8612 -2.4006
  273MOL0     H36796   2.383  -0.220   3.405  1.2893 -0.4114 -0.7074
  273MOL0     H36797   2.530  -0.132   3.380  3.0601  3.9932  4.0164
  273MOL0     H36798   2.330  -0.092   3.605  0.8544 -0.9281  0.1234
  273MOL0     H36799   2.480  -0.177   3.621 -0.2576  1.4122  2.1968
  273MOL0     H36800   2.614   0.000   3.562 -1.2789 -2.2198 -0.3928
  273MOL0     H36801   2.464   0.108   3.546  0.1808 -0.1221 -2.9109
  273MOL0     H36802   2.406   0.096   3.764  0.5320  0.6583 -2.5875
  273MOL0     H36803   2.516  -0.055   3.783 -0.2580 -1.8078  0.0810
  273MOL0     H36804   2.628   0.228   3.739  1.8571 -0.1315  1.1679
  273MOL0     H36805   2.708   0.093   3.814  0.3992  1.3233  1.0790
  273MOL0     H36806   2.591   0.421   3.934 -1.2907 -1.1240  0.3544
  273MOL0     H36807   2.474   0.354   4.310  0.0990 -1.9824 -1.3360
  273MOL0     H36808   2.580   0.483   4.240  1.0553 -0.0905 -2.7047
  273MOL0     H36809   2.277   0.427   4.184  0.7737 -1.7227 -0.8920
  273MOL0     H36810   2.371   0.527   4.076  2.6963  0.7519  1.0959
  273MOL0     H36811   2.354   0.603   4.370  0.4531 -0.3210  1.0993
  273MOL0     H36812   2.229   0.637   4.251  1.2417  0.6551 -2.1608
  273MOL0     H36813   2.444   0.726   4.123  1.3486  0.3581 -0.3502
  273MOL0     H36814   2.509   0.747   4.287  0.5634 -0.4068 -1.1323
  273MOL0     H36815   2.492   0.825   4.479  0.2670 -0.7219  1.7109
  273MOL0     H36816   2.580   1.065   4.708 -0.6078  0.4473 -0.9980
  273MOL0     H36817   2.453   0.988   4.804 -0.9166  0.8567 -0.4102
  273MOL0     H36818   2.568   0.893   4.705 -2.2129 -0.9408  1.7895
  273MOL0     H36819   2.287   1.488   4.725  0.2530 -1.7945  0.0269
  273MOL0     H36820   2.297   1.666   4.899  0.6452 -0.3118 -1.8587
  273MOL0     H36821   2.294   1.559   5.267  2.0642 -1.7265  0.9326
  273MOL0     H36822   2.474   1.531   5.276  1.2597 -0.4421 -1.5007
  273MOL0     H36823   2.344   1.812   5.284  1.1284  0.2628 -0.7384
  273MOL0     H36824   2.357   1.692   5.418 -2.2369 -3.0056 -2.2144
  273MOL0     H36825   2.584   1.794   5.247  1.4007  2.0029  0.7792
  273MOL0     H36826   2.607   1.669   5.375  0.8983  0.9159  1.8256
  273MOL0     H36827   2.497   1.944   5.422 -1.3670 -1.9110 -2.4928
  273MOL0     H36828   2.514   1.835   5.548 -2.1239  2.1749 -0.2267
  273MOL0     H36829   2.737   1.936   5.375 -0.3426 -1.5005  0.0784
  273MOL0     H36830   2.767   1.828   5.508  3.5495  3.4732  0.4897
  273MOL0     H36831   2.622   2.079   5.569  0.3305 -0.9525 -3.7714
  273MOL0     H36832   2.712   1.961   5.668  2.7004 -1.4757 -0.6038
  273MOL0     H36833   2.819   2.170   5.484  1.1301 -0.6090 -1.0708
  273MOL0     H36834   2.923   2.035   5.526 -0.0732  1.4689  0.1490
  273MOL0     H36835   2.961   2.219   5.689  0.9856 -1.5264  0.8001
  273MOL0     H36836   2.875   2.073   5.761 -2.6812 -1.0501 -0.1644
  273MOL0     H36837   2.518   1.398   5.145 -1.2219 -2.8022 -0.7284
  273MOL0     H36838   2.501   1.223   4.991 -4.1832 -2.7672 -0.2671
  273MOL0     H36839   2.113   1.143   4.515 -1.8016 -1.6551 -2.0484
  273MOL0     H36840   2.115   0.983   4.330 -0.8620  2.2791  1.3249
  273MOL0     H36841   2.446   0.404   3.008 -0.4655 -0.8323 -0.8880
  273MOL0     H36842   2.650   0.473   2.877 -1.7102 -0.1198  0.2740
  273MOL0     H36843   3.112   0.547   2.860  2.7863  0.5782 -0.2274
  273MOL0     H36844   3.300   0.598   2.725  1.2583 -1.1196  1.9762
  273MOL0     H36845   3.460   0.393   2.336  1.9882  2.5767  0.5744
  273MOL0     H36846   3.284   0.411   2.326  1.7531  0.4529 -2.8521
  273MOL0     H36847   3.306   0.652   2.275  0.8033  0.1856 -4.2531
  273MOL0     H36848   3.456   0.590   2.215  4.8447 -1.3846  3.7293
  273MOL0     H36849   3.562   0.651   2.452 -0.5556 -4.4102 -0.5914
  273MOL0     H36850   3.411   0.749   2.473 -2.1764 -1.3387 -1.6250
  273MOL0     H36851   3.459   0.856   2.236  0.9266  2.1162 -0.8996
  273MOL0     H36852   3.606   0.765   2.240  0.7029  3.0763 -1.5754
  273MOL0     H36853   3.626   1.112   2.513 -0.7313  0.8126  0.1459
  273MOL0     H36854   3.195   0.275   2.459  0.5311  0.4786  0.5054
  273MOL0     H36855   2.991   0.256   2.559 -0.1039  1.5586 -0.5513
  274MOL0     O36856   8.600   4.691   3.034  0.2652 -0.2538 -0.0626
  274MOL0     C36857   8.484   4.669   3.079 -0.2250  0.1137 -0.4626
  274MOL0     O36858   8.364   4.734   3.045 -0.4506 -0.1776 -0.9709
  274MOL0     C36859   8.371   4.836   2.965 -0.0219  0.2327  0.5677
  274MOL0     C36860   8.332   4.821   2.823 -0.4320  0.4362 -1.6547
  274MOL0     C36861   8.337   4.935   2.740 -0.3940 -0.3130 -0.2515
  274MOL0     C36862   8.372   5.061   2.787 -0.1819  0.0117  0.0841
  274MOL0     O36863   8.345   5.163   2.694 -0.2705  0.7075  0.3435
  274MOL0     C36864   8.382   5.293   2.738 -0.1828 -0.2800 -0.6149
  274MOL0     C36865   8.531   5.301   2.709  0.0457 -0.2772 -0.2554
  274MOL0     C36866   8.564   5.280   2.560 -0.5277 -1.2385  0.1452
  274MOL0     C36867   8.648   5.389   2.492 -0.7014 -0.5525 -0.2654
  274MOL0     C36868   8.684   5.352   2.350  0.1123  0.3971  1.4513
  274MOL0     C36869   8.764   5.227   2.338 -0.9635 -0.5164 -0.1999
  274MOL0     C36870   8.841   5.217   2.208  0.2459  0.5173 -0.3212
  274MOL0     C36871   8.751   5.204   2.077  0.0775  0.0753  0.0549
  274MOL0     N36872   8.678   5.072   2.063  0.4165 -0.1202 -0.2776
  274MOL0     C36873   8.713   4.973   1.979  0.3749 -0.1458 -0.2563
  274MOL0     C36874   8.607   4.890   1.987 -0.5266 -0.3766  0.8397
  274MOL0     C36875   8.594   4.755   1.929 -0.1289  1.3705  0.1534
  274MOL0     C36876   8.614   4.757   1.767  0.3871 -0.5611  0.4437
  274MOL0     C36877   8.507   4.853   1.699 -0.6587  0.1759  0.5112
  274MOL0     C36878   8.352   4.804   1.716  0.2869 -0.7578  0.1370
  274MOL0     O36879   8.264   4.868   1.620 -0.0747 -0.1380  0.2591
  274MOL0     C36880   8.128   4.830   1.642 -0.0672  0.3534  0.2528
  274MOL0     C36881   8.056   4.766   1.544 -0.2298 -0.1522 -0.2822
  274MOL0     C36882   7.933   4.711   1.581 -0.7083  0.5189 -0.9864
  274MOL0     C36883   7.859   4.643   1.469  0.0226  1.0519  0.1152
  274MOL0     C36884   7.877   4.729   1.714  1.2480 -0.8690 -0.4207
  274MOL0     C36885   7.764   4.650   1.762 -0.4396  0.1510 -0.6616
  274MOL0     O36886   7.745   4.523   1.713 -0.0413  0.4432  0.2120
  274MOL0     C36887   7.627   4.467   1.762 -0.1911  0.3107 -0.1511
  274MOL0     C36888   7.629   4.417   1.890 -0.2100  1.1359  0.2376
  274MOL0     C36889   7.519   4.342   1.937  0.0179  0.0884  0.3492
  274MOL0     C36890   7.405   4.338   1.857 -0.0624 -0.7072  1.0221
  274MOL0     O36891   7.290   4.286   1.910 -0.4168 -0.3684  0.8198
  274MOL0     C36892   7.197   4.230   1.818 -0.4307 -0.0382 -1.1677
  274MOL0     C36893   7.059   4.234   1.882 -0.1627  0.1114 -0.0475
  274MOL0     C36894   6.938   4.270   1.789 -0.4108 -0.2464 -1.4517
  274MOL0     C36895   6.832   4.341   1.878 -0.8019 -1.7058  0.5970
  274MOL0     C36896   6.772   4.261   1.999 -0.2427  0.2376  0.0579
  274MOL0     C36897   6.706   4.121   1.965  0.4605 -0.8560 -0.0643
  274MOL0     C36898   6.566   4.153   1.912 -0.1738  0.0488  1.1791
  274MOL0     C36899   6.492   4.034   1.856  0.2582 -1.1088  0.0470
  274MOL0    Cl36900   6.589   3.924   1.758  0.4674  0.3012  0.1342
  274MOL0     C36901   7.408   4.406   1.730  0.4994 -0.3224  0.2900
  274MOL0     C36902   7.517   4.464   1.676 -0.6011 -0.9117 -0.9193
  274MOL0     O36903   7.697   4.704   1.852 -0.3855  0.1412  0.2032
  274MOL0     C36904   7.947   4.814   1.802 -0.2073  0.1611  0.3411
  274MOL0     C36905   8.070   4.864   1.764  0.5977 -1.1285  0.3048
  274MOL0     N36906   8.508   4.948   2.073  0.4231 -1.6036  0.5796
  274MOL0     N36907   8.551   5.056   2.114 -0.0058  0.1716  0.1335
  274MOL0     C36908   8.409   5.076   2.921  0.3927 -0.2418 -1.2068
  274MOL0     C36909   8.418   4.958   3.007 -0.1328 -0.5529  0.0297
  274MOL0     C36910   8.470   4.556   3.176 -0.7056 -0.8615 -0.2515
  274MOL0     C36911   8.585   4.502   3.250  0.2772 -0.2897  0.9992
  274MOL0     C36912   8.557   4.413   3.351  0.0995  0.4511  0.1419
  274MOL0     C36913   8.427   4.361   3.379  0.1538  0.6233 -0.0222
  274MOL0     O36914   8.424   4.263   3.478 -0.3750 -0.2442  0.3237
  274MOL0     C36915   8.319   4.245   3.566 -0.8698  0.2080 -0.2604
  274MOL0     C36916   8.210   4.150   3.511  0.5562  0.2866  0.1036
  274MOL0     C36917   8.161   4.041   3.616 -0.0216 -0.8309  0.2855
  274MOL0     C36918   8.063   4.106   3.709  1.2711  1.0471 -0.8268
  274MOL0     C36919   8.015   4.001   3.801  0.9247  0.3467  0.7155
  274MOL0     C36920   7.972   3.923   3.894  0.1595 -0.2021 -0.5185
  274MOL0     C36921   8.318   4.411   3.307 -0.1413  0.4678  0.7789
  274MOL0     C36922   8.335   4.513   3.213  0.3291  1.1577 -0.1479
  274MOL0     H36923   8.287   4.728   2.793 -0.8121 -0.0352  0.2675
  274MOL0     H36924   8.307   4.932   2.636 -1.6704 -1.9156  0.1222
  274MOL0     H36925   8.325   5.365   2.679  0.4174 -1.3658 -2.6310
  274MOL0     H36926   8.341   5.321   2.835 -2.7313  0.3221 -1.7868
  274MOL0     H36927   8.554   5.403   2.741  0.2219  0.0005 -1.2576
  274MOL0     H36928   8.587   5.230   2.771  0.5084  0.3623  0.0683
  274MOL0     H36929   8.603   5.179   2.549  3.1898  0.1887 -1.4943
  274MOL0     H36930   8.469   5.276   2.506 -0.8804 -1.4087  0.7675
  274MOL0     H36931   8.572   5.467   2.496 -1.2612 -1.1331  1.9627
  274MOL0     H36932   8.738   5.408   2.552  1.3199 -0.4077 -3.1466
  274MOL0     H36933   8.591   5.335   2.295 -0.0321 -2.2067  2.3573
  274MOL0     H36934   8.742   5.430   2.299 -1.3833 -1.3730 -3.5519
  274MOL0     H36935   8.839   5.214   2.416 -0.3040 -2.3365 -1.0922
  274MOL0     H36936   8.691   5.147   2.354 -2.2916  0.9268  1.3753
  274MOL0     H36937   8.912   5.300   2.203  1.1868 -0.3111 -2.2767
  274MOL0     H36938   8.896   5.122   2.208 -1.8929 -0.7893 -0.1586
  274MOL0     H36939   8.824   5.207   1.995 -0.1181  0.7706 -0.0973
  274MOL0     H36940   8.681   5.288   2.072 -0.6625 -0.5797 -0.9240
  274MOL0     H36941   8.800   4.950   1.918  0.3048 -0.8741 -0.0873
  274MOL0     H36942   8.685   4.705   1.964  1.1185  4.4359  1.6464
  274MOL0     H36943   8.496   4.715   1.956 -0.2033  1.1789 -0.3784
  274MOL0     H36944   8.600   4.658   1.722 -2.5296 -0.2023  0.3694
  274MOL0     H36945   8.713   4.789   1.734  0.4721 -0.4867  0.7761
  274MOL0     H36946   8.524   4.845   1.591 -0.8637 -0.3602  0.5096
  274MOL0     H36947   8.528   4.952   1.738  1.6654  0.0822 -0.3860
  274MOL0     H36948   8.328   4.824   1.821 -2.3915 -0.8978 -0.3648
  274MOL0     H36949   8.342   4.697   1.698  0.2188 -0.6650 -0.3734
  274MOL0     H36950   8.095   4.774   1.443 -0.0359  2.2340 -0.0657
  274MOL0     H36951   7.870   4.536   1.490 -0.8962  1.4931  3.3409
  274MOL0     H36952   7.759   4.686   1.464 -1.5126 -2.2884 -0.7941
  274MOL0     H36953   7.923   4.652   1.381  1.3163 -2.8445  0.4406
  274MOL0     H36954   7.726   4.427   1.937 -0.0903 -0.3797  0.3780
  274MOL0     H36955   7.533   4.290   2.031  3.4715  2.8536  1.5708
  274MOL0     H36956   7.209   4.276   1.719  2.0674 -1.5193 -1.6488
  274MOL0     H36957   7.221   4.123   1.824 -0.6843 -0.0089  2.9782
  274MOL0     H36958   7.047   4.144   1.942  2.7337  0.4208  1.1161
  274MOL0     H36959   7.065   4.321   1.948 -0.2024 -1.8122  2.6506
  274MOL0     H36960   6.905   4.182   1.732  4.0564 -2.5168 -0.9519
  274MOL0     H36961   6.983   4.346   1.726 -1.5253 -1.5443 -3.9803
  274MOL0     H36962   6.868   4.438   1.914 -1.3376  0.0447 -3.0911
  274MOL0     H36963   6.751   4.381   1.816 -2.9003 -0.3286  3.9447
  274MOL0     H36964   6.701   4.323   2.055  0.0962 -0.8641  1.8122
  274MOL0     H36965   6.856   4.251   2.068 -0.4226  1.5363  0.4942
  274MOL0     H36966   6.779   4.057   1.913  4.1287 -0.4736  4.0535
  274MOL0     H36967   6.688   4.062   2.055 -0.0960  0.5780  0.7988
  274MOL0     H36968   6.583   4.223   1.830  0.5833 -0.5906  0.7786
  274MOL0     H36969   6.505   4.188   1.996  0.7201 -0.3564  2.0239
  274MOL0     H36970   6.400   4.066   1.806  1.5150 -0.5034 -1.9838
  274MOL0     H36971   6.464   3.975   1.944 -1.2052 -1.4508 -0.6170
  274MOL0     H36972   7.329   4.412   1.657  2.0621  0.9560 -1.3852
  274MOL0     H36973   7.535   4.517   1.583  2.7073  2.5658  1.4057
  274MOL0     H36974   7.903   4.830   1.900 -3.9550  3.1946 -1.5543
  274MOL0     H36975   8.117   4.943   1.823 -1.9618  1.5396 -0.9655
  274MOL0     H36976   8.440   5.172   2.961 -0.2329  0.9474 -3.3989
  274MOL0     H36977   8.456   4.972   3.108 -1.9386  1.9087  0.4627
  274MOL0     H36978   8.688   4.531   3.229 -0.9198  3.1078 -0.8219
  274MOL0     H36979   8.629   4.347   3.398 -2.1293 -3.4192 -1.3798
  274MOL0     H36980   8.366   4.203   3.655  2.1989  1.2975 -1.2403
  274MOL0     H36981   8.272   4.338   3.601  1.1375  1.1823  0.0093
  274MOL0     H36982   8.246   4.099   3.421  2.1511 -2.9006  2.3456
  274MOL0     H36983   8.122   4.210   3.487 -1.1676 -0.5845  3.6190
  274MOL0     H36984   8.235   3.989   3.677 -1.3162 -3.3206 -0.1050
  274MOL0     H36985   8.113   3.965   3.554  1.1058 -0.4179 -1.1625
  274MOL0     H36986   7.980   4.131   3.643  1.7589 -2.2211 -2.9061
  274MOL0     H36987   8.106   4.182   3.775  0.1322 -0.5484  1.9503
  274MOL0     H36988   7.950   3.845   3.964  2.9898  0.3449  1.1610
  274MOL0     H36989   8.220   4.368   3.323  0.7535 -1.4397  1.3238
  274MOL0     H36990   8.243   4.549   3.169 -0.3536 -0.0496  0.2608
  275MOL0     O36991  10.715   5.846   5.570  0.3775 -0.4591  0.0575
  275MOL0     C36992  10.831   5.823   5.612 -0.5265 -0.0462  0.3644
  275MOL0     O36993  10.876   5.858   5.737  0.3367  0.5549 -0.5015
  275MOL0     C36994  10.782   5.899   5.822  0.9718 -0.4553  0.0371
  275MOL0     C36995  10.692   6.005   5.803 -0.1291  0.8479 -0.3304
  275MOL0     C36996  10.609   6.038   5.913 -0.0117 -0.0101  0.4371
  275MOL0     C36997  10.591   5.951   6.019 -0.6353 -0.6031 -1.1153
  275MOL0     O36998  10.490   5.995   6.106 -0.3048  0.4831  0.6363
  275MOL0     C36999  10.449   5.908   6.209  1.0562 -0.3151 -0.2587
  275MOL0     C37000  10.307   5.942   6.252  0.4672 -0.4109  0.4083
  275MOL0     C37001  10.256   5.880   6.382  0.3997 -0.5676 -0.5202
  275MOL0     C37002  10.232   5.728   6.363 -0.1901 -0.0829 -1.3655
  275MOL0     C37003  10.180   5.668   6.491 -0.2556 -0.2987  0.9067
  275MOL0     C37004  10.062   5.740   6.550  1.0705 -0.1033 -0.0284
  275MOL0     C37005   9.978   5.648   6.645  0.9094  0.7275  0.6278
  275MOL0     C37006   9.846   5.719   6.676  0.5935  0.2047 -0.7646
  275MOL0     N37007   9.876   5.830   6.769  0.7598 -0.8061  0.7077
  275MOL0     C37008   9.893   5.963   6.727 -0.0385 -0.4957 -0.4523
  275MOL0     C37009   9.899   6.031   6.843  1.0230 -0.3366 -0.8515
  275MOL0     C37010   9.915   6.179   6.863  0.3830 -0.0111  0.9266
  275MOL0     C37011  10.030   6.213   6.962 -0.1571  0.9213  0.2889
  275MOL0     C37012  10.061   6.364   6.952  0.3473  0.8067 -0.5263
  275MOL0     C37013   9.958   6.454   7.019  0.1053 -0.4554 -0.3485
  275MOL0     O37014  10.030   6.570   7.082  0.2392  0.0170  0.4802
  275MOL0     C37015  10.037   6.686   7.011 -1.3887  0.5467 -0.0105
  275MOL0     C37016  10.153   6.767   7.028  0.1992  1.0582 -0.1303
  275MOL0     C37017  10.178   6.886   6.950 -0.8497 -0.5784 -0.6005
  275MOL0     C37018  10.291   6.981   6.997 -0.4753  1.0163  0.6294
  275MOL0     C37019  10.094   6.915   6.849  0.5525  0.2543  0.6595
  275MOL0     C37020  10.094   7.032   6.766  0.0349 -0.3897  0.2983
  275MOL0     O37021  10.079   7.002   6.634 -0.1894  0.5596 -0.2398
  275MOL0     C37022  10.079   7.105   6.546  0.6596  0.4232  0.4885
  275MOL0     C37023  10.189   7.183   6.515  0.1857 -0.0012 -0.5966
  275MOL0     C37024  10.177   7.279   6.412  0.3792 -0.5466 -0.6646
  275MOL0     C37025  10.056   7.295   6.352  1.2478 -0.5424 -0.4864
  275MOL0     O37026  10.044   7.387   6.254 -0.6102 -0.0351 -0.0199
  275MOL0     C37027   9.919   7.466   6.253 -0.3877  0.0955  0.2899
  275MOL0     C37028   9.923   7.573   6.150 -0.2708 -0.5530  0.5821
  275MOL0     C37029   9.819   7.670   6.172  1.0662  0.5285 -0.4026
  275MOL0     C37030   9.678   7.603   6.159 -0.1655 -0.3270 -0.5731
  275MOL0     C37031   9.566   7.703   6.156 -0.3611  0.0761 -0.5916
  275MOL0     C37032   9.446   7.614   6.176  0.7952  0.5549  0.0013
  275MOL0     C37033   9.314   7.698   6.177  0.0069 -1.7685  0.4379
  275MOL0     C37034   9.194   7.616   6.171 -0.0508  0.3218  0.1177
  275MOL0    Cl37035   9.167   7.517   6.321 -0.3924  0.1030 -0.2402
  275MOL0     C37036   9.944   7.208   6.378 -0.8051 -0.2519  0.4758
  275MOL0     C37037   9.957   7.113   6.472  0.2138  0.2443  0.0727
  275MOL0     O37038  10.123   7.140   6.815 -0.0723  0.0740  1.1661
  275MOL0     C37039   9.970   6.839   6.843 -0.1929 -0.2489  0.5663
  275MOL0     C37040   9.944   6.725   6.921  0.6270 -0.2499  0.2118
  275MOL0     N37041   9.881   5.938   6.945 -0.1186 -0.8603  0.4869
  275MOL0     N37042   9.885   5.820   6.903  0.9900  0.0721  0.1228
  275MOL0     C37043  10.677   5.832   6.033  0.1519 -1.4354  0.8594
  275MOL0     C37044  10.773   5.820   5.938  0.4752  0.0694  1.3061
  275MOL0     C37045  10.932   5.776   5.515 -0.0421  1.5817 -0.6205
  275MOL0     C37046  10.904   5.771   5.378 -0.0610 -0.2683  0.1591
  275MOL0     C37047  11.003   5.719   5.291  0.3686 -0.7138  0.5502
  275MOL0     C37048  11.122   5.662   5.334  0.4797  0.3934 -1.1948
  275MOL0     O37049  11.181   5.580   5.237  0.4006  0.5062  0.8266
  275MOL0     C37050  11.312   5.551   5.266 -0.5846  0.3650 -0.4787
  275MOL0     C37051  11.380   5.473   5.152 -0.2352 -0.4658 -0.2665
  275MOL0     C37052  11.520   5.430   5.202 -0.3097 -0.4977 -0.4201
  275MOL0     C37053  11.600   5.346   5.100  0.3991  0.2957  0.7890
  275MOL0     C37054  11.741   5.329   5.121 -0.0484 -0.0868 -1.1608
  275MOL0     C37055  11.863   5.319   5.119 -0.8954 -0.1834 -0.4300
  275MOL0     C37056  11.148   5.673   5.468 -1.2239 -0.0997 -0.3668
  275MOL0     C37057  11.061   5.734   5.556  0.4359 -1.3931 -0.3608
  275MOL0     H37058  10.713   6.072   5.720 -1.8467  1.5165 -0.2698
  275MOL0     H37059  10.562   6.136   5.918 -0.9084 -0.5038  2.8599
  275MOL0     H37060  10.453   5.800   6.191  2.1955 -0.3162 -0.0414
  275MOL0     H37061  10.519   5.911   6.293  0.5010 -3.9605  0.5199
  275MOL0     H37062  10.308   6.051   6.260  2.3458 -0.3133 -0.6652
  275MOL0     H37063  10.232   5.939   6.173  0.2428  1.3657  0.5140
  275MOL0     H37064  10.322   5.898   6.467  1.5147  0.9245 -1.6217
  275MOL0     H37065  10.158   5.925   6.397  0.3739 -0.4834 -0.9191
  275MOL0     H37066  10.160   5.712   6.282 -2.2577  2.0433 -0.0618
  275MOL0     H37067  10.332   5.694   6.332  1.4169  1.8307  1.3075
  275MOL0     H37068  10.155   5.564   6.468  1.2795  0.0995 -3.7699
  275MOL0     H37069  10.254   5.678   6.571 -0.4254  0.1473  1.0140
  275MOL0     H37070  10.087   5.836   6.595 -2.4227  1.1457 -0.4521
  275MOL0     H37071   9.999   5.754   6.461 -0.6504  1.6752  1.3885
  275MOL0     H37072   9.952   5.553   6.597  1.2109  1.6691 -1.5262
  275MOL0     H37073  10.032   5.627   6.737  0.0539 -1.3988  0.7143
  275MOL0     H37074   9.772   5.652   6.721 -0.2895  1.4450 -0.3128
  275MOL0     H37075   9.797   5.752   6.583  1.9187  0.2916 -1.4532
  275MOL0     H37076   9.898   5.999   6.624  0.8518 -0.7890 -0.5254
  275MOL0     H37077   9.913   6.240   6.772 -3.5958  2.5612  2.4891
  275MOL0     H37078   9.827   6.206   6.923 -1.5139 -2.9765 -0.2624
  275MOL0     H37079  10.122   6.165   6.927 -1.9911 -0.0396 -3.8079
  275MOL0     H37080  10.019   6.169   7.061  2.4393 -0.6084  0.0101
  275MOL0     H37081  10.066   6.382   6.845 -1.6456  0.3201 -0.7264
  275MOL0     H37082  10.157   6.385   7.002  0.1262 -0.2684  0.3910
  275MOL0     H37083   9.917   6.398   7.104  0.1568  2.4775  1.7658
  275MOL0     H37084   9.879   6.487   6.951 -0.5083  0.0314  0.5797
  275MOL0     H37085  10.232   6.739   7.097 -1.5630  0.3456  1.7143
  275MOL0     H37086  10.344   7.028   6.913 -0.3649 -3.8028 -2.4185
  275MOL0     H37087  10.248   7.052   7.067  2.7105  4.4571 -0.5901
  275MOL0     H37088  10.363   6.926   7.058 -0.4710  1.9240  1.4570
  275MOL0     H37089  10.286   7.169   6.562 -0.7371 -0.1098  1.3898
  275MOL0     H37090  10.265   7.335   6.381 -2.0700  2.5798 -2.4643
  275MOL0     H37091   9.835   7.396   6.253 -0.2039 -0.1527  1.4784
  275MOL0     H37092   9.923   7.519   6.348  0.3248 -1.3864  1.1262
  275MOL0     H37093  10.015   7.629   6.168  1.5506 -3.6750  1.9015
  275MOL0     H37094   9.914   7.522   6.054  0.4025 -1.4506  0.9817
  275MOL0     H37095   9.837   7.752   6.103  2.4141  0.0002 -0.7135
  275MOL0     H37096   9.833   7.713   6.272 -3.8182 -2.4181  1.9198
  275MOL0     H37097   9.674   7.548   6.064 -2.3030 -1.1638 -0.0525
  275MOL0     H37098   9.671   7.539   6.248 -2.0832  0.3901 -0.1644
  275MOL0     H37099   9.546   7.756   6.063  0.2878  2.1304  0.3682
  275MOL0     H37100   9.574   7.780   6.234 -1.2375 -0.0629 -0.3543
  275MOL0     H37101   9.438   7.532   6.105 -2.2080  0.4998  0.2904
  275MOL0     H37102   9.448   7.566   6.274 -2.5761  0.7568  0.2631
  275MOL0     H37103   9.314   7.773   6.098 -0.8358 -2.0918  0.1111
  275MOL0     H37104   9.301   7.768   6.260  0.0820  1.6613 -2.2737
  275MOL0     H37105   9.204   7.538   6.095  0.3148  1.5400 -1.1241
  275MOL0     H37106   9.105   7.674   6.144 -0.2966  0.5526  1.3416
  275MOL0     H37107   9.846   7.215   6.332 -1.3170 -1.7772  1.2667
  275MOL0     H37108   9.879   7.042   6.498  2.8898 -2.4702  1.3476
  275MOL0     H37109   9.896   6.869   6.770 -0.3067 -0.7280  0.4810
  275MOL0     H37110   9.848   6.676   6.911  0.0596  0.7085  0.8759
  275MOL0     H37111  10.667   5.751   6.104  0.6441 -1.0379  1.3964
  275MOL0     H37112  10.837   5.733   5.940  0.2948 -0.1053  4.1106
  275MOL0     H37113  10.806   5.804   5.346  0.6496  2.0068  0.1031
  275MOL0     H37114  10.966   5.700   5.190  2.4108 -4.2862  0.3003
  275MOL0     H37115  11.370   5.643   5.281 -0.5932  0.3636 -0.4346
  275MOL0     H37116  11.326   5.493   5.357  0.4517  0.4216 -0.5835
  275MOL0     H37117  11.392   5.539   5.066  0.8049  3.1095  2.3674
  275MOL0     H37118  11.322   5.384   5.128  0.1800  0.3302 -5.2436
  275MOL0     H37119  11.512   5.363   5.288 -4.6150  0.8454  0.5055
  275MOL0     H37120  11.578   5.521   5.221  1.7754 -1.9239  0.4269
  275MOL0     H37121  11.588   5.413   5.014  0.2271 -0.3485  0.3090
  275MOL0     H37122  11.553   5.248   5.088  0.3523  0.4683 -0.5922
  275MOL0     H37123  11.969   5.308   5.116 -1.1158 -3.0981 -0.1158
  275MOL0     H37124  11.236   5.628   5.511 -0.6615  0.3677 -0.9912
  275MOL0     H37125  11.090   5.744   5.661  2.5073 -0.6793 -0.9510
  276MOL0     O37126   8.371   4.109   2.253  0.5427 -0.1619 -0.3203
  276MOL0     C37127   8.437   4.014   2.294 -1.1063 -0.1070  0.3881
  276MOL0     O37128   8.409   3.887   2.266 -0.0801 -0.4722  0.5500
  276MOL0     C37129   8.339   3.847   2.154 -0.2956 -0.2266  1.0622
  276MOL0     C37130   8.256   3.735   2.163 -0.8310  0.1306 -1.5746
  276MOL0     C37131   8.158   3.703   2.072  0.5184  0.1292  0.6373
  276MOL0     C37132   8.157   3.761   1.943 -1.3613  0.4442 -0.8563
  276MOL0     O37133   8.061   3.718   1.853  0.0172 -0.0233 -0.4330
  276MOL0     C37134   8.085   3.762   1.712  1.2954  0.9857  0.0877
  276MOL0     C37135   7.992   3.692   1.621  0.5550  0.2549  0.2663
  276MOL0     C37136   7.845   3.691   1.665 -0.1814  0.2181  0.4671
  276MOL0     C37137   7.758   3.652   1.538  0.2230  0.3414  0.2707
  276MOL0     C37138   7.611   3.698   1.553 -0.9350 -0.7673 -0.6750
  276MOL0     C37139   7.532   3.686   1.431  0.3284 -0.2456  0.2413
  276MOL0     C37140   7.541   3.559   1.333 -0.2630  0.5218 -0.1773
  276MOL0     C37141   7.555   3.420   1.403  0.2803  0.0061 -0.1901
  276MOL0     N37142   7.537   3.312   1.307 -0.5106  0.9423 -0.2327
  276MOL0     C37143   7.531   3.316   1.167  0.0952 -0.5576  0.4923
  276MOL0     C37144   7.516   3.183   1.137  0.4537 -0.6942 -0.0081
  276MOL0     C37145   7.529   3.142   0.992  0.3898  0.0047 -0.8685
  276MOL0     C37146   7.672   3.157   0.946  0.4574  0.0007  0.0587
  276MOL0     C37147   7.766   3.079   1.030  0.3649  0.5624  0.4453
  276MOL0     C37148   7.760   2.919   1.039  1.0060  0.2901 -0.3599
  276MOL0     O37149   7.743   2.868   0.909  0.4505  0.7509  0.3371
  276MOL0     C37150   7.800   2.743   0.895 -0.4068  0.2023 -0.1985
  276MOL0     C37151   7.823   2.703   0.764  0.0387  0.2682  0.8325
  276MOL0     C37152   7.881   2.578   0.734  0.1602  0.2560  0.6327
  276MOL0     C37153   7.909   2.552   0.588 -0.7338 -0.4708  0.2596
  276MOL0     C37154   7.914   2.488   0.834  0.0994  0.0710 -0.0275
  276MOL0     C37155   7.987   2.356   0.815 -0.3109 -0.3764  0.1766
  276MOL0     O37156   8.062   2.303   0.915 -0.7622 -0.0038 -0.1658
  276MOL0     C37157   8.126   2.174   0.892  0.2559  0.5398 -0.0656
  276MOL0     C37158   8.063   2.052   0.940  0.2326  0.0036 -0.6312
  276MOL0     C37159   8.117   1.924   0.920 -0.7970 -1.0640 -0.2404
  276MOL0     C37160   8.244   1.904   0.865  0.2798 -0.4096  0.0552
  276MOL0     O37161   8.311   1.780   0.854  0.2921  0.2015  0.4542
  276MOL0     C37162   8.226   1.679   0.789 -0.5052  0.5041 -0.5252
  276MOL0     C37163   8.321   1.566   0.749  0.2365  0.1909  1.0353
  276MOL0     C37164   8.257   1.444   0.679 -0.3274  0.0056 -0.0189
  276MOL0     C37165   8.144   1.473   0.585 -0.0309 -0.0710 -1.2979
  276MOL0     C37166   8.188   1.522   0.452 -0.3024 -0.2902 -0.4574
  276MOL0     C37167   8.067   1.529   0.364  0.1632  0.0916 -0.2644
  276MOL0     C37168   8.080   1.632   0.240 -1.4440 -0.1436  0.0603
  276MOL0     C37169   7.960   1.644   0.146 -0.2059  0.7008  0.2493
  276MOL0    Cl37170   7.811   1.683   0.238 -0.1837  0.5057 -0.1835
  276MOL0     C37171   8.305   2.027   0.827 -1.1889  0.8312  0.3417
  276MOL0     C37172   8.246   2.158   0.832 -0.5251  0.3115  0.4177
  276MOL0     O37173   7.953   2.300   0.714  0.6742 -0.1443 -0.2788
  276MOL0     C37174   7.891   2.529   0.967  1.5199 -0.1723  1.1646
  276MOL0     C37175   7.843   2.657   0.999  0.6948 -0.2974 -0.5514
  276MOL0     N37176   7.502   3.116   1.253 -0.3650 -0.1041  0.8965
  276MOL0     N37177   7.524   3.187   1.352  0.3053  0.2971 -0.5689
  276MOL0     C37178   8.260   3.859   1.922 -0.4178 -0.0859 -0.1370
  276MOL0     C37179   8.353   3.909   2.025  0.3070 -0.5799  0.5407
  276MOL0     C37180   8.565   4.040   2.355  0.1902 -0.1037 -0.3086
  276MOL0     C37181   8.594   4.166   2.405 -0.1527 -0.0858 -0.1480
  276MOL0     C37182   8.699   4.189   2.494  0.0626 -0.7086 -0.6968
  276MOL0     C37183   8.786   4.087   2.515 -1.0207 -0.4005  0.0969
  276MOL0     O37184   8.899   4.105   2.600  0.5599 -0.9824 -0.0838
  276MOL0     C37185   8.938   4.239   2.651  0.3097  0.3271 -0.4731
  276MOL0     C37186   9.069   4.230   2.729 -0.7317  0.4829 -0.2065
  276MOL0     C37187   9.188   4.186   2.650 -0.5919  0.0043 -0.0360
  276MOL0     C37188   9.316   4.213   2.720 -0.1587  0.5183  0.1656
  276MOL0     C37189   9.347   4.356   2.702 -0.4337 -0.8565  0.3962
  276MOL0     C37190   9.383   4.468   2.686 -0.5997  0.3930  0.6814
  276MOL0     C37191   8.770   3.956   2.457 -0.3749 -0.0123 -0.7323
  276MOL0     C37192   8.660   3.937   2.382  0.2072  0.3900  0.9996
  276MOL0     H37193   8.255   3.677   2.255  1.1435  1.3297 -0.7236
  276MOL0     H37194   8.094   3.617   2.089  0.0895  0.3431  0.1702
  276MOL0     H37195   8.080   3.870   1.697 -0.1118  1.1314  1.3545
  276MOL0     H37196   8.177   3.720   1.670 -0.0783 -1.3134 -0.8512
  276MOL0     H37197   8.004   3.730   1.519  0.7515 -1.3467 -0.3381
  276MOL0     H37198   8.027   3.588   1.617 -0.3891 -0.0443 -2.8120
  276MOL0     H37199   7.823   3.641   1.760  1.4480  0.1325  0.8347
  276MOL0     H37200   7.812   3.791   1.695 -2.4370 -1.0197  2.4315
  276MOL0     H37201   7.801   3.693   1.446 -1.0393 -0.2115 -0.5964
  276MOL0     H37202   7.767   3.545   1.517 -2.8050  0.3579 -1.7502
  276MOL0     H37203   7.579   3.657   1.650  3.3116  0.7770  1.6627
  276MOL0     H37204   7.607   3.807   1.559 -3.5585 -0.8920  2.5469
  276MOL0     H37205   7.427   3.708   1.453  0.2096  2.8987 -2.5584
  276MOL0     H37206   7.569   3.754   1.353 -0.5693 -1.9246 -1.7647
  276MOL0     H37207   7.445   3.557   1.280  0.2132  0.8942 -1.0725
  276MOL0     H37208   7.633   3.572   1.276 -1.1800  2.7053 -1.2550
  276MOL0     H37209   7.472   3.401   1.471  0.3849 -1.5535 -0.4408
  276MOL0     H37210   7.658   3.406   1.438  0.7777  0.3308 -1.4715
  276MOL0     H37211   7.545   3.402   1.102 -3.7322 -0.0024  0.1340
  276MOL0     H37212   7.489   3.042   0.969 -1.4673  0.5875 -0.3649
  276MOL0     H37213   7.455   3.208   0.944 -0.4779 -1.1641 -1.2054
  276MOL0     H37214   7.698   3.264   0.948  2.1137 -0.3583 -0.7653
  276MOL0     H37215   7.683   3.130   0.840 -1.6805 -0.7382 -0.0216
  276MOL0     H37216   7.763   3.125   1.129  0.0018  2.0851 -0.2449
  276MOL0     H37217   7.865   3.112   0.997 -0.2029  0.8689 -1.0378
  276MOL0     H37218   7.679   2.889   1.107  1.9368  0.8136  1.0062
  276MOL0     H37219   7.858   2.900   1.085  0.6207 -1.7829 -0.2941
  276MOL0     H37220   7.799   2.774   0.686  0.3463  1.3308  1.6845
  276MOL0     H37221   8.017   2.538   0.576 -0.4956 -1.3190  2.8435
  276MOL0     H37222   7.868   2.461   0.543 -1.9217  0.8433 -1.4650
  276MOL0     H37223   7.881   2.637   0.525  1.7258 -1.2376 -2.0268
  276MOL0     H37224   7.968   2.066   0.991 -0.7778 -1.0759 -2.1315
  276MOL0     H37225   8.078   1.837   0.973  2.0838 -1.4897  1.3706
  276MOL0     H37226   8.154   1.631   0.856  0.0123 -0.1582 -0.4224
  276MOL0     H37227   8.177   1.720   0.700  0.5506  0.6267 -1.0778
  276MOL0     H37228   8.397   1.600   0.678 -0.3557 -0.0085  0.2918
  276MOL0     H37229   8.373   1.528   0.838 -0.7432 -1.7467  0.8309
  276MOL0     H37230   8.221   1.368   0.749 -0.8667  2.3845  2.4745
  276MOL0     H37231   8.341   1.392   0.632 -1.1108 -1.4455  0.1294
  276MOL0     H37232   8.099   1.375   0.567 -0.5914 -0.1202  0.2437
  276MOL0     H37233   8.069   1.538   0.630 -0.5780 -1.6850  0.2246
  276MOL0     H37234   8.269   1.468   0.402  1.0828  0.2975  1.0191
  276MOL0     H37235   8.223   1.624   0.471 -5.0726  1.0585  2.8880
  276MOL0     H37236   8.057   1.429   0.321 -0.6863 -0.0157  0.1454
  276MOL0     H37237   7.967   1.551   0.404  0.0108 -0.7910 -0.1407
  276MOL0     H37238   8.165   1.596   0.181 -2.6832 -2.0428 -0.6509
  276MOL0     H37239   8.099   1.728   0.289  0.0809 -0.5492  0.3483
  276MOL0     H37240   7.942   1.552   0.090 -0.4851  0.1265  1.2608
  276MOL0     H37241   7.978   1.721   0.070 -0.9970 -1.3021 -2.1207
  276MOL0     H37242   8.408   2.042   0.798 -1.2995  0.2035 -0.4353
  276MOL0     H37243   8.308   2.243   0.805 -1.7361  2.7827  4.5751
  276MOL0     H37244   7.926   2.466   1.048  1.3290 -0.0922  1.3115
  276MOL0     H37245   7.848   2.685   1.104  1.2896  0.9462 -0.8879
  276MOL0     H37246   8.275   3.887   1.818 -2.0207 -1.6774 -0.8540
  276MOL0     H37247   8.427   3.985   2.002 -2.7436  2.4976 -0.0022
  276MOL0     H37248   8.528   4.250   2.387  0.6345  0.3315 -1.2354
  276MOL0     H37249   8.729   4.288   2.529  0.8144 -0.3354 -2.3040
  276MOL0     H37250   8.950   4.299   2.561  1.6303 -0.7541 -1.0576
  276MOL0     H37251   8.862   4.285   2.714  1.0950  2.6740 -1.1374
  276MOL0     H37252   9.057   4.167   2.818  4.5444  1.7642  1.8047
  276MOL0     H37253   9.083   4.332   2.767 -0.7569  0.4311 -0.0566
  276MOL0     H37254   9.189   4.230   2.549  1.6683 -2.1738 -1.0599
  276MOL0     H37255   9.185   4.077   2.639  1.8075  0.0137 -1.5844
  276MOL0     H37256   9.391   4.140   2.691  1.4836  1.5895  1.5093
  276MOL0     H37257   9.312   4.198   2.828 -0.8131 -0.4626  0.0144
  276MOL0     H37258   9.413   4.571   2.685 -0.7835  0.4411  0.0474
  276MOL0     H37259   8.853   3.886   2.461 -1.0459 -0.8698 -1.5168
  276MOL0     H37260   8.655   3.834   2.348  1.5870  0.5660  0.1645
  277MOL0     O37261  11.102   3.295   0.000 -0.0652 -0.0713  0.2805
  277MOL0     C37262  11.173   3.357  -0.082  0.2070  1.0469  0.5410
  277MOL0     O37263  11.289   3.425  -0.054 -0.1065 -0.0454  0.4345
  277MOL0     C37264  11.343   3.404   0.066 -0.0511 -0.6674 -0.2824
  277MOL0     C37265  11.283   3.427   0.192 -0.5073 -0.3611 -0.4360
  277MOL0     C37266  11.347   3.395   0.315  0.1832 -1.0093 -0.1934
  277MOL0     C37267  11.473   3.334   0.307 -0.0834 -0.2711 -0.8168
  277MOL0     O37268  11.543   3.301   0.423  0.2634  0.0223  0.8111
  277MOL0     C37269  11.630   3.403   0.465  0.2901 -0.8341  1.0012
  277MOL0     C37270  11.717   3.372   0.586  0.1367  0.7686  0.5284
  277MOL0     C37271  11.635   3.343   0.706  0.6119  0.2572  0.6003
  277MOL0     C37272  11.705   3.336   0.842  0.4090 -0.1634  0.1066
  277MOL0     C37273  11.606   3.281   0.956 -0.0419  0.3314  0.5879
  277MOL0     C37274  11.641   3.365   1.086 -0.6775  0.7977 -0.7011
  277MOL0     C37275  11.685   3.257   1.188 -0.4167 -0.0085 -0.3234
  277MOL0     C37276  11.731   3.303   1.327 -0.2887  0.1868 -0.4075
  277MOL0     N37277  11.631   3.392   1.397  0.0336 -0.2479  0.6665
  277MOL0     C37278  11.522   3.349   1.474  0.9435  0.8773 -0.3907
  277MOL0     C37279  11.473   3.451   1.547  0.6858  0.2449 -0.0979
  277MOL0     C37280  11.367   3.448   1.652 -0.3590 -0.2255 -1.0058
  277MOL0     C37281  11.400   3.389   1.797  0.5449  0.8507  0.5808
  277MOL0     C37282  11.506   3.471   1.864  0.8640  0.9228 -0.0276
  277MOL0     C37283  11.555   3.415   1.998 -0.2400  0.1058  0.4313
  277MOL0     O37284  11.432   3.395   2.076  0.0033  0.5851 -0.6255
  277MOL0     C37285  11.454   3.308   2.180 -0.5396 -0.3022 -0.9253
  277MOL0     C37286  11.520   3.337   2.293 -0.2399 -0.5213 -0.5791
  277MOL0     C37287  11.529   3.249   2.398 -0.2138  0.4308 -0.6236
  277MOL0     C37288  11.627   3.289   2.515 -0.3289  0.0219 -0.4581
  277MOL0     C37289  11.470   3.113   2.383  0.2439 -0.5442  0.5247
  277MOL0     C37290  11.482   3.003   2.491  0.5879 -1.1376  0.0900
  277MOL0     O37291  11.447   2.881   2.447 -0.4813  0.0450  0.9196
  277MOL0     C37292  11.412   2.795   2.544  0.6224 -0.1875  1.2879
  277MOL0     C37293  11.274   2.772   2.548 -0.2394  0.0384 -0.5998
  277MOL0     C37294  11.217   2.693   2.652 -0.7558  0.5428 -0.0011
  277MOL0     C37295  11.305   2.630   2.742  0.7413 -0.0642 -0.5074
  277MOL0     O37296  11.251   2.551   2.844  0.0475 -0.0695  0.5927
  277MOL0     C37297  11.330   2.460   2.914  1.1611  0.9641 -0.1458
  277MOL0     C37298  11.228   2.375   3.005 -0.3438 -0.3481  0.7724
  277MOL0     C37299  11.301   2.319   3.121  0.0964  0.4818 -0.8625
  277MOL0     C37300  11.324   2.414   3.237  0.2857 -0.3077 -0.1746
  277MOL0     C37301  11.398   2.332   3.353  0.2600 -0.5982  0.4715
  277MOL0     C37302  11.405   2.430   3.467  0.0027 -0.2278 -0.5635
  277MOL0     C37303  11.479   2.359   3.578 -0.1501 -0.4015  0.0252
  277MOL0     C37304  11.494   2.456   3.695 -0.3677  0.3421 -1.0995
  277MOL0    Cl37305  11.611   2.601   3.654  0.4099  1.0446  0.1530
  277MOL0     C37306  11.447   2.644   2.725  0.3500  0.7356 -0.1260
  277MOL0     C37307  11.504   2.723   2.619  0.3064  0.0699 -1.3555
  277MOL0     O37308  11.499   3.037   2.608  0.3200  0.3902  0.8133
  277MOL0     C37309  11.396   3.083   2.265 -0.4425 -0.2904 -0.1135
  277MOL0     C37310  11.394   3.186   2.172 -0.3555 -0.2719 -0.7045
  277MOL0     N37311  11.549   3.555   1.513  0.3105 -0.5540 -1.2004
  277MOL0     N37312  11.640   3.523   1.425 -0.4604  0.0032 -0.4988
  277MOL0     C37313  11.538   3.313   0.188 -0.8432  0.1014  0.2045
  277MOL0     C37314  11.475   3.349   0.067  0.1715  0.2249 -0.5663
  277MOL0     C37315  11.121   3.344  -0.224 -0.8365 -1.0493 -1.1120
  277MOL0     C37316  11.183   3.416  -0.332  0.6536  0.1407 -0.4645
  277MOL0     C37317  11.134   3.412  -0.462  0.1407 -0.2257  0.2321
  277MOL0     C37318  11.038   3.318  -0.491  0.9669  0.0755 -0.8444
  277MOL0     O37319  11.006   3.318  -0.620 -0.2490 -0.2103 -0.8392
  277MOL0     C37320  10.865   3.289  -0.647 -0.2000 -0.3877  0.3053
  277MOL0     C37321  10.839   3.314  -0.792 -0.2748  0.2812  0.4202
  277MOL0     C37322  10.726   3.244  -0.861 -0.2589  0.0070 -0.1477
  277MOL0     C37323  10.733   3.251  -1.014 -0.6388  0.2251 -0.1425
  277MOL0     C37324  10.652   3.141  -1.072 -0.2731 -1.0723  0.0362
  277MOL0     C37325  10.586   3.056  -1.118 -0.5743  0.0260 -0.9224
  277MOL0     C37326  10.978   3.238  -0.399 -0.0075  0.8347 -0.2166
  277MOL0     C37327  11.013   3.259  -0.265  0.8325 -0.4525 -0.4501
  277MOL0     H37328  11.193   3.488   0.197  0.7280  1.4374  0.7939
  277MOL0     H37329  11.290   3.428   0.401  1.3458  1.5151 -0.3013
  277MOL0     H37330  11.702   3.431   0.387  1.0891 -0.2312  1.9435
  277MOL0     H37331  11.573   3.490   0.500 -0.5135 -1.1134  0.4066
  277MOL0     H37332  11.769   3.283   0.549 -0.2801  0.7850 -0.1123
  277MOL0     H37333  11.785   3.455   0.608 -1.9625  2.7847 -0.1901
  277MOL0     H37334  11.544   3.404   0.712 -1.1556 -2.2036  0.0078
  277MOL0     H37335  11.600   3.242   0.685  5.6613 -1.9516  1.3301
  277MOL0     H37336  11.797   3.279   0.825  0.1172 -1.0329  1.2811
  277MOL0     H37337  11.726   3.442   0.860  1.2195 -0.0787 -1.2406
  277MOL0     H37338  11.507   3.308   0.918 -0.6001 -3.9432 -1.4978
  277MOL0     H37339  11.604   3.175   0.980 -4.1487  0.0113 -0.5264
  277MOL0     H37340  11.729   3.428   1.067  0.5168 -0.4195  0.5700
  277MOL0     H37341  11.572   3.441   1.122 -0.7866  0.2924  0.1796
  277MOL0     H37342  11.604   3.184   1.184  0.3609 -0.8440 -1.6026
  277MOL0     H37343  11.779   3.208   1.159  1.1100  1.2143  2.1850
  277MOL0     H37344  11.828   3.350   1.306 -0.0111 -0.0075  0.3738
  277MOL0     H37345  11.745   3.210   1.384  0.3187  0.6489  0.2258
  277MOL0     H37346  11.496   3.247   1.498  2.0309  0.0559 -2.4244
  277MOL0     H37347  11.328   3.550   1.664 -2.2130 -0.9449 -0.5148
  277MOL0     H37348  11.279   3.394   1.616 -1.3516  0.6862 -0.0474
  277MOL0     H37349  11.430   3.287   1.771  0.7601  1.7932 -3.6326
  277MOL0     H37350  11.307   3.384   1.854 -0.0058  0.6922 -0.3136
  277MOL0     H37351  11.464   3.569   1.889 -0.5280  0.3091  0.1075
  277MOL0     H37352  11.591   3.480   1.796 -1.0073  0.6161 -2.5475
  277MOL0     H37353  11.628   3.480   2.048  0.1833 -0.0944  0.0731
  277MOL0     H37354  11.599   3.316   1.982  1.2861  1.0890 -1.9191
  277MOL0     H37355  11.543   3.443   2.300 -4.2404  0.7180 -2.9098
  277MOL0     H37356  11.594   3.250   2.612 -3.5157 -3.2612 -2.6231
  277MOL0     H37357  11.726   3.249   2.492 -0.8308 -1.3075 -0.3568
  277MOL0     H37358  11.636   3.398   2.519 -1.4606  0.1507  3.7274
  277MOL0     H37359  11.209   2.831   2.484  3.4858  3.1595 -1.9028
  277MOL0     H37360  11.109   2.693   2.666 -1.1316  0.3116 -2.4569
  277MOL0     H37361  11.381   2.394   2.843 -0.5512 -0.9915  0.3520
  277MOL0     H37362  11.398   2.514   2.981 -1.0541 -0.2519  3.3531
  277MOL0     H37363  11.151   2.431   3.057 -0.0115 -1.9226  3.0963
  277MOL0     H37364  11.180   2.295   2.947  3.0078 -2.5044  0.6666
  277MOL0     H37365  11.397   2.281   3.084 -0.7112 -1.9890 -0.6175
  277MOL0     H37366  11.252   2.224   3.146 -0.3841  0.4981 -1.7178
  277MOL0     H37367  11.392   2.494   3.207 -2.3948  2.2411  0.0864
  277MOL0     H37368  11.230   2.465   3.262 -0.1694 -1.6532  0.9992
  277MOL0     H37369  11.499   2.312   3.318 -0.3994  0.7760 -2.5035
  277MOL0     H37370  11.337   2.245   3.383 -1.8123 -0.7537 -3.5156
  277MOL0     H37371  11.462   2.522   3.448  0.8784 -0.6282  0.0459
  277MOL0     H37372  11.302   2.453   3.497  0.9090  0.0832  2.7680
  277MOL0     H37373  11.577   2.325   3.543 -0.1941  0.9786 -1.5833
  277MOL0     H37374  11.426   2.272   3.617  1.1702 -1.6212 -0.8016
  277MOL0     H37375  11.528   2.403   3.784  0.9968  1.7615 -0.7384
  277MOL0     H37376  11.398   2.502   3.719  0.2362  1.6942 -1.2144
  277MOL0     H37377  11.500   2.571   2.785 -1.8102 -1.5537 -0.8191
  277MOL0     H37378  11.612   2.731   2.615  0.9094  1.3183  5.4898
  277MOL0     H37379  11.343   2.991   2.241  0.1016 -1.4649  2.8221
  277MOL0     H37380  11.342   3.177   2.077 -1.9453  0.7281  0.0212
  277MOL0     H37381  11.628   3.254   0.176 -2.1704 -1.5330 -3.0672
  277MOL0     H37382  11.527   3.326  -0.026 -0.3722  0.8992 -1.0521
  277MOL0     H37383  11.257   3.491  -0.306 -1.7652  1.8850  1.9680
  277MOL0     H37384  11.182   3.466  -0.543 -1.5690  0.9121 -0.0807
  277MOL0     H37385  10.842   3.182  -0.640  0.9354 -0.6576  0.1241
  277MOL0     H37386  10.802   3.359  -0.590  2.2767  1.1214  1.3317
  277MOL0     H37387  10.929   3.294  -0.851 -1.1985 -0.6037 -0.7397
  277MOL0     H37388  10.820   3.422  -0.800  0.8839  0.4535 -0.2932
  277MOL0     H37389  10.628   3.291  -0.845 -1.3480 -1.0870 -2.9498
  277MOL0     H37390  10.715   3.146  -0.814  1.2317  0.3587  1.0133
  277MOL0     H37391  10.838   3.229  -1.038 -0.6069 -3.0465  2.2781
  277MOL0     H37392  10.712   3.353  -1.049  1.0258  0.7172  0.1950
  277MOL0     H37393  10.525   2.977  -1.157 -0.4097  0.3050 -1.7784
  277MOL0     H37394  10.908   3.160  -0.428  0.7855 -0.3953  1.0568
  277MOL0     H37395  10.954   3.205  -0.192  1.6546  0.3591  0.8542
  278MOL0     O37396   3.279   7.141   0.639  0.5155  0.8093 -0.8933
  278MOL0     C37397   3.197   7.056   0.685 -0.9919 -0.6362  0.7309
  278MOL0     O37398   3.215   6.927   0.727  0.1639 -0.4101 -0.1629
  278MOL0     C37399   3.337   6.869   0.712 -0.0070  0.2580  0.2355
  278MOL0     C37400   3.326   6.735   0.682 -0.6512 -0.4263  0.1676
  278MOL0     C37401   3.448   6.663   0.661  0.7852  0.2238 -0.3882
  278MOL0     C37402   3.568   6.710   0.693 -1.0287 -0.1359 -0.8598
  278MOL0     O37403   3.672   6.632   0.693 -0.0666  1.0900  0.4837
  278MOL0     C37404   3.669   6.517   0.772 -0.0989  0.8445  1.1394
  278MOL0     C37405   3.807   6.455   0.740  0.3205  0.1757  0.8383
  278MOL0     C37406   3.808   6.318   0.819 -0.8042  0.7419 -1.0784
  278MOL0     C37407   3.930   6.234   0.759 -1.1109  0.4372 -0.0657
  278MOL0     C37408   3.928   6.085   0.803  0.0310 -0.0972 -0.1936
  278MOL0     C37409   3.923   6.076   0.953 -0.2336 -0.2035 -0.4176
  278MOL0     C37410   3.988   5.945   0.987  0.1376  0.3223  0.7739
  278MOL0     C37411   3.987   5.913   1.139  0.2942  0.3161 -0.0006
  278MOL0     N37412   4.090   5.811   1.174 -0.3232 -0.8822  0.3075
  278MOL0     C37413   4.085   5.670   1.168  0.0824 -0.3444 -0.7748
  278MOL0     C37414   4.199   5.616   1.216 -0.3679  0.4468 -0.0539
  278MOL0     C37415   4.248   5.468   1.226  0.1868  0.2528  0.1104
  278MOL0     C37416   4.313   5.444   1.363 -0.1781  0.8709  0.2209
  278MOL0     C37417   4.201   5.467   1.471  0.2359  0.5797  0.1762
  278MOL0     C37418   4.257   5.411   1.598  0.2919 -0.2755  0.6415
  278MOL0     O37419   4.291   5.277   1.603 -1.3113  0.4436  0.2939
  278MOL0     C37420   4.401   5.239   1.682 -0.4688 -0.6203  1.0538
  278MOL0     C37421   4.432   5.303   1.795  0.2559 -0.3099 -0.6575
  278MOL0     C37422   4.535   5.255   1.881  0.0580 -0.6942  0.7104
  278MOL0     C37423   4.558   5.327   2.013  0.1649  0.2391 -0.7923
  278MOL0     C37424   4.613   5.152   1.835  0.6147 -0.3726  0.0922
  278MOL0     C37425   4.728   5.088   1.908 -1.0715  0.2868 -0.4342
  278MOL0     O37426   4.757   4.948   1.883 -0.9762  0.8921 -0.1803
  278MOL0     C37427   4.791   4.874   1.995  0.2335  0.5652  0.6186
  278MOL0     C37428   4.754   4.894   2.125 -0.6664 -0.4406 -0.5390
  278MOL0     C37429   4.793   4.810   2.240 -1.0643 -0.1808 -0.4372
  278MOL0     C37430   4.863   4.690   2.210  1.4006  0.0870 -0.2821
  278MOL0     O37431   4.884   4.614   2.331  0.7274 -0.7148 -0.2949
  278MOL0     C37432   4.948   4.481   2.313  0.3837 -0.4230  0.8293
  278MOL0     C37433   5.010   4.436   2.451 -0.4035  0.1070  0.4245
  278MOL0     C37434   4.900   4.407   2.546 -0.4536  0.4426 -1.1476
  278MOL0     C37435   4.928   4.341   2.680 -1.0411  0.0956  0.9758
  278MOL0     C37436   4.990   4.195   2.660 -0.6645 -0.3250  0.7247
  278MOL0     C37437   5.020   4.110   2.794  0.8039 -0.0902  0.0971
  278MOL0     C37438   5.123   4.176   2.887 -0.2691  0.2857  1.1675
  278MOL0     C37439   5.261   4.125   2.856 -0.1778  0.4961 -0.8052
  278MOL0    Cl37440   5.376   4.214   2.966 -0.1136 -0.0412 -0.0945
  278MOL0     C37441   4.895   4.655   2.075  0.7347  0.1992 -0.1652
  278MOL0     C37442   4.863   4.754   1.972  0.3383 -0.1105 -0.6681
  278MOL0     O37443   4.803   5.159   1.982 -0.3507 -0.1175  0.1667
  278MOL0     C37444   4.572   5.080   1.722 -0.0787  0.0042  0.3101
  278MOL0     C37445   4.470   5.126   1.641 -0.6279  0.0130 -0.4680
  278MOL0     N37446   4.267   5.725   1.253  0.8301  0.4228 -0.4583
  278MOL0     N37447   4.204   5.839   1.225  0.0795  0.3000  0.5634
  278MOL0     C37448   3.578   6.844   0.736  0.9718  0.0163 -0.6007
  278MOL0     C37449   3.465   6.931   0.734 -0.6395  1.4987 -0.2305
  278MOL0     C37450   3.058   7.105   0.692  0.6969  0.2891  0.0714
  278MOL0     C37451   2.953   7.035   0.769  0.1398 -0.5478  1.1036
  278MOL0     C37452   2.817   7.076   0.765 -0.8076  0.7676 -0.1599
  278MOL0     C37453   2.774   7.177   0.674  0.3709 -0.3268  0.4022
  278MOL0     O37454   2.644   7.195   0.644  0.3367  0.3563  0.3570
  278MOL0     C37455   2.590   7.317   0.696  0.4279  0.3122  0.4066
  278MOL0     C37456   2.448   7.322   0.645 -0.7928 -0.1843 -0.7468
  278MOL0     C37457   2.383   7.190   0.672  0.2487 -1.4890 -0.1287
  278MOL0     C37458   2.233   7.190   0.653 -0.2917  1.3728  0.0118
  278MOL0     C37459   2.180   7.175   0.516 -0.9430  0.2147 -1.2710
  278MOL0     C37460   2.139   7.160   0.407 -0.3758  0.2049  0.4928
  278MOL0     C37461   2.876   7.253   0.613  0.5715  0.1611  0.1055
  278MOL0     C37462   3.008   7.218   0.624 -0.0953 -0.4700  0.3010
  278MOL0     H37463   3.230   6.693   0.650  0.3945 -1.0033 -2.5353
  278MOL0     H37464   3.454   6.563   0.619  0.6079 -0.2936  0.7907
  278MOL0     H37465   3.652   6.554   0.873 -4.5939  4.2592 -0.5393
  278MOL0     H37466   3.588   6.447   0.749  0.7869 -1.0821  3.5170
  278MOL0     H37467   3.822   6.429   0.635 -3.1263  2.3456 -0.3351
  278MOL0     H37468   3.888   6.520   0.774 -1.2024  1.0009  3.0540
  278MOL0     H37469   3.819   6.331   0.927  1.8809  1.0122 -1.3348
  278MOL0     H37470   3.714   6.265   0.797 -2.1005  0.9334  3.0977
  278MOL0     H37471   3.926   6.241   0.650  1.7698  0.2993 -0.2679
  278MOL0     H37472   4.021   6.280   0.798 -1.0549 -0.6720  1.2013
  278MOL0     H37473   3.849   6.026   0.756  1.0900 -3.6891  2.1340
  278MOL0     H37474   4.021   6.050   0.759 -0.7110 -0.0931 -1.8250
  278MOL0     H37475   3.987   6.147   1.007  0.7554 -2.0053  0.8998
  278MOL0     H37476   3.821   6.092   0.987  0.6306  0.2762  2.1052
  278MOL0     H37477   3.948   5.868   0.921  2.0116  0.4475 -0.6016
  278MOL0     H37478   4.095   5.955   0.964  0.2989 -1.3905  0.6808
  278MOL0     H37479   3.890   5.866   1.161  0.1568  0.4455 -0.3323
  278MOL0     H37480   4.006   6.001   1.201 -4.1582  2.7699 -1.6912
  278MOL0     H37481   3.995   5.635   1.119  0.0210 -0.4065 -0.6157
  278MOL0     H37482   4.165   5.401   1.204  0.7511 -0.6063  0.5543
  278MOL0     H37483   4.329   5.453   1.154 -0.1166 -2.3974  0.2396
  278MOL0     H37484   4.387   5.524   1.373 -1.2466  1.7142  1.8997
  278MOL0     H37485   4.349   5.341   1.371  0.8060  1.3394  2.8407
  278MOL0     H37486   4.104   5.419   1.453  1.0779 -2.2572  2.4546
  278MOL0     H37487   4.185   5.574   1.488  0.6313  0.6179  0.3136
  278MOL0     H37488   4.190   5.436   1.681 -2.2971  0.3836 -1.5298
  278MOL0     H37489   4.350   5.466   1.617 -1.0368  2.1091  0.7006
  278MOL0     H37490   4.369   5.385   1.829 -0.0664 -0.9458  0.3167
  278MOL0     H37491   4.507   5.264   2.086  0.3556 -1.5553 -2.1319
  278MOL0     H37492   4.657   5.331   2.060 -1.2618  3.3044  2.4248
  278MOL0     H37493   4.525   5.431   2.008 -0.2981  0.0512 -3.0161
  278MOL0     H37494   4.702   4.984   2.155  0.9444 -0.0106  1.1875
  278MOL0     H37495   4.758   4.840   2.338  2.3652  2.5907  0.1567
  278MOL0     H37496   4.882   4.407   2.269 -0.1208 -0.5233  1.7354
  278MOL0     H37497   5.036   4.476   2.248 -0.6797 -0.6745 -0.6174
  278MOL0     H37498   5.070   4.347   2.430 -0.7334 -0.0531  0.1462
  278MOL0     H37499   5.074   4.512   2.497  2.3614 -1.1024 -1.1941
  278MOL0     H37500   4.833   4.337   2.495  0.8954 -2.4043  0.7170
  278MOL0     H37501   4.860   4.508   2.563 -3.8072 -0.6722 -1.5809
  278MOL0     H37502   5.010   4.398   2.725 -0.7739 -1.3412  2.3661
  278MOL0     H37503   4.846   4.334   2.752  0.2214 -0.9021  2.3853
  278MOL0     H37504   5.092   4.207   2.622 -1.0111  0.2156 -0.0444
  278MOL0     H37505   4.921   4.137   2.598 -0.8180  0.9156 -0.3067
  278MOL0     H37506   4.928   4.118   2.853 -0.1481  2.5787 -1.6149
  278MOL0     H37507   5.043   4.005   2.774  0.8435  0.2095 -1.5563
  278MOL0     H37508   5.089   4.147   2.987 -0.7017 -0.1095  0.9145
  278MOL0     H37509   5.122   4.284   2.871 -2.0630  0.6080  3.0064
  278MOL0     H37510   5.290   4.128   2.750  1.3095 -0.2292 -0.4450
  278MOL0     H37511   5.263   4.019   2.881 -1.0176  0.2751 -1.6161
  278MOL0     H37512   4.941   4.561   2.045  3.1632 -0.5786  4.9330
  278MOL0     H37513   4.880   4.732   1.867  0.2894  2.3125 -1.2465
  278MOL0     H37514   4.626   4.993   1.687  1.9088  0.6355  1.6185
  278MOL0     H37515   4.428   5.067   1.562 -1.9884  0.8537 -0.4022
  278MOL0     H37516   3.676   6.880   0.765  1.4095 -1.0012 -0.7735
  278MOL0     H37517   3.480   7.030   0.777  0.3718  0.8078  1.0904
  278MOL0     H37518   2.975   6.956   0.840 -0.6264 -1.0718  0.7759
  278MOL0     H37519   2.741   7.017   0.817 -1.2752  1.3018 -0.2286
  278MOL0     H37520   2.594   7.317   0.805  1.3886  0.7418  0.3885
  278MOL0     H37521   2.647   7.402   0.655  0.2071  0.4744  0.4350
  278MOL0     H37522   2.448   7.354   0.540  1.7293  1.0811 -0.4364
  278MOL0     H37523   2.401   7.407   0.696  0.8713  2.6039 -3.4703
  278MOL0     H37524   2.406   7.159   0.775  1.7031  0.6421  0.2397
  278MOL0     H37525   2.425   7.115   0.604  0.4717 -1.3530 -0.1417
  278MOL0     H37526   2.197   7.287   0.689  3.2978  1.3909  4.6463
  278MOL0     H37527   2.200   7.106   0.714 -0.0975  0.7294 -0.7573
  278MOL0     H37528   2.083   7.131   0.320 -3.5187  3.3755  1.2453
  278MOL0     H37529   2.840   7.332   0.548 -0.5154  0.3693  0.9360
  278MOL0     H37530   3.073   7.275   0.558 -2.2501  1.2430 -0.4591
  279MOL0     O37531   7.326   4.017   7.701  0.3986 -0.3154 -0.1816
  279MOL0     C37532   7.329   4.065   7.807  0.4183 -0.6505  0.1169
  279MOL0     O37533   7.214   4.080   7.878  0.0709  0.2363  0.1984
  279MOL0     C37534   7.097   4.046   7.822 -0.2541 -0.3890  1.2825
  279MOL0     C37535   7.042   4.104   7.714 -0.0530  0.2913  0.3511
  279MOL0     C37536   6.924   4.060   7.658  0.1123  0.2012 -0.4087
  279MOL0     C37537   6.848   3.957   7.713  1.1119 -0.1030 -0.7776
  279MOL0     O37538   6.726   3.921   7.648  0.0870 -0.6625 -0.1795
  279MOL0     C37539   6.665   3.795   7.691  0.0294 -1.6980  0.5054
  279MOL0     C37540   6.510   3.812   7.659 -0.1812  0.0369 -0.2590
  279MOL0     C37541   6.439   3.671   7.666 -0.8483  0.9005  0.3231
  279MOL0     C37542   6.287   3.665   7.638  0.5180 -0.4078  0.0435
  279MOL0     C37543   6.227   3.532   7.687  1.0988  0.3512  0.1358
  279MOL0     C37544   6.064   3.528   7.652 -0.3908  0.5840  0.9059
  279MOL0     C37545   5.988   3.636   7.741  0.0288  0.6000  0.7014
  279MOL0     C37546   6.024   3.641   7.891 -0.4054  0.6442  0.9883
  279MOL0     N37547   5.934   3.718   7.968 -0.1373 -0.6774 -0.8108
  279MOL0     C37548   5.945   3.846   8.014  0.6307 -0.3571  0.6022
  279MOL0     C37549   5.831   3.863   8.080 -0.0838 -0.6792 -1.3535
  279MOL0     C37550   5.794   4.005   8.131  0.3155  0.2360  1.1503
  279MOL0     C37551   5.653   4.037   8.174 -0.3793  0.0301 -0.3677
  279MOL0     C37552   5.638   4.185   8.226  0.8031  0.3068 -0.0676
  279MOL0     C37553   5.487   4.213   8.248 -0.1815 -0.5452 -0.5724
  279MOL0     O37554   5.465   4.346   8.298  0.2358 -0.2111 -0.0838
  279MOL0     C37555   5.460   4.361   8.436  0.6899  0.1869 -0.1000
  279MOL0     C37556   5.366   4.294   8.527 -0.0946 -0.3914  0.3705
  279MOL0     C37557   5.352   4.333   8.660 -0.0099  0.9461  0.0860
  279MOL0     C37558   5.253   4.240   8.737 -0.0550 -0.0552 -0.1646
  279MOL0     C37559   5.426   4.448   8.712 -0.1167  1.1592  0.0626
  279MOL0     C37560   5.395   4.518   8.844  0.4231  1.0648 -0.0205
  279MOL0     O37561   5.461   4.626   8.880 -0.5230  0.0342 -0.0712
  279MOL0     C37562   5.442   4.690   8.997  1.4312 -0.1749 -1.1741
  279MOL0     C37563   5.436   4.829   9.007  0.5693 -0.0881  0.3999
  279MOL0     C37564   5.438   4.894   9.132  0.2799 -0.1204  0.2800
  279MOL0     C37565   5.457   4.821   9.248  0.0183 -0.5022 -0.0917
  279MOL0     O37566   5.475   4.899   9.360 -0.1396 -0.0655 -0.2697
  279MOL0     C37567   5.491   4.839   9.490 -0.9295 -0.3836  0.0558
  279MOL0     C37568   5.475   4.939   9.610 -0.1439 -0.3347 -0.4123
  279MOL0     C37569   5.364   5.046   9.586  0.2690 -1.1734  0.0511
  279MOL0     C37570   5.342   5.138   9.702  0.6240  0.0598  0.0469
  279MOL0     C37571   5.240   5.242   9.667  0.7894  1.1800  0.0193
  279MOL0     C37572   5.267   5.387   9.703  0.1812 -0.0073 -0.4378
  279MOL0     C37573   5.293   5.403   9.860 -0.1714  0.7303 -0.4095
  279MOL0     C37574   5.273   5.542   9.927  0.5493 -0.6405 -0.5053
  279MOL0    Cl37575   5.307   5.532  10.094  0.5737 -0.5209 -0.7877
  279MOL0     C37576   5.452   4.688   9.243  0.0699 -0.3040 -0.5137
  279MOL0     C37577   5.442   4.616   9.119 -0.5278 -0.5347  1.4281
  279MOL0     O37578   5.297   4.463   8.907 -0.4407 -0.6171 -0.1322
  279MOL0     C37579   5.527   4.495   8.618 -0.3531 -1.0167  0.6049
  279MOL0     C37580   5.536   4.457   8.488  0.2892 -0.5161 -0.2007
  279MOL0     N37581   5.763   3.746   8.077  0.1756 -0.1245  0.0947
  279MOL0     N37582   5.820   3.655   8.000  0.0709 -0.9241  0.3330
  279MOL0     C37583   6.910   3.894   7.823  0.3574  0.8375 -0.8535
  279MOL0     C37584   7.035   3.936   7.875  0.1468  0.4760 -0.2035
  279MOL0     C37585   7.465   4.103   7.862  0.2043  0.9270  0.2589
  279MOL0     C37586   7.481   4.116   8.000  0.6737  0.3551  0.5559
  279MOL0     C37587   7.601   4.144   8.053  0.3678  0.0682  0.3001
  279MOL0     C37588   7.711   4.158   7.975 -0.0770 -0.3532  0.8787
  279MOL0     O37589   7.839   4.182   8.014 -0.3452 -0.1185  0.0073
  279MOL0     C37590   7.871   4.161   8.156  0.2008 -0.0351  0.4354
  279MOL0     C37591   8.014   4.175   8.192  0.1187  0.0681  0.0305
  279MOL0     C37592   8.053   4.112   8.329 -0.3147  0.6913 -0.5900
  279MOL0     C37593   8.211   4.125   8.340  1.1462  0.5772  0.5229
  279MOL0     C37594   8.253   4.084   8.476 -0.1427 -0.5569  0.4190
  279MOL0     C37595   8.287   4.052   8.589  0.2095 -0.4924 -0.4818
  279MOL0     C37596   7.701   4.143   7.828  0.0940 -0.4589  0.4675
  279MOL0     C37597   7.573   4.105   7.773 -0.1814  0.3849 -0.7416
  279MOL0     H37598   7.087   4.191   7.666 -0.7983 -0.6174 -2.1536
  279MOL0     H37599   6.889   4.102   7.564  1.5448  1.4585 -0.4143
  279MOL0     H37600   6.710   3.721   7.624  1.8468  0.5167 -0.8784
  279MOL0     H37601   6.682   3.778   7.798 -1.1431  0.1333  1.0324
  279MOL0     H37602   6.470   3.863   7.747  2.8580  1.3800  0.4725
  279MOL0     H37603   6.489   3.860   7.562  0.8983  1.4373  0.1628
  279MOL0     H37604   6.495   3.603   7.601 -0.4747  2.1945 -0.7429
  279MOL0     H37605   6.450   3.629   7.766 -0.5316 -0.6408 -0.3236
  279MOL0     H37606   6.240   3.744   7.698 -1.3722  0.3436 -2.3005
  279MOL0     H37607   6.276   3.695   7.534 -1.7801 -0.8467  0.1115
  279MOL0     H37608   6.268   3.450   7.629  0.0972  0.5582 -0.9168
  279MOL0     H37609   6.255   3.516   7.791  3.7422 -0.7535 -0.6638
  279MOL0     H37610   6.065   3.548   7.545  0.2967 -2.0664  0.3251
  279MOL0     H37611   6.019   3.429   7.670 -3.6748  1.8061  0.1485
  279MOL0     H37612   5.999   3.737   7.700 -1.2281  0.8304  0.8771
  279MOL0     H37613   5.881   3.614   7.726  0.6742 -1.4328 -1.5532
  279MOL0     H37614   6.121   3.692   7.887 -0.3679  0.5139 -0.2316
  279MOL0     H37615   6.037   3.540   7.931  0.5338 -0.2912 -1.4886
  279MOL0     H37616   6.014   3.928   7.994 -0.4668  0.2273 -0.9874
  279MOL0     H37617   5.871   4.035   8.203 -1.2559  0.1910  2.9166
  279MOL0     H37618   5.803   4.064   8.040 -1.0270 -0.6216  0.4416
  279MOL0     H37619   5.646   3.965   8.256  2.4388  0.8631  0.7160
  279MOL0     H37620   5.575   4.021   8.099  0.1545 -2.1407 -0.5199
  279MOL0     H37621   5.671   4.251   8.146 -3.5447  0.5347 -1.9386
  279MOL0     H37622   5.701   4.191   8.316 -0.0997 -1.1155  0.6945
  279MOL0     H37623   5.453   4.141   8.323 -0.0196 -3.4209 -3.0630
  279MOL0     H37624   5.435   4.190   8.155 -0.5719 -2.6710  0.1163
  279MOL0     H37625   5.305   4.208   8.501 -1.4831  1.0595 -1.5221
  279MOL0     H37626   5.299   4.200   8.828 -0.3580 -1.1468 -0.4741
  279MOL0     H37627   5.173   4.296   8.786 -1.9795 -1.0849 -1.9800
  279MOL0     H37628   5.213   4.158   8.676  0.4014  1.2598 -2.3418
  279MOL0     H37629   5.413   4.874   8.911 -3.6581 -2.6944 -0.0682
  279MOL0     H37630   5.439   5.002   9.133 -1.1551  0.1068 -3.6364
  279MOL0     H37631   5.413   4.761   9.492  1.0601 -2.5348 -1.1444
  279MOL0     H37632   5.583   4.781   9.497 -1.3307 -1.2498 -1.3149
  279MOL0     H37633   5.467   4.880   9.701 -1.7035 -3.2016 -2.2426
  279MOL0     H37634   5.574   4.985   9.613  1.4070 -2.9989 -3.2817
  279MOL0     H37635   5.271   4.992   9.570  0.9766 -1.8879 -2.0338
  279MOL0     H37636   5.368   5.104   9.493 -1.4181 -0.2250  0.5319
  279MOL0     H37637   5.301   5.073   9.779 -0.7289  0.4539 -0.3119
  279MOL0     H37638   5.434   5.191   9.730  0.4848  1.4299 -1.8650
  279MOL0     H37639   5.145   5.216   9.714  0.4611  1.8364 -0.2727
  279MOL0     H37640   5.222   5.240   9.559  0.6781 -3.7136 -0.1099
  279MOL0     H37641   5.358   5.418   9.651  1.7675  0.7473  2.5205
  279MOL0     H37642   5.180   5.447   9.677  0.0411 -1.2345 -3.1395
  279MOL0     H37643   5.394   5.370   9.888  0.3837  3.8169  1.6733
  279MOL0     H37644   5.221   5.342   9.917  0.8926 -0.9203 -0.7486
  279MOL0     H37645   5.179   5.593   9.907  2.2493  2.0611 -2.3713
  279MOL0     H37646   5.357   5.601   9.888  0.4195 -0.3722 -0.3793
  279MOL0     H37647   5.429   4.634   9.335  0.7041 -0.1827 -0.2779
  279MOL0     H37648   5.436   4.508   9.112 -0.2360 -0.4484 -3.1996
  279MOL0     H37649   5.603   4.559   8.662 -0.4974 -0.6877  0.3783
  279MOL0     H37650   5.619   4.504   8.435  0.3895 -0.3319  0.1181
  279MOL0     H37651   6.855   3.806   7.854  0.6385  0.8856 -0.2133
  279MOL0     H37652   7.076   3.869   7.950 -1.5808  2.5102  2.7622
  279MOL0     H37653   7.393   4.093   8.060 -1.4797  2.1814 -1.7189
  279MOL0     H37654   7.607   4.160   8.160  3.8197 -2.1515  0.5831
  279MOL0     H37655   7.805   4.224   8.216 -0.3870  2.1911 -2.3412
  279MOL0     H37656   7.854   4.054   8.166 -1.8156 -0.0334 -2.1190
  279MOL0     H37657   8.044   4.281   8.197 -2.3667  0.8194  0.3949
  279MOL0     H37658   8.066   4.142   8.102  1.1451  4.4752 -1.2377
  279MOL0     H37659   8.015   4.011   8.341  1.0213 -0.0724 -2.4085
  279MOL0     H37660   8.011   4.179   8.405  2.1341  2.6023 -0.7762
  279MOL0     H37661   8.245   4.226   8.314  3.0663 -0.4418 -1.1339
  279MOL0     H37662   8.252   4.057   8.266  2.2016  0.7237  0.9554
  279MOL0     H37663   8.306   4.034   8.693 -1.8879 -0.2442 -0.0161
  279MOL0     H37664   7.779   4.158   7.755 -0.0940  0.5887  0.4596
  279MOL0     H37665   7.550   4.082   7.670 -0.4361  0.5308 -0.7180
  280MOL0     O37666   1.752   2.912  10.593  0.0246  0.2745 -0.2667
  280MOL0     C37667   1.670   2.948  10.512  0.5602 -0.7205 -0.1388
  280MOL0     O37668   1.611   3.077  10.500 -0.3633 -0.8003 -0.6769
  280MOL0     C37669   1.630   3.176  10.593  0.7062 -0.5090 -0.0316
  280MOL0     C37670   1.628   3.153  10.734 -0.0798 -1.0334 -0.5208
  280MOL0     C37671   1.636   3.268  10.813  1.1521  0.7339 -0.0638
  280MOL0     C37672   1.647   3.396  10.762  0.0438 -0.7023  0.3316
  280MOL0     O37673   1.673   3.493  10.857  0.1301  0.4730  0.0698
  280MOL0     C37674   1.623   3.622  10.821  0.3741  0.2602 -0.2831
  280MOL0     C37675   1.645   3.715  10.939  0.5569  0.1569 -0.6183
  280MOL0     C37676   1.791   3.758  10.968 -0.1401 -0.0434 -0.2974
  280MOL0     C37677   1.808   3.789  11.118 -0.9245  0.1308  0.4409
  280MOL0     C37678   1.897   3.912  11.141  0.1172 -0.3952 -0.6300
  280MOL0     C37679   2.031   3.902  11.065  0.7181 -0.8793  0.2879
  280MOL0     C37680   2.105   3.768  11.098  0.2308  0.5953  0.3019
  280MOL0     C37681   2.239   3.772  11.032  0.1092 -0.5199  0.2031
  280MOL0     N37682   2.321   3.656  11.053 -0.6102  0.2104 -0.2515
  280MOL0     C37683   2.320   3.570  11.167 -0.4627 -0.1061  0.6242
  280MOL0     C37684   2.414   3.478  11.129  0.5026  0.3707 -0.0691
  280MOL0     C37685   2.465   3.364  11.209  0.6366  0.1713  0.9696
  280MOL0     C37686   2.467   3.226  11.137 -0.2838 -0.6157 -0.2672
  280MOL0     C37687   2.524   3.122  11.233  0.2284  0.2299 -0.6559
  280MOL0     C37688   2.555   2.994  11.159  0.1261 -1.0209  0.2503
  280MOL0     O37689   2.590   2.881  11.239 -0.0590 -0.1147  0.3702
  280MOL0     C37690   2.680   2.880  11.330  0.0241  0.0157  0.0133
  280MOL0     C37691   2.782   2.976  11.352 -0.2233  0.2853  0.0650
  280MOL0     C37692   2.887   2.949  11.440  0.0077  0.7060 -0.1207
  280MOL0     C37693   2.978   3.068  11.467 -0.0056  0.5467  0.6909
  280MOL0     C37694   2.898   2.829  11.518 -0.3353  0.2270  0.1493
  280MOL0     C37695   3.005   2.805  11.618 -0.6108 -1.0178 -0.6285
  280MOL0     O37696   3.078   2.903  11.683  0.7029 -1.1279 -0.1003
  280MOL0     C37697   3.158   2.870  11.782 -0.6654  1.2755 -0.7294
  280MOL0     C37698   3.114   2.895  11.912  0.5929 -0.4777  0.5275
  280MOL0     C37699   3.189   2.862  12.018 -0.6219  0.0950  0.3449
  280MOL0     C37700   3.313   2.792  12.007  0.6378  0.2095 -1.8482
  280MOL0     O37701   3.373   2.756  12.129  0.0052  0.9138  0.6297
  280MOL0     C37702   3.515   2.732  12.135  1.1478  0.5821  0.2593
  280MOL0     C37703   3.559   2.667  12.261  0.7145 -0.3693 -0.3383
  280MOL0     C37704   3.549   2.784  12.375 -0.4396 -0.5946  0.5614
  280MOL0     C37705   3.675   2.880  12.386 -0.1325  0.0480 -0.0095
  280MOL0     C37706   3.632   2.979  12.497 -0.0300 -0.5340  0.4885
  280MOL0     C37707   3.555   3.096  12.434  1.2591 -0.4387  0.6063
  280MOL0     C37708   3.521   3.212  12.536 -0.5999  0.2269 -0.0136
  280MOL0     C37709   3.408   3.197  12.636  1.2064 -0.7130 -0.3062
  280MOL0    Cl37710   3.247   3.186  12.545 -0.0912 -0.3962  0.2237
  280MOL0     C37711   3.358   2.761  11.887  0.4234 -0.1859  0.9234
  280MOL0     C37712   3.281   2.800  11.771 -0.1071  0.4886  0.5458
  280MOL0     O37713   3.015   2.687  11.644 -0.5202  1.4074 -0.0256
  280MOL0     C37714   2.798   2.729  11.491  0.6703  0.4096  0.0359
  280MOL0     C37715   2.693   2.754  11.397 -1.0538 -0.6229  0.7658
  280MOL0     N37716   2.461   3.511  11.003  0.0461  0.5120  0.6781
  280MOL0     N37717   2.418   3.623  10.968 -0.6006  0.0484  0.3062
  280MOL0     C37718   1.662   3.415  10.618  0.5176 -0.0053  0.5729
  280MOL0     C37719   1.649   3.303  10.534  0.4683  0.0570  1.2787
  280MOL0     C37720   1.612   2.853  10.412 -0.4307  0.6929 -1.1913
  280MOL0     C37721   1.613   2.718  10.445 -0.2815  0.6037  0.8042
  280MOL0     C37722   1.585   2.625  10.348 -0.8133  0.1582 -0.0108
  280MOL0     C37723   1.546   2.661  10.218  0.2307 -0.0934  0.7394
  280MOL0     O37724   1.497   2.569  10.120 -0.0899 -0.3072 -1.0926
  280MOL0     C37725   1.526   2.434  10.140  0.7171  0.2812 -0.3212
  280MOL0     C37726   1.506   2.370  10.000 -1.1684 -0.1119  0.0031
  280MOL0     C37727   1.518   2.217  10.019 -0.2603  0.8737 -0.6340
  280MOL0     C37728   1.513   2.154   9.883 -0.8873 -0.2894  0.1619
  280MOL0     C37729   1.513   2.005   9.895  0.8688  0.0469 -0.5186
  280MOL0     C37730   1.518   1.879   9.917  0.5762 -0.2333  0.3411
  280MOL0     C37731   1.536   2.803  10.195  0.0466  0.0230 -0.6086
  280MOL0     C37732   1.573   2.901  10.284 -0.0843  0.5763 -0.2775
  280MOL0     H37733   1.613   3.052  10.771 -0.1487 -0.8190  0.0362
  280MOL0     H37734   1.631   3.266  10.921  0.8571 -0.2100 -0.0872
  280MOL0     H37735   1.675   3.653  10.730 -1.7617 -2.1003 -2.4385
  280MOL0     H37736   1.516   3.630  10.803  0.7176  4.0947 -1.6149
  280MOL0     H37737   1.583   3.803  10.921  1.6819  0.9236 -0.9155
  280MOL0     H37738   1.598   3.669  11.026  1.7087 -0.5741 -0.3613
  280MOL0     H37739   1.864   3.683  10.938  1.4898  0.9537  1.0148
  280MOL0     H37740   1.809   3.847  10.908 -2.6641  0.8692  0.1626
  280MOL0     H37741   1.712   3.814  11.163 -2.5402  0.1888 -2.7638
  280MOL0     H37742   1.855   3.701  11.164 -0.1133  0.6238  0.5673
  280MOL0     H37743   1.836   3.998  11.111 -0.9872 -0.7845  0.4565
  280MOL0     H37744   1.925   3.939  11.243  0.5394  1.3871 -1.1676
  280MOL0     H37745   2.016   3.920  10.959  1.0751 -0.8476  0.2421
  280MOL0     H37746   2.088   3.991  11.094 -0.3534 -0.5130  1.4200
  280MOL0     H37747   2.112   3.750  11.206  4.4011 -0.6488  0.0162
  280MOL0     H37748   2.056   3.677  11.065  1.9307 -0.5762  0.8233
  280MOL0     H37749   2.291   3.848  11.091 -0.6498 -1.2068  1.8231
  280MOL0     H37750   2.245   3.806  10.928 -3.2736  0.0992  0.0967
  280MOL0     H37751   2.256   3.569  11.255 -2.3157 -2.2394 -0.6656
  280MOL0     H37752   2.569   3.383  11.237  1.0168 -1.2465  0.6076
  280MOL0     H37753   2.408   3.357  11.302 -4.3919 -3.4565 -1.8912
  280MOL0     H37754   2.534   3.240  11.052  1.1974  1.8941  1.1960
  280MOL0     H37755   2.366   3.198  11.106  0.2806 -1.2906 -1.5437
  280MOL0     H37756   2.451   3.096  11.310  1.5621 -5.4122 -0.8347
  280MOL0     H37757   2.603   3.163  11.297 -1.6664  1.8366  0.7592
  280MOL0     H37758   2.625   3.014  11.077 -2.5907  3.0965 -1.3310
  280MOL0     H37759   2.468   2.977  11.096 -0.6487  2.4635  0.1725
  280MOL0     H37760   2.785   3.068  11.295  0.8376  0.0284 -0.3224
  280MOL0     H37761   2.954   3.150  11.399 -0.2262  0.0607  0.1735
  280MOL0     H37762   2.975   3.099  11.572 -0.9776 -0.3484  0.9508
  280MOL0     H37763   3.072   3.034  11.423 -0.6062  2.4655 -2.3432
  280MOL0     H37764   3.014   2.937  11.921  0.2599  0.5286 -4.5757
  280MOL0     H37765   3.148   2.892  12.113  0.9160  1.8815  0.5020
  280MOL0     H37766   3.552   2.661  12.060 -0.4562  1.0499 -1.0281
  280MOL0     H37767   3.566   2.826  12.113  0.6630  0.6311 -0.7624
  280MOL0     H37768   3.501   2.587  12.308  0.1286  0.4170  0.2946
  280MOL0     H37769   3.654   2.615  12.245  0.1204 -1.5023 -0.2609
  280MOL0     H37770   3.537   2.729  12.469 -1.2532  0.1560  0.9098
  280MOL0     H37771   3.460   2.847  12.377 -1.4420 -1.9537  3.0447
  280MOL0     H37772   3.759   2.817  12.416 -1.2474 -1.3781  0.2121
  280MOL0     H37773   3.691   2.928  12.289  0.8682  1.3327  0.7541
  280MOL0     H37774   3.717   3.034  12.539 -1.9197  0.5395  3.1869
  280MOL0     H37775   3.580   2.944  12.587 -0.8436 -0.5076  0.0319
  280MOL0     H37776   3.619   3.142  12.358 -1.2922  2.8931  0.2016
  280MOL0     H37777   3.461   3.059  12.394  1.3879 -0.1813  0.0675
  280MOL0     H37778   3.505   3.311  12.493  0.6684  0.4320 -0.0659
  280MOL0     H37779   3.610   3.227  12.598  1.2111 -1.4434 -2.0442
  280MOL0     H37780   3.419   3.273  12.714  1.5592 -1.1287  0.0536
  280MOL0     H37781   3.424   3.103  12.689  2.2232 -1.0727 -1.2075
  280MOL0     H37782   3.458   2.725  11.868  1.8749  2.9210  2.0354
  280MOL0     H37783   3.317   2.775  11.672 -0.1947 -0.9522  0.8462
  280MOL0     H37784   2.801   2.629  11.533 -5.1662 -0.2838 -0.2692
  280MOL0     H37785   2.624   2.680  11.359  0.5649 -0.6025 -2.4897
  280MOL0     H37786   1.701   3.502  10.565  0.3253 -1.5393 -2.2898
  280MOL0     H37787   1.666   3.303  10.427 -1.1776 -2.0746  0.9557
  280MOL0     H37788   1.642   2.688  10.546  2.1876  5.1146  1.6998
  280MOL0     H37789   1.582   2.523  10.385  1.6141 -0.3998 -1.1327
  280MOL0     H37790   1.623   2.405  10.182  1.3247  3.2422  0.5526
  280MOL0     H37791   1.455   2.394  10.213  1.3658  1.7579  1.1939
  280MOL0     H37792   1.567   2.413   9.920 -1.4644  2.2581  0.9855
  280MOL0     H37793   1.401   2.384   9.976 -1.2637 -1.4818 -0.4697
  280MOL0     H37794   1.436   2.187  10.085 -1.9206  1.7943 -2.2062
  280MOL0     H37795   1.611   2.190  10.070 -1.0312  2.4836  1.8481
  280MOL0     H37796   1.587   2.188   9.810 -1.8291  1.4423 -0.0480
  280MOL0     H37797   1.421   2.193   9.839 -0.6517  1.8684  1.4215
  280MOL0     H37798   1.506   1.783   9.962  0.9488  0.3558  1.7837
  280MOL0     H37799   1.504   2.837  10.097  0.5068  0.8867 -0.4658
  280MOL0     H37800   1.578   3.006  10.260  0.5798  0.8307  0.8945
  281MOL0     O37801   8.995   9.681  11.237  0.1801  0.2865  0.5442
  281MOL0     C37802   8.919   9.753  11.300 -0.5734  0.3850 -1.0014
  281MOL0     O37803   8.893   9.883  11.273 -0.4986 -0.2596 -0.0198
  281MOL0     C37804   8.987   9.945  11.189  0.8714 -0.7437  0.3862
  281MOL0     C37805   9.104  10.001  11.245 -1.3922 -0.0277 -0.0523
  281MOL0     C37806   9.217  10.046  11.164  0.5453  0.3172  0.8047
  281MOL0     C37807   9.207  10.036  11.025  0.3985 -0.5746  0.0892
  281MOL0     O37808   9.301  10.085  10.948 -0.0149  0.3918  0.4323
  281MOL0     C37809   9.346  10.218  10.980  0.1403 -0.7794  0.5517
  281MOL0     C37810   9.335  10.314  10.862  0.2388  0.3492 -0.3676
  281MOL0     C37811   9.393  10.462  10.890 -0.2685 -0.9091  1.0554
  281MOL0     C37812   9.330  10.539  11.011  0.6608 -0.2501  0.4408
  281MOL0     C37813   9.360  10.688  11.015  0.0164 -0.8927 -0.1354
  281MOL0     C37814   9.378  10.727  11.157  0.8358  0.5868 -0.5098
  281MOL0     C37815   9.380  10.879  11.196  0.3778  1.0700  0.2009
  281MOL0     C37816   9.242  10.949  11.186 -0.4838  0.2004 -0.4120
  281MOL0     N37817   9.151  10.905  11.290 -0.3462  0.5547 -0.0039
  281MOL0     C37818   9.031  10.841  11.255 -0.8298  0.3764  0.0477
  281MOL0     C37819   8.964  10.818  11.371 -0.3954 -0.3528 -0.0341
  281MOL0     C37820   8.830  10.757  11.395 -0.6996  0.2210 -0.4282
  281MOL0     C37821   8.746  10.740  11.264  0.0177 -0.4985  0.3110
  281MOL0     C37822   8.633  10.642  11.276 -0.5827 -1.0398  0.2513
  281MOL0     C37823   8.519  10.627  11.174 -0.3995 -0.3397 -0.1213
  281MOL0     O37824   8.537  10.498  11.111  1.3446 -0.2944  0.6856
  281MOL0     C37825   8.446  10.473  11.010  0.2920 -0.2641 -0.1438
  281MOL0     C37826   8.330  10.550  10.970 -0.3542  0.3507 -0.7600
  281MOL0     C37827   8.248  10.493  10.866  0.2934 -0.4149  0.6579
  281MOL0     C37828   8.115  10.568  10.837 -0.2976 -0.0646  0.1807
  281MOL0     C37829   8.282  10.370  10.805 -0.1749 -0.4718  0.3833
  281MOL0     C37830   8.217  10.320  10.674 -0.7674  0.8398  0.9949
  281MOL0     O37831   8.298  10.251  10.594  0.7976  1.0042 -0.1666
  281MOL0     C37832   8.243  10.193  10.477 -0.0980 -1.6838  0.0589
  281MOL0     C37833   8.270  10.252  10.360 -0.3993 -1.3725  0.2234
  281MOL0     C37834   8.216  10.209  10.241  1.0615 -0.0672 -0.7825
  281MOL0     C37835   8.133  10.091  10.236 -1.0210  0.1103 -0.1325
  281MOL0     O37836   8.062  10.034  10.135  0.3496  0.0843  0.1204
  281MOL0     C37837   8.093  10.087  10.007 -0.1106 -0.6876 -0.3214
  281MOL0     C37838   8.037   9.998   9.889 -0.1190 -0.1950  0.5698
  281MOL0     C37839   8.064  10.056   9.745 -0.2662 -0.3729 -0.4508
  281MOL0     C37840   8.010  10.201   9.728 -0.3696  0.6078 -0.1312
  281MOL0     C37841   7.991  10.242   9.577  0.2185 -0.1261 -0.5060
  281MOL0     C37842   7.974  10.399   9.590 -0.1757 -0.3088 -0.2197
  281MOL0     C37843   7.867  10.453   9.502 -0.2059  0.0116 -0.3223
  281MOL0     C37844   7.859  10.603   9.511  0.6948 -0.7275  0.4816
  281MOL0    Cl37845   7.736  10.672   9.401  0.2974  0.1773 -0.0409
  281MOL0     C37846   8.118  10.023  10.361 -0.6466  0.1938  0.2279
  281MOL0     C37847   8.182  10.069  10.475  0.8292  0.9669 -0.9837
  281MOL0     O37848   8.100  10.340  10.661  0.2331  0.0968 -0.2072
  281MOL0     C37849   8.392  10.306  10.856  0.6276  0.2826 -0.7540
  281MOL0     C37850   8.474  10.355  10.957  0.1188 -0.4279 -0.1370
  281MOL0     N37851   9.040  10.877  11.464  0.4429 -0.1264 -0.4617
  281MOL0     N37852   9.161  10.919  11.427  0.0288 -0.6124 -0.7511
  281MOL0     C37853   9.097   9.975  10.964 -0.3199 -0.4165 -0.8679
  281MOL0     C37854   8.989   9.935  11.044  0.5579 -0.2665 -1.0129
  281MOL0     C37855   8.844   9.695  11.411  0.6430  0.4327 -0.5115
  281MOL0     C37856   8.784   9.778  11.513  0.6839  0.0006 -0.2386
  281MOL0     C37857   8.680   9.733  11.596 -0.1381  0.1070  1.1167
  281MOL0     C37858   8.640   9.603  11.586  0.2531 -0.0967 -0.0809
  281MOL0     O37859   8.537   9.573  11.669 -0.3550 -0.0725  0.0127
  281MOL0     C37860   8.527   9.441  11.714 -0.7544  0.1412 -0.1718
  281MOL0     C37861   8.623   9.399  11.833  0.2652  0.1663  1.0687
  281MOL0     C37862   8.614   9.512  11.943 -0.4246 -0.7579  0.5940
  281MOL0     C37863   8.719   9.485  12.048  0.2001 -0.3929 -0.0387
  281MOL0     C37864   8.675   9.376  12.144  0.1721 -0.5175 -0.0868
  281MOL0     C37865   8.640   9.303  12.232  1.0914  0.1616 -0.0119
  281MOL0     C37866   8.700   9.513  11.492 -0.4248 -0.4403 -0.6003
  281MOL0     C37867   8.794   9.568  11.405 -0.0115  0.7506  0.7710
  281MOL0     H37868   9.104  10.001  11.353  1.8781 -0.3860  0.0458
  281MOL0     H37869   9.302  10.089  11.217  0.4156  1.8023 -0.1342
  281MOL0     H37870   9.296  10.270  11.062 -1.7792 -1.0657 -0.3819
  281MOL0     H37871   9.453  10.205  11.000 -0.1278  0.5373  3.3730
  281MOL0     H37872   9.376  10.283  10.765  1.6516  3.8994 -1.0802
  281MOL0     H37873   9.229  10.318  10.835 -0.1018 -1.3970  0.5697
  281MOL0     H37874   9.501  10.449  10.902 -0.4141 -3.7401 -0.0490
  281MOL0     H37875   9.377  10.529  10.805  0.3421  0.6470  2.1161
  281MOL0     H37876   9.221  10.529  11.008  0.4340  1.3156  1.6135
  281MOL0     H37877   9.361  10.492  11.105  1.9652  2.2582  1.3782
  281MOL0     H37878   9.451  10.706  10.957 -0.1673 -1.0218 -0.4629
  281MOL0     H37879   9.274  10.735  10.967  0.2927 -1.2347 -0.9750
  281MOL0     H37880   9.293  10.683  11.209  1.8730 -0.4881  0.3427
  281MOL0     H37881   9.473  10.689  11.197  0.1923 -2.0152 -1.2412
  281MOL0     H37882   9.404  10.872  11.303 -1.7421 -2.5040  0.6099
  281MOL0     H37883   9.458  10.935  11.145  2.0453 -1.3679 -0.1012
  281MOL0     H37884   9.197  10.935  11.087 -0.6575  1.5772 -0.5594
  281MOL0     H37885   9.250  11.057  11.204 -0.5882  0.5118 -2.0662
  281MOL0     H37886   9.002  10.817  11.153  0.7665  3.0377 -1.1368
  281MOL0     H37887   8.856  10.656  11.428 -1.9242 -0.1139 -0.4333
  281MOL0     H37888   8.778  10.794  11.483  1.6181 -4.4535  3.3755
  281MOL0     H37889   8.796  10.702  11.175 -2.0721 -2.1866 -0.2413
  281MOL0     H37890   8.715  10.841  11.236  1.5009 -0.0572  0.1905
  281MOL0     H37891   8.576  10.674  11.363 -2.4884 -4.2393  0.3293
  281MOL0     H37892   8.682  10.547  11.297  4.0455  1.4272  2.1245
  281MOL0     H37893   8.520  10.705  11.097  0.3508  0.7135  0.9205
  281MOL0     H37894   8.429  10.630  11.236  1.4465 -1.9220  2.8623
  281MOL0     H37895   8.321  10.647  11.018  1.9427  0.3326 -0.1777
  281MOL0     H37896   8.127  10.594  10.731  2.1506 -2.2368 -0.1739
  281MOL0     H37897   8.020  10.521  10.862 -0.5339  0.3341  0.0584
  281MOL0     H37898   8.124  10.666  10.886 -0.6699 -0.0585  0.2380
  281MOL0     H37899   8.327  10.345  10.356  0.0176 -1.6309  0.1236
  281MOL0     H37900   8.231  10.273  10.154  0.7779  0.9178 -0.1346
  281MOL0     H37901   8.050  10.188  10.010  0.6477 -0.3724  0.4929
  281MOL0     H37902   8.201  10.094   9.995 -0.0728 -1.8388 -0.7121
  281MOL0     H37903   8.097   9.906   9.895 -0.1357 -0.3436 -1.1113
  281MOL0     H37904   7.931   9.981   9.909 -1.1992  3.0212 -1.7115
  281MOL0     H37905   8.022   9.989   9.669 -0.4592  1.0870 -1.6604
  281MOL0     H37906   8.172  10.067   9.733  0.4644 -0.9541  4.0588
  281MOL0     H37907   7.913  10.209   9.778 -1.0469  2.2896 -1.6154
  281MOL0     H37908   8.075  10.266   9.786  0.0966  1.8567 -1.9829
  281MOL0     H37909   7.898  10.203   9.533 -0.0116  1.1521 -1.1982
  281MOL0     H37910   8.078  10.222   9.515 -0.4343  1.6207 -2.0686
  281MOL0     H37911   7.945  10.436   9.689 -0.9024  0.8743 -0.8618
  281MOL0     H37912   8.071  10.447   9.572 -0.1075  0.6015  2.1774
  281MOL0     H37913   7.769  10.415   9.532 -1.1022  2.4211  0.0129
  281MOL0     H37914   7.872  10.424   9.396 -2.8137  0.3697 -0.5897
  281MOL0     H37915   7.958  10.643   9.489  0.0250  1.2963  0.8852
  281MOL0     H37916   7.823  10.635   9.609 -1.5143 -0.6939 -0.2759
  281MOL0     H37917   8.062   9.931  10.357 -4.0063  2.0051  1.6274
  281MOL0     H37918   8.163  10.019  10.570 -0.7321  0.1767 -1.6775
  281MOL0     H37919   8.403  10.205  10.816  2.9367  1.2791 -2.9194
  281MOL0     H37920   8.555  10.299  11.002 -0.9163 -0.2387  2.1138
  281MOL0     H37921   9.097   9.953  10.858 -0.2229 -1.4837 -0.6579
  281MOL0     H37922   8.903   9.877  11.012  0.5711 -1.6441  1.3133
  281MOL0     H37923   8.800   9.884  11.528 -1.7807  0.3460  0.4157
  281MOL0     H37924   8.619   9.798  11.658 -1.5196  0.7027 -0.7999
  281MOL0     H37925   8.425   9.419  11.748 -0.6725 -0.5595 -0.3539
  281MOL0     H37926   8.545   9.363  11.639  4.3943 -0.2356  1.0843
  281MOL0     H37927   8.727   9.391  11.799  0.4606  0.0482  1.6816
  281MOL0     H37928   8.594   9.299  11.866 -3.2751  0.3518 -0.9640
  281MOL0     H37929   8.517   9.542  11.984 -0.9460 -0.0877 -1.0472
  281MOL0     H37930   8.652   9.604  11.898 -1.9078 -0.6092 -0.4535
  281MOL0     H37931   8.717   9.577  12.108 -0.6682  0.4530 -1.3048
  281MOL0     H37932   8.818   9.471  12.003  0.2094 -0.3108 -0.0441
  281MOL0     H37933   8.607   9.243  12.314 -1.0571  0.4496 -0.6170
  281MOL0     H37934   8.678   9.407  11.498  0.6508 -0.6280  0.3637
  281MOL0     H37935   8.829   9.499  11.329  3.1096  0.0056  2.7262
  282MOL0     O37936   2.239   8.401   2.972 -0.0704  0.2562 -1.1032
  282MOL0     C37937   2.150   8.485   3.007 -0.0068 -0.0107 -0.1336
  282MOL0     O37938   2.022   8.460   3.014  0.0804  0.1306 -0.1106
  282MOL0     C37939   1.995   8.327   2.981 -0.0327  0.9493  0.5380
  282MOL0     C37940   1.912   8.310   2.870 -0.7009  0.2510 -0.4631
  282MOL0     C37941   1.872   8.184   2.843  0.4024 -0.5063  0.0915
  282MOL0     C37942   1.912   8.075   2.916 -1.0697 -0.3468  0.0060
  282MOL0     O37943   1.855   7.951   2.881  0.5306 -0.0823 -0.5567
  282MOL0     C37944   1.923   7.837   2.879 -0.5206  0.6822  0.2038
  282MOL0     C37945   1.821   7.723   2.838 -1.4031  1.0108 -0.3004
  282MOL0     C37946   1.783   7.731   2.685 -0.2914  0.3872  0.4355
  282MOL0     C37947   1.740   7.586   2.650 -0.8302  0.6469  0.8241
  282MOL0     C37948   1.610   7.547   2.709  0.7043  0.4235  0.0760
  282MOL0     C37949   1.584   7.398   2.700  0.7463  0.1091  0.1742
  282MOL0     C37950   1.431   7.384   2.740 -0.5553  0.1466 -0.0163
  282MOL0     C37951   1.380   7.250   2.801 -0.0065  0.4194 -0.1124
  282MOL0     N37952   1.360   7.129   2.717  0.6078  0.4388  0.7314
  282MOL0     C37953   1.250   7.044   2.710 -0.6509  0.1253  0.5238
  282MOL0     C37954   1.280   6.955   2.613 -1.0005 -0.3124  0.0157
  282MOL0     C37955   1.215   6.828   2.573 -0.1136 -0.2315 -0.2292
  282MOL0     C37956   1.216   6.728   2.688  0.2431 -0.0686 -0.2639
  282MOL0     C37957   1.341   6.648   2.709 -0.5674  0.1737 -0.3157
  282MOL0     C37958   1.353   6.559   2.838  0.6414  0.6602  0.5508
  282MOL0     O37959   1.228   6.484   2.841 -0.0212  0.1777  0.3369
  282MOL0     C37960   1.189   6.465   2.968  0.0100 -0.2568  0.0751
  282MOL0     C37961   1.253   6.365   3.029  0.0640  0.0475 -0.8015
  282MOL0     C37962   1.211   6.326   3.162  0.0213 -0.0904 -0.5445
  282MOL0     C37963   1.284   6.219   3.235  0.8057  1.0205  0.5013
  282MOL0     C37964   1.090   6.391   3.218 -0.6012  1.2428  0.1189
  282MOL0     C37965   1.020   6.352   3.354 -0.1770 -0.2776  0.5252
  282MOL0     O37966   0.931   6.436   3.408  0.2782  0.1568  0.1383
  282MOL0     C37967   0.907   6.444   3.543  0.1278  0.8688  0.5658
  282MOL0     C37968   0.964   6.547   3.617  0.7479 -0.0788  0.4560
  282MOL0     C37969   0.945   6.545   3.754 -0.7648 -0.0584  0.0160
  282MOL0     C37970   0.860   6.454   3.829  0.3417  0.2578 -0.4284
  282MOL0     O37971   0.829   6.468   3.958  0.2719 -0.2588 -0.0912
  282MOL0     C37972   0.930   6.512   4.042  1.4640  1.5171 -0.1211
  282MOL0     C37973   0.898   6.466   4.186  0.0669  0.1608  0.1403
  282MOL0     C37974   1.025   6.486   4.274  0.5539  0.1122 -0.6070
  282MOL0     C37975   1.066   6.634   4.277 -0.1591  0.8056 -0.2340
  282MOL0     C37976   1.169   6.653   4.378  1.0278 -0.6785 -0.4495
  282MOL0     C37977   1.297   6.570   4.343 -0.3662  0.1325  0.0723
  282MOL0     C37978   1.425   6.633   4.394 -0.9365  0.1215 -0.8130
  282MOL0     C37979   1.541   6.523   4.379 -0.3051 -0.2372  0.5252
  282MOL0    Cl37980   1.540   6.445   4.216  0.0457 -0.0920  0.5925
  282MOL0     C37981   0.797   6.356   3.744 -0.8254 -0.3740 -0.3088
  282MOL0     C37982   0.825   6.348   3.605  0.3995 -0.2335 -0.4350
  282MOL0     O37983   1.062   6.247   3.404  0.2344  0.6383  0.4509
  282MOL0     C37984   1.025   6.488   3.137 -0.0849  0.4770 -0.1638
  282MOL0     C37985   1.073   6.525   3.017 -1.0391 -0.4486  0.0454
  282MOL0     N37986   1.402   6.984   2.556 -0.2110 -0.3651  0.7553
  282MOL0     N37987   1.445   7.098   2.609  0.4701  0.4424 -0.7752
  282MOL0     C37988   1.986   8.089   3.034  0.2009 -0.4569 -0.6631
  282MOL0     C37989   2.032   8.221   3.061 -0.3936  0.5718 -0.3410
  282MOL0     C37990   2.198   8.621   3.046 -0.3281  0.2275  0.7345
  282MOL0     C37991   2.108   8.730   3.020 -0.4953  0.0047 -0.9917
  282MOL0     C37992   2.147   8.855   3.071 -0.1432  0.2454 -0.1680
  282MOL0     C37993   2.278   8.882   3.119 -0.1983  0.6411  0.2090
  282MOL0     O37994   2.311   8.999   3.180 -0.4258  0.6905  1.1358
  282MOL0     C37995   2.221   9.108   3.189  0.0726  0.1480  0.3702
  282MOL0     C37996   2.293   9.234   3.256 -0.0665  0.0580  0.3971
  282MOL0     C37997   2.282   9.240   3.408 -0.3430 -0.9551 -1.1897
  282MOL0     C37998   2.371   9.361   3.455 -0.3522  0.1832  0.6669
  282MOL0     C37999   2.509   9.329   3.495 -0.6818  0.9847  0.5517
  282MOL0     C38000   2.621   9.303   3.538  1.2962 -0.5114  0.4091
  282MOL0     C38001   2.368   8.779   3.133 -0.8524 -0.2052  0.0536
  282MOL0     C38002   2.329   8.651   3.097 -0.5383  0.9778  0.4573
  282MOL0     H38003   1.867   8.388   2.810 -0.8805 -0.0975 -0.7830
  282MOL0     H38004   1.796   8.174   2.766  1.5331 -1.9042 -0.9159
  282MOL0     H38005   2.009   7.833   2.813  0.2502 -1.1438  1.2195
  282MOL0     H38006   1.972   7.810   2.974  1.9710 -1.2208 -1.4924
  282MOL0     H38007   1.864   7.628   2.873  0.9801  2.2491  0.3747
  282MOL0     H38008   1.731   7.747   2.895  0.0504  1.4573  1.9351
  282MOL0     H38009   1.700   7.801   2.670 -0.2419  0.9664  2.4553
  282MOL0     H38010   1.866   7.761   2.621  1.2924 -3.0554  0.6541
  282MOL0     H38011   1.739   7.576   2.541 -1.3069 -3.0892  1.0336
  282MOL0     H38012   1.813   7.516   2.691 -0.3001  1.0531  0.5877
  282MOL0     H38013   1.598   7.592   2.809 -0.7006  0.7958 -0.2394
  282MOL0     H38014   1.534   7.597   2.647  2.5400  1.1991 -1.6566
  282MOL0     H38015   1.602   7.363   2.598  1.3359  3.3265 -0.9571
  282MOL0     H38016   1.635   7.334   2.772 -2.3528  0.3614  2.8291
  282MOL0     H38017   1.424   7.445   2.830 -3.2410 -0.7972  0.4929
  282MOL0     H38018   1.358   7.418   2.666 -2.1396  0.3797  1.6070
  282MOL0     H38019   1.287   7.284   2.847  0.6066 -2.2510  3.5892
  282MOL0     H38020   1.449   7.225   2.882 -1.7606  0.4908  1.4921
  282MOL0     H38021   1.157   7.047   2.766 -2.2009 -1.1180 -1.7708
  282MOL0     H38022   1.112   6.860   2.550 -0.4454  2.1496  3.6450
  282MOL0     H38023   1.253   6.777   2.484 -1.5601  0.7610 -1.4830
  282MOL0     H38024   1.131   6.660   2.683  0.8069 -1.3080  3.6193
  282MOL0     H38025   1.194   6.777   2.783 -2.5774 -1.9037  0.1316
  282MOL0     H38026   1.435   6.703   2.695  0.3823 -0.8114  1.7422
  282MOL0     H38027   1.338   6.570   2.633  1.3883 -2.9486  2.5338
  282MOL0     H38028   1.372   6.634   2.915  1.9154  0.0416  0.8666
  282MOL0     H38029   1.439   6.492   2.831 -1.0710 -1.7779  1.3905
  282MOL0     H38030   1.337   6.309   2.990 -0.4128 -3.8115  2.9553
  282MOL0     H38031   1.383   6.196   3.194 -0.2356 -0.7691 -1.1842
  282MOL0     H38032   1.288   6.265   3.334 -2.1233  1.4172  0.5037
  282MOL0     H38033   1.233   6.123   3.239 -0.4554  1.6966  1.0129
  282MOL0     H38034   1.031   6.621   3.574 -0.2163 -0.2493 -1.4457
  282MOL0     H38035   0.970   6.630   3.817 -3.4064 -0.0679  1.2022
  282MOL0     H38036   1.022   6.467   4.005  0.3677  0.5291 -1.7949
  282MOL0     H38037   0.938   6.621   4.035  3.0009  1.7877  3.4916
  282MOL0     H38038   0.813   6.530   4.209  0.3610  0.5234  0.2311
  282MOL0     H38039   0.877   6.359   4.197 -2.0653  0.7941  3.2941
  282MOL0     H38040   1.103   6.420   4.235  1.7954  0.6258  0.8737
  282MOL0     H38041   1.007   6.443   4.373 -1.3705 -3.3522 -2.3057
  282MOL0     H38042   1.102   6.665   4.178  0.2300  0.1339 -0.3044
  282MOL0     H38043   0.980   6.690   4.314 -0.3003  0.0941  0.5406
  282MOL0     H38044   1.130   6.629   4.478  1.5703  0.7977  0.1435
  282MOL0     H38045   1.184   6.761   4.371  1.3004 -0.6648  0.2799
  282MOL0     H38046   1.298   6.467   4.377 -2.4196  0.5126  1.4025
  282MOL0     H38047   1.309   6.571   4.234  3.3562  4.1214  0.1991
  282MOL0     H38048   1.413   6.670   4.497  1.2231  0.8879 -0.7871
  282MOL0     H38049   1.450   6.719   4.330 -2.6333  0.2089 -1.4127
  282MOL0     H38050   1.544   6.440   4.450  2.9849  0.3893  1.3109
  282MOL0     H38051   1.632   6.580   4.401  0.0970 -1.5010  2.3663
  282MOL0     H38052   0.737   6.278   3.789 -0.3124 -0.0399  0.9924
  282MOL0     H38053   0.785   6.259   3.557  0.2683 -0.7293  0.5853
  282MOL0     H38054   0.934   6.539   3.166 -1.5656  0.1504 -3.7173
  282MOL0     H38055   1.013   6.585   2.950 -4.0158 -3.3824 -0.1536
  282MOL0     H38056   2.020   7.998   3.084 -2.0504 -1.3067 -0.5536
  282MOL0     H38057   2.099   8.228   3.146 -0.0294  0.9712 -0.6554
  282MOL0     H38058   2.004   8.711   2.994 -1.3335  1.5627  0.9018
  282MOL0     H38059   2.075   8.936   3.073 -0.4074  0.0403 -0.9957
  282MOL0     H38060   2.181   9.138   3.091 -1.5293 -0.9236  0.6630
  282MOL0     H38061   2.133   9.084   3.249 -1.2443  0.2092 -1.4368
  282MOL0     H38062   2.251   9.328   3.219  0.3942  1.9395  4.1545
  282MOL0     H38063   2.398   9.244   3.228 -1.1651  2.9026 -3.5943
  282MOL0     H38064   2.323   9.146   3.445  2.2184  0.7026  0.5301
  282MOL0     H38065   2.179   9.254   3.443  0.5109  2.4053  0.4697
  282MOL0     H38066   2.321   9.417   3.534  0.2996  1.4924  0.1877
  282MOL0     H38067   2.377   9.436   3.375  1.6380 -0.5510  0.0788
  282MOL0     H38068   2.716   9.293   3.586  1.0861 -0.0077  0.9488
  282MOL0     H38069   2.461   8.795   3.186 -1.6500  0.7634  1.2321
  282MOL0     H38070   2.397   8.568   3.112  0.2233  0.3420 -4.5809
  283MOL0     O38071   6.589   9.032   8.291 -0.4539  0.1454 -0.8346
  283MOL0     C38072   6.571   8.916   8.252 -0.9683  0.2131 -0.5167
  283MOL0     O38073   6.457   8.854   8.244 -0.2723 -0.9024  0.0005
  283MOL0     C38074   6.350   8.934   8.278 -1.3267  0.9057 -1.2116
  283MOL0     C38075   6.310   8.941   8.410  0.9142  0.5815 -0.8661
  283MOL0     C38076   6.199   9.019   8.452 -0.0523 -0.7312 -0.5125
  283MOL0     C38077   6.138   9.097   8.359 -0.2391  0.5703  1.0903
  283MOL0     O38078   6.020   9.160   8.387 -0.5665 -0.3893  0.0562
  283MOL0     C38079   5.972   9.155   8.522 -0.0927  0.3784 -0.1276
  283MOL0     C38080   5.845   9.239   8.524  0.5165  0.6395 -1.0993
  283MOL0     C38081   5.740   9.185   8.425 -0.1498  0.5414  0.3250
  283MOL0     C38082   5.605   9.249   8.471  0.3781 -0.1524  0.7812
  283MOL0     C38083   5.489   9.178   8.385 -0.2979  0.7873 -0.5838
  283MOL0     C38084   5.503   9.171   8.229  0.0402  0.5656  0.0838
  283MOL0     C38085   5.385   9.098   8.163  0.3879 -0.3120  0.2479
  283MOL0     C38086   5.262   9.186   8.164  0.5603  0.8040 -1.3867
  283MOL0     N38087   5.155   9.134   8.086  0.4558  0.0839  0.9734
  283MOL0     C38088   5.176   9.123   7.949 -0.3610 -0.0070  0.7346
  283MOL0     C38089   5.067   9.060   7.893  0.1213 -0.0504  0.0936
  283MOL0     C38090   5.053   9.010   7.742  0.6429 -0.4346  0.1108
  283MOL0     C38091   5.167   8.913   7.719  1.2596  0.3099 -0.3188
  283MOL0     C38092   5.128   8.808   7.615  0.4657  0.2313  0.0840
  283MOL0     C38093   5.251   8.724   7.554 -0.1834 -0.4050  0.4750
  283MOL0     O38094   5.329   8.813   7.477 -0.0671 -0.2521 -0.3556
  283MOL0     C38095   5.290   8.853   7.349  0.6865 -0.1069 -0.5691
  283MOL0     C38096   5.345   8.971   7.303  0.1166 -0.3944 -0.5741
  283MOL0     C38097   5.301   9.037   7.189 -0.8421 -0.1679  0.6298
  283MOL0     C38098   5.359   9.171   7.148  0.0159 -0.0270  0.3012
  283MOL0     C38099   5.195   8.976   7.120 -0.0152 -0.1405  0.3451
  283MOL0     C38100   5.141   9.023   6.995  0.3153 -0.3079  0.1698
  283MOL0     O38101   5.046   9.111   7.016 -0.0077  0.7043  0.1463
  283MOL0     C38102   5.002   9.204   6.919 -0.4903  0.8452  0.2994
  283MOL0     C38103   4.965   9.332   6.959  0.2482 -0.3087 -1.1576
  283MOL0     C38104   4.925   9.438   6.868  0.6181  0.1608  0.5916
  283MOL0     C38105   4.903   9.411   6.733 -0.5075  0.7165 -1.1661
  283MOL0     O38106   4.873   9.516   6.654 -0.3939 -0.1181 -0.1065
  283MOL0     C38107   4.978   9.626   6.657 -0.4867  0.3886 -0.9356
  283MOL0     C38108   4.925   9.754   6.727 -0.1483 -0.1587  0.3920
  283MOL0     C38109   4.975   9.879   6.656  0.1622 -1.2022 -0.5347
  283MOL0     C38110   4.883  10.000   6.695 -0.1509  0.4430 -0.2320
  283MOL0     C38111   4.928  10.129   6.629  0.6335 -0.1684  0.3656
  283MOL0     C38112   4.863  10.265   6.679  0.3303  0.3742 -0.1189
  283MOL0     C38113   4.930  10.368   6.591 -0.6163 -0.4258  0.3008
  283MOL0     C38114   4.903  10.508   6.631 -0.1815 -0.5082  0.1264
  283MOL0    Cl38115   5.006  10.613   6.528 -0.0311  0.6229  0.0982
  283MOL0     C38116   4.930   9.271   6.690 -0.3829 -1.1557  0.3347
  283MOL0     C38117   4.975   9.174   6.779  0.3517 -0.2734 -0.2492
  283MOL0     O38118   5.192   8.992   6.890 -0.4679 -0.0401  0.5794
  283MOL0     C38119   5.133   8.861   7.170  0.4526 -0.5901  0.1727
  283MOL0     C38120   5.184   8.800   7.284 -0.1663 -0.7274 -0.0672
  283MOL0     N38121   4.976   9.040   7.995  1.0584 -1.0299 -0.9223
  283MOL0     N38122   5.022   9.098   8.105 -1.2079  0.4694  0.0807
  283MOL0     C38123   6.174   9.084   8.224 -0.3110  0.3874  0.2351
  283MOL0     C38124   6.280   9.006   8.182 -0.7602 -0.7167 -0.6460
  283MOL0     C38125   6.689   8.834   8.222 -0.3148 -0.1680  0.2508
  283MOL0     C38126   6.683   8.728   8.134  0.2015  0.6105 -0.1169
  283MOL0     C38127   6.793   8.650   8.111 -0.3142  0.1571 -0.8057
  283MOL0     C38128   6.921   8.662   8.176 -0.4081  0.1721  0.6009
  283MOL0     O38129   7.034   8.576   8.172 -0.1074  0.4678  0.2460
  283MOL0     C38130   7.113   8.591   8.052  0.1216 -0.0209 -0.4745
  283MOL0     C38131   7.082   8.481   7.953  0.7443  0.6876  0.7802
  283MOL0     C38132   7.195   8.481   7.845  0.0020 -0.2837  0.4183
  283MOL0     C38133   7.170   8.592   7.744 -0.2958  0.1716  0.6180
  283MOL0     C38134   7.299   8.617   7.672  0.3094 -0.0674 -0.2604
  283MOL0     C38135   7.399   8.638   7.607 -0.1930  0.6201 -0.4067
  283MOL0     C38136   6.931   8.774   8.265  0.6671  0.9899 -0.0421
  283MOL0     C38137   6.817   8.857   8.291 -0.6610 -0.2184  0.2569
  283MOL0     H38138   6.362   8.869   8.472  0.3913  1.5209  0.7239
  283MOL0     H38139   6.172   9.013   8.557  0.8373 -1.1137 -0.2907
  283MOL0     H38140   5.961   9.051   8.555  2.3453 -0.1999 -0.9025
  283MOL0     H38141   6.045   9.202   8.588 -0.3701 -1.7207  1.8210
  283MOL0     H38142   5.800   9.235   8.623  0.1393  0.7570 -1.2636
  283MOL0     H38143   5.870   9.340   8.493 -0.3359  1.0897 -0.3570
  283MOL0     H38144   5.763   9.198   8.319  3.1227 -1.6713  0.6152
  283MOL0     H38145   5.739   9.077   8.446  1.4605  0.5826  0.7725
  283MOL0     H38146   5.584   9.233   8.577 -0.9924 -0.3425  0.5004
  283MOL0     H38147   5.603   9.356   8.451 -2.4305 -0.1569  0.6216
  283MOL0     H38148   5.483   9.078   8.429  2.7950  1.3747  1.5049
  283MOL0     H38149   5.398   9.233   8.410 -0.2826  2.3614 -3.5672
  283MOL0     H38150   5.517   9.267   8.178  2.5404 -0.8688 -2.2442
  283MOL0     H38151   5.596   9.117   8.206 -1.9940 -2.3607 -2.1260
  283MOL0     H38152   5.424   9.070   8.064  6.3078 -3.3056  2.8849
  283MOL0     H38153   5.371   8.999   8.207 -0.5968 -0.2110  0.1798
  283MOL0     H38154   5.294   9.285   8.131  2.6129  0.4404 -0.6948
  283MOL0     H38155   5.232   9.203   8.268  1.3595 -0.1132 -0.9881
  283MOL0     H38156   5.269   9.153   7.902 -1.2786  0.4348 -0.8693
  283MOL0     H38157   4.959   8.955   7.730  0.8541 -0.4320 -2.1767
  283MOL0     H38158   5.046   9.098   7.677 -2.7742  0.3477  1.3418
  283MOL0     H38159   5.198   8.875   7.816 -1.1528  2.9844  1.6710
  283MOL0     H38160   5.260   8.961   7.687  1.0854  1.2657  0.5586
  283MOL0     H38161   5.070   8.850   7.532  1.2552 -0.5482 -0.8962
  283MOL0     H38162   5.070   8.728   7.662  1.7554 -0.5076  0.4470
  283MOL0     H38163   5.212   8.646   7.488  0.4703 -0.5215  0.2215
  283MOL0     H38164   5.310   8.683   7.637  0.4919 -2.3893 -0.9049
  283MOL0     H38165   5.427   9.010   7.361 -0.2625  0.1251 -0.3802
  283MOL0     H38166   5.347   9.204   7.045  2.0035 -1.4903 -0.4693
  283MOL0     H38167   5.308   9.245   7.211 -1.7864 -0.2396 -0.8618
  283MOL0     H38168   5.468   9.167   7.160  0.0029  1.9494  1.5395
  283MOL0     H38169   4.979   9.365   7.062 -0.5674  2.0104 -1.7105
  283MOL0     H38170   4.901   9.538   6.903 -0.5193 -0.2149  0.9218
  283MOL0     H38171   5.072   9.604   6.708 -0.1174  0.5336 -1.5320
  283MOL0     H38172   5.008   9.648   6.554 -0.5249 -1.8416 -1.4559
  283MOL0     H38173   4.817   9.764   6.723  0.0911  2.8632 -1.1494
  283MOL0     H38174   4.950   9.759   6.834 -1.2785  2.3921  0.5956
  283MOL0     H38175   4.969   9.876   6.547 -0.0044 -3.0316 -0.4928
  283MOL0     H38176   5.080   9.898   6.682  0.3370 -0.0023 -1.9924
  283MOL0     H38177   4.775   9.989   6.677 -0.0733 -1.5625  0.2809
  283MOL0     H38178   4.900  10.006   6.803 -2.6023  1.5215  0.1628
  283MOL0     H38179   4.902  10.110   6.524  1.5512  0.4337  0.0137
  283MOL0     H38180   5.034  10.138   6.655  0.2513  2.3514  1.3472
  283MOL0     H38181   4.754  10.273   6.665  0.1547  2.2708  1.8276
  283MOL0     H38182   4.888  10.287   6.783 -0.7134  1.7944 -0.1354
  283MOL0     H38183   4.901  10.351   6.487 -1.4525 -0.5506  0.5513
  283MOL0     H38184   5.039  10.353   6.594 -0.8046 -2.5104 -1.0881
  283MOL0     H38185   4.930  10.532   6.735 -1.1281 -0.5078  0.3857
  283MOL0     H38186   4.795  10.528   6.638  0.1389  1.0203  1.1912
  283MOL0     H38187   4.943   9.248   6.585 -0.3544  1.2017 -0.2480
  283MOL0     H38188   5.001   9.073   6.749 -0.2882 -0.2562 -0.8878
  283MOL0     H38189   5.042   8.820   7.126  0.7761  0.5385 -1.6552
  283MOL0     H38190   5.119   8.727   7.332 -4.7911  1.6705 -2.0234
  283MOL0     H38191   6.113   9.128   8.145 -0.1901 -0.6240 -0.4373
  283MOL0     H38192   6.295   9.022   8.076 -2.4801  2.6389 -0.5377
  283MOL0     H38193   6.594   8.694   8.083  0.9001 -0.6937 -0.5304
  283MOL0     H38194   6.792   8.561   8.048  1.9862 -1.4226  1.1951
  283MOL0     H38195   7.094   8.692   8.017  0.2438  1.0002  2.1860
  283MOL0     H38196   7.219   8.583   8.077 -0.7824 -0.3449  4.2902
  283MOL0     H38197   6.986   8.503   7.906  0.8434  1.9663  1.1462
  283MOL0     H38198   7.069   8.380   7.993 -1.9176  0.7482  0.2525
  283MOL0     H38199   7.204   8.385   7.793 -0.0156  0.5208 -1.1400
  283MOL0     H38200   7.290   8.502   7.894 -0.7149  1.9270  0.9927
  283MOL0     H38201   7.139   8.678   7.804 -0.0397  0.4016  0.4244
  283MOL0     H38202   7.096   8.570   7.666 -0.2922  1.2715  0.2891
  283MOL0     H38203   7.486   8.661   7.550  0.8331  0.5152  1.0630
  283MOL0     H38204   7.026   8.781   8.319 -0.0426  1.5282  1.1954
  283MOL0     H38205   6.841   8.931   8.367  2.4704 -0.5673 -0.2585
  284MOL0     O38206   2.378   2.146   9.958  0.2205 -0.2382 -0.7276
  284MOL0     C38207   2.390   2.201   9.851 -0.1414  0.3308 -0.3333
  284MOL0     O38208   2.385   2.335   9.824  0.0682 -0.0719 -0.0569
  284MOL0     C38209   2.371   2.441   9.914 -0.5866 -0.7588 -0.6025
  284MOL0     C38210   2.342   2.434  10.055  0.6681 -0.2863  0.2112
  284MOL0     C38211   2.358   2.553  10.135  0.1829 -0.6167 -0.4865
  284MOL0     C38212   2.384   2.678  10.089  0.7898 -0.4487 -0.5129
  284MOL0     O38213   2.377   2.794  10.171 -0.2905  0.4032 -0.6374
  284MOL0     C38214   2.280   2.808  10.274  1.0740 -1.0449 -0.9941
  284MOL0     C38215   2.204   2.936  10.252  0.3393  0.6520  0.1772
  284MOL0     C38216   2.291   3.066  10.246 -0.3381  0.6086  0.0366
  284MOL0     C38217   2.353   3.111  10.385  0.4542 -0.7131  0.4956
  284MOL0     C38218   2.417   3.249  10.389 -0.0763 -0.0469  0.0050
  284MOL0     C38219   2.504   3.273  10.517 -0.5180  0.4344 -0.0656
  284MOL0     C38220   2.519   3.430  10.541  0.0554  0.7376  0.0948
  284MOL0     C38221   2.590   3.454  10.679 -0.2188  0.4025 -0.3054
  284MOL0     N38222   2.740   3.479  10.667 -0.5066  0.6281  0.1145
  284MOL0     C38223   2.790   3.608  10.655  0.6511  0.6196  0.1490
  284MOL0     C38224   2.919   3.584  10.646  0.3207  0.1683  0.1865
  284MOL0     C38225   3.008   3.708  10.627  0.0003  0.6011  0.2008
  284MOL0     C38226   3.106   3.725  10.752  0.1909  0.4222 -0.4326
  284MOL0     C38227   3.224   3.827  10.720 -0.4652 -0.2564  0.5508
  284MOL0     C38228   3.318   3.870  10.830 -0.0373  0.1022  1.1739
  284MOL0     O38229   3.278   3.979  10.904 -0.2664 -0.2778  0.4635
  284MOL0     C38230   3.286   4.104  10.846  1.0374 -1.4958 -0.6633
  284MOL0     C38231   3.241   4.224  10.921  0.4031  0.1930  0.1654
  284MOL0     C38232   3.256   4.349  10.865  0.0001  0.6698  0.2092
  284MOL0     C38233   3.230   4.469  10.949  0.5494 -0.0949  0.2328
  284MOL0     C38234   3.312   4.362  10.737 -0.1531 -0.5971  0.0680
  284MOL0     C38235   3.348   4.490  10.667 -0.8447  0.6205  0.8480
  284MOL0     O38236   3.424   4.479  10.552 -0.1728 -0.6566  0.4591
  284MOL0     C38237   3.496   4.590  10.516  0.5587 -0.3460  0.0356
  284MOL0     C38238   3.475   4.633  10.388  0.6965 -1.0197 -0.8725
  284MOL0     C38239   3.544   4.746  10.342  0.3843 -0.1071  0.5899
  284MOL0     C38240   3.628   4.820  10.423 -0.4399 -0.2827  0.6122
  284MOL0     O38241   3.663   4.942  10.384 -0.5671  0.1764 -0.2907
  284MOL0     C38242   3.670   5.043  10.489  0.4034 -0.8598 -0.6566
  284MOL0     C38243   3.686   5.177  10.417  0.4176  0.5967 -0.3105
  284MOL0     C38244   3.666   5.297  10.515 -0.1204  0.5903 -0.0379
  284MOL0     C38245   3.703   5.416  10.448 -0.1639 -0.1449  0.1483
  284MOL0     C38246   3.733   5.531  10.555 -0.1132  0.2545 -1.0657
  284MOL0     C38247   3.815   5.652  10.507  0.9742 -0.0319  0.0111
  284MOL0     C38248   3.712   5.748  10.441 -0.3222  0.2225  0.4848
  284MOL0     C38249   3.782   5.875  10.400  0.4250 -0.9068 -0.4564
  284MOL0    Cl38250   3.827   5.965  10.554  0.2866 -0.1597 -0.1403
  284MOL0     C38251   3.661   4.770  10.556 -0.4181 -0.2860  0.6579
  284MOL0     C38252   3.592   4.655  10.601 -0.1051  0.0904 -0.7046
  284MOL0     O38253   3.326   4.593  10.730  0.1430 -0.0314  0.8546
  284MOL0     C38254   3.347   4.252  10.663 -0.4961 -0.4189  0.5655
  284MOL0     C38255   3.332   4.128  10.719  0.1389  0.3564 -0.1232
  284MOL0     N38256   2.951   3.446  10.635 -0.3138 -0.4462 -0.2351
  284MOL0     N38257   2.835   3.379  10.645  0.1355 -0.3156 -0.0456
  284MOL0     C38258   2.400   2.691   9.946  0.3005  0.7307 -0.6654
  284MOL0     C38259   2.399   2.572   9.871  0.1918 -0.6222 -0.7699
  284MOL0     C38260   2.418   2.096   9.746  0.2512  0.8191  0.3355
  284MOL0     C38261   2.508   1.996   9.783  0.0977  0.2973  0.1446
  284MOL0     C38262   2.552   1.907   9.682 -0.9203 -0.7040 -0.4767
  284MOL0     C38263   2.480   1.899   9.564  0.1756  0.3774  0.0433
  284MOL0     O38264   2.512   1.804   9.471  0.5248 -0.2139  0.3103
  284MOL0     C38265   2.617   1.708   9.500  0.1466 -0.3409  0.1431
  284MOL0     C38266   2.743   1.747   9.412 -0.5521 -0.2206 -0.0681
  284MOL0     C38267   2.729   1.713   9.265  0.7881  0.6040  0.0042
  284MOL0     C38268   2.836   1.799   9.187 -0.1191 -0.0546  0.0065
  284MOL0     C38269   2.859   1.738   9.059  0.6422  0.1762 -0.1624
  284MOL0     C38270   2.902   1.683   8.958 -0.6729  0.5868  0.1093
  284MOL0     C38271   2.381   1.995   9.530 -0.3984  0.4389 -0.1365
  284MOL0     C38272   2.357   2.097   9.616  0.0188 -0.6701 -0.4512
  284MOL0     H38273   2.330   2.334  10.095  3.1243 -0.6490  0.1920
  284MOL0     H38274   2.343   2.532  10.240 -1.5606 -2.4308 -1.0202
  284MOL0     H38275   2.201   2.732  10.268  0.3520 -0.5327  1.2004
  284MOL0     H38276   2.318   2.799  10.376 -1.8469  1.2432  0.4632
  284MOL0     H38277   2.151   2.915  10.159 -1.1022 -2.0426  1.4982
  284MOL0     H38278   2.120   2.954  10.320 -0.1961 -0.5961 -0.1280
  284MOL0     H38279   2.372   3.065  10.173 -1.4826 -2.3174 -1.3298
  284MOL0     H38280   2.231   3.151  10.212 -3.3225 -2.0783 -1.9680
  284MOL0     H38281   2.284   3.113  10.471 -0.0662  0.1231  0.0740
  284MOL0     H38282   2.425   3.033  10.411 -0.2458 -1.6616 -0.3053
  284MOL0     H38283   2.484   3.265  10.304  1.2607  0.9537  1.1909
  284MOL0     H38284   2.341   3.327  10.403 -0.2559  0.5406 -3.4735
  284MOL0     H38285   2.443   3.225  10.594  0.6107 -2.2324 -0.7047
  284MOL0     H38286   2.600   3.220  10.518 -1.4386 -1.6092 -3.4805
  284MOL0     H38287   2.572   3.475  10.457 -1.5282  0.8301 -0.9018
  284MOL0     H38288   2.417   3.469  10.534  0.1414  1.2620  1.3839
  284MOL0     H38289   2.567   3.375  10.750  0.3929 -0.2192 -0.7916
  284MOL0     H38290   2.549   3.548  10.718 -2.6544 -0.9789  0.6544
  284MOL0     H38291   2.727   3.696  10.664 -1.2071 -0.8541  3.0284
  284MOL0     H38292   3.061   3.693  10.533  1.3271 -2.8119  1.3437
  284MOL0     H38293   2.944   3.796  10.617 -2.8860 -1.3551  0.0801
  284MOL0     H38294   3.157   3.635  10.787 -0.2745 -0.0853 -1.0425
  284MOL0     H38295   3.057   3.774  10.837  1.8230 -0.0738  0.8577
  284MOL0     H38296   3.187   3.915  10.667  0.7194  1.4279  2.3765
  284MOL0     H38297   3.279   3.776  10.641  1.3335  3.1334 -0.5738
  284MOL0     H38298   3.412   3.901  10.783 -1.5503  1.2051 -1.3228
  284MOL0     H38299   3.344   3.794  10.905 -1.2959  1.0329  2.6259
  284MOL0     H38300   3.204   4.208  11.022 -0.5134 -2.6984 -0.5348
  284MOL0     H38301   3.318   4.532  10.965  0.3695 -0.1480  1.5131
  284MOL0     H38302   3.153   4.532  10.903  1.6075  0.0197 -1.4580
  284MOL0     H38303   3.205   4.447  11.053  1.9652  0.2492  0.6582
  284MOL0     H38304   3.403   4.583  10.324 -0.7098 -0.4252  0.1947
  284MOL0     H38305   3.522   4.770  10.238 -2.0416 -1.1186  0.8138
  284MOL0     H38306   3.586   5.045  10.560  0.3789  0.2900 -0.6953
  284MOL0     H38307   3.760   5.012  10.544 -0.2544 -0.8212  0.4754
  284MOL0     H38308   3.783   5.163  10.368  0.6798 -0.1537  0.4085
  284MOL0     H38309   3.603   5.185  10.346 -2.1464 -2.8273  1.9651
  284MOL0     H38310   3.731   5.278  10.601  1.6026  1.0369 -1.1681
  284MOL0     H38311   3.563   5.303  10.550  0.5815 -1.6835  2.8336
  284MOL0     H38312   3.798   5.397  10.395  0.7058 -0.8521  1.8931
  284MOL0     H38313   3.624   5.447  10.379 -0.7464 -1.7769  0.0552
  284MOL0     H38314   3.798   5.489  10.632 -0.9516 -1.6866 -1.3387
  284MOL0     H38315   3.636   5.555  10.602 -0.9271 -0.9925 -2.0415
  284MOL0     H38316   3.855   5.694  10.600  0.0906 -2.5869  1.6660
  284MOL0     H38317   3.900   5.623  10.444  0.3373  0.2665 -1.0061
  284MOL0     H38318   3.633   5.767  10.513 -1.3789 -4.7139  0.9807
  284MOL0     H38319   3.672   5.697  10.353  1.8975 -0.1592 -0.3753
  284MOL0     H38320   3.714   5.936  10.339  0.9464  1.9993  1.6923
  284MOL0     H38321   3.866   5.849  10.335  0.1126  2.5183 -2.4990
  284MOL0     H38322   3.726   4.822  10.625 -0.2928 -1.8754  1.7767
  284MOL0     H38323   3.609   4.616  10.701  0.1917 -1.1111 -1.2094
  284MOL0     H38324   3.384   4.272  10.563  3.5377  1.0156  2.1302
  284MOL0     H38325   3.351   4.045  10.651 -0.2959 -0.7531  1.0527
  284MOL0     H38326   2.422   2.786   9.899 -1.4423  1.8755  0.7277
  284MOL0     H38327   2.410   2.588   9.764 -0.2296 -1.7017 -0.9781
  284MOL0     H38328   2.568   2.004   9.873 -0.0070  2.8651  0.0422
  284MOL0     H38329   2.646   1.857   9.703  0.4708  2.0382  0.3051
  284MOL0     H38330   2.648   1.692   9.603  2.0400 -0.6780 -0.4416
  284MOL0     H38331   2.585   1.606   9.476  4.8784 -2.3274  1.3085
  284MOL0     H38332   2.827   1.688   9.451 -1.5868 -0.7580  1.4846
  284MOL0     H38333   2.765   1.851   9.436  0.6730 -0.3153 -0.7251
  284MOL0     H38334   2.627   1.747   9.242  0.4426 -2.0032 -2.9794
  284MOL0     H38335   2.733   1.607   9.239  1.3033  0.7156 -0.3702
  284MOL0     H38336   2.935   1.792   9.232 -0.5336 -2.1555  0.7575
  284MOL0     H38337   2.805   1.903   9.177  0.8151  0.2402  0.0824
  284MOL0     H38338   2.951   1.616   8.890  0.4473  0.6089  0.8610
  284MOL0     H38339   2.333   1.981   9.434 -1.8880 -3.6538  1.0150
  284MOL0     H38340   2.286   2.176   9.593 -0.3275 -1.0963 -0.8665
  285MOL0     O38341   4.440  10.141  10.488 -0.6572 -0.4859 -0.2520
  285MOL0     C38342   4.439  10.115  10.605  0.2276 -0.6619 -0.9917
  285MOL0     O38343   4.392  10.199  10.703  0.9267 -0.7289 -0.0593
  285MOL0     C38344   4.354  10.319  10.662 -0.1745 -0.1246 -0.6121
  285MOL0     C38345   4.222  10.340  10.631 -0.2839  0.5363  0.1844
  285MOL0     C38346   4.177  10.473  10.597  0.0193  0.5442  0.3256
  285MOL0     C38347   4.265  10.582  10.594  0.2024 -0.4904 -0.0250
  285MOL0     O38348   4.226  10.701  10.557  0.0174  0.5892 -0.6277
  285MOL0     C38349   4.118  10.720  10.460  0.3029 -0.0602  0.1467
  285MOL0     C38350   4.145  10.839  10.371  0.9046  0.1428 -0.1458
  285MOL0     C38351   4.257  10.812  10.275 -0.0847 -0.1344 -0.7178
  285MOL0     C38352   4.311  10.929  10.185  0.5168 -0.6317 -0.2402
  285MOL0     C38353   4.358  11.056  10.265 -0.2157  0.6256 -0.1609
  285MOL0     C38354   4.493  11.018  10.317  0.0829  0.6470  0.2094
  285MOL0     C38355   4.568  11.131  10.389 -0.0869 -0.0008  0.4089
  285MOL0     C38356   4.481  11.199  10.504 -0.0450  0.1580  0.1236
  285MOL0     N38357   4.573  11.280  10.591 -0.0691 -0.0543  0.5204
  285MOL0     C38358   4.621  11.404  10.544 -0.4066  0.0218 -0.4368
  285MOL0     C38359   4.721  11.438  10.625 -0.2760  0.5582 -0.0625
  285MOL0     C38360   4.814  11.558  10.609 -0.0352 -0.3286 -0.9087
  285MOL0     C38361   4.788  11.661  10.722 -0.2812 -0.4572  0.6876
  285MOL0     C38362   4.914  11.755  10.745 -0.6941  0.5098 -0.1183
  285MOL0     C38363   4.934  11.841  10.627  0.6172  0.5044  0.4324
  285MOL0     O38364   4.822  11.929  10.610  0.4997  0.2435 -1.0764
  285MOL0     C38365   4.834  12.034  10.519  0.1386  0.7979 -0.2869
  285MOL0     C38366   4.912  12.024  10.405 -0.5587  0.4401  0.4520
  285MOL0     C38367   4.913  12.125  10.313  0.6129 -0.0406  0.6433
  285MOL0     C38368   5.016  12.097  10.198  0.5490  0.3462 -0.3785
  285MOL0     C38369   4.837  12.248  10.330 -0.6029 -0.3722  0.1405
  285MOL0     C38370   4.846  12.374  10.248 -0.3003 -0.1449  0.2631
  285MOL0     O38371   4.745  12.461  10.267  0.2776  0.1720 -0.0049
  285MOL0     C38372   4.713  12.553  10.161 -0.5713  0.2087 -1.3927
  285MOL0     C38373   4.690  12.499  10.032  0.2718 -0.9161  0.2997
  285MOL0     C38374   4.664  12.585   9.922 -0.4192  0.6881 -0.3635
  285MOL0     C38375   4.661  12.724   9.944 -1.0295  0.1509 -0.7480
  285MOL0     O38376   4.617  12.792   9.843  0.3989 -0.3019 -0.0661
  285MOL0     C38377   4.634  12.938   9.849 -0.2937 -0.3693  0.6554
  285MOL0     C38378   4.584  12.996   9.723  1.5169 -0.1197 -0.2096
  285MOL0     C38379   4.435  12.982   9.705 -0.4204  0.2214 -0.0194
  285MOL0     C38380   4.373  13.067   9.591  0.2816 -0.3098  0.1288
  285MOL0     C38381   4.435  13.079   9.451 -1.1141 -0.2716 -0.2124
  285MOL0     C38382   4.346  13.163   9.366  0.1942  0.3669  0.4795
  285MOL0     C38383   4.384  13.148   9.216  0.3740  0.1354 -0.8039
  285MOL0     C38384   4.281  13.206   9.118 -0.1333  0.3143 -0.1499
  285MOL0    Cl38385   4.326  13.197   8.940  0.1441 -0.1581 -0.7624
  285MOL0     C38386   4.695  12.773  10.076  1.0017  0.1039 -0.4656
  285MOL0     C38387   4.723  12.689  10.182 -0.2548 -0.6521  0.5393
  285MOL0     O38388   4.941  12.387  10.170 -0.1889  0.4665 -0.1572
  285MOL0     C38389   4.756  12.259  10.444 -0.6481 -0.8133 -0.1454
  285MOL0     C38390   4.749  12.145  10.538 -0.5735 -0.5048 -0.3767
  285MOL0     N38391   4.743  11.340  10.720 -1.2243  0.1306 -0.3815
  285MOL0     N38392   4.654  11.247  10.696 -0.5794  0.5359 -0.2540
  285MOL0     C38393   4.393  10.556  10.625 -0.2489 -1.4066 -0.9946
  285MOL0     C38394   4.441  10.431  10.672 -0.4638  0.1029  0.2567
  285MOL0     C38395   4.480   9.982  10.656  0.2514  0.2855  0.1423
  285MOL0     C38396   4.493   9.958  10.792 -0.5420  1.1859  0.0461
  285MOL0     C38397   4.530   9.827  10.837  0.6751 -0.8319 -0.4031
  285MOL0     C38398   4.571   9.727  10.755  0.0508 -0.1702 -0.5826
  285MOL0     O38399   4.620   9.607  10.799 -0.5067  0.1547 -0.6215
  285MOL0     C38400   4.714   9.610  10.907 -0.9994 -0.3143  0.4231
  285MOL0     C38401   4.815   9.494  10.887  0.3308 -0.4188 -0.6360
  285MOL0     C38402   4.940   9.502  10.976 -1.1486  1.1249 -0.6890
  285MOL0     C38403   5.021   9.371  10.990  0.6130  0.0088 -0.4260
  285MOL0     C38404   4.932   9.253  11.024 -0.2323 -0.6275  0.8789
  285MOL0     C38405   4.870   9.148  11.042 -0.6027  0.2275 -0.2818
  285MOL0     C38406   4.554   9.755  10.621 -0.2562  0.3295  0.0396
  285MOL0     C38407   4.504   9.877  10.564  0.2580  0.7747 -0.3084
  285MOL0     H38408   4.150  10.260  10.646  0.3459  0.2307  1.8929
  285MOL0     H38409   4.069  10.483  10.606  0.1040 -0.0499  2.4138
  285MOL0     H38410   4.104  10.629  10.401 -1.5857  0.4762 -0.3164
  285MOL0     H38411   4.024  10.732  10.514  1.0883 -2.7440  2.3402
  285MOL0     H38412   4.059  10.857  10.306  1.2514 -1.6154 -1.1557
  285MOL0     H38413   4.161  10.922  10.440  1.8081 -1.3409  1.5380
  285MOL0     H38414   4.349  10.782  10.327  0.3141  0.6813 -0.9299
  285MOL0     H38415   4.237  10.721  10.218 -1.8470  1.3851 -2.6892
  285MOL0     H38416   4.386  10.889  10.117 -0.4647  1.0785 -2.4294
  285MOL0     H38417   4.229  10.961  10.120  1.9772  2.2085 -0.8509
  285MOL0     H38418   4.370  11.144  10.201  2.9803 -0.8062 -1.7498
  285MOL0     H38419   4.288  11.071  10.348  0.7125 -1.5450  1.0905
  285MOL0     H38420   4.477  10.934  10.385 -1.0539  0.4025 -0.3401
  285MOL0     H38421   4.551  10.979  10.233 -1.8021  2.3487 -2.0155
  285MOL0     H38422   4.663  11.092  10.427 -0.2425 -2.5882 -1.5839
  285MOL0     H38423   4.586  11.209  10.314 -0.8048 -0.3765 -0.1702
  285MOL0     H38424   4.440  11.124  10.572 -0.1122  1.1013  1.1506
  285MOL0     H38425   4.405  11.264  10.460  0.0839 -0.5019 -1.1224
  285MOL0     H38426   4.594  11.472  10.464  1.1333  0.4298 -0.6294
  285MOL0     H38427   4.917  11.522  10.606 -0.2677 -1.0310 -0.7171
  285MOL0     H38428   4.785  11.602  10.514  3.9505  0.0642 -2.1212
  285MOL0     H38429   4.777  11.607  10.817  1.3210 -2.4808 -0.2102
  285MOL0     H38430   4.693  11.715  10.711  1.0903  2.0443  0.4974
  285MOL0     H38431   5.004  11.693  10.756 -2.1077 -2.1785 -2.3270
  285MOL0     H38432   4.883  11.809  10.835 -2.1317  0.3517 -0.4918
  285MOL0     H38433   4.958  11.778  10.541 -1.1521  0.3487  0.0190
  285MOL0     H38434   5.020  11.909  10.631  0.8638  0.2194  0.1036
  285MOL0     H38435   4.972  11.937  10.380 -1.6456  0.3010 -1.8828
  285MOL0     H38436   4.954  12.094  10.108  0.3109  0.4900 -0.2186
  285MOL0     H38437   5.096  12.172  10.197  0.2950  0.6209 -0.2746
  285MOL0     H38438   5.066  12.000  10.203  3.2510  1.5413 -1.9748
  285MOL0     H38439   4.685  12.391  10.024 -0.0332 -0.8490 -0.5526
  285MOL0     H38440   4.644  12.550   9.822 -1.9357 -1.3637  0.5768
  285MOL0     H38441   4.577  12.983   9.931 -0.0520 -0.3778  0.8294
  285MOL0     H38442   4.734  12.976   9.870  0.3719 -0.3185 -2.1988
  285MOL0     H38443   4.610  13.102   9.733  0.6558  0.2103 -1.2747
  285MOL0     H38444   4.630  12.953   9.634 -0.5843 -2.5017 -0.2560
  285MOL0     H38445   4.388  12.999   9.803  2.8379 -0.9093  1.9037
  285MOL0     H38446   4.419  12.878   9.677 -0.2810  0.6344 -1.7208
  285MOL0     H38447   4.276  13.021   9.567  0.3918  0.3176 -1.6520
  285MOL0     H38448   4.369  13.169   9.630 -0.2528  0.2475 -1.3227
  285MOL0     H38449   4.432  12.974   9.423 -3.0828 -1.4542  3.7141
  285MOL0     H38450   4.539  13.112   9.453 -1.6041  1.3509  1.3611
  285MOL0     H38451   4.245  13.128   9.387  1.0756 -1.0959  2.5463
  285MOL0     H38452   4.356  13.269   9.392  2.0382  1.2041 -2.9194
  285MOL0     H38453   4.402  13.042   9.195 -3.3819 -1.2752  1.9593
  285MOL0     H38454   4.481  13.194   9.198  0.8741 -1.5899 -2.9351
  285MOL0     H38455   4.259  13.313   9.127  0.0715  0.5506 -1.9293
  285MOL0     H38456   4.191  13.145   9.132 -0.2995 -0.2120 -2.8268
  285MOL0     H38457   4.698  12.878  10.104 -2.4428 -0.1019  1.2126
  285MOL0     H38458   4.748  12.716  10.284  0.1375  2.7035 -0.3208
  285MOL0     H38459   4.702  12.351  10.463 -0.4018 -0.4779 -1.0305
  285MOL0     H38460   4.701  12.139  10.635  0.1219 -0.5870 -0.0340
  285MOL0     H38461   4.458  10.642  10.616 -0.6549 -1.1849 -1.9719
  285MOL0     H38462   4.542  10.424  10.713 -0.5878  1.9699  0.9704
  285MOL0     H38463   4.454  10.027  10.867 -5.1928  1.0173 -1.8556
  285MOL0     H38464   4.527   9.812  10.944  2.6202 -0.6713 -0.2887
  285MOL0     H38465   4.774   9.700  10.892  0.0468 -1.0480  0.0574
  285MOL0     H38466   4.674   9.611  11.009  0.0704 -0.2414  0.8631
  285MOL0     H38467   4.853   9.494  10.785  4.8248 -0.0307  0.8201
  285MOL0     H38468   4.760   9.400  10.898 -1.5110  0.6951  0.1784
  285MOL0     H38469   4.904   9.530  11.075  0.2480 -0.7349  0.3966
  285MOL0     H38470   5.010   9.585  10.962  2.4164 -1.2451  1.5435
  285MOL0     H38471   5.084   9.378  11.080  1.4761  1.7752 -1.1049
  285MOL0     H38472   5.084   9.354  10.902 -0.9238 -0.2169 -1.5022
  285MOL0     H38473   4.821   9.060  11.077  1.8445 -0.6894  1.1086
  285MOL0     H38474   4.577   9.666  10.563  5.6595  0.5558  1.4382
  285MOL0     H38475   4.494   9.880  10.456  0.0956 -1.0908 -0.3822
  286MOL0     O38476   0.580   8.432   2.703  0.1660  0.4269  0.2070
  286MOL0     C38477   0.661   8.514   2.739  0.1340  0.4510  0.6797
  286MOL0     O38478   0.681   8.571   2.859 -0.0762 -1.1144  0.0809
  286MOL0     C38479   0.618   8.535   2.966 -0.6506 -1.0745 -0.3506
  286MOL0     C38480   0.674   8.603   3.076 -0.0240 -0.2725 -0.0532
  286MOL0     C38481   0.611   8.607   3.198  0.0801 -0.0523 -0.0215
  286MOL0     C38482   0.486   8.538   3.219 -0.1835 -1.0739 -0.1543
  286MOL0     O38483   0.423   8.557   3.335  0.3394 -0.6086 -0.0611
  286MOL0     C38484   0.331   8.455   3.383 -0.3031  0.0806  0.1090
  286MOL0     C38485   0.279   8.506   3.521  0.7472  0.1957  0.0742
  286MOL0     C38486   0.135   8.445   3.559 -0.4272  0.1055 -0.1322
  286MOL0     C38487   0.090   8.492   3.703 -0.1531  0.5273 -0.0762
  286MOL0     C38488   0.006   8.394   3.781  0.0953  0.4037 -0.0740
  286MOL0     C38489  -0.114   8.336   3.700  1.0893  0.8133  0.3170
  286MOL0     C38490  -0.172   8.206   3.758 -0.6330  0.3841 -0.0148
  286MOL0     C38491  -0.319   8.172   3.708 -0.6563 -0.2503 -0.3257
  286MOL0     N38492  -0.323   8.183   3.560  0.1871 -0.2578  0.2395
  286MOL0     C38493  -0.411   8.267   3.502  0.1938  0.4149 -0.0312
  286MOL0     C38494  -0.407   8.225   3.368 -0.6090 -0.2378 -0.2415
  286MOL0     C38495  -0.460   8.291   3.240  0.0449  0.2433  0.5412
  286MOL0     C38496  -0.581   8.217   3.175 -0.3667 -0.6223 -0.4376
  286MOL0     C38497  -0.713   8.214   3.254 -0.9785 -0.5933  0.3171
  286MOL0     C38498  -0.806   8.111   3.191  0.5407  0.3598 -0.1170
  286MOL0     O38499  -0.932   8.114   3.258 -0.4631  0.0291 -0.6375
  286MOL0     C38500  -1.012   8.226   3.238 -0.4175  1.0443 -1.1119
  286MOL0     C38501  -1.000   8.314   3.131 -0.0773 -0.2216 -0.1754
  286MOL0     C38502  -1.094   8.412   3.112  1.1007  0.1047  1.0278
  286MOL0     C38503  -1.071   8.511   2.991 -0.2795  0.1727 -0.5204
  286MOL0     C38504  -1.211   8.424   3.198 -0.0738 -0.0434  0.0812
  286MOL0     C38505  -1.340   8.505   3.177 -0.7694 -0.5365 -0.2201
  286MOL0     O38506  -1.440   8.487   3.271  0.0592 -0.5227 -0.0649
  286MOL0     C38507  -1.555   8.566   3.245 -0.5805  0.4942  0.3588
  286MOL0     C38508  -1.610   8.643   3.348  1.1943  0.2501 -0.0839
  286MOL0     C38509  -1.721   8.734   3.334  0.1841 -0.0017 -0.0471
  286MOL0     C38510  -1.789   8.750   3.210 -1.4695  1.2498  0.3338
  286MOL0     O38511  -1.890   8.837   3.188  0.0199  1.4139  0.3789
  286MOL0     C38512  -1.907   8.878   3.048 -0.4483 -0.3984 -0.8665
  286MOL0     C38513  -2.001   9.002   3.038  0.4234  0.4245 -0.2346
  286MOL0     C38514  -1.968   9.076   2.913  0.2941 -0.1664 -0.3482
  286MOL0     C38515  -1.828   9.155   2.907 -0.0875  0.6344 -1.0080
  286MOL0     C38516  -1.805   9.225   2.775  0.5923  0.0446 -0.3039
  286MOL0     C38517  -1.911   9.339   2.750 -0.1044  0.5315  0.9390
  286MOL0     C38518  -1.874   9.438   2.643 -0.7938  0.4034  0.6562
  286MOL0     C38519  -1.934   9.572   2.687 -1.0296  0.2748 -0.1441
  286MOL0    Cl38520  -1.830   9.637   2.823  0.6051  0.3473  0.1643
  286MOL0     C38521  -1.737   8.659   3.101  0.1209 -1.5259 -0.4381
  286MOL0     C38522  -1.632   8.567   3.126  1.3977  0.7537 -0.0459
  286MOL0     O38523  -1.351   8.572   3.077 -0.2431 -0.3568 -0.1831
  286MOL0     C38524  -1.216   8.335   3.310 -0.0869  0.2805 -0.3072
  286MOL0     C38525  -1.116   8.239   3.329 -0.4610 -0.0062  0.0605
  286MOL0     N38526  -0.332   8.113   3.362  0.5865  0.6501  0.9846
  286MOL0     N38527  -0.296   8.081   3.479 -0.2463 -0.1338 -0.1699
  286MOL0     C38528   0.425   8.479   3.106 -0.6715 -0.9348 -0.3066
  286MOL0     C38529   0.499   8.468   2.987  0.6060  1.1846  0.5451
  286MOL0     C38530   0.761   8.551   2.633  0.2951 -0.3744  0.9647
  286MOL0     C38531   0.882   8.601   2.671  0.5083  0.4530  0.4681
  286MOL0     C38532   0.966   8.660   2.578  0.4912 -0.6475 -0.1330
  286MOL0     C38533   0.947   8.654   2.442  0.9979  0.1334  0.4526
  286MOL0     O38534   1.021   8.726   2.361  0.1163  0.5352  0.3439
  286MOL0     C38535   1.035   8.664   2.235  0.3849 -0.3303  0.3329
  286MOL0     C38536   1.159   8.728   2.169 -0.6169 -0.2185  0.0722
  286MOL0     C38537   1.160   8.864   2.112  0.5628  0.4458 -0.8284
  286MOL0     C38538   1.078   8.863   1.984 -0.3802 -0.4482  0.8383
  286MOL0     C38539   1.033   8.998   1.949 -0.2838  1.0472  1.0703
  286MOL0     C38540   1.006   9.107   1.915 -0.5768 -0.0547  0.8673
  286MOL0     C38541   0.832   8.572   2.402 -0.2611 -0.8616  0.7446
  286MOL0     C38542   0.737   8.530   2.490  0.1340  0.9639  0.1140
  286MOL0     H38543   0.776   8.640   3.074  0.1381 -0.6479  0.6948
  286MOL0     H38544   0.660   8.665   3.276 -0.0896  1.3717 -0.9328
  286MOL0     H38545   0.253   8.432   3.309  2.0519 -2.8535 -1.6874
  286MOL0     H38546   0.387   8.364   3.408  0.7956  0.7402  0.1428
  286MOL0     H38547   0.353   8.479   3.596 -1.6939 -1.7714  1.9553
  286MOL0     H38548   0.261   8.613   3.510 -2.2829 -0.2131  0.1241
  286MOL0     H38549   0.057   8.457   3.484  0.1275 -1.3937 -0.9987
  286MOL0     H38550   0.153   8.337   3.560  1.3714  0.3692  0.5992
  286MOL0     H38551   0.176   8.532   3.757 -1.9531  1.2151  2.4224
  286MOL0     H38552   0.030   8.581   3.683  0.9861  1.3799  0.2411
  286MOL0     H38553   0.074   8.319   3.822  2.3601  2.7998  0.8570
  286MOL0     H38554  -0.034   8.447   3.868 -0.1166 -0.9839  0.7070
  286MOL0     H38555  -0.205   8.397   3.706 -1.3949 -2.5416 -0.2233
  286MOL0     H38556  -0.084   8.309   3.599  1.0101  0.9317  0.2617
  286MOL0     H38557  -0.107   8.119   3.746  0.2030  0.9353  0.5154
  286MOL0     H38558  -0.184   8.220   3.866  0.2043  1.9338 -0.0934
  286MOL0     H38559  -0.391   8.243   3.751  0.1974  0.1910  0.4214
  286MOL0     H38560  -0.359   8.073   3.731  0.4692  0.2141  4.9892
  286MOL0     H38561  -0.448   8.359   3.545  0.8374  0.1683  1.1048
  286MOL0     H38562  -0.500   8.391   3.263 -3.6032 -0.3618 -2.1498
  286MOL0     H38563  -0.379   8.304   3.168 -1.3643 -0.9220 -1.3441
  286MOL0     H38564  -0.536   8.119   3.160  0.5467 -0.6798  2.1891
  286MOL0     H38565  -0.597   8.260   3.075  3.5513 -0.1103 -0.9808
  286MOL0     H38566  -0.748   8.315   3.229  0.5795  0.1241  0.9255
  286MOL0     H38567  -0.691   8.201   3.360 -2.4416  0.2090  0.7525
  286MOL0     H38568  -0.750   8.017   3.182  0.0703  0.1176 -0.5842
  286MOL0     H38569  -0.810   8.122   3.083  1.2352 -0.4091 -0.2339
  286MOL0     H38570  -0.923   8.296   3.056 -0.7752 -1.1207 -0.6982
  286MOL0     H38571  -1.147   8.502   2.912  0.3849  1.1606 -1.2964
  286MOL0     H38572  -1.082   8.609   3.040 -3.2115 -0.8113  1.0509
  286MOL0     H38573  -0.973   8.500   2.944 -0.4374 -2.7195 -0.3518
  286MOL0     H38574  -1.575   8.606   3.444 -0.6475 -1.9893 -0.1830
  286MOL0     H38575  -1.743   8.782   3.429  0.6482 -4.1492  2.4062
  286MOL0     H38576  -1.808   8.912   3.016  1.2114 -2.2129  1.9465
  286MOL0     H38577  -1.944   8.803   2.978 -0.3675 -1.9406  0.6853
  286MOL0     H38578  -2.104   8.966   3.039  0.7120 -0.4397 -1.1202
  286MOL0     H38579  -1.980   9.058   3.130  2.1582  1.3765 -1.1365
  286MOL0     H38580  -2.038   9.159   2.903  0.9345  0.2055 -2.1404
  286MOL0     H38581  -1.976   9.014   2.823 -0.3585  3.0143 -2.6582
  286MOL0     H38582  -1.823   9.219   2.996  0.5418  0.1254 -0.6755
  286MOL0     H38583  -1.745   9.084   2.910  0.3589  0.9916 -3.0702
  286MOL0     H38584  -1.811   9.152   2.694 -0.6817 -1.2884  0.9272
  286MOL0     H38585  -1.703   9.262   2.792  0.8087 -0.5100 -0.3822
  286MOL0     H38586  -2.011   9.299   2.729  0.1199  1.2457 -1.8878
  286MOL0     H38587  -1.919   9.385   2.849  0.5675  0.0164  1.2442
  286MOL0     H38588  -1.904   9.406   2.543  3.8973 -1.4426 -0.4441
  286MOL0     H38589  -1.765   9.443   2.642 -0.6826 -1.0081 -1.7350
  286MOL0     H38590  -2.040   9.556   2.712 -1.6538  0.5159 -2.3809
  286MOL0     H38591  -1.917   9.636   2.600  1.1212  0.8623  0.6594
  286MOL0     H38592  -1.776   8.664   3.000  1.9509 -0.9084 -1.1576
  286MOL0     H38593  -1.603   8.511   3.037 -1.0865  0.2124 -0.5894
  286MOL0     H38594  -1.303   8.325   3.374  1.0537  0.7460  1.3737
  286MOL0     H38595  -1.128   8.181   3.420 -1.2809 -1.0127 -0.6655
  286MOL0     H38596   0.324   8.441   3.100 -1.1378 -0.1046  1.6194
  286MOL0     H38597   0.438   8.429   2.906  0.6010  1.8275  0.2368
  286MOL0     H38598   0.898   8.604   2.778 -1.6392 -3.1418  1.0610
  286MOL0     H38599   1.053   8.724   2.596 -0.3346  0.5533 -0.3021
  286MOL0     H38600   1.056   8.558   2.249 -1.5306 -0.5471  2.0883
  286MOL0     H38601   0.946   8.679   2.174  0.5436  1.8330  0.5232
  286MOL0     H38602   1.188   8.666   2.083 -1.5177  1.5881 -1.6214
  286MOL0     H38603   1.244   8.720   2.237  1.2708  0.4935 -2.0731
  286MOL0     H38604   1.260   8.906   2.100  1.0651 -0.9550 -1.8415
  286MOL0     H38605   1.112   8.927   2.188  2.3721 -0.6696  1.3370
  286MOL0     H38606   0.990   8.799   1.995  1.7159 -3.6248  0.5811
  286MOL0     H38607   1.139   8.817   1.906 -0.3851  1.1481 -0.1349
  286MOL0     H38608   0.961   9.196   1.876 -0.2959  0.3277  1.4059
  286MOL0     H38609   0.797   8.583   2.300  0.1272  0.5839  0.7452
  286MOL0     H38610   0.636   8.506   2.459 -2.1100  2.3820  5.2062
  287MOL0     O38611   0.955   2.980   6.492 -0.0262 -0.1568  0.3098
  287MOL0     C38612   0.840   2.979   6.448 -0.8575 -0.2909  0.5057
  287MOL0     O38613   0.809   2.923   6.324  0.6880  0.1205  0.4650
  287MOL0     C38614   0.898   2.886   6.233  0.1716 -0.2119 -0.0998
  287MOL0     C38615   0.928   2.967   6.130  0.1574  0.3683 -0.3161
  287MOL0     C38616   1.020   2.936   6.025  0.9527  0.3773 -0.2446
  287MOL0     C38617   1.093   2.810   6.031  0.9099  0.5154  0.5602
  287MOL0     O38618   1.196   2.762   5.953 -0.3536 -0.2534  0.2002
  287MOL0     C38619   1.183   2.804   5.820 -0.1960 -0.3416  0.5561
  287MOL0     C38620   1.225   2.691   5.729 -0.3049  0.0486  0.3584
  287MOL0     C38621   1.356   2.622   5.768 -1.3589 -0.9584 -0.4424
  287MOL0     C38622   1.402   2.536   5.658 -0.1742  1.2348 -0.2034
  287MOL0     C38623   1.561   2.538   5.660 -0.4253  0.0545  0.0910
  287MOL0     C38624   1.613   2.448   5.771  0.4135  0.6294 -0.4334
  287MOL0     C38625   1.767   2.438   5.782  0.0071 -0.0291 -0.6643
  287MOL0     C38626   1.819   2.337   5.682 -1.1087  0.7662  0.2926
  287MOL0     N38627   1.974   2.331   5.669  0.4007  0.7939  0.4370
  287MOL0     C38628   2.049   2.432   5.624  0.0632  0.7742  0.1347
  287MOL0     C38629   2.174   2.398   5.627 -0.3252  0.7580  0.1514
  287MOL0     C38630   2.288   2.468   5.566  0.4913  0.2183  0.3711
  287MOL0     C38631   2.360   2.385   5.457 -1.0431 -0.4880 -0.5689
  287MOL0     C38632   2.490   2.445   5.403 -0.2133  0.0487  1.0206
  287MOL0     C38633   2.567   2.343   5.324 -0.3328  0.3480 -0.4669
  287MOL0     O38634   2.508   2.290   5.208 -0.0100 -0.4327 -0.6289
  287MOL0     C38635   2.566   2.183   5.144 -0.3870  0.1780 -0.9241
  287MOL0     C38636   2.496   2.096   5.061 -0.3966  0.4511 -0.0616
  287MOL0     C38637   2.548   1.992   4.992 -0.0651 -0.1025  0.1772
  287MOL0     C38638   2.468   1.907   4.913  0.7700 -0.0336  0.2770
  287MOL0     C38639   2.688   1.975   5.000 -0.0355  0.1183  0.1579
  287MOL0     C38640   2.761   1.867   4.923 -0.3523  0.0811 -0.2323
  287MOL0     O38641   2.891   1.856   4.962  0.0764 -0.5547  0.0063
  287MOL0     C38642   2.994   1.798   4.878 -0.0631  0.6155 -0.0275
  287MOL0     C38643   2.992   1.812   4.745  0.4589 -0.3147  0.6323
  287MOL0     C38644   3.090   1.749   4.661  0.5705 -0.7465 -0.4699
  287MOL0     C38645   3.209   1.699   4.723  0.2975 -0.3331 -0.6206
  287MOL0     O38646   3.317   1.647   4.658  0.4434 -0.4056  1.2191
  287MOL0     C38647   3.318   1.626   4.517  0.2943 -0.2086 -0.0758
  287MOL0     C38648   3.410   1.506   4.506 -0.1951 -0.3921  0.3321
  287MOL0     C38649   3.416   1.468   4.364  0.5295  0.8159  0.4211
  287MOL0     C38650   3.510   1.541   4.272 -0.6927  0.0556 -0.0483
  287MOL0     C38651   3.551   1.456   4.148 -0.7962  0.3705  0.1526
  287MOL0     C38652   3.463   1.469   4.024 -0.4776 -0.5978 -0.8353
  287MOL0     C38653   3.426   1.608   3.971  0.3059  0.2712  0.6298
  287MOL0     C38654   3.355   1.604   3.840  0.1765 -0.1578  1.1486
  287MOL0    Cl38655   3.444   1.686   3.703 -0.0650  0.1102 -0.1303
  287MOL0     C38656   3.212   1.697   4.864 -0.5263  0.3331  0.3024
  287MOL0     C38657   3.106   1.744   4.941  0.7723 -1.0138 -0.0470
  287MOL0     O38658   2.705   1.792   4.840  0.7435  0.1142  0.5918
  287MOL0     C38659   2.755   2.057   5.090 -0.2789  0.1208  0.0856
  287MOL0     C38660   2.697   2.160   5.163 -0.1545  0.1829  0.4751
  287MOL0     N38661   2.179   2.268   5.679  0.8365 -0.1288 -0.0475
  287MOL0     N38662   2.060   2.233   5.713  0.0186 -0.7596 -0.7194
  287MOL0     C38663   1.067   2.730   6.148 -1.1010 -0.2924  0.9659
  287MOL0     C38664   0.965   2.761   6.236  0.4559 -0.2782  0.3218
  287MOL0     C38665   0.732   3.044   6.523  1.2714  0.2846 -0.3813
  287MOL0     C38666   0.606   3.046   6.463  0.8005 -0.7276  0.5673
  287MOL0     C38667   0.496   3.124   6.505 -0.5297  0.1472  0.4088
  287MOL0     C38668   0.511   3.194   6.619 -0.3789 -0.5542 -0.1542
  287MOL0     O38669   0.400   3.272   6.668 -0.1025 -0.3509  1.1213
  287MOL0     C38670   0.390   3.291   6.809 -0.5561 -0.4070  1.0947
  287MOL0     C38671   0.247   3.315   6.858  0.0600  0.0379  0.3763
  287MOL0     C38672   0.161   3.189   6.840 -0.0645 -0.0893 -1.9254
  287MOL0     C38673   0.040   3.189   6.941 -1.3310  0.2529  0.9570
  287MOL0     C38674  -0.001   3.315   6.995  0.9546 -1.1958  0.7041
  287MOL0     C38675  -0.049   3.424   7.036 -0.2368 -0.3257  0.8444
  287MOL0     C38676   0.643   3.204   6.675 -0.0604 -0.2383 -0.5796
  287MOL0     C38677   0.751   3.116   6.635 -0.3955 -0.0082 -0.3047
  287MOL0     H38678   0.883   3.065   6.141  0.7316  0.3994  2.5247
  287MOL0     H38679   1.031   3.004   5.942  0.1725  0.5010 -0.2494
  287MOL0     H38680   1.082   2.822   5.782  0.7904 -2.8732 -3.9462
  287MOL0     H38681   1.239   2.897   5.806  0.6922 -0.7481  1.3060
  287MOL0     H38682   1.147   2.614   5.733 -0.0485 -0.1929  0.9751
  287MOL0     H38683   1.234   2.736   5.630  1.6094 -1.2202 -0.0983
  287MOL0     H38684   1.436   2.693   5.790  0.3851 -1.8663 -3.2868
  287MOL0     H38685   1.350   2.560   5.858  2.2463  1.2639  1.5394
  287MOL0     H38686   1.353   2.438   5.660  2.3095 -0.1162 -1.0541
  287MOL0     H38687   1.367   2.570   5.561 -1.5160 -1.1292 -0.6245
  287MOL0     H38688   1.590   2.500   5.561  0.3931 -3.3405  1.4804
  287MOL0     H38689   1.601   2.639   5.660 -0.4405  0.4050 -5.4921
  287MOL0     H38690   1.570   2.479   5.867  1.9207 -3.0182  1.6340
  287MOL0     H38691   1.565   2.351   5.754 -1.7228  0.9978  2.7396
  287MOL0     H38692   1.821   2.531   5.761  0.2660 -0.2251 -0.8784
  287MOL0     H38693   1.790   2.418   5.887  1.2482 -0.8006 -1.0546
  287MOL0     H38694   1.783   2.348   5.579 -0.1151 -0.2719 -0.1810
  287MOL0     H38695   1.795   2.236   5.715 -1.3299  1.3557  2.0284
  287MOL0     H38696   2.007   2.525   5.588  1.1450  1.7187  1.1915
  287MOL0     H38697   2.254   2.555   5.508  1.7302 -0.3503 -1.2818
  287MOL0     H38698   2.355   2.494   5.648  1.0822  0.4750 -0.1884
  287MOL0     H38699   2.285   2.359   5.382 -3.0792 -1.5541  1.7072
  287MOL0     H38700   2.391   2.289   5.501 -1.5267 -1.5070 -2.3581
  287MOL0     H38701   2.555   2.468   5.489 -2.6262  2.0308  2.4487
  287MOL0     H38702   2.461   2.535   5.348 -0.5147 -1.0056 -0.5922
  287MOL0     H38703   2.580   2.257   5.390  1.7951  0.9495 -0.0393
  287MOL0     H38704   2.665   2.385   5.302  0.4959 -1.1050  0.3472
  287MOL0     H38705   2.391   2.115   5.041  0.0539  1.4967 -1.6320
  287MOL0     H38706   2.362   1.933   4.928  0.0991 -3.2778  2.0555
  287MOL0     H38707   2.494   1.909   4.807  0.2146 -2.5843  0.0239
  287MOL0     H38708   2.471   1.806   4.954  0.5237  0.5596  1.8323
  287MOL0     H38709   2.909   1.866   4.699 -0.7649  0.2097  3.2976
  287MOL0     H38710   3.084   1.747   4.552 -2.1437 -2.3722 -0.3802
  287MOL0     H38711   3.220   1.602   4.475  0.2294  1.0834 -0.6902
  287MOL0     H38712   3.348   1.718   4.467  2.3955 -2.3358 -3.1264
  287MOL0     H38713   3.509   1.549   4.524  0.1835  0.1948 -2.6655
  287MOL0     H38714   3.384   1.418   4.565 -0.3993 -0.5113  0.0669
  287MOL0     H38715   3.315   1.466   4.323  0.8098  0.0847 -0.2603
  287MOL0     H38716   3.442   1.361   4.359  0.0491  0.7346 -0.4561
  287MOL0     H38717   3.452   1.629   4.241 -1.1572 -1.3062 -3.4878
  287MOL0     H38718   3.599   1.558   4.333 -0.2082 -0.7666 -0.5096
  287MOL0     H38719   3.569   1.353   4.181 -0.4036  1.2200  2.8692
  287MOL0     H38720   3.651   1.488   4.119 -0.1963 -1.0885  0.5585
  287MOL0     H38721   3.520   1.417   3.948 -0.8531 -0.7136 -1.0423
  287MOL0     H38722   3.372   1.411   4.045 -2.1983  2.3716  0.8402
  287MOL0     H38723   3.509   1.680   3.967 -2.2022  3.2988 -2.0304
  287MOL0     H38724   3.355   1.653   4.040  1.1600 -0.2039  1.8548
  287MOL0     H38725   3.259   1.655   3.856  0.2650 -0.1933  1.8429
  287MOL0     H38726   3.342   1.499   3.812  0.6599 -0.0242  0.4205
  287MOL0     H38727   3.299   1.659   4.917  0.3447 -0.7675 -1.7897
  287MOL0     H38728   3.111   1.734   5.049  1.6005  1.8735  0.2639
  287MOL0     H38729   2.863   2.043   5.097  0.1915  2.5012 -1.4201
  287MOL0     H38730   2.758   2.222   5.228  2.5166 -1.9169  0.1685
  287MOL0     H38731   1.126   2.639   6.160  0.2363  0.2478 -0.9703
  287MOL0     H38732   0.951   2.681   6.307  3.2806 -1.7671 -0.6377
  287MOL0     H38733   0.595   2.984   6.375  1.5755  0.5277 -0.4420
  287MOL0     H38734   0.401   3.097   6.459 -0.3774 -3.4453  1.8390
  287MOL0     H38735   0.441   3.207   6.859  0.7030  0.6312  1.6093
  287MOL0     H38736   0.459   3.371   6.836  1.2889 -1.6295  0.2080
  287MOL0     H38737   0.206   3.394   6.794  1.1466 -1.6442 -2.5797
  287MOL0     H38738   0.257   3.356   6.959  0.2579  0.7986  0.0561
  287MOL0     H38739   0.215   3.094   6.842  2.0793  0.9248  2.3595
  287MOL0     H38740   0.124   3.189   6.738  3.0636 -5.7818 -3.4880
  287MOL0     H38741   0.085   3.123   7.016  1.2564 -0.2878 -0.9309
  287MOL0     H38742  -0.036   3.129   6.889 -0.0650 -2.4643  2.0224
  287MOL0     H38743  -0.109   3.508   7.065 -0.4781 -0.1859 -0.0516
  287MOL0     H38744   0.652   3.285   6.746  2.1935 -1.0411  0.1269
  287MOL0     H38745   0.854   3.121   6.670 -0.5540 -1.0471  0.3494
  288MOL0     O38746   3.832   2.934   0.195 -0.0280 -0.3076  0.2307
  288MOL0     C38747   3.941   2.983   0.235 -0.1204  0.6212 -0.2057
  288MOL0     O38748   3.952   3.082   0.325  0.7577  0.8335  0.6914
  288MOL0     C38749   3.833   3.120   0.374 -0.2818 -0.4305 -0.2680
  288MOL0     C38750   3.776   3.229   0.318 -0.4776 -0.0450 -0.1930
  288MOL0     C38751   3.647   3.267   0.340  1.2245 -0.7574  0.7963
  288MOL0     C38752   3.572   3.205   0.443  0.0561 -1.5297 -0.6241
  288MOL0     O38753   3.439   3.239   0.435  0.1124 -0.6764  0.0820
  288MOL0     C38754   3.355   3.180   0.532  0.2864  0.1811 -0.0717
  288MOL0     C38755   3.230   3.271   0.545 -0.6780  0.4942  0.3377
  288MOL0     C38756   3.145   3.214   0.661  0.3431 -0.6812  0.4834
  288MOL0     C38757   3.011   3.292   0.675 -0.0590 -0.9402  0.9643
  288MOL0     C38758   2.967   3.313   0.822  0.1964  0.5063  0.2630
  288MOL0     C38759   2.842   3.391   0.831 -0.0470 -0.3120  0.1750
  288MOL0     C38760   2.877   3.522   0.753  0.0806 -0.2493  0.1106
  288MOL0     C38761   2.791   3.640   0.793  0.6486  0.6965 -0.0804
  288MOL0     N38762   2.810   3.697   0.924 -0.0969  0.0676  0.4627
  288MOL0     C38763   2.782   3.638   1.048  0.3022 -0.0000  0.8043
  288MOL0     C38764   2.773   3.741   1.133  0.1250 -0.1692 -0.8343
  288MOL0     C38765   2.743   3.735   1.278 -0.3029  0.1324 -0.1005
  288MOL0     C38766   2.593   3.732   1.321  0.5127 -0.2894 -0.3865
  288MOL0     C38767   2.556   3.694   1.473  0.6411 -0.1316 -0.4990
  288MOL0     C38768   2.415   3.656   1.498  0.1752 -0.5340  0.0073
  288MOL0     O38769   2.403   3.514   1.488 -0.5974  0.1093  0.5503
  288MOL0     C38770   2.285   3.456   1.515  0.1384  0.8679  0.2472
  288MOL0     C38771   2.288   3.322   1.518  0.2093 -0.5718  0.7334
  288MOL0     C38772   2.170   3.244   1.535 -0.0992  0.4921 -0.6008
  288MOL0     C38773   2.187   3.097   1.536 -0.3814  0.1586 -0.1104
  288MOL0     C38774   2.047   3.309   1.558 -0.9795 -0.3379  0.5783
  288MOL0     C38775   1.915   3.242   1.583 -0.0714  0.5043  0.5985
  288MOL0     O38776   1.905   3.111   1.557 -0.7050 -0.7425  0.2819
  288MOL0     C38777   1.787   3.036   1.563  1.0678  0.6416  0.4663
  288MOL0     C38778   1.804   2.905   1.513  0.3617 -0.2205 -0.1453
  288MOL0     C38779   1.693   2.821   1.500 -0.1038 -0.5220 -0.7535
  288MOL0     C38780   1.566   2.851   1.548  0.2168  0.3448  0.8134
  288MOL0     O38781   1.454   2.769   1.548 -0.0624 -0.6445  0.0354
  288MOL0     C38782   1.467   2.647   1.477  0.6350 -0.0906 -0.8832
  288MOL0     C38783   1.330   2.588   1.461 -0.5597 -0.3812 -0.6872
  288MOL0     C38784   1.339   2.458   1.390 -0.4018 -0.3418  0.5553
  288MOL0     C38785   1.388   2.344   1.483 -0.1204  0.6601  0.0970
  288MOL0     C38786   1.372   2.211   1.406  0.3212  0.3511 -0.7046
  288MOL0     C38787   1.414   2.087   1.487 -0.5800  0.3393  0.1233
  288MOL0     C38788   1.491   1.974   1.405  0.4807 -0.1459  0.4080
  288MOL0     C38789   1.389   1.884   1.336 -0.7326 -0.2835  0.3161
  288MOL0    Cl38790   1.478   1.734   1.274  0.0777 -0.3286 -0.1591
  288MOL0     C38791   1.562   2.967   1.616  0.3953 -0.9809  0.8409
  288MOL0     C38792   1.663   3.068   1.612 -0.4932 -0.0680 -1.3107
  288MOL0     O38793   1.823   3.313   1.630 -0.2096  0.5313  0.0344
  288MOL0     C38794   2.047   3.454   1.553 -0.0283  0.0625 -1.0999
  288MOL0     C38795   2.166   3.521   1.529  0.1788 -0.0199  0.0362
  288MOL0     N38796   2.807   3.861   1.063  0.5323 -0.5582 -0.2486
  288MOL0     N38797   2.820   3.837   0.939 -0.1683  0.5260  0.2972
  288MOL0     C38798   3.637   3.112   0.522 -0.0339 -0.1932  0.2547
  288MOL0     C38799   3.763   3.063   0.482 -0.5778 -0.3713  0.7385
  288MOL0     C38800   4.067   2.924   0.182 -0.2624 -0.0454 -0.3489
  288MOL0     C38801   4.194   2.938   0.244  0.4249 -1.2913 -0.3105
  288MOL0     C38802   4.315   2.906   0.180  0.0618 -0.0933  0.1616
  288MOL0     C38803   4.318   2.881   0.040  0.0853  0.5630 -0.0969
  288MOL0     O38804   4.441   2.858  -0.015 -0.7132  0.1693 -0.1338
  288MOL0     C38805   4.448   2.829  -0.151 -0.5495 -0.3024 -0.8432
  288MOL0     C38806   4.443   2.959  -0.227  0.2898  0.6592  0.2405
  288MOL0     C38807   4.532   2.940  -0.351  0.2591 -0.1582 -0.5119
  288MOL0     C38808   4.460   2.888  -0.472 -0.0097 -0.4411 -0.4990
  288MOL0     C38809   4.463   2.743  -0.455 -0.4370 -0.9230 -0.1564
  288MOL0     C38810   4.461   2.619  -0.457 -0.0372  0.2153 -0.0217
  288MOL0     C38811   4.188   2.864  -0.022 -0.7538 -0.8226  0.9348
  288MOL0     C38812   4.068   2.877   0.049 -0.2727 -0.0051 -0.2566
  288MOL0     H38813   3.836   3.273   0.239 -0.3456 -0.4612 -0.3259
  288MOL0     H38814   3.595   3.347   0.288  2.5664  0.6570  1.5643
  288MOL0     H38815   3.335   3.074   0.516 -1.3904  0.5040 -0.2440
  288MOL0     H38816   3.404   3.188   0.630 -1.3149 -2.2220  1.0259
  288MOL0     H38817   3.257   3.376   0.552 -0.5326  0.7480 -2.5825
  288MOL0     H38818   3.165   3.267   0.457  0.7150  2.3258 -0.8470
  288MOL0     H38819   3.112   3.115   0.629  3.3657 -1.8033  0.5300
  288MOL0     H38820   3.208   3.211   0.751  0.3052  4.1896  0.9338
  288MOL0     H38821   3.028   3.379   0.611 -0.2791 -0.4515  1.5698
  288MOL0     H38822   2.925   3.241   0.629 -2.4771  3.6147 -0.1791
  288MOL0     H38823   2.946   3.211   0.855  0.3605 -0.9265 -3.4939
  288MOL0     H38824   3.061   3.351   0.864  1.4471  0.6358 -2.3930
  288MOL0     H38825   2.752   3.341   0.795  0.2776 -1.6009  1.0791
  288MOL0     H38826   2.836   3.404   0.940 -0.5718 -2.4117  0.4335
  288MOL0     H38827   2.973   3.574   0.761 -1.2246  2.2782  0.4588
  288MOL0     H38828   2.855   3.511   0.646  0.2368  1.1879 -0.0932
  288MOL0     H38829   2.691   3.597   0.781  2.7056 -4.3488 -1.4083
  288MOL0     H38830   2.797   3.717   0.715  0.4488 -0.0537 -0.8521
  288MOL0     H38831   2.750   3.537   1.071 -2.9483  0.8929  0.5962
  288MOL0     H38832   2.773   3.635   1.312  1.2336 -1.0619 -4.3205
  288MOL0     H38833   2.804   3.808   1.332  1.7654 -0.6154 -1.3235
  288MOL0     H38834   2.544   3.658   1.257 -0.4503 -0.0744  0.0818
  288MOL0     H38835   2.552   3.832   1.306  0.7969 -0.1499 -0.2468
  288MOL0     H38836   2.578   3.781   1.535 -2.0702  1.8067 -2.0352
  288MOL0     H38837   2.628   3.614   1.497  0.4202  0.2488  1.6299
  288MOL0     H38838   2.345   3.702   1.427 -1.1876 -1.9108  0.4210
  288MOL0     H38839   2.389   3.676   1.602  0.2430 -2.8958  0.5193
  288MOL0     H38840   2.382   3.274   1.492  0.9021  0.9294  0.3192
  288MOL0     H38841   2.135   3.059   1.448 -4.3863  0.5692  1.8684
  288MOL0     H38842   2.296   3.084   1.539 -0.4163 -0.3690 -0.9732
  288MOL0     H38843   2.154   3.053   1.631  0.2036  0.8743  0.4373
  288MOL0     H38844   1.902   2.878   1.476 -0.0752 -1.2956 -0.5755
  288MOL0     H38845   1.716   2.722   1.463 -1.3059 -0.9995 -0.2635
  288MOL0     H38846   1.516   2.649   1.379  2.0107 -0.8862 -0.2409
  288MOL0     H38847   1.523   2.571   1.533  1.4644  0.3362 -1.1156
  288MOL0     H38848   1.276   2.566   1.554 -3.8020  0.9978 -2.1150
  288MOL0     H38849   1.275   2.663   1.404 -0.9462 -1.3910 -1.6818
  288MOL0     H38850   1.401   2.465   1.300  1.4857 -0.2563  1.8237
  288MOL0     H38851   1.238   2.432   1.354  0.0008 -3.3998  1.3730
  288MOL0     H38852   1.492   2.342   1.517  0.7155 -0.5229 -2.3457
  288MOL0     H38853   1.325   2.329   1.571  2.0481  0.8599  1.7683
  288MOL0     H38854   1.423   2.216   1.310 -0.6240  1.4178 -1.1770
  288MOL0     H38855   1.269   2.194   1.374  0.6978 -1.7551 -0.9558
  288MOL0     H38856   1.488   2.120   1.560 -0.0053  1.5416 -0.9668
  288MOL0     H38857   1.335   2.044   1.549  0.8390  0.0367  1.8116
  288MOL0     H38858   1.548   1.915   1.478  2.1582  0.6838 -0.1835
  288MOL0     H38859   1.566   2.017   1.338 -2.8752  2.1004 -2.2236
  288MOL0     H38860   1.344   1.931   1.249 -3.6340 -2.8827  0.2555
  288MOL0     H38861   1.302   1.848   1.392 -2.2913 -1.1757 -2.5133
  288MOL0     H38862   1.473   2.999   1.670 -2.2581 -2.7404 -2.1608
  288MOL0     H38863   1.648   3.166   1.655  0.7250 -0.5933  0.4468
  288MOL0     H38864   1.953   3.505   1.571  1.1042  1.4388  1.4340
  288MOL0     H38865   2.159   3.630   1.530 -4.1223 -0.0877  2.3155
  288MOL0     H38866   3.582   3.074   0.608  0.7421  0.9628  1.3020
  288MOL0     H38867   3.812   2.991   0.547  0.6071 -0.5747 -0.3468
  288MOL0     H38868   4.189   2.965   0.349 -2.8886  1.4010 -0.9754
  288MOL0     H38869   4.413   2.913   0.226 -0.7861 -0.9416  2.2180
  288MOL0     H38870   4.549   2.786  -0.151  0.2933  1.5271 -1.7495
  288MOL0     H38871   4.376   2.755  -0.189 -0.5716 -0.3339 -0.7386
  288MOL0     H38872   4.477   3.042  -0.164  0.5572  0.7485 -0.0199
  288MOL0     H38873   4.343   2.991  -0.260  0.1175  0.7567  0.8542
  288MOL0     H38874   4.619   2.883  -0.317  0.1452  1.2595  2.5220
  288MOL0     H38875   4.569   3.042  -0.359  0.4803  0.1595  2.8652
  288MOL0     H38876   4.518   2.909  -0.562  0.1807 -1.6521 -0.6837
  288MOL0     H38877   4.356   2.921  -0.470 -0.0969 -0.4963  3.3373
  288MOL0     H38878   4.472   2.512  -0.461  0.1398  0.2534 -0.8888
  288MOL0     H38879   4.189   2.831  -0.126 -0.3685  0.2668  0.5689
  288MOL0     H38880   3.971   2.854   0.006 -0.7383 -1.3858  1.4107
  289MOL0     O38881   8.188   4.638   4.784  0.5311 -0.7911 -0.4276
  289MOL0     C38882   8.151   4.603   4.673  1.8081  0.1438  0.0530
  289MOL0     O38883   8.024   4.615   4.625  0.5895  0.2776 -0.8532
  289MOL0     C38884   7.925   4.651   4.713  0.5292  0.3369  0.1658
  289MOL0     C38885   7.830   4.737   4.666 -0.4111 -0.3410  0.6891
  289MOL0     C38886   7.719   4.774   4.739  0.0460 -0.4158 -0.7292
  289MOL0     C38887   7.689   4.706   4.861 -0.3930  0.1336  0.6613
  289MOL0     O38888   7.578   4.748   4.923  0.2384  1.0128 -0.2647
  289MOL0     C38889   7.513   4.652   5.011 -0.9416 -0.0416 -1.3116
  289MOL0     C38890   7.382   4.712   5.048  0.8151 -0.1600 -0.7464
  289MOL0     C38891   7.268   4.666   4.950  0.4013  0.2502 -0.5728
  289MOL0     C38892   7.139   4.752   4.966  0.7316 -0.3805  0.2193
  289MOL0     C38893   7.033   4.727   4.858 -0.7468  1.0987 -0.3468
  289MOL0     C38894   6.904   4.811   4.890  0.4187  0.1713 -0.7406
  289MOL0     C38895   6.802   4.802   4.778  1.4706 -0.1875  0.2182
  289MOL0     C38896   6.832   4.870   4.638 -0.6864 -0.1266 -0.2765
  289MOL0     N38897   6.716   4.923   4.567 -0.1626  0.2630 -0.2454
  289MOL0     C38898   6.588   4.884   4.536  0.8171 -0.3516  0.0239
  289MOL0     C38899   6.554   4.956   4.423  0.8967  0.9251 -0.2871
  289MOL0     C38900   6.414   4.952   4.360  0.1890  1.0919  0.1910
  289MOL0     C38901   6.346   4.817   4.340  0.3805  0.3857  1.0576
  289MOL0     C38902   6.213   4.831   4.255 -0.2968 -0.9362  0.4518
  289MOL0     C38903   6.108   4.916   4.325 -0.0552 -0.3595  0.2218
  289MOL0     O38904   5.997   4.922   4.230  0.1824  0.9099 -0.7653
  289MOL0     C38905   5.872   4.930   4.289 -0.2947 -0.8784 -0.2128
  289MOL0     C38906   5.802   5.055   4.306 -0.3419  0.2404 -0.1769
  289MOL0     C38907   5.668   5.060   4.360 -1.6273 -0.2633  0.0727
  289MOL0     C38908   5.610   5.201   4.386 -0.9724  0.1603  0.0832
  289MOL0     C38909   5.597   4.940   4.396  0.3426  0.8215 -0.1304
  289MOL0     C38910   5.464   4.950   4.453 -0.6143  0.1218 -0.1278
  289MOL0     O38911   5.438   4.907   4.578  0.0753  0.4578 -0.1970
  289MOL0     C38912   5.539   4.905   4.675 -0.4611 -0.9709 -0.5398
  289MOL0     C38913   5.582   4.780   4.722 -0.8926 -0.3987 -0.6937
  289MOL0     C38914   5.661   4.768   4.837 -0.7813  0.7588  0.1703
  289MOL0     C38915   5.718   4.885   4.893 -0.1717 -0.0700  0.4372
  289MOL0     O38916   5.791   4.881   5.009 -0.2114 -0.3917  0.1983
  289MOL0     C38917   5.895   4.785   5.012 -0.2448  0.0394 -0.0919
  289MOL0     C38918   5.903   4.726   5.153  0.6680 -0.4878 -0.8747
  289MOL0     C38919   6.034   4.659   5.167  0.9729  0.5158 -0.0493
  289MOL0     C38920   6.056   4.632   5.314  0.9967  0.7180  1.4071
  289MOL0     C38921   6.186   4.557   5.337  1.0206  0.8254  0.5293
  289MOL0     C38922   6.217   4.548   5.492  0.4681  0.0773  1.4261
  289MOL0     C38923   6.135   4.432   5.570 -0.8018  1.1646  0.1959
  289MOL0     C38924   6.192   4.285   5.560 -0.7699 -0.6415 -0.9666
  289MOL0    Cl38925   6.148   4.207   5.412  0.4082  0.2819  0.3335
  289MOL0     C38926   5.675   5.006   4.841 -0.1863 -0.2491  0.0729
  289MOL0     C38927   5.588   5.016   4.732 -0.8221  0.2077 -0.2197
  289MOL0     O38928   5.380   5.000   4.376 -0.3129  0.1164  0.2644
  289MOL0     C38929   5.669   4.819   4.366  0.2168  0.3114  0.3916
  289MOL0     C38930   5.801   4.815   4.312  0.2764 -1.3426 -0.1672
  289MOL0     N38931   6.662   5.038   4.383  0.1732 -0.2102 -0.4684
  289MOL0     N38932   6.758   5.011   4.472  0.6477  0.0299  0.5344
  289MOL0     C38933   7.780   4.623   4.910 -0.7920 -0.3895 -0.6854
  289MOL0     C38934   7.900   4.593   4.837  0.0192  0.1218 -0.0746
  289MOL0     C38935   8.252   4.556   4.586  0.1453  0.8365  0.1967
  289MOL0     C38936   8.212   4.505   4.461  0.2349 -0.3774 -0.8063
  289MOL0     C38937   8.306   4.473   4.364  1.2629  0.1535 -0.9742
  289MOL0     C38938   8.442   4.476   4.388  0.2800  0.9503 -1.2770
  289MOL0     O38939   8.539   4.460   4.289  0.6585 -0.3363  0.2599
  289MOL0     C38940   8.559   4.579   4.211 -0.0071  0.5955 -0.2608
  289MOL0     C38941   8.624   4.693   4.292  1.0908  0.2088 -0.3509
  289MOL0     C38942   8.760   4.663   4.348  0.5368  0.7015  0.3060
  289MOL0     C38943   8.798   4.766   4.457 -1.1928  0.1471  0.4540
  289MOL0     C38944   8.699   4.784   4.569 -0.3688  0.5242 -0.0789
  289MOL0     C38945   8.620   4.790   4.656 -0.3675  0.2789 -0.0987
  289MOL0     C38946   8.474   4.492   4.525 -0.0234 -0.3255 -1.3658
  289MOL0     C38947   8.383   4.535   4.626 -0.1347 -0.2134  0.5668
  289MOL0     H38948   7.868   4.793   4.581  1.8066 -0.2922  1.6543
  289MOL0     H38949   7.662   4.861   4.710 -0.9299  0.1114  2.3397
  289MOL0     H38950   7.516   4.558   4.956  1.2190 -2.3104  2.2906
  289MOL0     H38951   7.562   4.626   5.105 -3.8771 -1.0775  0.0487
  289MOL0     H38952   7.344   4.683   5.146  2.6928 -2.4879 -0.6151
  289MOL0     H38953   7.385   4.821   5.056 -0.0769 -0.2412  1.1680
  289MOL0     H38954   7.307   4.694   4.852 -2.0041  3.3655 -0.8031
  289MOL0     H38955   7.231   4.564   4.960  1.4047  0.0022  0.8663
  289MOL0     H38956   7.094   4.737   5.065  0.5276 -4.6720 -0.3256
  289MOL0     H38957   7.176   4.854   4.950  4.5328 -2.0207 -3.0306
  289MOL0     H38958   7.072   4.744   4.758 -4.2144  3.8859 -1.4523
  289MOL0     H38959   7.004   4.622   4.855 -2.5635  1.5513 -0.1242
  289MOL0     H38960   6.864   4.785   4.989  2.0781  1.1532  0.2381
  289MOL0     H38961   6.926   4.918   4.883 -3.0894  1.5290  3.7788
  289MOL0     H38962   6.753   4.704   4.769 -0.9338  1.1311 -2.6409
  289MOL0     H38963   6.718   4.862   4.813 -1.2135 -1.9568 -2.6769
  289MOL0     H38964   6.883   4.802   4.569  3.7901  4.1261 -1.7483
  289MOL0     H38965   6.892   4.960   4.652  1.1939 -1.6472  2.6180
  289MOL0     H38966   6.532   4.798   4.570 -2.7986  0.8909 -2.2036
  289MOL0     H38967   6.340   5.005   4.420 -2.4970 -0.3504 -1.6394
  289MOL0     H38968   6.431   4.992   4.259  1.2434 -2.7453 -1.3077
  289MOL0     H38969   6.322   4.762   4.431 -4.4734 -0.9114 -0.7216
  289MOL0     H38970   6.416   4.746   4.295  2.4847  1.0551  3.0339
  289MOL0     H38971   6.175   4.735   4.220  0.1879 -0.4415 -1.5734
  289MOL0     H38972   6.234   4.886   4.163  1.0920 -2.0049  0.1026
  289MOL0     H38973   6.130   5.023   4.319 -0.8038 -0.2774 -3.4894
  289MOL0     H38974   6.082   4.896   4.430 -1.8003  3.0939  0.5929
  289MOL0     H38975   5.855   5.147   4.283  1.0428 -0.0901  1.4321
  289MOL0     H38976   5.553   5.225   4.296 -0.0519 -3.1373 -1.5700
  289MOL0     H38977   5.532   5.201   4.462 -1.2162  1.5437 -0.1443
  289MOL0     H38978   5.677   5.285   4.408  1.6228 -1.8966  0.6149
  289MOL0     H38979   5.526   4.697   4.683  0.5686 -0.2362 -3.3734
  289MOL0     H38980   5.682   4.666   4.864 -0.6803  0.9124  0.6737
  289MOL0     H38981   5.883   4.709   4.935 -1.4935  0.3592 -0.2403
  289MOL0     H38982   5.984   4.847   4.996 -0.1736  0.4435  1.6258
  289MOL0     H38983   5.882   4.795   5.235 -0.4780 -1.2961 -0.4587
  289MOL0     H38984   5.824   4.651   5.162 -0.8659  1.2698  1.1679
  289MOL0     H38985   6.110   4.727   5.127 -0.2328  3.7001  2.5531
  289MOL0     H38986   6.022   4.568   5.108  0.5384  0.6705 -0.2040
  289MOL0     H38987   6.074   4.733   5.352  1.8419  0.9595  0.4202
  289MOL0     H38988   5.972   4.578   5.359  1.1935  1.8232  3.2210
  289MOL0     H38989   6.273   4.601   5.288 -0.5112  1.7898 -1.4749
  289MOL0     H38990   6.168   4.459   5.293 -2.1193  0.5826  2.0675
  289MOL0     H38991   6.324   4.544   5.514  0.7022  3.5612  1.5067
  289MOL0     H38992   6.174   4.640   5.534 -1.6343 -1.6379  3.2804
  289MOL0     H38993   6.033   4.437   5.531  0.6164  3.4014 -3.8080
  289MOL0     H38994   6.127   4.466   5.673 -1.3782  1.7305 -0.0311
  289MOL0     H38995   6.161   4.218   5.640  0.4452 -0.7423 -0.5713
  289MOL0     H38996   6.300   4.282   5.572 -1.0121  1.2316  3.2330
  289MOL0     H38997   5.709   5.102   4.882  0.5542  0.7151 -2.5886
  289MOL0     H38998   5.552   5.115   4.708 -1.3313  0.6727  2.1537
  289MOL0     H38999   5.625   4.724   4.397 -0.0601  0.4433  0.4073
  289MOL0     H39000   5.853   4.722   4.290 -0.4340 -1.5181 -1.1626
  289MOL0     H39001   7.775   4.583   5.011  1.9186  0.4381 -0.1163
  289MOL0     H39002   7.985   4.536   4.873  1.7310  2.0252 -0.9294
  289MOL0     H39003   8.112   4.505   4.418  0.8424  1.5475 -2.3816
  289MOL0     H39004   8.258   4.474   4.267 -2.4711  1.7024  0.6671
  289MOL0     H39005   8.624   4.550   4.128  3.8836  1.7010  2.1397
  289MOL0     H39006   8.466   4.610   4.162  1.2590  3.4332 -1.0836
  289MOL0     H39007   8.551   4.707   4.373 -0.5211 -2.2976 -1.2545
  289MOL0     H39008   8.626   4.774   4.219 -2.0444 -1.5120 -2.5883
  289MOL0     H39009   8.832   4.676   4.267  1.6772 -0.3851  1.1015
  289MOL0     H39010   8.766   4.568   4.403  0.0901  1.0654  1.0042
  289MOL0     H39011   8.819   4.859   4.404  1.7622 -2.1664 -2.8478
  289MOL0     H39012   8.886   4.729   4.511 -1.4948  0.2652  1.0403
  289MOL0     H39013   8.540   4.781   4.726  1.5208 -0.2669  2.0894
  289MOL0     H39014   8.579   4.477   4.550 -0.6917 -0.7842  1.4495
  289MOL0     H39015   8.431   4.567   4.718  1.3882 -1.4610  0.2642
  290MOL0     O39016   2.610   1.788   3.136 -0.4708  0.0507 -0.5282
  290MOL0     C39017   2.731   1.801   3.111  1.4162 -0.3052 -0.0486
  290MOL0     O39018   2.828   1.766   3.199  1.0256 -0.0582 -0.3623
  290MOL0     C39019   2.784   1.720   3.315 -0.3462  1.4873  0.1317
  290MOL0     C39020   2.744   1.800   3.418  0.7772  0.7874 -0.6659
  290MOL0     C39021   2.710   1.754   3.545  0.9966 -0.1028  0.2729
  290MOL0     C39022   2.720   1.612   3.565  0.7080  0.3971  0.0446
  290MOL0     O39023   2.680   1.554   3.682 -0.1803 -0.9763  0.3885
  290MOL0     C39024   2.623   1.628   3.793  1.3559  0.3459  1.4854
  290MOL0     C39025   2.471   1.651   3.779  0.4028  1.3401  0.4969
  290MOL0     C39026   2.396   1.673   3.910 -0.4873  0.7916 -0.5803
  290MOL0     C39027   2.421   1.815   3.970  0.4742  0.0513 -0.0345
  290MOL0     C39028   2.329   1.824   4.097  0.2302  0.5141 -0.9649
  290MOL0     C39029   2.377   1.952   4.176 -0.1432  0.2776 -1.2615
  290MOL0     C39030   2.284   2.011   4.283 -0.7295 -0.8592  0.7458
  290MOL0     C39031   2.261   1.905   4.382 -0.1942  0.2546 -0.5978
  290MOL0     N39032   2.170   1.950   4.488 -0.2184  0.2243  0.0942
  290MOL0     C39033   2.218   2.034   4.585 -0.0833 -0.0866 -0.0367
  290MOL0     C39034   2.104   2.055   4.661 -0.5562 -0.3650 -1.0338
  290MOL0     C39035   2.105   2.148   4.780  1.3983 -1.4451  0.0374
  290MOL0     C39036   1.992   2.250   4.762 -0.1929  0.7505 -0.2876
  290MOL0     C39037   1.962   2.350   4.876 -0.2526 -0.3329 -0.6406
  290MOL0     C39038   2.059   2.467   4.849 -0.5385 -0.5921 -0.3940
  290MOL0     O39039   2.192   2.443   4.903 -0.2836 -0.2172  0.2906
  290MOL0     C39040   2.283   2.541   4.919 -0.0723 -0.0543 -0.3408
  290MOL0     C39041   2.406   2.504   4.967  0.1495 -0.0948 -0.2507
  290MOL0     C39042   2.517   2.582   4.970 -0.4317 -0.5199 -0.5294
  290MOL0     C39043   2.655   2.524   5.021  0.0074  0.3260 -0.5058
  290MOL0     C39044   2.511   2.714   4.921  0.7235 -0.9557 -0.0918
  290MOL0     C39045   2.618   2.813   4.902  0.1440 -0.0487  0.1994
  290MOL0     O39046   2.729   2.794   4.979  0.7507  0.1082 -0.0291
  290MOL0     C39047   2.842   2.850   4.927 -0.2914 -0.0979  0.0662
  290MOL0     C39048   2.855   2.985   4.914  0.0893 -0.2529  0.3981
  290MOL0     C39049   2.970   3.044   4.860 -0.1757  0.2033 -0.9622
  290MOL0     C39050   3.084   2.959   4.840 -0.0964 -0.1359 -0.3758
  290MOL0     O39051   3.195   3.015   4.791 -0.8966 -0.3006  0.6633
  290MOL0     C39052   3.306   2.932   4.742  0.2632  0.6297 -0.5275
  290MOL0     C39053   3.417   3.036   4.706 -0.2738 -0.9235  0.3205
  290MOL0     C39054   3.537   2.958   4.682  0.0546  0.4673 -0.0677
  290MOL0     C39055   3.653   3.049   4.651 -0.5679 -0.6619  0.5452
  290MOL0     C39056   3.797   2.988   4.656  0.7805 -1.0382  0.1060
  290MOL0     C39057   3.901   3.084   4.590  0.6877 -0.3949 -0.3963
  290MOL0     C39058   4.031   3.011   4.572 -0.4292  1.0554 -0.3233
  290MOL0     C39059   4.121   3.085   4.471  0.2043  0.2806  0.0363
  290MOL0    Cl39060   4.298   3.057   4.518 -0.0018 -0.1339 -0.1632
  290MOL0     C39061   3.070   2.817   4.863  0.5173 -0.6652 -0.5742
  290MOL0     C39062   2.946   2.771   4.907 -0.3399 -0.4561 -0.1653
  290MOL0     O39063   2.606   2.888   4.801  0.2941  0.3593 -0.4962
  290MOL0     C39064   2.386   2.755   4.870  0.8892 -0.7061 -0.1820
  290MOL0     C39065   2.272   2.670   4.868 -0.7005 -0.0611 -0.8920
  290MOL0     N39066   1.997   1.983   4.611 -1.1489  0.7196  0.0435
  290MOL0     N39067   2.035   1.931   4.501 -0.0711  0.2943  0.8231
  290MOL0     C39068   2.763   1.527   3.466  0.1652  0.8713  1.1106
  290MOL0     C39069   2.804   1.580   3.344  0.6480 -0.0783 -0.3217
  290MOL0     C39070   2.779   1.858   2.978  0.3407 -0.3317 -0.2275
  290MOL0     C39071   2.681   1.906   2.885  0.6437  0.2753  0.0226
  290MOL0     C39072   2.727   1.943   2.754  0.0421 -0.1754  0.6287
  290MOL0     C39073   2.868   1.947   2.723  0.4208  1.4528 -0.0984
  290MOL0     O39074   2.932   1.979   2.609 -0.7045  0.0093  0.2212
  290MOL0     C39075   2.836   2.039   2.512  0.5139 -1.1705 -0.6079
  290MOL0     C39076   2.910   2.055   2.375  0.6702 -0.1506  0.4279
  290MOL0     C39077   2.820   2.055   2.255  0.3187 -0.2745 -1.0669
  290MOL0     C39078   2.910   2.047   2.135 -0.0754 -0.1225 -0.3755
  290MOL0     C39079   2.829   2.102   2.024  0.1878  0.8842  0.1623
  290MOL0     C39080   2.764   2.156   1.938  0.7262 -0.6955 -0.0552
  290MOL0     C39081   2.954   1.900   2.811  0.5300 -0.4776 -0.0708
  290MOL0     C39082   2.912   1.852   2.940 -0.1460 -0.4544  0.4535
  290MOL0     H39083   2.726   1.904   3.396 -1.6696  0.2516 -1.5649
  290MOL0     H39084   2.671   1.827   3.616 -3.1854  0.0995 -1.8830
  290MOL0     H39085   2.641   1.557   3.874 -0.4290 -3.8214 -1.4135
  290MOL0     H39086   2.664   1.723   3.827  1.1102 -0.0035  2.8106
  290MOL0     H39087   2.452   1.740   3.720  0.2596  0.9448 -0.0610
  290MOL0     H39088   2.421   1.559   3.748  0.3724  0.1041  3.7569
  290MOL0     H39089   2.289   1.667   3.886 -1.0152  1.1389  1.4864
  290MOL0     H39090   2.415   1.592   3.980 -2.2204  0.0338 -0.9277
  290MOL0     H39091   2.525   1.822   4.001  0.8968  0.3848 -1.4619
  290MOL0     H39092   2.399   1.903   3.908 -0.0309  1.5005  2.0488
  290MOL0     H39093   2.226   1.843   4.066 -2.3889 -1.7562  4.9320
  290MOL0     H39094   2.343   1.732   4.154  1.2357  0.1790 -1.7209
  290MOL0     H39095   2.465   1.925   4.234 -0.5280  2.3786  0.4320
  290MOL0     H39096   2.406   2.037   4.114  1.1157  1.2582  0.5953
  290MOL0     H39097   2.319   2.104   4.329 -2.7065  0.1433  0.3279
  290MOL0     H39098   2.181   2.024   4.246 -1.5753  0.5483  3.3809
  290MOL0     H39099   2.356   1.891   4.434 -0.7831  0.2483  0.4974
  290MOL0     H39100   2.228   1.807   4.345  1.7228 -0.0254 -1.7150
  290MOL0     H39101   2.322   2.060   4.604  0.2245 -1.8340  0.8406
  290MOL0     H39102   2.089   2.097   4.875  0.1725 -2.9332 -0.9057
  290MOL0     H39103   2.199   2.205   4.777 -0.2105  1.3266 -1.7114
  290MOL0     H39104   1.911   2.179   4.746  2.6948 -2.9340  0.1652
  290MOL0     H39105   2.001   2.311   4.671 -1.0993  1.6219  0.1754
  290MOL0     H39106   1.986   2.298   4.969 -1.8460  1.1397  0.6437
  290MOL0     H39107   1.859   2.386   4.878  0.2959  1.2660 -0.1613
  290MOL0     H39108   2.019   2.552   4.906 -0.1763  0.6955 -1.9863
  290MOL0     H39109   2.058   2.501   4.745  2.7308  2.9135  0.5132
  290MOL0     H39110   2.418   2.403   5.006 -2.6485  1.1382  4.6940
  290MOL0     H39111   2.721   2.520   4.933 -0.2598 -0.4378 -0.6809
  290MOL0     H39112   2.696   2.574   5.109  0.5337  0.5663 -0.8831
  290MOL0     H39113   2.641   2.422   5.057  1.5935  0.1322 -0.3898
  290MOL0     H39114   2.763   3.038   4.936 -0.4198 -1.1540  0.4914
  290MOL0     H39115   2.973   3.151   4.843 -1.0120  0.9796  2.9102
  290MOL0     H39116   3.350   2.868   4.819 -0.3246 -2.7609 -2.7967
  290MOL0     H39117   3.278   2.880   4.650 -0.1280  2.1563 -1.3208
  290MOL0     H39118   3.391   3.089   4.614  2.5940 -0.3543 -0.2782
  290MOL0     H39119   3.429   3.110   4.786 -0.9534 -0.4871  0.0273
  290MOL0     H39120   3.533   2.890   4.597 -0.0144 -0.6142  0.7704
  290MOL0     H39121   3.561   2.895   4.769 -1.3963 -1.3659 -0.9234
  290MOL0     H39122   3.645   3.074   4.545  0.4664  1.2622  0.8819
  290MOL0     H39123   3.646   3.133   4.721  0.6956  0.5613 -0.7194
  290MOL0     H39124   3.794   2.893   4.602 -0.8667  0.9488 -3.6996
  290MOL0     H39125   3.823   2.966   4.760  4.0426  0.3024 -0.2913
  290MOL0     H39126   3.875   3.139   4.499  0.8149  0.6540  0.1918
  290MOL0     H39127   3.911   3.160   4.667  0.9641 -0.0537 -0.7667
  290MOL0     H39128   4.021   2.907   4.540  2.6438  0.0986  1.3898
  290MOL0     H39129   4.083   3.008   4.668 -0.7962  0.9041 -0.1334
  290MOL0     H39130   4.106   3.193   4.471  2.1142  0.5978 -1.4295
  290MOL0     H39131   4.097   3.039   4.375  0.7474 -3.4477  1.5089
  290MOL0     H39132   3.152   2.746   4.867  0.2567 -1.1617 -2.6590
  290MOL0     H39133   2.930   2.665   4.919 -2.0311 -0.1622  0.4698
  290MOL0     H39134   2.366   2.853   4.828  0.6308  1.1165  3.7026
  290MOL0     H39135   2.176   2.716   4.842 -0.7045  1.7494  1.9382
  290MOL0     H39136   2.771   1.420   3.484  1.0192  0.6411 -0.4518
  290MOL0     H39137   2.856   1.519   3.271 -2.6651 -0.9841 -2.0949
  290MOL0     H39138   2.577   1.904   2.918  0.8665  2.2840  0.9547
  290MOL0     H39139   2.650   1.972   2.684 -1.2184  0.8205  2.3610
  290MOL0     H39140   2.747   1.975   2.500  1.9302 -2.9155 -2.4615
  290MOL0     H39141   2.816   2.140   2.548 -1.9593 -1.4684 -0.9625
  290MOL0     H39142   2.988   1.979   2.364  0.9820 -0.1731  2.4107
  290MOL0     H39143   2.966   2.149   2.380 -0.7489  0.6517  2.1710
  290MOL0     H39144   2.792   2.160   2.268  1.2023  0.1949 -2.6873
  290MOL0     H39145   2.731   1.993   2.261  1.6504 -2.1664  0.1269
  290MOL0     H39146   2.920   1.940   2.113 -1.0643 -0.6838  1.6567
  290MOL0     H39147   3.008   2.095   2.144  0.7022 -0.8142 -3.6739
  290MOL0     H39148   2.701   2.199   1.863  3.9431 -0.1064 -2.6239
  290MOL0     H39149   3.059   1.885   2.786  0.2014  0.1772 -1.9701
  290MOL0     H39150   2.977   1.805   3.012 -0.5357  0.5384  1.4836
  291MOL0     O39151   2.742   7.299  11.456  0.2493 -0.6267  0.8050
  291MOL0     C39152   2.665   7.315  11.552 -1.2080  0.3945 -0.8588
  291MOL0     O39153   2.701   7.312  11.684  0.0806 -0.3256 -0.4178
  291MOL0     C39154   2.832   7.300  11.720 -0.5802 -0.4515 -0.1004
  291MOL0     C39155   2.891   7.179  11.766  0.0328  1.1317 -0.5999
  291MOL0     C39156   3.025   7.170  11.805 -0.4298  0.7449  0.2427
  291MOL0     C39157   3.106   7.278  11.787 -0.3189  0.9402 -0.6615
  291MOL0     O39158   3.234   7.272  11.821  0.5778 -0.3183  0.6062
  291MOL0     C39159   3.319   7.298  11.709  0.3549 -0.2898 -0.3151
  291MOL0     C39160   3.436   7.400  11.753  0.0666  0.3233 -0.0854
  291MOL0     C39161   3.576   7.358  11.705 -0.0736 -0.0698 -0.3052
  291MOL0     C39162   3.674   7.402  11.806  0.0493  0.0152 -1.2263
  291MOL0     C39163   3.824   7.393  11.772 -0.0228 -0.7030  0.8411
  291MOL0     C39164   3.876   7.247  11.786  0.4854 -1.2121 -0.0868
  291MOL0     C39165   4.024   7.244  11.787  0.1509  0.4601  0.6860
  291MOL0     C39166   4.087   7.307  11.657  0.8940 -0.2155 -0.9838
  291MOL0     N39167   4.217   7.248  11.633 -0.2376 -0.4630  1.2249
  291MOL0     C39168   4.339   7.305  11.653 -0.3734  0.8077 -0.0068
  291MOL0     C39169   4.437   7.223  11.585  0.3928  0.6242 -0.7222
  291MOL0     C39170   4.585   7.245  11.588  0.4302  0.7341  0.0526
  291MOL0     C39171   4.630   7.349  11.486 -0.3588 -0.6982  0.0348
  291MOL0     C39172   4.634   7.292  11.345 -1.1870  0.3395 -0.2173
  291MOL0     C39173   4.752   7.200  11.330  0.0677  0.2322 -0.1392
  291MOL0     O39174   4.768   7.162  11.193 -1.0420  0.4692  0.3797
  291MOL0     C39175   4.835   7.052  11.158  1.2329  0.1033 -0.9171
  291MOL0     C39176   4.875   7.046  11.023 -0.0421 -0.2438  0.2166
  291MOL0     C39177   4.935   6.935  10.963  0.5033 -0.1878  0.1670
  291MOL0     C39178   4.949   6.950  10.812 -0.0721 -0.2932  0.2140
  291MOL0     C39179   4.974   6.826  11.041  0.0730  0.2768  0.9551
  291MOL0     C39180   5.046   6.699  10.999  0.5293  0.9809 -0.7519
  291MOL0     O39181   5.066   6.598  11.089 -1.0313  0.7066  0.3256
  291MOL0     C39182   5.126   6.485  11.046 -0.3742  0.0036  0.8575
  291MOL0     C39183   5.262   6.471  11.049 -0.1628 -0.4458 -0.6322
  291MOL0     C39184   5.319   6.358  11.003  0.0960  0.1167 -0.7242
  291MOL0     C39185   5.241   6.255  10.952 -0.1398  0.1035  0.7911
  291MOL0     O39186   5.309   6.134  10.912 -0.2029 -0.8045 -0.0311
  291MOL0     C39187   5.231   6.038  10.844 -0.5508 -0.0017  0.1838
  291MOL0     C39188   5.317   5.920  10.788  0.6507 -0.1005 -0.5039
  291MOL0     C39189   5.235   5.815  10.733  0.4212 -0.2654  0.7728
  291MOL0     C39190   5.310   5.694  10.676 -0.5177 -1.0785 -0.4986
  291MOL0     C39191   5.262   5.661  10.529  0.0426 -0.5530 -0.3121
  291MOL0     C39192   5.309   5.777  10.432  0.3139 -0.1755  0.3938
  291MOL0     C39193   5.189   5.817  10.349  0.4878 -0.1827  0.9970
  291MOL0     C39194   5.232   5.940  10.255 -0.4915  0.6202  0.6048
  291MOL0    Cl39195   5.314   5.878  10.100 -0.7066  0.0316  0.4470
  291MOL0     C39196   5.102   6.276  10.938 -0.8261  0.1933 -0.5798
  291MOL0     C39197   5.044   6.388  10.989 -0.4095  0.3040 -0.2560
  291MOL0     O39198   5.110   6.705  10.894  0.0550 -0.0346  0.2486
  291MOL0     C39199   4.934   6.831  11.173 -0.1992 -0.0259 -0.5178
  291MOL0     C39200   4.864   6.946  11.233 -0.2406  0.0942 -0.6444
  291MOL0     N39201   4.368   7.122  11.522  0.5755  0.3666 -0.7686
  291MOL0     N39202   4.245   7.133  11.561  0.8574 -0.8656  0.1320
  291MOL0     C39203   3.049   7.400  11.744 -0.2949  0.0886 -0.0062
  291MOL0     C39204   2.916   7.413  11.712 -0.2237  0.0738 -0.3520
  291MOL0     C39205   2.519   7.303  11.529  0.1471 -0.4316  1.5798
  291MOL0     C39206   2.426   7.293  11.621  0.3994 -0.3118 -1.0205
  291MOL0     C39207   2.292   7.319  11.594  0.4443 -0.2874 -0.3728
  291MOL0     C39208   2.244   7.355  11.468 -0.2923 -0.9099 -0.4527
  291MOL0     O39209   2.111   7.387  11.436 -0.5701  0.4641 -0.6922
  291MOL0     C39210   2.020   7.409  11.537 -0.2943 -0.1037  0.2780
  291MOL0     C39211   1.897   7.470  11.456 -0.2714 -0.3778 -1.0003
  291MOL0     C39212   1.912   7.619  11.398 -0.1691  0.0771  1.0186
  291MOL0     C39213   1.778   7.672  11.354  0.5488  0.7064 -0.5425
  291MOL0     C39214   1.740   7.615  11.229  0.4359 -0.1403  0.5207
  291MOL0     C39215   1.697   7.582  11.118 -0.6688  0.0493  0.4570
  291MOL0     C39216   2.335   7.334  11.364 -0.2836  0.2086 -0.2585
  291MOL0     C39217   2.470   7.325  11.396 -0.2665 -0.3289  0.3659
  291MOL0     H39218   2.827   7.094  11.787  1.1456  0.4575  0.1202
  291MOL0     H39219   3.063   7.080  11.853 -1.0466  0.4932  0.2785
  291MOL0     H39220   3.361   7.205  11.672 -0.3871 -0.3929 -0.9360
  291MOL0     H39221   3.273   7.335  11.617 -0.1385 -4.8043 -2.0978
  291MOL0     H39222   3.402   7.491  11.701  0.1653  1.7192  2.1527
  291MOL0     H39223   3.436   7.419  11.861  0.5255 -1.5443  0.2801
  291MOL0     H39224   3.596   7.251  11.691  0.8755  0.2039 -1.2487
  291MOL0     H39225   3.596   7.412  11.611 -1.7997  0.3716 -0.4571
  291MOL0     H39226   3.665   7.511  11.815  1.4182  0.0468  0.3764
  291MOL0     H39227   3.659   7.363  11.907  1.3283 -0.6840 -1.2788
  291MOL0     H39228   3.849   7.433  11.673  1.0937 -0.8953  1.0320
  291MOL0     H39229   3.878   7.458  11.841 -2.9458  3.3400 -0.3416
  291MOL0     H39230   3.830   7.207  11.876  0.4168  0.5967  0.7177
  291MOL0     H39231   3.842   7.193  11.697 -0.9685  1.7746 -1.4933
  291MOL0     H39232   4.059   7.303  11.872 -1.2440  1.3025  0.6990
  291MOL0     H39233   4.064   7.142  11.794  1.4588  0.8860 -0.1242
  291MOL0     H39234   4.111   7.413  11.672  0.5654 -0.4346  1.5470
  291MOL0     H39235   4.011   7.293  11.580  0.8974  1.3318 -1.2974
  291MOL0     H39236   4.367   7.396  11.705  2.5228 -0.4175  0.7498
  291MOL0     H39237   4.623   7.277  11.685 -1.9939  3.7136  0.1748
  291MOL0     H39238   4.624   7.145  11.567 -1.7137 -0.5692  1.7968
  291MOL0     H39239   4.725   7.395  11.514  0.2992 -2.4638  0.8348
  291MOL0     H39240   4.556   7.425  11.460  0.6216 -0.4204 -2.1588
  291MOL0     H39241   4.646   7.377  11.277  0.1774  0.0771 -0.3354
  291MOL0     H39242   4.542   7.239  11.320 -1.5568  0.4199  0.9271
  291MOL0     H39243   4.720   7.114  11.389 -1.3299 -0.1004 -1.3251
  291MOL0     H39244   4.848   7.244  11.362  0.7778 -0.9220 -0.6219
  291MOL0     H39245   4.856   7.133  10.962  0.1528  2.8631  4.1187
  291MOL0     H39246   4.915   6.863  10.755  1.6313 -1.2312  0.5599
  291MOL0     H39247   4.896   7.038  10.773  1.4115  0.8146  0.6138
  291MOL0     H39248   5.055   6.961  10.785 -1.0432  2.1674 -3.3765
  291MOL0     H39249   5.326   6.551  11.085 -0.5697  0.3834 -1.7047
  291MOL0     H39250   5.425   6.342  10.991  0.1839 -0.3129  0.4802
  291MOL0     H39251   5.155   5.992  10.909  3.0445 -3.2042  2.6186
  291MOL0     H39252   5.180   6.081  10.758  1.1401  1.2652 -0.2323
  291MOL0     H39253   5.373   5.964  10.705 -0.6912  1.1666 -0.7868
  291MOL0     H39254   5.383   5.888  10.870  2.9638 -0.1479 -2.2861
  291MOL0     H39255   5.178   5.858  10.650  0.0170 -3.6114 -0.8777
  291MOL0     H39256   5.170   5.779  10.813  1.0916 -0.9267  1.0328
  291MOL0     H39257   5.414   5.724  10.688 -1.0414  0.4477  0.4053
  291MOL0     H39258   5.276   5.619  10.747 -4.3259  1.7452  0.9828
  291MOL0     H39259   5.153   5.652  10.529 -0.0910  0.5104  1.8228
  291MOL0     H39260   5.294   5.559  10.507 -1.1384 -1.2071  0.8355
  291MOL0     H39261   5.333   5.870  10.484 -0.4142  0.4117 -0.3122
  291MOL0     H39262   5.394   5.739  10.375  0.5833 -1.9406  1.8666
  291MOL0     H39263   5.110   5.846  10.418 -0.4346 -0.5867  0.1283
  291MOL0     H39264   5.155   5.728  10.295 -0.1384 -1.6587  3.6747
  291MOL0     H39265   5.287   6.023  10.301 -1.4309  1.1432  0.8280
  291MOL0     H39266   5.141   5.996  10.230  0.8232  3.7408  2.2100
  291MOL0     H39267   5.021   6.212  10.907 -1.8705  0.7265  0.9225
  291MOL0     H39268   4.937   6.399  11.001 -0.7221 -0.0929 -2.2063
  291MOL0     H39269   4.954   6.745  11.236  0.1675 -0.8820 -1.7631
  291MOL0     H39270   4.823   6.940  11.334  1.1843 -0.3240 -0.0763
  291MOL0     H39271   3.115   7.485  11.735  0.1742 -0.4054 -1.7042
  291MOL0     H39272   2.870   7.509  11.692  2.3843  1.4296 -0.1652
  291MOL0     H39273   2.457   7.286  11.725  2.6160  1.4074 -1.4827
  291MOL0     H39274   2.226   7.344  11.676  0.7591  0.0850 -0.2289
  291MOL0     H39275   1.991   7.315  11.583 -0.3465 -0.8585 -1.2235
  291MOL0     H39276   2.057   7.480  11.611  3.7858 -0.1594 -1.4453
  291MOL0     H39277   1.813   7.474  11.525  0.7852  2.5013  0.3048
  291MOL0     H39278   1.873   7.399  11.375 -1.5403 -1.1127 -0.0159
  291MOL0     H39279   1.978   7.621  11.311  1.1282 -1.3109  1.9076
  291MOL0     H39280   1.941   7.687  11.478  0.4098  2.5912 -1.1779
  291MOL0     H39281   1.792   7.780  11.339 -2.5257  1.2411 -0.3401
  291MOL0     H39282   1.696   7.657  11.424  0.9574 -1.6599 -0.4930
  291MOL0     H39283   1.663   7.547  11.023 -1.5038  0.3415  0.6442
  291MOL0     H39284   2.309   7.345  11.260 -2.1388  0.7642  0.2301
  291MOL0     H39285   2.538   7.334  11.312  2.1956  1.1397  2.3601
  292MOL0     O39286   1.871   9.939   5.432  0.1058  0.4418  0.2309
  292MOL0     C39287   1.766   9.967   5.385 -0.3506 -0.9889 -0.1718
  292MOL0     O39288   1.741  10.033   5.273  0.2743  0.3212  0.7518
  292MOL0     C39289   1.844  10.041   5.182 -0.5765 -0.6430  0.3365
  292MOL0     C39290   1.830  10.001   5.048 -0.2914 -0.8941  0.3276
  292MOL0     C39291   1.941  10.004   4.957  0.5727  0.5276 -0.4134
  292MOL0     C39292   2.069  10.064   4.996  0.5778 -0.3912 -0.9495
  292MOL0     O39293   2.172  10.065   4.904  0.4595  0.6850 -0.5787
  292MOL0     C39294   2.309  10.089   4.950 -0.1024  0.7548  0.1206
  292MOL0     C39295   2.393  10.147   4.846 -0.0677  0.1374  0.3777
  292MOL0     C39296   2.372  10.070   4.710 -0.0061  0.0687 -0.4310
  292MOL0     C39297   2.320  10.165   4.588  0.6111  0.5292  0.5754
  292MOL0     C39298   2.314  10.090   4.457 -0.4247 -0.2228  0.6082
  292MOL0     C39299   2.444  10.112   4.387 -0.3628 -0.4259  0.1685
  292MOL0     C39300   2.445  10.040   4.251 -0.3817  0.0017  0.2435
  292MOL0     C39301   2.357  10.110   4.154  0.2429 -0.8527  0.4931
  292MOL0     N39302   2.299  10.034   4.036  0.8801  0.5320  0.4187
  292MOL0     C39303   2.332   9.905   3.998 -0.3874 -1.0191  0.4052
  292MOL0     C39304   2.285   9.891   3.871  1.3558  0.1083  0.3335
  292MOL0     C39305   2.309   9.770   3.791  0.7036  0.6059  0.2997
  292MOL0     C39306   2.370   9.793   3.645  0.4852  0.5045 -0.6501
  292MOL0     C39307   2.509   9.719   3.630  0.4365 -0.4008  0.1991
  292MOL0     C39308   2.548   9.757   3.486  0.0281 -0.9384 -0.2868
  292MOL0     O39309   2.476   9.689   3.388  0.1905 -0.2284  0.8073
  292MOL0     C39310   2.473   9.744   3.259 -0.8309 -0.2995 -0.7230
  292MOL0     C39311   2.568   9.839   3.219  0.0770 -0.2947  0.5516
  292MOL0     C39312   2.542   9.913   3.100  0.3662  0.8880  0.0379
  292MOL0     C39313   2.644  10.021   3.072 -0.2414  0.5716  0.4074
  292MOL0     C39314   2.430   9.874   3.013 -0.6359 -0.8498 -0.3618
  292MOL0     C39315   2.406   9.955   2.888  0.6064 -0.1780 -0.4225
  292MOL0     O39316   2.460   9.898   2.780 -0.5600 -0.2063  0.1135
  292MOL0     C39317   2.439   9.960   2.660  0.7946  0.7469  0.5458
  292MOL0     C39318   2.502  10.075   2.617 -0.4039  0.5446 -0.1251
  292MOL0     C39319   2.498  10.130   2.492  0.0607 -0.6129  0.1559
  292MOL0     C39320   2.413  10.064   2.400 -0.4447  0.0043 -0.7002
  292MOL0     O39321   2.395  10.119   2.273 -0.1353 -0.6175  0.3060
  292MOL0     C39322   2.497  10.217   2.226  0.9947 -0.4185  0.6095
  292MOL0     C39323   2.481  10.234   2.078 -0.2614  0.0013  0.4671
  292MOL0     C39324   2.613  10.228   1.991 -0.2135 -0.2260  0.9710
  292MOL0     C39325   2.709  10.352   2.014 -0.5795 -0.1006 -0.3434
  292MOL0     C39326   2.814  10.372   1.901 -0.1526 -0.3077  0.1327
  292MOL0     C39327   2.925  10.264   1.912  0.0073 -0.8598  0.2732
  292MOL0     C39328   2.997  10.265   1.782 -0.4560  1.2005 -0.5083
  292MOL0     C39329   3.123  10.176   1.787 -0.3059  0.6091 -0.3032
  292MOL0    Cl39330   3.201  10.176   1.631  0.1786  0.2532 -0.3279
  292MOL0     C39331   2.348   9.946   2.447 -0.0326 -0.2308 -0.6573
  292MOL0     C39332   2.370   9.889   2.573  1.2266 -0.3206 -0.3467
  292MOL0     O39333   2.359  10.066   2.893 -0.6422  0.2373 -0.0448
  292MOL0     C39334   2.363   9.758   3.049  0.7044  0.4881 -0.0139
  292MOL0     C39335   2.376   9.702   3.175 -0.7728  0.7628  0.3106
  292MOL0     N39336   2.205   9.997   3.843 -0.0226 -0.4885  0.4520
  292MOL0     N39337   2.216  10.083   3.938  0.2964 -0.5132  0.0509
  292MOL0     C39338   2.073  10.117   5.124 -0.7279 -0.2828  0.0120
  292MOL0     C39339   1.971  10.096   5.217  0.4693 -0.5414  0.4408
  292MOL0     C39340   1.651   9.928   5.471 -0.7654  0.0076 -0.6771
  292MOL0     C39341   1.534   9.897   5.411  0.9866 -1.1113 -0.4278
  292MOL0     C39342   1.443   9.823   5.491  0.3985  1.2299 -0.3644
  292MOL0     C39343   1.443   9.789   5.624 -0.9390 -0.4635 -0.3630
  292MOL0     O39344   1.349   9.710   5.686  0.8660  0.2851  0.3668
  292MOL0     C39345   1.266   9.792   5.769 -0.3178 -0.7868 -0.3118
  292MOL0     C39346   1.304   9.761   5.915  0.1692 -0.1522  1.0581
  292MOL0     C39347   1.232   9.861   6.016 -0.3864  0.6240 -0.0550
  292MOL0     C39348   1.082   9.849   6.015  0.2626 -0.2794 -0.8421
  292MOL0     C39349   1.041   9.717   6.050  0.5038  0.6364 -0.1438
  292MOL0     C39350   1.005   9.603   6.066 -0.8210  0.7261 -0.4239
  292MOL0     C39351   1.567   9.828   5.680 -0.2242  0.3953 -0.1582
  292MOL0     C39352   1.672   9.890   5.605 -0.2183  0.3021  0.6428
  292MOL0     H39353   1.733   9.964   5.018 -2.4627  3.6262  0.8165
  292MOL0     H39354   1.925   9.984   4.852  1.3388  0.4280 -0.5160
  292MOL0     H39355   2.313  10.150   5.041  0.2804  2.3625 -0.9316
  292MOL0     H39356   2.354   9.991   4.967  0.0611  0.4995 -1.6657
  292MOL0     H39357   2.358  10.249   4.827 -2.3078 -0.9726 -1.9447
  292MOL0     H39358   2.497  10.136   4.880 -0.0734 -4.9208 -0.4632
  292MOL0     H39359   2.472  10.029   4.691 -0.3241 -1.8941  1.7626
  292MOL0     H39360   2.300   9.988   4.713 -2.2350  1.9514  0.9016
  292MOL0     H39361   2.218  10.188   4.619 -0.6450 -0.6138 -2.3990
  292MOL0     H39362   2.376  10.258   4.585  2.2494 -0.4325 -0.0434
  292MOL0     H39363   2.296   9.982   4.464 -0.9231 -0.0796  1.6478
  292MOL0     H39364   2.232  10.135   4.400  0.0621 -0.5755 -0.3871
  292MOL0     H39365   2.459  10.220   4.380 -4.6726  0.5603  2.5358
  292MOL0     H39366   2.522  10.068   4.450 -0.9769 -0.2712  1.0531
  292MOL0     H39367   2.549  10.038   4.218 -0.3158  2.2585  0.1893
  292MOL0     H39368   2.422   9.934   4.268 -0.1247  0.0162  0.7193
  292MOL0     H39369   2.424  10.183   4.108  1.6554 -1.5861  1.3146
  292MOL0     H39370   2.274  10.169   4.194 -1.3759 -2.2495 -0.6376
  292MOL0     H39371   2.411   9.846   4.044  0.9580  1.2351  1.1582
  292MOL0     H39372   2.380   9.708   3.846  0.9515  1.9960  1.6143
  292MOL0     H39373   2.227   9.698   3.789  1.6668 -0.5293  0.8332
  292MOL0     H39374   2.380   9.901   3.633  1.7711  0.7154  1.7455
  292MOL0     H39375   2.302   9.765   3.564  0.2319  0.2534 -0.3523
  292MOL0     H39376   2.501   9.610   3.630  0.3569 -0.4014 -0.4232
  292MOL0     H39377   2.588   9.734   3.704  1.3527 -1.2441 -0.5688
  292MOL0     H39378   2.654   9.737   3.498  0.8248  2.6213 -0.0968
  292MOL0     H39379   2.534   9.866   3.484  0.5203 -0.8466  0.6564
  292MOL0     H39380   2.665   9.843   3.268  0.8714 -1.1054 -0.8866
  292MOL0     H39381   2.601  10.115   3.108 -0.5942  0.5876 -0.0572
  292MOL0     H39382   2.728  10.006   3.140  0.0655  1.7614  0.3044
  292MOL0     H39383   2.687  10.006   2.973  0.9912  1.7872  0.7340
  292MOL0     H39384   2.567  10.119   2.693  1.8344 -1.6203 -0.6426
  292MOL0     H39385   2.545  10.226   2.475  0.0319 -1.0654 -3.0959
  292MOL0     H39386   2.470  10.301   2.291 -3.5245 -1.6933  0.6711
  292MOL0     H39387   2.596  10.172   2.241  0.9688 -0.1798  1.5763
  292MOL0     H39388   2.428  10.146   2.041  0.4214  0.1136 -0.8624
  292MOL0     H39389   2.416  10.321   2.062 -0.7615 -0.6029 -0.9509
  292MOL0     H39390   2.583  10.218   1.887  0.8081  4.6088 -0.0216
  292MOL0     H39391   2.667  10.139   2.026  0.7620 -0.3236 -0.6885
  292MOL0     H39392   2.650  10.444   2.010  0.2497  0.4451 -4.6264
  292MOL0     H39393   2.758  10.335   2.111 -0.9632 -3.1902 -0.5977
  292MOL0     H39394   2.865  10.469   1.905  1.4009 -1.1134  0.8074
  292MOL0     H39395   2.757  10.385   1.808 -2.5286  1.5244  1.7179
  292MOL0     H39396   2.993  10.281   1.995 -2.2712 -0.0708  2.0936
  292MOL0     H39397   2.889  10.161   1.922  4.0493 -2.7370 -2.1365
  292MOL0     H39398   3.021  10.366   1.746  1.0281  1.0279 -0.0926
  292MOL0     H39399   2.927  10.231   1.706 -2.2625 -1.7818  2.2562
  292MOL0     H39400   3.096  10.071   1.804  2.4302 -0.4770 -1.9397
  292MOL0     H39401   3.201  10.209   1.856  1.1312  4.5355 -3.4528
  292MOL0     H39402   2.289   9.884   2.381  0.0067  1.0980 -1.9831
  292MOL0     H39403   2.308   9.807   2.608  0.7645 -0.1400 -0.7360
  292MOL0     H39404   2.286   9.726   2.981 -1.5493  1.4378  1.9521
  292MOL0     H39405   2.306   9.628   3.215  0.5106  0.0758  1.3694
  292MOL0     H39406   2.158  10.179   5.152 -1.4867  0.4096  0.8735
  292MOL0     H39407   1.984  10.155   5.307 -0.2350  3.1668 -1.6853
  292MOL0     H39408   1.520   9.913   5.305  0.6895 -1.7465 -0.4917
  292MOL0     H39409   1.355   9.783   5.441 -0.1113 -0.0474  1.4243
  292MOL0     H39410   1.280   9.898   5.744  2.1148 -0.9654 -0.0033
  292MOL0     H39411   1.159   9.785   5.752 -0.0834 -0.2616 -2.3029
  292MOL0     H39412   1.411   9.774   5.934  0.1877  1.3198  0.1306
  292MOL0     H39413   1.277   9.656   5.932 -1.6343  0.0654 -0.2032
  292MOL0     H39414   1.257   9.962   5.984 -0.8011  0.5742 -0.5692
  292MOL0     H39415   1.263   9.843   6.119 -0.7008 -0.1603 -0.0884
  292MOL0     H39416   1.037   9.883   5.921 -1.5345  1.9323  0.7011
  292MOL0     H39417   1.039   9.916   6.091  2.6253 -0.7750  1.0587
  292MOL0     H39418   0.966   9.507   6.095  0.7770  0.3774  0.6938
  292MOL0     H39419   1.583   9.779   5.776  1.2743 -3.7530 -2.2884
  292MOL0     H39420   1.766   9.903   5.658  0.6148 -2.9573  0.1891
  293MOL0     O39421   3.816   3.784   3.127 -0.0001 -0.3893 -0.4408
  293MOL0     C39422   3.889   3.720   3.057  0.1435 -0.1029  0.1258
  293MOL0     O39423   3.904   3.742   2.923 -0.3098  0.3045  0.0030
  293MOL0     C39424   3.858   3.853   2.856 -1.0322  0.8201  0.4161
  293MOL0     C39425   3.829   3.975   2.917  0.0665 -0.4881 -0.2685
  293MOL0     C39426   3.759   4.079   2.849  0.2017 -0.1084 -0.5235
  293MOL0     C39427   3.730   4.066   2.710  0.0628  0.6323 -0.4235
  293MOL0     O39428   3.661   4.152   2.624  0.5336  0.3074  1.0749
  293MOL0     C39429   3.667   4.295   2.647  0.6237 -0.3623  0.4959
  293MOL0     C39430   3.796   4.358   2.619  0.5756 -0.4031  0.3725
  293MOL0     C39431   3.835   4.342   2.477  0.2777  0.6370  0.4941
  293MOL0     C39432   3.775   4.429   2.373 -0.2487 -0.1857 -0.1935
  293MOL0     C39433   3.823   4.383   2.232 -0.2143 -0.3308 -0.4024
  293MOL0     C39434   3.976   4.379   2.218  0.6974  0.1940  0.1435
  293MOL0     C39435   4.008   4.362   2.076  0.3520 -0.0874 -0.4881
  293MOL0     C39436   4.143   4.298   2.044 -0.5910  0.7616  0.1046
  293MOL0     N39437   4.200   4.355   1.916 -0.7223  0.6792 -0.3832
  293MOL0     C39438   4.254   4.481   1.892  0.0008 -0.4661 -0.3809
  293MOL0     C39439   4.346   4.458   1.787  0.5627 -0.5280 -0.2842
  293MOL0     C39440   4.448   4.564   1.741  0.8285 -1.0932 -0.1480
  293MOL0     C39441   4.574   4.515   1.679 -0.5924  0.7004  0.3510
  293MOL0     C39442   4.656   4.622   1.600 -0.7906 -1.3484  0.0902
  293MOL0     C39443   4.616   4.614   1.459  0.3392  0.5892 -1.3299
  293MOL0     O39444   4.697   4.684   1.364  0.1521 -0.2620 -0.5957
  293MOL0     C39445   4.713   4.811   1.395 -0.6748  0.0336 -0.8249
  293MOL0     C39446   4.818   4.856   1.470 -0.2044 -0.7034 -0.7171
  293MOL0     C39447   4.844   4.990   1.478 -0.9898 -0.9244  0.4073
  293MOL0     C39448   4.978   5.015   1.536  0.5172 -0.4263  0.2498
  293MOL0     C39449   4.765   5.087   1.404 -0.8750 -0.4008 -0.9297
  293MOL0     C39450   4.797   5.229   1.396 -0.2273  0.7914 -0.1176
  293MOL0     O39451   4.710   5.300   1.317 -0.0135  0.2711 -0.3122
  293MOL0     C39452   4.741   5.416   1.258 -0.8558  0.8536  0.0548
  293MOL0     C39453   4.637   5.491   1.214  0.1977  0.5923  0.6029
  293MOL0     C39454   4.666   5.609   1.139  0.0471 -0.5689  0.9512
  293MOL0     C39455   4.796   5.650   1.112 -0.8760  1.2760 -0.1799
  293MOL0     O39456   4.818   5.768   1.044  0.2346  0.5467 -0.0756
  293MOL0     C39457   4.950   5.829   1.041  0.8567  0.3318  0.1237
  293MOL0     C39458   4.959   5.960   0.972  0.7095 -0.6872  0.6148
  293MOL0     C39459   4.890   6.073   1.046  0.2473 -0.5637 -0.5324
  293MOL0     C39460   4.909   6.210   0.969 -0.0586 -0.1190 -0.7220
  293MOL0     C39461   4.875   6.322   1.057 -0.4642 -0.2241  0.0070
  293MOL0     C39462   4.887   6.466   1.004 -0.5242  0.2464  0.7126
  293MOL0     C39463   4.808   6.485   0.875 -0.0835  0.3544 -0.1395
  293MOL0     C39464   4.837   6.620   0.820 -0.1923  0.1978 -0.9378
  293MOL0    Cl39465   4.743   6.626   0.674  0.0944 -0.3818 -0.1643
  293MOL0     C39466   4.905   5.572   1.154  0.2377 -0.2547 -0.2916
  293MOL0     C39467   4.876   5.454   1.220  0.2752 -0.0658 -0.6255
  293MOL0     O39468   4.896   5.280   1.453 -0.0066  0.2298  0.6595
  293MOL0     C39469   4.647   5.035   1.345  0.0276  0.5259 -0.2691
  293MOL0     C39470   4.629   4.900   1.341  0.7920  0.2235 -0.9951
  293MOL0     N39471   4.340   4.331   1.745 -0.5986 -0.2535  0.2799
  293MOL0     N39472   4.251   4.270   1.817  0.0742 -0.6221 -0.7871
  293MOL0     C39473   3.777   3.950   2.643  0.1690  0.4366 -0.9792
  293MOL0     C39474   3.824   3.838   2.722  0.5333  0.8472  0.0649
  293MOL0     C39475   3.961   3.605   3.112  0.0629 -0.4423 -0.1222
  293MOL0     C39476   3.942   3.566   3.243  0.4226  0.8445  0.0802
  293MOL0     C39477   4.008   3.447   3.290  0.0093  0.3483  0.2120
  293MOL0     C39478   4.088   3.367   3.203 -0.6601  0.0307 -0.8550
  293MOL0     O39479   4.162   3.248   3.234 -0.4920 -0.0998  0.3345
  293MOL0     C39480   4.155   3.203   3.364 -0.8531 -0.0340 -0.5527
  293MOL0     C39481   4.273   3.098   3.379 -0.8589  0.0871  0.4555
  293MOL0     C39482   4.250   2.963   3.308 -0.1099  0.2138 -0.9366
  293MOL0     C39483   4.362   2.860   3.340 -0.9916  0.7137  0.2288
  293MOL0     C39484   4.335   2.776   3.461 -0.9288 -0.3967  0.0853
  293MOL0     C39485   4.324   2.713   3.566 -0.2505 -0.1321  0.4466
  293MOL0     C39486   4.109   3.409   3.071  0.0031 -0.2799  0.7606
  293MOL0     C39487   4.041   3.527   3.026 -1.0948  0.0428  0.4038
  293MOL0     H39488   3.857   3.998   3.020  0.7872 -1.4731 -0.2317
  293MOL0     H39489   3.722   4.166   2.901 -2.4817 -1.0429 -0.7248
  293MOL0     H39490   3.600   4.343   2.576  1.5062 -3.1233 -2.4507
  293MOL0     H39491   3.632   4.326   2.746  2.5396  1.9471  0.5305
  293MOL0     H39492   3.791   4.460   2.659 -0.2819 -1.2066  2.4175
  293MOL0     H39493   3.875   4.315   2.682 -0.2076 -3.6375 -0.6715
  293MOL0     H39494   3.941   4.368   2.489  0.2866  0.6692  0.3386
  293MOL0     H39495   3.832   4.238   2.444  1.6076  0.5640  0.5539
  293MOL0     H39496   3.669   4.405   2.382  0.0872 -1.2716  1.5563
  293MOL0     H39497   3.806   4.530   2.398  0.3431 -0.9360  2.4596
  293MOL0     H39498   3.774   4.288   2.212  0.0666 -0.7590  0.8990
  293MOL0     H39499   3.783   4.461   2.165  1.1366 -0.9988 -2.0789
  293MOL0     H39500   4.018   4.464   2.273  2.2984 -0.5630  0.1615
  293MOL0     H39501   4.014   4.288   2.265  0.4296 -1.1584 -2.1515
  293MOL0     H39502   3.935   4.302   2.021 -0.6785  3.0195 -2.8246
  293MOL0     H39503   4.019   4.457   2.023  1.3068  0.5919  0.8786
  293MOL0     H39504   4.129   4.190   2.042 -0.9971  0.7308  2.2188
  293MOL0     H39505   4.216   4.318   2.123 -3.0127  1.2915  2.3487
  293MOL0     H39506   4.226   4.570   1.948 -3.0371 -0.5029 -1.6641
  293MOL0     H39507   4.402   4.622   1.660  0.6064  0.5170  1.0823
  293MOL0     H39508   4.490   4.627   1.819  1.5644 -3.0256  1.0694
  293MOL0     H39509   4.554   4.434   1.609  0.3039  0.7725 -0.0079
  293MOL0     H39510   4.642   4.472   1.753 -0.5301 -0.9571 -0.6135
  293MOL0     H39511   4.764   4.610   1.607 -0.0806  2.4436 -1.8677
  293MOL0     H39512   4.633   4.723   1.636  2.2905 -0.5625  0.1504
  293MOL0     H39513   4.518   4.661   1.462 -0.5404 -1.1492 -1.2923
  293MOL0     H39514   4.598   4.508   1.436  1.3749 -0.5506  2.4295
  293MOL0     H39515   4.882   4.789   1.527  0.3519 -0.0516 -0.5560
  293MOL0     H39516   5.024   4.925   1.579  0.2649 -0.0771  1.2913
  293MOL0     H39517   5.044   5.062   1.462 -1.1219  1.5526 -0.0498
  293MOL0     H39518   4.971   5.091   1.615 -0.5239  4.6472 -4.1217
  293MOL0     H39519   4.533   5.470   1.234 -0.9117  2.6011 -2.3603
  293MOL0     H39520   4.580   5.668   1.111  0.9915  0.3215 -0.1546
  293MOL0     H39521   4.987   5.825   1.143  2.0930  0.1323 -0.3139
  293MOL0     H39522   5.021   5.767   0.985 -0.5198 -1.3931  0.1823
  293MOL0     H39523   5.064   5.991   0.968  0.5058  0.0216 -3.0558
  293MOL0     H39524   4.932   5.943   0.867  1.3163 -2.1394  0.6740
  293MOL0     H39525   4.914   6.094   1.151 -1.0838  3.1215 -0.8061
  293MOL0     H39526   4.786   6.039   1.039 -0.6853  1.7785  0.6698
  293MOL0     H39527   5.014   6.230   0.943 -0.7367  0.6111 -3.2227
  293MOL0     H39528   4.854   6.219   0.875 -2.2750  3.5571  0.7232
  293MOL0     H39529   4.937   6.321   1.147 -0.7974  0.0558  0.2416
  293MOL0     H39530   4.778   6.302   1.104 -0.9172 -0.9399 -1.2059
  293MOL0     H39531   4.859   6.534   1.085 -1.3137  1.2468 -0.3589
  293MOL0     H39532   4.994   6.464   0.982 -0.4383  0.7370  1.0740
  293MOL0     H39533   4.702   6.468   0.896 -0.1859 -1.5277 -1.9123
  293MOL0     H39534   4.839   6.412   0.800  0.9889  0.9926 -0.3321
  293MOL0     H39535   4.945   6.638   0.809 -0.5048  1.4185 -2.3494
  293MOL0     H39536   4.798   6.694   0.890  1.4423  0.0161  0.2159
  293MOL0     H39537   5.006   5.600   1.126 -0.1396  0.4415 -0.9967
  293MOL0     H39538   4.967   5.402   1.249  0.4335  1.7149  2.5117
  293MOL0     H39539   4.578   5.109   1.304 -2.5100 -1.4223  0.1662
  293MOL0     H39540   4.542   4.860   1.289 -0.3713 -0.8733  1.6130
  293MOL0     H39541   3.757   3.943   2.537 -4.1044 -0.4948 -0.2982
  293MOL0     H39542   3.855   3.758   2.655  1.9932  1.2027  0.2796
  293MOL0     H39543   3.881   3.623   3.312 -1.3681 -1.3724  0.4872
  293MOL0     H39544   3.995   3.421   3.394  0.1116  0.1466  0.1744
  293MOL0     H39545   4.172   3.283   3.436  1.6056 -0.2413 -0.8158
  293MOL0     H39546   4.059   3.152   3.379 -0.8765 -0.0164 -0.6401
  293MOL0     H39547   4.277   3.088   3.488  0.1635 -1.6560  0.3060
  293MOL0     H39548   4.369   3.141   3.348 -1.6516 -0.2310 -2.9022
  293MOL0     H39549   4.244   2.977   3.200 -2.5944 -0.4561 -0.9539
  293MOL0     H39550   4.151   2.926   3.338  1.7199 -1.3464  4.2301
  293MOL0     H39551   4.451   2.920   3.359  0.9845 -1.7879 -0.6086
  293MOL0     H39552   4.386   2.797   3.254 -0.8814 -0.1755  0.8835
  293MOL0     H39553   4.302   2.660   3.656  0.7290 -1.5506 -0.0931
  293MOL0     H39554   4.170   3.355   3.000  1.5231 -1.5634  2.9098
  293MOL0     H39555   4.061   3.554   2.923 -0.0134  1.3030  0.9249
  294MOL0     O39556   6.768   2.795   4.253  0.0752  0.8224  0.4148
  294MOL0     C39557   6.757   2.788   4.379  0.0085 -0.5086  0.7437
  294MOL0     O39558   6.649   2.826   4.450  1.1439 -0.1645 -0.7357
  294MOL0     C39559   6.532   2.860   4.375 -0.5771 -0.1709 -0.3582
  294MOL0     C39560   6.526   2.984   4.302  0.2858 -0.6147 -0.1480
  294MOL0     C39561   6.407   3.010   4.231  0.2632  0.4745  0.8046
  294MOL0     C39562   6.307   2.916   4.226  0.0022  0.0084 -0.3585
  294MOL0     O39563   6.213   2.950   4.139 -0.1412 -0.6816 -0.0797
  294MOL0     C39564   6.089   2.881   4.143  0.5043  0.4037  0.4957
  294MOL0     C39565   5.977   2.962   4.078 -0.1740  0.0061  0.7613
  294MOL0     C39566   5.868   2.871   4.034 -0.3276 -0.3479  0.7854
  294MOL0     C39567   5.764   2.958   3.956  0.3181 -0.0179  0.1791
  294MOL0     C39568   5.642   2.874   3.924 -1.1500 -0.5033  0.2833
  294MOL0     C39569   5.560   2.955   3.818 -0.3665 -0.2655 -0.0893
  294MOL0     C39570   5.496   2.860   3.715  0.6150 -0.2053 -0.7957
  294MOL0     C39571   5.414   2.934   3.606  0.3537  0.4260 -0.0558
  294MOL0     N39572   5.309   3.022   3.660 -0.3506 -0.5582 -0.0501
  294MOL0     C39573   5.336   3.157   3.698 -0.2196 -0.0788 -0.7912
  294MOL0     C39574   5.211   3.213   3.714  0.7037 -0.1401 -0.3565
  294MOL0     C39575   5.166   3.354   3.729  0.8381 -0.3883  0.8219
  294MOL0     C39576   5.018   3.373   3.688 -0.0647  0.5348 -1.0538
  294MOL0     C39577   4.975   3.505   3.715  0.3265 -0.0662 -0.3402
  294MOL0     C39578   4.822   3.514   3.676 -1.0105  0.7237 -0.2907
  294MOL0     O39579   4.724   3.460   3.768  0.1979 -0.1266 -0.0936
  294MOL0     C39580   4.597   3.468   3.726  0.5924  0.4486 -0.2479
  294MOL0     C39581   4.546   3.497   3.599  0.1005 -0.1260 -0.2602
  294MOL0     C39582   4.413   3.513   3.564 -0.0276  0.2341 -0.0690
  294MOL0     C39583   4.371   3.568   3.424  0.8905 -0.3585 -0.4446
  294MOL0     C39584   4.321   3.484   3.670  0.9424  0.1997  0.6854
  294MOL0     C39585   4.169   3.497   3.644  0.1851  1.5162 -0.2342
  294MOL0     O39586   4.095   3.429   3.737  0.3465 -0.3993  0.1827
  294MOL0     C39587   3.959   3.448   3.760 -0.0360 -0.3938  0.7006
  294MOL0     C39588   3.879   3.564   3.714 -0.8039 -0.0894 -0.7603
  294MOL0     C39589   3.754   3.586   3.776  0.3351 -0.0580  1.4326
  294MOL0     C39590   3.686   3.491   3.848 -0.2809  0.7610 -0.1983
  294MOL0     O39591   3.552   3.482   3.891 -0.2757  1.5937 -0.3750
  294MOL0     C39592   3.474   3.588   3.842  0.9362 -0.2681 -0.2036
  294MOL0     C39593   3.424   3.550   3.700  0.7745 -0.0034  0.1415
  294MOL0     C39594   3.328   3.644   3.618  0.2285 -0.0057 -0.0700
  294MOL0     C39595   3.192   3.670   3.680 -1.2322  0.7899 -0.0773
  294MOL0     C39596   3.106   3.761   3.594  0.5078  0.3117  0.6246
  294MOL0     C39597   2.956   3.731   3.621  0.0404  0.6832  1.1698
  294MOL0     C39598   2.874   3.826   3.524  0.0198 -0.1003 -0.0787
  294MOL0     C39599   2.717   3.817   3.532 -0.9028 -0.0993  0.4339
  294MOL0    Cl39600   2.657   3.661   3.480 -0.4318  0.2382  0.1186
  294MOL0     C39601   3.765   3.384   3.883 -0.7095 -0.1412 -0.1798
  294MOL0     C39602   3.892   3.354   3.838  0.4485  0.4338 -0.1578
  294MOL0     O39603   4.125   3.580   3.567  0.6075 -0.7837  0.7407
  294MOL0     C39604   4.366   3.441   3.793 -0.2397 -0.1999 -0.4584
  294MOL0     C39605   4.507   3.421   3.818  0.9838 -0.3537 -0.8473
  294MOL0     N39606   5.117   3.110   3.700 -0.0605 -0.6868 -0.1132
  294MOL0     N39607   5.174   3.000   3.674  0.5346 -0.0941  0.3297
  294MOL0     C39608   6.308   2.795   4.294 -0.0417  0.3103  0.1744
  294MOL0     C39609   6.425   2.771   4.367  1.3128  1.3093  0.0343
  294MOL0     C39610   6.885   2.770   4.443  0.1920  0.3261  0.9063
  294MOL0     C39611   6.903   2.804   4.581  0.5407  0.6157  0.3144
  294MOL0     C39612   7.027   2.799   4.642 -0.8451 -0.4994  0.6371
  294MOL0     C39613   7.145   2.758   4.570  0.8506  0.3056  0.4431
  294MOL0     O39614   7.278   2.753   4.614 -0.3565 -0.0398 -0.3020
  294MOL0     C39615   7.297   2.752   4.755  0.1888  0.3589  0.4730
  294MOL0     C39616   7.345   2.885   4.802  0.9399  0.2442  0.5043
  294MOL0     C39617   7.481   2.932   4.747  0.4765  0.4330 -0.2410
  294MOL0     C39618   7.529   3.066   4.803  0.3926  0.1283  1.1269
  294MOL0     C39619   7.549   3.056   4.948 -0.4076 -0.3925 -0.1746
  294MOL0     C39620   7.580   3.055   5.067 -0.3783 -0.0309 -1.1880
  294MOL0     C39621   7.128   2.728   4.438 -0.2842  0.2889  0.6703
  294MOL0     C39622   7.001   2.723   4.378  1.2450  0.1279  0.3116
  294MOL0     H39623   6.618   3.038   4.287  0.3720  0.3116  3.0310
  294MOL0     H39624   6.394   3.107   4.184  1.9016  0.2241 -0.2481
  294MOL0     H39625   6.098   2.793   4.079  0.0178 -0.0871  1.0837
  294MOL0     H39626   6.061   2.854   4.245  1.3239  1.7362  1.1098
  294MOL0     H39627   5.938   3.041   4.144  0.9880  1.9055 -0.7096
  294MOL0     H39628   6.023   3.015   3.994 -1.6172 -2.8380 -2.0153
  294MOL0     H39629   5.910   2.796   3.966  0.3555 -1.3105  2.2193
  294MOL0     H39630   5.818   2.822   4.118 -1.5148  0.2084  0.4157
  294MOL0     H39631   5.743   3.048   4.014 -2.9825  0.8352 -2.0680
  294MOL0     H39632   5.817   2.993   3.867 -0.5539 -1.2499 -0.8717
  294MOL0     H39633   5.679   2.784   3.874 -0.3421 -0.0247  0.0092
  294MOL0     H39634   5.576   2.845   4.007  0.2720 -3.9975  0.3578
  294MOL0     H39635   5.488   3.027   3.857  0.9919  2.3120 -1.9954
  294MOL0     H39636   5.629   3.018   3.761 -3.2794  1.7839 -1.6350
  294MOL0     H39637   5.581   2.814   3.664  1.0115 -0.5462  0.1580
  294MOL0     H39638   5.434   2.789   3.770 -1.0174  3.2232  2.2401
  294MOL0     H39639   5.362   2.871   3.533  0.1054  2.1234 -1.4203
  294MOL0     H39640   5.482   2.993   3.543 -1.3883  1.5904 -0.9179
  294MOL0     H39641   5.424   3.220   3.707 -0.9258  1.0063 -1.2919
  294MOL0     H39642   5.172   3.381   3.835 -1.5785  0.8991  0.6951
  294MOL0     H39643   5.232   3.422   3.675 -1.3420 -1.9037 -4.3369
  294MOL0     H39644   4.953   3.303   3.741  0.7564 -0.7331 -1.6693
  294MOL0     H39645   5.002   3.363   3.580 -1.7690  3.8446 -1.2442
  294MOL0     H39646   5.040   3.579   3.667  0.6688 -1.7469 -2.6006
  294MOL0     H39647   4.970   3.524   3.823 -3.6242 -0.0970 -0.3738
  294MOL0     H39648   4.814   3.497   3.568  1.0376  0.4010 -0.4387
  294MOL0     H39649   4.793   3.618   3.687 -1.4569  0.4771  1.0851
  294MOL0     H39650   4.607   3.527   3.514  1.4862  0.1281  0.7754
  294MOL0     H39651   4.309   3.657   3.439  0.3422 -0.6849 -0.7374
  294MOL0     H39652   4.460   3.600   3.369  2.5593  0.0359  2.3017
  294MOL0     H39653   4.309   3.496   3.371 -1.7425  0.7952  0.8600
  294MOL0     H39654   3.923   3.651   3.666 -2.7370  0.7738 -1.0413
  294MOL0     H39655   3.707   3.680   3.749  0.6274  0.0538  1.3035
  294MOL0     H39656   3.385   3.605   3.903  0.4901  0.5726 -1.0471
  294MOL0     H39657   3.524   3.685   3.849 -4.0153  2.6714 -0.7595
  294MOL0     H39658   3.512   3.531   3.639  1.0119  0.1941  0.4215
  294MOL0     H39659   3.374   3.453   3.695  0.9931 -0.0470 -3.5112
  294MOL0     H39660   3.318   3.601   3.518 -0.5169  2.4178 -1.1112
  294MOL0     H39661   3.368   3.745   3.607 -2.2739  1.1300  0.6079
  294MOL0     H39662   3.153   3.570   3.702  0.4195  0.6943  2.9853
  294MOL0     H39663   3.211   3.719   3.775 -1.0949  0.9913 -0.2069
  294MOL0     H39664   3.127   3.752   3.487 -2.4692  2.0584 -0.2385
  294MOL0     H39665   3.121   3.866   3.618  0.0834  0.5102  0.0469
  294MOL0     H39666   2.946   3.625   3.594  2.0961  0.3714  1.4637
  294MOL0     H39667   2.929   3.738   3.727  1.1543  0.9697  1.4470
  294MOL0     H39668   2.886   3.801   3.418 -0.7018  1.9594 -0.6975
  294MOL0     H39669   2.897   3.931   3.540  2.8553 -0.6776  0.1396
  294MOL0     H39670   2.663   3.888   3.469 -1.4044 -0.2294  0.7139
  294MOL0     H39671   2.678   3.837   3.632  0.5112 -0.5344  1.0939
  294MOL0     H39672   3.721   3.314   3.953 -1.3860 -0.3643 -0.8051
  294MOL0     H39673   3.944   3.261   3.858 -0.5362 -0.2572 -0.6979
  294MOL0     H39674   4.297   3.402   3.867 -0.4860  1.5281  0.2600
  294MOL0     H39675   4.535   3.351   3.896 -1.2701  0.0644  0.4222
  294MOL0     H39676   6.231   2.719   4.283  2.1723 -1.9238 -0.6655
  294MOL0     H39677   6.424   2.678   4.424 -1.2377  0.5918 -1.0397
  294MOL0     H39678   6.823   2.836   4.648 -1.0289 -2.0651 -0.1300
  294MOL0     H39679   7.041   2.822   4.747  1.4079  0.0283  0.2724
  294MOL0     H39680   7.208   2.724   4.812  0.9702  0.8368  1.9805
  294MOL0     H39681   7.381   2.687   4.781 -0.2056 -0.0091  0.8505
  294MOL0     H39682   7.352   2.876   4.911 -0.7281 -3.8122  0.4469
  294MOL0     H39683   7.271   2.965   4.791 -0.9947 -1.4687  0.5086
  294MOL0     H39684   7.465   2.949   4.640  3.1829  3.8592 -0.2535
  294MOL0     H39685   7.554   2.853   4.765  0.1433  0.7938  3.5246
  294MOL0     H39686   7.460   3.146   4.774  0.8506 -0.6938 -2.7741
  294MOL0     H39687   7.623   3.100   4.759 -0.1628  1.3959  0.8893
  294MOL0     H39688   7.608   3.042   5.169 -0.9906 -1.6617 -1.1961
  294MOL0     H39689   7.209   2.698   4.371 -1.8190 -0.6889 -0.8282
  294MOL0     H39690   6.986   2.690   4.276  1.2417  0.6539  0.1362
  295MOL0     O39691   4.189   8.251  10.127 -0.5897  0.4814 -0.2195
  295MOL0     C39692   4.312   8.279  10.147  0.0588 -1.1058  0.7141
  295MOL0     O39693   4.412   8.191  10.172 -0.3130  0.1821 -0.4864
  295MOL0     C39694   4.369   8.059  10.190 -0.0035  0.0723 -0.5154
  295MOL0     C39695   4.377   8.010  10.328 -0.3668 -0.5246 -0.3984
  295MOL0     C39696   4.362   7.871  10.358 -0.1788  0.1831  0.0047
  295MOL0     C39697   4.347   7.790  10.245  0.2726  0.7484 -0.0396
  295MOL0     O39698   4.348   7.650  10.255 -0.1740 -0.0107 -0.1329
  295MOL0     C39699   4.404   7.597  10.379 -0.7652  0.2328 -0.8513
  295MOL0     C39700   4.385   7.446  10.384  0.3095 -0.3478  0.4304
  295MOL0     C39701   4.451   7.382  10.506  1.3515 -0.2019 -0.5581
  295MOL0     C39702   4.601   7.377  10.483  0.2380 -0.3749  0.3382
  295MOL0     C39703   4.682   7.383  10.617  0.0283  1.1198  0.9050
  295MOL0     C39704   4.808   7.289  10.626  0.4842  0.0907 -0.6022
  295MOL0     C39705   4.922   7.321  10.517  0.3552 -0.5886  0.3488
  295MOL0     C39706   4.971   7.469  10.535 -0.0581  0.2621  0.6126
  295MOL0     N39707   5.064   7.497  10.435  0.3662 -0.2766  0.2497
  295MOL0     C39708   5.170   7.585  10.458 -0.6154 -0.1602 -0.0119
  295MOL0     C39709   5.239   7.583  10.341 -0.1201 -0.9455  1.2487
  295MOL0     C39710   5.375   7.628  10.310  0.0490 -0.5954 -0.3434
  295MOL0     C39711   5.366   7.725  10.198 -0.0477  0.1605  0.9361
  295MOL0     C39712   5.316   7.871  10.218 -0.1221  0.2020  0.1650
  295MOL0     C39713   5.406   7.949  10.318  0.6953 -0.5584  0.1397
  295MOL0     O39714   5.534   7.948  10.265 -0.2820 -0.6131  0.0426
  295MOL0     C39715   5.572   8.034  10.165  0.5565  1.0855  0.7272
  295MOL0     C39716   5.610   7.970  10.043 -0.4828 -0.6096 -0.5297
  295MOL0     C39717   5.684   8.042   9.947 -0.0982  0.1113  0.1422
  295MOL0     C39718   5.731   7.969   9.826 -0.1139  0.9525 -0.0252
  295MOL0     C39719   5.696   8.190   9.967 -0.1453  0.3908 -1.0888
  295MOL0     C39720   5.744   8.275   9.865 -0.4914  0.0257  1.0959
  295MOL0     O39721   5.760   8.230   9.740 -0.1514 -0.1063 -0.5667
  295MOL0     C39722   5.869   8.273   9.661 -0.2916  1.1903  0.0577
  295MOL0     C39723   5.889   8.207   9.541  0.2818 -0.0583 -0.3957
  295MOL0     C39724   5.992   8.239   9.451 -0.3545 -0.8033 -0.6569
  295MOL0     C39725   6.100   8.313   9.503  0.6696 -1.4906  0.8317
  295MOL0     O39726   6.203   8.319   9.415 -0.2144 -0.1798  0.3053
  295MOL0     C39727   6.316   8.387   9.461 -0.0060 -0.0196 -0.6851
  295MOL0     C39728   6.436   8.362   9.380  0.4679 -0.0139  0.8940
  295MOL0     C39729   6.565   8.414   9.427  0.6728 -0.4124  0.4270
  295MOL0     C39730   6.676   8.363   9.344 -0.6395  0.7873  0.4958
  295MOL0     C39731   6.814   8.414   9.369  0.5645 -0.1631 -0.5926
  295MOL0     C39732   6.905   8.378   9.262 -0.1180  0.1023  0.5329
  295MOL0     C39733   7.040   8.438   9.269 -0.0256 -0.9386 -0.3408
  295MOL0     C39734   7.124   8.404   9.145  0.3877 -0.3670 -0.8078
  295MOL0    Cl39735   7.210   8.559   9.111 -0.1628  0.0263 -0.1365
  295MOL0     C39736   6.092   8.370   9.632  0.1503 -0.3512  0.1779
  295MOL0     C39737   5.974   8.352   9.704 -1.1021 -0.1264 -0.2236
  295MOL0     O39738   5.757   8.394   9.897  0.1776  0.1455  0.1319
  295MOL0     C39739   5.651   8.242  10.090  1.0351 -0.4294 -0.6291
  295MOL0     C39740   5.590   8.166  10.190 -1.3158  1.4229 -0.7105
  295MOL0     N39741   5.168   7.506  10.250 -0.2993  0.0184  0.6194
  295MOL0     N39742   5.067   7.459  10.307  0.9773 -0.1952  0.3115
  295MOL0     C39743   4.321   7.841  10.117 -0.0504 -1.0905  0.2247
  295MOL0     C39744   4.341   7.974  10.081 -0.2354  0.5340 -0.7087
  295MOL0     C39745   4.356   8.421  10.160 -0.4910 -0.2694  1.4191
  295MOL0     C39746   4.490   8.464  10.149 -0.2139 -0.1342  0.0196
  295MOL0     C39747   4.530   8.595  10.178 -0.1487  0.8432  0.3210
  295MOL0     C39748   4.440   8.697  10.191 -0.1854 -0.0667 -0.5482
  295MOL0     O39749   4.467   8.831  10.221 -0.4511 -0.3635  0.2454
  295MOL0     C39750   4.437   8.881  10.348 -0.2234  0.1213  0.0321
  295MOL0     C39751   4.513   8.811  10.459  0.2280 -0.3593  0.2331
  295MOL0     C39752   4.666   8.828  10.437 -1.0236 -0.4777  0.7491
  295MOL0     C39753   4.729   8.783  10.552  0.0456  0.4384 -0.4958
  295MOL0     C39754   4.730   8.636  10.560  0.0446 -0.2496  0.0659
  295MOL0     C39755   4.732   8.520  10.544  1.0875 -0.2922  0.4306
  295MOL0     C39756   4.309   8.665  10.174 -0.6365 -0.7113  0.9012
  295MOL0     C39757   4.270   8.533  10.166 -0.5555 -0.2838  0.1703
  295MOL0     H39758   4.404   8.077  10.408 -1.7504 -1.8130  1.2298
  295MOL0     H39759   4.350   7.839  10.461  6.4260 -1.4656  0.7433
  295MOL0     H39760   4.509   7.624  10.392  0.0530 -3.2081  0.9406
  295MOL0     H39761   4.353   7.638  10.466 -1.8187  0.8513 -1.7312
  295MOL0     H39762   4.277   7.429  10.387 -0.0625  1.5950 -0.5436
  295MOL0     H39763   4.433   7.396  10.300 -1.9730 -2.2854  0.1994
  295MOL0     H39764   4.413   7.430  10.597  1.3119 -3.3063  1.1996
  295MOL0     H39765   4.415   7.279  10.514 -1.6420  0.7369 -0.5861
  295MOL0     H39766   4.615   7.278  10.440  1.7631 -1.0841  2.2926
  295MOL0     H39767   4.640   7.444  10.406 -0.4566 -1.0542 -0.6278
  295MOL0     H39768   4.707   7.488  10.638 -1.3058  2.1780 -2.2838
  295MOL0     H39769   4.618   7.350  10.699 -0.1699 -1.7667 -0.3046
  295MOL0     H39770   4.847   7.310  10.726  1.4212 -0.6110 -0.8121
  295MOL0     H39771   4.781   7.183  10.613  1.0334 -0.0022 -0.9697
  295MOL0     H39772   5.008   7.255  10.530  1.4602 -0.2176 -3.8694
  295MOL0     H39773   4.879   7.305  10.418 -0.0260 -4.2593  0.9616
  295MOL0     H39774   5.011   7.484  10.635 -0.8194 -0.7995  1.1000
  295MOL0     H39775   4.886   7.537  10.520 -1.1837 -1.5811 -2.2226
  295MOL0     H39776   5.194   7.626  10.556 -2.1224  0.5007  0.1053
  295MOL0     H39777   5.426   7.689  10.385  1.1143  0.0694 -1.5658
  295MOL0     H39778   5.430   7.539  10.279 -0.4505  0.2662 -4.2565
  295MOL0     H39779   5.306   7.680  10.118 -0.5307 -1.9313  2.3834
  295MOL0     H39780   5.464   7.717  10.151 -0.4314  0.3360  0.0759
  295MOL0     H39781   5.212   7.851  10.249 -0.9710 -1.4550 -3.2176
  295MOL0     H39782   5.309   7.920  10.121  0.0020  1.0046  0.5487
  295MOL0     H39783   5.414   7.910  10.420 -1.4798 -2.0308 -0.1776
  295MOL0     H39784   5.363   8.049  10.330 -0.8558 -1.4907  4.0639
  295MOL0     H39785   5.588   7.867  10.016 -0.4368  0.0577 -3.3667
  295MOL0     H39786   5.655   7.977   9.747 -3.4887  0.5037  2.8971
  295MOL0     H39787   5.837   7.986   9.806  0.3730 -0.2525  1.3850
  295MOL0     H39788   5.732   7.862   9.848  0.8931  0.6666 -1.3320
  295MOL0     H39789   5.817   8.135   9.503 -0.8846 -0.1361  1.8250
  295MOL0     H39790   6.007   8.194   9.354  1.8781  0.6597 -1.0577
  295MOL0     H39791   6.309   8.496   9.456 -0.1424  0.0351  0.5852
  295MOL0     H39792   6.337   8.364   9.565 -0.7055  0.0992 -0.5162
  295MOL0     H39793   6.436   8.252   9.373 -5.4730 -0.5399  3.1309
  295MOL0     H39794   6.417   8.404   9.281 -2.2672  0.7518  1.6767
  295MOL0     H39795   6.566   8.383   9.532 -2.1409 -0.2528  0.5700
  295MOL0     H39796   6.558   8.523   9.435 -4.4001 -0.2783 -1.8725
  295MOL0     H39797   6.680   8.254   9.350  0.3409  0.7030 -1.0589
  295MOL0     H39798   6.648   8.376   9.239 -0.9881 -2.2292  0.1332
  295MOL0     H39799   6.848   8.372   9.464  0.4153 -1.2311 -0.9977
  295MOL0     H39800   6.817   8.522   9.386 -1.2717 -0.3452  1.1870
  295MOL0     H39801   6.903   8.269   9.252  4.3526 -0.3564  2.2741
  295MOL0     H39802   6.857   8.402   9.167 -4.1268 -3.4997  1.3412
  295MOL0     H39803   7.093   8.410   9.361 -1.5643  2.6166  1.8626
  295MOL0     H39804   7.023   8.545   9.282  1.0670 -0.7916 -0.0362
  295MOL0     H39805   7.053   8.382   9.064 -2.9457  2.2509  1.1030
  295MOL0     H39806   7.194   8.323   9.163 -1.9415 -1.8829  2.5228
  295MOL0     H39807   6.169   8.432   9.677 -0.1734 -0.5509  1.0337
  295MOL0     H39808   5.973   8.392   9.805  2.1371 -0.2491 -0.0566
  295MOL0     H39809   5.656   8.351  10.094  1.1270 -0.4114 -1.1446
  295MOL0     H39810   5.578   8.192  10.295 -0.0447  0.2247 -0.2293
  295MOL0     H39811   4.315   7.772  10.033  1.8677  1.0314 -1.8255
  295MOL0     H39812   4.337   7.998   9.975  4.1507 -0.5799 -1.3386
  295MOL0     H39813   4.574   8.399  10.126  1.3010  1.9250 -0.6299
  295MOL0     H39814   4.634   8.625  10.190 -0.2031  0.3075  2.7951
  295MOL0     H39815   4.452   8.989  10.340 -0.7404  0.1752 -0.2645
  295MOL0     H39816   4.330   8.865  10.367 -0.6092  2.5135  0.1027
  295MOL0     H39817   4.489   8.704  10.457  0.8039 -0.5211  1.0023
  295MOL0     H39818   4.477   8.857  10.552  0.0378 -0.8354  0.4025
  295MOL0     H39819   4.691   8.935  10.438  0.2946 -0.7175 -0.9759
  295MOL0     H39820   4.707   8.790  10.343 -0.7069 -2.0215  1.4879
  295MOL0     H39821   4.675   8.818  10.641 -1.4543 -1.3426 -0.6499
  295MOL0     H39822   4.832   8.819  10.554  0.1180  0.2386  1.2859
  295MOL0     H39823   4.710   8.416  10.534 -0.2050  0.1241 -1.7530
  295MOL0     H39824   4.229   8.739  10.176  0.8441  0.9987  0.3957
  295MOL0     H39825   4.164   8.507  10.168 -0.3259 -1.2225  1.1075
  296MOL0     O39826   0.088   9.852   9.885  0.1542  0.3725 -0.3440
  296MOL0     C39827   0.147   9.747   9.877 -0.4038  0.6547  0.3127
  296MOL0     O39828   0.215   9.710   9.753 -0.1127  0.5763 -0.9609
  296MOL0     C39829   0.215   9.801   9.648  0.0149  0.0569  0.1359
  296MOL0     C39830   0.107   9.868   9.595  0.7487 -0.0600  0.9885
  296MOL0     C39831   0.119   9.952   9.481 -1.1732  0.6707  0.0655
  296MOL0     C39832   0.237   9.958   9.406 -0.6724 -0.2998 -0.3010
  296MOL0     O39833   0.241  10.019   9.287  0.0658  1.1081 -0.1269
  296MOL0     C39834   0.367  10.060   9.223  0.7485  0.1060  0.4548
  296MOL0     C39835   0.329  10.091   9.083  0.2601 -0.4676 -0.6396
  296MOL0     C39836   0.446  10.136   8.983 -0.6572 -0.1091  0.1577
  296MOL0     C39837   0.492  10.284   9.001 -0.6903  0.0254  0.0129
  296MOL0     C39838   0.586  10.326   8.888  0.7500  0.0777  0.0766
  296MOL0     C39839   0.656  10.458   8.924 -0.0293  0.0025  0.7412
  296MOL0     C39840   0.755  10.511   8.818 -1.0191  0.6155  0.2267
  296MOL0     C39841   0.845  10.625   8.863 -0.1422 -0.4946 -0.1553
  296MOL0     N39842   0.929  10.687   8.759  0.7487  0.7188 -0.4063
  296MOL0     C39843   0.895  10.799   8.685 -0.3274  1.0526 -0.6882
  296MOL0     C39844   1.010  10.831   8.620 -1.1635  0.9884 -0.5416
  296MOL0     C39845   1.032  10.955   8.547 -0.0236 -0.0425 -0.7593
  296MOL0     C39846   1.025  10.935   8.393 -0.6246  0.2125  0.4761
  296MOL0     C39847   0.887  10.887   8.344  0.1466  1.0030 -0.5305
  296MOL0     C39848   0.881  10.881   8.193 -0.1344  0.4064  0.1107
  296MOL0     O39849   0.739  10.891   8.164  0.1610  0.6344 -0.5847
  296MOL0     C39850   0.679  10.768   8.128 -0.9621 -0.3682 -0.1906
  296MOL0     C39851   0.650  10.680   8.225 -0.4075  0.8738  0.5844
  296MOL0     C39852   0.587  10.554   8.197 -0.1854 -0.1729 -0.2532
  296MOL0     C39853   0.530  10.475   8.318  0.3305 -0.7568  0.0258
  296MOL0     C39854   0.582  10.517   8.065  0.7236 -0.2078 -0.1991
  296MOL0     C39855   0.524  10.392   8.019 -1.3263 -0.4674  0.9615
  296MOL0     O39856   0.523  10.373   7.889 -0.5150  0.3038  0.1729
  296MOL0     C39857   0.474  10.251   7.837  0.0841  0.3600  0.4152
  296MOL0     C39858   0.554  10.186   7.746 -0.8589 -0.4488  0.5656
  296MOL0     C39859   0.527  10.050   7.707  0.3469 -0.3814  0.5200
  296MOL0     C39860   0.403   9.983   7.750 -0.4406 -0.6917 -0.4883
  296MOL0     O39861   0.366   9.856   7.706 -0.1627 -0.4583  0.5303
  296MOL0     C39862   0.274   9.769   7.784 -0.0569  0.6348 -0.8089
  296MOL0     C39863   0.241   9.646   7.690 -0.6056  0.0027  0.3641
  296MOL0     C39864   0.317   9.519   7.725  1.0049  0.0039  0.5206
  296MOL0     C39865   0.294   9.402   7.625 -0.7157  0.2061 -0.8477
  296MOL0     C39866   0.181   9.313   7.667 -0.2380  0.0186  0.1757
  296MOL0     C39867   0.155   9.208   7.558  0.2545  0.0876  0.5839
  296MOL0     C39868   0.067   9.261   7.441 -0.3998 -0.0073 -0.1252
  296MOL0     C39869  -0.066   9.318   7.482  0.6125  0.0720 -0.6515
  296MOL0    Cl39870  -0.163   9.211   7.585  0.2202 -0.0013  0.3520
  296MOL0     C39871   0.324  10.057   7.840 -0.0813 -0.6446 -0.1497
  296MOL0     C39872   0.367  10.187   7.882  1.0412 -0.8087  0.2850
  296MOL0     O39873   0.511  10.303   8.105 -0.3278  0.2650  0.0952
  296MOL0     C39874   0.600  10.616   7.962  0.8061  0.7031  0.2902
  296MOL0     C39875   0.644  10.745   8.000 -1.0951  0.4328  0.1495
  296MOL0     N39876   1.099  10.731   8.640  0.0377 -0.1558  0.4416
  296MOL0     N39877   1.058  10.653   8.731 -0.3437 -0.1804 -0.5768
  296MOL0     C39878   0.347   9.892   9.463  0.3384 -0.3099  0.1904
  296MOL0     C39879   0.336   9.817   9.579 -0.9641 -0.8488  0.1719
  296MOL0     C39880   0.140   9.648   9.991  0.4294 -0.7423  0.2164
  296MOL0     C39881   0.073   9.687  10.112 -1.1807 -0.5908  0.2216
  296MOL0     C39882   0.029   9.591  10.199  0.3660 -0.9927 -0.5348
  296MOL0     C39883   0.069   9.454  10.175 -0.2486  0.2453  0.2921
  296MOL0     O39884   0.026   9.347  10.243  0.0499  0.8492 -0.0640
  296MOL0     C39885  -0.094   9.349  10.332  0.7345 -0.0739  0.1476
  296MOL0     C39886  -0.225   9.379  10.258 -0.5932 -0.0741 -0.3476
  296MOL0     C39887  -0.224   9.316  10.114 -0.1983  0.4048 -0.1500
  296MOL0     C39888  -0.323   9.404  10.029  0.4614 -0.0522 -0.4963
  296MOL0     C39889  -0.284   9.542  10.014 -0.1537 -0.7309 -0.3487
  296MOL0     C39890  -0.262   9.660  10.015  0.3191  0.4171  0.0871
  296MOL0     C39891   0.162   9.429  10.067  0.7145  1.5653 -0.5555
  296MOL0     C39892   0.200   9.527   9.982 -0.0177  0.1886  0.2979
  296MOL0     H39893   0.014   9.845   9.645  0.5093 -1.9085 -0.2023
  296MOL0     H39894   0.042   9.991   9.416 -1.3103  0.5113  0.1317
  296MOL0     H39895   0.407  10.149   9.272 -0.9766  2.7221 -2.4634
  296MOL0     H39896   0.446   9.985   9.221 -0.1106 -0.8475 -2.3178
  296MOL0     H39897   0.299   9.996   9.038 -0.0253 -1.6001  1.7768
  296MOL0     H39898   0.242  10.157   9.083 -1.7658 -2.9407 -1.5423
  296MOL0     H39899   0.529  10.067   9.002 -1.5071 -0.6038  2.4269
  296MOL0     H39900   0.402  10.123   8.884  1.2229  1.6939 -0.9885
  296MOL0     H39901   0.414  10.359   9.012 -0.5070  0.0651  1.1629
  296MOL0     H39902   0.548  10.286   9.096 -1.6469 -1.1369  0.6230
  296MOL0     H39903   0.664  10.251   8.870  2.5150  1.1481  2.6312
  296MOL0     H39904   0.518  10.332   8.803  1.2479  2.8633 -0.2118
  296MOL0     H39905   0.567  10.522   8.929 -0.0680  0.1348 -0.9982
  296MOL0     H39906   0.694  10.455   9.026 -1.1387 -0.3829  1.1591
  296MOL0     H39907   0.821  10.430   8.784  0.1237  2.0272 -1.0980
  296MOL0     H39908   0.714  10.534   8.719  0.7466 -3.2636 -1.6238
  296MOL0     H39909   0.911  10.587   8.942  0.2973  2.5631  1.0734
  296MOL0     H39910   0.789  10.708   8.907 -1.5568 -1.1525 -0.6468
  296MOL0     H39911   0.814  10.862   8.720 -1.7468 -1.2704  0.3950
  296MOL0     H39912   0.949  11.016   8.584 -0.0750 -0.9363  0.6826
  296MOL0     H39913   1.127  10.998   8.583  0.1564 -2.3600  1.8773
  296MOL0     H39914   1.106  10.868   8.362 -2.4659 -1.3924 -1.1308
  296MOL0     H39915   1.051  11.028   8.342 -0.0597  0.5030  1.2723
  296MOL0     H39916   0.820  10.961   8.387 -5.1238 -4.6316  2.4101
  296MOL0     H39917   0.877  10.792   8.398  0.9735  0.4962 -1.2307
  296MOL0     H39918   0.930  10.790   8.155 -3.1136 -0.0315 -3.3187
  296MOL0     H39919   0.931  10.964   8.143 -0.1241  1.4811  1.8277
  296MOL0     H39920   0.666  10.697   8.331 -0.9204  2.0281  0.4876
  296MOL0     H39921   0.424  10.456   8.298  0.4219 -2.7391  1.2277
  296MOL0     H39922   0.573  10.375   8.315  2.6803  0.1961 -0.6896
  296MOL0     H39923   0.540  10.529   8.412  0.9836 -2.4617  0.9685
  296MOL0     H39924   0.638  10.228   7.691  1.3279 -1.2615  3.0726
  296MOL0     H39925   0.596   9.993   7.645  0.3619 -0.8246  0.9429
  296MOL0     H39926   0.330   9.734   7.871 -0.3997  3.2420  0.5466
  296MOL0     H39927   0.174   9.805   7.809 -1.3722 -1.6892 -2.2960
  296MOL0     H39928   0.135   9.624   7.704 -1.1726  1.8115 -0.7893
  296MOL0     H39929   0.265   9.670   7.586 -2.1174 -1.3583 -0.3417
  296MOL0     H39930   0.288   9.491   7.827 -0.1728 -0.7483 -0.0052
  296MOL0     H39931   0.423   9.547   7.722  0.9390  0.1472 -1.1675
  296MOL0     H39932   0.272   9.448   7.528  1.1030 -1.4491 -2.1101
  296MOL0     H39933   0.383   9.342   7.607  0.0494  2.0415 -3.8753
  296MOL0     H39934   0.089   9.372   7.674 -1.4324 -0.9260 -4.1865
  296MOL0     H39935   0.207   9.265   7.761  0.6444  0.8346  0.3581
  296MOL0     H39936   0.249   9.168   7.520  1.4472 -0.6485  4.0379
  296MOL0     H39937   0.116   9.115   7.599  1.5278 -1.5893 -1.7880
  296MOL0     H39938   0.055   9.189   7.360 -0.7769  1.1038 -1.0928
  296MOL0     H39939   0.119   9.343   7.391  3.4832 -0.6552  2.3992
  296MOL0     H39940  -0.128   9.341   7.395 -0.5543  0.5296  0.2687
  296MOL0     H39941  -0.049   9.413   7.534 -1.1947 -0.2081  0.5634
  296MOL0     H39942   0.230  10.019   7.880 -0.6381  2.3521  1.6722
  296MOL0     H39943   0.302  10.243   7.950  0.2753  0.7591 -1.6473
  296MOL0     H39944   0.570  10.610   7.858  1.9951 -0.0510 -0.0186
  296MOL0     H39945   0.659  10.826   7.930  0.7521 -1.2016 -1.4837
  296MOL0     H39946   0.447   9.897   9.421  0.7950 -0.3382  1.2471
  296MOL0     H39947   0.422   9.764   9.620 -0.3855 -0.5601 -0.6490
  296MOL0     H39948   0.038   9.788  10.127 -1.2194 -0.3072 -1.4837
  296MOL0     H39949  -0.037   9.622  10.280  1.1353 -1.5919  0.3518
  296MOL0     H39950  -0.098   9.250  10.378  1.7724  0.1917  0.8557
  296MOL0     H39951  -0.078   9.423  10.411 -2.8237  1.0209  0.0006
  296MOL0     H39952  -0.248   9.486  10.260  1.4900  0.4384 -0.7461
  296MOL0     H39953  -0.308   9.335  10.314 -0.5428 -1.0705 -1.0434
  296MOL0     H39954  -0.257   9.212  10.118  0.6635  0.1608  2.1514
  296MOL0     H39955  -0.131   9.309  10.056 -1.4319 -1.6483 -2.0336
  296MOL0     H39956  -0.422   9.415  10.075  1.0489  1.3332  0.5059
  296MOL0     H39957  -0.341   9.367   9.927  2.5303 -1.9344 -0.2458
  296MOL0     H39958  -0.247   9.763   9.988 -0.4516  0.3571 -0.6268
  296MOL0     H39959   0.200   9.328  10.061 -2.0074  0.3092  1.4378
  296MOL0     H39960   0.252   9.489   9.895 -0.0977  0.1187  0.2804
  297MOL0     O39961   0.289   1.732   0.511  0.3614 -0.0516 -0.4974
  297MOL0     C39962   0.305   1.631   0.439 -0.7083 -0.2820 -1.2382
  297MOL0     O39963   0.220   1.529   0.414  0.8475  0.7030  0.3339
  297MOL0     C39964   0.101   1.502   0.474 -0.8091 -0.5700 -0.0043
  297MOL0     C39965   0.071   1.366   0.474  0.4536 -0.8162  0.1192
  297MOL0     C39966  -0.037   1.329   0.552 -0.2607 -0.1414  0.5308
  297MOL0     C39967  -0.113   1.418   0.632  0.1791  0.1520  0.0351
  297MOL0     O39968  -0.211   1.366   0.707 -0.3205  0.4785  0.3075
  297MOL0     C39969  -0.295   1.442   0.791 -0.1339  0.0763  0.3013
  297MOL0     C39970  -0.391   1.362   0.872  0.5936 -0.7330  0.1732
  297MOL0     C39971  -0.353   1.233   0.946  0.3584 -0.4007  0.7073
  297MOL0     C39972  -0.237   1.270   1.042  0.2136 -0.1699 -0.8094
  297MOL0     C39973  -0.195   1.143   1.126  0.2716  0.5042 -0.0918
  297MOL0     C39974  -0.276   1.122   1.250 -0.0077  0.2893  0.4933
  297MOL0     C39975  -0.260   0.983   1.307 -0.3106  0.4496 -0.0333
  297MOL0     C39976  -0.396   0.937   1.377  0.0761 -0.0646  0.5309
  297MOL0     N39977  -0.395   0.807   1.446  0.9289  0.8082  0.5941
  297MOL0     C39978  -0.341   0.685   1.404 -0.4141  0.8182  0.4022
  297MOL0     C39979  -0.406   0.603   1.494  0.0589 -0.6002  0.5659
  297MOL0     C39980  -0.393   0.455   1.518 -0.0564  1.0038  0.0585
  297MOL0     C39981  -0.250   0.411   1.554 -0.0494  1.2606  0.1643
  297MOL0     C39982  -0.197   0.473   1.681  0.0229  0.8508  0.9720
  297MOL0     C39983  -0.280   0.459   1.802 -0.2466 -0.4228  0.3527
  297MOL0     O39984  -0.216   0.482   1.922 -0.1348  0.3509  0.4055
  297MOL0     C39985  -0.145   0.598   1.947 -0.5649  0.1405  0.2354
  297MOL0     C39986  -0.023   0.572   2.015  0.3354 -0.4016 -0.6408
  297MOL0     C39987   0.059   0.681   2.036  0.8572 -0.4056 -0.2868
  297MOL0     C39988   0.181   0.669   2.128  0.0906  0.4680 -0.1073
  297MOL0     C39989   0.011   0.812   1.991  1.1068 -0.5713 -0.3150
  297MOL0     C39990   0.092   0.936   1.997  0.9790  0.3558  0.3725
  297MOL0     O39991   0.027   1.049   1.962 -0.1082 -0.1305 -0.1627
  297MOL0     C39992   0.086   1.173   1.959 -1.3600 -0.2140 -0.2160
  297MOL0     C39993   0.043   1.275   2.045  0.3184 -0.3937  0.5147
  297MOL0     C39994   0.082   1.412   2.028 -0.4947  0.0260  0.2282
  297MOL0     C39995   0.160   1.435   1.916  0.9400 -1.1219 -0.4500
  297MOL0     O39996   0.194   1.569   1.878  0.3372 -0.3219  1.0659
  297MOL0     C39997   0.083   1.641   1.823  0.8030  0.9617 -0.4131
  297MOL0     C39998   0.149   1.755   1.759  0.3883 -1.1027 -0.3411
  297MOL0     C39999   0.237   1.732   1.634  0.0590  0.1064  0.2178
  297MOL0     C40000   0.300   1.870   1.593  0.2930 -0.2820  0.5325
  297MOL0     C40001   0.391   1.839   1.467 -0.0571  0.5204  0.2155
  297MOL0     C40002   0.460   1.962   1.410 -0.8376 -0.2126  0.0907
  297MOL0     C40003   0.540   1.926   1.270 -0.0729  0.4968 -0.7165
  297MOL0     C40004   0.639   2.030   1.222  0.4404 -0.3821 -0.0376
  297MOL0    Cl40005   0.560   2.193   1.187  0.0325  0.3898  0.2238
  297MOL0     C40006   0.215   1.337   1.839  0.1486  0.3413  0.7031
  297MOL0     C40007   0.182   1.209   1.862  0.1338 -0.3355  0.1591
  297MOL0     O40008   0.206   0.931   2.032  0.8207 -0.1900 -0.0411
  297MOL0     C40009  -0.116   0.826   1.935 -0.4940  0.0862  0.0329
  297MOL0     C40010  -0.195   0.717   1.916  0.3882  0.5268  0.6338
  297MOL0     N40011  -0.492   0.671   1.580  0.5606 -0.1424  0.1922
  297MOL0     N40012  -0.483   0.793   1.555  0.4179  0.2732  0.4600
  297MOL0     C40013  -0.087   1.551   0.624 -0.4969  0.3496  0.0497
  297MOL0     C40014   0.014   1.591   0.542 -0.5294 -0.0548 -0.0146
  297MOL0     C40015   0.429   1.618   0.371 -0.5565 -0.1829  0.5819
  297MOL0     C40016   0.532   1.717   0.384 -0.2045  0.2390  0.4814
  297MOL0     C40017   0.661   1.702   0.330 -0.1080 -0.2182  0.1391
  297MOL0     C40018   0.689   1.588   0.256 -0.0137 -0.3268 -0.0575
  297MOL0     O40019   0.802   1.568   0.190  0.3296 -0.4327 -0.5605
  297MOL0     C40020   0.878   1.682   0.139 -0.0166 -0.2322  0.0214
  297MOL0     C40021   0.837   1.722  -0.008 -1.2367 -0.6491 -0.5989
  297MOL0     C40022   0.897   1.618  -0.118  0.7548  0.0390  0.0815
  297MOL0     C40023   0.789   1.525  -0.167  0.5458  0.2363 -0.0249
  297MOL0     C40024   0.843   1.449  -0.278 -0.6223 -1.1196 -0.9049
  297MOL0     C40025   0.897   1.388  -0.365 -0.5150  0.0800 -0.9867
  297MOL0     C40026   0.585   1.486   0.244 -1.0835 -0.5873 -0.1140
  297MOL0     C40027   0.460   1.497   0.311  0.5326  0.0310  0.2491
  297MOL0     H40028   0.120   1.292   0.410 -0.4388 -0.8919 -0.4906
  297MOL0     H40029  -0.069   1.225   0.559  1.2532 -0.6679  0.0141
  297MOL0     H40030  -0.235   1.503   0.860 -0.1417 -0.3511  0.6921
  297MOL0     H40031  -0.339   1.513   0.720  0.5601 -1.1767 -1.4307
  297MOL0     H40032  -0.420   1.426   0.956  2.5712  0.6407 -0.1308
  297MOL0     H40033  -0.479   1.354   0.807 -0.1634  0.3808  1.0236
  297MOL0     H40034  -0.442   1.186   0.990 -0.0649 -0.9492 -0.6917
  297MOL0     H40035  -0.318   1.162   0.871 -0.5044  0.1407 -0.2344
  297MOL0     H40036  -0.157   1.294   0.971  0.4744  0.6335 -0.2559
  297MOL0     H40037  -0.256   1.349   1.115 -0.6580 -0.6514 -0.5052
  297MOL0     H40038  -0.219   1.057   1.063 -1.5069  1.4194 -0.7362
  297MOL0     H40039  -0.087   1.147   1.140  0.1407  3.4803  0.7303
  297MOL0     H40040  -0.259   1.197   1.328 -0.4458  1.2303 -0.2856
  297MOL0     H40041  -0.382   1.140   1.230  0.2295  1.4114  0.1754
  297MOL0     H40042  -0.225   0.908   1.235  1.6584  0.8028  0.4903
  297MOL0     H40043  -0.194   0.981   1.395 -1.6792  0.7055  1.0373
  297MOL0     H40044  -0.474   0.941   1.301  0.7905  0.2080 -0.1978
  297MOL0     H40045  -0.437   1.014   1.443 -2.1096 -0.7868  0.0959
  297MOL0     H40046  -0.274   0.664   1.321  0.4680 -4.0152  2.0308
  297MOL0     H40047  -0.467   0.424   1.593  0.7464 -1.4006 -0.0564
  297MOL0     H40048  -0.425   0.395   1.433  1.1415 -2.4020  1.8045
  297MOL0     H40049  -0.178   0.434   1.474 -1.0423  0.3778 -1.0207
  297MOL0     H40050  -0.254   0.303   1.570 -0.1125  1.1786 -0.3776
  297MOL0     H40051  -0.173   0.579   1.664 -0.2430  1.0870  2.0388
  297MOL0     H40052  -0.101   0.425   1.702 -0.3081 -1.7285 -2.5141
  297MOL0     H40053  -0.318   0.356   1.805 -0.7270 -0.2391  0.9124
  297MOL0     H40054  -0.366   0.527   1.795  0.2064  0.2337  0.9345
  297MOL0     H40055   0.015   0.472   2.034  1.9287 -0.1436 -2.1852
  297MOL0     H40056   0.187   0.573   2.180  0.0850 -0.8438 -2.3694
  297MOL0     H40057   0.268   0.665   2.062 -0.5126 -0.5216 -0.8717
  297MOL0     H40058   0.198   0.752   2.197 -2.3059  0.2065  0.9006
  297MOL0     H40059  -0.027   1.242   2.121  1.1908 -0.5800  1.2525
  297MOL0     H40060   0.044   1.492   2.091  0.9635  1.0610 -0.1538
  297MOL0     H40061   0.034   1.572   1.754  4.2003 -1.4502 -0.6606
  297MOL0     H40062   0.016   1.680   1.900  0.4178  3.3124 -1.8419
  297MOL0     H40063   0.069   1.830   1.753 -0.5209 -1.5977  3.2204
  297MOL0     H40064   0.219   1.796   1.832 -0.3242  2.8399 -1.6641
  297MOL0     H40065   0.175   1.696   1.551 -0.0690  4.1549 -1.6625
  297MOL0     H40066   0.313   1.656   1.655  0.4953 -1.3360 -5.1292
  297MOL0     H40067   0.214   1.932   1.565 -1.9402 -2.3068  2.4522
  297MOL0     H40068   0.362   1.901   1.677  1.9642 -0.0461 -0.7217
  297MOL0     H40069   0.334   1.796   1.384  2.2684 -0.7603 -0.7926
  297MOL0     H40070   0.464   1.766   1.502 -1.7580 -0.9220  0.9138
  297MOL0     H40071   0.393   2.046   1.390 -0.9955  0.0522  1.5962
  297MOL0     H40072   0.530   2.007   1.481  1.6847  0.5212 -2.6542
  297MOL0     H40073   0.474   1.884   1.193 -2.0856  2.2784 -0.0559
  297MOL0     H40074   0.593   1.833   1.291 -2.9322 -0.9581  0.7324
  297MOL0     H40075   0.673   2.000   1.123 -2.5244 -2.2135 -0.6179
  297MOL0     H40076   0.732   2.023   1.279 -0.2811 -1.3633  1.0449
  297MOL0     H40077   0.289   1.373   1.767 -0.2971  0.2754  0.2051
  297MOL0     H40078   0.226   1.140   1.791  1.9429  1.2544 -0.3622
  297MOL0     H40079  -0.159   0.921   1.906 -1.7349 -0.0743  1.2677
  297MOL0     H40080  -0.296   0.732   1.880 -0.1528 -1.5218  1.1901
  297MOL0     H40081  -0.141   1.630   0.675 -0.3775  1.1048 -0.9566
  297MOL0     H40082   0.037   1.697   0.549  0.8448 -0.4505  4.4046
  297MOL0     H40083   0.495   1.801   0.442 -1.3088 -0.5295  0.9156
  297MOL0     H40084   0.741   1.772   0.347  1.2344 -1.6203 -0.1811
  297MOL0     H40085   0.881   1.776   0.195  2.1003  1.7359 -3.0825
  297MOL0     H40086   0.981   1.644   0.143 -0.0232 -0.3103 -0.4796
  297MOL0     H40087   0.886   1.815  -0.038  1.9141 -1.7793  0.5986
  297MOL0     H40088   0.729   1.739  -0.010 -1.2022 -0.2923  0.2126
  297MOL0     H40089   0.989   1.567  -0.089  1.0009  0.3005 -0.2420
  297MOL0     H40090   0.922   1.686  -0.200  1.9698 -2.4339 -1.7239
  297MOL0     H40091   0.699   1.583  -0.187  0.7701  1.5714  2.4416
  297MOL0     H40092   0.770   1.462  -0.080  1.8021 -0.9560 -0.5812
  297MOL0     H40093   0.949   1.327  -0.437  2.2882 -1.5140  2.1033
  297MOL0     H40094   0.602   1.401   0.180  0.6260 -0.0884 -0.3929
  297MOL0     H40095   0.394   1.411   0.304  0.1293  0.0433  2.7905
  298MOL0     O40096   8.846   6.320   7.037  0.1419 -0.4581 -0.1981
  298MOL0     C40097   8.897   6.429   7.065  0.6127 -0.9935  0.7993
  298MOL0     O40098   8.884   6.501   7.183  0.1367 -0.0643  0.2231
  298MOL0     C40099   8.805   6.441   7.282  0.7607  0.2116 -1.2311
  298MOL0     C40100   8.868   6.354   7.379  0.1624 -0.1207  0.2120
  298MOL0     C40101   8.797   6.289   7.485  0.9431 -0.3856 -0.3350
  298MOL0     C40102   8.661   6.305   7.496  0.1069  0.2525 -1.0255
  298MOL0     O40103   8.610   6.221   7.605  0.2068 -0.0085  0.2234
  298MOL0     C40104   8.465   6.233   7.631 -0.5976  0.3517  0.2862
  298MOL0     C40105   8.425   6.125   7.733 -0.0133 -0.0134  0.0245
  298MOL0     C40106   8.384   5.995   7.648  0.2693 -0.8388 -0.2326
  298MOL0     C40107   8.370   5.880   7.749 -0.6578 -0.5879 -0.0495
  298MOL0     C40108   8.271   5.781   7.687 -0.0514  0.6056  0.2491
  298MOL0     C40109   8.338   5.709   7.564 -0.4941 -0.8715 -0.0332
  298MOL0     C40110   8.259   5.577   7.536 -0.2624 -0.4855 -0.8462
  298MOL0     C40111   8.294   5.537   7.390 -0.3471 -0.3417  0.7186
  298MOL0     N40112   8.254   5.618   7.280 -0.9383 -0.5498  0.5926
  298MOL0     C40113   8.143   5.703   7.283 -0.8833 -0.0244 -0.3589
  298MOL0     C40114   8.138   5.739   7.156  0.7857  0.2629 -0.5820
  298MOL0     C40115   8.042   5.841   7.097  0.4106  0.1536  0.5286
  298MOL0     C40116   8.085   5.915   6.969  0.3249  0.0946  0.0794
  298MOL0     C40117   7.971   6.018   6.926  0.2057 -0.3419  0.1121
  298MOL0     C40118   8.030   6.121   6.824  0.1202 -0.1276 -0.4855
  298MOL0     O40119   8.023   6.054   6.698 -0.5284  1.1559 -0.3022
  298MOL0     C40120   8.027   6.133   6.583  0.0102 -0.5125 -1.0610
  298MOL0     C40121   7.978   6.083   6.471  0.0566  0.2140  0.0464
  298MOL0     C40122   7.997   6.151   6.345 -1.3727  0.9987  0.1800
  298MOL0     C40123   7.955   6.070   6.220  0.0535 -0.4197 -0.0128
  298MOL0     C40124   8.057   6.281   6.347  0.0570  0.4407  0.0587
  298MOL0     C40125   8.069   6.362   6.216 -0.1872  0.5455 -0.2486
  298MOL0     O40126   8.080   6.499   6.243 -0.0290 -0.2174 -0.0712
  298MOL0     C40127   8.088   6.582   6.129 -1.1823 -0.5319  0.3194
  298MOL0     C40128   8.018   6.704   6.152  1.1398  0.1581 -0.0115
  298MOL0     C40129   8.007   6.803   6.049 -0.5925  0.3470 -0.8684
  298MOL0     C40130   8.061   6.772   5.920  0.5846 -0.4608 -0.1451
  298MOL0     O40131   8.054   6.850   5.808 -0.4231  0.9626  0.2289
  298MOL0     C40132   7.951   6.942   5.802 -0.5576 -0.2320  0.0200
  298MOL0     C40133   7.934   7.025   5.671 -0.4644  0.4574 -0.2799
  298MOL0     C40134   7.851   7.152   5.687 -0.7454  0.8255 -0.7508
  298MOL0     C40135   7.883   7.268   5.585  0.3791  0.5397  0.4903
  298MOL0     C40136   7.805   7.277   5.457 -0.0865 -0.1455 -0.2411
  298MOL0     C40137   7.816   7.151   5.374  0.0342  0.1834 -0.2224
  298MOL0     C40138   7.782   7.170   5.224  0.0947 -0.1826 -0.1201
  298MOL0     C40139   7.831   7.056   5.133 -0.0541 -0.4951 -0.2309
  298MOL0    Cl40140   7.758   7.082   4.977 -0.1997 -0.0323  0.3677
  298MOL0     C40141   8.127   6.652   5.900  0.1963  0.4944 -0.2067
  298MOL0     C40142   8.151   6.562   6.007 -0.2805 -0.0192 -0.5589
  298MOL0     O40143   8.070   6.306   6.108  0.6819 -0.0181 -0.2104
  298MOL0     C40144   8.091   6.337   6.463  0.4451 -0.3677 -0.5177
  298MOL0     C40145   8.082   6.267   6.585  0.7693  0.6654 -0.8462
  298MOL0     N40146   8.242   5.687   7.075  0.2566 -0.3196 -0.0852
  298MOL0     N40147   8.320   5.624   7.158 -0.2083  0.1066  0.1998
  298MOL0     C40148   8.599   6.390   7.403  0.9752 -0.2018 -1.1594
  298MOL0     C40149   8.665   6.454   7.299 -0.4729  0.1937  0.2257
  298MOL0     C40150   8.961   6.496   6.950 -0.2707  0.0618  0.2489
  298MOL0     C40151   9.019   6.420   6.851  0.5161  0.3608  0.8303
  298MOL0     C40152   9.053   6.477   6.728 -0.0854 -0.8183  0.3999
  298MOL0     C40153   9.036   6.612   6.707  0.2324 -0.6717  0.9430
  298MOL0     O40154   9.045   6.659   6.572 -1.8273 -0.1842 -0.0373
  298MOL0     C40155   9.094   6.796   6.534 -0.4030  0.4293 -0.3632
  298MOL0     C40156   9.251   6.797   6.547  0.8387 -0.3426  0.4854
  298MOL0     C40157   9.291   6.931   6.476  0.4432 -0.1520 -0.0724
  298MOL0     C40158   9.439   6.934   6.444  0.0573 -0.3208 -0.2425
  298MOL0     C40159   9.453   7.057   6.366  0.2228  0.6069 -0.6099
  298MOL0     C40160   9.459   7.159   6.294 -0.6936 -1.1897  0.7565
  298MOL0     C40161   8.978   6.690   6.808  0.7477 -0.7143  0.5650
  298MOL0     C40162   8.938   6.628   6.930  0.2649 -0.1023  1.0039
  298MOL0     H40163   8.973   6.341   7.354  0.3824 -0.1374  1.1116
  298MOL0     H40164   8.853   6.238   7.562  1.6821  2.0345  0.8464
  298MOL0     H40165   8.437   6.329   7.675 -2.5909 -1.5825  3.6892
  298MOL0     H40166   8.402   6.210   7.544 -0.6250 -2.1045  0.8741
  298MOL0     H40167   8.505   6.106   7.806 -0.3936  1.2456  0.8001
  298MOL0     H40168   8.330   6.151   7.780 -2.0944  0.1216 -3.8453
  298MOL0     H40169   8.289   6.024   7.604  0.3427 -0.3891 -0.1090
  298MOL0     H40170   8.464   5.975   7.576 -0.7514  1.0349 -2.0034
  298MOL0     H40171   8.465   5.827   7.755 -0.4395 -0.3393 -1.1176
  298MOL0     H40172   8.345   5.920   7.847  1.8664 -0.6068  0.6692
  298MOL0     H40173   8.243   5.706   7.762  3.0770 -0.6129  0.3564
  298MOL0     H40174   8.172   5.823   7.665 -0.5818 -0.3636  0.7005
  298MOL0     H40175   8.333   5.790   7.490  1.1330  0.9336  1.7167
  298MOL0     H40176   8.442   5.688   7.589 -0.1183  2.9132  2.5051
  298MOL0     H40177   8.278   5.509   7.620  1.8315  1.6301  0.5447
  298MOL0     H40178   8.151   5.592   7.541 -0.0394  1.7893 -1.5978
  298MOL0     H40179   8.250   5.437   7.383  0.5177 -0.6799 -0.1625
  298MOL0     H40180   8.404   5.544   7.392 -0.4378  1.7452  1.4181
  298MOL0     H40181   8.082   5.725   7.370 -1.1244 -1.1038 -0.2377
  298MOL0     H40182   7.945   5.797   7.071 -1.1199  3.9309 -0.9074
  298MOL0     H40183   8.022   5.917   7.172  0.2658  2.8078 -2.0180
  298MOL0     H40184   8.105   5.844   6.889  0.2537  0.6628 -0.4499
  298MOL0     H40185   8.181   5.965   6.986  0.5827 -0.9650  2.0307
  298MOL0     H40186   7.950   6.074   7.018  0.9892 -1.0024  0.7079
  298MOL0     H40187   7.881   5.966   6.894 -0.2715 -0.3065  1.3530
  298MOL0     H40188   8.127   6.166   6.846 -1.2256  2.3487  0.9139
  298MOL0     H40189   7.960   6.205   6.834 -0.6712 -0.7300 -0.7930
  298MOL0     H40190   7.929   5.986   6.464  2.8444 -1.4902  2.0479
  298MOL0     H40191   7.865   6.124   6.189 -0.3241  0.0148  1.7338
  298MOL0     H40192   8.042   6.070   6.153 -0.0705 -1.2823 -0.1847
  298MOL0     H40193   7.941   5.963   6.237 -4.0674 -0.1801 -0.8382
  298MOL0     H40194   7.968   6.732   6.244 -2.4155 -0.8170 -1.4887
  298MOL0     H40195   7.965   6.896   6.084  2.7391  1.3772  0.8242
  298MOL0     H40196   7.852   6.898   5.812 -2.2967  2.6405 -2.8069
  298MOL0     H40197   7.970   7.009   5.885 -1.8140  0.2308 -0.0489
  298MOL0     H40198   8.037   7.050   5.644  0.5500  0.7352  3.3006
  298MOL0     H40199   7.895   6.955   5.596 -0.1021  0.1695 -0.2049
  298MOL0     H40200   7.890   7.203   5.775  1.9079  1.6549 -2.3058
  298MOL0     H40201   7.750   7.120   5.715 -1.7142  2.8733 -1.6397
  298MOL0     H40202   7.884   7.368   5.629  0.6012  0.9290 -0.3657
  298MOL0     H40203   7.987   7.243   5.559  1.2641 -0.7446  4.5699
  298MOL0     H40204   7.854   7.353   5.395 -2.9351  1.5969 -0.5364
  298MOL0     H40205   7.701   7.306   5.473  0.6777  1.4270  2.5040
  298MOL0     H40206   7.919   7.114   5.372  0.3385  1.0007 -1.7984
  298MOL0     H40207   7.736   7.080   5.397 -0.6821  0.4891 -1.6382
  298MOL0     H40208   7.817   7.266   5.185  0.1640  0.2261  0.9254
  298MOL0     H40209   7.673   7.167   5.213  0.0450 -3.0092  0.3288
  298MOL0     H40210   7.791   6.966   5.181  0.1474  0.7886  2.5386
  298MOL0     H40211   7.939   7.054   5.118 -0.2353  0.8642 -1.9866
  298MOL0     H40212   8.167   6.622   5.804 -1.3995 -0.6426 -0.5545
  298MOL0     H40213   8.215   6.477   5.985  1.2007  1.5122 -2.5149
  298MOL0     H40214   8.132   6.437   6.474  1.0894 -0.8467  2.1240
  298MOL0     H40215   8.119   6.315   6.675 -1.8449  1.8100 -0.2921
  298MOL0     H40216   8.491   6.391   7.415  1.1403 -0.2916  0.5797
  298MOL0     H40217   8.605   6.498   7.221 -3.2268  1.0469  2.6584
  298MOL0     H40218   9.031   6.312   6.843 -1.5841  0.1574 -0.4649
  298MOL0     H40219   9.086   6.432   6.635  1.0966  0.8046 -0.0205
  298MOL0     H40220   9.065   6.813   6.430  0.1634  0.7425 -0.4762
  298MOL0     H40221   9.049   6.871   6.599 -1.8985 -0.3865 -0.4167
  298MOL0     H40222   9.291   6.711   6.491  0.6650 -1.3397  1.8369
  298MOL0     H40223   9.283   6.786   6.651  1.0729 -0.2636  0.4240
  298MOL0     H40224   9.258   7.007   6.547 -1.0100 -0.9010  0.0961
  298MOL0     H40225   9.247   6.936   6.376  0.2308  1.8212  0.0895
  298MOL0     H40226   9.492   6.854   6.391 -1.1087 -1.8133  0.7549
  298MOL0     H40227   9.500   6.965   6.530 -1.0065  1.7130 -0.1520
  298MOL0     H40228   9.477   7.226   6.213 -1.7120 -1.8925 -0.0669
  298MOL0     H40229   8.969   6.795   6.782 -0.9840 -0.1067  3.2826
  298MOL0     H40230   8.905   6.695   7.009  1.5431  1.6454  0.1189
  299MOL0     O40231   2.195   1.792   7.000  0.9316  0.4048 -0.2866
  299MOL0     C40232   2.316   1.806   7.009 -0.0597  1.3476 -0.2474
  299MOL0     O40233   2.408   1.738   6.939 -0.2081 -0.2355  0.2977
  299MOL0     C40234   2.380   1.691   6.811 -0.5130  0.3924  0.0920
  299MOL0     C40235   2.428   1.567   6.765  1.2751 -0.0119 -0.2398
  299MOL0     C40236   2.403   1.519   6.636 -0.1887  0.8716 -0.1853
  299MOL0     C40237   2.342   1.597   6.539  0.2804 -0.0999  0.0280
  299MOL0     O40238   2.342   1.544   6.416 -0.1057  0.1044 -0.1630
  299MOL0     C40239   2.333   1.630   6.300  0.1882  0.2230 -0.7757
  299MOL0     C40240   2.191   1.655   6.261 -0.9863 -0.6406 -0.2867
  299MOL0     C40241   2.179   1.717   6.120  0.0179 -0.2155  0.2857
  299MOL0     C40242   2.028   1.734   6.105 -0.2779  0.5268  0.9612
  299MOL0     C40243   1.979   1.759   5.961  0.0970  0.8557 -1.0681
  299MOL0     C40244   1.822   1.754   5.956 -0.3127 -0.3006  0.3545
  299MOL0     C40245   1.784   1.837   5.834  0.6328  0.3651  0.0857
  299MOL0     C40246   1.632   1.808   5.801 -0.9643  0.2489 -0.0177
  299MOL0     N40247   1.599   1.877   5.671 -0.3612  1.0517 -0.1183
  299MOL0     C40248   1.659   1.977   5.599 -0.1288 -0.3140 -0.0374
  299MOL0     C40249   1.567   2.039   5.521  0.9129  0.2829 -0.4749
  299MOL0     C40250   1.562   2.171   5.437 -0.1072  0.2258  0.0415
  299MOL0     C40251   1.646   2.147   5.313 -0.1293 -0.0574 -0.9886
  299MOL0     C40252   1.625   2.251   5.197  0.5432  0.3155 -0.5616
  299MOL0     C40253   1.699   2.381   5.228  0.7660 -0.5463  0.2875
  299MOL0     O40254   1.838   2.366   5.254  0.1490  0.0392  0.8973
  299MOL0     C40255   1.906   2.481   5.287 -0.1168  0.5848  0.9212
  299MOL0     C40256   1.852   2.596   5.357 -0.2990  0.2347  0.2278
  299MOL0     C40257   1.931   2.704   5.385  0.8320 -0.2069  0.8194
  299MOL0     C40258   1.877   2.802   5.478  1.7014  0.4662 -0.9030
  299MOL0     C40259   2.064   2.712   5.336 -0.9976  0.1268  0.4035
  299MOL0     C40260   2.159   2.827   5.355  0.5141  0.2737 -1.0266
  299MOL0     O40261   2.241   2.877   5.251  0.6867  0.1114 -0.1609
  299MOL0     C40262   2.302   2.993   5.262 -0.8928 -0.0963  0.3718
  299MOL0     C40263   2.261   3.107   5.337 -0.5411 -0.2971  0.0046
  299MOL0     C40264   2.351   3.223   5.339  0.8297 -0.1263 -0.1087
  299MOL0     C40265   2.472   3.225   5.262 -1.2693 -0.3052 -0.1480
  299MOL0     O40266   2.554   3.332   5.282  0.3801  0.2525 -0.3975
  299MOL0     C40267   2.658   3.379   5.196  0.3690  0.0374 -0.1886
  299MOL0     C40268   2.695   3.530   5.225  0.1565 -0.4810 -0.3358
  299MOL0     C40269   2.820   3.574   5.143 -0.6295  0.1574  0.8082
  299MOL0     C40270   2.945   3.551   5.230  0.0756  1.2375 -0.0665
  299MOL0     C40271   3.008   3.670   5.297  0.5190 -0.4740  0.9493
  299MOL0     C40272   2.906   3.759   5.384 -1.3839  0.2231  0.5627
  299MOL0     C40273   3.002   3.877   5.435 -0.1796 -0.2205 -0.1299
  299MOL0     C40274   3.066   3.990   5.339  0.0822  0.0625 -0.5500
  299MOL0    Cl40275   3.172   4.100   5.423 -0.1533 -0.2051 -0.1061
  299MOL0     C40276   2.504   3.109   5.182  0.8136 -0.1300  0.1107
  299MOL0     C40277   2.422   3.003   5.187 -0.1875  0.2337 -0.2278
  299MOL0     O40278   2.155   2.872   5.470 -0.1151  0.1813  0.4172
  299MOL0     C40279   2.120   2.603   5.271 -0.4792  0.2695 -0.2902
  299MOL0     C40280   2.039   2.488   5.244  0.0676  0.9312 -0.6623
  299MOL0     N40281   1.451   1.960   5.537  0.3063 -0.8356 -0.4618
  299MOL0     N40282   1.471   1.872   5.629 -0.3067 -0.2114 -0.0698
  299MOL0     C40283   2.300   1.726   6.572 -0.1394 -0.4491 -1.2463
  299MOL0     C40284   2.318   1.767   6.713 -0.1901  0.3442 -0.3475
  299MOL0     C40285   2.363   1.892   7.122 -0.6800  0.8489 -0.5172
  299MOL0     C40286   2.287   1.989   7.182 -1.1281 -0.3808 -0.0917
  299MOL0     C40287   2.343   2.063   7.287 -0.3050 -0.0271 -0.3443
  299MOL0     C40288   2.478   2.049   7.335 -0.0819  0.5644  0.6567
  299MOL0     O40289   2.515   2.141   7.426  0.5699 -0.0722 -0.8341
  299MOL0     C40290   2.643   2.132   7.493  0.4412  0.1318 -0.3315
  299MOL0     C40291   2.636   2.058   7.629 -0.2372 -0.5869 -0.5220
  299MOL0     C40292   2.753   2.080   7.731  0.1812  0.0627  0.3454
  299MOL0     C40293   2.894   2.040   7.673 -0.2076 -0.0265 -0.9634
  299MOL0     C40294   3.005   2.063   7.776  0.3135 -0.2146 -0.6778
  299MOL0     C40295   3.090   2.105   7.855 -1.2683 -0.5892  0.6963
  299MOL0     C40296   2.547   1.941   7.288  0.5712  0.8685  0.3803
  299MOL0     C40297   2.491   1.853   7.188 -0.6598  0.3880 -0.4702
  299MOL0     H40298   2.482   1.513   6.842  1.0459 -2.3503 -1.6362
  299MOL0     H40299   2.428   1.414   6.624  1.1324  1.2872 -1.2500
  299MOL0     H40300   2.380   1.729   6.304  0.3692  0.1037  0.5030
  299MOL0     H40301   2.387   1.571   6.226  2.4588 -3.3160  3.2377
  299MOL0     H40302   2.140   1.558   6.264  1.8148 -2.2216  3.8118
  299MOL0     H40303   2.143   1.717   6.337 -0.6427 -1.0793  0.2888
  299MOL0     H40304   2.228   1.813   6.103 -1.9055  0.6085 -0.8560
  299MOL0     H40305   2.223   1.650   6.045 -0.1084 -0.0531  0.0661
  299MOL0     H40306   1.985   1.637   6.133 -0.1878  0.0682 -0.4012
  299MOL0     H40307   1.980   1.808   6.169 -2.1530  1.4318 -1.3355
  299MOL0     H40308   2.031   1.853   5.939  1.0547  0.5488 -0.2111
  299MOL0     H40309   2.021   1.688   5.889  0.0021 -0.5166  0.1903
  299MOL0     H40310   1.785   1.652   5.965  2.1847 -1.5943 -2.1895
  299MOL0     H40311   1.785   1.814   6.039  0.2766  1.3407 -0.5155
  299MOL0     H40312   1.788   1.945   5.851 -2.4335  0.1672  3.0552
  299MOL0     H40313   1.850   1.814   5.750 -2.1621  2.1090 -2.8320
  299MOL0     H40314   1.582   1.864   5.880 -0.8037  0.0234  0.2430
  299MOL0     H40315   1.615   1.700   5.796 -0.2407  0.1557 -0.6700
  299MOL0     H40316   1.761   2.013   5.599  1.4411 -3.8333  4.1242
  299MOL0     H40317   1.459   2.197   5.410  0.2549  3.2052  1.2333
  299MOL0     H40318   1.595   2.252   5.502 -1.9018  0.6960  0.4244
  299MOL0     H40319   1.605   2.053   5.275 -3.2101  1.6434 -2.2091
  299MOL0     H40320   1.752   2.129   5.333 -0.0631 -3.9203 -3.6730
  299MOL0     H40321   1.518   2.275   5.195 -0.0521 -1.4207  3.0655
  299MOL0     H40322   1.655   2.201   5.104 -1.5003 -0.2169 -0.9964
  299MOL0     H40323   1.639   2.422   5.310  1.7991  4.3765 -1.0700
  299MOL0     H40324   1.688   2.445   5.140  0.8438 -1.7692 -0.6358
  299MOL0     H40325   1.761   2.580   5.414  0.6799  1.0732  2.1183
  299MOL0     H40326   1.768   2.806   5.487  1.3144 -1.4203 -3.3813
  299MOL0     H40327   1.926   2.795   5.575 -1.1394  3.4064  0.9468
  299MOL0     H40328   1.910   2.898   5.439  2.5486  0.4260 -0.2977
  299MOL0     H40329   2.165   3.108   5.388 -2.3558  1.8084 -3.1713
  299MOL0     H40330   2.334   3.321   5.384  1.5570  1.2418 -2.5904
  299MOL0     H40331   2.745   3.315   5.214  0.6564  1.3520  4.3353
  299MOL0     H40332   2.626   3.368   5.092 -2.5857  0.7625  0.5449
  299MOL0     H40333   2.607   3.593   5.209  0.3961 -0.0614 -0.0251
  299MOL0     H40334   2.715   3.559   5.328 -2.0665 -0.0080  0.0163
  299MOL0     H40335   2.820   3.674   5.099  3.1450 -1.2785 -3.2992
  299MOL0     H40336   2.828   3.514   5.051 -0.9348  1.2553  0.0509
  299MOL0     H40337   2.914   3.470   5.297  1.8415  0.8161  0.2795
  299MOL0     H40338   3.019   3.488   5.181 -1.4302  0.6705 -1.7277
  299MOL0     H40339   3.053   3.733   5.220 -1.2036  0.9505  1.0311
  299MOL0     H40340   3.094   3.648   5.361  1.4581  3.6909  1.4142
  299MOL0     H40341   2.825   3.799   5.323 -0.3611 -0.9124 -1.6454
  299MOL0     H40342   2.871   3.708   5.475  2.2319 -1.3123  1.2528
  299MOL0     H40343   3.081   3.821   5.485 -1.5316  0.4587  2.9866
  299MOL0     H40344   2.940   3.927   5.510  0.5399  2.6172 -1.3027
  299MOL0     H40345   2.992   4.054   5.290  0.5611  0.6941 -0.4702
  299MOL0     H40346   3.118   3.951   5.251 -1.6672  1.1189 -2.1309
  299MOL0     H40347   2.593   3.093   5.122 -0.6626 -3.4098 -1.4607
  299MOL0     H40348   2.446   2.910   5.137  2.2574  0.3828  0.5610
  299MOL0     H40349   2.216   2.607   5.220 -1.3384 -0.1024 -2.0263
  299MOL0     H40350   2.080   2.398   5.199  2.5198  0.9543  1.3105
  299MOL0     H40351   2.275   1.808   6.506  3.0731  4.2796  2.6663
  299MOL0     H40352   2.299   1.870   6.742  1.0955 -0.5392  4.6928
  299MOL0     H40353   2.191   2.030   7.151 -0.4529  1.5816  0.2330
  299MOL0     H40354   2.293   2.150   7.328  2.1664  0.7968  1.0996
  299MOL0     H40355   2.720   2.096   7.423 -1.0669 -1.3308 -1.3219
  299MOL0     H40356   2.678   2.233   7.516 -1.2393  0.1679  2.5468
  299MOL0     H40357   2.619   1.950   7.621  1.6054 -0.8173 -2.0497
  299MOL0     H40358   2.543   2.103   7.665 -1.6207 -1.7845 -2.3731
  299MOL0     H40359   2.721   2.028   7.821 -0.0894 -0.4099 -0.0207
  299MOL0     H40360   2.759   2.186   7.759 -3.2654  0.4683 -0.0088
  299MOL0     H40361   2.924   2.100   7.587 -0.4569  0.6429 -0.5917
  299MOL0     H40362   2.896   1.934   7.647  1.1750 -0.3463  0.3500
  299MOL0     H40363   3.171   2.114   7.924 -0.6032 -0.5418 -0.0808
  299MOL0     H40364   2.639   1.904   7.332 -0.3235 -1.7616  0.1999
  299MOL0     H40365   2.537   1.762   7.152 -3.7254 -0.6422 -2.1357
  300MOL0     O40366   3.879   1.116   9.272 -0.5781 -0.6385  0.1323
  300MOL0     C40367   3.851   1.091   9.152  0.0689  0.3665  0.0009
  300MOL0     O40368   3.903   0.989   9.075  0.0547  0.3325 -0.5899
  300MOL0     C40369   4.020   0.920   9.114 -0.9807 -0.6494  0.0244
  300MOL0     C40370   4.130   0.925   9.033  1.4980 -0.0563  1.3305
  300MOL0     C40371   4.243   0.851   9.069  0.5048 -0.5984 -0.1288
  300MOL0     C40372   4.260   0.782   9.189 -0.1501 -0.3491 -0.9283
  300MOL0     O40373   4.358   0.703   9.218 -0.5661  0.6244  0.1031
  300MOL0     C40374   4.478   0.712   9.147 -0.1268 -0.0987  0.8844
  300MOL0     C40375   4.593   0.611   9.185  0.8220  0.0683  0.2872
  300MOL0     C40376   4.712   0.616   9.089  0.3430 -1.0288  0.3460
  300MOL0     C40377   4.770   0.479   9.058 -0.4940 -0.1027  0.4982
  300MOL0     C40378   4.880   0.488   8.942 -0.3336  0.4094 -0.2426
  300MOL0     C40379   4.941   0.345   8.929  0.5451 -0.4430 -0.4472
  300MOL0     C40380   5.065   0.329   8.841 -0.4608  0.2415 -0.5602
  300MOL0     C40381   5.063   0.186   8.786 -0.5237  0.9513  0.2009
  300MOL0     N40382   5.199   0.153   8.728 -0.1144 -0.6223 -0.2788
  300MOL0     C40383   5.302   0.118   8.808 -0.3541  0.7821 -0.1572
  300MOL0     C40384   5.396   0.070   8.721 -0.8630  0.3326  0.4330
  300MOL0     C40385   5.534   0.003   8.762 -0.4794 -0.1273 -0.8948
  300MOL0     C40386   5.519  -0.146   8.744 -0.3584 -0.0666  0.7970
  300MOL0     C40387   5.640  -0.238   8.775 -0.1155  0.8772  0.3844
  300MOL0     C40388   5.589  -0.381   8.776 -0.9377 -0.2004  0.3945
  300MOL0     O40389   5.528  -0.418   8.902  0.5464 -0.0708  0.0786
  300MOL0     C40390   5.500  -0.555   8.923  0.3897 -0.1190  0.9070
  300MOL0     C40391   5.482  -0.598   9.051 -0.0609 -0.5124  0.0567
  300MOL0     C40392   5.449  -0.729   9.081 -0.1901  0.2615  0.8124
  300MOL0     C40393   5.452  -0.767   9.222 -0.2768  0.0787 -0.8544
  300MOL0     C40394   5.414  -0.826   8.973  0.1191  0.4860 -1.2136
  300MOL0     C40395   5.356  -0.969   8.995 -0.0598 -0.3575  1.0750
  300MOL0     O40396   5.354  -1.052   8.888 -0.1393 -0.1174 -0.5891
  300MOL0     C40397   5.323  -1.185   8.926  1.0491  0.0476  0.6505
  300MOL0     C40398   5.194  -1.243   8.918 -0.0397 -0.3928  0.0451
  300MOL0     C40399   5.173  -1.367   8.986 -0.1447  0.4887  0.5186
  300MOL0     C40400   5.273  -1.424   9.066  0.3639  0.1359  0.3796
  300MOL0     O40401   5.259  -1.520   9.158  0.4811 -0.0551 -0.4581
  300MOL0     C40402   5.132  -1.544   9.226  0.2886 -0.0830 -0.5188
  300MOL0     C40403   5.085  -1.677   9.189 -0.7054 -0.0157 -0.2179
  300MOL0     C40404   4.971  -1.743   9.257  0.3489  0.0294  0.2461
  300MOL0     C40405   4.959  -1.887   9.196  0.2556 -0.7865 -0.3045
  300MOL0     C40406   4.854  -1.965   9.268 -0.3641  0.4055 -0.0048
  300MOL0     C40407   4.895  -2.025   9.399  0.1719 -0.1307 -0.5631
  300MOL0     C40408   4.807  -2.138   9.468 -0.0437  0.3544 -0.0496
  300MOL0     C40409   4.787  -2.271   9.374 -0.4185  0.0560 -0.3316
  300MOL0    Cl40410   4.937  -2.347   9.366  0.1913 -0.1511 -0.0969
  300MOL0     C40411   5.401  -1.362   9.063 -0.0315 -0.4867 -0.2021
  300MOL0     C40412   5.428  -1.246   8.987  0.6256  0.0664  0.6810
  300MOL0     O40413   5.304  -0.982   9.108  0.8409 -1.2649  0.8100
  300MOL0     C40414   5.431  -0.771   8.842 -0.4884  0.5035  0.3301
  300MOL0     C40415   5.475  -0.640   8.811  0.6651  0.4896  0.3862
  300MOL0     N40416   5.355   0.102   8.596  0.1767 -0.3343  0.0028
  300MOL0     N40417   5.236   0.153   8.604 -0.8379 -0.6900  0.0625
  300MOL0     C40418   4.148   0.783   9.277 -0.7474 -1.1512  1.7988
  300MOL0     C40419   4.033   0.853   9.234 -0.4033 -1.3062 -0.7520
  300MOL0     C40420   3.735   1.174   9.101  0.2125  0.0169  0.4203
  300MOL0     C40421   3.669   1.267   9.186 -0.1099 -0.5284 -0.5522
  300MOL0     C40422   3.575   1.352   9.134  0.3940 -0.3021 -0.3265
  300MOL0     C40423   3.549   1.348   9.000 -0.1651 -1.3993  0.2299
  300MOL0     O40424   3.475   1.442   8.949  0.0035 -0.0383  0.8413
  300MOL0     C40425   3.378   1.507   9.022  0.2194 -0.7848 -0.6820
  300MOL0     C40426   3.287   1.598   8.934 -0.7344  0.2098 -0.0043
  300MOL0     C40427   3.364   1.708   8.863  0.7240  0.2807  0.1060
  300MOL0     C40428   3.455   1.668   8.748 -0.0431 -0.2850  0.2624
  300MOL0     C40429   3.471   1.773   8.645  0.9744  0.2623 -0.1827
  300MOL0     C40430   3.482   1.852   8.557  0.2051  0.7884  0.3519
  300MOL0     C40431   3.626   1.274   8.911  0.4324 -0.4165  0.7364
  300MOL0     C40432   3.717   1.185   8.966  0.3620 -0.4888 -0.0870
  300MOL0     H40433   4.126   0.978   8.938 -0.0649 -0.9289  0.8608
  300MOL0     H40434   4.329   0.860   9.003  1.2173  2.4138  1.0538
  300MOL0     H40435   4.459   0.708   9.040 -3.3130  0.5074  1.3233
  300MOL0     H40436   4.526   0.807   9.172 -1.6641  1.3543 -1.3687
  300MOL0     H40437   4.635   0.633   9.283  1.6203  0.1332 -0.0577
  300MOL0     H40438   4.539   0.517   9.195 -0.2198  0.4903 -1.0537
  300MOL0     H40439   4.684   0.670   8.998  2.8390 -1.0949 -0.5510
  300MOL0     H40440   4.786   0.686   9.129  0.4581 -1.2165  0.4642
  300MOL0     H40441   4.809   0.437   9.151 -0.7710 -1.7898 -0.1113
  300MOL0     H40442   4.691   0.407   9.037 -0.5477 -0.6724  2.4669
  300MOL0     H40443   4.845   0.529   8.847 -2.3986  0.8454  0.6516
  300MOL0     H40444   4.956   0.556   8.981  0.7380 -1.5955  1.3957
  300MOL0     H40445   4.961   0.296   9.024 -1.1504 -3.5704 -1.5571
  300MOL0     H40446   4.860   0.281   8.892  0.9383  0.2358 -2.6710
  300MOL0     H40447   5.072   0.397   8.755 -1.1350 -1.7943 -2.2939
  300MOL0     H40448   5.156   0.339   8.902  1.4431 -0.3980 -3.1132
  300MOL0     H40449   4.990   0.166   8.707 -0.2321  1.5707 -0.2315
  300MOL0     H40450   5.045   0.110   8.862  0.7193 -1.1937 -1.5273
  300MOL0     H40451   5.297   0.092   8.913  0.3329  1.0061 -0.0661
  300MOL0     H40452   5.605   0.048   8.692  0.1382  3.4716  1.7972
  300MOL0     H40453   5.556   0.027   8.866 -3.0790  1.5449 -0.6368
  300MOL0     H40454   5.497  -0.142   8.637  0.9500 -0.6387  0.4921
  300MOL0     H40455   5.442  -0.201   8.798  1.8742  0.1507  4.5165
  300MOL0     H40456   5.670  -0.215   8.878 -2.9845  1.7315  1.1315
  300MOL0     H40457   5.724  -0.226   8.705 -0.4534 -2.3855 -0.7094
  300MOL0     H40458   5.672  -0.449   8.758  2.9199  4.3752 -1.1969
  300MOL0     H40459   5.523  -0.385   8.689  1.7284  2.3985 -1.9521
  300MOL0     H40460   5.498  -0.522   9.127 -4.6894 -1.5416  2.4320
  300MOL0     H40461   5.516  -0.702   9.282 -1.9902  2.0468 -1.0755
  300MOL0     H40462   5.348  -0.764   9.254 -1.0087  3.2477 -3.1078
  300MOL0     H40463   5.476  -0.874   9.218  0.4626  0.0863  1.9089
  300MOL0     H40464   5.108  -1.193   8.875  0.0386 -0.0767  0.2486
  300MOL0     H40465   5.071  -1.404   8.994 -0.4977  1.7683  2.5455
  300MOL0     H40466   5.146  -1.540   9.335  0.4595  3.4150 -0.5676
  300MOL0     H40467   5.057  -1.469   9.202 -3.7487 -3.4417  0.4173
  300MOL0     H40468   5.061  -1.670   9.082  1.4189  3.5106 -0.6095
  300MOL0     H40469   5.172  -1.736   9.216  1.1395  3.3536  1.9248
  300MOL0     H40470   4.892  -1.674   9.226  0.4743 -1.4764 -4.1324
  300MOL0     H40471   4.983  -1.743   9.366 -1.1028 -0.9940  0.4375
  300MOL0     H40472   4.933  -1.881   9.090  1.9649 -1.8319 -0.8334
  300MOL0     H40473   5.051  -1.946   9.192  1.9477  1.6362  0.8041
  300MOL0     H40474   4.841  -2.054   9.206  5.8711 -1.6671  1.0248
  300MOL0     H40475   4.762  -1.907   9.284 -1.7857 -1.0891 -2.1787
  300MOL0     H40476   4.995  -2.069   9.398 -0.7780 -2.5798  1.6859
  300MOL0     H40477   4.911  -1.935   9.460  0.2686  0.0103 -0.7938
  300MOL0     H40478   4.710  -2.103   9.502  0.1134  1.1122 -0.3662
  300MOL0     H40479   4.854  -2.172   9.560  0.1366  1.7762  0.4044
  300MOL0     H40480   4.747  -2.243   9.276  2.1664  0.5166 -1.3439
  300MOL0     H40481   4.726  -2.356   9.406 -0.0284 -0.2795 -0.4687
  300MOL0     H40482   5.482  -1.397   9.126 -0.0154  4.4808  3.1153
  300MOL0     H40483   5.527  -1.202   8.990  0.4587  1.1587 -3.7571
  300MOL0     H40484   5.391  -0.834   8.763 -0.9958 -0.7030  1.5315
  300MOL0     H40485   5.479  -0.593   8.714  0.3168  2.6800  1.3796
  300MOL0     H40486   4.150   0.729   9.372  2.1339 -1.0629  1.8786
  300MOL0     H40487   3.945   0.848   9.298  1.8260  0.7870  2.8000
  300MOL0     H40488   3.686   1.266   9.293  0.0951 -0.1116 -0.5798
  300MOL0     H40489   3.527   1.425   9.199  2.6518 -0.5704  1.7954
  300MOL0     H40490   3.306   1.438   9.065 -0.5106  0.3027 -0.0984
  300MOL0     H40491   3.417   1.575   9.099 -1.5935  1.2981 -1.4775
  300MOL0     H40492   3.197   1.637   8.984  0.2532  4.5342 -1.2198
  300MOL0     H40493   3.241   1.544   8.851  0.1051 -0.3221 -0.1364
  300MOL0     H40494   3.427   1.760   8.936  4.2799 -2.0798 -1.0061
  300MOL0     H40495   3.278   1.765   8.827  1.5840  1.8813  0.4352
  300MOL0     H40496   3.416   1.579   8.696  2.7199 -1.4233 -0.0234
  300MOL0     H40497   3.555   1.642   8.785 -1.4249 -0.4880  4.3537
  300MOL0     H40498   3.490   1.926   8.480  2.2201  0.1928 -0.0603
  300MOL0     H40499   3.608   1.282   8.804  3.3632  0.7880  0.2530
  300MOL0     H40500   3.776   1.130   8.893 -0.6596 -1.7236 -0.0102
  301MOL0     O40501   3.876   2.556   5.204 -0.0116 -1.3423  1.0129
  301MOL0     C40502   3.958   2.607   5.126 -0.0633 -0.8430  0.8599
  301MOL0     O40503   3.928   2.684   5.007  0.3075 -0.2390  1.0519
  301MOL0     C40504   3.812   2.754   5.001 -0.1307 -0.5921 -0.1903
  301MOL0     C40505   3.825   2.892   5.017  0.4750 -0.6079  0.3107
  301MOL0     C40506   3.713   2.969   5.030  0.5881  0.0685  0.1529
  301MOL0     C40507   3.580   2.913   5.041 -1.0677 -0.4188 -0.0908
  301MOL0     O40508   3.479   3.004   5.049  0.1175 -0.2113  0.0296
  301MOL0     C40509   3.364   2.978   5.127  0.2524 -0.4264 -0.3969
  301MOL0     C40510   3.264   3.086   5.112  0.5691 -0.4544  0.4866
  301MOL0     C40511   3.151   3.046   5.208  0.4255  1.0302  0.3307
  301MOL0     C40512   3.028   3.140   5.218  0.0469 -0.4738 -0.1766
  301MOL0     C40513   2.928   3.104   5.335  0.7434 -0.2114  0.3480
  301MOL0     C40514   2.848   2.972   5.326  0.8862 -0.3734  0.2086
  301MOL0     C40515   2.730   2.990   5.421  0.4450  0.2239 -0.0316
  301MOL0     C40516   2.656   2.858   5.405  0.0009  0.4898  0.3473
  301MOL0     N40517   2.718   2.762   5.496  0.0332 -0.2142 -0.8747
  301MOL0     C40518   2.714   2.776   5.631  0.4056  0.4810 -0.3631
  301MOL0     C40519   2.792   2.674   5.675  0.3803  0.9378 -1.2305
  301MOL0     C40520   2.831   2.655   5.817  1.1237  0.0064 -0.3401
  301MOL0     C40521   2.933   2.762   5.869 -0.0412 -0.9042  0.4000
  301MOL0     C40522   3.068   2.754   5.791 -0.9004  0.8102 -0.4868
  301MOL0     C40523   3.139   2.885   5.800  0.3316 -0.3474  0.3597
  301MOL0     O40524   3.276   2.880   5.777  0.6178 -0.9400 -0.2826
  301MOL0     C40525   3.343   3.003   5.790  0.1092 -0.7026 -0.2909
  301MOL0     C40526   3.478   2.983   5.757  0.6536 -0.2351  0.1009
  301MOL0     C40527   3.573   3.080   5.778  0.2511 -0.7014  0.0639
  301MOL0     C40528   3.714   3.037   5.734  0.5352 -0.4114  0.3717
  301MOL0     C40529   3.532   3.199   5.847 -0.4498  0.7188  0.2810
  301MOL0     C40530   3.632   3.306   5.877  0.4986  0.4262  0.5137
  301MOL0     O40531   3.592   3.436   5.865  0.1567 -0.0336 -0.5711
  301MOL0     C40532   3.663   3.521   5.940  0.6976  0.2317 -1.4911
  301MOL0     C40533   3.620   3.554   6.073  0.3261  0.1340  0.8957
  301MOL0     C40534   3.693   3.657   6.141 -0.4648  0.2033 -0.5096
  301MOL0     C40535   3.816   3.711   6.103  0.0473 -0.6325 -0.9005
  301MOL0     O40536   3.889   3.808   6.178  0.4599 -0.2076  0.9163
  301MOL0     C40537   4.038   3.810   6.185  1.0076 -0.4046  0.3986
  301MOL0     C40538   4.092   3.668   6.218  0.2810 -0.4836  0.7368
  301MOL0     C40539   4.040   3.630   6.361 -0.3226  1.1569 -0.5473
  301MOL0     C40540   4.136   3.519   6.426  0.0217 -0.3511 -1.2130
  301MOL0     C40541   4.193   3.559   6.567  0.1157  0.5826  0.0458
  301MOL0     C40542   4.350   3.518   6.582  0.2969  0.1880 -0.7329
  301MOL0     C40543   4.377   3.377   6.583  0.4451  0.1661  0.4521
  301MOL0     C40544   4.511   3.327   6.653  0.5057 -0.4047  0.6208
  301MOL0    Cl40545   4.642   3.331   6.527 -0.1579  0.0558 -0.1334
  301MOL0     C40546   3.858   3.677   5.975  0.3593 -0.1790  0.3507
  301MOL0     C40547   3.784   3.582   5.893  0.1867 -0.4331  0.6998
  301MOL0     O40548   3.739   3.271   5.926 -0.1071 -0.0647  0.5266
  301MOL0     C40549   3.399   3.221   5.886 -0.2566  0.2282  0.6046
  301MOL0     C40550   3.302   3.123   5.866  1.0198  0.2692 -0.0642
  301MOL0     N40551   2.839   2.603   5.566 -0.6521 -0.2340  0.1284
  301MOL0     N40552   2.790   2.651   5.457  0.3738 -1.0464 -0.3862
  301MOL0     C40553   3.567   2.772   5.020  0.0622  1.0040 -0.5356
  301MOL0     C40554   3.685   2.697   5.004 -1.0005  0.6218 -0.1889
  301MOL0     C40555   4.099   2.588   5.160  0.7508  0.1822  0.4535
  301MOL0     C40556   4.120   2.522   5.288 -0.4305 -0.7214  1.5165
  301MOL0     C40557   4.245   2.511   5.333  0.0202  0.3237 -0.8557
  301MOL0     C40558   4.356   2.573   5.272  0.5998  0.8171  0.2182
  301MOL0     O40559   4.473   2.551   5.329 -0.3876 -0.3421 -0.2303
  301MOL0     C40560   4.590   2.599   5.265  0.4130  0.7266 -0.0386
  301MOL0     C40561   4.714   2.553   5.340 -0.2552  0.2403 -1.4406
  301MOL0     C40562   4.846   2.597   5.300 -1.2373  0.0539  0.1175
  301MOL0     C40563   4.892   2.727   5.358 -0.1380 -0.6880 -0.5413
  301MOL0     C40564   5.039   2.733   5.348 -0.3987  0.4730 -0.2842
  301MOL0     C40565   5.159   2.727   5.314  0.0904  1.0659 -0.2507
  301MOL0     C40566   4.332   2.628   5.151 -0.4134 -0.1651  0.6941
  301MOL0     C40567   4.206   2.646   5.090 -0.1985 -0.4924  0.2784
  301MOL0     H40568   3.922   2.939   5.028  1.1848 -1.9060 -0.1579
  301MOL0     H40569   3.716   3.076   5.019 -1.9954  0.2200  0.3621
  301MOL0     H40570   3.332   2.879   5.094  2.8049 -2.4533  2.5648
  301MOL0     H40571   3.400   2.964   5.229 -0.6775 -3.8708 -0.4369
  301MOL0     H40572   3.311   3.180   5.143  1.3204 -0.2272 -1.1828
  301MOL0     H40573   3.233   3.095   5.007 -1.3068  2.6330  1.1646
  301MOL0     H40574   3.118   2.946   5.178  2.5518  0.0492  1.0786
  301MOL0     H40575   3.190   3.038   5.310  2.0501 -0.9066 -0.3629
  301MOL0     H40576   3.056   3.245   5.209 -0.5385 -0.3598 -0.7499
  301MOL0     H40577   2.967   3.125   5.129 -4.1352  2.5933  1.8681
  301MOL0     H40578   2.978   3.103   5.433 -0.7001 -2.2389  1.1232
  301MOL0     H40579   2.852   3.182   5.328  0.2269 -0.5669  1.6408
  301MOL0     H40580   2.807   2.958   5.225 -1.1427  2.8581  0.4137
  301MOL0     H40581   2.904   2.884   5.358  2.5086  1.8143  4.0529
  301MOL0     H40582   2.762   3.004   5.525 -2.0457  0.2241  0.7975
  301MOL0     H40583   2.667   3.078   5.406  1.3922  1.3374  2.0118
  301MOL0     H40584   2.645   2.832   5.300 -1.3327  1.6010  0.1817
  301MOL0     H40585   2.558   2.853   5.455  0.5511 -2.1537  1.3192
  301MOL0     H40586   2.659   2.844   5.696 -0.7778  0.2241 -1.0710
  301MOL0     H40587   2.743   2.665   5.881  2.3451 -0.6056  1.5163
  301MOL0     H40588   2.874   2.555   5.819  1.3359  0.0741  1.9276
  301MOL0     H40589   2.950   2.758   5.977  5.0291  2.8965  0.1125
  301MOL0     H40590   2.892   2.862   5.853 -2.0373 -1.4866  1.5232
  301MOL0     H40591   3.055   2.734   5.684 -1.0943 -2.1300  0.0208
  301MOL0     H40592   3.123   2.680   5.849 -4.0117 -1.1281  0.2319
  301MOL0     H40593   3.126   2.929   5.900  1.3297  0.5429  0.1118
  301MOL0     H40594   3.108   2.964   5.730  1.3502  0.5722  0.9081
  301MOL0     H40595   3.502   2.882   5.726 -0.4272 -0.7664  0.9393
  301MOL0     H40596   3.743   3.116   5.664 -2.9975  0.5770 -0.1683
  301MOL0     H40597   3.774   3.034   5.825  0.8838 -0.9597  0.1321
  301MOL0     H40598   3.718   2.941   5.682 -3.7622 -0.2094 -0.7237
  301MOL0     H40599   3.534   3.513   6.125  2.3206 -3.3368  1.7779
  301MOL0     H40600   3.653   3.689   6.237 -2.0778  1.2614 -1.4703
  301MOL0     H40601   4.070   3.843   6.085 -2.9647 -1.7133 -1.5357
  301MOL0     H40602   4.076   3.878   6.261 -2.4588  0.9504  1.1237
  301MOL0     H40603   4.049   3.593   6.151 -0.2004  0.2118  0.2556
  301MOL0     H40604   4.201   3.667   6.208  0.5330 -0.1220  2.9715
  301MOL0     H40605   3.938   3.593   6.355 -0.5621  1.6494  0.3253
  301MOL0     H40606   4.046   3.719   6.425 -4.2441  0.6771  0.7511
  301MOL0     H40607   4.063   3.440   6.446 -1.2907  1.3478  1.2081
  301MOL0     H40608   4.218   3.479   6.365  2.5769 -2.4003  3.1319
  301MOL0     H40609   4.131   3.516   6.646 -1.1126 -0.1023 -1.2419
  301MOL0     H40610   4.188   3.668   6.580  3.3389  0.5910  2.3603
  301MOL0     H40611   4.413   3.576   6.514  3.8811 -0.2824  1.9146
  301MOL0     H40612   4.386   3.555   6.678  2.6267  0.8910 -1.8194
  301MOL0     H40613   4.378   3.336   6.482 -2.2643 -2.2704  1.2641
  301MOL0     H40614   4.292   3.325   6.630  1.4045 -2.0934 -0.1727
  301MOL0     H40615   4.485   3.225   6.681  0.8985 -0.9539 -0.8868
  301MOL0     H40616   4.529   3.375   6.750 -0.6660  1.0711  0.1413
  301MOL0     H40617   3.946   3.716   5.926 -0.8266 -0.9695 -2.6219
  301MOL0     H40618   3.812   3.554   5.791 -0.7511  1.8221 -0.2394
  301MOL0     H40619   3.363   3.309   5.938 -0.7027 -1.0326  2.5310
  301MOL0     H40620   3.202   3.156   5.892  1.5734 -0.3646  3.2988
  301MOL0     H40621   3.467   2.731   5.014 -0.4450  2.3075 -1.5249
  301MOL0     H40622   3.676   2.590   4.987 -1.2285  0.3323  1.5829
  301MOL0     H40623   4.044   2.466   5.341 -2.2543 -1.0486 -1.2083
  301MOL0     H40624   4.270   2.447   5.416  1.3856 -0.2893 -1.7165
  301MOL0     H40625   4.598   2.560   5.164 -1.0838 -0.0708  0.1203
  301MOL0     H40626   4.594   2.708   5.261  1.5080  0.6916 -4.8123
  301MOL0     H40627   4.695   2.446   5.350 -5.1187  1.1005  3.9105
  301MOL0     H40628   4.712   2.587   5.444  2.3789 -1.8989 -0.5552
  301MOL0     H40629   4.855   2.597   5.191  2.6970  1.9870  0.2687
  301MOL0     H40630   4.913   2.520   5.342  1.1445  1.8190 -0.2500
  301MOL0     H40631   4.870   2.748   5.463  3.0000  2.3303 -0.3148
  301MOL0     H40632   4.848   2.807   5.298  1.1564 -0.8296 -1.7482
  301MOL0     H40633   5.255   2.737   5.267  0.9936  2.9715  1.8217
  301MOL0     H40634   4.420   2.667   5.102 -0.6620  1.8915  1.7851
  301MOL0     H40635   4.204   2.694   4.992  0.2405  0.4514  0.7198
  302MOL0     O40636   9.079   1.472   0.813 -0.3170 -0.6574 -0.5079
  302MOL0     C40637   9.133   1.417   0.715  0.4984  0.5220 -0.8688
  302MOL0     O40638   9.160   1.469   0.592  0.6492  0.4850  0.2655
  302MOL0     C40639   9.189   1.602   0.596  0.0779  0.3192 -1.5207
  302MOL0     C40640   9.320   1.641   0.594 -0.6774  0.0547 -0.4123
  302MOL0     C40641   9.362   1.774   0.606 -0.0079  0.3840  1.0966
  302MOL0     C40642   9.263   1.867   0.612  0.2322 -0.8162  0.3843
  302MOL0     O40643   9.291   2.000   0.636  0.0118  0.5559 -0.2446
  302MOL0     C40644   9.426   2.053   0.648  0.6758  0.6261 -0.3888
  302MOL0     C40645   9.427   2.196   0.678 -0.2358 -0.3216 -0.5213
  302MOL0     C40646   9.396   2.280   0.551 -0.0449  0.6980 -0.8180
  302MOL0     C40647   9.387   2.425   0.578  0.4422 -0.0412 -0.8897
  302MOL0     C40648   9.315   2.499   0.462 -0.4762  0.3592 -0.2211
  302MOL0     C40649   9.383   2.479   0.330 -0.2026 -1.2191  0.0800
  302MOL0     C40650   9.533   2.527   0.340  0.0747  0.5899 -0.2647
  302MOL0     C40651   9.571   2.661   0.407  0.4182 -0.1414 -0.3208
  302MOL0     N40652   9.710   2.710   0.382 -0.0677  1.1829 -0.9582
  302MOL0     C40653   9.832   2.637   0.380  0.6173 -0.7509  0.2163
  302MOL0     C40654   9.919   2.737   0.371  0.3388 -0.2095 -0.3851
  302MOL0     C40655  10.067   2.724   0.350  0.6182 -0.1249  0.7164
  302MOL0     C40656  10.120   2.745   0.214 -0.9723  0.7932  0.6437
  302MOL0     C40657  10.079   2.653   0.098  0.6748 -0.6873  1.0688
  302MOL0     C40658  10.149   2.517   0.086  0.1210  0.5354  0.2865
  302MOL0     O40659  10.117   2.452   0.212 -0.7336  0.1263  0.1113
  302MOL0     C40660  10.107   2.319   0.214 -0.4698 -0.1108 -0.1931
  302MOL0     C40661  10.219   2.236   0.194  0.0842  0.2447 -0.4069
  302MOL0     C40662  10.216   2.095   0.167  0.1903  0.0707  0.2141
  302MOL0     C40663  10.347   2.038   0.131 -0.6395  0.5042 -0.6000
  302MOL0     C40664  10.082   2.036   0.175 -0.1153  0.3281  0.5378
  302MOL0     C40665  10.060   1.890   0.163 -1.0060  0.9570  1.0855
  302MOL0     O40666   9.938   1.850   0.170 -0.6273 -0.4249  0.1792
  302MOL0     C40667   9.904   1.720   0.177  0.0363  0.4596 -0.1455
  302MOL0     C40668   9.819   1.678   0.085 -0.2702  0.1184  0.7262
  302MOL0     C40669   9.761   1.548   0.095 -0.4948  0.0816 -0.0551
  302MOL0     C40670   9.802   1.455   0.197 -0.2229  0.0210  0.3684
  302MOL0     O40671   9.732   1.341   0.218 -0.2932 -0.1908  0.1971
  302MOL0     C40672   9.604   1.331   0.160 -0.0757  0.4313  1.1506
  302MOL0     C40673   9.516   1.219   0.224 -0.2571 -0.4300  0.1695
  302MOL0     C40674   9.403   1.185   0.118  0.1999  1.1621 -0.4604
  302MOL0     C40675   9.304   1.097   0.194  1.4870 -0.9415 -0.3133
  302MOL0     C40676   9.198   1.047   0.112  0.5574  0.7563 -0.5167
  302MOL0     C40677   9.077   0.979   0.179  1.0268  0.0261  0.1139
  302MOL0     C40678   9.122   0.875   0.283 -0.6709  0.0390  0.0513
  302MOL0     C40679   9.016   0.789   0.327 -0.2901 -0.0475  1.0400
  302MOL0    Cl40680   9.082   0.634   0.406 -0.1080 -0.1960 -0.2061
  302MOL0     C40681   9.914   1.490   0.271 -0.3025  0.0983 -0.5102
  302MOL0     C40682   9.956   1.628   0.273  0.3306  0.8170 -0.2102
  302MOL0     O40683  10.165   1.818   0.156  0.1790 -0.2975  0.4314
  302MOL0     C40684   9.973   2.119   0.211  0.4498 -0.5374 -0.1366
  302MOL0     C40685   9.984   2.260   0.232  0.4278  0.2573 -0.1837
  302MOL0     N40686   9.861   2.858   0.393  0.3017  0.3178  0.5311
  302MOL0     N40687   9.735   2.841   0.404 -0.2051  0.8308 -0.1204
  302MOL0     C40688   9.132   1.831   0.611  0.4959 -0.0355 -0.3355
  302MOL0     C40689   9.092   1.695   0.605  0.8996 -0.2743  0.9787
  302MOL0     C40690   9.172   1.273   0.730 -0.6190 -0.4372  0.8361
  302MOL0     C40691   9.116   1.192   0.835  0.3802  1.0102  0.5759
  302MOL0     C40692   9.155   1.053   0.840  1.2164  0.3175 -0.1870
  302MOL0     C40693   9.241   0.995   0.754 -0.2216 -0.6054  0.5822
  302MOL0     O40694   9.263   0.865   0.764  0.7489 -0.3252  0.2194
  302MOL0     C40695   9.338   0.796   0.666  1.0481 -0.3818  0.8218
  302MOL0     C40696   9.313   0.649   0.691 -0.0476 -0.4184 -0.6754
  302MOL0     C40697   9.405   0.565   0.790 -0.8091 -0.8886 -0.3290
  302MOL0     C40698   9.377   0.575   0.941  0.5015 -0.4700 -0.6516
  302MOL0     C40699   9.258   0.516   0.999  0.0681  0.5827  0.8949
  302MOL0     C40700   9.166   0.471   1.067 -0.5494  0.2727  0.1138
  302MOL0     C40701   9.296   1.075   0.657 -0.4675 -0.1353 -0.3781
  302MOL0     C40702   9.265   1.210   0.645 -0.5388 -0.7596 -0.6312
  302MOL0     H40703   9.399   1.568   0.577  1.2373  1.0483  3.2716
  302MOL0     H40704   9.462   1.814   0.591 -1.2397  3.0297 -0.8759
  302MOL0     H40705   9.491   2.011   0.726  1.5494  4.0618  0.8879
  302MOL0     H40706   9.471   2.032   0.550 -1.0662 -2.0903 -0.7359
  302MOL0     H40707   9.349   2.222   0.751 -0.1594 -0.2928 -0.4495
  302MOL0     H40708   9.521   2.233   0.719 -1.0278  0.0417  1.0573
  302MOL0     H40709   9.469   2.257   0.473  1.3352 -0.9057  0.8373
  302MOL0     H40710   9.296   2.250   0.518  0.1783 -0.8829 -0.1438
  302MOL0     H40711   9.325   2.440   0.667 -2.0321  2.7095 -2.8580
  302MOL0     H40712   9.487   2.466   0.592  1.2203 -1.8056 -1.1537
  302MOL0     H40713   9.214   2.457   0.455  0.3930 -2.2390  1.2956
  302MOL0     H40714   9.304   2.604   0.489 -2.0133  1.2724 -3.8436
  302MOL0     H40715   9.390   2.373   0.304  1.5707 -1.2022  0.3290
  302MOL0     H40716   9.331   2.526   0.247  1.5544  0.0826 -0.3460
  302MOL0     H40717   9.588   2.445   0.388 -2.1384 -1.3232 -0.8204
  302MOL0     H40718   9.574   2.545   0.240 -1.7965  4.4159 -0.5181
  302MOL0     H40719   9.559   2.651   0.515  0.8212 -2.2405 -0.4270
  302MOL0     H40720   9.496   2.734   0.377  1.9815  3.0513  2.8148
  302MOL0     H40721   9.864   2.533   0.379 -0.0827 -0.9663  0.2576
  302MOL0     H40722  10.110   2.805   0.411 -0.8920  0.0928  1.5315
  302MOL0     H40723  10.096   2.628   0.395  1.7820 -0.0456  0.1698
  302MOL0     H40724  10.229   2.735   0.216 -1.0735 -0.4731  0.5077
  302MOL0     H40725  10.107   2.849   0.182  0.4747  0.4963 -1.1139
  302MOL0     H40726  10.099   2.695  -0.001  2.2992 -1.0718  1.2105
  302MOL0     H40727   9.970   2.639   0.097  0.4809  0.3062 -1.8684
  302MOL0     H40728  10.256   2.534   0.073 -0.3127  3.4012 -0.3196
  302MOL0     H40729  10.113   2.450   0.008  0.1185 -0.5998  1.2381
  302MOL0     H40730  10.314   2.288   0.186 -1.0773  2.1474 -3.8658
  302MOL0     H40731  10.358   1.930   0.143  0.2427  0.8259  2.3059
  302MOL0     H40732  10.374   2.056   0.027  1.8718  0.7716  0.0271
  302MOL0     H40733  10.429   2.073   0.195  0.3425 -0.5926 -1.2214
  302MOL0     H40734   9.777   1.739   0.007 -3.0242  1.1137  2.8323
  302MOL0     H40735   9.681   1.539   0.023  1.3021  3.6049 -2.8085
  302MOL0     H40736   9.539   1.416   0.179 -0.1370  0.9724 -1.1448
  302MOL0     H40737   9.615   1.313   0.052 -0.7290 -0.5163  1.2258
  302MOL0     H40738   9.581   1.133   0.245 -0.1287 -1.2865 -3.2655
  302MOL0     H40739   9.474   1.255   0.319  2.3236 -2.1958  2.1205
  302MOL0     H40740   9.455   1.134   0.036  1.3540  0.6492  0.5631
  302MOL0     H40741   9.360   1.277   0.076 -2.1691  0.6671  0.7268
  302MOL0     H40742   9.344   1.024   0.265  3.4884 -0.6275 -1.0494
  302MOL0     H40743   9.248   1.161   0.262 -1.2734 -2.3214 -1.1558
  302MOL0     H40744   9.247   0.981   0.039  2.9694 -0.2537  1.8609
  302MOL0     H40745   9.152   1.128   0.055 -2.9268 -0.8500 -0.2490
  302MOL0     H40746   9.017   1.056   0.230 -0.2578 -0.1420 -1.0850
  302MOL0     H40747   9.015   0.933   0.102  1.7705 -0.9859  0.1142
  302MOL0     H40748   9.168   0.926   0.367 -0.3602  1.2150 -0.8078
  302MOL0     H40749   9.190   0.804   0.234  2.2348 -0.1746  3.9233
  302MOL0     H40750   8.971   0.748   0.236  2.0107 -1.1984  0.3541
  302MOL0     H40751   8.945   0.850   0.383 -0.0551  4.8301 -3.2730
  302MOL0     H40752   9.958   1.423   0.344 -3.0858  0.0926  1.3025
  302MOL0     H40753  10.032   1.657   0.345  1.3899 -0.0374 -0.9546
  302MOL0     H40754   9.878   2.073   0.236 -0.8539  1.9785 -0.0945
  302MOL0     H40755   9.899   2.315   0.270 -0.0043 -1.3228  1.3062
  302MOL0     H40756   9.051   1.902   0.627  0.7789  0.1557  0.2731
  302MOL0     H40757   8.988   1.666   0.610  0.7572 -0.9518 -3.0063
  302MOL0     H40758   9.053   1.228   0.917  0.3057 -1.2112  1.5621
  302MOL0     H40759   9.108   0.990   0.914 -3.5484  1.7325 -1.6158
  302MOL0     H40760   9.294   0.821   0.568  3.3168  0.4635 -0.0662
  302MOL0     H40761   9.444   0.821   0.667  0.0007  5.6821  0.8799
  302MOL0     H40762   9.325   0.607   0.591 -0.4215  2.3466 -1.9719
  302MOL0     H40763   9.206   0.644   0.713 -0.2821  3.1669 -0.4365
  302MOL0     H40764   9.509   0.597   0.792 -1.1889  0.3502  0.2690
  302MOL0     H40765   9.415   0.461   0.757  1.3312  0.4532 -4.7215
  302MOL0     H40766   9.394   0.673   0.986 -1.6095 -0.9878  1.4700
  302MOL0     H40767   9.453   0.507   0.979 -0.4076 -3.1175 -3.1731
  302MOL0     H40768   9.090   0.445   1.139  0.8607 -1.7727  0.9504
  302MOL0     H40769   9.362   1.037   0.579 -3.2058 -1.2446 -2.3218
  302MOL0     H40770   9.307   1.262   0.559 -2.6356 -0.4995 -1.5653
  303MOL0     O40771   0.369   5.007  10.602 -0.3739  0.6644 -0.5690
  303MOL0     C40772   0.370   4.894  10.551 -0.1184  0.0051 -0.5430
  303MOL0     O40773   0.310   4.775  10.598  0.2057 -0.3198 -0.0663
  303MOL0     C40774   0.250   4.755  10.724  0.1810  0.3593  0.0072
  303MOL0     C40775   0.136   4.833  10.747  1.2025 -0.3867  0.5713
  303MOL0     C40776   0.060   4.823  10.862  0.5844 -0.4524 -0.0964
  303MOL0     C40777   0.101   4.729  10.953 -0.5931  0.4619  0.6829
  303MOL0     O40778   0.026   4.704  11.069  0.0862  0.0756 -0.0811
  303MOL0     C40779  -0.114   4.685  11.050  0.3726 -0.4630 -0.1584
  303MOL0     C40780  -0.174   4.626  11.164  0.9868 -0.1135  0.3883
  303MOL0     C40781  -0.220   4.728  11.268 -0.6482 -0.1296 -0.6731
  303MOL0     C40782  -0.253   4.671  11.406 -0.3682 -0.1716  0.4338
  303MOL0     C40783  -0.350   4.745  11.500 -0.2235 -0.0570  0.7829
  303MOL0     C40784  -0.480   4.773  11.437  0.8754 -0.1430 -0.5347
  303MOL0     C40785  -0.593   4.839  11.514 -1.1487 -0.3324 -0.1674
  303MOL0     C40786  -0.604   4.773  11.652  0.8140 -0.0867  0.3338
  303MOL0     N40787  -0.731   4.801  11.720 -0.5001  0.2645  0.4696
  303MOL0     C40788  -0.749   4.805  11.859 -0.0976 -0.7203 -0.2446
  303MOL0     C40789  -0.869   4.871  11.880  0.0531 -1.0717 -0.3989
  303MOL0     C40790  -0.919   4.927  12.009 -0.2260 -0.6212 -0.2417
  303MOL0     C40791  -0.808   4.982  12.102 -0.9663 -0.3635  1.0505
  303MOL0     C40792  -0.777   4.888  12.218  0.8814  0.1925  0.3798
  303MOL0     C40793  -0.673   4.947  12.303 -0.8857 -0.1792  0.3968
  303MOL0     O40794  -0.699   5.075  12.363 -0.1325  0.0631 -0.7867
  303MOL0     C40795  -0.787   5.082  12.464 -0.3829 -0.1679 -0.6763
  303MOL0     C40796  -0.798   5.215  12.512  0.5305 -0.1913 -0.2823
  303MOL0     C40797  -0.875   5.248  12.623  0.2324 -0.1283 -0.2651
  303MOL0     C40798  -0.897   5.393  12.649  0.4281 -1.3549 -0.3226
  303MOL0     C40799  -0.955   5.149  12.669 -0.2503  0.1933 -0.5930
  303MOL0     C40800  -1.070   5.174  12.769  0.3432 -0.0476 -0.4439
  303MOL0     O40801  -1.066   5.105  12.892  0.7576  0.2834 -0.5347
  303MOL0     C40802  -1.159   5.140  12.992  0.0950  1.0245 -0.0261
  303MOL0     C40803  -1.230   5.258  13.017 -0.6470 -0.1652 -0.1307
  303MOL0     C40804  -1.333   5.277  13.118  0.1197  0.5473  0.0278
  303MOL0     C40805  -1.360   5.162  13.199  0.4637 -1.1216 -0.4480
  303MOL0     O40806  -1.466   5.176  13.276 -0.5048 -0.2739  0.1737
  303MOL0     C40807  -1.545   5.055  13.300  0.1472 -0.0846 -0.1816
  303MOL0     C40808  -1.683   5.100  13.338  0.4270 -0.7652  0.0956
  303MOL0     C40809  -1.742   5.195  13.233  0.1231  1.0344 -0.5316
  303MOL0     C40810  -1.875   5.245  13.288  0.6544  0.6118 -0.4831
  303MOL0     C40811  -1.946   5.317  13.175  0.4335  0.5267 -0.1268
  303MOL0     C40812  -1.954   5.242  13.039 -0.2251 -0.4944 -0.6571
  303MOL0     C40813  -2.041   5.317  12.936  1.0353  0.2484 -0.5005
  303MOL0     C40814  -2.050   5.242  12.792  0.1070  0.3131  0.0994
  303MOL0    Cl40815  -2.187   5.127  12.770  0.2688 -0.2523  0.3845
  303MOL0     C40816  -1.285   5.050  13.188  0.3063  0.6468  0.0473
  303MOL0     C40817  -1.188   5.035  13.092  0.5194  0.0621 -0.1153
  303MOL0     O40818  -1.163   5.244  12.728 -0.4610  0.0634  0.1097
  303MOL0     C40819  -0.941   5.016  12.624  0.6809 -0.5332 -0.5090
  303MOL0     C40820  -0.850   4.984  12.530  0.5810  0.0757  0.1336
  303MOL0     N40821  -0.935   4.879  11.756  0.0299 -0.2452  0.3314
  303MOL0     N40822  -0.847   4.843  11.668 -0.1377 -1.0513 -0.5780
  303MOL0     C40823   0.212   4.642  10.932  0.3036 -0.6575  0.3135
  303MOL0     C40824   0.285   4.665  10.817  0.3351  0.9464 -0.1925
  303MOL0     C40825   0.464   4.869  10.429 -0.4946  0.8384 -0.5516
  303MOL0     C40826   0.545   4.970  10.381  0.2334 -0.6075  0.8102
  303MOL0     C40827   0.622   4.942  10.274  0.8711  0.0874  0.0093
  303MOL0     C40828   0.635   4.814  10.217 -0.6550 -0.4222  0.1489
  303MOL0     O40829   0.721   4.774  10.116 -0.8227 -0.0973 -0.9186
  303MOL0     C40830   0.818   4.874  10.055  1.3113  0.3602  0.1450
  303MOL0     C40831   0.911   4.789   9.975  0.2145 -0.1329 -0.2510
  303MOL0     C40832   0.990   4.876   9.878 -0.8089  0.8775 -0.4377
  303MOL0     C40833   1.100   4.790   9.809  0.5064 -0.3711  0.0790
  303MOL0     C40834   1.147   4.854   9.685  0.1429  0.5726 -0.2796
  303MOL0     C40835   1.160   4.909   9.578  0.8153  0.1737 -0.6818
  303MOL0     C40836   0.557   4.716  10.261 -0.7321  0.1364 -0.5184
  303MOL0     C40837   0.479   4.735  10.375  0.2749  0.0008 -0.8527
  303MOL0     H40838   0.106   4.909  10.675 -1.2247 -0.9157  0.9188
  303MOL0     H40839  -0.020   4.892  10.886  0.2556 -0.9256  0.2089
  303MOL0     H40840  -0.149   4.786  11.025 -0.7891  0.0513  3.0300
  303MOL0     H40841  -0.124   4.615  10.967 -1.8871 -1.2506  0.6936
  303MOL0     H40842  -0.261   4.563  11.145 -0.7884  1.2187  3.4088
  303MOL0     H40843  -0.092   4.564  11.202  1.1602 -0.7646 -0.9935
  303MOL0     H40844  -0.146   4.808  11.283 -0.8968 -0.2004  1.0741
  303MOL0     H40845  -0.308   4.770  11.219 -0.3005 -0.6579 -1.7702
  303MOL0     H40846  -0.289   4.569  11.391  0.7730 -0.3829 -1.1410
  303MOL0     H40847  -0.156   4.666  11.458 -0.6241  2.6000  1.3611
  303MOL0     H40848  -0.374   4.679  11.583  0.9695  1.7279  2.6384
  303MOL0     H40849  -0.319   4.836  11.551 -0.9681  0.0154  1.1133
  303MOL0     H40850  -0.448   4.845  11.362 -0.5219  1.5704  0.4154
  303MOL0     H40851  -0.522   4.679  11.400 -0.3103 -1.1639  2.9850
  303MOL0     H40852  -0.573   4.944  11.537 -2.3660  0.2311 -1.5209
  303MOL0     H40853  -0.686   4.839  11.456 -0.1115  2.8056 -2.1184
  303MOL0     H40854  -0.529   4.815  11.719 -0.3450 -0.7957  2.1684
  303MOL0     H40855  -0.612   4.664  11.648 -1.4402  0.0116  0.6949
  303MOL0     H40856  -0.678   4.771  11.934 -1.0650  0.6061  1.3205
  303MOL0     H40857  -0.987   5.011  11.992  0.9048  0.2030 -0.8770
  303MOL0     H40858  -0.971   4.851  12.068  0.9884 -1.1111  0.2277
  303MOL0     H40859  -0.824   5.083  12.141 -0.9433 -0.1465  0.4922
  303MOL0     H40860  -0.721   5.000  12.039 -1.8756 -1.7209 -0.6834
  303MOL0     H40861  -0.753   4.789  12.177 -1.2244 -0.5156  0.7541
  303MOL0     H40862  -0.875   4.869  12.261  1.0505 -2.9414 -0.3964
  303MOL0     H40863  -0.586   4.965  12.239 -1.4309 -0.4933 -0.4467
  303MOL0     H40864  -0.653   4.875  12.382  1.9319 -0.9206 -0.8528
  303MOL0     H40865  -0.735   5.297  12.479 -1.7953  3.0414  2.5520
  303MOL0     H40866  -0.919   5.392  12.756 -0.6910 -2.2036 -0.5381
  303MOL0     H40867  -0.806   5.451  12.630  1.1407 -2.0984  0.7082
  303MOL0     H40868  -0.978   5.421  12.582  1.3045 -2.2539 -1.8095
  303MOL0     H40869  -1.219   5.349  12.959 -1.2599  1.0519  1.5829
  303MOL0     H40870  -1.391   5.369  13.118  0.0474  0.5103 -1.0661
  303MOL0     H40871  -1.542   4.997  13.207  0.3421 -0.0239 -0.2149
  303MOL0     H40872  -1.497   4.995  13.378 -0.1058  1.0907  0.9119
  303MOL0     H40873  -1.745   5.010  13.348 -1.0199  0.3261  1.6144
  303MOL0     H40874  -1.690   5.155  13.432 -1.4495 -0.8107  0.0214
  303MOL0     H40875  -1.753   5.140  13.140 -0.5432  1.1291 -0.5076
  303MOL0     H40876  -1.685   5.288  13.222 -0.5279  1.6645  1.0358
  303MOL0     H40877  -1.928   5.152  13.309  0.9387  0.6602  0.4911
  303MOL0     H40878  -1.875   5.304  13.380  0.4610 -2.1130  1.3716
  303MOL0     H40879  -1.901   5.415  13.154  0.6063 -0.1876 -3.9285
  303MOL0     H40880  -2.048   5.332  13.210  0.7001  1.7567  0.1597
  303MOL0     H40881  -1.853   5.238  12.998  0.7074 -0.0222  1.4645
  303MOL0     H40882  -1.990   5.139  13.040  1.6902 -1.2054 -1.5826
  303MOL0     H40883  -2.019   5.421  12.911  0.3256 -0.1398 -3.0087
  303MOL0     H40884  -2.143   5.324  12.974  0.7798 -2.4175 -0.5246
  303MOL0     H40885  -1.957   5.193  12.763 -0.7353  0.2478 -2.7332
  303MOL0     H40886  -2.060   5.312  12.709  0.6341  0.3448  0.0604
  303MOL0     H40887  -1.296   4.971  13.261 -3.4538  2.3055  1.5657
  303MOL0     H40888  -1.140   4.939  13.084  0.4185  0.0758 -0.9474
  303MOL0     H40889  -1.019   4.953  12.665  0.2578  0.6983  0.6439
  303MOL0     H40890  -0.847   4.880  12.499 -1.7719  0.5463 -1.9594
  303MOL0     H40891   0.230   4.563  11.003  1.3942 -0.7714 -0.0760
  303MOL0     H40892   0.369   4.598  10.807 -0.0384  0.4993 -0.3864
  303MOL0     H40893   0.543   5.070  10.422 -0.2003 -0.2917  0.0389
  303MOL0     H40894   0.682   5.025  10.236  0.2227  1.3655  1.6330
  303MOL0     H40895   0.777   4.950   9.986 -0.9303 -0.1056  0.8642
  303MOL0     H40896   0.871   4.935  10.128  1.8894 -1.5326  1.3442
  303MOL0     H40897   0.850   4.726   9.910  0.6000 -0.6208 -0.1455
  303MOL0     H40898   0.975   4.735  10.046 -0.3250 -2.3156 -1.3299
  303MOL0     H40899   1.035   4.965   9.923 -1.0569  0.4102  0.7583
  303MOL0     H40900   0.920   4.904   9.799 -1.4913 -0.9359 -0.5235
  303MOL0     H40901   1.058   4.691   9.789  1.7484 -0.6703 -1.1934
  303MOL0     H40902   1.187   4.778   9.875 -0.0665 -0.1689  0.8854
  303MOL0     H40903   1.182   4.959   9.486 -0.5076  0.5960 -0.7943
  303MOL0     H40904   0.582   4.621  10.216  5.1034  0.6512  0.8670
  303MOL0     H40905   0.434   4.640  10.403 -0.6910  0.4742 -0.7383
  304MOL0     O40906   6.051   1.708   4.186  0.6131 -0.9430 -0.3064
  304MOL0     C40907   5.955   1.654   4.147  0.1276 -0.6664  0.6976
  304MOL0     O40908   5.892   1.677   4.028 -0.7701 -0.4125  0.5175
  304MOL0     C40909   5.955   1.754   3.927  0.2752  0.5595 -1.3762
  304MOL0     C40910   6.087   1.794   3.907 -0.8365  0.6395 -0.2353
  304MOL0     C40911   6.131   1.858   3.795 -0.0619 -0.1921 -0.2395
  304MOL0     C40912   6.035   1.910   3.700  1.2402  0.7913 -0.7541
  304MOL0     O40913   6.057   1.978   3.580 -1.0483 -0.3623  0.0746
  304MOL0     C40914   6.177   2.051   3.562 -0.3654  1.5557  0.5622
  304MOL0     C40915   6.165   2.167   3.461  0.1637  0.1670 -0.8123
  304MOL0     C40916   6.122   2.137   3.316 -0.4782  0.5011 -0.2256
  304MOL0     C40917   6.118   2.262   3.230  0.3096 -0.3269 -0.2191
  304MOL0     C40918   6.027   2.234   3.107  0.2695 -0.2397  0.5704
  304MOL0     C40919   5.932   2.360   3.070 -0.7671  0.6090 -0.3687
  304MOL0     C40920   5.846   2.357   2.941  0.3705  0.8645  0.3465
  304MOL0     C40921   5.928   2.372   2.807 -1.0226 -0.5999 -0.2996
  304MOL0     N40922   5.838   2.353   2.693  0.3980  0.0936  0.2424
  304MOL0     C40923   5.799   2.440   2.600  0.4832 -0.3323 -0.0210
  304MOL0     C40924   5.690   2.392   2.545 -0.7670  0.5817 -0.7128
  304MOL0     C40925   5.612   2.450   2.442 -0.1744  0.8492  0.9340
  304MOL0     C40926   5.556   2.590   2.472 -0.6056 -0.8361  0.3621
  304MOL0     C40927   5.470   2.597   2.604 -0.2124  0.7858 -0.5250
  304MOL0     C40928   5.544   2.611   2.742  0.1606  0.4650 -0.3610
  304MOL0     O40929   5.449   2.648   2.851 -0.0653  1.0006  0.3332
  304MOL0     C40930   5.376   2.532   2.888 -0.2247 -0.2086  0.3211
  304MOL0     C40931   5.384   2.398   2.848  0.2259  0.0877  0.1647
  304MOL0     C40932   5.300   2.295   2.900  0.2768  0.8314 -0.7494
  304MOL0     C40933   5.330   2.159   2.863 -0.3437 -1.0354  0.3104
  304MOL0     C40934   5.180   2.339   2.966  0.1281  0.8416  0.1099
  304MOL0     C40935   5.074   2.249   3.027 -0.2420  0.0235  0.4692
  304MOL0     O40936   5.015   2.296   3.148  0.4083 -0.1955  0.0221
  304MOL0     C40937   4.958   2.209   3.229  0.7977  0.5172  0.0446
  304MOL0     C40938   5.005   2.177   3.352  0.1460  1.1079 -1.5036
  304MOL0     C40939   4.943   2.076   3.430 -0.9688  0.2871  0.9653
  304MOL0     C40940   4.817   2.023   3.398  0.2905  0.0351  0.3700
  304MOL0     O40941   4.753   1.928   3.468 -0.6208 -0.3416 -0.0788
  304MOL0     C40942   4.771   1.802   3.403 -0.0166  0.6306 -0.8550
  304MOL0     C40943   4.896   1.729   3.449  0.2417  0.1689  0.1745
  304MOL0     C40944   4.932   1.600   3.382 -0.2149  0.9626  1.3510
  304MOL0     C40945   4.872   1.482   3.456 -0.4605  0.3464 -0.7054
  304MOL0     C40946   4.901   1.353   3.378 -0.7493  0.1992 -1.3634
  304MOL0     C40947   5.049   1.340   3.362  0.3666 -0.0958 -0.4513
  304MOL0     C40948   5.064   1.196   3.307 -0.1815  0.8106 -0.1820
  304MOL0     C40949   5.049   1.082   3.416 -0.5245  0.6007  0.7381
  304MOL0    Cl40950   5.116   1.139   3.570  0.1865  0.1443 -0.3903
  304MOL0     C40951   4.758   2.068   3.278 -0.0749  0.4159 -0.6791
  304MOL0     C40952   4.833   2.153   3.192  0.3133 -0.5820 -0.1516
  304MOL0     O40953   5.042   2.147   2.980  0.2829  0.2671  0.1018
  304MOL0     C40954   5.164   2.475   2.991  0.4114  1.0981  0.3661
  304MOL0     C40955   5.267   2.566   2.964 -0.2988 -0.1234  0.1438
  304MOL0     N40956   5.665   2.260   2.594 -1.0023 -0.3400  0.4502
  304MOL0     N40957   5.760   2.238   2.680  0.5013  0.1749 -0.2854
  304MOL0     C40958   5.904   1.871   3.722  0.3221  0.3350 -0.3611
  304MOL0     C40959   5.866   1.798   3.829  0.4376 -0.4416 -0.7186
  304MOL0     C40960   5.896   1.538   4.234  0.5048 -0.0181  0.4726
  304MOL0     C40961   5.805   1.438   4.186  0.1250  0.0654 -0.1983
  304MOL0     C40962   5.751   1.352   4.278 -0.6489  0.2194  0.3921
  304MOL0     C40963   5.783   1.353   4.422  0.3986  0.1130 -0.2050
  304MOL0     O40964   5.745   1.268   4.524  0.2235 -0.1195 -0.5104
  304MOL0     C40965   5.662   1.156   4.477 -0.2653 -0.2096  0.6916
  304MOL0     C40966   5.513   1.214   4.446 -0.8872 -0.4107 -0.0580
  304MOL0     C40967   5.394   1.106   4.441 -0.0077 -1.3418  0.4642
  304MOL0     C40968   5.411   1.013   4.320  0.2534  0.4813 -0.3254
  304MOL0     C40969   5.393   1.079   4.192 -0.5484 -0.7462 -0.4016
  304MOL0     C40970   5.380   1.141   4.092  0.0618  0.3077 -0.0875
  304MOL0     C40971   5.878   1.453   4.453 -0.0377 -0.3342  0.7546
  304MOL0     C40972   5.931   1.546   4.363  0.0506  0.4350 -0.4314
  304MOL0     H40973   6.166   1.762   3.975  0.0235  1.2561 -0.9193
  304MOL0     H40974   6.235   1.889   3.785 -0.7516  2.6499  0.4393
  304MOL0     H40975   6.223   2.085   3.655  1.8721  0.3445 -0.0296
  304MOL0     H40976   6.244   1.975   3.520  0.6978  1.7308  1.8527
  304MOL0     H40977   6.108   2.241   3.518  0.9346  2.2723 -2.6394
  304MOL0     H40978   6.264   2.214   3.450  0.4667 -0.4230 -0.6516
  304MOL0     H40979   6.194   2.063   3.281 -0.3975 -0.4754  1.8721
  304MOL0     H40980   6.021   2.094   3.317 -1.0407  1.6450  2.5006
  304MOL0     H40981   6.068   2.345   3.282 -1.3106  0.2994 -2.6175
  304MOL0     H40982   6.220   2.287   3.202  0.7389  0.6582  2.0106
  304MOL0     H40983   6.092   2.226   3.020  0.7328  0.9373  0.7862
  304MOL0     H40984   5.979   2.137   3.116  0.0328 -0.0710  1.1607
  304MOL0     H40985   5.861   2.370   3.153 -2.2204 -1.2805 -1.3206
  304MOL0     H40986   5.991   2.452   3.067 -3.1752  2.2164 -1.9615
  304MOL0     H40987   5.778   2.271   2.951  1.4101 -0.4377 -2.5898
  304MOL0     H40988   5.783   2.446   2.942 -0.2516  0.4277  0.5362
  304MOL0     H40989   6.005   2.294   2.805 -0.3487  0.0618 -0.4964
  304MOL0     H40990   5.984   2.465   2.801 -1.8184 -0.0243  0.7711
  304MOL0     H40991   5.846   2.536   2.577 -0.2830 -0.6867 -3.7074
  304MOL0     H40992   5.672   2.456   2.350  3.5570 -1.1172  3.0013
  304MOL0     H40993   5.527   2.383   2.425  0.1856  0.7682 -0.7262
  304MOL0     H40994   5.492   2.618   2.388 -0.7055 -1.3821  0.2562
  304MOL0     H40995   5.640   2.659   2.483 -0.4300 -0.8634 -0.7710
  304MOL0     H40996   5.416   2.502   2.604  3.9460 -1.7920 -0.6434
  304MOL0     H40997   5.398   2.678   2.589 -0.0971  0.9834 -0.0380
  304MOL0     H40998   5.616   2.693   2.747  1.2489 -0.4039 -1.1640
  304MOL0     H40999   5.600   2.520   2.765  1.2018  1.5615  1.7340
  304MOL0     H41000   5.473   2.359   2.800  0.5088 -0.8617  1.4192
  304MOL0     H41001   5.421   2.142   2.804 -0.7423 -1.4294 -0.1963
  304MOL0     H41002   5.330   2.091   2.949 -0.3117  0.5559  1.6224
  304MOL0     H41003   5.243   2.129   2.805 -0.6102  0.5551 -0.1529
  304MOL0     H41004   5.097   2.219   3.391  0.4232 -2.8201  2.9883
  304MOL0     H41005   5.002   2.038   3.513  2.0715  2.0289 -0.2245
  304MOL0     H41006   4.696   1.735   3.447  1.4671  0.3270  1.4094
  304MOL0     H41007   4.748   1.806   3.296 -1.0342 -0.8100 -0.7222
  304MOL0     H41008   4.978   1.801   3.445 -0.5179  1.0019 -2.4371
  304MOL0     H41009   4.880   1.697   3.553 -2.4926 -0.7663 -0.4388
  304MOL0     H41010   5.040   1.589   3.381 -0.2887 -0.0155 -1.1537
  304MOL0     H41011   4.902   1.587   3.278  4.0322 -3.3022  0.3077
  304MOL0     H41012   4.914   1.482   3.557  0.9976 -1.8447 -1.2345
  304MOL0     H41013   4.763   1.488   3.460 -0.4846 -0.4495  1.7574
  304MOL0     H41014   4.852   1.352   3.280 -2.7824  2.4106 -0.4728
  304MOL0     H41015   4.853   1.267   3.427  0.6149  0.5386  0.6781
  304MOL0     H41016   5.080   1.409   3.283  2.0569 -1.7097 -1.2521
  304MOL0     H41017   5.111   1.358   3.450  0.4924  0.9259 -0.7378
  304MOL0     H41018   5.168   1.184   3.275  1.4842  2.1108  4.1399
  304MOL0     H41019   5.002   1.181   3.218  0.8098 -1.5611 -0.5486
  304MOL0     H41020   5.104   0.994   3.380 -1.9830  1.1871 -3.5725
  304MOL0     H41021   4.950   1.040   3.437 -0.6166 -0.3141 -1.3048
  304MOL0     H41022   4.669   2.023   3.235 -0.3725  1.8841 -1.6815
  304MOL0     H41023   4.790   2.183   3.097 -0.0390  0.8655  0.4391
  304MOL0     H41024   5.081   2.513   3.049 -0.3162 -1.5664  1.2415
  304MOL0     H41025   5.257   2.671   2.991  1.1742  1.0438 -3.2862
  304MOL0     H41026   5.834   1.891   3.642  3.5165  0.9680 -3.2308
  304MOL0     H41027   5.770   1.748   3.836  1.3529 -2.0404  1.1888
  304MOL0     H41028   5.774   1.429   4.083 -2.7670 -3.1851  0.7794
  304MOL0     H41029   5.701   1.274   4.220 -1.3284  0.5296  0.5521
  304MOL0     H41030   5.690   1.100   4.387 -2.5295 -0.0851 -0.1613
  304MOL0     H41031   5.658   1.087   4.561  0.0673  1.3694  2.0636
  304MOL0     H41032   5.525   1.276   4.357  2.4421  2.0742  1.8943
  304MOL0     H41033   5.495   1.268   4.539  1.3723  0.2040  0.0759
  304MOL0     H41034   5.298   1.159   4.440  1.5346  1.6467  0.4838
  304MOL0     H41035   5.395   1.055   4.538 -0.4879 -1.5164  0.3777
  304MOL0     H41036   5.327   0.944   4.335 -0.5199  1.3656 -0.5262
  304MOL0     H41037   5.509   0.964   4.327 -0.0915 -0.4225 -1.4435
  304MOL0     H41038   5.382   1.205   4.006  4.4276  1.3631  0.5844
  304MOL0     H41039   5.904   1.461   4.558 -1.1685 -1.2499  1.1310
  304MOL0     H41040   5.994   1.626   4.399 -3.5695  3.3896 -0.0504
  305MOL0     O41041   0.990  10.562   6.199  0.0379  0.2045 -0.2310
  305MOL0     C41042   0.972  10.644   6.113  0.4902  0.6170 -0.1138
  305MOL0     O41043   1.068  10.728   6.052 -0.3502 -0.1609 -1.0915
  305MOL0     C41044   1.200  10.720   6.106  1.2769  0.4060  1.1404
  305MOL0     C41045   1.281  10.610   6.059  0.5448 -0.4939  0.4955
  305MOL0     C41046   1.415  10.602   6.105 -0.1818 -0.3231  0.0826
  305MOL0     C41047   1.473  10.704   6.182 -0.7987 -0.5528 -0.3215
  305MOL0     O41048   1.602  10.677   6.215 -0.5799 -0.2571 -0.0399
  305MOL0     C41049   1.688  10.800   6.245  0.0719 -0.3890  0.0072
  305MOL0     C41050   1.835  10.753   6.256  0.8615 -0.8005 -0.1638
  305MOL0     C41051   1.945  10.860   6.279  0.3175  0.3536  0.1727
  305MOL0     C41052   2.087  10.783   6.292 -0.1722 -0.6821 -0.0788
  305MOL0     C41053   2.203  10.876   6.310  0.3383 -0.2694 -0.3937
  305MOL0     C41054   2.335  10.785   6.325  0.2316 -1.1061  0.6279
  305MOL0     C41055   2.392  10.738   6.186  0.6823 -0.3736 -0.1104
  305MOL0     C41056   2.528  10.672   6.217 -0.5681  0.5545 -0.1874
  305MOL0     N41057   2.547  10.551   6.135 -0.3321  0.7861  1.0984
  305MOL0     C41058   2.502  10.424   6.178 -0.3386 -0.0769 -0.2490
  305MOL0     C41059   2.566  10.337   6.098  0.0576  0.5458  0.2504
  305MOL0     C41060   2.568  10.187   6.109 -0.7308 -0.6002  0.1263
  305MOL0     C41061   2.692  10.144   6.182  0.2801  0.0157 -0.5483
  305MOL0     C41062   2.715   9.994   6.167 -0.3402 -0.0243 -0.0489
  305MOL0     C41063   2.591   9.911   6.168 -1.0034 -0.2876 -0.3881
  305MOL0     O41064   2.644   9.784   6.199 -0.2781  0.5332  0.5468
  305MOL0     C41065   2.554   9.685   6.209  0.3207  0.4726  0.4039
  305MOL0     C41066   2.602   9.557   6.254 -0.7310 -0.6614  0.2367
  305MOL0     C41067   2.522   9.451   6.287  0.6670  0.2169  0.3217
  305MOL0     C41068   2.573   9.320   6.351  0.3485  0.1986  0.4599
  305MOL0     C41069   2.382   9.464   6.259  0.5870  0.4488 -0.0270
  305MOL0     C41070   2.300   9.339   6.281  0.0227 -0.0425 -0.1951
  305MOL0     O41071   2.253   9.303   6.404  0.1771 -0.8621 -0.3788
  305MOL0     C41072   2.279   9.366   6.524 -1.2245  0.3441 -0.0007
  305MOL0     C41073   2.340   9.287   6.622 -0.4526 -0.3468 -0.1750
  305MOL0     C41074   2.386   9.349   6.743  0.3177 -0.1655  0.1762
  305MOL0     C41075   2.363   9.485   6.769 -0.1954  0.0542 -0.5925
  305MOL0     O41076   2.406   9.546   6.883  0.0975  0.5727  0.1325
  305MOL0     C41077   2.432   9.458   6.998 -0.9745 -0.9349  0.1232
  305MOL0     C41078   2.485   9.552   7.105  0.5562  0.5159 -0.2379
  305MOL0     C41079   2.478   9.497   7.245 -0.1494 -0.1154  0.0254
  305MOL0     C41080   2.341   9.535   7.312 -0.5223  0.1450 -0.4553
  305MOL0     C41081   2.315   9.447   7.434 -1.0531  0.0849 -0.9716
  305MOL0     C41082   2.432   9.462   7.535 -0.4726 -0.2819 -0.2639
  305MOL0     C41083   2.380   9.425   7.676 -0.1655  0.0099 -1.2273
  305MOL0     C41084   2.444   9.493   7.792  1.0082  0.8653 -0.7840
  305MOL0    Cl41085   2.624   9.458   7.769  0.3910  0.3038 -0.0890
  305MOL0     C41086   2.302   9.562   6.675 -1.3274  0.0364 -0.0847
  305MOL0     C41087   2.259   9.505   6.550 -0.1751  0.5314 -0.5135
  305MOL0     O41088   2.266   9.273   6.183 -1.1032  0.7793  0.8499
  305MOL0     C41089   2.333   9.578   6.195  0.1584  0.4625 -0.1673
  305MOL0     C41090   2.416   9.692   6.167 -0.4002  0.1641  0.5827
  305MOL0     N41091   2.646  10.411   6.006 -0.5419 -0.1205  0.5973
  305MOL0     N41092   2.630  10.532   6.032 -0.2072  0.2702  1.4510
  305MOL0     C41093   1.397  10.816   6.224  0.4346  0.7443 -0.1769
  305MOL0     C41094   1.255  10.817   6.190 -0.7830  0.0009  0.1777
  305MOL0     C41095   0.835  10.646   6.059 -0.4280 -0.7695  0.6729
  305MOL0     C41096   0.722  10.564   6.097  0.3202  0.3342 -0.4906
  305MOL0     C41097   0.602  10.551   6.015 -0.3475  0.3803  0.9792
  305MOL0     C41098   0.585  10.626   5.903  0.5734  0.4816  0.2735
  305MOL0     O41099   0.465  10.600   5.828 -0.9677 -0.4372  0.0966
  305MOL0     C41100   0.434  10.678   5.712 -0.4484  0.4035 -0.3512
  305MOL0     C41101   0.488  10.617   5.588 -0.3088 -0.0862  0.2098
  305MOL0     C41102   0.431  10.474   5.557  0.1146 -0.8502 -1.2111
  305MOL0     C41103   0.506  10.391   5.444  0.8661 -0.7214 -0.0474
  305MOL0     C41104   0.656  10.385   5.445  0.8373  0.2328  0.3963
  305MOL0     C41105   0.779  10.376   5.429  0.0755  0.0755  0.2178
  305MOL0     C41106   0.683  10.717   5.869  0.4171  0.6337  0.8704
  305MOL0     C41107   0.806  10.725   5.945  0.0694  0.1526  0.2217
  305MOL0     H41108   1.240  10.547   5.981  1.1223  1.0465 -1.1312
  305MOL0     H41109   1.478  10.519   6.077  0.1861  0.7564 -2.5796
  305MOL0     H41110   1.686  10.880   6.171 -1.3046 -0.5699 -0.1864
  305MOL0     H41111   1.652  10.847   6.337 -0.8804  1.7422 -1.3763
  305MOL0     H41112   1.834  10.672   6.329 -4.5614 -0.3718  0.6767
  305MOL0     H41113   1.852  10.719   6.153 -0.7694 -1.2498 -0.3100
  305MOL0     H41114   1.951  10.938   6.204 -1.9480  1.8025  1.3838
  305MOL0     H41115   1.927  10.906   6.377  1.3073 -0.8541  0.9624
  305MOL0     H41116   2.086  10.713   6.376  2.2560 -2.6049 -1.5042
  305MOL0     H41117   2.099  10.711   6.210 -0.6239  0.0623 -0.8100
  305MOL0     H41118   2.214  10.937   6.219  0.2873 -2.4584 -1.9453
  305MOL0     H41119   2.188  10.938   6.399 -1.1280 -0.9268 -0.1545
  305MOL0     H41120   2.420  10.834   6.373  1.2581 -1.9782 -0.2415
  305MOL0     H41121   2.309  10.700   6.389  1.9076  0.4466  3.5654
  305MOL0     H41122   2.322  10.670   6.137 -2.4079 -0.5455  3.9796
  305MOL0     H41123   2.399  10.825   6.120 -1.3086 -0.3628 -0.3618
  305MOL0     H41124   2.545  10.641   6.321  4.0714 -0.5233 -1.0112
  305MOL0     H41125   2.607  10.744   6.192 -1.4362  2.4792  2.1899
  305MOL0     H41126   2.435  10.401   6.260 -1.4612 -2.0729 -1.6331
  305MOL0     H41127   2.484  10.158   6.174 -0.2787  0.0073  1.0071
  305MOL0     H41128   2.568  10.148   6.007 -0.4548  0.5560 -0.3341
  305MOL0     H41129   2.677  10.172   6.287  1.0258  0.9737 -0.6790
  305MOL0     H41130   2.781  10.193   6.140 -0.8567  1.5247 -1.2585
  305MOL0     H41131   2.786   9.968   6.246 -0.6594  0.6994  0.4907
  305MOL0     H41132   2.762   9.978   6.070  0.7120 -0.7790  0.5761
  305MOL0     H41133   2.550   9.909   6.067  0.5392 -1.3990 -1.0379
  305MOL0     H41134   2.535   9.948   6.255 -0.1258  0.7028 -0.2219
  305MOL0     H41135   2.707   9.562   6.282 -0.9285 -0.7272  0.9844
  305MOL0     H41136   2.550   9.322   6.457  1.7513 -1.5439  0.8526
  305MOL0     H41137   2.533   9.231   6.302  1.1152 -1.0878  2.0824
  305MOL0     H41138   2.682   9.322   6.341  0.2388  2.3186 -1.2593
  305MOL0     H41139   2.355   9.180   6.606 -0.1661 -0.3511  0.1002
  305MOL0     H41140   2.434   9.282   6.814 -1.4800  0.2623  1.8857
  305MOL0     H41141   2.347   9.408   7.046 -1.0520 -0.1950  0.7667
  305MOL0     H41142   2.503   9.379   6.971 -1.0721 -0.7404 -0.7351
  305MOL0     H41143   2.591   9.572   7.086  0.2733  1.8036 -0.5371
  305MOL0     H41144   2.436   9.649   7.104  1.3805  0.9421  0.0555
  305MOL0     H41145   2.564   9.536   7.301 -0.5217  0.1674  0.4049
  305MOL0     H41146   2.483   9.388   7.233  1.7165 -0.3060  1.8327
  305MOL0     H41147   2.342   9.640   7.342  1.6094 -0.1640  0.6974
  305MOL0     H41148   2.253   9.521   7.248 -0.8956  1.7679 -0.3456
  305MOL0     H41149   2.321   9.341   7.405  2.3055  0.4533 -2.0695
  305MOL0     H41150   2.214   9.474   7.467 -0.6944 -0.3663  0.5917
  305MOL0     H41151   2.515   9.400   7.498 -1.2311 -1.1264 -0.5893
  305MOL0     H41152   2.462   9.566   7.522  3.9301 -1.6919 -3.9317
  305MOL0     H41153   2.395   9.318   7.694 -1.0411 -0.1296 -1.2824
  305MOL0     H41154   2.271   9.434   7.686 -0.3077 -1.5851 -1.1914
  305MOL0     H41155   2.420   9.446   7.888  2.6728  2.9255  0.7267
  305MOL0     H41156   2.433   9.601   7.778  1.8337  0.9733 -0.6442
  305MOL0     H41157   2.281   9.666   6.698 -0.4804  0.0222  0.7934
  305MOL0     H41158   2.219   9.546   6.458  0.9175 -3.6649 -3.1010
  305MOL0     H41159   2.229   9.587   6.168 -0.2396 -0.0215  1.1266
  305MOL0     H41160   2.374   9.784   6.127 -0.2304  0.3127  0.7460
  305MOL0     H41161   1.428  10.893   6.294 -0.5008  2.1272 -1.2388
  305MOL0     H41162   1.193  10.901   6.221 -1.9073 -0.4688 -0.7327
  305MOL0     H41163   0.743  10.505   6.186  2.9468  2.5382  0.4702
  305MOL0     H41164   0.535  10.470   6.040 -2.1592  1.2798 -0.6521
  305MOL0     H41165   0.325  10.677   5.722 -0.2220 -0.7961  3.0050
  305MOL0     H41166   0.457  10.785   5.714 -0.9946  0.5168  0.2394
  305MOL0     H41167   0.596  10.600   5.595 -0.0549  1.9918  5.1571
  305MOL0     H41168   0.476  10.681   5.500 -1.8258 -0.8745 -0.2068
  305MOL0     H41169   0.326  10.480   5.529  0.3066  1.8445 -1.5583
  305MOL0     H41170   0.450  10.427   5.654 -1.7640 -0.6376 -0.6918
  305MOL0     H41171   0.477  10.414   5.341 -1.3566 -3.4045 -0.1499
  305MOL0     H41172   0.484  10.284   5.454 -0.3380 -0.5727 -0.9558
  305MOL0     H41173   0.883  10.357   5.413 -0.3855 -0.2525 -2.9632
  305MOL0     H41174   0.673  10.774   5.777  0.8054 -0.6302  0.0116
  305MOL0     H41175   0.876  10.799   5.908 -1.6861  1.0182 -1.5731
  306MOL0     O41176  10.094   1.962   1.178 -0.1237  0.2532  0.3767
  306MOL0     C41177  10.164   2.019   1.259  0.3003  0.3853 -0.3085
  306MOL0     O41178  10.170   2.154   1.267  0.4220 -0.6853 -0.1969
  306MOL0     C41179  10.111   2.235   1.176 -0.5587 -0.4514  1.1708
  306MOL0     C41180   9.979   2.288   1.197 -1.1892 -0.3891 -0.4729
  306MOL0     C41181   9.925   2.376   1.104 -0.3825  0.2751 -1.2851
  306MOL0     C41182  10.007   2.424   1.004 -0.1989 -0.1395  0.2116
  306MOL0     O41183   9.963   2.516   0.910  0.5247 -0.6886 -0.0032
  306MOL0     C41184   9.861   2.468   0.817 -0.0285  0.6840 -0.1154
  306MOL0     C41185   9.825   2.577   0.721  0.4365  0.1420  0.7787
  306MOL0     C41186   9.790   2.710   0.800  0.3526  0.1014 -0.4173
  306MOL0     C41187   9.651   2.700   0.873 -0.5743  0.4492 -0.8226
  306MOL0     C41188   9.621   2.824   0.949  0.8433  0.4592  0.0124
  306MOL0     C41189   9.488   2.811   1.011  0.2015 -0.0993 -0.1074
  306MOL0     C41190   9.461   2.927   1.116 -0.4754  0.5822  1.7074
  306MOL0     C41191   9.589   2.953   1.210  1.0013 -0.4452  0.2590
  306MOL0     N41192   9.600   2.838   1.305 -0.1705 -0.8400 -0.0963
  306MOL0     C41193   9.510   2.795   1.408 -0.8626 -0.5497 -0.7289
  306MOL0     C41194   9.580   2.695   1.476 -0.6132 -1.4250  0.0563
  306MOL0     C41195   9.502   2.603   1.566 -0.8296  0.4345  0.1445
  306MOL0     C41196   9.410   2.671   1.668 -0.2731 -0.8511 -0.1550
  306MOL0     C41197   9.375   2.569   1.771  1.4927 -0.4619  0.1347
  306MOL0     C41198   9.288   2.625   1.883 -0.3762  0.3401 -0.2014
  306MOL0     O41199   9.367   2.701   1.980  0.6099 -0.8310  0.1103
  306MOL0     C41200   9.288   2.759   2.078 -0.6006 -0.6774  0.1243
  306MOL0     C41201   9.315   2.891   2.112 -0.1548  0.4846 -0.0521
  306MOL0     C41202   9.236   2.962   2.207 -0.1327  1.0309  0.7459
  306MOL0     C41203   9.285   3.099   2.209  0.0759 -0.6756 -0.1954
  306MOL0     C41204   9.111   2.915   2.258 -0.2859  0.1526  1.2906
  306MOL0     C41205   9.025   2.998   2.349 -0.1854  0.0062 -1.0744
  306MOL0     O41206   8.949   2.922   2.438  0.3681 -0.9642  0.5446
  306MOL0     C41207   8.850   2.978   2.525 -0.7549  1.1820  0.4871
  306MOL0     C41208   8.825   3.116   2.552  0.1306 -0.1644  0.3287
  306MOL0     C41209   8.732   3.159   2.645 -0.2257  0.3497  0.2243
  306MOL0     C41210   8.658   3.069   2.723  0.2580 -0.1335  0.3375
  306MOL0     O41211   8.559   3.100   2.814 -0.0535 -0.5984  0.6044
  306MOL0     C41212   8.517   3.241   2.826  0.1285 -0.6798  0.5213
  306MOL0     C41213   8.457   3.263   2.966 -0.4742 -0.2807 -0.9551
  306MOL0     C41214   8.551   3.305   3.090  0.3611 -0.4580  0.9421
  306MOL0     C41215   8.635   3.184   3.145 -0.4439  0.7945 -0.3615
  306MOL0     C41216   8.722   3.238   3.256 -0.0677  0.4281 -1.1988
  306MOL0     C41217   8.799   3.111   3.311 -0.2405 -0.8054 -0.5417
  306MOL0     C41218   8.912   3.129   3.402  0.0074  0.3321 -0.0034
  306MOL0     C41219   8.890   3.195   3.531 -0.3800 -0.1597 -0.3577
  306MOL0    Cl41220   8.793   3.089   3.637 -0.0050 -0.4011  0.0222
  306MOL0     C41221   8.677   2.934   2.693 -0.2775  0.0687 -0.1196
  306MOL0     C41222   8.784   2.893   2.608 -0.2138  0.0896 -0.6197
  306MOL0     O41223   9.024   3.117   2.344 -0.3685 -0.6346 -0.1780
  306MOL0     C41224   9.081   2.782   2.225 -0.0581  0.9112  0.6772
  306MOL0     C41225   9.164   2.706   2.126 -0.4618 -0.5960 -0.2429
  306MOL0     N41226   9.691   2.666   1.408 -0.0198 -0.8274  0.3341
  306MOL0     N41227   9.699   2.753   1.306 -0.7269 -0.1726  1.0539
  306MOL0     C41228  10.142   2.376   0.995  0.3502 -0.6487  0.6604
  306MOL0     C41229  10.189   2.283   1.067  0.0834 -0.0679  0.3059
  306MOL0     C41230  10.227   1.929   1.362 -1.2054  0.8457  1.2496
  306MOL0     C41231  10.200   1.794   1.370  0.3882  0.2401 -0.0125
  306MOL0     C41232  10.259   1.710   1.461 -0.5120  0.6114 -0.3163
  306MOL0     C41233  10.347   1.756   1.554 -0.5414 -0.6337 -0.5252
  306MOL0     O41234  10.433   1.690   1.631 -0.7770 -0.2420  0.8441
  306MOL0     C41235  10.455   1.544   1.589 -0.4243 -0.6336  0.8099
  306MOL0     C41236  10.575   1.497   1.675  0.2496  0.4386  1.1808
  306MOL0     C41237  10.618   1.360   1.608  0.2651  0.2368  0.3769
  306MOL0     C41238  10.762   1.327   1.645  0.1970 -0.3336 -0.0995
  306MOL0     C41239  10.788   1.203   1.581  0.0468 -0.1353 -0.1297
  306MOL0     C41240  10.790   1.109   1.511 -0.6507  0.0621  0.8116
  306MOL0     C41241  10.356   1.900   1.559  0.1820 -0.2359 -0.4574
  306MOL0     C41242  10.310   1.979   1.462 -0.8874  0.8493 -0.2904
  306MOL0     H41243   9.925   2.246   1.281  1.7367 -1.2852  1.1203
  306MOL0     H41244   9.821   2.407   1.117 -0.9577 -1.4589 -1.4256
  306MOL0     H41245   9.913   2.389   0.762 -0.7273  1.6125 -2.2265
  306MOL0     H41246   9.769   2.444   0.871 -0.3904  4.5069  1.2895
  306MOL0     H41247   9.918   2.600   0.668 -0.3245  3.0663  0.5317
  306MOL0     H41248   9.750   2.542   0.650  1.0772  0.5442 -0.1183
  306MOL0     H41249   9.860   2.754   0.870 -0.5733  2.3667 -0.8224
  306MOL0     H41250   9.773   2.779   0.716 -2.1918 -0.8874 -0.8176
  306MOL0     H41251   9.572   2.690   0.798  1.0578  1.2462 -2.7328
  306MOL0     H41252   9.650   2.618   0.946  3.1978  0.2837 -0.7305
  306MOL0     H41253   9.699   2.830   1.026 -2.0155  0.9960  3.0908
  306MOL0     H41254   9.622   2.910   0.883  1.9682 -0.7455 -1.6173
  306MOL0     H41255   9.416   2.820   0.930 -0.5293 -0.7065  0.4572
  306MOL0     H41256   9.462   2.721   1.068 -2.3408  0.7504  0.1818
  306MOL0     H41257   9.454   3.018   1.056 -1.2718  0.4609  1.6003
  306MOL0     H41258   9.368   2.912   1.172 -0.6677  0.1701  1.2747
  306MOL0     H41259   9.580   3.047   1.265  0.4951  0.2205 -0.9227
  306MOL0     H41260   9.676   2.972   1.146  0.6869 -1.7873 -0.6222
  306MOL0     H41261   9.409   2.835   1.418 -0.3152  0.3590  1.9141
  306MOL0     H41262   9.446   2.527   1.512  1.0139 -1.5962  0.9407
  306MOL0     H41263   9.576   2.537   1.612  0.5324  0.3234 -2.1079
  306MOL0     H41264   9.326   2.720   1.619 -0.2358 -0.6881 -0.0532
  306MOL0     H41265   9.464   2.752   1.717 -1.4460 -0.5839  0.7487
  306MOL0     H41266   9.464   2.516   1.806  3.3975  1.9544 -0.7694
  306MOL0     H41267   9.316   2.494   1.718 -0.5821 -0.0820  1.7830
  306MOL0     H41268   9.244   2.540   1.935 -0.1021  2.1268  3.2475
  306MOL0     H41269   9.209   2.692   1.846 -2.3196 -0.6316  1.9295
  306MOL0     H41270   9.400   2.941   2.067 -0.5646  2.2604  1.0262
  306MOL0     H41271   9.219   3.167   2.155  1.7814  1.4021  0.2123
  306MOL0     H41272   9.298   3.125   2.315 -2.4713 -4.2510  1.2336
  306MOL0     H41273   9.382   3.108   2.161 -0.2100 -1.9578 -1.0873
  306MOL0     H41274   8.869   3.198   2.496 -0.8155  3.9770  4.9207
  306MOL0     H41275   8.730   3.267   2.654 -0.1668  0.5705 -1.9456
  306MOL0     H41276   8.594   3.317   2.812 -2.4596  2.1128  0.6844
  306MOL0     H41277   8.445   3.266   2.749  0.9518  1.0222  0.2561
  306MOL0     H41278   8.389   3.348   2.955 -2.7708 -1.8843  0.0261
  306MOL0     H41279   8.398   3.175   2.994 -0.6625  0.8350  2.7082
  306MOL0     H41280   8.488   3.353   3.165 -1.1171 -0.2116 -0.4020
  306MOL0     H41281   8.628   3.380   3.068  1.5480 -1.5642  1.2093
  306MOL0     H41282   8.589   3.092   3.182  2.1061 -0.0099  1.1176
  306MOL0     H41283   8.705   3.159   3.064  4.1917  0.6071  3.2353
  306MOL0     H41284   8.661   3.271   3.340 -1.3794  1.6382 -2.5711
  306MOL0     H41285   8.793   3.315   3.226  0.0552  0.3711 -1.0559
  306MOL0     H41286   8.726   3.046   3.362  0.6146 -3.5101 -2.5174
  306MOL0     H41287   8.833   3.061   3.220 -2.8330  0.8186 -2.5473
  306MOL0     H41288   8.997   3.183   3.359  2.6901 -2.4091  1.4686
  306MOL0     H41289   8.964   3.034   3.420  0.1571  0.6335  1.2124
  306MOL0     H41290   8.842   3.293   3.525  0.6316  0.5511  1.9589
  306MOL0     H41291   8.988   3.213   3.577  0.3062 -3.3562 -0.3685
  306MOL0     H41292   8.631   2.858   2.755  1.6254 -0.4665  0.7169
  306MOL0     H41293   8.810   2.788   2.600  1.5814  0.3700  0.8132
  306MOL0     H41294   8.997   2.736   2.275 -1.9920  1.1725 -2.1110
  306MOL0     H41295   9.120   2.609   2.102 -1.9070 -0.7841  2.7142
  306MOL0     H41296  10.214   2.416   0.924  0.1945  2.9359  2.3071
  306MOL0     H41297  10.293   2.265   1.045 -0.7062  0.2984 -5.3520
  306MOL0     H41298  10.126   1.756   1.300 -1.6145  0.6150  1.7925
  306MOL0     H41299  10.242   1.603   1.446 -2.4583  0.7805  0.3879
  306MOL0     H41300  10.368   1.482   1.611 -1.1013  0.7054  2.1129
  306MOL0     H41301  10.481   1.531   1.484  1.0267  1.8825  0.7670
  306MOL0     H41302  10.545   1.467   1.776 -2.7184 -1.8807 -0.2327
  306MOL0     H41303  10.664   1.561   1.670  0.9906 -0.6913 -1.8283
  306MOL0     H41304  10.618   1.373   1.500  2.3443  0.8100  0.4047
  306MOL0     H41305  10.547   1.285   1.645 -0.3999  0.8997  0.4560
  306MOL0     H41306  10.764   1.327   1.755  0.8167 -0.7961 -0.1059
  306MOL0     H41307  10.836   1.399   1.608  1.0711  0.3232  2.6583
  306MOL0     H41308  10.793   1.016   1.458 -1.6307 -0.9104  2.3869
  306MOL0     H41309  10.414   1.946   1.638  0.3485 -0.1068 -0.6525
  306MOL0     H41310  10.333   2.084   1.453  2.4605  0.1560 -1.3315
  307MOL0     O41311   7.812   6.854   1.348  0.0788  0.2321  0.6057
  307MOL0     C41312   7.882   6.758   1.327 -0.0501  0.0861  0.8610
  307MOL0     O41313   7.866   6.631   1.377  1.1571 -0.4775  0.2623
  307MOL0     C41314   7.772   6.589   1.469 -0.6090 -0.5481  0.1877
  307MOL0     C41315   7.719   6.668   1.571 -0.1973 -0.2223 -0.9233
  307MOL0     C41316   7.618   6.612   1.655 -0.6097  0.1681 -0.2179
  307MOL0     C41317   7.569   6.477   1.644  0.1737 -0.6886  0.6794
  307MOL0     O41318   7.463   6.434   1.728 -0.2113  0.2201 -0.1222
  307MOL0     C41319   7.512   6.350   1.832  0.0686 -0.2105  0.4448
  307MOL0     C41320   7.406   6.339   1.938 -0.0474 -0.2487 -0.8326
  307MOL0     C41321   7.437   6.232   2.039  0.4407  0.5381  0.2350
  307MOL0     C41322   7.347   6.217   2.172 -0.0270 -0.2289  0.2283
  307MOL0     C41323   7.324   6.343   2.263 -0.0959  0.4508  0.1954
  307MOL0     C41324   7.191   6.337   2.360 -0.3569 -0.8894 -0.2754
  307MOL0     C41325   7.199   6.199   2.425  0.6499 -0.4827 -0.3190
  307MOL0     C41326   7.119   6.201   2.548  0.1318  1.1064 -0.7750
  307MOL0     N41327   7.106   6.058   2.594 -0.2270  0.3445  0.0327
  307MOL0     C41328   7.159   5.990   2.703 -0.1713  0.4595 -0.6369
  307MOL0     C41329   7.117   5.858   2.684 -1.0740 -0.0899 -0.6164
  307MOL0     C41330   7.189   5.753   2.764  0.1050 -0.2242  0.0122
  307MOL0     C41331   7.263   5.653   2.681  0.0242 -0.8605  0.2384
  307MOL0     C41332   7.277   5.535   2.758  1.2215  0.3162 -0.0003
  307MOL0     C41333   7.377   5.454   2.678 -1.1653 -0.0265 -0.4420
  307MOL0     O41334   7.378   5.317   2.716  0.3216 -0.6346 -0.2205
  307MOL0     C41335   7.264   5.249   2.678  0.4939  0.5449  0.1615
  307MOL0     C41336   7.219   5.244   2.544 -0.0393 -0.5276 -0.1932
  307MOL0     C41337   7.098   5.182   2.514 -0.1762 -0.0592  0.1642
  307MOL0     C41338   7.033   5.201   2.385  0.0087 -0.7969  0.1959
  307MOL0     C41339   7.037   5.108   2.609  0.9222  0.1781 -1.0293
  307MOL0     C41340   6.907   5.040   2.598 -0.2579 -1.0370  0.4598
  307MOL0     O41341   6.803   5.103   2.653  0.4312 -0.3134 -0.7418
  307MOL0     C41342   6.678   5.039   2.675 -0.3595 -0.4102 -0.6655
  307MOL0     C41343   6.562   5.102   2.640 -0.0515 -0.2016  0.1162
  307MOL0     C41344   6.433   5.037   2.636  0.2241 -0.0980 -0.2254
  307MOL0     C41345   6.425   4.902   2.677  0.2672  1.4997  0.8373
  307MOL0     O41346   6.299   4.831   2.703 -0.3459 -0.7083  0.6018
  307MOL0     C41347   6.180   4.909   2.675  0.2892 -0.2213  0.5065
  307MOL0     C41348   6.070   4.806   2.682  0.6375 -0.6557 -0.0516
  307MOL0     C41349   5.944   4.866   2.613  0.9117 -0.4794 -0.3730
  307MOL0     C41350   5.913   5.008   2.662 -0.4005  0.0032  0.1110
  307MOL0     C41351   5.771   5.057   2.659 -0.6826 -0.2519 -0.9298
  307MOL0     C41352   5.705   5.040   2.517 -0.1986  0.8458  0.0777
  307MOL0     C41353   5.584   5.118   2.489  0.1538 -0.4892 -0.2674
  307MOL0     C41354   5.521   5.107   2.348 -0.2272 -0.0052  0.8579
  307MOL0    Cl41355   5.395   5.237   2.316 -0.3384  0.3686 -0.3396
  307MOL0     C41356   6.540   4.838   2.720  0.0365  0.4625  0.8002
  307MOL0     C41357   6.658   4.909   2.713 -1.1538  0.2889  0.7227
  307MOL0     O41358   6.895   4.938   2.525  0.7932  0.3333 -0.9400
  307MOL0     C41359   7.099   5.089   2.735  0.3162  0.0796 -0.2428
  307MOL0     C41360   7.211   5.170   2.777 -0.5696 -0.2411  0.0109
  307MOL0     N41361   7.039   5.845   2.579  0.2420 -0.5242 -0.4196
  307MOL0     N41362   7.025   5.967   2.534  0.5358  0.6565 -0.2552
  307MOL0     C41363   7.631   6.398   1.539 -0.0486  0.3817 -0.4795
  307MOL0     C41364   7.721   6.455   1.446 -0.8342 -0.0562 -0.6957
  307MOL0     C41365   7.986   6.771   1.225 -0.0100  0.4049  0.3909
  307MOL0     C41366   8.061   6.653   1.194 -0.2324 -1.1099  0.0149
  307MOL0     C41367   8.171   6.666   1.115 -0.2756  0.1238  0.0131
  307MOL0     C41368   8.207   6.794   1.051 -0.8175  0.7350 -0.2809
  307MOL0     O41369   8.318   6.816   0.973 -0.0093  0.3126 -0.7542
  307MOL0     C41370   8.408   6.707   0.958 -0.0554  0.0271  0.3814
  307MOL0     C41371   8.376   6.598   0.855 -0.4020 -0.5746 -0.9762
  307MOL0     C41372   8.303   6.657   0.739  0.5522  0.8236  0.4975
  307MOL0     C41373   8.284   6.558   0.622 -0.3977  0.4881 -0.3507
  307MOL0     C41374   8.240   6.427   0.661  1.1431  0.2203 -0.1224
  307MOL0     C41375   8.214   6.312   0.684 -0.0430 -0.1101 -0.7111
  307MOL0     C41376   8.127   6.905   1.076  0.3396  0.5493  0.3990
  307MOL0     C41377   8.022   6.891   1.175 -0.3178  0.7126 -0.1767
  307MOL0     H41378   7.749   6.772   1.577 -0.3465 -0.1792 -0.9150
  307MOL0     H41379   7.570   6.679   1.725 -0.3983  0.9108 -0.7656
  307MOL0     H41380   7.541   6.251   1.794 -0.0096 -0.3381  0.7101
  307MOL0     H41381   7.598   6.409   1.865 -2.1273  3.2917  0.3918
  307MOL0     H41382   7.389   6.433   1.992  0.6066  0.2526 -1.4775
  307MOL0     H41383   7.309   6.314   1.895 -0.2426 -0.4651 -0.2631
  307MOL0     H41384   7.426   6.135   1.990  0.9005  0.8059 -0.4114
  307MOL0     H41385   7.538   6.253   2.075  1.0246  0.7707 -1.4280
  307MOL0     H41386   7.245   6.197   2.138  0.3272 -3.1923  0.6239
  307MOL0     H41387   7.391   6.135   2.230 -0.1469  1.4379  2.8406
  307MOL0     H41388   7.406   6.365   2.332  0.0064 -0.1389  0.2743
  307MOL0     H41389   7.306   6.422   2.191 -1.4323 -0.5766 -0.6552
  307MOL0     H41390   7.201   6.417   2.434 -1.6590 -3.3872  2.8074
  307MOL0     H41391   7.095   6.345   2.307  0.7176 -0.3375 -2.2583
  307MOL0     H41392   7.161   6.117   2.364 -0.1187  0.3062 -0.9164
  307MOL0     H41393   7.300   6.170   2.454  0.9917  0.7379 -0.2192
  307MOL0     H41394   7.026   6.257   2.542 -0.8289 -0.2848  0.4382
  307MOL0     H41395   7.170   6.245   2.634 -3.7672 -0.3582  2.6023
  307MOL0     H41396   7.242   6.024   2.764 -0.5125 -1.4083  0.9579
  307MOL0     H41397   7.260   5.787   2.840  2.1303  2.3993 -2.8116
  307MOL0     H41398   7.106   5.704   2.816 -0.0180  1.6367  1.6712
  307MOL0     H41399   7.362   5.691   2.654 -0.0866 -1.0512 -0.4633
  307MOL0     H41400   7.205   5.623   2.593 -1.1811  0.0647  0.6948
  307MOL0     H41401   7.183   5.481   2.774  1.5147  0.2669  1.7409
  307MOL0     H41402   7.324   5.548   2.856 -1.2040 -1.4128  1.4895
  307MOL0     H41403   7.477   5.497   2.691 -0.0271 -2.8334  0.8832
  307MOL0     H41404   7.360   5.459   2.570 -1.5723 -0.0440 -0.3790
  307MOL0     H41405   7.266   5.283   2.455 -0.7399 -1.3859 -0.9629
  307MOL0     H41406   7.089   5.141   2.313  0.1269  0.1058 -0.4852
  307MOL0     H41407   6.937   5.150   2.377  0.4933 -1.5461 -1.2882
  307MOL0     H41408   7.028   5.308   2.361  0.5826 -0.2037  2.4658
  307MOL0     H41409   6.555   5.210   2.627  0.5981  0.1397  2.3342
  307MOL0     H41410   6.345   5.098   2.619 -0.7374 -1.7629 -1.5253
  307MOL0     H41411   6.176   4.974   2.763  3.2107  0.5267  0.1924
  307MOL0     H41412   6.193   4.958   2.578 -0.9084  0.5183  0.6959
  307MOL0     H41413   6.101   4.716   2.628 -0.5843  0.1782 -2.2666
  307MOL0     H41414   6.052   4.780   2.787 -0.5354  2.1416  0.5277
  307MOL0     H41415   5.868   4.795   2.646  0.6447 -0.5499 -1.1219
  307MOL0     H41416   5.970   4.851   2.507  2.5716  0.2697 -0.1148
  307MOL0     H41417   5.954   5.016   2.763 -0.6403 -3.3395  0.6087
  307MOL0     H41418   5.969   5.077   2.598  1.2351  0.6710  2.1629
  307MOL0     H41419   5.767   5.160   2.695  0.3433 -0.3885 -0.3730
  307MOL0     H41420   5.712   4.995   2.727 -0.9779  0.9683 -0.0399
  307MOL0     H41421   5.782   5.062   2.441 -1.1478 -1.4352 -1.6578
  307MOL0     H41422   5.682   4.934   2.511 -1.5818  1.2023 -2.1983
  307MOL0     H41423   5.601   5.219   2.528 -0.7902 -1.0225  1.6497
  307MOL0     H41424   5.511   5.067   2.553  0.3269 -1.4213 -0.7898
  307MOL0     H41425   5.469   5.013   2.328 -2.2106  0.9177  1.4472
  307MOL0     H41426   5.603   5.116   2.276  1.4555 -0.5643  2.6100
  307MOL0     H41427   6.532   4.736   2.757  0.3652 -1.2870 -3.3466
  307MOL0     H41428   6.741   4.849   2.748  1.2967  3.6074  1.1615
  307MOL0     H41429   7.063   5.018   2.808  1.8817 -1.1392 -0.5946
  307MOL0     H41430   7.272   5.164   2.866  1.3524 -0.2165 -1.2371
  307MOL0     H41431   7.599   6.294   1.532  0.5777  0.1267  0.3128
  307MOL0     H41432   7.758   6.403   1.359  0.9697  1.2341 -0.7560
  307MOL0     H41433   8.040   6.551   1.224 -2.0564 -0.5818  0.6104
  307MOL0     H41434   8.224   6.572   1.103 -0.5454  0.0555 -0.6705
  307MOL0     H41435   8.500   6.747   0.914 -0.9997  2.2528  0.3539
  307MOL0     H41436   8.436   6.657   1.051 -0.5043 -0.5496  0.2188
  307MOL0     H41437   8.303   6.532   0.902  1.0966 -3.2662 -2.2245
  307MOL0     H41438   8.467   6.544   0.827 -0.2007  1.1681 -4.2124
  307MOL0     H41439   8.354   6.748   0.705  3.0834  0.2463  2.4493
  307MOL0     H41440   8.199   6.682   0.762 -0.0736  1.1257 -2.2953
  307MOL0     H41441   8.379   6.567   0.567  0.7170  2.4083  1.7219
  307MOL0     H41442   8.203   6.599   0.561 -1.9800 -1.3585  0.4046
  307MOL0     H41443   8.200   6.208   0.702 -1.0913  0.0825 -0.3391
  307MOL0     H41444   8.136   6.993   1.014  0.1660 -1.1595 -2.1817
  307MOL0     H41445   7.970   6.979   1.211  2.5013  1.4685  2.4416
  308MOL0     O41446   9.080   4.341   5.299 -0.3704 -0.0225  0.5152
  308MOL0     C41447   8.986   4.272   5.340  0.6198 -0.2712 -0.0908
  308MOL0     O41448   8.924   4.290   5.468 -0.7658  0.2593  0.7422
  308MOL0     C41449   8.958   4.383   5.557  0.1785 -0.1782  0.2924
  308MOL0     C41450   8.854   4.458   5.622 -0.0727 -0.2454  0.0998
  308MOL0     C41451   8.888   4.541   5.729  0.7357 -0.4430 -0.3357
  308MOL0     C41452   9.022   4.554   5.773  0.6122 -0.4969  0.1543
  308MOL0     O41453   9.048   4.623   5.882  0.7556  0.2303 -0.5818
  308MOL0     C41454   9.059   4.538   5.998  0.3507 -0.6726 -0.0393
  308MOL0     C41455   9.088   4.645   6.102  0.0372  0.2161  0.7601
  308MOL0     C41456   9.077   4.585   6.240  0.6492  0.9998 -0.5298
  308MOL0     C41457   9.179   4.636   6.343  1.0803  0.1641 -0.5110
  308MOL0     C41458   9.147   4.766   6.417  0.1238 -0.5794 -0.1928
  308MOL0     C41459   9.010   4.755   6.488  0.1375 -1.2706  0.3138
  308MOL0     C41460   8.967   4.896   6.541  0.1718 -0.6773  0.0332
  308MOL0     C41461   9.024   4.925   6.674  0.0625  0.3242  0.0751
  308MOL0     N41462   9.021   5.059   6.722 -0.6012  0.0116 -0.5618
  308MOL0     C41463   9.078   5.170   6.677  0.0166 -0.6444 -0.3989
  308MOL0     C41464   9.026   5.269   6.755 -0.3238  0.2279 -0.0526
  308MOL0     C41465   9.047   5.409   6.725  0.6283 -0.4555 -0.3814
  308MOL0     C41466   8.914   5.471   6.666 -0.8407  0.5228 -0.4461
  308MOL0     C41467   8.893   5.449   6.518  0.3953 -1.1713 -0.3232
  308MOL0     C41468   8.835   5.318   6.485  0.9203 -0.0865 -0.7050
  308MOL0     O41469   8.845   5.280   6.351  0.8704 -0.3392  0.0244
  308MOL0     C41470   8.780   5.163   6.314  0.3452  0.6779 -0.3744
  308MOL0     C41471   8.824   5.109   6.196 -0.2644  0.3822 -0.6466
  308MOL0     C41472   8.783   4.995   6.143  0.7787  0.1564 -0.0662
  308MOL0     C41473   8.821   4.964   6.001 -0.9520  0.4944 -0.2164
  308MOL0     C41474   8.683   4.908   6.214 -0.2033 -0.4050  0.0493
  308MOL0     C41475   8.634   4.782   6.168 -0.1172  0.9901 -0.7349
  308MOL0     O41476   8.567   4.714   6.264 -0.5442 -0.3070 -0.5822
  308MOL0     C41477   8.549   4.581   6.247 -0.3716 -0.0113  0.0027
  308MOL0     C41478   8.641   4.486   6.278  0.2160  1.2560 -0.1928
  308MOL0     C41479   8.621   4.354   6.261 -0.1965  0.4420  0.3186
  308MOL0     C41480   8.500   4.305   6.219  0.0598  0.0191  0.3331
  308MOL0     O41481   8.465   4.174   6.192  0.3278  0.4043  0.4223
  308MOL0     C41482   8.559   4.100   6.124  0.6148 -0.2687  0.0518
  308MOL0     C41483   8.516   3.962   6.087  0.1080  0.8649 -0.3417
  308MOL0     C41484   8.452   3.877   6.205  0.2291 -0.0842 -0.2747
  308MOL0     C41485   8.533   3.858   6.331 -0.6662 -0.2106 -0.7459
  308MOL0     C41486   8.453   3.795   6.453 -0.2186 -0.3004 -0.0666
  308MOL0     C41487   8.414   3.655   6.421 -0.5811  0.2685 -0.1302
  308MOL0     C41488   8.380   3.584   6.552  0.9228 -0.5321  0.9596
  308MOL0     C41489   8.358   3.429   6.549  0.5472 -0.4057 -0.0634
  308MOL0    Cl41490   8.503   3.347   6.501 -0.6186  0.3392  0.4832
  308MOL0     C41491   8.406   4.395   6.187 -0.5326 -0.8937  0.6353
  308MOL0     C41492   8.427   4.536   6.202  0.0994 -0.3808  0.8720
  308MOL0     O41493   8.672   4.734   6.056  0.8601  0.1005 -0.3406
  308MOL0     C41494   8.628   4.966   6.335  0.5495 -0.1001 -0.8048
  308MOL0     C41495   8.683   5.090   6.381  0.8280 -0.4390  0.2178
  308MOL0     N41496   8.931   5.216   6.846 -0.0792 -0.0025 -0.2340
  308MOL0     N41497   8.943   5.091   6.832 -0.7355  0.0842  0.2782
  308MOL0     C41498   9.112   4.474   5.714  0.2638  0.3145 -0.0954
  308MOL0     C41499   9.085   4.390   5.604 -0.1418 -0.6799  0.1089
  308MOL0     C41500   8.933   4.162   5.256  0.1382 -0.2780 -0.4682
  308MOL0     C41501   9.017   4.072   5.174 -0.3922  0.5355 -1.1621
  308MOL0     C41502   8.966   3.966   5.101 -0.5034  0.5995  0.2861
  308MOL0     C41503   8.828   3.934   5.103 -0.0849  0.5812  0.7411
  308MOL0     O41504   8.772   3.838   5.026  0.0684  0.6176  0.8394
  308MOL0     C41505   8.859   3.729   4.991  0.0920  0.3985  0.5533
  308MOL0     C41506   8.773   3.619   4.933 -0.6638  0.5226  0.1646
  308MOL0     C41507   8.677   3.547   5.029 -0.1178  0.3023 -0.8460
  308MOL0     C41508   8.734   3.462   5.139 -0.5193  0.0080  0.0492
  308MOL0     C41509   8.814   3.352   5.093 -0.7065 -0.1414  0.2895
  308MOL0     C41510   8.890   3.262   5.064  0.0334 -0.1051  0.4302
  308MOL0     C41511   8.745   4.015   5.173  1.1406 -0.0507 -0.9279
  308MOL0     C41512   8.800   4.114   5.261  0.2220  0.5390 -1.0400
  308MOL0     H41513   8.749   4.453   5.597  0.5350 -0.6626 -2.7400
  308MOL0     H41514   8.811   4.604   5.773  2.8309  1.5174  0.7220
  308MOL0     H41515   8.964   4.487   6.018  0.7916 -2.5623 -2.4171
  308MOL0     H41516   9.139   4.464   5.987  0.9730 -0.3406  1.8987
  308MOL0     H41517   9.183   4.693   6.075  0.2147 -0.7466 -0.4148
  308MOL0     H41518   9.008   4.719   6.101 -0.1795  0.1355 -3.2533
  308MOL0     H41519   8.973   4.578   6.272  2.0990 -0.2632  5.1237
  308MOL0     H41520   9.108   4.481   6.226  3.3397  1.4289  1.3340
  308MOL0     H41521   9.174   4.550   6.411 -0.7886 -0.5273 -1.4399
  308MOL0     H41522   9.280   4.636   6.300  1.0132 -1.2867 -0.7341
  308MOL0     H41523   9.225   4.797   6.488  3.1599 -1.6450 -2.8067
  308MOL0     H41524   9.145   4.843   6.339  1.8151 -3.0524 -2.8959
  308MOL0     H41525   8.938   4.736   6.408  1.8527  2.1806 -2.2878
  308MOL0     H41526   8.994   4.684   6.570 -3.6270  1.9938  2.7641
  308MOL0     H41527   8.995   4.976   6.471  1.3924  1.2762  2.5552
  308MOL0     H41528   8.858   4.894   6.550  0.0895 -5.1893 -0.0956
  308MOL0     H41529   9.128   4.895   6.655 -0.1833  0.4106 -1.6118
  308MOL0     H41530   8.992   4.864   6.759  1.3288 -0.8700 -0.2488
  308MOL0     H41531   9.143   5.181   6.591 -1.4346  0.4080 -1.4067
  308MOL0     H41532   9.077   5.456   6.819  2.7339 -1.9067 -0.2500
  308MOL0     H41533   9.130   5.430   6.657 -0.0563  4.1241 -0.0592
  308MOL0     H41534   8.932   5.579   6.666 -1.6993  0.7967 -4.3410
  308MOL0     H41535   8.827   5.446   6.728  0.8491  0.2916  1.9923
  308MOL0     H41536   8.992   5.468   6.475 -0.2143  0.3556 -1.1042
  308MOL0     H41537   8.826   5.528   6.486  4.0179  1.3077 -2.6257
  308MOL0     H41538   8.734   5.338   6.520  1.1777 -1.9992  1.3328
  308MOL0     H41539   8.871   5.241   6.554 -1.5167  1.0365  2.0349
  308MOL0     H41540   8.905   5.166   6.153 -0.3550  0.8925 -0.1519
  308MOL0     H41541   8.878   4.871   5.988  0.0587  1.1993 -1.0272
  308MOL0     H41542   8.731   4.963   5.939 -1.4060  0.6234  0.4406
  308MOL0     H41543   8.899   5.037   5.979 -1.6710  0.7526 -2.0930
  308MOL0     H41544   8.741   4.501   6.318  0.4190 -2.4550  1.1498
  308MOL0     H41545   8.711   4.301   6.290 -0.4266  1.5223  3.2834
  308MOL0     H41546   8.606   4.152   6.040 -0.9698  1.6620  0.2845
  308MOL0     H41547   8.646   4.090   6.189  3.9927  0.7796 -3.9058
  308MOL0     H41548   8.447   3.968   6.002  1.7158 -4.7233 -2.4926
  308MOL0     H41549   8.601   3.898   6.063 -1.3823 -1.9302  1.2670
  308MOL0     H41550   8.433   3.772   6.178  0.4722  0.4466 -2.7869
  308MOL0     H41551   8.360   3.928   6.234 -0.1140  0.2528 -1.8364
  308MOL0     H41552   8.627   3.802   6.320 -1.5863 -2.1796  0.6358
  308MOL0     H41553   8.569   3.953   6.372 -0.6775  0.3742 -2.0563
  308MOL0     H41554   8.367   3.852   6.490 -0.1818 -0.1475 -0.2127
  308MOL0     H41555   8.529   3.789   6.531  0.4659  0.1307 -0.6826
  308MOL0     H41556   8.326   3.654   6.357 -1.3306 -1.6441  0.8337
  308MOL0     H41557   8.498   3.604   6.371 -0.3656  0.1772  0.3134
  308MOL0     H41558   8.287   3.628   6.588  1.8504 -0.0026  2.8159
  308MOL0     H41559   8.448   3.611   6.632  2.5505 -0.8321 -0.2567
  308MOL0     H41560   8.285   3.402   6.473  1.2578 -2.9812  0.0858
  308MOL0     H41561   8.325   3.403   6.650  2.2041  1.7250  1.1279
  308MOL0     H41562   8.316   4.365   6.134 -0.2494 -1.4783  0.4777
  308MOL0     H41563   8.345   4.598   6.168 -1.9641 -3.4668 -0.2976
  308MOL0     H41564   8.546   4.925   6.392  1.3891 -1.1753 -0.3609
  308MOL0     H41565   8.641   5.136   6.470 -3.4941 -2.1345 -0.6918
  308MOL0     H41566   9.215   4.474   5.750 -0.1682 -1.9273  1.3884
  308MOL0     H41567   9.160   4.320   5.568 -0.5206  0.3103 -2.9530
  308MOL0     H41568   9.124   4.089   5.166 -0.5414  1.5541 -1.2000
  308MOL0     H41569   9.047   3.912   5.052  1.9475  0.5210  4.0250
  308MOL0     H41570   8.929   3.766   4.915 -1.4593  0.5545 -0.8629
  308MOL0     H41571   8.899   3.687   5.084  1.1432  0.4382  0.1293
  308MOL0     H41572   8.837   3.541   4.890  0.2082  1.5747 -0.4964
  308MOL0     H41573   8.707   3.647   4.850 -1.6792  0.6157  0.9870
  308MOL0     H41574   8.601   3.481   4.986  0.3541 -2.7357  2.5295
  308MOL0     H41575   8.621   3.622   5.087  2.6884  2.9867 -1.3323
  308MOL0     H41576   8.656   3.409   5.194 -0.2915 -1.4344 -0.9403
  308MOL0     H41577   8.788   3.524   5.211 -1.6589  0.3872  0.5961
  308MOL0     H41578   8.935   3.170   5.032 -0.1506 -0.6087  1.5640
  308MOL0     H41579   8.638   4.002   5.164  0.8276  0.5955  1.2644
  308MOL0     H41580   8.740   4.168   5.334 -3.8317 -1.5058 -2.5668
  309MOL0     O41581   0.892   5.950   3.039  0.6918  0.9725 -0.1778
  309MOL0     C41582   1.010   5.963   3.062 -0.4294  0.6098 -0.2455
  309MOL0     O41583   1.085   5.913   3.173 -0.3073  0.1101 -0.0094
  309MOL0     C41584   1.016   5.869   3.286 -0.2969 -0.3432  0.0379
  309MOL0     C41585   0.921   5.948   3.345 -0.4080 -0.3336  0.2846
  309MOL0     C41586   0.849   5.902   3.456  0.1886  0.8673  0.3322
  309MOL0     C41587   0.876   5.780   3.519 -0.7911  0.0444 -0.3159
  309MOL0     O41588   0.828   5.743   3.640  0.5202  0.2506 -0.0875
  309MOL0     C41589   0.745   5.837   3.718 -0.5746 -0.1470  0.6471
  309MOL0     C41590   0.750   5.779   3.866 -0.8691 -0.3251  0.6378
  309MOL0     C41591   0.636   5.825   3.954 -0.2568 -0.2770  0.1846
  309MOL0     C41592   0.626   5.975   3.997 -0.5620 -0.2516  0.3182
  309MOL0     C41593   0.479   5.994   4.030 -0.1751  0.0065 -0.1546
  309MOL0     C41594   0.416   6.130   3.990 -0.2510 -0.0053 -0.6806
  309MOL0     C41595   0.491   6.252   4.049  0.1512  0.1021 -0.3295
  309MOL0     C41596   0.417   6.378   4.021  0.1939 -0.5441 -0.3914
  309MOL0     N41597   0.360   6.390   3.884  0.5023  0.0926  0.2413
  309MOL0     C41598   0.442   6.382   3.771 -0.4927  0.4933 -0.4919
  309MOL0     C41599   0.378   6.436   3.672  0.3104  0.1416  0.2269
  309MOL0     C41600   0.436   6.479   3.551 -1.1487 -1.3545 -1.0521
  309MOL0     C41601   0.537   6.595   3.572  0.3124  0.3463 -0.1208
  309MOL0     C41602   0.583   6.647   3.431  0.3051 -0.4291  0.4037
  309MOL0     C41603   0.698   6.744   3.441 -1.3995  0.0648  0.5388
  309MOL0     O41604   0.732   6.784   3.311  0.2982  0.3858  0.7763
  309MOL0     C41605   0.834   6.873   3.278  0.5659  0.1320 -0.0822
  309MOL0     C41606   0.863   6.888   3.144  0.6766  0.5441 -0.0913
  309MOL0     C41607   0.980   6.944   3.092  0.2360 -0.5462  0.3470
  309MOL0     C41608   0.997   6.944   2.944 -0.8337 -0.3730  0.3896
  309MOL0     C41609   1.063   7.008   3.185 -0.1509 -0.4953  0.7096
  309MOL0     C41610   1.183   7.086   3.145 -0.6729  0.0894  0.4984
  309MOL0     O41611   1.264   7.129   3.251  0.2515  0.0085  1.0371
  309MOL0     C41612   1.356   7.226   3.239  0.2484 -0.6708  0.0793
  309MOL0     C41613   1.483   7.214   3.299  0.8264 -0.4640 -0.4756
  309MOL0     C41614   1.581   7.314   3.291 -0.0061  0.2560 -0.2186
  309MOL0     C41615   1.557   7.435   3.220 -0.4629  1.0563 -0.2185
  309MOL0     O41616   1.638   7.535   3.209 -0.5566  0.0207  0.5077
  309MOL0     C41617   1.769   7.520   3.271  0.2929 -0.2834 -0.4686
  309MOL0     C41618   1.849   7.639   3.220  0.4513 -0.3072  0.0320
  309MOL0     C41619   1.992   7.635   3.274  0.1522 -0.8588 -1.0670
  309MOL0     C41620   2.062   7.509   3.254  0.1440 -0.5491  0.7843
  309MOL0     C41621   2.210   7.524   3.272  0.5600 -0.6835  0.5094
  309MOL0     C41622   2.288   7.564   3.145  0.3037 -0.1566 -0.1368
  309MOL0     C41623   2.431   7.540   3.157  0.4174 -0.1857 -0.5013
  309MOL0     C41624   2.494   7.536   3.021  0.8746  0.3188  0.7297
  309MOL0    Cl41625   2.652   7.466   3.052 -0.3004 -0.0752  0.0019
  309MOL0     C41626   1.438   7.434   3.143 -0.4325  0.0925 -0.0071
  309MOL0     C41627   1.336   7.339   3.164  0.1598  0.3482  1.8353
  309MOL0     O41628   1.195   7.115   3.023  0.7479 -0.0028 -0.1732
  309MOL0     C41629   1.040   6.995   3.330  0.1520  0.6234  0.3470
  309MOL0     C41630   0.926   6.924   3.371 -0.9280  0.0226 -0.0551
  309MOL0     N41631   0.251   6.468   3.723 -0.1926 -0.5558  0.5696
  309MOL0     N41632   0.247   6.450   3.849  0.1545 -0.2476  0.5085
  309MOL0     C41633   0.964   5.699   3.451 -0.4741 -0.2575 -0.8878
  309MOL0     C41634   1.029   5.733   3.328 -0.3799 -0.1503  0.6524
  309MOL0     C41635   1.092   6.015   2.945 -0.2658  0.0397 -0.1009
  309MOL0     C41636   1.040   6.115   2.860 -0.0549  0.3079 -0.0839
  309MOL0     C41637   1.115   6.160   2.756  0.1549 -0.6608  0.1278
  309MOL0     C41638   1.236   6.088   2.716  0.5995  0.0241 -0.4828
  309MOL0     O41639   1.292   6.111   2.595 -0.3453 -0.2638  0.5228
  309MOL0     C41640   1.204   6.126   2.483  0.7304 -0.0492  0.1234
  309MOL0     C41641   1.111   6.005   2.470 -0.1897  0.3060 -0.9573
  309MOL0     C41642   1.013   5.995   2.348  0.1994  0.4782 -0.5152
  309MOL0     C41643   0.887   6.068   2.374  0.8317 -0.6052  0.4189
  309MOL0     C41644   0.827   6.045   2.506  0.0478  0.5614 -0.6472
  309MOL0     C41645   0.787   6.024   2.618  0.6538  0.7366  0.7936
  309MOL0     C41646   1.289   5.991   2.801  0.6081 -0.0651  0.0714
  309MOL0     C41647   1.213   5.955   2.913 -0.7558  0.5343 -0.1335
  309MOL0     H41648   0.889   6.042   3.299 -1.9037 -1.4859 -1.1721
  309MOL0     H41649   0.780   5.969   3.507  0.5332  2.0725 -0.7329
  309MOL0     H41650   0.795   5.933   3.703 -1.0716 -0.1336 -1.1441
  309MOL0     H41651   0.643   5.828   3.680 -0.8731  0.5539  1.2690
  309MOL0     H41652   0.743   5.670   3.856  0.7079 -0.2567 -1.9408
  309MOL0     H41653   0.848   5.806   3.908 -1.0307 -0.2501  0.9728
  309MOL0     H41654   0.543   5.790   3.908  0.1078 -2.0131  0.6889
  309MOL0     H41655   0.633   5.774   4.051 -4.0096 -0.7999 -0.0247
  309MOL0     H41656   0.683   5.981   4.090 -0.7012 -3.0140  0.6835
  309MOL0     H41657   0.646   6.043   3.914 -2.5372 -0.7715 -0.6511
  309MOL0     H41658   0.418   5.907   4.006 -0.6114  0.4621 -0.7351
  309MOL0     H41659   0.471   5.996   4.139  3.2811 -0.8360  0.2223
  309MOL0     H41660   0.389   6.127   3.884 -1.1003  0.2790 -0.4820
  309MOL0     H41661   0.321   6.146   4.041  0.4467 -0.3596  0.7723
  309MOL0     H41662   0.511   6.243   4.156  3.6305 -1.1676 -0.9344
  309MOL0     H41663   0.593   6.256   4.010  3.1867  0.3821  6.2164
  309MOL0     H41664   0.479   6.462   4.054 -0.9464 -0.3081  1.3269
  309MOL0     H41665   0.331   6.392   4.088  1.6545  3.1541  0.9761
  309MOL0     H41666   0.545   6.350   3.757 -0.7800 -0.8723  0.2856
  309MOL0     H41667   0.499   6.398   3.511  0.8789 -1.2683  1.6510
  309MOL0     H41668   0.356   6.487   3.477  1.4903 -0.8238 -4.0566
  309MOL0     H41669   0.628   6.553   3.617  0.9374  1.5170 -0.2451
  309MOL0     H41670   0.487   6.672   3.632  0.9442 -0.4749  1.5249
  309MOL0     H41671   0.501   6.694   3.376 -1.5011 -2.3136  1.3325
  309MOL0     H41672   0.609   6.559   3.372 -3.3822 -0.4266 -1.5053
  309MOL0     H41673   0.782   6.692   3.488 -1.2848  2.4706  3.2653
  309MOL0     H41674   0.685   6.824   3.514  2.5854 -0.8849  2.5839
  309MOL0     H41675   0.802   6.849   3.064  1.7788  0.2838 -0.8356
  309MOL0     H41676   0.978   7.048   2.914 -0.4073  1.1716  4.7640
  309MOL0     H41677   1.099   6.913   2.920 -1.3538 -2.6299  0.8589
  309MOL0     H41678   0.922   6.880   2.895  0.2368 -0.0021 -1.8724
  309MOL0     H41679   1.501   7.126   3.360 -1.1039  1.3541  2.9691
  309MOL0     H41680   1.679   7.295   3.332 -0.1524 -3.4578 -1.2074
  309MOL0     H41681   1.765   7.511   3.380  1.7340  2.8211 -0.0681
  309MOL0     H41682   1.814   7.428   3.232 -0.0855 -0.7234  0.1021
  309MOL0     H41683   1.868   7.642   3.113  5.1760  0.5956  0.6737
  309MOL0     H41684   1.803   7.733   3.251  1.1766 -0.4994  1.8132
  309MOL0     H41685   1.971   7.659   3.379  0.3111 -0.2685 -1.1653
  309MOL0     H41686   2.058   7.709   3.228 -1.9766  0.2975 -2.4383
  309MOL0     H41687   2.020   7.433   3.321  2.7061 -0.6646  2.4055
  309MOL0     H41688   2.054   7.477   3.149 -1.2843  1.6385  0.1727
  309MOL0     H41689   2.251   7.426   3.297  1.6444  0.4363  3.4906
  309MOL0     H41690   2.236   7.594   3.352  0.6748 -1.5839  1.2670
  309MOL0     H41691   2.254   7.507   3.059  3.4706 -0.9175 -1.0265
  309MOL0     H41692   2.271   7.670   3.121 -0.2366 -0.4378 -1.0036
  309MOL0     H41693   2.440   7.445   3.211  0.5931 -0.3801 -0.8675
  309MOL0     H41694   2.478   7.619   3.216 -0.5911 -1.7878  2.6628
  309MOL0     H41695   2.512   7.635   2.977  4.0421 -0.1820  0.6805
  309MOL0     H41696   2.446   7.475   2.945  1.8573 -0.6647  0.8764
  309MOL0     H41697   1.415   7.519   3.080 -0.6086  3.2624  3.9278
  309MOL0     H41698   1.243   7.341   3.110  2.5525 -2.1923 -3.0094
  309MOL0     H41699   1.114   7.027   3.402  0.3743 -0.1575  0.4810
  309MOL0     H41700   0.921   6.894   3.475 -2.2150  0.0764 -0.0843
  309MOL0     H41701   0.972   5.601   3.499 -1.3074 -0.0519 -0.3050
  309MOL0     H41702   1.092   5.661   3.277  3.5272  2.2557  1.5959
  309MOL0     H41703   0.946   6.148   2.902 -0.4230 -1.5663  0.7018
  309MOL0     H41704   1.086   6.249   2.702  0.7989 -0.7927 -0.4476
  309MOL0     H41705   1.156   6.224   2.490  0.4801 -0.2829  2.5258
  309MOL0     H41706   1.258   6.134   2.388 -2.5948 -1.0818 -2.0270
  309MOL0     H41707   1.063   5.994   2.567  0.5074  2.7887 -0.2646
  309MOL0     H41708   1.167   5.915   2.441 -0.5865 -0.0492 -0.6366
  309MOL0     H41709   0.986   5.890   2.337  0.2338  0.4499 -0.3253
  309MOL0     H41710   1.070   6.033   2.262  0.5834  2.4494  0.5425
  309MOL0     H41711   0.829   6.013   2.298 -1.1286  0.3659  1.1409
  309MOL0     H41712   0.890   6.176   2.357 -1.0969 -0.0688  2.8532
  309MOL0     H41713   0.752   6.018   2.719  0.7675  1.4271  0.8774
  309MOL0     H41714   1.379   5.941   2.768  0.9468  0.4375  0.2134
  309MOL0     H41715   1.245   5.874   2.978  1.1043  1.8107  0.6719
  310MOL0     O41716   2.188   9.746   5.925  0.4846  0.7016  0.1615
  310MOL0     C41717   2.175   9.777   5.810 -1.0480 -0.4295  0.7615
  310MOL0     O41718   2.120   9.697   5.716  0.6129 -0.7762  0.0319
  310MOL0     C41719   2.060   9.575   5.737  0.1281  0.3325 -1.0577
  310MOL0     C41720   2.128   9.455   5.780 -0.8881  0.5452 -0.4515
  310MOL0     C41721   2.060   9.345   5.830 -0.0858  0.0194  0.6281
  310MOL0     C41722   1.914   9.354   5.831 -0.6439 -0.7196  0.0857
  310MOL0     O41723   1.838   9.251   5.872  0.6253 -0.1133  0.1275
  310MOL0     C41724   1.808   9.248   6.013 -0.7303 -0.2278  0.4785
  310MOL0     C41725   1.917   9.206   6.110  0.1019 -0.0612  0.0367
  310MOL0     C41726   1.895   9.250   6.258  0.2033  0.1564  0.3866
  310MOL0     C41727   1.912   9.396   6.298  1.1186 -1.1466 -0.7321
  310MOL0     C41728   1.843   9.408   6.434  1.3364  0.7311 -0.3792
  310MOL0     C41729   1.891   9.532   6.507  0.0256 -0.0088 -0.7542
  310MOL0     C41730   1.785   9.578   6.614  0.3803  0.0975 -0.1749
  310MOL0     C41731   1.852   9.553   6.759  0.2179 -0.6978  0.7324
  310MOL0     N41732   1.838   9.413   6.784  0.6393  0.4960  0.1171
  310MOL0     C41733   1.953   9.338   6.809  0.4634  1.2581  0.0845
  310MOL0     C41734   1.908   9.216   6.863  0.8944 -0.1239 -0.0865
  310MOL0     C41735   1.991   9.102   6.906  0.4235 -0.0266  0.1675
  310MOL0     C41736   2.066   9.044   6.784  0.6101 -0.0073 -0.3284
  310MOL0     C41737   2.123   8.911   6.815 -0.4720 -0.0821  0.0690
  310MOL0     C41738   2.138   8.819   6.688 -0.4734 -0.0737 -0.4019
  310MOL0     O41739   2.239   8.868   6.586  0.4006 -0.3768 -0.4724
  310MOL0     C41740   2.207   8.848   6.456 -0.5304 -1.2280 -0.0228
  310MOL0     C41741   2.160   8.735   6.407  1.1650  0.1220 -0.0335
  310MOL0     C41742   2.142   8.713   6.270  0.2178  0.9174 -1.2879
  310MOL0     C41743   2.096   8.580   6.229  0.4116  1.0254 -0.6245
  310MOL0     C41744   2.174   8.813   6.178  0.1740 -0.6315  0.7590
  310MOL0     C41745   2.173   8.800   6.030  0.3821  0.3426  0.2621
  310MOL0     O41746   2.176   8.916   5.954  0.0536 -0.2246  0.7062
  310MOL0     C41747   2.131   8.892   5.822 -0.6598 -0.0557 -0.9623
  310MOL0     C41748   2.190   8.815   5.725 -0.0385  0.4086 -0.5073
  310MOL0     C41749   2.132   8.798   5.602  0.4994  0.0696 -0.2913
  310MOL0     C41750   2.009   8.864   5.559  0.3129  1.0221  0.7092
  310MOL0     O41751   1.959   8.858   5.431  0.1546 -0.0051 -1.1947
  310MOL0     C41752   1.928   8.727   5.385 -0.0987  0.7239 -1.0101
  310MOL0     C41753   1.780   8.697   5.422 -0.6841 -0.4970 -0.1000
  310MOL0     C41754   1.753   8.550   5.434 -0.0177  0.5543 -0.0518
  310MOL0     C41755   1.716   8.478   5.295  0.0888  0.4749 -0.5636
  310MOL0     C41756   1.677   8.337   5.301  0.8917  0.3097  0.7174
  310MOL0     C41757   1.775   8.227   5.348  0.8405  1.1494  0.0162
  310MOL0     C41758   1.727   8.084   5.303 -0.8895 -0.3362 -0.1764
  310MOL0     C41759   1.837   7.982   5.342 -0.6299  0.1301  0.2726
  310MOL0    Cl41760   1.821   7.825   5.283 -0.2905  0.4796  0.0044
  310MOL0     C41761   1.940   8.935   5.661 -0.6015 -0.8467  0.4416
  310MOL0     C41762   2.000   8.954   5.789 -0.4929 -0.3292 -0.1615
  310MOL0     O41763   2.168   8.690   5.984 -0.3757 -0.2754 -0.0362
  310MOL0     C41764   2.198   8.943   6.228  0.7285  0.7198  0.3215
  310MOL0     C41765   2.221   8.954   6.370 -0.4250 -0.4987  0.6021
  310MOL0     N41766   1.775   9.223   6.879  0.3462 -0.1094 -0.3929
  310MOL0     N41767   1.733   9.340   6.834 -0.2001  0.4694 -0.1078
  310MOL0     C41768   1.852   9.458   5.772 -0.5078 -0.1791  0.2802
  310MOL0     C41769   1.925   9.567   5.720  0.2704  0.3988 -0.5080
  310MOL0     C41770   2.225   9.910   5.768  0.7330  0.0700  0.0905
  310MOL0     C41771   2.193   9.960   5.636 -0.6025 -0.4305 -0.0855
  310MOL0     C41772   2.221  10.091   5.597 -0.4479  0.4849 -0.2843
  310MOL0     C41773   2.290  10.179   5.688 -0.5843  0.5275 -0.1584
  310MOL0     O41774   2.312  10.308   5.650  0.3996 -0.5870 -0.9293
  310MOL0     C41775   2.367  10.396   5.744 -0.5418 -0.6543 -0.2390
  310MOL0     C41776   2.360  10.536   5.691  0.1485 -0.7938  0.6665
  310MOL0     C41777   2.217  10.558   5.652  0.4946  0.1473  1.1375
  310MOL0     C41778   2.185  10.709   5.631  1.0669  0.7619  0.4447
  310MOL0     C41779   2.196  10.788   5.754  0.3494  0.4363 -0.2685
  310MOL0     C41780   2.202  10.852   5.859  0.1201  0.1448  0.5084
  310MOL0     C41781   2.317  10.124   5.812 -0.0849  0.8248 -0.6289
  310MOL0     C41782   2.291   9.992   5.857  0.5127 -0.4724 -0.8277
  310MOL0     H41783   2.236   9.462   5.783 -0.7276 -0.7810 -1.9842
  310MOL0     H41784   2.109   9.250   5.849 -0.9714 -1.0560 -2.0627
  310MOL0     H41785   1.784   9.353   6.032 -0.8762 -0.0770 -0.4832
  310MOL0     H41786   1.711   9.200   6.034 -0.9721 -0.8034 -1.6977
  310MOL0     H41787   1.920   9.098   6.093  2.0374  0.2856 -2.4229
  310MOL0     H41788   2.015   9.241   6.074  0.3081 -1.7355 -1.1186
  310MOL0     H41789   1.797   9.214   6.292  0.0068 -0.6853 -0.9901
  310MOL0     H41790   1.966   9.194   6.320 -1.5454 -2.4537  0.2093
  310MOL0     H41791   2.018   9.416   6.316  0.4910 -0.2819  2.7550
  310MOL0     H41792   1.868   9.468   6.227  1.1227  1.6591  1.8985
  310MOL0     H41793   1.739   9.423   6.407  1.0692  1.7464  1.1280
  310MOL0     H41794   1.850   9.323   6.502  0.2657  0.9106 -0.0331
  310MOL0     H41795   1.987   9.516   6.555  0.0163 -1.1127 -1.0805
  310MOL0     H41796   1.911   9.617   6.441  1.2831 -0.6569 -1.2251
  310MOL0     H41797   1.770   9.684   6.595  0.0581 -0.2004 -1.6367
  310MOL0     H41798   1.690   9.531   6.590  0.2354 -0.5058  1.4343
  310MOL0     H41799   1.805   9.606   6.843 -0.0009  1.8769 -0.8820
  310MOL0     H41800   1.957   9.582   6.762  0.0309  0.4688  6.1335
  310MOL0     H41801   2.055   9.367   6.785  1.6816 -2.2557  0.3900
  310MOL0     H41802   2.057   9.137   6.985  0.6949  0.1005 -0.1160
  310MOL0     H41803   1.928   9.020   6.942 -1.2922  1.0219 -0.3231
  310MOL0     H41804   2.154   9.103   6.756  0.4090  1.6236  2.1533
  310MOL0     H41805   1.996   9.033   6.700 -0.6563 -2.3427  0.9186
  310MOL0     H41806   2.058   8.853   6.882 -1.2917 -0.0368 -0.6617
  310MOL0     H41807   2.219   8.924   6.865 -0.5490  1.7671 -0.1992
  310MOL0     H41808   2.036   8.817   6.647 -1.0858  1.3433  0.9281
  310MOL0     H41809   2.166   8.717   6.715 -2.7070 -0.3405  1.1766
  310MOL0     H41810   2.143   8.654   6.477 -0.0302 -1.0312 -1.5972
  310MOL0     H41811   2.012   8.582   6.159  0.0220 -0.3206 -0.2116
  310MOL0     H41812   2.183   8.531   6.184 -0.7892 -0.6033 -1.2450
  310MOL0     H41813   2.068   8.522   6.318  1.1345  3.5809  1.4256
  310MOL0     H41814   2.289   8.773   5.739 -0.1701  0.1062 -0.4747
  310MOL0     H41815   2.186   8.742   5.526  0.1676  0.7273 -1.0286
  310MOL0     H41816   1.934   8.717   5.277 -0.6969  0.9312 -1.0657
  310MOL0     H41817   1.997   8.659   5.436 -3.6362  0.4563  4.3039
  310MOL0     H41818   1.753   8.755   5.511  2.0185  0.7198  0.0462
  310MOL0     H41819   1.714   8.741   5.347  1.3526  1.4932 -0.8447
  310MOL0     H41820   1.666   8.547   5.501  1.3075  2.9287  1.9491
  310MOL0     H41821   1.838   8.499   5.479  0.8375  1.9038 -0.0603
  310MOL0     H41822   1.625   8.524   5.255 -0.1408 -0.8097 -1.6248
  310MOL0     H41823   1.798   8.495   5.225 -3.3191  1.8567 -4.6727
  310MOL0     H41824   1.661   8.316   5.195 -3.3052  2.1689  0.8013
  310MOL0     H41825   1.588   8.320   5.362  1.0876  1.5688  1.3881
  310MOL0     H41826   1.876   8.245   5.310 -0.6760  0.8053 -4.8675
  310MOL0     H41827   1.781   8.230   5.458  2.1442 -3.4041  0.3056
  310MOL0     H41828   1.700   8.081   5.197  0.3488 -4.0778 -0.5381
  310MOL0     H41829   1.628   8.058   5.341 -1.4683 -1.3622 -2.2542
  310MOL0     H41830   1.848   7.993   5.450  1.5355  0.9255  0.0094
  310MOL0     H41831   1.928   8.018   5.293 -1.1822  1.3805  0.1274
  310MOL0     H41832   1.844   8.984   5.654 -0.6338 -0.9395  0.2434
  310MOL0     H41833   1.954   9.013   5.867  0.8422  0.4868  0.0480
  310MOL0     H41834   2.206   9.033   6.168  0.5862 -0.5328 -1.6677
  310MOL0     H41835   2.245   9.051   6.412 -2.3684 -1.2707  3.8172
  310MOL0     H41836   1.744   9.448   5.762 -0.2099 -1.5261 -2.6912
  310MOL0     H41837   1.875   9.659   5.691 -1.7075 -0.9459 -1.6651
  310MOL0     H41838   2.129   9.896   5.576 -0.4748 -2.6461  1.9933
  310MOL0     H41839   2.196  10.130   5.499 -0.7701 -0.9977 -0.8288
  310MOL0     H41840   2.303  10.380   5.831 -1.0459 -0.5127 -0.5760
  310MOL0     H41841   2.473  10.372   5.756 -0.0443  1.0809 -0.8924
  310MOL0     H41842   2.433  10.550   5.610  1.2712 -0.8984  1.6320
  310MOL0     H41843   2.393  10.600   5.773 -1.5027  0.5440  0.3306
  310MOL0     H41844   2.147  10.527   5.731 -0.8232  0.2404  0.0515
  310MOL0     H41845   2.197  10.504   5.559  0.9622 -2.4171  2.4462
  310MOL0     H41846   2.084  10.702   5.591  0.7316 -0.1968  1.3915
  310MOL0     H41847   2.242  10.737   5.542  2.7808 -3.5915 -0.0820
  310MOL0     H41848   2.196  10.894   5.957 -0.8571  1.5705 -0.1417
  310MOL0     H41849   2.367  10.180   5.890  1.3029 -0.6392 -0.4212
  310MOL0     H41850   2.305   9.964   5.961 -4.8295  0.8751  0.5744
  311MOL0     O41851   1.165  10.453   5.729 -0.6982 -0.1419  0.5089
  311MOL0     C41852   1.159  10.332   5.701 -0.3677 -0.0620  0.2376
  311MOL0     O41853   1.253  10.269   5.613  0.4988 -0.0380  0.0006
  311MOL0     C41854   1.351  10.335   5.540 -0.3677  0.9002 -0.1562
  311MOL0     C41855   1.435  10.247   5.474  0.0401 -0.6171 -0.0467
  311MOL0     C41856   1.537  10.288   5.387 -0.3836 -0.1812  0.0367
  311MOL0     C41857   1.581  10.421   5.394 -0.4866  0.1974  0.9377
  311MOL0     O41858   1.688  10.473   5.322 -0.0191 -0.6221  0.1490
  311MOL0     C41859   1.772  10.386   5.240 -0.6302 -1.0222  0.6673
  311MOL0     C41860   1.819  10.466   5.114  0.0126  0.4938 -0.0463
  311MOL0     C41861   1.880  10.398   4.994  0.0111 -0.0420  0.2168
  311MOL0     C41862   1.915  10.503   4.888  0.6435  0.0048 -0.9035
  311MOL0     C41863   1.977  10.438   4.784  0.3786 -0.0656  0.7561
  311MOL0     C41864   2.014  10.536   4.676 -0.1221  0.1763  0.0785
  311MOL0     C41865   2.111  10.477   4.572  0.1916 -0.1084  0.3541
  311MOL0     C41866   2.127  10.584   4.456  0.1614 -0.2024 -0.4573
  311MOL0     N41867   2.233  10.568   4.356  0.7101  0.2267 -0.0417
  311MOL0     C41868   2.222  10.565   4.220 -1.3286  1.0226  0.6272
  311MOL0     C41869   2.347  10.579   4.170  0.1449  0.6608 -0.4776
  311MOL0     C41870   2.395  10.601   4.031  0.3502 -0.3862  0.5636
  311MOL0     C41871   2.370  10.754   3.992  0.4000 -0.1123 -0.6345
  311MOL0     C41872   2.507  10.830   3.959 -0.3788  0.3611  0.2090
  311MOL0     C41873   2.586  10.747   3.854  0.3428  0.1752  0.4306
  311MOL0     O41874   2.571  10.793   3.724 -0.5286  0.7078  0.3223
  311MOL0     C41875   2.640  10.734   3.609 -0.3941 -0.5448  0.0362
  311MOL0     C41876   2.724  10.625   3.614  0.0240  0.4066 -0.1725
  311MOL0     C41877   2.802  10.571   3.504 -0.5328  0.3191  0.1091
  311MOL0     C41878   2.889  10.452   3.528  0.9202 -0.0995  0.0975
  311MOL0     C41879   2.778  10.644   3.380 -0.6573 -0.3265  0.2508
  311MOL0     C41880   2.855  10.632   3.254 -0.9435 -0.0018 -0.5456
  311MOL0     O41881   2.796  10.691   3.137 -0.1799  0.7255  1.0304
  311MOL0     C41882   2.858  10.722   3.019 -0.1981 -0.2187 -0.5647
  311MOL0     C41883   2.999  10.719   2.982  0.4530 -0.0364  0.0217
  311MOL0     C41884   3.032  10.777   2.864 -0.2974  0.0026 -0.1773
  311MOL0     C41885   2.947  10.840   2.771 -0.0284  0.7116 -0.5683
  311MOL0     O41886   2.991  10.857   2.646 -0.0988  0.7239 -0.2104
  311MOL0     C41887   2.899  10.853   2.535  0.9781  0.0205 -0.0506
  311MOL0     C41888   2.824  10.986   2.504 -0.5124  0.2752  0.2463
  311MOL0     C41889   2.898  11.065   2.393  0.0273  0.0147 -0.7438
  311MOL0     C41890   2.807  11.163   2.329  0.5443  0.6022  0.3750
  311MOL0     C41891   2.871  11.224   2.200  0.4005  0.0586 -0.7192
  311MOL0     C41892   2.773  11.275   2.100 -0.0150  0.7432 -0.6595
  311MOL0     C41893   2.841  11.354   1.994 -0.8893  0.3467  0.3689
  311MOL0     C41894   2.759  11.398   1.873  0.3327 -0.3965  0.6597
  311MOL0    Cl41895   2.852  11.484   1.732 -0.1381 -0.2428  0.0346
  311MOL0     C41896   2.805  10.840   2.814 -0.3085 -0.2427  0.0669
  311MOL0     C41897   2.766  10.781   2.934 -0.4629  0.5731 -0.4791
  311MOL0     O41898   2.965  10.569   3.244  0.0045 -0.7530 -0.3717
  311MOL0     C41899   2.686  10.753   3.379 -0.7711  0.3854  0.6465
  311MOL0     C41900   2.621  10.801   3.495 -1.0105  0.4535 -0.2188
  311MOL0     N41901   2.430  10.605   4.284  0.2848 -0.7193  0.1008
  311MOL0     N41902   2.357  10.599   4.388  0.3737  0.2488 -0.8036
  311MOL0     C41903   1.499  10.510   5.465  0.5016 -0.5571 -0.8754
  311MOL0     C41904   1.383  10.473   5.536 -0.4975 -0.3533  0.1039
  311MOL0     C41905   1.043  10.255   5.748  0.4932  0.8072  0.1340
  311MOL0     C41906   1.005  10.128   5.701  0.1577  0.2128 -0.0791
  311MOL0     C41907   0.882  10.075   5.749 -0.4276  0.3580 -0.0073
  311MOL0     C41908   0.799  10.132   5.837  0.2223  0.0479 -0.3248
  311MOL0     O41909   0.681  10.069   5.867  0.7260 -0.0222  0.4527
  311MOL0     C41910   0.637   9.950   5.787 -0.1462  0.1881 -1.7153
  311MOL0     C41911   0.487   9.929   5.826 -0.4228  0.4721 -0.0547
  311MOL0     C41912   0.400  10.043   5.783  0.5169  0.4340  0.3029
  311MOL0     C41913   0.286   9.992   5.689  0.1159 -0.2807 -0.4829
  311MOL0     C41914   0.230  10.096   5.603 -0.1423 -0.0316  0.7495
  311MOL0     C41915   0.170  10.160   5.526 -1.3485  0.2394  0.5554
  311MOL0     C41916   0.827  10.259   5.881  0.3306 -0.0647 -0.1209
  311MOL0     C41917   0.949  10.324   5.835 -0.1284  0.2994 -0.5177
  311MOL0     H41918   1.402  10.145   5.454 -0.4527 -0.1023 -2.0570
  311MOL0     H41919   1.582  10.207   5.331  0.6291 -0.1326  0.7457
  311MOL0     H41920   1.856  10.359   5.304  1.7905  1.9886 -0.9365
  311MOL0     H41921   1.725  10.292   5.210  4.6646 -3.7011 -0.4866
  311MOL0     H41922   1.732  10.527   5.087  0.0974 -0.5613 -3.0601
  311MOL0     H41923   1.888  10.543   5.150 -0.0563  0.6231 -0.1902
  311MOL0     H41924   1.978  10.365   5.030 -0.2742  0.1775  1.2203
  311MOL0     H41925   1.814  10.321   4.954  0.2422 -1.0974  1.7586
  311MOL0     H41926   1.819  10.551   4.869 -1.0151 -2.0813  1.5061
  311MOL0     H41927   1.979  10.575   4.940  2.0573 -1.5331 -0.4073
  311MOL0     H41928   2.064  10.377   4.811 -0.4776 -1.2126  0.9951
  311MOL0     H41929   1.915  10.364   4.731  1.5164 -1.9315  1.9211
  311MOL0     H41930   1.916  10.571   4.642 -0.8606 -0.6498  1.2575
  311MOL0     H41931   2.070  10.623   4.711  1.1664  0.7751 -3.1563
  311MOL0     H41932   2.203  10.456   4.628  0.6201  0.9884  0.1001
  311MOL0     H41933   2.075  10.382   4.533 -1.5805  0.8647 -0.5184
  311MOL0     H41934   2.153  10.679   4.503  2.5142 -0.8690 -0.2898
  311MOL0     H41935   2.030  10.592   4.405  0.0660  1.0283 -0.1199
  311MOL0     H41936   2.138  10.554   4.152  1.5563  1.3344 -3.3496
  311MOL0     H41937   2.500  10.570   4.029  0.8634  1.2217 -1.4691
  311MOL0     H41938   2.344  10.539   3.957  1.2629 -1.6396  0.9480
  311MOL0     H41939   2.332  10.810   4.078  3.6382 -0.4683  1.1980
  311MOL0     H41940   2.292  10.759   3.915  1.2144 -3.5153 -1.8553
  311MOL0     H41941   2.556  10.826   4.057  2.8414 -2.5135 -1.3301
  311MOL0     H41942   2.491  10.929   3.916 -2.3013 -0.8159 -2.0119
  311MOL0     H41943   2.555  10.642   3.860 -1.5479  0.7565  1.9596
  311MOL0     H41944   2.694  10.757   3.872  0.2457  0.5715  0.8118
  311MOL0     H41945   2.727  10.582   3.714 -2.1757 -0.3323 -0.3578
  311MOL0     H41946   2.824  10.365   3.542  0.6488  0.0406 -0.2860
  311MOL0     H41947   2.981  10.428   3.475  1.7371 -0.2305  1.5056
  311MOL0     H41948   2.925  10.469   3.630  2.4629 -2.4946  0.0269
  311MOL0     H41949   3.075  10.671   3.044 -1.0842 -2.6304  0.0368
  311MOL0     H41950   3.138  10.766   2.847 -0.4515  0.3256 -1.4453
  311MOL0     H41951   2.961  10.817   2.453  1.7274 -2.2090  1.3916
  311MOL0     H41952   2.832  10.766   2.540  1.1829 -0.2355 -1.4957
  311MOL0     H41953   2.727  10.955   2.462 -1.0536 -0.7103  2.1278
  311MOL0     H41954   2.814  11.045   2.595  4.6134  1.3533  0.3675
  311MOL0     H41955   2.930  10.987   2.324 -0.7142 -0.7473 -0.2577
  311MOL0     H41956   2.982  11.112   2.445  1.1563 -2.9782  0.3139
  311MOL0     H41957   2.707  11.123   2.306  0.5031  1.2005 -0.5467
  311MOL0     H41958   2.780  11.239   2.403 -2.7911  0.5049 -0.5817
  311MOL0     H41959   2.922  11.144   2.145 -0.8678 -0.1943 -1.5635
  311MOL0     H41960   2.950  11.290   2.238  0.8243 -1.2324  0.7114
  311MOL0     H41961   2.734  11.185   2.053  2.7200 -0.0853 -1.5396
  311MOL0     H41962   2.689  11.329   2.144  0.4903 -0.1337  1.5242
  311MOL0     H41963   2.922  11.293   1.953 -0.8311  1.1134 -0.7003
  311MOL0     H41964   2.874  11.449   2.036 -0.4620 -0.3160  1.5831
  311MOL0     H41965   2.685  11.469   1.911 -1.3936 -0.5176 -2.2234
  311MOL0     H41966   2.711  11.310   1.830 -1.3130  0.3187  0.9391
  311MOL0     H41967   2.732  10.888   2.750 -0.6268 -0.0698  0.5577
  311MOL0     H41968   2.664  10.774   2.973  0.5712 -2.4495  2.0424
  311MOL0     H41969   2.684  10.816   3.291  2.2904 -0.7601 -0.3656
  311MOL0     H41970   2.557  10.888   3.509 -2.0733 -0.6088  2.1750
  311MOL0     H41971   1.534  10.612   5.477 -0.3162 -0.4100  0.4253
  311MOL0     H41972   1.320  10.550   5.579 -1.7993  0.6406 -3.2550
  311MOL0     H41973   1.080  10.094   5.630  1.4899 -0.3352  1.5234
  311MOL0     H41974   0.864   9.973   5.713 -1.7377 -0.3232  2.3887
  311MOL0     H41975   0.659   9.964   5.681  4.8911 -1.0801 -1.0931
  311MOL0     H41976   0.696   9.870   5.833  0.8010  2.7853  2.1190
  311MOL0     H41977   0.478   9.919   5.934  1.5891 -0.4790  0.0734
  311MOL0     H41978   0.449   9.832   5.792  1.4515 -0.0042 -0.9060
  311MOL0     H41979   0.460  10.113   5.724  0.6456  2.4214  2.6331
  311MOL0     H41980   0.376  10.108   5.868  1.7983 -0.1256  1.1193
  311MOL0     H41981   0.216   9.954   5.764 -1.0052  1.8211 -0.3886
  311MOL0     H41982   0.323   9.909   5.629 -0.5795 -0.4090 -0.7474
  311MOL0     H41983   0.113  10.221   5.459 -1.5125  0.3255  0.7708
  311MOL0     H41984   0.769  10.311   5.957  2.3737 -0.2656  1.6634
  311MOL0     H41985   0.977  10.425   5.863  1.8383 -1.0061  2.9176
  312MOL0     O41986   1.873   6.269   8.962 -0.0897 -0.0118 -0.4748
  312MOL0     C41987   1.955   6.274   9.050 -1.2376  0.3578 -1.3342
  312MOL0     O41988   1.960   6.176   9.153 -0.2753 -0.8750  0.3364
  312MOL0     C41989   1.867   6.081   9.162  0.1134 -1.2399 -0.4362
  312MOL0     C41990   1.894   5.948   9.189  0.7628  0.3600  0.0198
  312MOL0     C41991   1.796   5.858   9.234 -0.6030  0.5002  0.2206
  312MOL0     C41992   1.661   5.901   9.231 -0.2861 -0.2516  0.2876
  312MOL0     O41993   1.565   5.817   9.253  0.4064  0.9767 -0.2853
  312MOL0     C41994   1.461   5.859   9.353  0.3167 -0.1344  0.2171
  312MOL0     C41995   1.373   5.738   9.400 -0.1475  0.1792 -0.3431
  312MOL0     C41996   1.452   5.605   9.434 -0.1176 -0.1756 -0.4376
  312MOL0     C41997   1.352   5.493   9.457 -0.0527  0.2990 -0.0585
  312MOL0     C41998   1.416   5.374   9.539  0.4053 -0.2521  0.5886
  312MOL0     C41999   1.295   5.298   9.595 -0.0974  0.3227  0.1501
  312MOL0     C42000   1.327   5.163   9.672  0.8418 -1.0958  0.1574
  312MOL0     C42001   1.429   5.179   9.780  0.2052 -0.3311  0.4305
  312MOL0     N42002   1.438   5.061   9.868 -0.5705 -0.0869 -0.6963
  312MOL0     C42003   1.513   4.954   9.842  0.8616 -0.6195 -0.2357
  312MOL0     C42004   1.491   4.854   9.921 -0.3175  0.0839  0.4068
  312MOL0     C42005   1.556   4.714   9.917  0.7059 -0.9820 -0.1910
  312MOL0     C42006   1.458   4.602   9.913 -0.4012  0.5465  0.0841
  312MOL0     C42007   1.388   4.589   9.779 -0.2480  0.6029 -0.1794
  312MOL0     C42008   1.275   4.477   9.789 -0.3224 -0.2305  0.0735
  312MOL0     O42009   1.220   4.468   9.653 -1.2238  0.1682 -0.7219
  312MOL0     C42010   1.114   4.379   9.629  0.3940 -0.1852  0.0706
  312MOL0     C42011   1.049   4.299   9.730  0.4362  0.2473 -0.5730
  312MOL0     C42012   0.938   4.215   9.702 -0.2404  0.2478  0.1012
  312MOL0     C42013   0.868   4.148   9.820  0.0296 -0.7657  0.7579
  312MOL0     C42014   0.902   4.190   9.566 -0.0366 -0.3085 -1.3480
  312MOL0     C42015   0.778   4.117   9.522  0.1709  0.2560 -0.5462
  312MOL0     O42016   0.692   4.067   9.622  0.4228 -0.0475  0.3242
  312MOL0     C42017   0.578   3.999   9.583 -0.1384  0.6435  0.4902
  312MOL0     C42018   0.577   3.893   9.481 -0.0411  0.4402 -0.2122
  312MOL0     C42019   0.471   3.808   9.470  0.1236  1.0437  0.3608
  312MOL0     C42020   0.354   3.838   9.544 -0.6495 -0.0455  0.0425
  312MOL0     O42021   0.249   3.757   9.515  0.3188  0.7501 -0.0901
  312MOL0     C42022   0.154   3.721   9.618 -0.4343  0.2035  0.0465
  312MOL0     C42023   0.068   3.600   9.572  0.6186 -0.7043  0.5937
  312MOL0     C42024  -0.050   3.581   9.663 -0.1418  0.8408  0.2622
  312MOL0     C42025  -0.178   3.658   9.625 -0.4553 -0.6289  0.4756
  312MOL0     C42026  -0.293   3.651   9.729  0.0182  0.4755  0.6638
  312MOL0     C42027  -0.413   3.729   9.657  0.0218  0.2444 -0.1915
  312MOL0     C42028  -0.520   3.787   9.752  0.1157 -0.9635 -0.3536
  312MOL0     C42029  -0.603   3.679   9.822  0.2616 -0.1402 -0.1164
  312MOL0    Cl42030  -0.656   3.550   9.699 -0.1121  0.2230  0.5828
  312MOL0     C42031   0.357   3.944   9.638 -0.0219  0.2317 -0.3806
  312MOL0     C42032   0.469   4.023   9.664  0.5677  0.3101 -0.9877
  312MOL0     O42033   0.752   4.112   9.401  0.8641  0.6243 -0.2992
  312MOL0     C42034   0.970   4.265   9.470  1.0883 -0.1413  0.9744
  312MOL0     C42035   1.068   4.353   9.498 -0.4525  0.0906 -1.4466
  312MOL0     N42036   1.382   4.901   9.990 -0.3172 -0.2402 -0.4717
  312MOL0     N42037   1.357   5.022   9.966  1.1463 -0.4748  1.0043
  312MOL0     C42038   1.629   6.033   9.194  0.1604  0.1949 -0.6312
  312MOL0     C42039   1.734   6.118   9.163  0.3559 -0.8056  0.8960
  312MOL0     C42040   2.056   6.388   9.056  0.7245 -0.0606  0.2815
  312MOL0     C42041   2.135   6.407   9.157  0.5292  0.1485  0.5273
  312MOL0     C42042   2.199   6.527   9.170 -0.0306  0.1596 -0.0488
  312MOL0     C42043   2.170   6.638   9.086  0.0240  0.6890  0.6693
  312MOL0     O42044   2.246   6.751   9.103 -0.2399 -0.5828 -0.1260
  312MOL0     C42045   2.209   6.868   9.036 -1.3424  0.0766 -0.0402
  312MOL0     C42046   2.308   6.970   9.098 -0.4595 -0.5935  1.0685
  312MOL0     C42047   2.454   6.944   9.069 -0.0678  0.4244  0.5139
  312MOL0     C42048   2.542   7.047   9.009 -0.0453  0.0724 -1.1749
  312MOL0     C42049   2.486   7.101   8.876 -1.4956  0.1450 -0.0284
  312MOL0     C42050   2.437   7.157   8.782 -0.3772  0.6530 -0.9045
  312MOL0     C42051   2.069   6.618   8.993  0.2323  1.1065  0.4889
  312MOL0     C42052   2.013   6.492   8.977 -0.6343 -0.4005  0.7599
  312MOL0     H42053   2.002   5.933   9.190  0.9403  0.9074 -2.8641
  312MOL0     H42054   1.828   5.756   9.249 -1.0051 -0.1001 -2.4384
  312MOL0     H42055   1.504   5.883   9.451  1.3959  0.2077 -0.3241
  312MOL0     H42056   1.391   5.937   9.320 -2.2041 -2.4413 -0.1739
  312MOL0     H42057   1.310   5.780   9.479  0.1290  1.2333 -0.6649
  312MOL0     H42058   1.302   5.715   9.319  0.1568 -2.4532  0.0506
  312MOL0     H42059   1.521   5.569   9.357 -1.3452 -0.6046 -1.3762
  312MOL0     H42060   1.517   5.624   9.519 -0.7044  2.1531 -0.4195
  312MOL0     H42061   1.262   5.537   9.501 -0.0745  0.5091 -0.3133
  312MOL0     H42062   1.329   5.447   9.360 -2.1677 -0.3304  0.6961
  312MOL0     H42063   1.480   5.323   9.467  2.6222  1.3050  1.3411
  312MOL0     H42064   1.472   5.409   9.627  0.0482  0.3592  0.5791
  312MOL0     H42065   1.246   5.360   9.670 -0.2738 -0.1785  0.4556
  312MOL0     H42066   1.230   5.267   9.512  2.1018 -6.7580  0.3572
  312MOL0     H42067   1.233   5.133   9.719  0.6846 -1.0257 -0.1094
  312MOL0     H42068   1.359   5.093   9.594  1.2411 -2.3130  1.3649
  312MOL0     H42069   1.380   5.259   9.836 -2.3127  3.2214 -5.8593
  312MOL0     H42070   1.531   5.214   9.759 -0.5086  1.5665 -0.1128
  312MOL0     H42071   1.576   4.943   9.755 -1.7797 -0.0994 -2.3356
  312MOL0     H42072   1.622   4.708   9.829 -0.5644  3.9195 -1.8238
  312MOL0     H42073   1.612   4.713  10.011 -0.2720 -2.2773  0.4062
  312MOL0     H42074   1.375   4.603   9.984 -0.0084 -2.0626  0.6948
  312MOL0     H42075   1.517   4.513   9.939  2.0530  1.8235 -0.7784
  312MOL0     H42076   1.462   4.562   9.703  2.1954 -0.1330  2.2914
  312MOL0     H42077   1.350   4.687   9.747 -1.9480 -0.4634 -1.6041
  312MOL0     H42078   1.194   4.513   9.853 -0.4059  2.9430 -1.6303
  312MOL0     H42079   1.318   4.382   9.822  1.0159  0.3702  0.1245
  312MOL0     H42080   1.095   4.289   9.828 -1.1928  1.1247  0.3259
  312MOL0     H42081   0.764   4.178   9.835  1.0871  3.4647  0.9187
  312MOL0     H42082   0.869   4.039   9.816 -1.5369 -0.8012  0.5607
  312MOL0     H42083   0.916   4.170   9.916 -2.8248  1.1980  1.8692
  312MOL0     H42084   0.667   3.868   9.425 -0.8705 -1.9213 -0.5654
  312MOL0     H42085   0.473   3.734   9.390  1.4672  0.8279  0.5672
  312MOL0     H42086   0.208   3.687   9.707  2.6927 -1.0889 -2.1897
  312MOL0     H42087   0.092   3.809   9.636  1.6985  2.1845 -1.7091
  312MOL0     H42088   0.036   3.623   9.470 -0.7376 -0.3282  1.0895
  312MOL0     H42089   0.136   3.514   9.568 -0.0807 -1.2599  0.5882
  312MOL0     H42090  -0.005   3.597   9.762  0.8294 -0.7359  0.1153
  312MOL0     H42091  -0.085   3.477   9.662  2.2991 -0.1376 -3.4958
  312MOL0     H42092  -0.147   3.763   9.613 -2.8449  0.2842  1.6665
  312MOL0     H42093  -0.206   3.633   9.522  1.1324 -1.1033  0.1265
  312MOL0     H42094  -0.269   3.706   9.820 -0.1666  0.0133  0.9999
  312MOL0     H42095  -0.307   3.545   9.751  0.5904  0.3764  0.5480
  312MOL0     H42096  -0.378   3.813   9.597 -1.2893  1.0585  0.1433
  312MOL0     H42097  -0.465   3.678   9.575  1.9921  3.0459 -3.4236
  312MOL0     H42098  -0.593   3.840   9.691  0.7098 -0.7259 -0.8719
  312MOL0     H42099  -0.473   3.852   9.826  3.0470 -2.0852 -1.0741
  312MOL0     H42100  -0.690   3.731   9.863  2.1630  0.6857  3.1821
  312MOL0     H42101  -0.553   3.631   9.906  1.3130 -0.8022 -1.0820
  312MOL0     H42102   0.272   3.973   9.700 -0.2130 -1.9687  0.4799
  312MOL0     H42103   0.482   4.104   9.735 -2.0223  2.2194 -2.4904
  312MOL0     H42104   0.945   4.260   9.364  0.1529  2.4987  0.9901
  312MOL0     H42105   1.123   4.406   9.421  0.2980 -2.1299 -2.5453
  312MOL0     H42106   1.531   6.080   9.197 -0.0392 -0.2008 -0.8327
  312MOL0     H42107   1.690   6.217   9.155 -2.1843 -2.0040 -1.4817
  312MOL0     H42108   2.166   6.319   9.212  1.0157  0.2580  0.4356
  312MOL0     H42109   2.262   6.536   9.257  1.2845  0.9250 -1.0404
  312MOL0     H42110   2.241   6.851   8.933 -1.6401  3.7874 -0.9122
  312MOL0     H42111   2.104   6.895   9.047 -0.8108  1.7471  1.3168
  312MOL0     H42112   2.309   6.985   9.207  3.0222 -3.8793  1.6863
  312MOL0     H42113   2.285   7.067   9.051 -1.0033 -2.1166 -2.0281
  312MOL0     H42114   2.454   6.862   8.996 -1.5809  1.2614 -0.4832
  312MOL0     H42115   2.506   6.896   9.152  0.1382 -1.8227 -0.8313
  312MOL0     H42116   2.644   7.010   8.999  1.7463  3.4429  2.0807
  312MOL0     H42117   2.545   7.118   9.092 -1.5638 -2.5800  1.3671
  312MOL0     H42118   2.382   7.185   8.694  0.8688  1.4344 -1.4654
  312MOL0     H42119   2.040   6.700   8.927 -0.9445 -0.4543 -1.0375
  312MOL0     H42120   1.940   6.487   8.897 -2.7469  0.4941  2.5241
  313MOL0     O42121   4.165   2.512   7.957  0.1221  0.0041  0.0375
  313MOL0     C42122   4.110   2.510   7.848 -0.1174 -0.1513  0.0336
  313MOL0     O42123   4.143   2.575   7.739  0.0172 -0.8868  1.1440
  313MOL0     C42124   4.269   2.627   7.730  0.3403 -0.6772  0.3915
  313MOL0     C42125   4.298   2.749   7.797 -0.9270  0.0236  0.3287
  313MOL0     C42126   4.429   2.808   7.781 -0.5379  0.9806 -0.2479
  313MOL0     C42127   4.519   2.754   7.680 -0.6054  0.0597 -0.0435
  313MOL0     O42128   4.652   2.788   7.646 -0.3266  0.5187 -0.3984
  313MOL0     C42129   4.701   2.917   7.697 -0.6775  1.0411  0.9006
  313MOL0     C42130   4.756   2.904   7.843  0.0860 -0.2262  0.0255
  313MOL0     C42131   4.852   2.790   7.862 -0.2941  0.1725 -0.5058
  313MOL0     C42132   4.999   2.821   7.811  0.4982  0.5618  0.2027
  313MOL0     C42133   5.093   2.698   7.821  0.7945 -0.3257  0.1816
  313MOL0     C42134   5.087   2.650   7.971  0.0742 -0.4543  0.3012
  313MOL0     C42135   5.184   2.537   7.991  1.0732 -0.7065 -0.1040
  313MOL0     C42136   5.136   2.406   7.932 -0.2628  0.7111 -0.1034
  313MOL0     N42137   5.231   2.342   7.840  0.7179  0.3679  0.1344
  313MOL0     C42138   5.324   2.247   7.869  0.3232 -0.7339 -0.0990
  313MOL0     C42139   5.365   2.194   7.761 -0.9294 -0.3974  0.3427
  313MOL0     C42140   5.468   2.075   7.779  0.1639 -0.5099  0.2676
  313MOL0     C42141   5.434   1.953   7.699  1.1587  0.1752  0.1370
  313MOL0     C42142   5.547   1.851   7.689  0.4197 -0.8776  0.1039
  313MOL0     C42143   5.678   1.899   7.615  0.3663  0.9403 -0.3084
  313MOL0     O42144   5.771   1.799   7.576  0.0343  0.2527  0.8196
  313MOL0     C42145   5.730   1.763   7.444 -0.1680 -0.6947 -0.7090
  313MOL0     C42146   5.761   1.828   7.324  0.1466 -1.1885 -0.1513
  313MOL0     C42147   5.736   1.770   7.199 -0.0973 -0.5218  0.7236
  313MOL0     C42148   5.774   1.853   7.074  0.6865 -0.7637 -0.3384
  313MOL0     C42149   5.668   1.648   7.193 -0.0778  1.4330  0.5485
  313MOL0     C42150   5.625   1.578   7.070 -0.1526 -0.1592  0.6160
  313MOL0     O42151   5.601   1.441   7.085  0.0663 -0.1230 -0.1077
  313MOL0     C42152   5.539   1.386   6.980 -0.7109  0.3683 -0.3063
  313MOL0     C42153   5.609   1.275   6.929  0.0930  0.8133  1.4227
  313MOL0     C42154   5.548   1.211   6.819  0.6459  0.6013  0.0880
  313MOL0     C42155   5.436   1.254   6.764 -0.4118  0.5953  1.2415
  313MOL0     O42156   5.376   1.173   6.667  0.0253  0.0056  0.1173
  313MOL0     C42157   5.418   1.194   6.537 -0.2683 -0.0896  0.0098
  313MOL0     C42158   5.344   1.118   6.434 -0.8494  0.4538  0.3069
  313MOL0     C42159   5.373   0.966   6.461  0.2998  0.7580  0.3580
  313MOL0     C42160   5.285   0.870   6.373 -0.1269 -0.5806 -0.1380
  313MOL0     C42161   5.133   0.896   6.354 -0.1844  0.1416  0.3969
  313MOL0     C42162   5.064   0.771   6.286  0.3560  0.6340 -0.0914
  313MOL0     C42163   4.920   0.804   6.219 -0.8055  0.2149 -1.2689
  313MOL0     C42164   4.815   0.860   6.302 -0.6429  0.7490  0.3574
  313MOL0    Cl42165   4.678   0.875   6.204 -0.4522 -0.4602  0.4753
  313MOL0     C42166   5.356   1.351   6.830 -0.4014  0.4424 -0.1188
  313MOL0     C42167   5.407   1.422   6.943  1.1061 -0.2896  0.1709
  313MOL0     O42168   5.614   1.641   6.962 -1.1691  1.0787 -1.0536
  313MOL0     C42169   5.637   1.586   7.319  0.9790 -0.0456  0.3463
  313MOL0     C42170   5.658   1.645   7.439 -1.7159  0.0047  0.7223
  313MOL0     N42171   5.295   2.247   7.660 -1.6361 -0.8949  0.0223
  313MOL0     N42172   5.218   2.337   7.706  1.3439 -0.8719 -0.4708
  313MOL0     C42173   4.475   2.647   7.600  0.2854  0.2239 -1.3167
  313MOL0     C42174   4.355   2.583   7.632  0.6127 -0.2513  0.8856
  313MOL0     C42175   3.991   2.416   7.835  0.0876 -0.0609 -0.5818
  313MOL0     C42176   3.909   2.439   7.722 -0.7249 -0.2725  0.0475
  313MOL0     C42177   3.806   2.348   7.693 -0.2562  0.3146  0.7311
  313MOL0     C42178   3.781   2.231   7.766  1.0568 -0.1615  0.1268
  313MOL0     O42179   3.678   2.132   7.750 -0.6489 -0.3240 -0.5487
  313MOL0     C42180   3.578   2.161   7.664  0.0445  0.5783 -0.3605
  313MOL0     C42181   3.507   2.026   7.627 -0.6613 -0.4545  0.0663
  313MOL0     C42182   3.445   1.939   7.739  0.1492  1.0380 -0.1589
  313MOL0     C42183   3.556   1.871   7.813  0.0532  0.0895 -0.0453
  313MOL0     C42184   3.493   1.802   7.922  0.3142 -0.0356  0.0388
  313MOL0     C42185   3.446   1.727   8.005 -0.0272  0.4830 -0.1798
  313MOL0     C42186   3.864   2.223   7.882 -0.1760  0.8436  0.5387
  313MOL0     C42187   3.966   2.306   7.919 -0.7187 -1.3780 -0.2161
  313MOL0     H42188   4.223   2.798   7.858 -2.9625 -3.0291  0.4569
  313MOL0     H42189   4.462   2.897   7.834 -0.8269  0.9167  0.0451
  313MOL0     H42190   4.793   2.940   7.643  0.6050 -1.8930  1.6279
  313MOL0     H42191   4.630   2.996   7.671 -0.9067  2.3502  4.7438
  313MOL0     H42192   4.806   2.996   7.875  0.2393 -0.6225  0.9535
  313MOL0     H42193   4.674   2.894   7.915 -0.2541  1.1809 -0.1447
  313MOL0     H42194   4.856   2.771   7.970 -0.8146 -3.3730 -0.9790
  313MOL0     H42195   4.816   2.699   7.812  1.8185 -0.3566 -1.1634
  313MOL0     H42196   4.997   2.853   7.707 -1.5260 -1.3163 -0.4279
  313MOL0     H42197   5.040   2.904   7.869  2.1496  1.5150 -2.1649
  313MOL0     H42198   5.062   2.623   7.747 -0.1372  0.2775 -0.0610
  313MOL0     H42199   5.193   2.729   7.788  0.2788 -0.1668 -1.3070
  313MOL0     H42200   5.117   2.740   8.026  0.0107 -0.0464 -0.3110
  313MOL0     H42201   4.987   2.622   8.003 -0.8255  2.9227  0.8983
  313MOL0     H42202   5.273   2.568   7.936  1.0678 -3.5598 -1.9019
  313MOL0     H42203   5.202   2.517   8.098  1.9446 -1.5625 -0.3961
  313MOL0     H42204   5.048   2.420   7.868  0.6838 -2.2361 -2.2694
  313MOL0     H42205   5.101   2.332   8.005  3.1710  0.7949  1.8112
  313MOL0     H42206   5.360   2.233   7.970  0.0845  0.3844  0.1544
  313MOL0     H42207   5.559   2.117   7.733 -0.5173  0.4388 -0.2487
  313MOL0     H42208   5.502   2.039   7.877  0.2854  2.3550  1.3734
  313MOL0     H42209   5.395   1.984   7.601  1.0802 -0.6192 -0.0903
  313MOL0     H42210   5.360   1.903   7.762  2.6763 -0.7724  1.2353
  313MOL0     H42211   5.501   1.756   7.662 -1.3997 -0.4288  1.4108
  313MOL0     H42212   5.582   1.835   7.792 -2.4323  2.6493  1.8407
  313MOL0     H42213   5.740   1.957   7.685  0.2946 -1.0293  1.5038
  313MOL0     H42214   5.656   1.967   7.532  1.7378 -0.3900 -1.8328
  313MOL0     H42215   5.798   1.930   7.328 -0.6305 -0.8397 -1.2644
  313MOL0     H42216   5.689   1.913   7.042  1.9112  1.3094  0.1395
  313MOL0     H42217   5.840   1.926   7.121 -0.2392 -0.3124  0.2858
  313MOL0     H42218   5.838   1.806   6.998  1.7007  1.6491 -1.0818
  313MOL0     H42219   5.700   1.225   6.962  1.6959  4.6907  3.5912
  313MOL0     H42220   5.594   1.118   6.788 -0.8082 -0.4726  1.0408
  313MOL0     H42221   5.407   1.300   6.510 -0.4810 -0.1401 -0.1024
  313MOL0     H42222   5.522   1.161   6.530  0.3327  1.2873  1.7634
  313MOL0     H42223   5.240   1.153   6.434  0.1894  4.1721  3.1060
  313MOL0     H42224   5.382   1.127   6.332 -1.2271  0.9818  0.2091
  313MOL0     H42225   5.340   0.956   6.565  0.6393  5.0733  1.0740
  313MOL0     H42226   5.479   0.945   6.443  0.4693  0.9009  1.1418
  313MOL0     H42227   5.315   0.884   6.268 -0.4687  4.8092  0.1913
  313MOL0     H42228   5.320   0.770   6.398  0.0422 -0.4497  0.1535
  313MOL0     H42229   5.103   0.990   6.309 -0.0015  0.9788  1.9481
  313MOL0     H42230   5.082   0.897   6.451  0.2183 -3.3201  0.7981
  313MOL0     H42231   5.127   0.728   6.207  1.2502  0.5054  0.6703
  313MOL0     H42232   5.047   0.694   6.361  0.0465  1.8878  1.1561
  313MOL0     H42233   4.880   0.709   6.181 -1.5148  0.9260 -2.3600
  313MOL0     H42234   4.935   0.870   6.133 -1.6172 -0.6980 -2.1410
  313MOL0     H42235   4.859   0.958   6.327  1.0400 -0.3292  1.8999
  313MOL0     H42236   4.794   0.814   6.399 -2.7713 -1.2868 -0.9682
  313MOL0     H42237   5.260   1.386   6.793  0.0021  0.7894 -0.8647
  313MOL0     H42238   5.349   1.497   6.995  1.9308 -0.0621  0.7769
  313MOL0     H42239   5.585   1.491   7.328 -0.7380  0.7662 -0.5088
  313MOL0     H42240   5.641   1.589   7.531  4.3806 -3.0860  0.4608
  313MOL0     H42241   4.546   2.617   7.523  0.9885 -0.4381 -0.4236
  313MOL0     H42242   4.317   2.499   7.575  1.5885 -0.3315  0.3248
  313MOL0     H42243   3.922   2.521   7.652 -0.9522  0.5001  0.8806
  313MOL0     H42244   3.733   2.368   7.615  0.4152  0.6304  0.1692
  313MOL0     H42245   3.501   2.216   7.718  1.4801  0.5861  1.7896
  313MOL0     H42246   3.596   2.214   7.570 -0.9095  0.3420 -0.6914
  313MOL0     H42247   3.568   1.953   7.574 -1.8797 -1.1306 -0.4591
  313MOL0     H42248   3.433   2.059   7.552  1.3991 -1.2806 -2.4793
  313MOL0     H42249   3.388   1.861   7.687  2.0143 -0.0145 -0.7335
  313MOL0     H42250   3.383   2.004   7.801 -2.9457 -1.0713 -0.8003
  313MOL0     H42251   3.623   1.944   7.857 -0.6685  0.5177  0.3654
  313MOL0     H42252   3.611   1.803   7.747 -1.0575  0.4205 -1.3600
  313MOL0     H42253   3.404   1.660   8.078  1.8951 -1.0254 -0.3902
  313MOL0     H42254   3.851   2.133   7.940  1.9740  0.3890  0.4103
  313MOL0     H42255   4.038   2.291   7.999 -1.4287 -0.7081  0.5751
  314MOL0     O42256   9.031   8.586   8.272 -0.0880  0.0488  0.2097
  314MOL0     C42257   9.109   8.493   8.250  0.5012  0.6368  1.0565
  314MOL0     O42258   9.174   8.420   8.343 -0.5078 -0.0359 -0.0185
  314MOL0     C42259   9.129   8.433   8.471 -0.3625 -0.5212 -0.1573
  314MOL0     C42260   9.006   8.377   8.507 -0.2287  0.9347 -0.4567
  314MOL0     C42261   8.989   8.359   8.647  1.1136 -0.8350 -0.0982
  314MOL0     C42262   9.068   8.424   8.743 -0.2549 -0.0467 -1.5747
  314MOL0     O42263   9.050   8.421   8.880 -0.0004  0.3445  0.0394
  314MOL0     C42264   8.916   8.396   8.921  0.6476 -0.0798 -0.4307
  314MOL0     C42265   8.906   8.398   9.074 -0.3236  1.8947 -0.6046
  314MOL0     C42266   8.775   8.412   9.134  0.0212  0.5296  0.2975
  314MOL0     C42267   8.769   8.383   9.277  0.1396  0.5666 -0.0806
  314MOL0     C42268   8.648   8.441   9.356 -0.6474 -0.6424  0.0576
  314MOL0     C42269   8.674   8.426   9.505  0.2653 -0.6688  0.3073
  314MOL0     C42270   8.557   8.483   9.589  0.4200  1.8359 -1.0887
  314MOL0     C42271   8.548   8.424   9.723  0.3017 -0.0618  0.1418
  314MOL0     N42272   8.532   8.274   9.735  0.9839  0.0111  0.1119
  314MOL0     C42273   8.450   8.187   9.663 -0.3427  0.0541 -0.3048
  314MOL0     C42274   8.503   8.060   9.687 -0.5241  0.3114  0.2267
  314MOL0     C42275   8.466   7.939   9.607 -0.9557  0.4864  0.9155
  314MOL0     C42276   8.523   7.933   9.466  0.5890  0.8780 -0.1412
  314MOL0     C42277   8.446   7.878   9.345 -0.1930  0.1361  0.1918
  314MOL0     C42278   8.310   7.948   9.318 -0.5944  0.5261  1.2282
  314MOL0     O42279   8.244   7.896   9.199 -0.3500  0.4287  0.1090
  314MOL0     C42280   8.302   7.924   9.074 -0.4080  1.1052 -0.5865
  314MOL0     C42281   8.259   7.864   8.968 -0.3756 -0.3591 -0.6232
  314MOL0     C42282   8.301   7.885   8.837  0.2091 -0.3223  0.3446
  314MOL0     C42283   8.257   7.780   8.732  0.2444 -0.2005  0.7981
  314MOL0     C42284   8.372   8.001   8.807 -0.4401  0.2291  0.6759
  314MOL0     C42285   8.403   8.046   8.666  0.5942  0.3630 -0.5546
  314MOL0     O42286   8.509   8.132   8.666  0.2878  0.3579  0.1449
  314MOL0     C42287   8.522   8.228   8.565 -0.2114 -0.1179 -0.1736
  314MOL0     C42288   8.643   8.281   8.542  0.2120 -0.4245 -0.4038
  314MOL0     C42289   8.673   8.379   8.445  0.1607 -0.3653 -0.2305
  314MOL0     C42290   8.562   8.427   8.367 -0.2188  0.4164 -0.7791
  314MOL0     O42291   8.574   8.525   8.265 -0.5838 -0.1269  0.4429
  314MOL0     C42292   8.704   8.562   8.225  0.5129 -0.3594 -0.6196
  314MOL0     C42293   8.696   8.653   8.106 -0.9531 -0.3436 -0.5185
  314MOL0     C42294   8.645   8.583   7.975 -0.4424 -0.0156 -0.1012
  314MOL0     C42295   8.621   8.703   7.877 -0.2412 -0.5235 -0.5666
  314MOL0     C42296   8.561   8.659   7.749  0.3982 -0.4787  0.5033
  314MOL0     C42297   8.406   8.611   7.749  0.6048  0.5732 -0.8316
  314MOL0     C42298   8.371   8.568   7.615 -0.6749  0.4952  0.1016
  314MOL0     C42299   8.327   8.684   7.532  0.2744 -0.1577  0.5678
  314MOL0    Cl42300   8.271   8.644   7.380  0.0572  0.0950  0.1616
  314MOL0     C42301   8.434   8.378   8.396 -0.3905 -0.9414  0.3316
  314MOL0     C42302   8.410   8.280   8.494  1.0276 -0.3696 -0.5691
  314MOL0     O42303   8.352   8.004   8.560  0.6182 -0.4382 -0.4814
  314MOL0     C42304   8.414   8.075   8.919 -0.2924  0.4196  0.5967
  314MOL0     C42305   8.380   8.042   9.050 -0.6131 -0.8148  0.0927
  314MOL0     N42306   8.610   8.070   9.781  0.5480  0.1413 -0.0470
  314MOL0     N42307   8.621   8.200   9.800  0.6289  0.0587  0.5024
  314MOL0     C42308   9.180   8.487   8.705  0.1088  0.1758  0.5165
  314MOL0     C42309   9.211   8.497   8.567  0.2836 -0.1568  0.0565
  314MOL0     C42310   9.154   8.480   8.108  0.4344  0.6202  1.0180
  314MOL0     C42311   9.258   8.390   8.064  0.6850 -0.3005  0.1973
  314MOL0     C42312   9.295   8.390   7.936 -0.2965 -0.5889  0.9448
  314MOL0     C42313   9.233   8.468   7.838 -0.3466 -0.2015  0.0288
  314MOL0     O42314   9.294   8.454   7.717 -1.3122 -0.4230  0.3097
  314MOL0     C42315   9.237   8.527   7.604 -0.1374 -0.4807 -0.4284
  314MOL0     C42316   9.296   8.665   7.599 -0.0087 -0.4609 -0.3526
  314MOL0     C42317   9.445   8.657   7.557  0.7101  0.4510 -0.3908
  314MOL0     C42318   9.516   8.788   7.540 -0.1537  0.1106  0.1608
  314MOL0     C42319   9.513   8.881   7.655  0.1468  0.2177  0.1321
  314MOL0     C42320   9.522   8.944   7.758 -0.9428 -0.0143 -0.7953
  314MOL0     C42321   9.131   8.556   7.876  0.8742  0.1568  0.7981
  314MOL0     C42322   9.088   8.566   8.006 -1.1929  0.4989  0.2336
  314MOL0     H42323   8.944   8.328   8.433 -0.0054  3.7232 -2.6674
  314MOL0     H42324   8.896   8.315   8.680 -0.5410  1.5858 -1.2543
  314MOL0     H42325   8.859   8.484   8.890 -0.3366 -0.8736 -0.9237
  314MOL0     H42326   8.875   8.301   8.886  0.3714  0.2701 -1.0793
  314MOL0     H42327   8.956   8.312   9.120  0.3033  2.0039 -1.0629
  314MOL0     H42328   8.967   8.479   9.113  0.6129  1.1921 -0.5742
  314MOL0     H42329   8.761   8.521   9.127  2.7358  1.0142  1.3165
  314MOL0     H42330   8.691   8.372   9.076  1.3086  0.4067 -1.5422
  314MOL0     H42331   8.769   8.274   9.284  1.0041  0.6318  1.1586
  314MOL0     H42332   8.856   8.433   9.319  0.1462  0.2850  0.2463
  314MOL0     H42333   8.632   8.548   9.343 -0.9605 -0.9728 -3.1107
  314MOL0     H42334   8.552   8.395   9.331 -0.8506 -1.0754  1.5762
  314MOL0     H42335   8.700   8.322   9.530  0.7981 -0.6009  0.0367
  314MOL0     H42336   8.765   8.484   9.521  0.0346 -0.8718  2.7672
  314MOL0     H42337   8.564   8.592   9.591  0.6583  1.8516 -2.2712
  314MOL0     H42338   8.464   8.444   9.547  1.7385 -3.0874 -0.1015
  314MOL0     H42339   8.463   8.470   9.774 -0.0311  0.0484 -0.5000
  314MOL0     H42340   8.632   8.455   9.786 -0.9737 -0.2557  2.0295
  314MOL0     H42341   8.378   8.226   9.592 -0.2780  0.0070 -0.3945
  314MOL0     H42342   8.508   7.856   9.665  0.6624  0.0261 -0.8126
  314MOL0     H42343   8.358   7.922   9.604 -0.5754 -2.3208 -0.4317
  314MOL0     H42344   8.604   7.859   9.468  0.3915  0.6023 -1.6391
  314MOL0     H42345   8.561   8.031   9.438  1.1113  0.8981  0.5890
  314MOL0     H42346   8.424   7.771   9.352  1.2151 -0.0818  1.8039
  314MOL0     H42347   8.518   7.900   9.265  2.6085 -4.0965  1.1926
  314MOL0     H42348   8.339   8.053   9.321  1.8012 -0.0756  0.8001
  314MOL0     H42349   8.243   7.918   9.400 -1.6178 -2.0397 -0.4253
  314MOL0     H42350   8.187   7.784   8.983  1.1786 -1.6426  0.1369
  314MOL0     H42351   8.179   7.836   8.680  1.0327  0.4268  0.2618
  314MOL0     H42352   8.343   7.763   8.667  0.2502 -2.0758  1.2281
  314MOL0     H42353   8.216   7.690   8.779 -1.2218  0.2590  0.4294
  314MOL0     H42354   8.729   8.247   8.597  0.3683  0.0201 -0.3724
  314MOL0     H42355   8.765   8.432   8.425 -0.2386  1.3869  2.1554
  314MOL0     H42356   8.738   8.626   8.307  2.8243 -0.2960 -1.5294
  314MOL0     H42357   8.781   8.484   8.214  1.0574  0.1148 -0.2504
  314MOL0     H42358   8.626   8.732   8.134 -0.5531  0.3859 -1.5407
  314MOL0     H42359   8.798   8.691   8.101  1.5930 -5.5062  2.5898
  314MOL0     H42360   8.551   8.531   7.992 -0.5631  0.1038 -0.3897
  314MOL0     H42361   8.716   8.515   7.927 -1.8917 -1.0417 -0.8558
  314MOL0     H42362   8.555   8.781   7.917  2.9371  2.5904 -0.8705
  314MOL0     H42363   8.717   8.749   7.855 -0.3120  0.2536  0.6423
  314MOL0     H42364   8.621   8.574   7.716  0.2033 -0.6233  0.5259
  314MOL0     H42365   8.578   8.738   7.675 -2.6626 -0.6810 -0.5669
  314MOL0     H42366   8.393   8.535   7.827  1.0158 -0.0517 -1.3545
  314MOL0     H42367   8.340   8.692   7.779 -0.7633 -0.9283  0.4161
  314MOL0     H42368   8.290   8.495   7.609 -0.4015  0.1615  0.4622
  314MOL0     H42369   8.448   8.510   7.563 -2.7657 -2.3182 -0.0498
  314MOL0     H42370   8.409   8.756   7.520  1.1867 -0.7445  2.7387
  314MOL0     H42371   8.246   8.730   7.590  0.3316 -2.2873  2.4567
  314MOL0     H42372   8.361   8.425   8.330 -0.4615 -1.6385 -0.1003
  314MOL0     H42373   8.311   8.236   8.502 -0.5801  2.8589 -1.1186
  314MOL0     H42374   8.475   8.164   8.909  2.4810 -1.3043  1.2455
  314MOL0     H42375   8.409   8.105   9.133  0.0751  0.9801 -1.4395
  314MOL0     H42376   9.249   8.518   8.782  3.0156 -1.0349 -1.4159
  314MOL0     H42377   9.311   8.528   8.536  0.5251 -1.3231 -0.4062
  314MOL0     H42378   9.309   8.330   8.139  1.7606 -1.7168 -1.5896
  314MOL0     H42379   9.372   8.321   7.903 -1.9277 -1.0667 -2.3196
  314MOL0     H42380   9.242   8.474   7.509 -0.7641 -4.1440  1.3678
  314MOL0     H42381   9.129   8.543   7.616  0.3656  2.2724  1.3950
  314MOL0     H42382   9.275   8.725   7.688 -0.7311  0.2967 -1.0163
  314MOL0     H42383   9.243   8.720   7.521  4.6959  3.8160 -1.1035
  314MOL0     H42384   9.455   8.597   7.466 -0.0632 -2.2690  1.1981
  314MOL0     H42385   9.497   8.599   7.633 -0.1320  0.2502  0.0447
  314MOL0     H42386   9.488   8.845   7.451 -0.1124  0.3955  0.3281
  314MOL0     H42387   9.620   8.759   7.524 -0.0182 -0.7493  2.2218
  314MOL0     H42388   9.527   8.986   7.857  0.7476  0.2337 -0.9535
  314MOL0     H42389   9.088   8.620   7.800  0.8327 -0.4929  0.2602
  314MOL0     H42390   9.013   8.642   8.022  1.9281  3.2599  3.5184
  315MOL0     O42391   7.514   3.002   7.410 -0.4074 -1.6553  0.7402
  315MOL0     C42392   7.496   3.109   7.343  0.8174  0.4839 -0.6768
  315MOL0     O42393   7.466   3.116   7.211 -0.0221 -0.4113 -0.8588
  315MOL0     C42394   7.419   3.008   7.153 -0.1709 -0.7943 -0.1804
  315MOL0     C42395   7.280   2.989   7.175 -0.4549  0.2907  1.2922
  315MOL0     C42396   7.217   2.890   7.103 -0.1929 -0.6596  0.3728
  315MOL0     C42397   7.281   2.801   7.021 -0.2803 -0.3848  0.4732
  315MOL0     O42398   7.207   2.704   6.955  0.4139  0.6234 -0.3578
  315MOL0     C42399   7.171   2.590   7.040 -0.0440 -0.2712 -0.1267
  315MOL0     C42400   7.151   2.440   6.987  0.5282 -0.3341  0.4038
  315MOL0     C42401   7.274   2.418   6.896 -1.6677  0.2987 -0.0583
  315MOL0     C42402   7.250   2.296   6.793 -0.5159  0.4970  0.2700
  315MOL0     C42403   7.389   2.272   6.728 -0.9234 -0.4199  0.3789
  315MOL0     C42404   7.387   2.186   6.606 -0.7192 -0.8407 -0.6370
  315MOL0     C42405   7.515   2.110   6.581 -1.2369 -0.3563  0.2177
  315MOL0     C42406   7.628   2.201   6.525 -0.7714 -0.1416 -0.3181
  315MOL0     N42407   7.757   2.128   6.531  0.7089  0.3427  0.8332
  315MOL0     C42408   7.818   2.075   6.639 -0.5365 -0.7889  0.4169
  315MOL0     C42409   7.926   2.026   6.599 -0.4760 -0.1129  0.3588
  315MOL0     C42410   8.045   1.975   6.682  0.6232 -0.9153 -0.3180
  315MOL0     C42411   8.044   1.826   6.701 -1.7293 -0.4661 -0.3936
  315MOL0     C42412   8.106   1.740   6.589 -0.7213 -0.3361 -0.3836
  315MOL0     C42413   8.074   1.588   6.629  0.3703  0.0451  0.9957
  315MOL0     O42414   7.941   1.571   6.589 -0.0142 -1.2745 -0.1852
  315MOL0     C42415   7.915   1.491   6.471  0.1027  0.3178 -0.9228
  315MOL0     C42416   7.792   1.442   6.460 -0.7204  0.5944 -0.8469
  315MOL0     C42417   7.748   1.361   6.349 -0.1090 -0.0560 -0.1135
  315MOL0     C42418   7.600   1.314   6.342  0.0491  0.6627 -0.1735
  315MOL0     C42419   7.835   1.350   6.234  0.7891 -0.3938 -0.3841
  315MOL0     C42420   7.797   1.295   6.105  0.1158  0.3639 -0.3981
  315MOL0     O42421   7.879   1.334   6.002 -0.7853 -0.2786  1.0529
  315MOL0     C42422   7.832   1.327   5.873  0.7616 -0.4614  0.9837
  315MOL0     C42423   7.906   1.249   5.786  0.2848  0.3075 -0.8228
  315MOL0     C42424   7.877   1.239   5.648 -0.9085  0.8175 -1.0012
  315MOL0     C42425   7.769   1.309   5.601 -0.3758 -0.1545  0.5441
  315MOL0     O42426   7.732   1.279   5.478  0.1066 -0.3958  0.2029
  315MOL0     C42427   7.632   1.360   5.414  0.0199  0.6558  0.0064
  315MOL0     C42428   7.639   1.302   5.274  0.3294  0.6062  0.1213
  315MOL0     C42429   7.593   1.160   5.274 -0.0323  0.3651  1.1193
  315MOL0     C42430   7.601   1.098   5.131 -0.7733  0.6420  0.3139
  315MOL0     C42431   7.595   0.944   5.124  0.5823  0.4880 -0.2656
  315MOL0     C42432   7.722   0.881   5.174 -0.2470 -0.1018  0.0126
  315MOL0     C42433   7.740   0.739   5.110 -0.2794 -0.6558  0.0801
  315MOL0     C42434   7.617   0.653   5.136  0.2499 -0.3023  1.0859
  315MOL0    Cl42435   7.582   0.622   5.306 -0.0846  0.1588  0.1998
  315MOL0     C42436   7.693   1.389   5.688  0.4551  0.8186 -0.0064
  315MOL0     C42437   7.727   1.404   5.830  0.2193  0.1688  0.1829
  315MOL0     O42438   7.705   1.225   6.083 -0.2154 -0.0897 -0.0327
  315MOL0     C42439   7.960   1.407   6.250 -0.6815 -0.5969 -0.0561
  315MOL0     C42440   8.005   1.468   6.365 -0.4859  0.3342  0.0698
  315MOL0     N42441   7.933   2.034   6.458  0.3300  0.0045  0.8753
  315MOL0     N42442   7.826   2.098   6.420 -0.3041 -0.4119 -0.5480
  315MOL0     C42443   7.414   2.818   7.014  0.1371 -0.6071 -0.2903
  315MOL0     C42444   7.486   2.928   7.072 -0.1969 -0.0525  0.0260
  315MOL0     C42445   7.499   3.228   7.431 -0.4416 -0.4637  0.5172
  315MOL0     C42446   7.472   3.359   7.381  0.3808 -0.7463 -0.2568
  315MOL0     C42447   7.463   3.472   7.467 -1.0447  0.4577 -0.0513
  315MOL0     C42448   7.491   3.462   7.606  0.9486 -0.7524 -0.2053
  315MOL0     O42449   7.501   3.576   7.692  0.6176  0.4539 -0.3551
  315MOL0     C42450   7.544   3.566   7.824 -0.7797 -0.4661 -0.2523
  315MOL0     C42451   7.541   3.699   7.902 -0.0132  1.6212  0.3367
  315MOL0     C42452   7.399   3.749   7.924  0.5990  0.6992  0.0675
  315MOL0     C42453   7.320   3.676   8.034 -0.6183 -0.2939  0.1372
  315MOL0     C42454   7.395   3.681   8.164  0.6705  0.7922 -0.3281
  315MOL0     C42455   7.464   3.683   8.265  0.7125  0.2518  0.1195
  315MOL0     C42456   7.508   3.331   7.661  0.1254  0.1559  0.6868
  315MOL0     C42457   7.513   3.223   7.572  0.0951  0.3261 -0.1629
  315MOL0     H42458   7.219   3.067   7.220 -0.2397  0.8919  0.5632
  315MOL0     H42459   7.109   2.890   7.121 -0.0404  3.4130  2.3567
  315MOL0     H42460   7.248   2.572   7.115 -1.5595 -4.4056  0.7405
  315MOL0     H42461   7.076   2.616   7.089 -0.5358  0.3963 -1.3870
  315MOL0     H42462   7.156   2.378   7.077 -1.2501  1.8829  2.1539
  315MOL0     H42463   7.055   2.432   6.936  1.2568  0.6908 -1.2084
  315MOL0     H42464   7.300   2.499   6.826 -1.4468  0.7341  0.5196
  315MOL0     H42465   7.358   2.394   6.962 -0.0471  1.7385 -1.4621
  315MOL0     H42466   7.221   2.212   6.856  1.8749 -0.3184  0.3984
  315MOL0     H42467   7.164   2.327   6.733  0.7979  3.2209 -0.4068
  315MOL0     H42468   7.422   2.373   6.698 -1.6479 -0.4642 -0.6064
  315MOL0     H42469   7.461   2.231   6.800  1.5071  2.1857 -0.3721
  315MOL0     H42470   7.306   2.116   6.628 -3.2263  2.1073  0.2024
  315MOL0     H42471   7.357   2.232   6.511 -2.6844 -2.6517 -0.9592
  315MOL0     H42472   7.545   2.054   6.670 -0.3418  1.6836  1.2659
  315MOL0     H42473   7.492   2.037   6.503  2.9873 -1.9066  0.2093
  315MOL0     H42474   7.634   2.289   6.589  2.2665  0.6867 -1.5531
  315MOL0     H42475   7.611   2.235   6.422  0.7853  1.0807 -0.2177
  315MOL0     H42476   7.778   2.089   6.739 -1.2996  1.9930 -0.1841
  315MOL0     H42477   8.131   2.016   6.628  2.3651 -2.0281  1.4529
  315MOL0     H42478   8.038   2.014   6.784 -2.2397  1.8248 -1.4371
  315MOL0     H42479   7.937   1.811   6.717 -1.3885 -2.0813  0.7054
  315MOL0     H42480   8.092   1.800   6.796  0.4077 -0.1874 -1.3199
  315MOL0     H42481   8.214   1.755   6.588 -0.8817  1.1517  0.6976
  315MOL0     H42482   8.055   1.767   6.496  0.7163 -0.1332 -1.1344
  315MOL0     H42483   8.075   1.585   6.739  3.0375 -1.3437  1.0218
  315MOL0     H42484   8.142   1.521   6.576 -2.2826 -0.9205 -1.4336
  315MOL0     H42485   7.718   1.443   6.540 -0.8757  1.9893 -0.9847
  315MOL0     H42486   7.535   1.362   6.415  0.7263 -1.4348  1.9256
  315MOL0     H42487   7.555   1.347   6.248 -3.3306  0.4510  1.2509
  315MOL0     H42488   7.597   1.204   6.346 -0.1695  0.4260 -3.7675
  315MOL0     H42489   7.974   1.183   5.838 -1.7588  1.5345  3.8861
  315MOL0     H42490   7.932   1.167   5.587 -0.0859 -1.3242  2.0542
  315MOL0     H42491   7.535   1.354   5.465  0.2245 -1.6377  0.1981
  315MOL0     H42492   7.648   1.468   5.419  1.3651  0.4241  1.7405
  315MOL0     H42493   7.590   1.364   5.198 -0.3749  0.0370  0.1076
  315MOL0     H42494   7.743   1.293   5.240  0.6786 -1.3320  1.5271
  315MOL0     H42495   7.489   1.156   5.306 -1.8019 -3.1114 -3.7687
  315MOL0     H42496   7.665   1.107   5.337  1.5550  4.4852  3.0889
  315MOL0     H42497   7.523   1.133   5.062  1.8454  4.3706 -1.0964
  315MOL0     H42498   7.695   1.130   5.085 -1.3872  2.9732  0.5871
  315MOL0     H42499   7.583   0.925   5.017 -5.3280  0.5621  0.0383
  315MOL0     H42500   7.503   0.920   5.178  0.7820  0.8151  0.2362
  315MOL0     H42501   7.807   0.937   5.133 -2.2586  3.1867 -0.0170
  315MOL0     H42502   7.733   0.895   5.282  2.8824 -1.7936  0.0457
  315MOL0     H42503   7.831   0.684   5.134 -2.0144 -3.0052  1.7259
  315MOL0     H42504   7.738   0.743   5.001 -0.0067 -2.4484 -0.0270
  315MOL0     H42505   7.634   0.557   5.087 -0.7419 -0.0960  0.3263
  315MOL0     H42506   7.529   0.708   5.101  1.3675  1.6245  1.1574
  315MOL0     H42507   7.604   1.436   5.646 -0.3912 -1.2299 -0.6287
  315MOL0     H42508   7.691   1.477   5.902 -1.5756 -0.4195 -0.0624
  315MOL0     H42509   8.041   1.383   6.181  2.4859  0.2936  3.0354
  315MOL0     H42510   8.106   1.507   6.375  0.4924 -1.8202 -0.7788
  315MOL0     H42511   7.476   2.753   6.953 -2.4619 -1.5515 -2.0752
  315MOL0     H42512   7.593   2.940   7.061 -0.1389 -0.0207  0.6328
  315MOL0     H42513   7.461   3.366   7.274  4.8320 -0.1496 -0.8463
  315MOL0     H42514   7.453   3.570   7.422  0.7811 -0.4570 -2.6748
  315MOL0     H42515   7.490   3.494   7.887 -0.0136  0.5726  1.6657
  315MOL0     H42516   7.648   3.535   7.822 -0.3570  0.7425 -3.5206
  315MOL0     H42517   7.602   3.766   7.840 -0.0622  0.4250 -1.0277
  315MOL0     H42518   7.591   3.684   7.998 -2.8344 -0.3555  1.6240
  315MOL0     H42519   7.346   3.750   7.829 -0.8632  0.4344  0.8470
  315MOL0     H42520   7.412   3.853   7.955  1.7218  1.2929 -2.1808
  315MOL0     H42521   7.293   3.576   7.999  1.3151 -0.4183 -1.1352
  315MOL0     H42522   7.226   3.730   8.048  1.4319  4.4997 -2.0926
  315MOL0     H42523   7.533   3.687   8.347  2.1570  1.8316 -1.0830
  315MOL0     H42524   7.520   3.312   7.767 -0.5944 -1.0570  0.5672
  315MOL0     H42525   7.539   3.128   7.619  0.8619  0.2566 -0.7230
  316MOL0     O42526   9.654   4.777   1.951 -0.1241  0.0268 -0.2663
  316MOL0     C42527   9.553   4.749   2.016 -0.5567  0.0824  0.3487
  316MOL0     O42528   9.433   4.708   1.963  0.2186  0.7311 -0.3921
  316MOL0     C42529   9.435   4.659   1.826  0.0906 -0.7703 -0.6447
  316MOL0     C42530   9.395   4.746   1.734 -0.3594  0.1292  0.4725
  316MOL0     C42531   9.390   4.707   1.600  0.8120 -0.3683  0.4663
  316MOL0     C42532   9.432   4.575   1.558  0.4882  0.5205 -0.7496
  316MOL0     O42533   9.412   4.544   1.426 -0.7338  0.8672  0.8594
  316MOL0     C42534   9.520   4.476   1.351  1.0229  0.4190  0.7550
  316MOL0     C42535   9.639   4.552   1.311 -0.5913 -0.2238 -0.1817
  316MOL0     C42536   9.695   4.660   1.410  0.1683  0.3053 -0.0441
  316MOL0     C42537   9.820   4.728   1.363 -0.9598  0.3017  0.8514
  316MOL0     C42538   9.857   4.854   1.440 -0.3242 -0.0384 -1.0571
  316MOL0     C42539   9.960   4.950   1.376 -0.6228 -0.3387 -0.2397
  316MOL0     C42540   9.892   5.048   1.280 -0.4215  0.8438 -0.3340
  316MOL0     C42541   9.994   5.132   1.210 -0.4567 -0.1609  0.7481
  316MOL0     N42542   9.923   5.249   1.150  1.3619 -0.9004 -0.7243
  316MOL0     C42543   9.859   5.350   1.227 -0.1102  0.2988 -0.2040
  316MOL0     C42544   9.788   5.427   1.137 -0.0282 -0.4778  0.0012
  316MOL0     C42545   9.692   5.536   1.163  0.4575 -0.4330 -0.4381
  316MOL0     C42546   9.716   5.585   1.315  0.0443 -0.0312  1.1220
  316MOL0     C42547   9.843   5.659   1.348 -0.2382  0.6016 -0.0626
  316MOL0     C42548   9.816   5.800   1.318  0.1547  0.4703 -0.5294
  316MOL0     O42549   9.927   5.879   1.366 -0.2324  0.3477  0.1323
  316MOL0     C42550   9.909   6.016   1.378  0.3926  0.1888  0.0363
  316MOL0     C42551   9.797   6.081   1.337  0.0345 -0.3631 -0.1807
  316MOL0     C42552   9.772   6.215   1.350 -0.2710  0.0878  0.5229
  316MOL0     C42553   9.628   6.266   1.330 -0.0456 -1.0762  0.6263
  316MOL0     C42554   9.875   6.307   1.394 -0.3422  0.6742  0.2951
  316MOL0     C42555   9.864   6.449   1.422  0.7574 -0.4409 -0.1880
  316MOL0     O42556   9.976   6.514   1.442 -0.4861 -0.2013  0.2870
  316MOL0     C42557   9.968   6.651   1.453 -0.8608 -1.2369  0.0554
  316MOL0     C42558   9.976   6.739   1.342 -0.0274  0.7039 -0.2283
  316MOL0     C42559   9.978   6.882   1.368 -0.1600  1.0423 -0.0847
  316MOL0     C42560   9.967   6.930   1.496  0.2523  0.1466  0.1305
  316MOL0     O42561   9.975   7.062   1.529  0.3180  0.0412 -0.2265
  316MOL0     C42562   9.856   7.135   1.488 -0.5367 -0.7163 -0.5196
  316MOL0     C42563   9.857   7.267   1.572 -0.9257 -1.2832  0.0906
  316MOL0     C42564   9.861   7.240   1.725  0.4129 -0.3858 -0.5136
  316MOL0     C42565   9.894   7.376   1.794  0.1412  0.3656 -0.2241
  316MOL0     C42566   9.887   7.345   1.941 -1.3264 -1.2763  0.0466
  316MOL0     C42567   9.996   7.420   2.029 -1.2439 -0.4707 -0.3174
  316MOL0     C42568  10.007   7.347   2.161 -0.5283  0.1802  0.1292
  316MOL0     C42569  10.089   7.419   2.276 -0.8462  0.0665  1.3295
  316MOL0    Cl42570  10.056   7.319   2.413  0.4090 -0.0374  0.4085
  316MOL0     C42571   9.945   6.836   1.601 -0.0944  0.7266  0.4872
  316MOL0     C42572   9.950   6.696   1.582 -0.0145 -0.2101 -0.8530
  316MOL0     O42573   9.754   6.512   1.403  0.3208 -0.0091 -0.9021
  316MOL0     C42574   9.992   6.245   1.422  0.1515 -0.4913 -0.1022
  316MOL0     C42575  10.019   6.101   1.414  0.2191  0.0139 -0.1849
  316MOL0     N42576   9.814   5.371   1.013 -0.3657 -0.9715 -0.4952
  316MOL0     N42577   9.891   5.264   1.025  0.3879 -0.1485  0.8451
  316MOL0     C42578   9.480   4.491   1.655 -0.9232 -0.3561 -0.5011
  316MOL0     C42579   9.480   4.537   1.791  0.8046 -0.2606 -0.2224
  316MOL0     C42580   9.558   4.749   2.169 -0.6077 -0.0569 -0.7008
  316MOL0     C42581   9.685   4.762   2.233 -0.2630 -0.0078  0.5948
  316MOL0     C42582   9.708   4.740   2.372  0.0705 -0.0766  1.2422
  316MOL0     C42583   9.595   4.700   2.453 -0.6929 -0.8529 -0.7846
  316MOL0     O42584   9.596   4.705   2.593 -0.0668  0.0377  0.1052
  316MOL0     C42585   9.719   4.755   2.651  0.2983 -0.5421  0.2494
  316MOL0     C42586   9.720   4.764   2.803  0.2880  0.8739 -0.6208
  316MOL0     C42587   9.678   4.906   2.855  0.0261  0.2680 -0.0809
  316MOL0     C42588   9.552   4.949   2.798  0.3865 -0.0165  0.0577
  316MOL0     C42589   9.512   5.068   2.864 -0.3974  0.9835 -0.5456
  316MOL0     C42590   9.491   5.168   2.930 -0.2466  0.6490  0.0885
  316MOL0     C42591   9.474   4.685   2.389 -0.6887  0.8243  0.6118
  316MOL0     C42592   9.455   4.710   2.247  0.2410 -0.2485  0.6869
  316MOL0     H42593   9.357   4.846   1.753 -2.2142  0.0649 -2.3132
  316MOL0     H42594   9.371   4.773   1.516  3.8750  0.1495  0.0552
  316MOL0     H42595   9.556   4.391   1.410  2.2612  2.9280  3.8618
  316MOL0     H42596   9.480   4.423   1.263  0.0055  2.0577  0.1935
  316MOL0     H42597   9.719   4.479   1.296  1.7964  2.3159 -0.6071
  316MOL0     H42598   9.620   4.604   1.217 -0.4514  1.8941  0.8865
  316MOL0     H42599   9.614   4.730   1.432 -3.4906 -3.1129 -1.6166
  316MOL0     H42600   9.722   4.619   1.508  0.3531  0.2036 -0.1348
  316MOL0     H42601   9.898   4.653   1.377 -0.4763  0.1961 -1.8373
  316MOL0     H42602   9.819   4.748   1.255  2.9321  3.6342  1.1564
  316MOL0     H42603   9.765   4.908   1.458  0.4580  0.4484  1.9968
  316MOL0     H42604   9.896   4.816   1.535 -0.4108  0.8145 -0.6736
  316MOL0     H42605  10.008   5.013   1.451  0.1414 -1.5503  0.3255
  316MOL0     H42606  10.042   4.899   1.324 -1.3387 -2.2507  0.4043
  316MOL0     H42607   9.823   4.998   1.211 -2.3023 -0.1533  2.0954
  316MOL0     H42608   9.829   5.113   1.342  0.0601  0.3236  0.7186
  316MOL0     H42609  10.042   5.078   1.128  1.9379 -0.0385  1.9907
  316MOL0     H42610  10.076   5.158   1.277  0.8656 -3.8928  0.8359
  316MOL0     H42611   9.867   5.362   1.335  2.0930  1.0986 -0.4073
  316MOL0     H42612   9.701   5.618   1.092  1.5406  1.4616  1.7393
  316MOL0     H42613   9.592   5.493   1.166 -0.2721  1.2568  0.7236
  316MOL0     H42614   9.729   5.496   1.378  1.5203  1.1410  2.5472
  316MOL0     H42615   9.627   5.631   1.357  0.2985 -1.1788  3.0313
  316MOL0     H42616   9.932   5.637   1.287 -0.3179  2.9923 -1.1400
  316MOL0     H42617   9.875   5.648   1.452  0.4830 -1.4988 -0.4543
  316MOL0     H42618   9.726   5.830   1.372 -0.1129  0.6444 -1.0780
  316MOL0     H42619   9.811   5.817   1.211 -1.8505 -1.1025 -0.7421
  316MOL0     H42620   9.714   6.020   1.302  0.1061 -1.4461  1.4581
  316MOL0     H42621   9.623   6.351   1.260 -0.3544 -1.5156  0.1104
  316MOL0     H42622   9.551   6.194   1.300  0.6443 -0.4380 -3.1443
  316MOL0     H42623   9.591   6.298   1.428 -4.9003 -1.0510 -0.9432
  316MOL0     H42624  10.004   6.690   1.249  2.2497  0.6934  0.3993
  316MOL0     H42625   9.992   6.947   1.281  3.1923  0.8164  0.1588
  316MOL0     H42626   9.856   7.158   1.381 -1.7811 -1.0957 -0.6210
  316MOL0     H42627   9.769   7.068   1.495 -0.9786 -0.3025 -1.7693
  316MOL0     H42628   9.955   7.308   1.546  0.3901 -1.5314  3.9268
  316MOL0     H42629   9.771   7.330   1.545 -0.5067 -0.6329  0.2555
  316MOL0     H42630   9.948   7.181   1.753  1.4881  1.4607  0.2403
  316MOL0     H42631   9.775   7.200   1.779  2.1370 -1.6784  1.4237
  316MOL0     H42632   9.990   7.410   1.755 -0.0942 -1.0137 -2.1245
  316MOL0     H42633   9.834   7.466   1.774  0.3947  1.0440  1.8089
  316MOL0     H42634   9.908   7.238   1.946 -0.5962 -1.1375 -0.0328
  316MOL0     H42635   9.787   7.371   1.978  0.0021  1.5494  2.0300
  316MOL0     H42636  10.089   7.407   1.973 -2.8040 -0.1082 -3.2369
  316MOL0     H42637   9.977   7.527   2.038 -2.6733 -0.8105  1.0556
  316MOL0     H42638  10.053   7.251   2.137 -0.3252  0.8811 -2.6039
  316MOL0     H42639   9.907   7.335   2.205  0.2331 -0.8339  1.6977
  316MOL0     H42640  10.037   7.513   2.298 -1.2660 -0.9184  5.1821
  316MOL0     H42641  10.197   7.419   2.258 -1.1752  1.7700 -1.2664
  316MOL0     H42642   9.929   6.849   1.707 -4.3769  0.7188  0.0557
  316MOL0     H42643   9.931   6.634   1.669  0.3599 -0.5533 -1.0141
  316MOL0     H42644  10.077   6.296   1.466  0.5422 -2.2856  1.3404
  316MOL0     H42645  10.118   6.057   1.417  0.0657 -0.2644  1.7669
  316MOL0     H42646   9.497   4.390   1.618 -1.5883  0.9103 -4.7582
  316MOL0     H42647   9.526   4.470   1.863 -1.9285 -3.2953 -1.0330
  316MOL0     H42648   9.764   4.798   2.168 -2.5497  0.4187 -2.1164
  316MOL0     H42649   9.813   4.751   2.397 -0.0364  0.7382  1.3724
  316MOL0     H42650   9.791   4.676   2.626 -0.2581 -0.7386 -0.7670
  316MOL0     H42651   9.745   4.852   2.608 -1.6277  1.0815  2.4773
  316MOL0     H42652   9.822   4.741   2.835 -1.6598 -1.6556  5.0668
  316MOL0     H42653   9.662   4.682   2.845  0.5261  0.3097 -1.3710
  316MOL0     H42654   9.752   4.984   2.837  0.6733 -0.3852 -0.2816
  316MOL0     H42655   9.676   4.897   2.964  1.7099  1.5515  0.0921
  316MOL0     H42656   9.477   4.869   2.796  1.4770 -1.1986  2.2551
  316MOL0     H42657   9.570   4.977   2.694 -2.5292 -0.2244 -0.5908
  316MOL0     H42658   9.474   5.255   2.990  0.7956  0.6169  0.4452
  316MOL0     H42659   9.381   4.656   2.437  0.5251 -3.7935  0.6878
  316MOL0     H42660   9.362   4.689   2.196 -0.5952  2.0179  1.1332
  317MOL0     O42661   4.497  11.056   8.756 -0.0801  0.0440  0.5275
  317MOL0     C42662   4.530  10.977   8.841  0.5349 -0.1815  0.0600
  317MOL0     O42663   4.547  10.839   8.827  0.8878  0.0067 -0.4622
  317MOL0     C42664   4.504  10.765   8.723  0.2170  0.3112  0.6755
  317MOL0     C42665   4.420  10.810   8.618  0.3525  0.7976  0.2218
  317MOL0     C42666   4.387  10.712   8.527  0.0726 -0.1663  0.0879
  317MOL0     C42667   4.428  10.581   8.519 -1.1395 -0.1961 -0.3032
  317MOL0     O42668   4.383  10.506   8.410  0.1211 -0.4688  0.1619
  317MOL0     C42669   4.379  10.360   8.417  0.4759 -0.0537  0.4596
  317MOL0     C42670   4.246  10.294   8.458  0.3176  0.2065  1.3355
  317MOL0     C42671   4.181  10.367   8.572 -0.7099  0.1787  0.0239
  317MOL0     C42672   4.060  10.285   8.612 -0.8282  0.5191 -0.3891
  317MOL0     C42673   3.990  10.353   8.733  0.4145 -1.4828  0.1361
  317MOL0     C42674   3.940  10.268   8.835  0.7073  0.0369  0.0776
  317MOL0     C42675   3.828  10.173   8.804  1.0468 -0.0613 -0.9629
  317MOL0     C42676   3.678  10.234   8.807 -0.9078 -0.2886  0.3171
  317MOL0     N42677   3.580  10.129   8.824 -0.5923  0.1909  0.2598
  317MOL0     C42678   3.489  10.098   8.725  0.0867 -1.2386  0.2729
  317MOL0     C42679   3.414   9.999   8.765 -0.3762  0.6459 -0.2072
  317MOL0     C42680   3.309   9.931   8.689 -0.0731 -0.2482 -0.6542
  317MOL0     C42681   3.337   9.785   8.673 -0.4601 -0.3818 -0.2218
  317MOL0     C42682   3.319   9.703   8.799  0.6053  1.0624 -0.5263
  317MOL0     C42683   3.313   9.555   8.767 -0.5880  0.6122 -1.2532
  317MOL0     O42684   3.262   9.494   8.886 -0.7241 -0.3642 -0.3854
  317MOL0     C42685   3.236   9.358   8.891 -0.3886 -0.3558 -0.3396
  317MOL0     C42686   3.159   9.306   8.996  0.5807  0.0234 -0.3269
  317MOL0     C42687   3.117   9.172   9.000  0.0524  0.4149  0.2326
  317MOL0     C42688   3.029   9.135   9.117 -0.2918  0.5495  0.1565
  317MOL0     C42689   3.153   9.081   8.893 -0.2910  0.2396  0.4708
  317MOL0     C42690   3.114   8.941   8.880 -0.2394 -0.8218 -0.6767
  317MOL0     O42691   2.999   8.912   8.946  0.3975 -0.4219  0.5408
  317MOL0     C42692   2.940   8.788   8.928 -0.6079 -0.9170 -1.3066
  317MOL0     C42693   2.976   8.676   8.997 -0.5002 -0.1645  0.2646
  317MOL0     C42694   2.925   8.551   8.962 -0.3119  0.8392  0.7507
  317MOL0     C42695   2.828   8.535   8.863 -0.0278 -0.4963  0.0925
  317MOL0     O42696   2.776   8.421   8.818  0.2720 -0.9444  0.0276
  317MOL0     C42697   2.803   8.295   8.879  0.7153  0.2171  0.0559
  317MOL0     C42698   2.854   8.207   8.759  0.5055  1.3948 -0.6211
  317MOL0     C42699   2.741   8.182   8.651 -0.5646 -0.3457 -0.0676
  317MOL0     C42700   2.777   8.055   8.572  0.4151  0.1176  0.2540
  317MOL0     C42701   2.721   7.931   8.638  0.4266  0.3023 -0.6064
  317MOL0     C42702   2.733   7.806   8.558  0.3423  0.0879  0.9457
  317MOL0     C42703   2.879   7.785   8.510  0.4498 -0.2450  0.0175
  317MOL0     C42704   2.884   7.659   8.417  0.9489 -0.3804 -0.6930
  317MOL0    Cl42705   2.819   7.518   8.482  0.3937 -0.1038 -0.1938
  317MOL0     C42706   2.781   8.654   8.801 -0.2186  0.8654  0.1561
  317MOL0     C42707   2.826   8.783   8.841  0.0712 -0.4176  0.4352
  317MOL0     O42708   3.184   8.862   8.830  0.0559  0.0874  0.5133
  317MOL0     C42709   3.251   9.127   8.805  0.7417  0.2981 -0.3261
  317MOL0     C42710   3.296   9.265   8.810 -0.0146 -0.0310  0.0535
  317MOL0     N42711   3.466   9.966   8.894 -0.0051  1.0773  0.3324
  317MOL0     N42712   3.569  10.033   8.922 -0.2446 -0.4670 -0.3160
  317MOL0     C42713   4.512  10.539   8.622  0.6973  0.0001 -0.4791
  317MOL0     C42714   4.542  10.631   8.727 -0.7321  0.9806  0.0621
  317MOL0     C42715   4.533  11.041   8.981 -1.0874 -0.2049  0.3169
  317MOL0     C42716   4.613  10.975   9.074  0.2626  1.2591  0.1703
  317MOL0     C42717   4.635  11.022   9.202 -0.4032 -1.0670  0.2918
  317MOL0     C42718   4.572  11.135   9.248 -0.1202  1.1701  0.3792
  317MOL0     O42719   4.622  11.188   9.359  0.1160 -0.4674 -0.7580
  317MOL0     C42720   4.606  11.328   9.384 -0.1921 -0.7627 -0.3541
  317MOL0     C42721   4.663  11.364   9.512 -0.7403  0.0448 -0.8885
  317MOL0     C42722   4.814  11.340   9.525  0.1464  0.2860  0.2216
  317MOL0     C42723   4.875  11.414   9.642  1.0165  0.9922 -0.6335
  317MOL0     C42724   4.884  11.555   9.636  0.2394 -0.2755  0.3131
  317MOL0     C42725   4.866  11.675   9.612  1.3182  0.1705  0.1048
  317MOL0     C42726   4.494  11.206   9.154 -0.1127 -0.0966  0.5786
  317MOL0     C42727   4.469  11.158   9.020 -0.4881 -0.4051 -1.2067
  317MOL0     H42728   4.376  10.909   8.607 -0.0109  0.5436 -0.7956
  317MOL0     H42729   4.328  10.744   8.442  0.4096 -0.2163 -0.1667
  317MOL0     H42730   4.395  10.320   8.316  2.6931 -1.2968  1.2298
  317MOL0     H42731   4.462  10.317   8.474 -0.5714  1.3353  3.1864
  317MOL0     H42732   4.176  10.288   8.374  1.5829 -1.2337  0.3205
  317MOL0     H42733   4.283  10.195   8.486  1.0671  0.3681  0.9485
  317MOL0     H42734   4.256  10.373   8.652  1.0539  0.7578 -1.6065
  317MOL0     H42735   4.161  10.474   8.559  3.4546  2.0777  5.4326
  317MOL0     H42736   3.984  10.281   8.534 -0.9794  3.0490 -0.4768
  317MOL0     H42737   4.095  10.185   8.637 -1.2698  0.2553 -0.8108
  317MOL0     H42738   4.065  10.416   8.783  1.5903 -0.2509 -2.8779
  317MOL0     H42739   3.906  10.406   8.687 -0.4904 -2.2595  0.8759
  317MOL0     H42740   4.025  10.215   8.881  2.3036  2.3344 -0.0568
  317MOL0     H42741   3.914  10.330   8.921  2.4040  2.4780 -1.0569
  317MOL0     H42742   3.850  10.122   8.710  1.5986  1.1225 -1.4902
  317MOL0     H42743   3.811  10.114   8.894 -0.2467  1.2924 -0.2898
  317MOL0     H42744   3.658  10.297   8.720 -0.4234  2.7813  2.2444
  317MOL0     H42745   3.674  10.302   8.893 -2.7617  1.5170 -1.0986
  317MOL0     H42746   3.490  10.124   8.620 -0.1703  0.6716  0.7070
  317MOL0     H42747   3.214   9.942   8.742 -0.1369  2.1455 -1.1676
  317MOL0     H42748   3.309   9.964   8.585  4.0473 -0.3159 -0.8543
  317MOL0     H42749   3.439   9.775   8.633 -0.0505 -0.9083  0.9101
  317MOL0     H42750   3.270   9.756   8.592 -0.9389 -0.3278  0.1539
  317MOL0     H42751   3.223   9.740   8.838  0.0540  0.4838 -1.2793
  317MOL0     H42752   3.397   9.711   8.875  0.5903 -2.0065 -0.0706
  317MOL0     H42753   3.416   9.523   8.748 -0.6706 -1.9034  1.6849
  317MOL0     H42754   3.246   9.543   8.681 -1.2953 -0.0074 -0.6270
  317MOL0     H42755   3.127   9.387   9.061  1.7094 -0.1684  0.4748
  317MOL0     H42756   3.051   9.209   9.194  1.4668 -0.1879  0.4121
  317MOL0     H42757   2.925   9.153   9.090  0.0816  4.1430  0.6821
  317MOL0     H42758   3.053   9.039   9.164 -0.3549 -1.4114 -3.4155
  317MOL0     H42759   3.063   8.684   9.062 -0.7269  1.0450  0.4474
  317MOL0     H42760   2.956   8.465   9.021  1.5300 -0.0838 -1.4540
  317MOL0     H42761   2.867   8.296   8.968 -3.8035 -2.7309  3.8132
  317MOL0     H42762   2.708   8.257   8.917  1.6503 -0.9726  1.2957
  317MOL0     H42763   2.948   8.254   8.730  0.5426  3.5675  2.4784
  317MOL0     H42764   2.876   8.107   8.795 -0.5052 -0.0167 -3.6040
  317MOL0     H42765   2.738   8.271   8.588 -0.5286 -0.1708  0.1757
  317MOL0     H42766   2.639   8.175   8.691 -1.3362  0.3474 -1.8417
  317MOL0     H42767   2.743   8.071   8.469  0.2089  1.7222  0.5457
  317MOL0     H42768   2.886   8.047   8.563  0.2497 -1.0375 -1.1366
  317MOL0     H42769   2.623   7.947   8.684  1.3052  0.0380  1.4434
  317MOL0     H42770   2.776   7.906   8.728  0.1608  4.0466  0.7458
  317MOL0     H42771   2.702   7.715   8.611 -0.3926  0.8643  1.8972
  317MOL0     H42772   2.673   7.816   8.468 -0.8457 -0.1002  1.6992
  317MOL0     H42773   2.949   7.781   8.594  2.9657 -2.2286 -2.0073
  317MOL0     H42774   2.904   7.865   8.439 -1.3642 -0.2290 -0.6580
  317MOL0     H42775   2.990   7.640   8.401  1.2070 -0.2715  0.7384
  317MOL0     H42776   2.843   7.686   8.319 -2.1322 -1.4605  0.1661
  317MOL0     H42777   2.711   8.635   8.720  1.7094 -4.2091 -0.6623
  317MOL0     H42778   2.794   8.877   8.797 -3.5928 -2.1637 -0.9701
  317MOL0     H42779   3.300   9.058   8.737  4.0138  3.4581 -1.5570
  317MOL0     H42780   3.382   9.301   8.754  1.4989  1.3615  3.0529
  317MOL0     H42781   4.553  10.440   8.631  0.5754  0.1112  4.6403
  317MOL0     H42782   4.592  10.598   8.818  1.3055  1.6679 -0.7432
  317MOL0     H42783   4.658  10.883   9.037 -2.6341  0.4877 -1.7628
  317MOL0     H42784   4.698  10.977   9.279 -2.7779  1.7648  4.2669
  317MOL0     H42785   4.670  11.387   9.319  0.7829  1.8192  2.6618
  317MOL0     H42786   4.503  11.364   9.379  0.3206  1.2197  1.5527
  317MOL0     H42787   4.628  11.301   9.595  0.1456  0.0605 -0.4896
  317MOL0     H42788   4.638  11.468   9.532  1.1809  0.3649  0.0795
  317MOL0     H42789   4.859  11.370   9.430 -0.4879  1.2998  0.2235
  317MOL0     H42790   4.829  11.233   9.544 -1.0668 -0.0299 -0.5168
  317MOL0     H42791   4.971  11.365   9.659  0.8249  1.4441  2.3043
  317MOL0     H42792   4.816  11.397   9.732 -0.0467  0.9751 -1.3070
  317MOL0     H42793   4.826  11.774   9.601  1.8397  0.2038 -1.8688
  317MOL0     H42794   4.459  11.307   9.172  1.0405  0.2678  0.8476
  317MOL0     H42795   4.405  11.212   8.951 -1.9030  0.6471  0.8671
  318MOL0     O42796   9.410   6.755   2.625 -0.2627  0.4001  0.9168
  318MOL0     C42797   9.470   6.859   2.622 -0.3794  0.4225 -0.4221
  318MOL0     O42798   9.413   6.981   2.638  0.0372  0.9850  0.0475
  318MOL0     C42799   9.281   6.994   2.661  0.0159 -0.0304  0.4303
  318MOL0     C42800   9.235   6.968   2.791 -0.0924 -0.2570  0.1755
  318MOL0     C42801   9.105   7.003   2.825  0.7563 -0.5721 -0.1866
  318MOL0     C42802   9.020   7.058   2.732 -0.3705 -0.2461  0.1373
  318MOL0     O42803   8.879   7.088   2.757 -0.0961 -0.8335  0.8278
  318MOL0     C42804   8.812   6.967   2.802 -0.5769 -0.6657  0.3674
  318MOL0     C42805   8.712   7.002   2.908  0.7204 -0.5252 -0.0580
  318MOL0     C42806   8.777   7.056   3.037 -0.1836 -1.1957 -0.0311
  318MOL0     C42807   8.664   7.120   3.122 -0.6793  0.8253 -0.2027
  318MOL0     C42808   8.722   7.143   3.262 -0.0732 -0.5624 -0.1051
  318MOL0     C42809   8.614   7.139   3.372  0.4335  1.0623  0.3467
  318MOL0     C42810   8.683   7.176   3.504  0.1499 -0.3582 -0.1097
  318MOL0     C42811   8.590   7.123   3.622 -0.2410  0.7075  1.0993
  318MOL0     N42812   8.615   7.180   3.757 -0.2777 -0.0343  0.2844
  318MOL0     C42813   8.603   7.317   3.784 -0.4257 -0.6008  0.4605
  318MOL0     C42814   8.611   7.321   3.927  0.5092  0.2863 -0.6325
  318MOL0     C42815   8.591   7.442   4.016  0.9185  0.6406 -0.6712
  318MOL0     C42816   8.598   7.576   3.943  0.2649 -0.5215 -0.0112
  318MOL0     C42817   8.555   7.691   4.033  0.7567  0.4862  0.3621
  318MOL0     C42818   8.585   7.830   3.971 -0.0102  0.4107 -0.5227
  318MOL0     O42819   8.716   7.834   3.914 -0.3013  0.4129  0.0848
  318MOL0     C42820   8.812   7.918   3.982  0.1878  0.4330  0.0366
  318MOL0     C42821   8.884   7.864   4.092 -0.1437  0.2666 -0.1980
  318MOL0     C42822   8.976   7.941   4.168 -0.1319 -0.0077  0.0839
  318MOL0     C42823   9.053   7.876   4.278  0.4877 -0.3139  0.3088
  318MOL0     C42824   8.989   8.083   4.145 -0.1064 -0.1807 -0.1874
  318MOL0     C42825   9.069   8.175   4.235 -0.1446 -0.0273  0.0062
  318MOL0     O42826   9.083   8.142   4.368 -0.0793  0.3323  0.9228
  318MOL0     C42827   9.167   8.214   4.445  0.5809  0.4036 -0.4228
  318MOL0     C42828   9.111   8.302   4.545  0.0842 -0.1375  0.0969
  318MOL0     C42829   9.195   8.388   4.613  0.0550  0.0108  0.0793
  318MOL0     C42830   9.326   8.383   4.593 -0.7365  0.2589  1.0667
  318MOL0     O42831   9.396   8.481   4.661  0.2437  0.2322 -0.4759
  318MOL0     C42832   9.541   8.478   4.670  0.0993 -1.0205 -1.0084
  318MOL0     C42833   9.601   8.606   4.735  0.1432  0.4483  0.4987
  318MOL0     C42834   9.754   8.594   4.727  0.9522  0.7675 -0.8159
  318MOL0     C42835   9.795   8.717   4.798 -0.2851  0.4386  0.9895
  318MOL0     C42836   9.946   8.702   4.805 -0.0112 -0.1408 -0.0644
  318MOL0     C42837  10.005   8.835   4.840  0.0224 -0.2499 -0.0124
  318MOL0     C42838  10.145   8.824   4.902  0.5492  0.0683  0.0618
  318MOL0     C42839  10.241   8.735   4.820 -0.1420 -0.2022 -0.1681
  318MOL0    Cl42840  10.413   8.767   4.862 -0.0606  0.1039 -0.2064
  318MOL0     C42841   9.388   8.291   4.500  0.5221  0.5372  0.3511
  318MOL0     C42842   9.302   8.207   4.428 -0.1126  0.2515 -0.9543
  318MOL0     O42843   9.113   8.275   4.183 -1.0129 -0.5774 -0.4892
  318MOL0     C42844   8.916   8.136   4.037 -0.2536  0.0243  0.4693
  318MOL0     C42845   8.830   8.057   3.960  0.3127  0.8209  0.1448
  318MOL0     N42846   8.612   7.192   3.973  0.5015  0.0376  0.3068
  318MOL0     N42847   8.597   7.114   3.871 -0.6687 -1.4024  0.6634
  318MOL0     C42848   9.057   7.079   2.601  0.0625  1.1061 -0.3203
  318MOL0     C42849   9.194   7.055   2.565 -0.6656  0.3388  0.2362
  318MOL0     C42850   9.618   6.854   2.596 -0.0881  0.1057  0.1020
  318MOL0     C42851   9.686   6.961   2.549 -0.1283 -1.1233 -1.1099
  318MOL0     C42852   9.825   6.969   2.527 -0.4615  0.2765  0.0187
  318MOL0     C42853   9.898   6.854   2.572  0.0573 -0.3696 -0.7095
  318MOL0     O42854  10.035   6.846   2.562 -0.4691 -0.0840  0.2529
  318MOL0     C42855  10.111   6.964   2.514 -0.0144 -0.0965 -0.0403
  318MOL0     C42856  10.135   7.073   2.619 -0.4708 -0.1676  0.8480
  318MOL0     C42857  10.229   7.057   2.739 -0.4386  0.2467  0.2726
  318MOL0     C42858  10.183   6.947   2.829  0.5668 -0.3681 -0.1388
  318MOL0     C42859  10.247   6.961   2.955 -0.3328 -0.3031 -0.8018
  318MOL0     C42860  10.300   6.957   3.064 -1.6326  0.0360 -0.4071
  318MOL0     C42861   9.832   6.737   2.611  0.0568 -0.2723 -0.2747
  318MOL0     C42862   9.689   6.741   2.628 -0.1610 -1.3595 -0.4113
  318MOL0     H42863   9.316   6.937   2.856  0.7326 -0.6205 -0.9912
  318MOL0     H42864   9.079   6.997   2.931  1.1193 -0.1285 -0.0684
  318MOL0     H42865   8.768   6.917   2.716  0.8637  2.9945 -2.8061
  318MOL0     H42866   8.881   6.892   2.843 -1.3395 -1.1777  0.7434
  318MOL0     H42867   8.654   7.085   2.867 -1.8837  0.8715  5.4495
  318MOL0     H42868   8.628   6.936   2.930 -1.5262  2.3442  0.6739
  318MOL0     H42869   8.823   6.971   3.087 -0.5677 -0.9074  0.8307
  318MOL0     H42870   8.849   7.136   3.021 -2.8432  1.1672 -1.1262
  318MOL0     H42871   8.623   7.212   3.079 -1.8411  0.7678  0.7250
  318MOL0     H42872   8.581   7.048   3.128 -0.4525  0.6303  0.7100
  318MOL0     H42873   8.798   7.067   3.281  0.1585 -0.4181 -0.4583
  318MOL0     H42874   8.773   7.239   3.267 -1.0406 -0.0860  0.8516
  318MOL0     H42875   8.539   7.216   3.352 -1.1477 -1.1371 -3.1562
  318MOL0     H42876   8.572   7.037   3.375  2.4113  0.1828 -0.6447
  318MOL0     H42877   8.785   7.138   3.513  0.9236  1.7867  0.7207
  318MOL0     H42878   8.689   7.285   3.494 -0.8189 -0.3170 -0.3797
  318MOL0     H42879   8.609   7.016   3.624 -4.3195 -0.3560 -2.4478
  318MOL0     H42880   8.482   7.119   3.607 -0.2179  0.0928  1.0931
  318MOL0     H42881   8.603   7.407   3.724  4.7266 -2.0355 -2.3151
  318MOL0     H42882   8.496   7.426   4.066  0.8929  1.7625 -0.3304
  318MOL0     H42883   8.664   7.437   4.098  0.6208  0.5039 -0.4135
  318MOL0     H42884   8.530   7.553   3.861 -0.8078 -3.0567  1.4771
  318MOL0     H42885   8.699   7.583   3.903 -0.3285  0.8647 -1.3671
  318MOL0     H42886   8.603   7.698   4.131  3.9250  5.0022 -1.1810
  318MOL0     H42887   8.448   7.678   4.049  0.4476 -0.0281 -1.7826
  318MOL0     H42888   8.570   7.907   4.048  1.1378 -0.3937  0.5355
  318MOL0     H42889   8.504   7.857   3.902 -0.5320 -0.0702 -0.1131
  318MOL0     H42890   8.857   7.762   4.114 -1.7280  0.5936 -0.4862
  318MOL0     H42891   9.067   7.769   4.258 -1.3886 -0.8842  1.6876
  318MOL0     H42892   9.152   7.921   4.294  1.1078 -1.9839  1.4575
  318MOL0     H42893   9.000   7.893   4.372 -0.3364  0.3755 -0.2628
  318MOL0     H42894   9.003   8.314   4.552  0.3820  2.7971  1.3039
  318MOL0     H42895   9.171   8.452   4.697  2.7435  0.4223  0.6297
  318MOL0     H42896   9.576   8.393   4.731 -0.2184 -0.4869 -0.0693
  318MOL0     H42897   9.588   8.469   4.572  1.3153 -1.9325 -0.3879
  318MOL0     H42898   9.576   8.686   4.665 -0.7954 -1.3494 -1.3359
  318MOL0     H42899   9.565   8.609   4.839 -1.7539 -1.1345 -0.0644
  318MOL0     H42900   9.795   8.596   4.626  1.0099 -2.1241 -0.9485
  318MOL0     H42901   9.794   8.509   4.783  2.4064  0.8969 -1.6341
  318MOL0     H42902   9.763   8.799   4.733  2.2726 -0.1499 -1.2150
  318MOL0     H42903   9.764   8.721   4.902 -2.1667  3.2541  0.4178
  318MOL0     H42904   9.992   8.661   4.715  0.3526 -1.4305  0.6874
  318MOL0     H42905   9.967   8.631   4.885 -4.2542 -1.0592  0.4726
  318MOL0     H42906  10.009   8.896   4.750 -3.0748  0.4083  0.1922
  318MOL0     H42907   9.933   8.887   4.904 -0.6582  0.0842 -1.0280
  318MOL0     H42908  10.151   8.785   5.004  2.0179 -0.3147 -0.1504
  318MOL0     H42909  10.189   8.923   4.915  0.6668 -0.1047  1.0927
  318MOL0     H42910  10.243   8.757   4.713  4.8051  1.1854 -0.0034
  318MOL0     H42911  10.221   8.628   4.832 -0.4640 -0.6786 -3.7092
  318MOL0     H42912   9.493   8.296   4.475  0.6398 -2.2759 -0.0921
  318MOL0     H42913   9.336   8.145   4.346 -0.0238  0.5868 -1.1732
  318MOL0     H42914   8.954   8.232   4.003  1.2499 -0.8859 -0.6002
  318MOL0     H42915   8.773   8.102   3.880  1.4829 -2.5156 -2.8629
  318MOL0     H42916   8.982   7.109   2.528 -0.8703 -0.7326 -0.1846
  318MOL0     H42917   9.232   7.073   2.465 -2.2074 -0.6060 -0.5540
  318MOL0     H42918   9.634   7.050   2.516  1.0137 -0.6791 -1.7607
  318MOL0     H42919   9.879   7.050   2.481 -0.7005  0.5293  0.1805
  318MOL0     H42920  10.207   6.923   2.482  0.8883 -0.1532  2.4930
  318MOL0     H42921  10.064   7.010   2.427  0.4943 -0.7421 -0.6640
  318MOL0     H42922  10.034   7.110   2.640 -0.0849  2.7747 -1.7485
  318MOL0     H42923  10.180   7.154   2.561  0.6951 -0.4832  1.2885
  318MOL0     H42924  10.241   7.155   2.786  1.0257  0.3062 -0.1848
  318MOL0     H42925  10.326   7.030   2.696  0.4564  4.0774 -0.4940
  318MOL0     H42926  10.198   6.846   2.790 -1.0007 -1.3532  1.6250
  318MOL0     H42927  10.074   6.943   2.841  0.6642 -1.2801  0.5594
  318MOL0     H42928  10.355   6.954   3.156  4.3897  0.5289 -3.4947
  318MOL0     H42929   9.890   6.646   2.621 -0.5373 -0.6859 -0.5384
  318MOL0     H42930   9.650   6.651   2.674  0.1815 -1.0599  0.4960
  319MOL0     O42931   5.587   9.521   3.672 -0.6541  0.0745 -0.8244
  319MOL0     C42932   5.481   9.478   3.630 -0.5126 -0.2107 -0.3114
  319MOL0     O42933   5.376   9.443   3.709  0.1140  0.0677 -1.2275
  319MOL0     C42934   5.362   9.482   3.841 -0.3035 -0.6005  0.2967
  319MOL0     C42935   5.382   9.619   3.878 -0.3973  0.8930 -0.2613
  319MOL0     C42936   5.336   9.652   4.001 -0.3287 -0.7777 -0.2027
  319MOL0     C42937   5.303   9.556   4.098 -0.6299  0.3385  0.3031
  319MOL0     O42938   5.284   9.598   4.231 -0.2517 -0.0180  0.3458
  319MOL0     C42939   5.415   9.629   4.282 -0.2604  0.3684  0.5905
  319MOL0     C42940   5.383   9.671   4.428 -0.0966  0.1011  0.2634
  319MOL0     C42941   5.501   9.719   4.502  0.2170 -0.5671 -0.0057
  319MOL0     C42942   5.573   9.588   4.554  0.7920 -0.0085  0.0676
  319MOL0     C42943   5.711   9.613   4.610 -0.3748 -0.1412  0.1052
  319MOL0     C42944   5.800   9.489   4.638 -0.3229 -0.2907 -0.0570
  319MOL0     C42945   5.936   9.548   4.699  0.3159  0.1483  0.6407
  319MOL0     C42946   6.018   9.655   4.621  0.1021 -0.3540 -0.5678
  319MOL0     N42947   6.154   9.692   4.663 -0.1641 -0.1089  0.1526
  319MOL0     C42948   6.256   9.670   4.578 -0.0285 -0.1177  0.2772
  319MOL0     C42949   6.366   9.724   4.638  0.4995  0.8310  0.3875
  319MOL0     C42950   6.516   9.697   4.599 -0.8902  0.0771 -0.1457
  319MOL0     C42951   6.610   9.699   4.719  0.4961 -0.1830 -0.2184
  319MOL0     C42952   6.765   9.687   4.679 -0.5333  0.3846  0.1707
  319MOL0     C42953   6.796   9.551   4.603 -0.1408 -0.2710 -0.4125
  319MOL0     O42954   6.938   9.557   4.566 -0.1060  0.6175 -0.5810
  319MOL0     C42955   7.030   9.521   4.655 -0.0528 -0.7041 -0.0547
  319MOL0     C42956   6.995   9.489   4.791  0.4044  0.5466  1.7712
  319MOL0     C42957   7.089   9.453   4.888  0.5840 -0.3973  0.0680
  319MOL0     C42958   7.038   9.433   5.035  0.3337 -0.3863  0.8853
  319MOL0     C42959   7.228   9.458   4.850  0.7675 -0.1885 -0.4871
  319MOL0     C42960   7.335   9.432   4.946 -0.2550 -0.2564 -0.7665
  319MOL0     O42961   7.308   9.355   5.058  0.3552  0.4526 -0.2628
  319MOL0     C42962   7.416   9.319   5.141  0.3221  0.8376  0.4104
  319MOL0     C42963   7.425   9.369   5.274  0.3040 -0.9305 -0.9313
  319MOL0     C42964   7.526   9.312   5.355  0.0334 -0.2073  0.3255
  319MOL0     C42965   7.619   9.217   5.303  0.3112 -0.6939  0.3369
  319MOL0     O42966   7.721   9.172   5.384 -0.0870 -0.8556  0.3705
  319MOL0     C42967   7.773   9.039   5.359 -0.9481  0.0103 -0.5520
  319MOL0     C42968   7.919   9.046   5.309 -0.3280 -0.7374 -0.6357
  319MOL0     C42969   7.979   8.911   5.320  0.4608 -0.2815  0.4180
  319MOL0     C42970   8.110   8.912   5.255 -0.1200 -0.3388  0.4264
  319MOL0     C42971   8.160   8.775   5.241 -0.4164 -0.1610 -0.2456
  319MOL0     C42972   8.237   8.726   5.362  0.3735  0.0979  0.2492
  319MOL0     C42973   8.325   8.602   5.318  0.1832  0.4501 -0.7890
  319MOL0     C42974   8.350   8.494   5.433  0.5342 -0.0147  0.0154
  319MOL0    Cl42975   8.205   8.394   5.440  0.3022  0.7135 -0.7185
  319MOL0     C42976   7.612   9.183   5.170  0.6635  0.4942  0.2546
  319MOL0     C42977   7.514   9.233   5.095  0.5787 -0.1046  0.5836
  319MOL0     O42978   7.441   9.502   4.923  0.5382 -0.0750 -0.4044
  319MOL0     C42979   7.265   9.494   4.720  0.4856 -0.0005 -0.9972
  319MOL0     C42980   7.168   9.531   4.624 -0.3225  0.7419  0.3001
  319MOL0     N42981   6.317   9.801   4.748 -0.5829  0.5655 -0.0368
  319MOL0     N42982   6.191   9.780   4.762 -0.1294  0.3549  0.0575
  319MOL0     C42983   5.286   9.421   4.062  0.1428  0.3148  0.2693
  319MOL0     C42984   5.307   9.388   3.927  0.0812  0.1283 -0.1722
  319MOL0     C42985   5.463   9.453   3.488  0.2853  0.5765  0.0286
  319MOL0     C42986   5.331   9.440   3.437  0.0301 -0.2986 -0.0283
  319MOL0     C42987   5.306   9.402   3.304 -0.2711 -0.9363  0.5880
  319MOL0     C42988   5.417   9.367   3.229  0.5748  0.1451 -0.3794
  319MOL0     O42989   5.423   9.309   3.097  0.4651 -0.2868 -0.3041
  319MOL0     C42990   5.293   9.327   3.043  0.0642  0.0096  0.7578
  319MOL0     C42991   5.275   9.251   2.910  0.4296 -0.8319  0.2264
  319MOL0     C42992   5.131   9.243   2.861  0.7829 -0.0554  0.3919
  319MOL0     C42993   5.098   9.218   2.708 -0.5913 -0.5946  0.6017
  319MOL0     C42994   5.186   9.107   2.656  0.1199  0.6373 -0.4343
  319MOL0     C42995   5.240   9.010   2.613  0.4066 -0.3781  0.0489
  319MOL0     C42996   5.548   9.369   3.286  1.0666 -0.9884  0.4737
  319MOL0     C42997   5.572   9.420   3.411 -0.9739  0.4266  0.0916
  319MOL0     H42998   5.428   9.687   3.807 -1.3290 -0.3311 -2.1103
  319MOL0     H42999   5.351   9.756   4.030  0.1137 -0.2668 -2.1480
  319MOL0     H43000   5.480   9.541   4.270 -0.6240 -0.0268  1.4208
  319MOL0     H43001   5.466   9.710   4.231 -2.1167  0.3867 -1.3880
  319MOL0     H43002   5.313   9.756   4.432 -1.2909 -0.8887  1.0974
  319MOL0     H43003   5.343   9.582   4.477 -0.3435  1.1469  2.0606
  319MOL0     H43004   5.571   9.785   4.450  2.9929 -1.1150  2.7407
  319MOL0     H43005   5.447   9.769   4.583 -0.0730 -1.6707  0.4964
  319MOL0     H43006   5.515   9.532   4.627  0.4598 -0.0452 -0.2207
  319MOL0     H43007   5.579   9.522   4.466 -0.2278  1.9643 -1.5736
  319MOL0     H43008   5.767   9.671   4.536 -2.6819 -0.3625 -1.9649
  319MOL0     H43009   5.697   9.664   4.706 -1.8459 -1.3598  0.5687
  319MOL0     H43010   5.753   9.440   4.724 -0.2476  2.4494  1.6562
  319MOL0     H43011   5.817   9.417   4.558 -2.9029 -1.1795  0.1111
  319MOL0     H43012   5.915   9.599   4.794 -0.0532  0.4399  0.4077
  319MOL0     H43013   6.000   9.466   4.733 -0.7035 -1.3585 -0.9136
  319MOL0     H43014   5.964   9.749   4.633 -0.5509 -0.8873  0.8459
  319MOL0     H43015   6.023   9.624   4.516  0.6491  1.4339 -1.1191
  319MOL0     H43016   6.259   9.612   4.485  0.3549 -2.3400  1.5929
  319MOL0     H43017   6.519   9.603   4.544 -3.6981  1.2394 -2.5223
  319MOL0     H43018   6.556   9.769   4.528 -1.8212  0.6535 -0.1024
  319MOL0     H43019   6.595   9.613   4.786  2.3483  0.5817  1.2585
  319MOL0     H43020   6.593   9.796   4.767  1.8640  1.3554 -2.6510
  319MOL0     H43021   6.833   9.707   4.762  0.8712 -0.4619 -0.7274
  319MOL0     H43022   6.789   9.770   4.611  0.6984  0.4841  0.6996
  319MOL0     H43023   6.744   9.549   4.507 -0.3633  2.3652 -0.4211
  319MOL0     H43024   6.759   9.461   4.653 -0.5812 -1.2883 -2.4753
  319MOL0     H43025   6.895   9.480   4.832  0.5992  1.1099  2.3964
  319MOL0     H43026   7.025   9.327   5.057 -1.9904 -0.9543 -2.4551
  319MOL0     H43027   7.106   9.479   5.108  1.3451  1.8675 -1.3302
  319MOL0     H43028   6.938   9.474   5.052 -0.3177 -2.0823  1.3377
  319MOL0     H43029   7.342   9.434   5.302 -0.3204 -0.6470 -3.2736
  319MOL0     H43030   7.547   9.359   5.451  1.0321 -0.3219  0.1758
  319MOL0     H43031   7.763   8.982   5.451 -0.7452 -1.1227 -1.2067
  319MOL0     H43032   7.718   8.993   5.276  1.3502  2.1220 -3.5086
  319MOL0     H43033   7.911   9.083   5.207 -3.6885 -1.0385 -0.5802
  319MOL0     H43034   7.987   9.112   5.363  1.6654 -0.5109 -3.2564
  319MOL0     H43035   7.915   8.830   5.283 -1.7474  0.3026  2.6900
  319MOL0     H43036   7.992   8.880   5.425  1.4207 -1.4111 -0.0120
  319MOL0     H43037   8.114   8.962   5.158 -2.0094  2.1160  1.4793
  319MOL0     H43038   8.185   8.974   5.306  2.9177 -3.7119  0.4801
  319MOL0     H43039   8.242   8.776   5.168  3.2603 -2.3442  3.3640
  319MOL0     H43040   8.076   8.709   5.220 -0.0439 -1.4869  2.0748
  319MOL0     H43041   8.301   8.803   5.405  3.2335 -0.7968 -2.1331
  319MOL0     H43042   8.157   8.707   5.435 -0.1369  0.9862 -0.0600
  319MOL0     H43043   8.414   8.654   5.281  0.0377  1.3568  0.0878
  319MOL0     H43044   8.277   8.554   5.232  0.8270  2.1093 -2.1332
  319MOL0     H43045   8.360   8.540   5.532 -2.6101  0.4747  0.1943
  319MOL0     H43046   8.436   8.433   5.402  0.6857  0.1186  0.1728
  319MOL0     H43047   7.684   9.115   5.126 -1.2486 -0.5722 -1.4178
  319MOL0     H43048   7.502   9.196   4.993  1.6168 -0.1330  0.4643
  319MOL0     H43049   7.371   9.510   4.703  0.2376  1.1698 -1.5277
  319MOL0     H43050   7.206   9.564   4.528  2.1951  3.4997  2.0712
  319MOL0     H43051   5.235   9.361   4.137  0.8085  1.0679  1.3437
  319MOL0     H43052   5.264   9.296   3.890 -1.0292 -0.7365  2.9954
  319MOL0     H43053   5.250   9.467   3.505 -1.0156  0.6111 -1.5746
  319MOL0     H43054   5.200   9.394   3.279 -0.8656  1.5893  1.9157
  319MOL0     H43055   5.208   9.283   3.097 -0.8089 -0.9762 -1.3160
  319MOL0     H43056   5.282   9.434   3.022 -0.4019 -0.2028 -0.1422
  319MOL0     H43057   5.309   9.148   2.927  2.8258 -0.0763  0.3960
  319MOL0     H43058   5.344   9.309   2.847  1.8774 -0.7575  1.8030
  319MOL0     H43059   5.077   9.335   2.886  0.3296  0.3412 -1.8046
  319MOL0     H43060   5.081   9.167   2.921  1.0779 -0.6181 -0.0708
  319MOL0     H43061   5.110   9.309   2.648  0.4921  0.4068  2.2634
  319MOL0     H43062   4.995   9.185   2.693 -0.3589 -0.5384 -1.3714
  319MOL0     H43063   5.275   8.919   2.568  2.4015  0.4109 -0.1005
  319MOL0     H43064   5.631   9.356   3.218 -0.7556 -1.0083 -1.8978
  319MOL0     H43065   5.673   9.421   3.451  0.5460  0.4999 -3.4338
  320MOL0     O43066   6.312   2.539   4.082  0.4993 -0.7352  0.1951
  320MOL0     C43067   6.432   2.553   4.069 -0.5661 -0.5837  0.6890
  320MOL0     O43068   6.496   2.637   3.980  0.0164  0.0704 -0.5538
  320MOL0     C43069   6.426   2.691   3.872 -0.9317  0.0839  0.3635
  320MOL0     C43070   6.376   2.823   3.885 -1.0366 -0.9083  0.9029
  320MOL0     C43071   6.310   2.894   3.780  1.1454  0.1431 -0.2328
  320MOL0     C43072   6.288   2.829   3.654  0.4780 -1.1797  0.3375
  320MOL0     O43073   6.231   2.900   3.544 -0.4107  0.6365 -0.8520
  320MOL0     C43074   6.295   2.884   3.414 -0.0449  1.0649 -1.0845
  320MOL0     C43075   6.227   2.794   3.313  0.5531 -1.2157 -0.0995
  320MOL0     C43076   6.100   2.867   3.260  0.6540  0.2305  0.7880
  320MOL0     C43077   6.056   2.828   3.115 -0.0827 -0.1285  0.6967
  320MOL0     C43078   6.126   2.904   3.006  0.7701  0.1084  0.5844
  320MOL0     C43079   6.080   2.846   2.864 -0.1982  0.3723  0.9986
  320MOL0     C43080   6.172   2.879   2.752  1.2654  0.1611  0.1881
  320MOL0     C43081   6.110   2.839   2.618 -0.2405  0.6514 -0.2833
  320MOL0     N43082   5.988   2.917   2.587  0.7043  0.0995 -0.2015
  320MOL0     C43083   5.982   3.033   2.521  0.4296 -0.5975 -0.1770
  320MOL0     C43084   5.855   3.061   2.494  0.0735  1.4421 -0.1056
  320MOL0     C43085   5.801   3.172   2.418 -0.1578 -1.0588 -0.1084
  320MOL0     C43086   5.814   3.146   2.268 -0.1544  1.0491 -0.5055
  320MOL0     C43087   5.773   3.262   2.173  0.7535 -0.0316  0.3634
  320MOL0     C43088   5.656   3.351   2.211  0.4121 -0.0398  0.0110
  320MOL0     O43089   5.697   3.437   2.317 -0.8506 -0.0872  0.7572
  320MOL0     C43090   5.612   3.531   2.355  0.2987  0.5648 -0.2506
  320MOL0     C43091   5.483   3.561   2.306  0.3500  1.0727  0.2897
  320MOL0     C43092   5.412   3.668   2.345  0.7576  0.8575  0.3847
  320MOL0     C43093   5.270   3.675   2.285 -0.1846  0.1572 -0.1264
  320MOL0     C43094   5.460   3.757   2.442  0.8308  0.9460 -0.6070
  320MOL0     C43095   5.391   3.878   2.486 -0.8850 -0.2104 -0.2924
  320MOL0     O43096   5.466   3.975   2.553  0.2829  0.6279 -0.5165
  320MOL0     C43097   5.445   4.117   2.551  0.7837 -0.6067  1.1888
  320MOL0     C43098   5.499   4.192   2.650 -0.5414  0.5183  0.0726
  320MOL0     C43099   5.477   4.330   2.640 -0.2201 -0.3834 -0.1802
  320MOL0     C43100   5.398   4.396   2.546 -0.2939 -0.9028 -1.0010
  320MOL0     O43101   5.382   4.535   2.530 -0.2443 -0.3000  0.5903
  320MOL0     C43102   5.487   4.624   2.559 -0.0743  0.8122  0.4420
  320MOL0     C43103   5.438   4.769   2.539  0.5096 -0.6226  0.8122
  320MOL0     C43104   5.288   4.789   2.543 -0.3592  0.2606  0.3806
  320MOL0     C43105   5.227   4.931   2.528 -0.2497 -0.3554 -0.0342
  320MOL0     C43106   5.078   4.927   2.485  0.5543 -0.1236 -0.0555
  320MOL0     C43107   5.011   5.064   2.493  0.4812  0.5470 -0.0038
  320MOL0     C43108   5.014   5.132   2.350 -0.8953  0.6493 -0.7726
  320MOL0     C43109   4.951   5.275   2.336 -0.0829  0.5967  0.3482
  320MOL0    Cl43110   4.774   5.246   2.307 -0.2226  0.9619 -0.5411
  320MOL0     C43111   5.337   4.316   2.454  0.0603  0.2936  0.5228
  320MOL0     C43112   5.358   4.180   2.450 -0.1884  1.0329  0.8921
  320MOL0     O43113   5.273   3.900   2.461 -0.1854  0.3743  0.0754
  320MOL0     C43114   5.583   3.729   2.503 -0.8323 -1.0072  0.4301
  320MOL0     C43115   5.653   3.619   2.457 -0.3049 -0.5653 -0.0636
  320MOL0     N43116   5.781   2.948   2.539  0.5469 -0.1470 -0.3836
  320MOL0     N43117   5.868   2.859   2.580 -0.6279  0.2404  0.0824
  320MOL0     C43118   6.348   2.694   3.646 -0.3311  0.3798  0.4862
  320MOL0     C43119   6.410   2.629   3.751 -0.0988 -0.0050  0.6921
  320MOL0     C43120   6.526   2.456   4.149 -0.4964 -0.2685 -0.0287
  320MOL0     C43121   6.488   2.338   4.209  1.2657  0.5209 -0.4193
  320MOL0     C43122   6.581   2.246   4.264 -0.3844 -0.2161 -0.5407
  320MOL0     C43123   6.720   2.283   4.277  0.7263  0.3185  0.9054
  320MOL0     O43124   6.817   2.215   4.346  0.6234  0.3597  0.6095
  320MOL0     C43125   6.786   2.089   4.408  0.0271 -0.2983  0.3874
  320MOL0     C43126   6.920   2.011   4.422  0.4350 -0.1722 -0.2296
  320MOL0     C43127   7.023   2.083   4.516  1.0029  0.1098  0.8863
  320MOL0     C43128   7.129   1.992   4.568  0.5266  0.0296 -1.3895
  320MOL0     C43129   7.099   1.904   4.681  0.6622  0.0185 -0.7768
  320MOL0     C43130   7.082   1.833   4.776  0.0443  0.2429  0.5397
  320MOL0     C43131   6.752   2.408   4.224  0.4381 -0.5830 -0.4518
  320MOL0     C43132   6.664   2.487   4.155  0.0428  0.4687  0.3310
  320MOL0     H43133   6.413   2.866   3.978  2.0036 -1.4364  0.0226
  320MOL0     H43134   6.286   2.999   3.792 -0.3954 -0.2500  0.3446
  320MOL0     H43135   6.314   2.984   3.375  0.4798  1.4193  0.0278
  320MOL0     H43136   6.400   2.855   3.425  0.1390  2.4739  1.5339
  320MOL0     H43137   6.292   2.790   3.225 -1.8142 -3.2547 -1.8922
  320MOL0     H43138   6.186   2.703   3.358 -1.9125  0.4050  1.1215
  320MOL0     H43139   6.022   2.846   3.333 -1.8995 -1.2563 -2.1456
  320MOL0     H43140   6.109   2.976   3.270 -0.5273  0.3146  1.0734
  320MOL0     H43141   6.086   2.725   3.096 -0.5665 -0.4209  1.4765
  320MOL0     H43142   5.947   2.834   3.111 -0.2586 -2.0586  1.4404
  320MOL0     H43143   6.103   3.010   3.019 -0.2052 -0.3213  2.9535
  320MOL0     H43144   6.234   2.891   3.022  0.8824 -1.2090 -1.0210
  320MOL0     H43145   6.080   2.736   2.870 -0.2044  0.3545  0.6839
  320MOL0     H43146   5.975   2.872   2.849 -0.5589 -1.8880 -1.2217
  320MOL0     H43147   6.190   2.986   2.758 -0.4749  0.5250 -0.4768
  320MOL0     H43148   6.264   2.826   2.778  1.9424  1.3254  0.2351
  320MOL0     H43149   6.087   2.732   2.616  0.0765  0.4468  2.6955
  320MOL0     H43150   6.196   2.851   2.551  0.4297  1.9764  0.7783
  320MOL0     H43151   6.049   3.119   2.521  1.7392 -1.4805  2.4619
  320MOL0     H43152   5.693   3.174   2.438  0.0078  1.0673  0.8109
  320MOL0     H43153   5.855   3.264   2.441  0.0257 -0.1833 -3.4812
  320MOL0     H43154   5.743   3.068   2.238 -2.5978  2.3907  1.3938
  320MOL0     H43155   5.912   3.105   2.239 -0.3135 -0.7680  1.2589
  320MOL0     H43156   5.767   3.220   2.072 -0.2359  1.6459 -0.3186
  320MOL0     H43157   5.867   3.316   2.164  1.4610 -1.3204 -0.3187
  320MOL0     H43158   5.567   3.297   2.244 -0.1271  1.0995  0.5089
  320MOL0     H43159   5.629   3.412   2.124  0.6414 -1.4612 -1.0863
  320MOL0     H43160   5.441   3.509   2.220 -0.0941  2.5188 -0.4014
  320MOL0     H43161   5.181   3.665   2.348 -2.1190 -0.5359 -2.7769
  320MOL0     H43162   5.266   3.777   2.246 -1.4655  0.2150  0.1065
  320MOL0     H43163   5.252   3.608   2.200  0.8969 -0.5950  0.2179
  320MOL0     H43164   5.570   4.151   2.721  1.8260  0.0903 -2.3736
  320MOL0     H43165   5.520   4.397   2.714 -1.3209  0.7285 -0.4960
  320MOL0     H43166   5.530   4.604   2.657  2.1732  1.3318 -0.3737
  320MOL0     H43167   5.571   4.614   2.489 -2.1281 -0.8357 -1.9927
  320MOL0     H43168   5.486   4.834   2.613  0.1571 -0.2001  0.6719
  320MOL0     H43169   5.477   4.795   2.440  2.3684 -2.0909  1.0935
  320MOL0     H43170   5.245   4.751   2.637  1.2028  0.0832  1.0570
  320MOL0     H43171   5.240   4.734   2.462 -0.3523  1.9443 -0.8132
  320MOL0     H43172   5.245   4.985   2.622 -2.5934  1.1608 -0.3650
  320MOL0     H43173   5.290   4.973   2.449 -2.8242  1.4262 -1.2904
  320MOL0     H43174   5.019   4.867   2.555 -0.1189  1.0291  0.4081
  320MOL0     H43175   5.061   4.886   2.386  0.0680  1.3376 -0.6069
  320MOL0     H43176   4.908   5.057   2.527  0.3062  2.4544  0.0061
  320MOL0     H43177   5.065   5.128   2.564  2.2185 -0.1056 -0.6785
  320MOL0     H43178   4.963   5.059   2.286 -2.4733 -3.0815  4.1011
  320MOL0     H43179   5.119   5.149   2.322 -0.1816 -0.9692  0.6596
  320MOL0     H43180   4.975   5.308   2.235  0.7972  2.1622  1.0250
  320MOL0     H43181   4.976   5.339   2.422 -1.5116 -0.3040  1.4757
  320MOL0     H43182   5.264   4.346   2.379  0.3853  1.6871  0.7384
  320MOL0     H43183   5.310   4.118   2.374  0.1810  1.2108  0.5097
  320MOL0     H43184   5.637   3.790   2.575  1.0025 -2.4522  0.3500
  320MOL0     H43185   5.746   3.602   2.510 -0.8999  0.8315  1.5162
  320MOL0     H43186   6.346   2.637   3.554 -2.5688  0.2824  0.5326
  320MOL0     H43187   6.447   2.528   3.745  2.4044  0.7797  1.6316
  320MOL0     H43188   6.384   2.310   4.215  0.5287  2.3464 -2.8968
  320MOL0     H43189   6.539   2.157   4.310  0.3705 -0.2173  0.1849
  320MOL0     H43190   6.751   2.126   4.505 -0.7681 -1.1521  0.4370
  320MOL0     H43191   6.706   2.026   4.368  1.2384 -0.7235 -1.4308
  320MOL0     H43192   6.971   2.006   4.325  2.0009  0.1565  0.5450
  320MOL0     H43193   6.890   1.909   4.449  1.0593  0.0054  1.2237
  320MOL0     H43194   6.964   2.140   4.588 -2.1898  1.6900 -2.6414
  320MOL0     H43195   7.076   2.154   4.451  0.6655 -0.7032 -0.3076
  320MOL0     H43196   7.223   2.044   4.590  1.5515 -1.4181 -2.1619
  320MOL0     H43197   7.171   1.928   4.490  2.1430  1.1884 -1.5272
  320MOL0     H43198   7.057   1.754   4.843 -2.9287 -0.5808 -1.3230
  320MOL0     H43199   6.858   2.428   4.216  0.4002 -0.3637 -0.3949
  320MOL0     H43200   6.691   2.586   4.119 -1.2400  0.4733 -0.6977
  321MOL0     O43201   2.478   4.655   3.850  0.2561  0.8192 -0.6617
  321MOL0     C43202   2.476   4.760   3.914 -0.5712 -0.1280  0.0816
  321MOL0     O43203   2.384   4.869   3.881 -0.2989  0.3991 -0.0716
  321MOL0     C43204   2.271   4.854   3.806  0.3147  0.2452 -0.5409
  321MOL0     C43205   2.195   4.735   3.790  0.3889  0.7130  0.0989
  321MOL0     C43206   2.084   4.727   3.710 -1.1455  0.3431 -0.3703
  321MOL0     C43207   2.044   4.834   3.627 -0.4280  0.2119 -0.5601
  321MOL0     O43208   1.950   4.827   3.538  1.1480  0.4833  0.9618
  321MOL0     C43209   1.857   4.711   3.524  0.4849  0.0131 -1.2399
  321MOL0     C43210   1.738   4.725   3.620 -0.9545  0.5525  0.6786
  321MOL0     C43211   1.634   4.628   3.580  0.8140  0.2503  0.4272
  321MOL0     C43212   1.682   4.484   3.587  1.0040 -0.1486  0.4271
  321MOL0     C43213   1.575   4.381   3.555  0.0617 -0.0694  0.1996
  321MOL0     C43214   1.636   4.256   3.515  0.2558 -0.8622 -1.3750
  321MOL0     C43215   1.532   4.155   3.467  0.0929 -0.5797 -0.1745
  321MOL0     C43216   1.468   4.176   3.323 -0.9925 -0.5117 -0.2756
  321MOL0     N43217   1.394   4.048   3.290 -0.1544  0.0915  0.1966
  321MOL0     C43218   1.322   4.017   3.180 -0.1672 -0.6522  0.2090
  321MOL0     C43219   1.239   3.911   3.219  0.1227 -0.8417 -0.3979
  321MOL0     C43220   1.134   3.850   3.137 -0.2468 -0.6531  0.3121
  321MOL0     C43221   0.988   3.885   3.167 -0.7596 -0.5331  0.8230
  321MOL0     C43222   0.885   3.776   3.132 -0.9104 -0.5308  0.0627
  321MOL0     C43223   0.751   3.797   3.183  0.4714  0.1238 -0.8618
  321MOL0     O43224   0.698   3.914   3.143  0.3397  0.6077  0.1035
  321MOL0     C43225   0.560   3.899   3.100 -0.7362  0.0221  0.0069
  321MOL0     C43226   0.464   3.973   3.163 -1.4190 -0.7538 -1.2667
  321MOL0     C43227   0.328   3.955   3.139  0.2085  0.1171 -0.0085
  321MOL0     C43228   0.215   4.036   3.218 -0.5638  0.1574 -0.2641
  321MOL0     C43229   0.287   3.852   3.047  0.3005  0.1990 -0.2112
  321MOL0     C43230   0.143   3.817   3.019  0.0100  0.3820 -0.3547
  321MOL0     O43231   0.122   3.759   2.899 -0.3861 -0.1419 -1.0465
  321MOL0     C43232   0.006   3.695   2.858  1.2736  0.1086 -0.6914
  321MOL0     C43233   0.009   3.644   2.724 -0.1020 -1.0845 -0.5740
  321MOL0     C43234  -0.088   3.561   2.675  0.1790 -0.6449  0.7239
  321MOL0     C43235  -0.201   3.529   2.749 -0.1888  0.0824 -0.7127
  321MOL0     O43236  -0.301   3.454   2.706 -0.2175  0.3275  0.7352
  321MOL0     C43237  -0.278   3.355   2.612  0.6600 -0.2043 -0.3603
  321MOL0     C43238  -0.391   3.261   2.634 -0.0011 -0.4351 -0.0095
  321MOL0     C43239  -0.404   3.173   2.517 -0.4261 -0.5440  0.8213
  321MOL0     C43240  -0.534   3.076   2.527 -0.9608  0.7448  0.0916
  321MOL0     C43241  -0.602   3.054   2.386 -0.1492  0.1694 -0.8416
  321MOL0     C43242  -0.668   3.174   2.317  0.4019  0.6854 -0.5409
  321MOL0     C43243  -0.780   3.245   2.405 -0.2375  0.0670 -0.3063
  321MOL0     C43244  -0.874   3.343   2.331  0.6475  1.3814  0.0359
  321MOL0    Cl43245  -0.791   3.455   2.222 -0.5177  0.3951  0.1529
  321MOL0     C43246  -0.216   3.586   2.877 -1.1904 -0.8172 -0.2855
  321MOL0     C43247  -0.115   3.664   2.938 -0.4216 -0.0603  0.2593
  321MOL0     O43248   0.062   3.831   3.108 -0.0035  0.0138  0.5514
  321MOL0     C43249   0.382   3.782   2.980  0.1554 -0.4955 -0.0241
  321MOL0     C43250   0.517   3.807   3.000 -0.1300  0.8470  0.1948
  321MOL0     N43251   1.268   3.878   3.344  0.6335  0.4645  0.3573
  321MOL0     N43252   1.351   3.958   3.387 -0.2029 -0.2988  0.6144
  321MOL0     C43253   2.110   4.957   3.648 -0.3650 -0.1957  0.0320
  321MOL0     C43254   2.226   4.969   3.734 -0.3018  0.2491 -0.4304
  321MOL0     C43255   2.573   4.773   4.022  0.7067  0.0796 -0.2671
  321MOL0     C43256   2.625   4.655   4.068  0.3899  0.7488 -0.0605
  321MOL0     C43257   2.708   4.659   4.178 -0.0913 -0.0457  0.0323
  321MOL0     C43258   2.735   4.785   4.235 -0.3807 -0.9260 -0.2903
  321MOL0     O43259   2.820   4.792   4.343  0.0892 -0.4805 -0.7732
  321MOL0     C43260   2.961   4.788   4.315  0.6956 -0.1472  0.2721
  321MOL0     C43261   3.041   4.894   4.395 -0.7053  0.5292  0.0659
  321MOL0     C43262   3.074   4.849   4.535 -0.0050  0.1285  0.1099
  321MOL0     C43263   3.221   4.879   4.556 -0.1072  0.7078  0.0419
  321MOL0     C43264   3.246   5.017   4.595  0.0196 -0.1232 -0.0031
  321MOL0     C43265   3.237   5.138   4.617 -1.3314 -0.5003 -1.3273
  321MOL0     C43266   2.683   4.905   4.191 -0.1241  0.2165  0.2513
  321MOL0     C43267   2.595   4.899   4.086  0.4108 -0.2392 -0.0165
  321MOL0     H43268   2.228   4.646   3.843 -0.4644 -0.1847 -0.8303
  321MOL0     H43269   2.033   4.631   3.715  1.1637 -0.8851  1.7847
  321MOL0     H43270   1.815   4.708   3.424 -0.3516 -2.7403 -0.8835
  321MOL0     H43271   1.910   4.615   3.531  0.9696  0.3769  2.3928
  321MOL0     H43272   1.774   4.712   3.723  3.5994  2.1645 -0.4684
  321MOL0     H43273   1.700   4.827   3.615  0.2211  1.0420  1.2812
  321MOL0     H43274   1.557   4.645   3.656 -0.6572  0.7618 -1.1084
  321MOL0     H43275   1.593   4.638   3.479 -1.1546  1.0115  1.2340
  321MOL0     H43276   1.760   4.471   3.512  1.4155  1.7646  0.4737
  321MOL0     H43277   1.724   4.467   3.687  1.3095 -1.8105  0.0478
  321MOL0     H43278   1.515   4.370   3.646  2.0792  1.4565  1.8105
  321MOL0     H43279   1.517   4.424   3.473  1.7161 -1.9525 -2.1031
  321MOL0     H43280   1.711   4.271   3.437  0.4165  1.4720 -0.8458
  321MOL0     H43281   1.684   4.209   3.602 -2.0442 -4.4349 -1.8447
  321MOL0     H43282   1.587   4.061   3.473  1.1271  0.0629  1.1326
  321MOL0     H43283   1.447   4.154   3.536 -1.0294  0.6366 -1.4754
  321MOL0     H43284   1.544   4.192   3.246 -2.3999 -0.2903 -1.6704
  321MOL0     H43285   1.395   4.257   3.329  2.4194  2.7778  1.2784
  321MOL0     H43286   1.321   4.077   3.090 -2.1650 -1.3622 -0.2680
  321MOL0     H43287   1.154   3.869   3.031 -0.2922  0.9818  0.5706
  321MOL0     H43288   1.141   3.741   3.144  3.2785 -0.6863 -1.5590
  321MOL0     H43289   0.977   3.980   3.114 -0.5198 -0.3844  1.0358
  321MOL0     H43290   0.987   3.905   3.274 -0.6061 -1.2863  0.9696
  321MOL0     H43291   0.927   3.692   3.189  4.3745  1.2760 -0.6173
  321MOL0     H43292   0.879   3.759   3.024 -2.9410  0.7278 -0.0799
  321MOL0     H43293   0.756   3.799   3.292  0.7749 -0.1633 -0.8706
  321MOL0     H43294   0.696   3.705   3.163  1.9245 -1.5104  2.0499
  321MOL0     H43295   0.502   4.046   3.233  0.1528 -2.8604  0.1763
  321MOL0     H43296   0.259   4.124   3.265 -3.4133  1.3656  0.2984
  321MOL0     H43297   0.133   4.073   3.156 -0.6033 -0.4794 -0.6002
  321MOL0     H43298   0.159   3.975   3.289 -0.3362  0.5088  0.2252
  321MOL0     H43299   0.100   3.654   2.666  0.1983  4.0264  0.3892
  321MOL0     H43300  -0.068   3.519   2.577 -0.0558 -1.4758  1.0207
  321MOL0     H43301  -0.289   3.395   2.510  1.4805  2.1599  0.4026
  321MOL0     H43302  -0.181   3.306   2.617  0.5115 -0.6286 -1.2988
  321MOL0     H43303  -0.372   3.215   2.732  1.3149  0.4794  0.1825
  321MOL0     H43304  -0.487   3.314   2.633 -0.0565 -0.5080 -2.0040
  321MOL0     H43305  -0.317   3.111   2.494 -0.9199 -0.9746  0.0676
  321MOL0     H43306  -0.414   3.239   2.430 -3.1827  1.1158  2.2588
  321MOL0     H43307  -0.511   2.973   2.553 -0.3976  1.2786  1.8172
  321MOL0     H43308  -0.598   3.113   2.608  1.9798  2.7930  1.6469
  321MOL0     H43309  -0.675   2.974   2.399  0.8699 -1.2976 -3.4719
  321MOL0     H43310  -0.526   3.033   2.311  0.0977 -2.1963 -0.0265
  321MOL0     H43311  -0.595   3.253   2.298 -0.8007  2.1031  0.4999
  321MOL0     H43312  -0.716   3.138   2.225 -0.8205 -1.0993  0.7352
  321MOL0     H43313  -0.728   3.308   2.477  4.1854 -1.3500 -1.8867
  321MOL0     H43314  -0.838   3.167   2.456  1.6613 -1.2048  0.0269
  321MOL0     H43315  -0.946   3.386   2.401  1.6502 -1.1583  2.8760
  321MOL0     H43316  -0.930   3.283   2.259  0.2802  1.9358 -0.1381
  321MOL0     H43317  -0.310   3.560   2.924 -1.7229  0.7115 -0.4492
  321MOL0     H43318  -0.108   3.680   3.045 -2.8116  0.5365  0.3771
  321MOL0     H43319   0.355   3.706   2.908 -2.4061  0.0125  0.2954
  321MOL0     H43320   0.599   3.769   2.941  0.1474 -2.4893  2.5009
  321MOL0     H43321   2.081   5.043   3.589  1.1517 -0.7177 -1.5634
  321MOL0     H43322   2.287   5.059   3.738  1.5211 -0.9280  0.0555
  321MOL0     H43323   2.624   4.563   4.010 -1.1002  3.3753 -4.7564
  321MOL0     H43324   2.754   4.571   4.221 -0.6294  1.0978  3.1881
  321MOL0     H43325   2.999   4.686   4.326  1.9567  0.3595  0.7678
  321MOL0     H43326   2.976   4.807   4.208  1.7800 -1.5161  0.1561
  321MOL0     H43327   2.985   4.988   4.390 -0.3770  0.6815 -0.9828
  321MOL0     H43328   3.134   4.915   4.342  0.8489 -1.4758  1.8235
  321MOL0     H43329   3.062   4.745   4.566  0.8850 -0.3322 -1.0371
  321MOL0     H43330   3.002   4.910   4.592 -2.5128  0.5036 -3.1440
  321MOL0     H43331   3.266   4.843   4.463 -1.5539 -1.7830  0.2077
  321MOL0     H43332   3.239   4.821   4.647 -0.7221  0.5870  0.0918
  321MOL0     H43333   3.233   5.235   4.661 -0.9249 -0.6423 -0.9728
  321MOL0     H43334   2.712   4.998   4.238  0.7832  0.9155 -1.6082
  321MOL0     H43335   2.536   4.982   4.049 -0.0531 -1.0549 -1.1545
  322MOL0     O43336  10.004   0.959   1.460  0.9432  0.0109  0.0238
  322MOL0     C43337   9.890   0.989   1.487  0.3714 -0.0379 -0.2961
  322MOL0     O43338   9.774   0.928   1.449  0.4201 -0.2384 -0.2182
  322MOL0     C43339   9.792   0.824   1.358 -0.0042  0.0697 -0.3401
  322MOL0     C43340   9.858   0.707   1.397 -0.0119  0.8088 -1.2519
  322MOL0     C43341   9.866   0.594   1.326  0.5084  0.7998  1.0356
  322MOL0     C43342   9.810   0.595   1.195  0.0505  1.1128  0.2395
  322MOL0     O43343   9.809   0.477   1.121  0.6108 -0.5009 -0.1380
  322MOL0     C43344   9.881   0.464   0.997 -0.2243 -0.6419 -0.5638
  322MOL0     C43345   9.796   0.508   0.887  0.8767 -0.8401  0.5912
  322MOL0     C43346   9.860   0.477   0.750 -0.8707 -0.4238 -0.3857
  322MOL0     C43347   9.970   0.592   0.721 -0.6943 -0.2992  0.1208
  322MOL0     C43348  10.072   0.568   0.598  0.4214  0.2106 -0.6426
  322MOL0     C43349  10.157   0.434   0.606  0.8230  0.8870  0.8127
  322MOL0     C43350  10.257   0.420   0.486  0.3685  0.9358  0.3881
  322MOL0     C43351  10.338   0.290   0.489 -0.1089  0.3804  0.3152
  322MOL0     N43352  10.484   0.307   0.503 -0.2099 -0.2805  1.0321
  322MOL0     C43353  10.542   0.362   0.620  0.8800  0.4878 -0.6745
  322MOL0     C43354  10.674   0.378   0.587  0.0607  0.0542  0.5137
  322MOL0     C43355  10.767   0.442   0.686  0.6893 -0.1730  0.3649
  322MOL0     C43356  10.911   0.393   0.683  0.1215  1.2857  0.1768
  322MOL0     C43357  10.986   0.460   0.805  0.0597 -0.2472 -0.0241
  322MOL0     C43358  11.131   0.403   0.809 -0.8591  0.5217  1.2842
  322MOL0     O43359  11.224   0.405   0.712  0.2822  0.1812 -0.3229
  322MOL0     C43360  11.260   0.525   0.647 -0.3367  0.2628 -0.3880
  322MOL0     C43361  11.227   0.653   0.695 -0.6408 -0.3405 -0.9346
  322MOL0     C43362  11.258   0.767   0.610 -0.2621  0.4747  0.2901
  322MOL0     C43363  11.204   0.900   0.658  1.1650 -0.3399 -0.4464
  322MOL0     C43364  11.321   0.750   0.485  0.2719  0.2434 -0.7269
  322MOL0     C43365  11.354   0.867   0.399 -0.0380  0.6088 -0.7027
  322MOL0     O43366  11.366   0.833   0.278 -0.6010 -0.1166  0.6904
  322MOL0     C43367  11.427   0.913   0.192 -0.0951  0.1081  1.2979
  322MOL0     C43368  11.355   0.920   0.068  0.0740 -0.3553 -0.5892
  322MOL0     C43369  11.403   0.973  -0.041 -0.8504  0.1512 -0.2284
  322MOL0     C43370  11.536   1.027  -0.038  0.0205 -0.0318  0.1989
  322MOL0     O43371  11.599   1.070  -0.149  0.2013  0.3837  0.4998
  322MOL0     C43372  11.548   1.032  -0.278 -0.1831  0.1615 -0.8300
  322MOL0     C43373  11.653   1.088  -0.385  0.6685  1.0015  0.0822
  322MOL0     C43374  11.789   1.015  -0.386 -0.2526  0.8072 -0.5593
  322MOL0     C43375  11.881   1.077  -0.484  0.6492  0.0478  0.5669
  322MOL0     C43376  12.030   1.031  -0.495 -0.3778 -0.1184  0.1808
  322MOL0     C43377  12.074   0.906  -0.417  0.4410 -0.6625  0.3321
  322MOL0     C43378  12.209   0.857  -0.451 -0.9423 -0.6287 -0.6457
  322MOL0     C43379  12.324   0.941  -0.384  0.9069  0.3966  0.6795
  322MOL0    Cl43380  12.481   0.894  -0.459  0.1351 -0.1361 -0.1847
  322MOL0     C43381  11.611   1.030   0.087  0.4908  0.3910 -0.4275
  322MOL0     C43382  11.561   0.965   0.202  0.1612 -0.4575  0.1767
  322MOL0     O43383  11.399   0.966   0.454 -0.0691 -0.0521  0.5918
  322MOL0     C43384  11.356   0.616   0.440 -0.4114 -0.4991  0.5006
  322MOL0     C43385  11.321   0.514   0.516 -0.5077  0.4507 -0.1000
  322MOL0     N43386  10.699   0.320   0.466 -0.3093  0.8299  0.5493
  322MOL0     N43387  10.584   0.288   0.412  0.2383  0.0540 -0.2681
  322MOL0     C43388   9.736   0.699   1.160 -0.5967 -0.1810  0.0773
  322MOL0     C43389   9.729   0.819   1.238  0.5990 -0.4028 -0.1985
  322MOL0     C43390   9.870   1.088   1.598  0.0038  0.7331  0.3919
  322MOL0     C43391   9.749   1.146   1.621 -0.4187 -0.9131  0.6591
  322MOL0     C43392   9.734   1.236   1.726  0.5324  0.3942  0.3513
  322MOL0     C43393   9.845   1.271   1.804 -0.2490  0.0257 -0.3591
  322MOL0     O43394   9.817   1.358   1.904  0.3202 -0.5422  0.7774
  322MOL0     C43395   9.857   1.342   2.044  0.0101 -0.0983  1.2807
  322MOL0     C43396   9.755   1.252   2.122  0.1277 -0.3827 -0.6876
  322MOL0     C43397   9.616   1.314   2.135  0.6213 -0.1952 -0.3000
  322MOL0     C43398   9.501   1.227   2.071 -0.5088 -0.3169  0.3918
  322MOL0     C43399   9.364   1.271   2.113  0.3629 -0.0031  1.2247
  322MOL0     C43400   9.264   1.328   2.150  0.4701  0.1361 -0.2117
  322MOL0     C43401   9.968   1.216   1.786  0.4397  0.6792  0.7377
  322MOL0     C43402   9.976   1.121   1.676 -0.5216 -0.1162 -1.1596
  322MOL0     H43403   9.921   0.711   1.485 -1.4279 -1.2741 -0.0555
  322MOL0     H43404   9.914   0.506   1.367 -0.2225  0.0125  0.2689
  322MOL0     H43405   9.973   0.523   1.007  0.2187 -1.4233  0.1064
  322MOL0     H43406   9.908   0.359   0.982  1.9378 -0.0191 -1.5086
  322MOL0     H43407   9.704   0.452   0.905 -0.6719  1.5900  0.6698
  322MOL0     H43408   9.767   0.613   0.900 -1.7283 -1.4530  0.3540
  322MOL0     H43409   9.909   0.380   0.745 -0.6827 -0.5927  2.7858
  322MOL0     H43410   9.786   0.491   0.670 -0.1363  0.4394 -0.9424
  322MOL0     H43411   9.907   0.680   0.708 -2.9864 -1.6682  1.1700
  322MOL0     H43412  10.033   0.611   0.809  1.0808  1.8841 -1.5024
  322MOL0     H43413  10.021   0.586   0.503  1.3618  0.5418 -1.1039
  322MOL0     H43414  10.140   0.654   0.605  0.4531  0.1127  0.5552
  322MOL0     H43415  10.215   0.438   0.699 -2.5743 -0.2117  3.2254
  322MOL0     H43416  10.088   0.349   0.596 -0.9892  2.5260 -1.8124
  322MOL0     H43417  10.207   0.430   0.389  1.3267  2.9900  0.0419
  322MOL0     H43418  10.323   0.507   0.496 -2.9168  3.5093  1.6813
  322MOL0     H43419  10.314   0.236   0.397 -0.0506 -0.9990  1.0735
  322MOL0     H43420  10.292   0.221   0.561  0.3121  0.0795  0.2997
  322MOL0     H43421  10.496   0.373   0.717  0.6221  1.4978 -0.8967
  322MOL0     H43422  10.776   0.551   0.671  0.5309 -0.0397  1.2110
  322MOL0     H43423  10.722   0.414   0.782  2.2922  1.1499  1.5671
  322MOL0     H43424  10.950   0.425   0.586  0.0356 -1.3441 -0.8221
  322MOL0     H43425  10.931   0.286   0.686  0.1811  1.2983  0.2170
  322MOL0     H43426  10.922   0.455   0.894 -1.6155  3.5059 -0.8061
  322MOL0     H43427  10.979   0.568   0.785 -0.8847 -0.1606  0.6836
  322MOL0     H43428  11.119   0.295   0.821 -3.1780  0.4918 -0.6102
  322MOL0     H43429  11.173   0.440   0.903 -0.7645 -0.0972  1.4933
  322MOL0     H43430  11.166   0.661   0.784  0.2015  0.2765 -0.3926
  322MOL0     H43431  11.111   0.898   0.716  1.6079 -1.7852  0.2662
  322MOL0     H43432  11.272   0.949   0.728 -1.5444 -0.1133  2.2093
  322MOL0     H43433  11.184   0.965   0.572 -0.0606  0.0790  0.1363
  322MOL0     H43434  11.253   0.887   0.051 -0.6655  2.2265 -1.6026
  322MOL0     H43435  11.343   0.993  -0.129 -0.1865  1.7154 -0.3466
  322MOL0     H43436  11.530   0.924  -0.273  0.9436  0.0050  0.3787
  322MOL0     H43437  11.463   1.092  -0.314  0.1720  2.4564  1.8241
  322MOL0     H43438  11.600   1.070  -0.480  2.1703  0.2713 -0.6391
  322MOL0     H43439  11.672   1.195  -0.370  2.7401  0.5755  0.6670
  322MOL0     H43440  11.764   0.912  -0.412  1.0959  0.0787  0.8440
  322MOL0     H43441  11.835   1.025  -0.287  4.0323 -0.6647 -2.1987
  322MOL0     H43442  11.851   1.072  -0.589 -0.4234  0.7003  0.8223
  322MOL0     H43443  11.895   1.184  -0.461  1.1049 -0.2686  1.8305
  322MOL0     H43444  12.099   1.114  -0.480  1.2072 -1.2074 -0.7826
  322MOL0     H43445  12.041   0.999  -0.599 -1.4688 -1.9777  0.5735
  322MOL0     H43446  12.087   0.926  -0.310  2.8888 -0.1657  0.0158
  322MOL0     H43447  12.004   0.825  -0.440  0.0352  0.4073 -2.7112
  322MOL0     H43448  12.220   0.861  -0.560 -1.3660 -1.8103 -0.7408
  322MOL0     H43449  12.207   0.751  -0.428 -2.2196 -0.4803  0.0144
  322MOL0     H43450  12.314   0.912  -0.279 -0.0695  0.4453  0.6133
  322MOL0     H43451  12.296   1.046  -0.396 -1.3722  0.0136  2.0654
  322MOL0     H43452  11.707   1.081   0.083 -0.7741  2.8878 -0.6305
  322MOL0     H43453  11.611   0.960   0.298 -1.5028  0.5655  1.1487
  322MOL0     H43454  11.411   0.600   0.347 -1.6381 -2.4658  0.0605
  322MOL0     H43455  11.338   0.417   0.471  3.4898 -0.5283  2.9269
  322MOL0     H43456   9.672   0.685   1.074 -2.8467 -0.6711  1.7527
  322MOL0     H43457   9.672   0.901   1.195 -0.4005 -0.2140  1.3895
  322MOL0     H43458   9.660   1.122   1.563 -1.0819 -1.1990  1.7639
  322MOL0     H43459   9.633   1.269   1.748 -0.8789 -3.4618  0.4179
  322MOL0     H43460   9.963   1.319   2.060  1.0606  0.5583 -3.4397
  322MOL0     H43461   9.837   1.442   2.084 -4.5837 -0.9190  1.5644
  322MOL0     H43462   9.787   1.250   2.226  1.4197  3.1874 -0.8826
  322MOL0     H43463   9.748   1.152   2.079 -1.4259 -0.0945 -1.1853
  322MOL0     H43464   9.609   1.413   2.087  1.0703  0.3776  0.7943
  322MOL0     H43465   9.596   1.327   2.241  1.8438  2.4488 -0.3004
  322MOL0     H43466   9.512   1.119   2.076  1.6775 -0.2698 -1.4970
  322MOL0     H43467   9.501   1.250   1.964  1.6439  1.3610  0.6748
  322MOL0     H43468   9.174   1.377   2.181 -0.1970 -1.4375  0.4474
  322MOL0     H43469  10.047   1.234   1.858  0.1864  0.2715  1.1234
  322MOL0     H43470  10.078   1.092   1.652  0.0276  1.8616 -1.3959
  323MOL0     O43471   8.254  10.573   2.752 -0.5124  0.6723  0.2897
  323MOL0     C43472   8.240  10.460   2.813 -0.4161 -0.6976  0.1349
  323MOL0     O43473   8.333  10.378   2.854 -0.2360 -0.7076 -0.3686
  323MOL0     C43474   8.456  10.436   2.896  1.2632 -0.6401  0.1198
  323MOL0     C43475   8.567  10.358   2.888  0.1376 -0.1204 -0.4753
  323MOL0     C43476   8.691  10.402   2.922 -0.4581 -0.1685 -1.0986
  323MOL0     C43477   8.702  10.532   2.966 -0.7457  0.1964  0.7627
  323MOL0     O43478   8.829  10.582   3.007 -0.3560 -0.4031  0.1794
  323MOL0     C43479   8.911  10.499   3.085 -0.7641 -0.0190 -0.0019
  323MOL0     C43480   9.032  10.584   3.126  0.0734 -0.3764 -0.5213
  323MOL0     C43481   9.130  10.504   3.208  0.0273 -0.1544 -0.4761
  323MOL0     C43482   9.090  10.430   3.339 -0.1631  0.8663 -0.1803
  323MOL0     C43483   9.204  10.378   3.417 -0.2054 -0.2644  0.0683
  323MOL0     C43484   9.149  10.327   3.549  0.3130 -0.3099 -0.4090
  323MOL0     C43485   9.081  10.432   3.649 -0.6077 -0.3302  0.6894
  323MOL0     C43486   9.109  10.395   3.800 -0.6268  1.1306  0.1110
  323MOL0     N43487   9.088  10.516   3.872 -0.5048  0.2743  0.7185
  323MOL0     C43488   8.998  10.569   3.951 -0.4877  0.5763  0.7329
  323MOL0     C43489   9.020  10.696   3.987 -0.7472  0.3216  0.0659
  323MOL0     C43490   8.953  10.770   4.093  0.3312 -0.5915 -0.0661
  323MOL0     C43491   8.935  10.689   4.229 -0.1903 -0.3523  0.1013
  323MOL0     C43492   9.071  10.670   4.303  0.5443 -0.6821 -0.2571
  323MOL0     C43493   9.140  10.536   4.273  0.7804 -0.4251  0.9001
  323MOL0     O43494   9.258  10.518   4.352  0.1795  0.2860 -0.4374
  323MOL0     C43495   9.368  10.590   4.311 -0.4759  1.1053 -0.3551
  323MOL0     C43496   9.446  10.541   4.207 -0.2975  0.3747  0.7024
  323MOL0     C43497   9.539  10.620   4.137 -0.6897 -0.7130 -0.7579
  323MOL0     C43498   9.622  10.566   4.016  0.5061 -0.3512  0.2179
  323MOL0     C43499   9.565  10.751   4.189 -0.7578 -0.3341 -0.6329
  323MOL0     C43500   9.675  10.841   4.145 -0.0038 -0.0927 -0.2038
  323MOL0     O43501   9.656  10.969   4.193 -0.4459  0.2438 -0.5166
  323MOL0     C43502   9.754  11.015   4.286  1.6135 -0.2052  0.2250
  323MOL0     C43503   9.740  11.142   4.339 -0.4250 -0.0996  0.0983
  323MOL0     C43504   9.841  11.179   4.434 -0.2467  0.2576 -0.0196
  323MOL0     C43505   9.946  11.094   4.489 -0.4428  0.0822  0.3341
  323MOL0     O43506  10.033  11.141   4.581 -0.2503 -0.3489 -0.0989
  323MOL0     C43507  10.166  11.091   4.583 -0.5124  1.0568  0.0086
  323MOL0     C43508  10.227  11.127   4.714 -0.1198 -0.8716 -1.0245
  323MOL0     C43509  10.238  11.281   4.732  0.1814 -0.6552  0.4293
  323MOL0     C43510  10.329  11.351   4.628 -0.2048 -0.1049  0.0115
  323MOL0     C43511  10.330  11.502   4.652  0.5294  0.4015  0.9006
  323MOL0     C43512  10.436  11.565   4.557 -0.9182  0.1413  0.2011
  323MOL0     C43513  10.466  11.713   4.596  0.3850  0.6017  0.1674
  323MOL0     C43514  10.354  11.808   4.630 -0.0528  1.0447  0.7125
  323MOL0    Cl43515  10.414  11.967   4.650  0.0660  0.0352 -0.5944
  323MOL0     C43516   9.941  10.962   4.440  0.4469  0.0800 -0.5961
  323MOL0     C43517   9.855  10.925   4.332 -0.4063 -0.5189  0.3908
  323MOL0     O43518   9.763  10.806   4.067  0.5066  0.2088  0.6037
  323MOL0     C43519   9.481  10.796   4.296  0.7898  0.0166 -0.7074
  323MOL0     C43520   9.379  10.723   4.359 -0.4924  0.7575  0.2561
  323MOL0     N43521   9.132  10.734   3.926  0.0988  0.1249 -0.6983
  323MOL0     N43522   9.173  10.632   3.856 -0.5356  0.6724  0.9003
  323MOL0     C43523   8.594  10.611   2.982 -1.7751 -0.4636  0.7055
  323MOL0     C43524   8.466  10.568   2.951  0.1253  0.0359 -0.2563
  323MOL0     C43525   8.098  10.416   2.816 -0.0268 -0.4401  0.3895
  323MOL0     C43526   7.996  10.505   2.768 -0.2423  0.1766 -0.2899
  323MOL0     C43527   7.862  10.463   2.778  0.1279 -0.2467  0.4996
  323MOL0     C43528   7.826  10.350   2.835 -0.2151 -0.0500 -1.0910
  323MOL0     O43529   7.697  10.320   2.857  0.8267 -0.0983  0.7842
  323MOL0     C43530   7.650  10.202   2.922 -0.3218 -0.0174 -0.0390
  323MOL0     C43531   7.491  10.192   2.916 -0.9188  1.1649  0.3431
  323MOL0     C43532   7.437  10.091   3.008  0.0682 -0.7471  0.5512
  323MOL0     C43533   7.469   9.949   2.953 -0.0557 -0.2039  0.5643
  323MOL0     C43534   7.425   9.844   3.039  0.1717 -0.6694 -0.4663
  323MOL0     C43535   7.382   9.763   3.120 -0.3799 -0.4093 -0.5039
  323MOL0     C43536   7.930  10.263   2.890  0.4597 -0.5511  0.1423
  323MOL0     C43537   8.063  10.302   2.890  0.4247  0.8133 -0.9415
  323MOL0     H43538   8.567  10.261   2.839  0.6646 -1.2671  1.6724
  323MOL0     H43539   8.783  10.349   2.900 -0.6328  0.3257 -3.2586
  323MOL0     H43540   8.844  10.471   3.167 -0.3664 -1.1895 -0.0725
  323MOL0     H43541   8.946  10.407   3.038  2.8299  1.6069 -0.8751
  323MOL0     H43542   9.092  10.600   3.036  1.5589  0.5270  0.5894
  323MOL0     H43543   9.014  10.680   3.176  2.0442 -0.1876 -0.1172
  323MOL0     H43544   9.197  10.447   3.143  2.0353  3.4371 -1.8112
  323MOL0     H43545   9.204  10.574   3.247 -1.7862  0.5606  1.9445
  323MOL0     H43546   9.047  10.507   3.403  0.0540  0.1417  0.8713
  323MOL0     H43547   9.024  10.346   3.318  1.3168 -1.3903  3.2988
  323MOL0     H43548   9.264  10.309   3.357  1.7550  0.4436  1.1066
  323MOL0     H43549   9.275  10.462   3.425  0.9321 -0.8437 -2.6666
  323MOL0     H43550   9.091  10.235   3.540 -1.2296  0.4153  1.3513
  323MOL0     H43551   9.237  10.296   3.606 -0.6300  0.7424  1.7509
  323MOL0     H43552   9.143  10.520   3.630  1.0825 -1.5792  0.2049
  323MOL0     H43553   8.973  10.435   3.629 -0.5096 -1.6870 -0.1580
  323MOL0     H43554   9.212  10.361   3.804 -0.8100  0.7023  1.6452
  323MOL0     H43555   9.051  10.313   3.844  1.9608 -1.0458 -0.2882
  323MOL0     H43556   8.915  10.517   3.998 -1.6809  1.8107  0.0672
  323MOL0     H43557   9.011  10.862   4.104  0.6111 -0.9188  1.4230
  323MOL0     H43558   8.849  10.785   4.066  0.1056 -0.6494  0.7410
  323MOL0     H43559   8.892  10.589   4.219  0.3516 -0.6143  0.3644
  323MOL0     H43560   8.868  10.747   4.292  0.2030 -0.3321  0.5066
  323MOL0     H43561   9.069  10.664   4.412 -1.1392 -3.6318 -0.3609
  323MOL0     H43562   9.130  10.758   4.274 -2.4511  1.6479  0.1658
  323MOL0     H43563   9.167  10.531   4.167 -2.6047 -2.0593 -0.0000
  323MOL0     H43564   9.071  10.455   4.297  2.2847 -1.5467  1.6622
  323MOL0     H43565   9.425  10.444   4.162  2.8281 -0.3970  0.6678
  323MOL0     H43566   9.608  10.457   4.010  0.7906 -0.3459 -0.6980
  323MOL0     H43567   9.586  10.621   3.929  1.9704 -0.1158 -0.2777
  323MOL0     H43568   9.731  10.577   4.025  0.7047 -0.7574 -1.4632
  323MOL0     H43569   9.653  11.202   4.315  0.1704  0.2062 -1.4111
  323MOL0     H43570   9.827  11.284   4.455  0.7885  0.4940 -0.4562
  323MOL0     H43571  10.161  10.982   4.581  1.0972  0.8581  2.4090
  323MOL0     H43572  10.223  11.123   4.495 -1.5226  2.7099 -0.0836
  323MOL0     H43573  10.166  11.088   4.796  2.2837  2.2783  2.6311
  323MOL0     H43574  10.330  11.092   4.725 -0.5379 -1.3709  3.2223
  323MOL0     H43575  10.284  11.308   4.828  1.3935 -1.0597 -0.0230
  323MOL0     H43576  10.135  11.319   4.729 -0.5580 -2.5896 -1.8851
  323MOL0     H43577  10.425  11.304   4.604 -0.5321 -0.9528  0.3221
  323MOL0     H43578  10.281  11.320   4.535  1.9025 -0.5296 -0.9767
  323MOL0     H43579  10.345  11.523   4.758  0.3226  2.9021  0.4945
  323MOL0     H43580  10.232  11.545   4.629 -0.2894 -0.6327  2.2924
  323MOL0     H43581  10.527  11.505   4.558  1.1565  3.0838  0.8735
  323MOL0     H43582  10.403  11.560   4.453  0.6664 -1.6157 -0.2724
  323MOL0     H43583  10.524  11.760   4.517  1.9820 -2.9416 -0.9464
  323MOL0     H43584  10.514  11.703   4.694  0.9840  1.4525 -0.0229
  323MOL0     H43585  10.308  11.777   4.724 -2.3973  0.0922 -0.6515
  323MOL0     H43586  10.280  11.800   4.550  0.7228 -2.0644  0.1707
  323MOL0     H43587  10.015  10.889   4.470 -0.3107  0.2549  1.9511
  323MOL0     H43588   9.862  10.819   4.312 -0.3696 -0.7141  1.3759
  323MOL0     H43589   9.480  10.899   4.331  1.0130 -0.7255  1.6909
  323MOL0     H43590   9.311  10.776   4.425 -0.7280  1.0297 -0.1972
  323MOL0     H43591   8.623  10.710   3.014 -0.1552 -0.7647  0.2617
  323MOL0     H43592   8.382  10.636   2.957 -1.5495 -1.8715 -0.9073
  323MOL0     H43593   8.031  10.581   2.700  1.0110 -0.3824 -0.3035
  323MOL0     H43594   7.784  10.522   2.730 -1.2164 -1.5508  1.0160
  323MOL0     H43595   7.684  10.123   2.854 -0.4136  2.5907 -3.4170
  323MOL0     H43596   7.697  10.191   3.020 -0.9255 -0.5021  0.1985
  323MOL0     H43597   7.456  10.179   2.813  1.6889 -0.9272 -0.3968
  323MOL0     H43598   7.463  10.293   2.948 -0.0196  1.3787  0.4782
  323MOL0     H43599   7.332  10.106   3.035 -0.1980  2.1588 -1.5802
  323MOL0     H43600   7.492  10.093   3.102 -0.2555 -0.0115  0.7348
  323MOL0     H43601   7.578   9.950   2.945 -0.1366  2.1063 -1.3232
  323MOL0     H43602   7.434   9.939   2.850  1.8737 -1.4094 -0.0335
  323MOL0     H43603   7.346   9.695   3.195 -1.7205  0.7751 -0.0195
  323MOL0     H43604   7.904  10.177   2.951 -1.7909  1.6834  2.5845
  323MOL0     H43605   8.142  10.252   2.946 -1.7925 -0.1108  1.6052
  324MOL0     O43606   7.458   1.726   3.513  0.2966  0.2686  0.7053
  324MOL0     C43607   7.548   1.798   3.470 -0.0076 -0.0049 -0.3157
  324MOL0     O43608   7.672   1.760   3.408  1.7341  0.0219  0.3342
  324MOL0     C43609   7.677   1.630   3.370 -0.7565  0.6607 -0.0310
  324MOL0     C43610   7.728   1.542   3.465 -0.8439  0.3983  0.6757
  324MOL0     C43611   7.769   1.421   3.409  1.6773  1.2060  0.0795
  324MOL0     C43612   7.736   1.383   3.275 -0.2512  0.4620 -0.7193
  324MOL0     O43613   7.754   1.248   3.252 -0.2160 -0.4822  0.4185
  324MOL0     C43614   7.812   1.204   3.124  0.2215  0.2233  0.0404
  324MOL0     C43615   7.945   1.153   3.155 -0.7595  0.8702  0.2171
  324MOL0     C43616   8.052   1.258   3.212 -0.1672 -0.6235  0.3753
  324MOL0     C43617   8.082   1.373   3.123 -0.6473 -0.9426 -0.6872
  324MOL0     C43618   8.190   1.461   3.188  0.4673 -1.0172  0.7212
  324MOL0     C43619   8.332   1.436   3.133  0.5429  1.0687  0.7552
  324MOL0     C43620   8.449   1.510   3.205  0.4688 -0.1397 -0.1562
  324MOL0     C43621   8.589   1.460   3.173 -0.1888 -0.3805  0.4904
  324MOL0     N43622   8.678   1.580   3.195  0.0276 -0.8819  1.0343
  324MOL0     C43623   8.753   1.654   3.101 -0.3172  0.5815  0.2290
  324MOL0     C43624   8.843   1.723   3.178 -0.4750 -0.6823 -0.3057
  324MOL0     C43625   8.954   1.804   3.139  0.0519 -0.5427  0.9915
  324MOL0     C43626   9.088   1.736   3.160 -0.1291  0.4640  0.8024
  324MOL0     C43627   9.087   1.583   3.096 -0.1478 -0.6292  0.3256
  324MOL0     C43628   9.229   1.518   3.129 -0.9484  0.2927  0.6664
  324MOL0     O43629   9.338   1.600   3.070  0.2519  0.1524  0.5563
  324MOL0     C43630   9.469   1.567   3.094 -1.4166  0.5283 -0.5925
  324MOL0     C43631   9.516   1.446   3.137 -0.5890  0.1187 -1.6097
  324MOL0     C43632   9.650   1.408   3.126 -0.0058  0.3349 -0.9598
  324MOL0     C43633   9.680   1.264   3.128  0.2345  0.7763 -0.2538
  324MOL0     C43634   9.742   1.517   3.091 -0.8019  0.5532 -0.6624
  324MOL0     C43635   9.891   1.495   3.093 -0.0013  0.3796  1.2505
  324MOL0     O43636   9.943   1.376   3.057  0.0049 -0.0811 -0.2700
  324MOL0     C43637  10.083   1.355   3.058  1.0883 -0.3061 -0.5089
  324MOL0     C43638  10.123   1.242   3.120  0.3739  0.1624  0.3945
  324MOL0     C43639  10.259   1.213   3.130  0.1416  0.3183  1.1591
  324MOL0     C43640  10.354   1.299   3.072  0.3057  0.6923  0.6087
  324MOL0     O43641  10.492   1.278   3.076  0.2175  0.0562 -0.0091
  324MOL0     C43642  10.549   1.205   3.183  0.2258  0.5448 -0.6269
  324MOL0     C43643  10.695   1.215   3.183 -1.3141  0.8841  0.1592
  324MOL0     C43644  10.774   1.158   3.060  1.3117 -0.4668 -0.7914
  324MOL0     C43645  10.925   1.193   3.080 -1.0426 -0.5039  0.3129
  324MOL0     C43646  11.025   1.147   2.965 -1.0218  0.0904 -0.3166
  324MOL0     C43647  11.164   1.203   2.956 -0.8263  0.6186 -0.2179
  324MOL0     C43648  11.251   1.132   2.854 -0.0539  0.6342 -0.2600
  324MOL0     C43649  11.352   1.030   2.916  0.5157  0.6704  0.1752
  324MOL0    Cl43650  11.465   1.074   3.035 -0.1276 -0.3894 -0.0810
  324MOL0     C43651  10.312   1.415   2.998 -0.0992 -0.4743 -0.5691
  324MOL0     C43652  10.171   1.440   2.993 -0.4390 -0.7808  1.3018
  324MOL0     O43653   9.963   1.588   3.130  0.0542  0.2449  0.8342
  324MOL0     C43654   9.690   1.645   3.064  0.0134  0.3243 -0.1873
  324MOL0     C43655   9.556   1.667   3.064 -1.1045 -0.8397  0.4336
  324MOL0     N43656   8.805   1.697   3.310  0.1002 -0.4467 -0.1203
  324MOL0     N43657   8.707   1.615   3.320 -0.4340 -0.2408 -0.6679
  324MOL0     C43658   7.695   1.475   3.185 -0.0293  0.0890 -0.5469
  324MOL0     C43659   7.664   1.598   3.234  0.5053 -0.3191 -0.0783
  324MOL0     C43660   7.514   1.939   3.500  0.3748 -0.2889 -0.5603
  324MOL0     C43661   7.608   2.045   3.490  0.3999 -0.4413 -0.2555
  324MOL0     C43662   7.579   2.179   3.525  0.2478  0.2266 -0.0310
  324MOL0     C43663   7.458   2.209   3.581 -0.2492  0.5633  0.2356
  324MOL0     O43664   7.443   2.335   3.631 -0.3019  0.3382  0.4476
  324MOL0     C43665   7.356   2.353   3.740  0.7779 -0.8569  0.1218
  324MOL0     C43666   7.394   2.264   3.868  0.0708  0.4988  0.1339
  324MOL0     C43667   7.315   2.317   3.988 -0.2353  1.1603  0.2305
  324MOL0     C43668   7.284   2.216   4.091 -0.5546  0.9956 -0.1082
  324MOL0     C43669   7.254   2.275   4.222 -0.3794  0.2001 -0.4479
  324MOL0     C43670   7.205   2.333   4.316 -1.1735  0.8456  0.1764
  324MOL0     C43671   7.361   2.109   3.601  0.0641  0.6831 -0.1989
  324MOL0     C43672   7.389   1.980   3.554 -0.5663  0.0240  0.4374
  324MOL0     H43673   7.740   1.558   3.572  6.5116  1.7518  0.1882
  324MOL0     H43674   7.797   1.336   3.470 -3.4501 -2.2265 -1.6468
  324MOL0     H43675   7.749   1.145   3.056  2.1895  1.8131 -3.3899
  324MOL0     H43676   7.815   1.293   3.061 -2.2183  0.8481  0.6877
  324MOL0     H43677   7.936   1.070   3.226 -0.2756 -0.0267 -0.7468
  324MOL0     H43678   7.984   1.110   3.062 -2.1821  0.8901 -0.4077
  324MOL0     H43679   8.007   1.292   3.306  1.3888  2.6765  0.0825
  324MOL0     H43680   8.146   1.207   3.234 -0.3241 -1.2090 -0.2879
  324MOL0     H43681   8.093   1.340   3.019  0.6369 -0.3296 -0.7658
  324MOL0     H43682   7.987   1.427   3.127 -0.7558 -1.1374  3.9977
  324MOL0     H43683   8.167   1.567   3.173 -2.7396 -1.1171  3.7322
  324MOL0     H43684   8.207   1.440   3.294 -2.0785  1.4108  1.7457
  324MOL0     H43685   8.355   1.329   3.143  3.3234  1.6653  1.6331
  324MOL0     H43686   8.345   1.452   3.026 -1.9526 -0.7119  0.0908
  324MOL0     H43687   8.447   1.619   3.192  5.1288  0.4378  1.8621
  324MOL0     H43688   8.436   1.508   3.314  3.4841  1.8678  0.3761
  324MOL0     H43689   8.591   1.415   3.073 -0.6415 -1.5086  0.9624
  324MOL0     H43690   8.616   1.373   3.233 -0.2759 -1.6123 -1.1811
  324MOL0     H43691   8.758   1.645   2.993 -4.6991  3.1241 -0.4285
  324MOL0     H43692   8.943   1.832   3.034 -1.6519 -1.4368  0.8825
  324MOL0     H43693   8.959   1.898   3.194 -1.1103 -0.0724  0.3423
  324MOL0     H43694   9.119   1.737   3.265  3.1377  0.4440 -0.0488
  324MOL0     H43695   9.163   1.794   3.106 -2.8666  1.0505 -2.7402
  324MOL0     H43696   9.071   1.593   2.989 -2.0914 -0.2021  0.6165
  324MOL0     H43697   9.011   1.517   3.139  2.1433 -3.7565 -0.0478
  324MOL0     H43698   9.218   1.422   3.078  2.0544  0.0890  0.1953
  324MOL0     H43699   9.246   1.504   3.236  1.2504  0.8777  0.4424
  324MOL0     H43700   9.446   1.376   3.181 -0.6641  1.3049  0.2966
  324MOL0     H43701   9.728   1.239   3.033  2.1972  2.6109  0.1740
  324MOL0     H43702   9.749   1.247   3.212 -1.4782 -1.4811  0.8134
  324MOL0     H43703   9.592   1.201   3.141  1.7485 -1.4592 -0.1332
  324MOL0     H43704  10.044   1.178   3.158  0.2650 -1.5784 -2.4604
  324MOL0     H43705  10.277   1.119   3.181  0.4561  0.2031  0.8414
  324MOL0     H43706  10.511   1.257   3.272 -1.9574  0.1437 -1.2562
  324MOL0     H43707  10.508   1.103   3.182 -1.1866  0.9681  2.1579
  324MOL0     H43708  10.719   1.321   3.192 -3.8248  1.5791 -0.3686
  324MOL0     H43709  10.746   1.169   3.267  1.1648  0.7735 -1.3037
  324MOL0     H43710  10.729   1.204   2.972 -0.8410 -1.8800 -0.5195
  324MOL0     H43711  10.774   1.048   3.058  5.1255 -0.7002  1.8895
  324MOL0     H43712  10.938   1.300   3.094 -0.7697 -0.3774 -0.8451
  324MOL0     H43713  10.959   1.139   3.169 -1.3646 -0.7517  0.2888
  324MOL0     H43714  10.968   1.172   2.875  0.9352 -1.5372 -2.1103
  324MOL0     H43715  11.035   1.040   2.982 -0.6877 -0.1125 -1.6709
  324MOL0     H43716  11.165   1.311   2.937 -0.0820  1.1485  2.3987
  324MOL0     H43717  11.205   1.185   3.056 -1.6961 -1.7814 -0.2403
  324MOL0     H43718  11.305   1.200   2.788  0.3975 -2.4178 -3.3096
  324MOL0     H43719  11.182   1.071   2.795 -0.1595 -0.2641  0.7596
  324MOL0     H43720  11.405   0.994   2.827 -0.0371  1.8518 -0.6717
  324MOL0     H43721  11.292   0.946   2.951  0.8928  0.9592  1.5764
  324MOL0     H43722  10.388   1.473   2.948  0.2877 -1.5497 -1.2509
  324MOL0     H43723  10.141   1.525   2.933 -0.9728  0.0558  2.6986
  324MOL0     H43724   9.759   1.726   3.042  0.5617 -0.4757 -1.5587
  324MOL0     H43725   9.520   1.762   3.023 -2.4995  0.0275  3.3784
  324MOL0     H43726   7.674   1.466   3.079  4.0533  4.3525 -2.1263
  324MOL0     H43727   7.628   1.673   3.165  1.2812 -0.6494 -0.8695
  324MOL0     H43728   7.699   2.023   3.434  0.3947  1.9927 -1.3399
  324MOL0     H43729   7.663   2.247   3.531  1.9508 -1.7788 -0.0894
  324MOL0     H43730   7.366   2.461   3.756  1.4545 -1.3739  4.3604
  324MOL0     H43731   7.257   2.336   3.699  1.9094  3.4373 -5.6854
  324MOL0     H43732   7.502   2.261   3.882 -0.0407 -0.7164  0.9617
  324MOL0     H43733   7.378   2.161   3.836  0.1289  1.6012 -3.9410
  324MOL0     H43734   7.220   2.364   3.960 -1.4769  1.2119  3.9897
  324MOL0     H43735   7.376   2.396   4.034  2.3718 -1.6189  1.9708
  324MOL0     H43736   7.369   2.148   4.107 -1.7054 -0.7215 -1.0196
  324MOL0     H43737   7.190   2.164   4.071 -1.3596  2.0687  0.8094
  324MOL0     H43738   7.166   2.394   4.395 -1.1105  0.9940  0.0938
  324MOL0     H43739   7.269   2.120   3.656 -0.1883 -0.9285 -0.2301
  324MOL0     H43740   7.306   1.911   3.565 -1.9024  1.3720 -0.6606
  325MOL0     O43741   1.146   3.852   7.486  0.6414  0.5499 -0.0479
  325MOL0     C43742   1.097   3.784   7.394  0.5874 -0.0243  1.0143
  325MOL0     O43743   1.023   3.829   7.288  0.0561  1.2866  0.2919
  325MOL0     C43744   1.022   3.962   7.284  0.4927 -0.3022  0.5008
  325MOL0     C43745   1.134   4.028   7.245  0.5342  0.0167  0.2824
  325MOL0     C43746   1.143   4.165   7.238  0.2931  0.5817 -0.4151
  325MOL0     C43747   1.026   4.247   7.265  0.8700  1.0339 -0.3432
  325MOL0     O43748   1.017   4.381   7.257 -0.6004  0.1193  0.4300
  325MOL0     C43749   1.017   4.460   7.377 -0.5742  0.5237  0.2383
  325MOL0     C43750   0.873   4.480   7.433 -0.2425 -0.0173 -0.0960
  325MOL0     C43751   0.756   4.497   7.336  0.8201 -0.5993 -0.1645
  325MOL0     C43752   0.751   4.638   7.291 -1.0925  0.4795  0.7184
  325MOL0     C43753   0.619   4.678   7.238  0.6791 -0.3810 -0.0686
  325MOL0     C43754   0.600   4.839   7.224  0.1568  0.5471 -0.2923
  325MOL0     C43755   0.586   4.897   7.363 -0.1270  0.6984 -0.3728
  325MOL0     C43756   0.530   5.044   7.370  0.8061  0.2921  0.0850
  325MOL0     N43757   0.502   5.089   7.510  0.0588 -0.4087 -0.1015
  325MOL0     C43758   0.596   5.153   7.594  0.6353  0.0615 -0.2131
  325MOL0     C43759   0.537   5.174   7.714  0.1226  0.9694  0.3097
  325MOL0     C43760   0.600   5.257   7.815  0.1483  0.5715 -0.2491
  325MOL0     C43761   0.743   5.213   7.880 -0.7431 -0.3257 -0.1238
  325MOL0     C43762   0.749   5.082   7.955  1.0873 -0.3036  0.2637
  325MOL0     C43763   0.782   5.094   8.098 -1.2170 -0.0421  1.1098
  325MOL0     O43764   0.659   5.135   8.164  0.1258 -0.2757  0.0947
  325MOL0     C43765   0.692   5.194   8.277 -0.2858  0.0789 -0.2914
  325MOL0     C43766   0.780   5.145   8.381  0.5144 -0.1825 -0.4116
  325MOL0     C43767   0.795   5.209   8.507 -0.8968 -0.0596  0.3813
  325MOL0     C43768   0.896   5.151   8.608  0.6342 -0.4414  0.1969
  325MOL0     C43769   0.724   5.323   8.529  0.1162 -0.8630 -0.2125
  325MOL0     C43770   0.731   5.412   8.652 -1.2335  0.5982  0.0254
  325MOL0     O43771   0.655   5.529   8.656 -0.0545 -0.0083 -0.5310
  325MOL0     C43772   0.633   5.579   8.782  0.7801 -0.3105 -0.0227
  325MOL0     C43773   0.703   5.689   8.826  0.7245  0.0892 -0.5360
  325MOL0     C43774   0.668   5.747   8.952  0.0950  0.7307 -0.0278
  325MOL0     C43775   0.570   5.686   9.028 -0.3222 -0.1062 -0.0866
  325MOL0     O43776   0.550   5.746   9.151 -0.2472 -0.5136 -0.1117
  325MOL0     C43777   0.423   5.718   9.220 -0.4485 -0.5208 -0.4617
  325MOL0     C43778   0.414   5.825   9.325 -0.2882 -0.3457  0.2941
  325MOL0     C43779   0.520   5.818   9.434 -0.1690 -0.3043 -0.3186
  325MOL0     C43780   0.524   5.954   9.500 -0.1557  0.0499 -0.6254
  325MOL0     C43781   0.637   5.945   9.608 -1.0022 -0.8056  0.0901
  325MOL0     C43782   0.639   6.059   9.703  0.3665 -0.5480 -0.2396
  325MOL0     C43783   0.749   6.041   9.802  0.5344  0.4331  0.4723
  325MOL0     C43784   0.764   6.143   9.918 -0.0208 -0.1764  0.4208
  325MOL0    Cl43785   0.628   6.169  10.019 -0.3588 -0.0134 -0.0094
  325MOL0     C43786   0.510   5.565   8.996  1.1660  0.0351  0.4241
  325MOL0     C43787   0.544   5.516   8.872  0.2609  0.9229  0.3493
  325MOL0     O43788   0.789   5.370   8.748 -0.4478 -0.5606  0.4495
  325MOL0     C43789   0.642   5.377   8.434 -0.9266 -0.5329  0.7147
  325MOL0     C43790   0.620   5.305   8.317 -0.0540  0.3875  0.5799
  325MOL0     N43791   0.412   5.111   7.712  0.6358 -0.5341  0.3717
  325MOL0     N43792   0.389   5.069   7.588 -0.0991  0.7164 -0.3483
  325MOL0     C43793   0.915   4.179   7.302  0.0587 -0.2406 -0.4309
  325MOL0     C43794   0.909   4.042   7.327 -0.1025  0.3872 -0.5100
  325MOL0     C43795   1.139   3.639   7.403  0.4107  0.1009  0.3125
  325MOL0     C43796   1.093   3.557   7.308  0.6554  0.3755  0.4218
  325MOL0     C43797   1.140   3.424   7.300 -0.4298 -0.5258  0.2487
  325MOL0     C43798   1.228   3.381   7.401 -0.4242 -0.9606 -0.2532
  325MOL0     O43799   1.275   3.256   7.396  0.6367  0.8085 -0.1602
  325MOL0     C43800   1.406   3.218   7.348  0.4490  0.2306  1.1956
  325MOL0     C43801   1.422   3.192   7.201  0.4549  0.5243 -0.6560
  325MOL0     C43802   1.428   3.309   7.114  0.5554  0.0605 -0.1427
  325MOL0     C43803   1.356   3.290   6.980 -0.3403 -0.0334 -0.3176
  325MOL0     C43804   1.379   3.396   6.878 -0.1440  0.4470  0.0423
  325MOL0     C43805   1.372   3.479   6.789 -0.4120  0.3253 -0.2664
  325MOL0     C43806   1.266   3.456   7.511  0.3060  0.4293  0.5684
  325MOL0     C43807   1.216   3.590   7.507 -0.5641  0.0328  0.1679
  325MOL0     H43808   1.217   3.966   7.212  2.0531 -0.6351  4.6236
  325MOL0     H43809   1.226   4.219   7.193  1.4712  0.2798  1.3089
  325MOL0     H43810   1.100   4.431   7.443 -2.3066  0.3237  2.4623
  325MOL0     H43811   1.051   4.554   7.335 -1.3745  0.0595 -1.5481
  325MOL0     H43812   0.855   4.390   7.493 -0.6698  0.1859  0.0824
  325MOL0     H43813   0.863   4.561   7.505 -0.9327 -1.2223  1.2249
  325MOL0     H43814   0.777   4.428   7.253  0.4440 -0.0416 -0.7298
  325MOL0     H43815   0.663   4.466   7.384  2.0136  0.5835  3.1642
  325MOL0     H43816   0.785   4.697   7.377  2.8213 -1.1066  0.4751
  325MOL0     H43817   0.824   4.654   7.211 -1.9804 -0.7897 -0.3601
  325MOL0     H43818   0.618   4.649   7.133  0.8922  0.1894 -0.2324
  325MOL0     H43819   0.545   4.623   7.297 -0.9153  1.0128 -0.6894
  325MOL0     H43820   0.694   4.875   7.180  0.4797 -0.2393 -0.2715
  325MOL0     H43821   0.518   4.873   7.159 -0.0258 -0.2586 -0.4954
  325MOL0     H43822   0.528   4.831   7.429 -0.0750  4.2123  3.7014
  325MOL0     H43823   0.682   4.895   7.415 -1.1291 -0.0482  1.5647
  325MOL0     H43824   0.445   5.037   7.302  1.4830 -3.2394 -0.6209
  325MOL0     H43825   0.613   5.098   7.324  0.9367  0.9599  1.0844
  325MOL0     H43826   0.694   5.191   7.569  0.9309 -2.2168 -3.0108
  325MOL0     H43827   0.602   5.359   7.775  2.4181  0.9495  0.6961
  325MOL0     H43828   0.525   5.251   7.895 -1.3834  0.4246 -1.6253
  325MOL0     H43829   0.750   5.290   7.957 -3.3988  0.1417 -0.2708
  325MOL0     H43830   0.829   5.222   7.813 -1.7920 -3.5325 -2.1554
  325MOL0     H43831   0.825   5.020   7.906  0.3538 -3.4057  2.7226
  325MOL0     H43832   0.651   5.038   7.936 -0.0957  2.9057 -1.9128
  325MOL0     H43833   0.862   5.168   8.102 -0.0776 -0.9823 -1.8961
  325MOL0     H43834   0.815   4.994   8.129 -4.7116 -1.9169 -0.5263
  325MOL0     H43835   0.845   5.058   8.380  2.4839  0.9703  3.5784
  325MOL0     H43836   0.957   5.228   8.657 -2.6265  0.3401  3.5079
  325MOL0     H43837   0.836   5.109   8.690  0.4361  0.0828  0.3234
  325MOL0     H43838   0.967   5.078   8.569  4.0014  1.2693  2.6259
  325MOL0     H43839   0.789   5.724   8.769  2.0514 -1.3133  0.5047
  325MOL0     H43840   0.732   5.825   8.992  0.6357  0.1460  0.2660
  325MOL0     H43841   0.337   5.722   9.153 -0.0199 -1.0006 -1.0555
  325MOL0     H43842   0.432   5.623   9.273  2.1868 -0.8190 -1.3135
  325MOL0     H43843   0.424   5.914   9.261  0.7763 -2.5906 -2.9130
  325MOL0     H43844   0.322   5.847   9.379  0.9834  2.4103  1.5816
  325MOL0     H43845   0.621   5.787   9.405  0.1410  1.0112 -0.7135
  325MOL0     H43846   0.483   5.750   9.511 -3.5126  1.4688 -0.1463
  325MOL0     H43847   0.547   6.037   9.433  0.2113  1.2552  0.9315
  325MOL0     H43848   0.428   5.972   9.549 -0.7805 -0.4332 -1.6411
  325MOL0     H43849   0.728   5.939   9.547 -0.3389  0.4716  0.9313
  325MOL0     H43850   0.637   5.850   9.662 -1.1142  0.0861  1.7018
  325MOL0     H43851   0.640   6.157   9.654  1.4976  0.5079  1.7556
  325MOL0     H43852   0.553   6.052   9.770  0.5447 -4.6913 -0.1682
  325MOL0     H43853   0.844   6.040   9.748  0.4502  3.1489  0.0988
  325MOL0     H43854   0.725   5.947   9.852 -0.8527  1.4590  1.8491
  325MOL0     H43855   0.800   6.237   9.875 -1.0219  0.3730  0.7505
  325MOL0     H43856   0.835   6.083   9.975  0.4205 -1.7616 -1.6410
  325MOL0     H43857   0.430   5.517   9.052 -0.8214  1.5184 -1.0073
  325MOL0     H43858   0.484   5.434   8.833  0.1875  0.6945  0.9330
  325MOL0     H43859   0.577   5.463   8.442  0.1340  0.3957 -0.1898
  325MOL0     H43860   0.537   5.329   8.251  0.8682 -2.9968 -2.1315
  325MOL0     H43861   0.833   4.240   7.339  0.1324 -0.7464  0.6015
  325MOL0     H43862   0.816   4.000   7.365 -0.3223  0.3871 -1.0344
  325MOL0     H43863   1.021   3.607   7.244  1.9343  1.4122 -0.2414
  325MOL0     H43864   1.115   3.368   7.211  1.5602  1.3743 -1.6358
  325MOL0     H43865   1.492   3.282   7.367 -0.4772  1.7395  0.4739
  325MOL0     H43866   1.415   3.113   7.378  1.3995 -0.7804 -2.2142
  325MOL0     H43867   1.343   3.127   7.162 -0.9220  2.8489 -1.9723
  325MOL0     H43868   1.511   3.137   7.170 -1.1787 -0.4548 -4.1295
  325MOL0     H43869   1.534   3.324   7.093  1.0399 -3.3976 -0.7689
  325MOL0     H43870   1.372   3.388   7.165  2.4202 -0.6708  3.3494
  325MOL0     H43871   1.252   3.266   7.003  0.4298 -3.8050 -0.1526
  325MOL0     H43872   1.386   3.196   6.934 -0.7635 -0.3819  0.1019
  325MOL0     H43873   1.349   3.559   6.722 -1.4912 -0.3281 -0.7017
  325MOL0     H43874   1.349   3.423   7.573 -0.5564  0.7354  1.9363
  325MOL0     H43875   1.244   3.653   7.590  3.1115  0.1259 -0.9150
  326MOL0     O43876   7.884  10.059   1.577  0.0432  0.4446 -0.1099
  326MOL0     C43877   7.774  10.105   1.567  0.2373 -0.2720 -0.2220
  326MOL0     O43878   7.738  10.213   1.490  0.4668  0.3305 -0.3843
  326MOL0     C43879   7.807  10.231   1.375  0.9360 -0.6155  1.4667
  326MOL0     C43880   7.890  10.343   1.352 -0.2845  0.8430 -1.0490
  326MOL0     C43881   7.952  10.353   1.233 -0.1249  0.0413 -0.4706
  326MOL0     C43882   7.950  10.258   1.138  0.0182  0.2256  0.8735
  326MOL0     O43883   8.019  10.284   1.025 -0.7839  0.3706 -0.4039
  326MOL0     C43884   8.063  10.170   0.953 -0.3854 -0.8863 -0.1734
  326MOL0     C43885   8.181  10.226   0.871  0.2554  0.1615 -0.0201
  326MOL0     C43886   8.308  10.219   0.965  0.1747  0.5932 -0.1355
  326MOL0     C43887   8.432  10.281   0.897  1.0411 -0.2104 -0.4993
  326MOL0     C43888   8.565  10.258   0.963 -0.4019  0.4617 -0.3765
  326MOL0     C43889   8.680  10.346   0.903 -0.9495  0.7113 -0.4323
  326MOL0     C43890   8.811  10.285   0.878 -0.2926  0.9696 -0.6834
  326MOL0     C43891   8.860  10.174   0.967 -0.7126  0.5284 -1.0355
  326MOL0     N43892   8.890  10.226   1.101  0.2428 -0.0819 -0.3407
  326MOL0     C43893   8.828  10.182   1.218  0.3343 -0.6866  0.5484
  326MOL0     C43894   8.904  10.224   1.319 -0.7006  0.3465  0.2220
  326MOL0     C43895   8.891  10.202   1.467  0.1337 -1.4095  0.3976
  326MOL0     C43896   8.905  10.061   1.527  0.1597  0.1679  0.3796
  326MOL0     C43897   8.790   9.968   1.483 -0.7506 -0.4413  0.2326
  326MOL0     C43898   8.763   9.839   1.557 -0.0870 -0.5625 -1.0806
  326MOL0     O43899   8.888   9.768   1.560  1.0122  1.0390  0.0162
  326MOL0     C43900   8.902   9.660   1.644 -0.0378 -0.1796  0.6920
  326MOL0     C43901   9.031   9.619   1.651 -0.2452 -0.6598 -0.2446
  326MOL0     C43902   9.075   9.520   1.731  0.6797  0.9150 -0.5384
  326MOL0     C43903   9.215   9.473   1.733 -0.0473 -0.8938 -0.2138
  326MOL0     C43904   8.978   9.449   1.813 -0.1173 -0.1563  0.1085
  326MOL0     C43905   8.996   9.343   1.921 -0.8584  0.0495 -0.3759
  326MOL0     O43906   8.886   9.293   1.989  0.8500  0.1559 -0.3755
  326MOL0     C43907   8.901   9.207   2.104 -0.1815 -0.0373  0.2183
  326MOL0     C43908   8.997   9.229   2.206 -0.6516 -1.0375 -0.2564
  326MOL0     C43909   8.995   9.146   2.314  0.6907  0.2432  0.1871
  326MOL0     C43910   8.904   9.037   2.330 -0.5989 -0.4121  0.2240
  326MOL0     O43911   8.905   8.956   2.437  0.3007  0.0449  0.2544
  326MOL0     C43912   9.029   8.946   2.510 -0.7429 -0.5857  0.4082
  326MOL0     C43913   8.999   8.852   2.630  0.4322 -0.4773  0.1202
  326MOL0     C43914   8.865   8.882   2.700  0.4110 -0.3987  0.9292
  326MOL0     C43915   8.839   8.783   2.816 -0.5422  0.3770  0.9809
  326MOL0     C43916   8.740   8.841   2.912 -0.3299  0.3594  1.2008
  326MOL0     C43917   8.700   8.752   3.031  0.3926 -1.0141  1.1441
  326MOL0     C43918   8.811   8.758   3.136 -0.8083 -0.2892  0.1111
  326MOL0     C43919   8.758   8.682   3.252  0.1743 -0.2881 -0.4712
  326MOL0    Cl43920   8.887   8.693   3.387  0.4102  0.0047  0.7018
  326MOL0     C43921   8.808   9.019   2.234 -0.5966 -0.4839 -0.3738
  326MOL0     C43922   8.815   9.100   2.118  0.1273 -0.9619 -0.3287
  326MOL0     O43923   9.110   9.307   1.937 -0.2007  0.5072  0.9173
  326MOL0     C43924   8.839   9.487   1.797  0.2148  1.1708 -0.3962
  326MOL0     C43925   8.802   9.590   1.708 -0.5397 -0.0685  1.0085
  326MOL0     N43926   9.019  10.274   1.264  0.7872  0.4086  0.3709
  326MOL0     N43927   8.999  10.293   1.136  0.3600  0.5631 -0.0519
  326MOL0     C43928   7.857  10.158   1.140 -0.4338  1.3324  0.0662
  326MOL0     C43929   7.796  10.134   1.266 -0.1172  0.7014 -0.4932
  326MOL0     C43930   7.662  10.056   1.662 -0.2868  0.6669 -0.2464
  326MOL0     C43931   7.529  10.079   1.640 -0.2455 -0.7498  0.6818
  326MOL0     C43932   7.433  10.038   1.734 -0.0324  0.0790 -0.3067
  326MOL0     C43933   7.462   9.960   1.849 -0.2456  0.9765 -0.0049
  326MOL0     O43934   7.353   9.920   1.929  0.0508 -0.3048  0.3222
  326MOL0     C43935   7.381   9.905   2.070  0.3050 -0.4810 -0.2554
  326MOL0     C43936   7.255   9.944   2.154 -0.5240 -0.3740 -1.1949
  326MOL0     C43937   7.223  10.094   2.142  0.4091 -0.5281  0.2428
  326MOL0     C43938   7.100  10.130   2.236  0.1477 -0.7363 -0.1236
  326MOL0     C43939   7.080  10.270   2.224 -0.9552 -0.8066  0.2975
  326MOL0     C43940   7.054  10.390   2.219 -0.1617  0.6811 -0.4442
  326MOL0     C43941   7.597   9.932   1.874  0.2727  0.5816  0.0467
  326MOL0     C43942   7.693   9.973   1.779 -0.1347  0.2568  0.3639
  326MOL0     H43943   7.907  10.411   1.435  3.2108 -1.2744  0.1967
  326MOL0     H43944   8.012  10.442   1.218 -3.7148  2.6520 -0.5440
  326MOL0     H43945   8.084  10.083   1.016 -3.5332 -2.2646 -0.7799
  326MOL0     H43946   7.981  10.128   0.894  0.1312  0.7584 -2.1824
  326MOL0     H43947   8.199  10.174   0.777 -2.1655  1.4695 -1.2827
  326MOL0     H43948   8.161  10.329   0.840 -0.4464 -0.9045 -3.4692
  326MOL0     H43949   8.285  10.277   1.055 -2.4031  0.4583 -0.6399
  326MOL0     H43950   8.324  10.117   1.000 -1.8696  0.4355  0.4987
  326MOL0     H43951   8.430  10.243   0.794  0.2075 -1.3297 -0.0881
  326MOL0     H43952   8.423  10.389   0.885 -0.0276 -0.1915  0.3591
  326MOL0     H43953   8.551  10.301   1.062  0.3326  2.0655 -0.9300
  326MOL0     H43954   8.596  10.153   0.973 -2.6286 -0.0856  1.5976
  326MOL0     H43955   8.645  10.389   0.809 -2.9222  2.1289  0.8545
  326MOL0     H43956   8.709  10.418   0.981 -0.2821 -1.9328  1.9379
  326MOL0     H43957   8.797  10.246   0.777 -3.2883 -1.4212  0.4849
  326MOL0     H43958   8.879  10.371   0.880 -1.7131  2.2205  2.8805
  326MOL0     H43959   8.947  10.131   0.915 -1.2157  1.0842 -2.3509
  326MOL0     H43960   8.788  10.092   0.975  0.3380 -0.3144  0.7086
  326MOL0     H43961   8.747  10.111   1.230 -1.0442  1.0186  1.9242
  326MOL0     H43962   8.960  10.265   1.524 -2.1548  2.9313 -1.1697
  326MOL0     H43963   8.788  10.233   1.486  1.0347  3.4266 -1.2874
  326MOL0     H43964   8.903  10.078   1.635  0.2559  2.9915  0.0074
  326MOL0     H43965   9.000  10.025   1.486 -0.8751 -2.0946 -0.2311
  326MOL0     H43966   8.810   9.949   1.377 -4.1036  0.5520 -0.6860
  326MOL0     H43967   8.698  10.026   1.480  1.4123  3.5105 -4.7213
  326MOL0     H43968   8.681   9.781   1.514  0.2847 -1.5999 -0.4551
  326MOL0     H43969   8.754   9.867   1.662  1.1653 -1.0847 -0.8162
  326MOL0     H43970   9.106   9.664   1.587 -1.1333  1.4684  0.1334
  326MOL0     H43971   9.278   9.555   1.697 -2.2885  2.2427  2.4182
  326MOL0     H43972   9.253   9.459   1.834 -1.2410  0.1677  0.4097
  326MOL0     H43973   9.237   9.384   1.672 -1.2523 -1.3623  0.0008
  326MOL0     H43974   9.070   9.307   2.186 -0.3254 -0.8658  1.4305
  326MOL0     H43975   9.074   9.161   2.386  0.3779 -0.9881  0.8051
  326MOL0     H43976   9.112   8.904   2.453 -1.4797 -3.6445  1.3995
  326MOL0     H43977   9.060   9.042   2.551 -0.2981  0.8273 -2.9179
  326MOL0     H43978   9.008   8.752   2.587  0.2852 -0.2096 -0.5358
  326MOL0     H43979   9.076   8.865   2.707  1.4861  0.5737 -1.0723
  326MOL0     H43980   8.781   8.864   2.633  3.6050 -0.2853 -3.5490
  326MOL0     H43981   8.853   8.987   2.728 -0.4683 -0.1572 -0.2587
  326MOL0     H43982   8.797   8.690   2.776 -0.3522  0.5650  0.3404
  326MOL0     H43983   8.937   8.751   2.854  1.8596 -1.7356 -5.5930
  326MOL0     H43984   8.655   8.882   2.857  1.1296  0.9672 -0.7479
  326MOL0     H43985   8.796   8.929   2.944  1.1248  0.6594 -1.7993
  326MOL0     H43986   8.614   8.803   3.077 -0.8819 -2.4513  0.4704
  326MOL0     H43987   8.677   8.649   3.002 -2.8165 -0.5300  1.5157
  326MOL0     H43988   8.828   8.863   3.161 -0.6938 -1.2189  5.1571
  326MOL0     H43989   8.899   8.705   3.098 -0.8175  0.1743 -0.5673
  326MOL0     H43990   8.756   8.577   3.222 -0.2023  0.3193 -2.7463
  326MOL0     H43991   8.656   8.711   3.280 -0.2985 -2.3079  0.0547
  326MOL0     H43992   8.732   8.942   2.222 -0.7634 -0.3751 -0.0276
  326MOL0     H43993   8.726   9.098   2.056  0.2503  1.2247 -0.6386
  326MOL0     H43994   8.761   9.439   1.855  1.8649  1.0207  1.7826
  326MOL0     H43995   8.700   9.621   1.689 -1.2622 -2.9360 -0.3028
  326MOL0     H43996   7.841  10.096   1.053  0.7603 -0.7372  1.2382
  326MOL0     H43997   7.726  10.055   1.290 -1.8021  2.8142  2.0893
  326MOL0     H43998   7.496  10.141   1.558 -0.7714  0.0558  1.4895
  326MOL0     H43999   7.328  10.054   1.714 -0.9648 -2.6134  1.8023
  326MOL0     H44000   7.392   9.797   2.084  1.5071 -0.0289  3.1593
  326MOL0     H44001   7.464   9.972   2.094  0.3329 -1.4512  2.7243
  326MOL0     H44002   7.268   9.908   2.256  0.7376 -0.2660 -1.3070
  326MOL0     H44003   7.169   9.892   2.110 -1.2514 -0.2684  0.0626
  326MOL0     H44004   7.189  10.105   2.039 -1.2135  0.3595  0.8322
  326MOL0     H44005   7.306  10.162   2.159  0.1099  0.1701 -1.0005
  326MOL0     H44006   7.125  10.121   2.342  2.4121 -1.1865 -0.6595
  326MOL0     H44007   7.004  10.089   2.202 -0.5304  1.2269 -0.7273
  326MOL0     H44008   7.051  10.496   2.226  2.2473  0.6809  2.2713
  326MOL0     H44009   7.629   9.878   1.962  1.3535  1.6585  0.3428
  326MOL0     H44010   7.793   9.934   1.793  0.2970  0.5206 -1.6306
  327MOL0     O44011   3.654   8.299  10.642 -0.1574  0.4577 -0.2903
  327MOL0     C44012   3.578   8.395  10.655 -1.2673 -0.2297 -0.8426
  327MOL0     O44013   3.451   8.412  10.600 -0.7532 -0.3255  0.1745
  327MOL0     C44014   3.404   8.298  10.538 -0.0600  0.3226 -0.7265
  327MOL0     C44015   3.369   8.305  10.404  0.2408 -0.2491  0.2428
  327MOL0     C44016   3.288   8.219  10.338  1.0748  1.1044 -0.2830
  327MOL0     C44017   3.259   8.087  10.394 -0.2237 -0.3682  0.3420
  327MOL0     O44018   3.208   7.994  10.309  0.2508  0.5094  0.5020
  327MOL0     C44019   3.193   7.859  10.360  0.9669 -0.3515 -0.4502
  327MOL0     C44020   3.104   7.783  10.266 -0.5962 -0.1182  0.3939
  327MOL0     C44021   3.058   7.644  10.329  0.8409  0.3284 -0.0731
  327MOL0     C44022   3.166   7.534  10.331 -0.4668  0.0272 -0.6696
  327MOL0     C44023   3.103   7.415  10.401  0.9224  0.3905 -0.1422
  327MOL0     C44024   3.053   7.299  10.306 -0.1496 -0.5555  1.2481
  327MOL0     C44025   2.985   7.189  10.383 -0.7687 -0.2239  0.7086
  327MOL0     C44026   2.843   7.257  10.428 -0.4826  0.7293  0.7003
  327MOL0     N44027   2.761   7.145  10.461  0.5714  0.5001 -1.3090
  327MOL0     C44028   2.799   7.052  10.558 -0.0881  0.9649  0.9069
  327MOL0     C44029   2.689   6.969  10.578  0.8266 -0.0116 -0.4993
  327MOL0     C44030   2.677   6.853  10.673  0.5096  0.0656 -0.4337
  327MOL0     C44031   2.806   6.760  10.652 -0.0285 -0.4883 -0.0811
  327MOL0     C44032   2.761   6.612  10.679 -0.3016 -0.0865 -0.9573
  327MOL0     C44033   2.738   6.574  10.839 -0.2078 -0.3334  0.1826
  327MOL0     O44034   2.838   6.644  10.904 -0.6366 -0.5700 -0.6965
  327MOL0     C44035   2.950   6.591  10.955 -1.3868  0.5008 -0.4189
  327MOL0     C44036   2.994   6.454  10.939  1.6401 -0.0290  0.1646
  327MOL0     C44037   3.112   6.411  10.994  0.2248  0.9625 -0.0463
  327MOL0     C44038   3.155   6.275  10.945 -0.0862  0.2932 -0.0846
  327MOL0     C44039   3.185   6.499  11.079  0.3450 -0.0961  0.0521
  327MOL0     C44040   3.284   6.446  11.181 -0.9100 -0.4747  0.8784
  327MOL0     O44041   3.344   6.537  11.257 -1.2435 -0.3051  0.3572
  327MOL0     C44042   3.461   6.493  11.320  0.3027 -0.1249  0.0548
  327MOL0     C44043   3.488   6.514  11.460 -0.9401  0.2358 -0.2055
  327MOL0     C44044   3.624   6.486  11.504 -0.5506 -0.3367 -0.0371
  327MOL0     C44045   3.726   6.444  11.422 -0.9019  0.1676  0.3500
  327MOL0     O44046   3.857   6.444  11.459 -0.0585 -0.2987 -0.7451
  327MOL0     C44047   3.928   6.331  11.421 -0.0700  0.7876 -0.5630
  327MOL0     C44048   4.017   6.271  11.535 -1.4092  0.6726 -0.2188
  327MOL0     C44049   4.097   6.370  11.617 -0.4099 -0.4373 -0.3802
  327MOL0     C44050   4.229   6.310  11.661 -0.3470 -0.6360  0.0069
  327MOL0     C44051   4.234   6.258  11.811  0.2457  0.3719  0.1703
  327MOL0     C44052   4.229   6.376  11.919  0.0514  0.5389  0.1752
  327MOL0     C44053   4.220   6.327  12.058  0.2463 -0.0990 -0.3857
  327MOL0     C44054   4.235   6.447  12.147 -0.0630  0.0417 -0.1756
  327MOL0    Cl44055   4.407   6.498  12.150  0.2845 -0.0256  0.3738
  327MOL0     C44056   3.688   6.439  11.284 -0.4613  0.6554  0.6563
  327MOL0     C44057   3.559   6.451  11.237 -0.2210  0.0086 -0.0384
  327MOL0     O44058   3.289   6.323  11.196 -0.4568 -0.2452  0.1170
  327MOL0     C44059   3.147   6.635  11.093  0.2662  0.2535 -0.1057
  327MOL0     C44060   3.031   6.672  11.026  0.6721 -0.0092 -0.0245
  327MOL0     N44061   2.585   7.018  10.492 -0.2723 -1.0385 -0.7916
  327MOL0     N44062   2.634   7.120  10.431 -0.7765  0.1600  0.5262
  327MOL0     C44063   3.301   8.074  10.529  0.6774  0.4862  0.8097
  327MOL0     C44064   3.367   8.173  10.603  0.0602  0.4934 -0.4288
  327MOL0     C44065   3.639   8.500  10.743  0.7180  0.7557 -0.0392
  327MOL0     C44066   3.761   8.478  10.822  0.4186  0.6487  0.1821
  327MOL0     C44067   3.812   8.574  10.909  0.5364 -0.2160 -0.2528
  327MOL0     C44068   3.735   8.687  10.949  0.0621  0.3273 -0.3271
  327MOL0     O44069   3.772   8.785  11.033  1.4033 -0.4795 -0.6688
  327MOL0     C44070   3.679   8.790  11.148  0.5876 -0.1018 -0.1858
  327MOL0     C44071   3.722   8.898  11.246  0.0260 -0.7248  0.2487
  327MOL0     C44072   3.617   8.950  11.347  0.3021  0.6331 -0.2616
  327MOL0     C44073   3.525   9.054  11.281 -0.0150 -0.7233 -0.1779
  327MOL0     C44074   3.605   9.180  11.258 -0.4942 -0.2684  0.1180
  327MOL0     C44075   3.664   9.285  11.234  0.4480 -0.0992 -0.3253
  327MOL0     C44076   3.614   8.710  10.873 -0.6482  0.0723 -0.0469
  327MOL0     C44077   3.576   8.625  10.762  0.7634  0.0040  0.0227
  327MOL0     H44078   3.402   8.396  10.354  1.2805 -0.6584  0.1481
  327MOL0     H44079   3.266   8.242  10.234  0.7840  1.2902 -0.1814
  327MOL0     H44080   3.290   7.809  10.369  0.8231 -0.6526 -0.5489
  327MOL0     H44081   3.150   7.879  10.459  0.0347 -1.5763 -0.5816
  327MOL0     H44082   3.011   7.840  10.262 -0.5390  0.0064  0.7909
  327MOL0     H44083   3.151   7.767  10.169 -0.1865  1.3669  0.3349
  327MOL0     H44084   3.028   7.669  10.431 -1.0061  1.0587 -0.7586
  327MOL0     H44085   2.973   7.608  10.270 -1.1076  0.4206  2.5432
  327MOL0     H44086   3.216   7.500  10.240 -2.2587 -2.0718 -0.9560
  327MOL0     H44087   3.234   7.579  10.405 -1.5041  1.2815 -0.4610
  327MOL0     H44088   3.173   7.380  10.477  0.1077  2.3080  1.5540
  327MOL0     H44089   3.021   7.449  10.464  0.8051 -1.5537  0.8303
  327MOL0     H44090   2.990   7.338  10.226  0.8807  0.4029  0.8896
  327MOL0     H44091   3.142   7.245  10.275 -0.6620 -0.8146  0.1702
  327MOL0     H44092   2.958   7.113  10.309 -0.0068 -1.5907  1.7819
  327MOL0     H44093   3.042   7.146  10.465  0.3828 -2.8738 -1.3183
  327MOL0     H44094   2.788   7.299  10.343 -1.1719 -2.0545 -0.3369
  327MOL0     H44095   2.854   7.333  10.506  1.6929  1.5701 -0.3440
  327MOL0     H44096   2.886   7.047  10.622 -0.7965  0.7413  1.8564
  327MOL0     H44097   2.680   6.896  10.774  3.0779  2.1359 -1.2898
  327MOL0     H44098   2.591   6.788  10.654  0.6850 -0.3705  0.2336
  327MOL0     H44099   2.890   6.787  10.717 -1.6844 -0.2839  2.0781
  327MOL0     H44100   2.845   6.773  10.550  2.1672 -0.5995  0.6932
  327MOL0     H44101   2.834   6.539  10.646  0.2521 -0.4067  0.8485
  327MOL0     H44102   2.667   6.590  10.628 -1.9542  1.7244  1.0924
  327MOL0     H44103   2.727   6.466  10.851 -0.6832 -0.0734  2.4219
  327MOL0     H44104   2.645   6.615  10.880  0.2804  1.2185 -0.1837
  327MOL0     H44105   2.919   6.388  10.894  2.1923 -0.1082 -0.6752
  327MOL0     H44106   3.155   6.264  10.837 -0.1832 -0.2197 -0.0328
  327MOL0     H44107   3.250   6.242  10.988 -2.1725 -8.5121 -0.4211
  327MOL0     H44108   3.086   6.208  10.998 -1.5037  1.9178  0.2157
  327MOL0     H44109   3.405   6.549  11.520 -0.4127  1.1730  0.0099
  327MOL0     H44110   3.631   6.488  11.612 -1.5070 -1.2326  0.0539
  327MOL0     H44111   3.863   6.254  11.380  0.7750 -0.5594  0.5238
  327MOL0     H44112   3.993   6.373  11.344  1.3072 -0.5733 -0.1911
  327MOL0     H44113   3.965   6.217  11.615  4.5730 -1.8209  2.6296
  327MOL0     H44114   4.083   6.199  11.486 -1.0176 -1.2826  2.8737
  327MOL0     H44115   4.044   6.402  11.708  1.9870  0.5837  0.7567
  327MOL0     H44116   4.110   6.465  11.564 -1.2722 -1.3539 -2.3099
  327MOL0     H44117   4.268   6.235  11.593  0.9904  0.1162 -0.0839
  327MOL0     H44118   4.304   6.390  11.658 -0.4568 -0.5584 -0.9636
  327MOL0     H44119   4.322   6.198  11.836  0.9728  1.2276 -0.2509
  327MOL0     H44120   4.143   6.202  11.833  0.0254  1.0100  0.9496
  327MOL0     H44121   4.321   6.434  11.908 -0.6858  1.9447  1.1449
  327MOL0     H44122   4.152   6.450  11.895 -2.4922 -1.4974  1.5238
  327MOL0     H44123   4.299   6.253  12.075 -1.5986 -2.3012 -0.9665
  327MOL0     H44124   4.132   6.267  12.081  1.1346 -2.6585 -3.0542
  327MOL0     H44125   4.217   6.427  12.253  1.5902 -0.3535  0.0532
  327MOL0     H44126   4.170   6.530  12.115 -0.2360 -0.6134 -1.6038
  327MOL0     H44127   3.772   6.429  11.216 -0.8221 -0.5312  0.3536
  327MOL0     H44128   3.539   6.448  11.130 -2.2303  0.8339  0.2723
  327MOL0     H44129   3.193   6.702  11.164 -2.0127 -0.1545  1.8878
  327MOL0     H44130   2.996   6.773  11.042  0.0082 -0.3977  1.2155
  327MOL0     H44131   3.279   7.985  10.587 -2.7796  1.7024  1.6288
  327MOL0     H44132   3.375   8.153  10.709 -2.1685  1.9121  0.0792
  327MOL0     H44133   3.807   8.380  10.813  1.2537  1.2116 -2.6679
  327MOL0     H44134   3.898   8.564  10.974 -0.7824  2.0997  2.0475
  327MOL0     H44135   3.575   8.788  11.114 -0.5908 -1.5996  3.0774
  327MOL0     H44136   3.691   8.700  11.209 -0.5886 -0.3678 -0.3097
  327MOL0     H44137   3.764   8.984  11.193  3.3531 -3.3152 -1.7172
  327MOL0     H44138   3.805   8.848  11.297  0.6691 -0.5774 -0.6313
  327MOL0     H44139   3.666   8.989  11.436 -1.6399 -0.9716  1.5916
  327MOL0     H44140   3.551   8.870  11.381 -0.4899  2.0376  1.7234
  327MOL0     H44141   3.438   9.074  11.344  0.8767 -0.6748  1.0618
  327MOL0     H44142   3.484   9.032  11.182 -0.0353  1.0207 -0.5995
  327MOL0     H44143   3.718   9.377  11.221 -2.8505  2.2027  0.9124
  327MOL0     H44144   3.560   8.804  10.875 -0.3467  0.4020 -2.8426
  327MOL0     H44145   3.488   8.651  10.704  0.4462 -1.9150 -0.4179
  328MOL0     O44146   9.673   3.771   4.144 -0.4620  0.1860  0.0986
  328MOL0     C44147   9.788   3.724   4.172  0.8477 -0.3781 -0.3624
  328MOL0     O44148   9.827   3.583   4.145 -0.7190 -0.0789  0.5048
  328MOL0     C44149   9.724   3.509   4.107 -0.5728  0.3317  0.7649
  328MOL0     C44150   9.664   3.537   3.983 -0.2965  0.8484 -0.1651
  328MOL0     C44151   9.566   3.449   3.949 -0.5850 -0.3672 -0.0092
  328MOL0     C44152   9.519   3.345   4.029  0.1899  0.3980  1.1051
  328MOL0     O44153   9.422   3.256   3.987  0.0414  0.6617 -0.2870
  328MOL0     C44154   9.457   3.182   3.866  0.5381 -0.4828  0.2736
  328MOL0     C44155   9.372   3.240   3.749  0.1866 -0.6896  0.4281
  328MOL0     C44156   9.422   3.187   3.614 -0.5629  0.5964 -0.4372
  328MOL0     C44157   9.304   3.146   3.523 -0.3643 -0.1084 -0.2864
  328MOL0     C44158   9.370   3.132   3.392  0.6019 -1.1036 -0.7645
  328MOL0     C44159   9.252   3.124   3.285  0.0785 -0.1107  0.2588
  328MOL0     C44160   9.330   3.088   3.156 -0.7491 -0.5753  0.2480
  328MOL0     C44161   9.241   3.064   3.038 -1.0582 -0.3804  0.0000
  328MOL0     N44162   9.153   3.180   3.013 -0.2864 -0.2863 -0.5978
  328MOL0     C44163   9.199   3.315   3.002 -1.2645 -0.1823 -0.8519
  328MOL0     C44164   9.080   3.382   2.987 -0.0636 -0.5695  0.5591
  328MOL0     C44165   9.063   3.531   2.966  0.1945 -0.7079  0.9729
  328MOL0     C44166   8.970   3.592   3.064 -0.4113 -0.3733  0.4556
  328MOL0     C44167   8.908   3.715   3.022  0.2678  0.2213  0.1815
  328MOL0     C44168   8.843   3.723   2.875 -0.5980 -0.6552 -0.2211
  328MOL0     O44169   8.777   3.597   2.861 -0.2285  0.4256  1.0175
  328MOL0     C44170   8.640   3.604   2.849 -0.0343 -0.2542 -0.2152
  328MOL0     C44171   8.579   3.583   2.727 -0.1022 -1.0927 -0.6167
  328MOL0     C44172   8.441   3.592   2.712 -0.0546  0.3422 -0.3456
  328MOL0     C44173   8.386   3.546   2.577 -0.1679 -0.7309 -0.0716
  328MOL0     C44174   8.365   3.635   2.821  0.2905 -0.0319 -0.1691
  328MOL0     C44175   8.224   3.655   2.812  0.6387  1.0353  0.5008
  328MOL0     O44176   8.177   3.755   2.733 -0.1937  0.4389  0.1537
  328MOL0     C44177   8.046   3.780   2.710  0.0588 -0.1531 -0.0951
  328MOL0     C44178   7.947   3.762   2.799  1.2459 -0.1032  0.4060
  328MOL0     C44179   7.812   3.798   2.764 -0.4491 -0.0699  0.3216
  328MOL0     C44180   7.783   3.860   2.638 -0.1286 -0.1743 -0.2883
  328MOL0     O44181   7.651   3.884   2.613  0.3732  0.9791 -0.7016
  328MOL0     C44182   7.598   3.958   2.498  0.3258  0.4146  0.4748
  328MOL0     C44183   7.448   3.954   2.513 -0.3657 -1.3923 -1.2190
  328MOL0     C44184   7.401   3.811   2.497 -0.0443  0.7935  0.3614
  328MOL0     C44185   7.256   3.794   2.521  0.2394 -0.9764  0.7291
  328MOL0     C44186   7.169   3.825   2.390  0.0928 -0.5868 -0.7043
  328MOL0     C44187   7.022   3.819   2.418 -0.3741 -0.5188 -0.7965
  328MOL0     C44188   6.960   3.948   2.478 -0.3881 -0.6512  0.3468
  328MOL0     C44189   6.825   3.922   2.561  0.6482 -0.2503 -0.2985
  328MOL0    Cl44190   6.690   3.954   2.458  0.3478  0.3271 -0.4302
  328MOL0     C44191   7.890   3.878   2.550 -0.3181  0.1102  0.3042
  328MOL0     C44192   8.022   3.832   2.581 -0.0256  0.3823  0.0206
  328MOL0     O44193   8.158   3.577   2.873  0.0803  0.2901  0.1838
  328MOL0     C44194   8.431   3.646   2.951  0.1229 -0.7467 -0.0164
  328MOL0     C44195   8.564   3.645   2.961  0.6053 -0.3571 -1.0054
  328MOL0     N44196   8.982   3.290   2.984  0.5916 -0.5011 -0.8009
  328MOL0     N44197   9.026   3.167   3.000  0.6629  0.0895 -0.1040
  328MOL0     C44198   9.576   3.333   4.151  0.3533 -0.0882  0.4125
  328MOL0     C44199   9.689   3.404   4.192  0.3301 -0.0258  0.1008
  328MOL0     C44200   9.893   3.824   4.184 -0.8521  0.5463 -0.5135
  328MOL0     C44201   9.895   3.954   4.124 -0.7658  0.7894 -0.0946
  328MOL0     C44202  10.007   4.033   4.135 -0.1786  0.3106  0.8469
  328MOL0     C44203  10.106   3.996   4.221 -0.4281 -0.5885 -0.7169
  328MOL0     O44204  10.203   4.090   4.241 -0.1859  0.3422  0.4902
  328MOL0     C44205  10.335   4.066   4.281 -0.2449  0.0277 -0.7592
  328MOL0     C44206  10.391   4.201   4.319 -0.2729  0.0766 -0.6872
  328MOL0     C44207  10.535   4.199   4.350  0.2999  1.2868  0.4457
  328MOL0     C44208  10.557   4.168   4.500 -0.6169  1.0108 -0.0136
  328MOL0     C44209  10.702   4.175   4.532 -0.4974  0.3627  1.4297
  328MOL0     C44210  10.827   4.160   4.547 -0.3343  0.6150 -0.0069
  328MOL0     C44211  10.118   3.863   4.270 -0.1017  0.4666 -0.3122
  328MOL0     C44212  10.010   3.779   4.252 -0.9525  0.3052  0.5330
  328MOL0     H44213   9.682   3.626   3.923 -3.1555  0.6448 -1.5006
  328MOL0     H44214   9.531   3.465   3.848  0.3861 -0.1727 -0.3266
  328MOL0     H44215   9.561   3.204   3.838 -0.2536  2.1570 -0.8878
  328MOL0     H44216   9.450   3.074   3.886 -2.0651 -1.0577 -2.9695
  328MOL0     H44217   9.270   3.201   3.761 -0.1602 -0.4788 -1.4973
  328MOL0     H44218   9.368   3.349   3.746 -0.4221 -0.7203  0.0048
  328MOL0     H44219   9.485   3.267   3.574 -2.6757  2.4071 -0.3317
  328MOL0     H44220   9.481   3.095   3.628 -0.6683  0.4552 -0.9199
  328MOL0     H44221   9.261   3.048   3.548 -2.0281  0.4205 -0.8945
  328MOL0     H44222   9.220   3.216   3.533 -1.0914 -0.7097 -1.8340
  328MOL0     H44223   9.427   3.224   3.375  0.5548 -1.3205 -2.1633
  328MOL0     H44224   9.448   3.056   3.385  1.5621 -0.0539 -1.8885
  328MOL0     H44225   9.185   3.040   3.306  0.6737 -0.2091  1.9250
  328MOL0     H44226   9.199   3.219   3.274 -3.6447 -2.2560 -2.0839
  328MOL0     H44227   9.409   3.157   3.124 -2.1861  1.2617  0.4936
  328MOL0     H44228   9.376   2.992   3.184 -0.6765 -0.1620  1.5714
  328MOL0     H44229   9.182   2.975   3.064 -0.4656 -0.7798 -0.0010
  328MOL0     H44230   9.301   3.036   2.952  0.5087  0.8899  0.6344
  328MOL0     H44231   9.293   3.362   3.027  0.4134 -3.0728 -1.2479
  328MOL0     H44232   9.163   3.571   2.988  1.1206 -3.1494  1.5974
  328MOL0     H44233   9.024   3.545   2.865  0.6297 -1.8313  0.6276
  328MOL0     H44234   9.022   3.615   3.158  0.1612 -0.9323  0.2846
  328MOL0     H44235   8.899   3.511   3.084  0.8640 -1.6988 -0.1988
  328MOL0     H44236   8.984   3.794   3.029  1.3310 -0.7147 -0.5696
  328MOL0     H44237   8.823   3.741   3.085 -0.3038  1.7079 -1.1275
  328MOL0     H44238   8.911   3.743   2.793 -0.3229  3.1377  0.7592
  328MOL0     H44239   8.778   3.810   2.869 -1.2869 -1.0872  0.7143
  328MOL0     H44240   8.647   3.543   2.653 -0.5566 -1.1472 -1.0115
  328MOL0     H44241   8.428   3.458   2.529  1.6420  1.3193 -2.5551
  328MOL0     H44242   8.280   3.522   2.583 -0.1028 -1.5297 -1.6653
  328MOL0     H44243   8.404   3.629   2.507 -2.1374  0.7363  1.0434
  328MOL0     H44244   7.961   3.715   2.896  1.5058 -1.6097 -0.3360
  328MOL0     H44245   7.736   3.777   2.839 -1.1678  3.0495  0.5884
  328MOL0     H44246   7.631   4.062   2.493 -2.0286  1.1923  0.2190
  328MOL0     H44247   7.633   3.904   2.409  2.7278  3.1209 -0.3647
  328MOL0     H44248   7.411   4.006   2.602  0.4396  1.3287 -2.3745
  328MOL0     H44249   7.402   4.020   2.439  0.3807  2.5101  1.4576
  328MOL0     H44250   7.456   3.744   2.564  0.7128  2.2904  1.2968
  328MOL0     H44251   7.422   3.780   2.395 -1.6348  1.1316 -0.0979
  328MOL0     H44252   7.242   3.690   2.552 -1.9080 -1.2536 -1.0088
  328MOL0     H44253   7.221   3.857   2.603  0.9622  2.8893 -1.6561
  328MOL0     H44254   7.184   3.762   2.303 -3.9968  1.6643 -3.3757
  328MOL0     H44255   7.189   3.923   2.347 -2.6549  0.5200  0.3223
  328MOL0     H44256   6.964   3.792   2.329 -0.1213 -4.7953  0.1166
  328MOL0     H44257   7.001   3.746   2.497 -0.9531  1.0830  0.6059
  328MOL0     H44258   6.940   4.021   2.399 -0.9380  0.3020  1.3491
  328MOL0     H44259   7.024   4.001   2.549 -1.3522  3.0291 -1.2908
  328MOL0     H44260   6.827   3.970   2.659  0.3458  0.1486 -0.4835
  328MOL0     H44261   6.808   3.816   2.582 -1.1444  0.0727  0.0621
  328MOL0     H44262   7.875   3.922   2.452  1.7126  0.0637 -0.0696
  328MOL0     H44263   8.103   3.829   2.509  1.4022 -0.4349  1.5713
  328MOL0     H44264   8.371   3.667   3.038  0.7887  3.1802 -0.3374
  328MOL0     H44265   8.612   3.662   3.056 -1.5109 -1.8776  0.4137
  328MOL0     H44266   9.552   3.250   4.216  1.1057  1.3239  2.6202
  328MOL0     H44267   9.724   3.383   4.292 -1.2773 -2.3221  0.2643
  328MOL0     H44268   9.805   3.975   4.067 -1.1220 -0.4133  0.0098
  328MOL0     H44269   9.999   4.136   4.102 -0.4446 -0.5651 -2.0870
  328MOL0     H44270  10.351   3.989   4.357  0.3518 -0.1077 -1.0122
  328MOL0     H44271  10.385   4.027   4.192  0.7157  0.0279 -0.2352
  328MOL0     H44272  10.321   4.238   4.395  0.0669 -0.1446 -0.2643
  328MOL0     H44273  10.382   4.272   4.236 -0.0848  1.7777  0.6932
  328MOL0     H44274  10.590   4.287   4.316  1.4253 -0.2704 -2.1239
  328MOL0     H44275  10.578   4.122   4.285 -2.0304  1.8656 -1.9999
  328MOL0     H44276  10.517   4.069   4.521 -0.9633  0.9865 -0.7418
  328MOL0     H44277  10.508   4.243   4.562 -2.4515 -0.1203 -0.0437
  328MOL0     H44278  10.931   4.139   4.564 -0.4414  0.7434  0.8324
  328MOL0     H44279  10.202   3.837   4.334  0.3441  0.6431 -0.8139
  328MOL0     H44280  10.019   3.681   4.298  1.7139 -0.3878 -1.2251
  329MOL0     O44281   4.496  10.020   3.821  0.1548 -0.1042 -0.0027
  329MOL0     C44282   4.536   9.933   3.741  0.4333 -0.2114  0.1869
  329MOL0     O44283   4.504   9.910   3.605  0.2846  0.2199  0.1213
  329MOL0     C44284   4.413  10.001   3.554  0.1846  0.1478  0.9513
  329MOL0     C44285   4.293   9.946   3.509 -0.8617 -0.3113  0.1720
  329MOL0     C44286   4.182  10.018   3.464  0.4505 -0.0856  0.1399
  329MOL0     C44287   4.204  10.157   3.454  0.1717  0.0057  0.9945
  329MOL0     O44288   4.109  10.236   3.413 -0.1556 -0.1029 -0.2601
  329MOL0     C44289   3.985  10.186   3.373 -0.0345 -0.6632  0.1355
  329MOL0     C44290   3.911  10.311   3.320 -0.0412 -1.0429  0.7148
  329MOL0     C44291   3.792  10.270   3.224  1.1191  0.0775  0.3495
  329MOL0     C44292   3.765  10.357   3.110 -1.2256 -0.5450  1.3065
  329MOL0     C44293   3.868  10.361   3.004 -1.0915 -0.3450  0.5631
  329MOL0     C44294   3.889  10.501   2.937  0.5228  0.5309 -0.4010
  329MOL0     C44295   4.009  10.509   2.844 -0.2559  0.2776 -0.3876
  329MOL0     C44296   4.142  10.502   2.914 -0.2230  0.2365 -0.5510
  329MOL0     N44297   4.251  10.489   2.819  0.8940 -0.1075  0.5235
  329MOL0     C44298   4.333  10.596   2.811 -0.7713 -0.4324 -0.5942
  329MOL0     C44299   4.400  10.579   2.702 -1.4630 -0.0225  0.6550
  329MOL0     C44300   4.495  10.674   2.634  0.1683 -0.2025  0.2936
  329MOL0     C44301   4.608  10.721   2.720 -0.0435 -0.3686  0.0483
  329MOL0     C44302   4.692  10.600   2.754  0.7580 -0.7575 -0.7786
  329MOL0     C44303   4.808  10.629   2.836  0.5291  0.0008 -0.2439
  329MOL0     O44304   4.774  10.709   2.959 -0.7444  0.2022 -0.5175
  329MOL0     C44305   4.771  10.640   3.079 -0.0508 -0.8270  0.3344
  329MOL0     C44306   4.663  10.560   3.103  0.5737 -0.1529  0.4773
  329MOL0     C44307   4.651  10.503   3.231  0.1380 -0.5082 -0.5594
  329MOL0     C44308   4.522  10.438   3.269  0.3158 -0.8961 -0.1444
  329MOL0     C44309   4.755  10.512   3.332 -0.2125 -1.0677  1.1097
  329MOL0     C44310   4.757  10.444   3.462 -0.1450 -0.7297  0.1773
  329MOL0     O44311   4.838  10.502   3.551 -0.4814 -0.2164 -0.4442
  329MOL0     C44312   4.846  10.461   3.676  0.2608  1.0214  0.2317
  329MOL0     C44313   4.954  10.386   3.729  0.3288 -0.0191 -0.0169
  329MOL0     C44314   4.954  10.348   3.867  0.2376 -0.0623  0.0164
  329MOL0     C44315   4.853  10.378   3.953 -0.2663 -0.1009 -0.2312
  329MOL0     O44316   4.854  10.342   4.083  0.4224 -0.1752 -0.0976
  329MOL0     C44317   4.843  10.457   4.171  0.4689 -0.8856  0.3829
  329MOL0     C44318   4.937  10.452   4.304 -0.2191  1.3003  0.0212
  329MOL0     C44319   4.951  10.304   4.352  0.9840 -0.1023  0.2019
  329MOL0     C44320   4.991  10.326   4.492 -0.7700  0.6410  0.0746
  329MOL0     C44321   5.032  10.208   4.575 -0.5643  0.3675 -0.6286
  329MOL0     C44322   5.037  10.249   4.729 -0.5322 -0.6479 -0.3265
  329MOL0     C44323   5.102  10.131   4.821  0.7909 -0.3140  0.4237
  329MOL0     C44324   5.095  10.160   4.966 -0.2828  0.2652  0.6519
  329MOL0    Cl44325   5.054  10.007   5.058 -0.4882 -0.1918  0.2069
  329MOL0     C44326   4.753  10.455   3.901  0.2668  0.8954 -0.9024
  329MOL0     C44327   4.746  10.497   3.768  0.1173  0.1304  0.5954
  329MOL0     O44328   4.690  10.343   3.487 -0.4586 -0.6898  0.1324
  329MOL0     C44329   4.871  10.593   3.298  0.7547  0.1030 -0.4973
  329MOL0     C44330   4.878  10.653   3.172 -0.4627  0.2989 -0.2394
  329MOL0     N44331   4.370  10.450   2.648  1.0634 -0.2880  0.6575
  329MOL0     N44332   4.272  10.396   2.717  0.8705  0.3705  0.1633
  329MOL0     C44333   4.331  10.219   3.499  0.0106 -0.1294  0.4938
  329MOL0     C44334   4.428  10.136   3.550 -0.4239 -0.0560  0.6938
  329MOL0     C44335   4.618   9.826   3.795  0.0038 -0.3496 -0.4069
  329MOL0     C44336   4.575   9.696   3.771  1.3893 -0.2561 -0.2502
  329MOL0     C44337   4.621   9.592   3.853  0.0530 -0.2386  0.6902
  329MOL0     C44338   4.725   9.610   3.942 -0.0515  0.5039 -0.2468
  329MOL0     O44339   4.773   9.489   4.000  0.5542 -0.2188  0.1970
  329MOL0     C44340   4.879   9.507   4.093 -0.2068 -0.0814  0.6008
  329MOL0     C44341   4.925   9.367   4.152  0.6339 -0.4310  0.1687
  329MOL0     C44342   4.810   9.285   4.205  0.0393 -0.1671 -0.3064
  329MOL0     C44343   4.737   9.355   4.318 -0.3102 -0.2297 -1.1088
  329MOL0     C44344   4.831   9.381   4.435  1.1977  0.5530  0.2626
  329MOL0     C44345   4.903   9.400   4.531 -0.1189  0.3492 -0.3656
  329MOL0     C44346   4.760   9.745   3.969 -1.0610  1.0945 -0.0957
  329MOL0     C44347   4.715   9.846   3.892 -0.2801 -0.3535  0.1214
  329MOL0     H44348   4.298   9.838   3.507 -1.9046 -0.3794  0.5586
  329MOL0     H44349   4.092   9.972   3.426 -0.9447  1.0035  1.9677
  329MOL0     H44350   3.992  10.114   3.291  3.7458  1.8019 -2.0401
  329MOL0     H44351   3.920  10.137   3.446  0.3009 -1.8732 -0.3591
  329MOL0     H44352   3.892  10.385   3.398 -1.9474 -0.3035 -0.4049
  329MOL0     H44353   3.986  10.360   3.258  0.1215 -2.4344 -0.2375
  329MOL0     H44354   3.821  10.177   3.175 -1.0884  0.8890 -2.8238
  329MOL0     H44355   3.703  10.250   3.286  2.6538 -0.8488  2.3770
  329MOL0     H44356   3.674  10.330   3.056  0.4372  0.2519 -2.1744
  329MOL0     H44357   3.756  10.457   3.154 -0.4402 -0.6149  1.6471
  329MOL0     H44358   3.960  10.325   3.051 -2.2661 -2.3839  1.4252
  329MOL0     H44359   3.841  10.286   2.929  1.5881  0.9427 -1.8632
  329MOL0     H44360   3.794  10.529   2.889  1.7516  0.7618 -2.8855
  329MOL0     H44361   3.911  10.572   3.017  3.0750  0.8743 -1.3349
  329MOL0     H44362   4.006  10.437   2.762 -2.3071  1.7113 -1.6724
  329MOL0     H44363   4.005  10.606   2.793 -2.0302 -0.0320 -0.9220
  329MOL0     H44364   4.148  10.408   2.970  1.2883  0.6962  0.1149
  329MOL0     H44365   4.152  10.583   2.987 -0.9007 -0.6477  0.5596
  329MOL0     H44366   4.328  10.683   2.876 -1.6048  3.2944 -5.0915
  329MOL0     H44367   4.524  10.631   2.538 -0.7012 -0.5781  0.1817
  329MOL0     H44368   4.443  10.768   2.612 -2.6088 -1.5670  0.5965
  329MOL0     H44369   4.579  10.757   2.819  1.4526 -3.9656  2.0203
  329MOL0     H44370   4.664  10.802   2.674  0.3400 -2.0832 -2.7917
  329MOL0     H44371   4.729  10.555   2.661  1.2676 -0.6505 -0.6268
  329MOL0     H44372   4.641  10.522   2.811 -0.5902  1.0247  0.5601
  329MOL0     H44373   4.890  10.669   2.776  1.0218 -2.9464 -1.7590
  329MOL0     H44374   4.846  10.531   2.868 -2.4308 -0.6701  1.6236
  329MOL0     H44375   4.570  10.563   3.046 -0.3133 -2.4498  1.6732
  329MOL0     H44376   4.532  10.329   3.272  0.7989 -0.8872 -0.9486
  329MOL0     H44377   4.484  10.483   3.361 -2.2125 -0.5343 -1.2667
  329MOL0     H44378   4.439  10.469   3.204 -0.8858  1.0190  2.1628
  329MOL0     H44379   5.033  10.346   3.666 -0.2645  0.2209 -0.9262
  329MOL0     H44380   5.030  10.293   3.921 -0.0080 -3.1479 -2.4628
  329MOL0     H44381   4.860  10.552   4.120 -1.0400 -0.9953 -0.3755
  329MOL0     H44382   4.740  10.451   4.207 -0.1006  1.7044 -0.6110
  329MOL0     H44383   5.039  10.486   4.282  0.1417 -0.0486 -0.4711
  329MOL0     H44384   4.887  10.515   4.378  0.9566  1.1648  0.9683
  329MOL0     H44385   5.031  10.256   4.295  1.7217  1.2423  0.0644
  329MOL0     H44386   4.855  10.252   4.345  1.4569 -0.8454 -1.1171
  329MOL0     H44387   5.083  10.385   4.488  0.3365 -1.0301  0.1905
  329MOL0     H44388   4.914  10.380   4.549 -0.1645  2.0296 -0.3782
  329MOL0     H44389   5.122  10.157   4.540  1.1741 -0.7822  4.6631
  329MOL0     H44390   4.948  10.139   4.566 -2.6854  2.9325 -2.0787
  329MOL0     H44391   5.089  10.344   4.736  1.2094 -1.0668 -4.5737
  329MOL0     H44392   4.933  10.261   4.762 -0.0802  0.9514  0.5987
  329MOL0     H44393   5.209  10.133   4.798  0.3611  0.5019 -1.7710
  329MOL0     H44394   5.059  10.035   4.789 -0.0844  1.0525 -2.9893
  329MOL0     H44395   5.013  10.232   4.973 -0.5585 -0.1715  2.3800
  329MOL0     H44396   5.187  10.202   5.006  2.2481 -1.5007 -2.7599
  329MOL0     H44397   4.682  10.498   3.970  0.3791  2.4998 -1.7338
  329MOL0     H44398   4.670  10.567   3.736  3.6895  3.6080 -1.1776
  329MOL0     H44399   4.950  10.605   3.371 -1.6499  2.9594  1.9594
  329MOL0     H44400   4.967  10.712   3.154 -0.7643  1.9594  3.0013
  329MOL0     H44401   4.336  10.328   3.505 -1.2263  0.0778 -1.4293
  329MOL0     H44402   4.520  10.179   3.588  0.3536 -0.8356 -0.2693
  329MOL0     H44403   4.497   9.667   3.701 -1.0536  0.9452  1.7702
  329MOL0     H44404   4.589   9.488   3.848 -1.6286  0.2967 -0.8007
  329MOL0     H44405   4.964   9.537   4.031 -0.5182 -1.3945 -0.4870
  329MOL0     H44406   4.875   9.588   4.167  1.3179  1.6998 -1.1321
  329MOL0     H44407   4.999   9.386   4.229  0.7744  2.0123 -0.4640
  329MOL0     H44408   4.973   9.325   4.063 -5.4632 -1.4833 -3.1899
  329MOL0     H44409   4.845   9.195   4.256  1.4198 -0.5398 -1.7960
  329MOL0     H44410   4.745   9.267   4.118 -2.0179  1.5374  0.7951
  329MOL0     H44411   4.644   9.311   4.356 -0.8343  0.5928 -1.3974
  329MOL0     H44412   4.717   9.458   4.286  3.8361  1.0127 -0.2979
  329MOL0     H44413   4.979   9.402   4.607 -1.1435 -1.4237  0.7646
  329MOL0     H44414   4.827   9.760   4.053 -0.7697 -1.9809  0.3629
  329MOL0     H44415   4.737   9.949   3.918 -2.0283 -0.4423  2.2991
  330MOL0     O44416   3.336   2.580   4.635  0.1923  0.1318 -0.9224
  330MOL0     C44417   3.387   2.595   4.524 -0.2950 -0.9472  0.6540
  330MOL0     O44418   3.497   2.532   4.480  0.5527  0.0188 -0.0263
  330MOL0     C44419   3.582   2.492   4.575  0.2775  0.0306 -0.7855
  330MOL0     C44420   3.605   2.353   4.610  0.6829 -0.1465 -0.4326
  330MOL0     C44421   3.679   2.320   4.716 -0.2692  0.1890  0.3681
  330MOL0     C44422   3.767   2.409   4.773 -0.7305 -0.3117  0.1558
  330MOL0     O44423   3.846   2.369   4.875  0.2967 -0.2526 -0.4465
  330MOL0     C44424   3.877   2.231   4.903  0.5986 -1.1358 -0.8307
  330MOL0     C44425   3.964   2.219   5.029  0.1205 -0.3053 -0.3585
  330MOL0     C44426   4.100   2.282   5.024  0.8863 -0.7831 -0.1498
  330MOL0     C44427   4.192   2.193   4.930 -0.4553  0.3590 -0.0995
  330MOL0     C44428   4.342   2.204   4.962  0.3062 -0.2926  0.6718
  330MOL0     C44429   4.422   2.103   4.894 -0.7939  0.8522 -0.7310
  330MOL0     C44430   4.561   2.081   4.953  0.7867  0.5428  0.3121
  330MOL0     C44431   4.641   2.217   4.926  0.5910  0.4089  1.0875
  330MOL0     N44432   4.782   2.186   4.957 -0.0733 -0.0872 -0.7225
  330MOL0     C44433   4.825   2.106   5.052  0.8398  0.0281 -0.0488
  330MOL0     C44434   4.957   2.123   5.047  0.6930 -1.0265 -1.0672
  330MOL0     C44435   5.036   2.054   5.162 -0.5522  0.1712 -0.4944
  330MOL0     C44436   5.146   2.139   5.228  0.1311 -1.6441  0.3162
  330MOL0     C44437   5.244   2.060   5.315  0.6035 -0.2568 -1.4921
  330MOL0     C44438   5.346   2.144   5.381  0.0886 -0.1739  0.2039
  330MOL0     O44439   5.439   2.066   5.466  0.7996 -0.0117 -0.5682
  330MOL0     C44440   5.547   2.138   5.521 -0.0420  0.7776 -0.3224
  330MOL0     C44441   5.637   2.212   5.444 -0.7538 -0.1572 -0.9131
  330MOL0     C44442   5.742   2.283   5.503  0.5130 -0.4353  0.2540
  330MOL0     C44443   5.815   2.359   5.403  0.3736 -0.6549  0.1915
  330MOL0     C44444   5.755   2.298   5.643 -0.0760  1.4192  0.2613
  330MOL0     C44445   5.855   2.376   5.712 -0.7366 -0.6499  0.4403
  330MOL0     O44446   5.850   2.378   5.846 -0.1426  0.0122 -0.1544
  330MOL0     C44447   5.958   2.419   5.917 -0.9553 -0.4278 -0.2077
  330MOL0     C44448   5.962   2.543   5.973 -0.8224 -0.0906 -0.6995
  330MOL0     C44449   6.061   2.590   6.052 -0.1415 -0.8707  0.3839
  330MOL0     C44450   6.175   2.510   6.086  0.1017  0.1662  1.0342
  330MOL0     O44451   6.283   2.546   6.152 -0.0283  0.0247 -0.2101
  330MOL0     C44452   6.348   2.463   6.246  0.5366 -0.4250  0.4229
  330MOL0     C44453   6.432   2.543   6.353 -0.2209  0.0596  1.0431
  330MOL0     C44454   6.514   2.648   6.272  0.1799 -0.3352 -0.7673
  330MOL0     C44455   6.573   2.743   6.381  0.7920  0.7482  0.3031
  330MOL0     C44456   6.642   2.855   6.305 -0.4919  0.1070  0.3867
  330MOL0     C44457   6.549   2.960   6.234 -0.2511  0.5278 -0.0995
  330MOL0     C44458   6.617   3.055   6.148 -0.2708 -0.1662  0.4534
  330MOL0     C44459   6.695   3.160   6.228  0.6256 -0.9978  0.4307
  330MOL0    Cl44460   6.805   3.242   6.098 -0.0970  0.0469  0.0759
  330MOL0     C44461   6.171   2.381   6.024 -0.5705 -0.6416 -0.0177
  330MOL0     C44462   6.062   2.337   5.944  0.7923 -0.4424 -0.8156
  330MOL0     O44463   5.956   2.411   5.649  0.7033  0.0044  0.3839
  330MOL0     C44464   5.664   2.216   5.725 -0.8520 -0.6797  0.2940
  330MOL0     C44465   5.566   2.138   5.662  0.1326 -0.4266 -0.6571
  330MOL0     N44466   4.987   2.198   4.946 -0.3208 -0.4449  0.0598
  330MOL0     N44467   4.883   2.246   4.893  0.0476  0.2617  0.3866
  330MOL0     C44468   3.768   2.541   4.730  0.2199  0.1652 -0.2977
  330MOL0     C44469   3.679   2.579   4.626 -0.5841  0.5161  0.0316
  330MOL0     C44470   3.305   2.668   4.425  1.0302 -0.6620 -0.9575
  330MOL0     C44471   3.359   2.689   4.297 -0.2796 -0.1007 -0.3521
  330MOL0     C44472   3.284   2.768   4.205 -0.9305 -0.2394  0.0921
  330MOL0     C44473   3.148   2.807   4.234 -0.0735 -0.7345  0.3571
  330MOL0     O44474   3.066   2.875   4.144 -0.4828  0.3695 -0.3870
  330MOL0     C44475   3.109   2.910   4.014  0.8083 -0.2142 -0.4908
  330MOL0     C44476   3.056   2.795   3.924 -0.3526 -0.0303 -0.3091
  330MOL0     C44477   2.894   2.774   3.938  0.5778 -1.0442 -1.1133
  330MOL0     C44478   2.838   2.698   3.822  0.7881 -0.3490 -0.1910
  330MOL0     C44479   2.860   2.738   3.683 -0.1075 -0.4930 -1.4315
  330MOL0     C44480   2.901   2.776   3.575  0.2967  0.2812 -0.6181
  330MOL0     C44481   3.098   2.773   4.361 -0.6815 -0.7687 -1.6855
  330MOL0     C44482   3.172   2.710   4.458  0.2858 -0.1742  0.1589
  330MOL0     H44483   3.524   2.286   4.581  0.0616  0.5831 -0.4219
  330MOL0     H44484   3.678   2.221   4.760  0.0402  0.9400  2.1721
  330MOL0     H44485   3.790   2.171   4.930  0.1705  0.6567  2.2305
  330MOL0     H44486   3.929   2.186   4.818  1.8732  2.2706 -2.0205
  330MOL0     H44487   3.905   2.263   5.110 -0.0085 -1.5182  0.2313
  330MOL0     H44488   3.982   2.113   5.049  1.6918 -0.1076 -0.6074
  330MOL0     H44489   4.089   2.384   4.987 -0.8570 -1.0448 -0.4138
  330MOL0     H44490   4.144   2.290   5.124 -1.2408  0.1825  0.7617
  330MOL0     H44491   4.171   2.088   4.948 -3.4696  0.7888 -0.5563
  330MOL0     H44492   4.167   2.207   4.825  0.3878  1.9184 -0.1328
  330MOL0     H44493   4.377   2.305   4.940 -2.4008  0.8967  1.4725
  330MOL0     H44494   4.357   2.197   5.070 -1.4841  4.7625  1.4757
  330MOL0     H44495   4.376   2.004   4.903 -0.0339  0.6732  1.7312
  330MOL0     H44496   4.439   2.109   4.786  1.6072 -1.4622 -0.5734
  330MOL0     H44497   4.557   2.068   5.061 -0.5798  0.9997  0.3343
  330MOL0     H44498   4.595   1.989   4.906 -1.5137 -0.7878  1.1098
  330MOL0     H44499   4.604   2.289   4.999 -0.2068  1.2972 -0.1516
  330MOL0     H44500   4.633   2.252   4.823  2.8025  2.9394  1.6667
  330MOL0     H44501   4.763   2.045   5.117  0.8953  1.6479  1.6204
  330MOL0     H44502   4.963   2.011   5.231 -2.4447  0.0501 -2.4823
  330MOL0     H44503   5.082   1.961   5.127  0.9712  0.0209  1.6648
  330MOL0     H44504   5.103   2.220   5.286  1.2865  1.2051 -2.5283
  330MOL0     H44505   5.203   2.182   5.145 -0.6247 -2.1524 -0.4842
  330MOL0     H44506   5.296   1.992   5.247  1.3319 -3.1062  1.6286
  330MOL0     H44507   5.191   2.008   5.395  0.8903  0.7051 -0.6530
  330MOL0     H44508   5.295   2.220   5.441  4.9253  4.5068 -0.8855
  330MOL0     H44509   5.390   2.212   5.308  1.0529 -1.1398 -0.1433
  330MOL0     H44510   5.631   2.223   5.336 -2.6021  0.3072 -0.7927
  330MOL0     H44511   5.871   2.293   5.336  0.3711 -0.8641  0.3933
  330MOL0     H44512   5.741   2.412   5.344 -0.3455 -3.0876 -1.2356
  330MOL0     H44513   5.875   2.440   5.447 -3.1202  1.9764  0.5224
  330MOL0     H44514   5.872   2.600   5.952 -1.3226 -1.0588 -1.2626
  330MOL0     H44515   6.063   2.694   6.083 -2.7619 -0.8657  0.8090
  330MOL0     H44516   6.285   2.395   6.304 -0.3709  1.3249  1.5614
  330MOL0     H44517   6.417   2.409   6.180  0.4847  2.1960 -1.9580
  330MOL0     H44518   6.353   2.597   6.406 -0.0169  1.6085 -0.1805
  330MOL0     H44519   6.495   2.474   6.410  0.1154  0.4127  1.1024
  330MOL0     H44520   6.447   2.706   6.208 -3.3105 -3.2262 -0.0904
  330MOL0     H44521   6.586   2.602   6.205  1.2291  0.6916 -0.3804
  330MOL0     H44522   6.490   2.765   6.449  1.1454 -0.9145  1.3350
  330MOL0     H44523   6.638   2.683   6.445 -0.4780 -1.2192 -0.1631
  330MOL0     H44524   6.688   2.804   6.219 -1.6587 -0.3045 -0.0263
  330MOL0     H44525   6.717   2.903   6.368 -0.8645 -1.8357  2.4418
  330MOL0     H44526   6.472   2.916   6.170 -0.6143  1.5017 -0.3460
  330MOL0     H44527   6.505   3.020   6.314 -2.5982 -0.6122 -0.4514
  330MOL0     H44528   6.558   3.124   6.088 -0.5791  0.5831  1.5971
  330MOL0     H44529   6.675   2.998   6.074 -2.1030 -0.5652 -0.7348
  330MOL0     H44530   6.755   3.122   6.311 -0.9133  0.1668  2.1434
  330MOL0     H44531   6.624   3.232   6.270  2.1882  0.3112  0.9185
  330MOL0     H44532   6.259   2.319   6.034  0.1679  0.5204  0.8749
  330MOL0     H44533   6.069   2.247   5.885  1.1006  1.9485 -4.8182
  330MOL0     H44534   5.671   2.211   5.833  2.2168  0.5141  0.2509
  330MOL0     H44535   5.503   2.077   5.725  1.3203 -1.1913 -0.1831
  330MOL0     H44536   3.829   2.625   4.762 -0.7542  0.8595 -0.2368
  330MOL0     H44537   3.677   2.684   4.597  0.7916  0.9342  1.3090
  330MOL0     H44538   3.459   2.658   4.267  0.9558  3.3735 -0.3488
  330MOL0     H44539   3.328   2.774   4.105 -0.6476 -1.6852  0.1051
  330MOL0     H44540   3.050   2.996   3.984  1.1990  0.1677 -0.1706
  330MOL0     H44541   3.215   2.937   4.011  0.4251  1.2748 -3.4338
  330MOL0     H44542   3.107   2.701   3.949  0.8964  1.0005  1.2003
  330MOL0     H44543   3.077   2.825   3.821 -3.2532  1.9703 -0.4244
  330MOL0     H44544   2.842   2.870   3.943 -0.0398 -1.4271  1.3969
  330MOL0     H44545   2.879   2.723   4.034  2.6167 -2.0103 -1.2375
  330MOL0     H44546   2.731   2.705   3.846  0.9116 -1.1272  0.6455
  330MOL0     H44547   2.863   2.592   3.826 -1.2073 -0.8396  1.0831
  330MOL0     H44548   2.936   2.800   3.477  1.5159  0.2303 -0.2110
  330MOL0     H44549   2.994   2.797   4.381 -0.0398  0.2764  0.7841
  330MOL0     H44550   3.127   2.680   4.552  1.0187 -0.2854  0.4804
  331MOL0     O44551  10.951   4.777   4.097 -0.2825  0.0434 -1.0160
  331MOL0     C44552  10.957   4.769   4.222 -0.0631  0.0489  0.0424
  331MOL0     O44553  10.921   4.661   4.302 -0.3280 -0.5583 -0.1987
  331MOL0     C44554  10.884   4.553   4.225  0.2837 -0.6368 -0.6042
  331MOL0     C44555  10.953   4.432   4.243  0.5338  0.6430 -0.0256
  331MOL0     C44556  10.893   4.320   4.180 -0.1112  0.4734  0.1535
  331MOL0     C44557  10.780   4.331   4.092  0.3262  0.5623 -0.8479
  331MOL0     O44558  10.744   4.215   4.023 -0.5140  0.1756  0.2661
  331MOL0     C44559  10.610   4.211   3.973  0.2358  0.4096 -0.2358
  331MOL0     C44560  10.618   4.241   3.827  0.1637  1.0732  0.0798
  331MOL0     C44561  10.480   4.256   3.762 -0.1792  0.1681 -0.3992
  331MOL0     C44562  10.387   4.130   3.779  0.1595  0.1780 -0.7537
  331MOL0     C44563  10.243   4.159   3.722  0.2769  0.3326  0.3139
  331MOL0     C44564  10.137   4.071   3.783 -0.3399 -0.2263  0.5940
  331MOL0     C44565   9.986   4.090   3.763 -0.3130  0.0732  0.8034
  331MOL0     C44566   9.946   4.094   3.617  0.6931 -0.1073  0.4616
  331MOL0     N44567   9.814   4.061   3.587 -0.5332  0.7574  0.7575
  331MOL0     C44568   9.713   4.144   3.549  0.1172  0.5458  0.0966
  331MOL0     C44569   9.602   4.066   3.545  0.3709  0.0972 -0.2051
  331MOL0     C44570   9.470   4.110   3.488  0.6341  0.2186 -0.6121
  331MOL0     C44571   9.352   4.021   3.522  0.0166  0.1261 -0.2471
  331MOL0     C44572   9.220   4.049   3.441 -0.1325  0.5751  0.1018
  331MOL0     C44573   9.091   4.016   3.529 -0.9034  1.0473  0.6181
  331MOL0     O44574   9.067   4.108   3.638  0.4591 -0.3038  0.1731
  331MOL0     C44575   9.019   4.231   3.597 -0.1424  0.5816  0.0506
  331MOL0     C44576   9.003   4.321   3.699 -0.7172  0.3913 -0.0560
  331MOL0     C44577   8.978   4.457   3.677  0.0958 -0.0449 -1.5034
  331MOL0     C44578   8.990   4.547   3.794  0.6308 -0.1606  1.1059
  331MOL0     C44579   8.953   4.507   3.555  0.6891  0.4589 -0.0643
  331MOL0     C44580   8.908   4.650   3.530 -0.4217 -1.0131 -1.2982
  331MOL0     O44581   8.977   4.713   3.436 -0.1792 -1.1819 -0.3924
  331MOL0     C44582   8.934   4.842   3.407 -0.9427  0.6118  0.2800
  331MOL0     C44583   8.846   4.870   3.305  0.1292 -0.4507  0.0406
  331MOL0     C44584   8.813   4.999   3.276  1.1537 -0.5416 -0.2779
  331MOL0     C44585   8.859   5.107   3.352  0.8747 -0.6043 -0.2393
  331MOL0     O44586   8.818   5.243   3.333 -0.8251 -0.6606 -0.9663
  331MOL0     C44587   8.846   5.297   3.202  1.0955  0.0115 -0.4386
  331MOL0     C44588   8.917   5.424   3.221  0.6155 -0.1599  0.1852
  331MOL0     C44589   8.836   5.555   3.197  0.8068 -0.5007 -0.4143
  331MOL0     C44590   8.773   5.547   3.060  0.0762  0.7842  0.6741
  331MOL0     C44591   8.765   5.684   2.990 -0.2238 -0.5842  0.8700
  331MOL0     C44592   8.899   5.754   2.972  0.6014  0.9441  0.4840
  331MOL0     C44593   8.879   5.888   2.894  0.0585 -0.2749  0.3853
  331MOL0     C44594   9.003   5.957   2.851  0.9077 -0.0045  0.0010
  331MOL0    Cl44595   9.084   5.869   2.719  0.4140  0.0592  0.1065
  331MOL0     C44596   8.954   5.078   3.449  0.1484 -0.0876  0.4862
  331MOL0     C44597   9.003   4.948   3.471  0.3346  0.6627 -0.6708
  331MOL0     O44598   8.805   4.695   3.587 -0.0927 -0.0282 -0.5404
  331MOL0     C44599   8.957   4.417   3.446  0.3163  0.7395 -0.0890
  331MOL0     C44600   8.981   4.274   3.464 -0.1470 -0.8516 -0.3406
  331MOL0     N44601   9.642   3.943   3.599 -0.1733  0.3757 -0.9389
  331MOL0     N44602   9.763   3.940   3.623 -0.0973  0.1447 -0.7491
  331MOL0     C44603  10.717   4.462   4.073  0.4933 -0.0062  0.2616
  331MOL0     C44604  10.767   4.560   4.150  0.4492 -0.2463 -0.1456
  331MOL0     C44605  10.974   4.901   4.279  0.0017  0.0732 -0.7820
  331MOL0     C44606  10.955   4.926   4.416  0.1579 -0.1724  0.3957
  331MOL0     C44607  10.961   5.058   4.468 -0.7887  1.5659 -0.2502
  331MOL0     C44608  10.980   5.166   4.384  0.6281  0.6827  0.3613
  331MOL0     O44609  10.980   5.306   4.410  0.1625 -1.1379  0.4723
  331MOL0     C44610  10.958   5.357   4.543 -0.3684 -0.0722  0.4601
  331MOL0     C44611  11.087   5.346   4.625 -0.1356 -0.6229 -0.5985
  331MOL0     C44612  11.050   5.412   4.762  0.3963  0.7553 -0.5552
  331MOL0     C44613  11.152   5.379   4.882  0.4810  0.1905 -0.0114
  331MOL0     C44614  11.288   5.368   4.829  1.1144  0.0295  0.1001
  331MOL0     C44615  11.398   5.370   4.787 -0.4171 -0.8650  0.5154
  331MOL0     C44616  11.023   5.140   4.253  0.4409  0.7159 -0.1958
  331MOL0     C44617  11.022   5.009   4.208  0.1643 -0.4846 -0.1995
  331MOL0     H44618  11.042   4.423   4.305  0.0145  0.8287  0.7521
  331MOL0     H44619  10.948   4.231   4.207  0.7193  0.7665 -0.5201
  331MOL0     H44620  10.575   4.107   3.976  1.3243  0.0542  0.8559
  331MOL0     H44621  10.540   4.277   4.025 -0.9808 -1.5510  0.7633
  331MOL0     H44622  10.667   4.337   3.810 -3.6140  3.2890  0.6122
  331MOL0     H44623  10.675   4.170   3.766  0.3110  1.9161 -0.7951
  331MOL0     H44624  10.425   4.341   3.802 -0.8422  0.1454 -1.2476
  331MOL0     H44625  10.485   4.266   3.654  0.6126 -2.4046 -0.6748
  331MOL0     H44626  10.420   4.037   3.733  1.5109 -1.1056  2.5082
  331MOL0     H44627  10.367   4.110   3.885  1.1353  1.9155 -0.1957
  331MOL0     H44628  10.237   4.263   3.755  5.8253  0.9454  0.4041
  331MOL0     H44629  10.251   4.146   3.614 -0.7919  2.0171 -0.0081
  331MOL0     H44630  10.165   3.967   3.763 -0.1895 -0.0299 -0.2621
  331MOL0     H44631  10.158   4.085   3.889  2.4543 -3.9850  0.7562
  331MOL0     H44632   9.952   4.003   3.821  1.0209  0.9746  3.0492
  331MOL0     H44633   9.945   4.182   3.807 -1.2194 -0.4972  1.1745
  331MOL0     H44634  10.003   4.020   3.560  0.2036 -1.0649  1.1996
  331MOL0     H44635   9.977   4.188   3.569  2.7268  0.5276  2.7884
  331MOL0     H44636   9.703   4.251   3.531 -0.5565  0.4164 -0.3187
  331MOL0     H44637   9.459   4.213   3.525 -1.1162 -1.0512  2.8703
  331MOL0     H44638   9.487   4.101   3.381  2.9281 -0.0514 -0.2877
  331MOL0     H44639   9.340   4.020   3.631 -1.2846  1.6305 -0.3387
  331MOL0     H44640   9.369   3.917   3.493  0.1488 -0.2193  0.9989
  331MOL0     H44641   9.216   3.988   3.349  1.6864 -1.8345  1.4827
  331MOL0     H44642   9.229   4.154   3.413  4.4468 -0.4160 -3.4380
  331MOL0     H44643   9.109   3.916   3.571 -1.4160  0.7256  0.0864
  331MOL0     H44644   9.004   4.004   3.465 -0.8460  2.2124  0.2987
  331MOL0     H44645   9.030   4.295   3.801 -1.1713  0.7803  0.1692
  331MOL0     H44646   9.044   4.513   3.882 -1.8784  0.1404  2.8588
  331MOL0     H44647   9.042   4.641   3.770 -1.0986  0.2848 -1.2897
  331MOL0     H44648   8.887   4.560   3.826  1.3906  1.4086  3.1053
  331MOL0     H44649   8.796   4.797   3.242 -0.1751  1.4524 -2.0564
  331MOL0     H44650   8.741   5.018   3.197  0.7040  0.0639  0.2581
  331MOL0     H44651   8.906   5.219   3.154  3.4415  1.3484  0.1954
  331MOL0     H44652   8.747   5.312   3.158 -0.8912 -0.5693  3.4165
  331MOL0     H44653   8.967   5.425   3.318 -2.3129 -3.3232  1.9452
  331MOL0     H44654   8.990   5.434   3.140  0.6687 -1.0668  0.1114
  331MOL0     H44655   8.902   5.641   3.210 -0.4016  0.3599  0.2452
  331MOL0     H44656   8.761   5.562   3.277  1.6292 -1.1382  0.4353
  331MOL0     H44657   8.842   5.493   2.994  1.8871  2.3180  1.2193
  331MOL0     H44658   8.677   5.496   3.069  0.9215 -1.1141 -0.3092
  331MOL0     H44659   8.712   5.744   3.065 -0.3282 -2.0595  2.0399
  331MOL0     H44660   8.716   5.675   2.893 -0.2341  0.7418  0.7381
  331MOL0     H44661   8.939   5.789   3.068  1.0146  2.1988 -0.1309
  331MOL0     H44662   8.973   5.684   2.933 -1.2649 -0.4060 -0.8446
  331MOL0     H44663   8.829   5.960   2.960  1.0410  0.9028 -0.1127
  331MOL0     H44664   8.817   5.872   2.806  0.5326  4.3472 -1.0735
  331MOL0     H44665   9.070   5.983   2.934 -0.3996 -0.2396  1.1594
  331MOL0     H44666   8.981   6.058   2.817  0.6430 -0.3138 -0.7733
  331MOL0     H44667   8.991   5.173   3.487  1.6788 -0.4619 -0.0265
  331MOL0     H44668   9.091   4.926   3.531  0.1079  1.3512 -0.0725
  331MOL0     H44669   8.929   4.462   3.351  3.1724  2.5659 -0.2037
  331MOL0     H44670   8.966   4.206   3.380  0.1878 -3.7665  1.7853
  331MOL0     H44671  10.631   4.488   4.011 -0.7417  0.8065  2.2326
  331MOL0     H44672  10.722   4.659   4.152 -0.2426 -0.5765  1.5146
  331MOL0     H44673  10.931   4.852   4.491  0.4684 -2.7090 -1.8653
  331MOL0     H44674  10.958   5.056   4.576  1.1463 -1.0882 -0.1398
  331MOL0     H44675  10.944   5.466   4.539 -0.1056  0.0305  1.7577
  331MOL0     H44676  10.879   5.294   4.585  0.5389  0.1925  2.7401
  331MOL0     H44677  11.166   5.408   4.581  0.0224  1.6395  2.5267
  331MOL0     H44678  11.115   5.241   4.635  1.8902 -0.2788 -2.1441
  331MOL0     H44679  10.952   5.377   4.795 -0.5877 -0.2299 -4.1352
  331MOL0     H44680  11.037   5.520   4.751 -0.5010  0.5323 -1.8650
  331MOL0     H44681  11.117   5.287   4.930 -3.5382  0.4539 -1.9965
  331MOL0     H44682  11.149   5.463   4.951 -2.3536  0.9858 -0.9791
  331MOL0     H44683  11.498   5.379   4.750 -0.7999  2.0444 -0.0908
  331MOL0     H44684  11.042   5.232   4.197 -2.0031  2.4136  1.5584
  331MOL0     H44685  11.051   5.002   4.103 -2.1859 -0.5017 -0.9080
  332MOL0     O44686   8.951   7.921   0.111  0.2389 -0.3718  0.0183
  332MOL0     C44687   8.976   7.830   0.029  0.3801  0.0858 -1.2020
  332MOL0     O44688   8.987   7.846  -0.107 -0.2093 -0.1711 -0.5589
  332MOL0     C44689   8.992   7.969  -0.159  0.5658  0.5873 -0.1410
  332MOL0     C44690   9.089   8.068  -0.119 -0.0911 -0.4402  0.2883
  332MOL0     C44691   9.092   8.196  -0.177  0.0272  0.6312  0.2558
  332MOL0     C44692   8.995   8.227  -0.273  0.2652 -0.7932  0.5729
  332MOL0     O44693   8.985   8.348  -0.338 -0.3289  0.3486  0.0020
  332MOL0     C44694   9.074   8.450  -0.287  0.0648  0.0315  0.0541
  332MOL0     C44695   9.020   8.589  -0.328 -1.6663 -0.7568  0.4494
  332MOL0     C44696   8.868   8.600  -0.332  0.9185 -0.3520 -0.3640
  332MOL0     C44697   8.792   8.575  -0.201 -0.6560 -0.0100  0.0542
  332MOL0     C44698   8.644   8.587  -0.225  0.9467  0.3673  0.3789
  332MOL0     C44699   8.562   8.567  -0.110 -0.5680  0.6419 -0.7966
  332MOL0     C44700   8.419   8.580  -0.158 -0.2706  0.3343 -0.5999
  332MOL0     C44701   8.361   8.719  -0.190 -0.0969 -0.0730 -0.1728
  332MOL0     N44702   8.236   8.703  -0.258 -0.1100 -0.2794  0.3264
  332MOL0     C44703   8.127   8.675  -0.193  0.6530 -0.7815 -0.5082
  332MOL0     C44704   8.032   8.651  -0.289  0.5522  0.6302  0.9422
  332MOL0     C44705   7.887   8.620  -0.271 -0.0419 -0.2623 -0.2033
  332MOL0     C44706   7.842   8.476  -0.310 -0.0925 -0.2219  0.2017
  332MOL0     C44707   7.686   8.467  -0.303 -0.2676 -0.2687 -0.8855
  332MOL0     C44708   7.629   8.327  -0.314  0.1304 -0.1146  1.1672
  332MOL0     O44709   7.656   8.283  -0.447  0.1752 -0.0979 -0.0689
  332MOL0     C44710   7.602   8.178  -0.487 -0.5433 -0.8250  0.1204
  332MOL0     C44711   7.520   8.085  -0.420 -0.3334  0.5504  0.1364
  332MOL0     C44712   7.467   7.976  -0.497  1.5464 -0.8234 -0.9519
  332MOL0     C44713   7.361   7.886  -0.426  0.0338 -0.0605  0.6242
  332MOL0     C44714   7.503   7.950  -0.632 -0.1443  0.4054 -0.4527
  332MOL0     C44715   7.468   7.834  -0.712 -0.4376 -0.6544 -0.0363
  332MOL0     O44716   7.547   7.808  -0.823 -0.3166 -0.9916 -0.2564
  332MOL0     C44717   7.496   7.711  -0.906 -0.6083 -0.9716 -0.5203
  332MOL0     C44718   7.461   7.739  -1.035  0.8844 -0.7286  0.7777
  332MOL0     C44719   7.386   7.644  -1.118 -0.7548  0.1040  0.2025
  332MOL0     C44720   7.370   7.515  -1.076 -0.3288 -0.6788 -0.1552
  332MOL0     O44721   7.316   7.428  -1.169  0.5397 -0.3223  0.0710
  332MOL0     C44722   7.370   7.300  -1.183  0.2923 -0.7092 -0.0022
  332MOL0     C44723   7.352   7.249  -1.326 -0.6335 -0.4121 -0.1782
  332MOL0     C44724   7.225   7.166  -1.328  0.5641 -0.1432 -0.1990
  332MOL0     C44725   7.232   7.024  -1.275  0.3342 -0.7990 -0.4103
  332MOL0     C44726   7.085   6.968  -1.252 -0.2790 -0.1140  0.0695
  332MOL0     C44727   7.013   6.936  -1.387  0.3260 -0.1568  0.3066
  332MOL0     C44728   6.915   6.820  -1.368  0.2155 -0.3889  0.1529
  332MOL0     C44729   6.873   6.775  -1.509  0.7559 -0.2678 -0.0235
  332MOL0    Cl44730   6.825   6.912  -1.601  0.0803 -0.3503 -0.2476
  332MOL0     C44731   7.408   7.489  -0.947  0.5658 -0.4006 -0.3710
  332MOL0     C44732   7.469   7.589  -0.857  0.7875 -0.1210 -0.1298
  332MOL0     O44733   7.358   7.782  -0.688 -0.5175 -0.1338 -0.7884
  332MOL0     C44734   7.587   8.046  -0.685 -0.2108  0.4476 -0.4621
  332MOL0     C44735   7.645   8.153  -0.620 -0.5433  0.4924 -0.0139
  332MOL0     N44736   8.096   8.659  -0.413  0.3486  0.1833  0.7053
  332MOL0     N44737   8.222   8.691  -0.402 -0.2321  0.3116  0.2890
  332MOL0     C44738   8.898   8.139  -0.307 -0.0065 -0.1629 -0.0449
  332MOL0     C44739   8.895   8.014  -0.251 -0.2895 -0.2925 -0.0209
  332MOL0     C44740   8.998   7.699   0.078 -0.5648  0.8995 -0.2490
  332MOL0     C44741   8.965   7.666   0.214 -0.5509  0.4938 -0.0789
  332MOL0     C44742   8.978   7.531   0.254 -0.2184  0.3544  0.1359
  332MOL0     C44743   8.999   7.430   0.155 -0.3647  0.9905 -0.5051
  332MOL0     O44744   8.994   7.297   0.190 -0.0266 -0.1696  0.3076
  332MOL0     C44745   8.960   7.258   0.321  0.2988 -0.1779 -0.2136
  332MOL0     C44746   8.810   7.250   0.360  0.7328  0.0152 -0.4485
  332MOL0     C44747   8.742   7.144   0.271  0.4922  0.2711  0.2910
  332MOL0     C44748   8.586   7.137   0.286  0.4024 -0.1712 -0.5835
  332MOL0     C44749   8.556   7.100   0.429  0.6892  0.2023  0.2051
  332MOL0     C44750   8.520   7.075   0.540 -0.6549 -0.4267 -0.0803
  332MOL0     C44751   9.023   7.469   0.027  0.1490 -0.3794 -0.0181
  332MOL0     C44752   9.029   7.594  -0.016 -0.5363  0.1552 -0.0059
  332MOL0     H44753   9.177   8.042  -0.061 -0.2868  0.2161  0.8964
  332MOL0     H44754   9.165   8.267  -0.138  3.1784 -2.2496  0.1237
  332MOL0     H44755   9.081   8.449  -0.177  0.8782 -1.3743  0.0136
  332MOL0     H44756   9.174   8.427  -0.324 -0.6464 -2.2217 -0.6696
  332MOL0     H44757   9.069   8.673  -0.278 -0.5005 -0.4118 -1.1746
  332MOL0     H44758   9.051   8.611  -0.431 -0.0912  2.5274  1.4748
  332MOL0     H44759   8.837   8.694  -0.380  2.6132 -0.5609 -1.9752
  332MOL0     H44760   8.834   8.524  -0.403 -0.4022  0.0943 -0.2434
  332MOL0     H44761   8.821   8.474  -0.169  0.2804  0.3130  0.2501
  332MOL0     H44762   8.831   8.640  -0.122  1.4996 -0.6031 -0.4614
  332MOL0     H44763   8.618   8.683  -0.271  1.3286  0.3733  0.1773
  332MOL0     H44764   8.624   8.503  -0.292  0.5126  0.1835  0.7291
  332MOL0     H44765   8.585   8.468  -0.069  1.8348  0.9812 -1.1817
  332MOL0     H44766   8.572   8.640  -0.029 -2.1183  0.3447 -0.3029
  332MOL0     H44767   8.401   8.513  -0.243 -1.4172  0.2337 -0.2928
  332MOL0     H44768   8.357   8.545  -0.076 -1.1198 -0.4180 -1.5370
  332MOL0     H44769   8.430   8.766  -0.259  0.0333  0.1149  0.0843
  332MOL0     H44770   8.364   8.780  -0.099  2.6827  1.3493 -1.1280
  332MOL0     H44771   8.107   8.680  -0.087  1.3790 -0.9675 -0.3627
  332MOL0     H44772   7.871   8.634  -0.164 -1.8000 -4.2095  0.2201
  332MOL0     H44773   7.825   8.694  -0.323 -0.8472  0.2526  1.4457
  332MOL0     H44774   7.892   8.407  -0.241 -0.8291 -2.2619 -1.2204
  332MOL0     H44775   7.875   8.447  -0.410 -3.7799 -3.1797 -0.3677
  332MOL0     H44776   7.650   8.530  -0.384 -3.7581 -1.6601 -0.6096
  332MOL0     H44777   7.654   8.517  -0.211 -0.7023  5.9576 -3.9438
  332MOL0     H44778   7.521   8.337  -0.300 -0.1930 -0.6743 -0.5945
  332MOL0     H44779   7.672   8.259  -0.240 -1.6231  0.2033  2.5471
  332MOL0     H44780   7.477   8.109  -0.323 -0.5741  2.1730 -0.3341
  332MOL0     H44781   7.396   7.783  -0.412 -0.5646 -0.2174  1.0240
  332MOL0     H44782   7.345   7.932  -0.328  0.7311  0.1338  0.6569
  332MOL0     H44783   7.270   7.888  -0.486 -1.4114 -0.6200  2.6976
  332MOL0     H44784   7.481   7.842  -1.064  2.0166 -1.0593  0.3471
  332MOL0     H44785   7.331   7.680  -1.205  3.2747  2.4875 -1.6423
  332MOL0     H44786   7.476   7.321  -1.165 -0.3997  1.6503  1.7710
  332MOL0     H44787   7.331   7.242  -1.098 -3.4879  1.5330 -0.0340
  332MOL0     H44788   7.351   7.336  -1.392 -0.5721 -0.5658 -0.3800
  332MOL0     H44789   7.439   7.187  -1.346  1.2115  2.1608 -0.6170
  332MOL0     H44790   7.200   7.169  -1.435  0.3410  0.3018 -0.1369
  332MOL0     H44791   7.142   7.220  -1.281 -0.2490 -2.3936  1.1317
  332MOL0     H44792   7.286   6.963  -1.348 -0.5800 -2.4710  0.2610
  332MOL0     H44793   7.291   7.028  -1.184 -0.8150  3.4278  0.3730
  332MOL0     H44794   7.035   7.049  -1.198  1.7127  0.5089  1.0907
  332MOL0     H44795   7.103   6.874  -1.199  3.0870  0.7310  0.6788
  332MOL0     H44796   6.972   7.032  -1.419  3.5730  1.1590 -0.2533
  332MOL0     H44797   7.084   6.900  -1.462 -0.2919 -3.7028  1.2428
  332MOL0     H44798   6.823   6.848  -1.316 -2.1998 -1.3907 -3.2186
  332MOL0     H44799   6.959   6.735  -1.316 -0.0792 -0.4296  0.3370
  332MOL0     H44800   6.791   6.703  -1.505 -1.0373  1.6651 -0.2905
  332MOL0     H44801   6.962   6.733  -1.558 -0.3100 -0.6907 -1.6913
  332MOL0     H44802   7.397   7.392  -0.898 -1.2142 -0.3874 -0.6767
  332MOL0     H44803   7.483   7.555  -0.755  1.2282 -0.5610 -0.3369
  332MOL0     H44804   7.631   8.033  -0.784 -0.0941  0.5188 -0.4205
  332MOL0     H44805   7.723   8.213  -0.666  0.4340 -0.3834  0.4618
  332MOL0     H44806   8.816   8.158  -0.376 -1.8270  3.5212  2.7338
  332MOL0     H44807   8.810   7.950  -0.275  1.2998 -1.5110 -2.9010
  332MOL0     H44808   8.947   7.746   0.285  0.0488  1.8677 -1.4060
  332MOL0     H44809   8.942   7.519   0.356  0.0615  0.7987  0.2860
  332MOL0     H44810   8.994   7.154   0.327 -0.2401 -0.4320 -1.2960
  332MOL0     H44811   9.005   7.315   0.403  2.8466 -0.3742 -1.3792
  332MOL0     H44812   8.755   7.343   0.346 -2.8536 -1.4774  2.0928
  332MOL0     H44813   8.806   7.213   0.463  0.5148  0.2389 -0.3770
  332MOL0     H44814   8.800   7.053   0.290 -1.6243 -1.0111  0.9704
  332MOL0     H44815   8.762   7.162   0.165  3.7808  1.0689  0.9315
  332MOL0     H44816   8.539   7.060   0.224 -2.0583  0.5530  0.2709
  332MOL0     H44817   8.539   7.231   0.256  1.5333 -0.5704 -4.1911
  332MOL0     H44818   8.503   7.047   0.642 -4.2242  1.7694  0.1012
  332MOL0     H44819   9.025   7.395  -0.052  0.0610 -0.8118  0.3793
  332MOL0     H44820   9.066   7.625  -0.113 -0.4188 -0.1514 -0.0600
  333MOL0     O44821   2.407   4.352  10.369  0.0580 -0.3893 -0.1539
  333MOL0     C44822   2.434   4.416  10.267  0.6995 -0.1153 -0.0053
  333MOL0     O44823   2.451   4.553  10.252 -0.4994 -0.4115  0.5467
  333MOL0     C44824   2.431   4.612  10.368  0.3256  0.0631  0.8217
  333MOL0     C44825   2.319   4.705  10.367 -1.5385 -1.4107  0.4278
  333MOL0     C44826   2.292   4.784  10.486 -0.0822 -0.1913 -0.5412
  333MOL0     C44827   2.379   4.778  10.597  0.3192  0.0855  0.5737
  333MOL0     O44828   2.360   4.858  10.703 -0.3330  0.4474 -0.0235
  333MOL0     C44829   2.445   4.977  10.722 -0.1780  0.1474  1.3932
  333MOL0     C44830   2.413   5.085  10.623  0.7185  1.0420  0.9180
  333MOL0     C44831   2.265   5.132  10.631 -0.8331 -0.3296 -1.0385
  333MOL0     C44832   2.256   5.288  10.640 -0.3770  0.6338  0.0163
  333MOL0     C44833   2.129   5.328  10.578  0.2397  0.3653 -0.5961
  333MOL0     C44834   2.007   5.290  10.653  0.1768  0.8716 -0.3034
  333MOL0     C44835   1.898   5.391  10.639 -0.2452  0.0472 -0.0689
  333MOL0     C44836   1.829   5.402  10.504  0.4018 -0.0938  0.0652
  333MOL0     N44837   1.738   5.286  10.489  0.6700  0.2890 -0.7358
  333MOL0     C44838   1.603   5.276  10.536 -0.0653 -0.5030 -0.5034
  333MOL0     C44839   1.559   5.161  10.507  1.0416  0.1143  0.2809
  333MOL0     C44840   1.423   5.107  10.553  1.4732  1.2152  0.4997
  333MOL0     C44841   1.352   5.003  10.453  0.2535 -0.4069 -0.3614
  333MOL0     C44842   1.303   5.075  10.330  0.5763 -0.1373  0.5592
  333MOL0     C44843   1.179   5.000  10.268  1.1002 -0.2691  0.1957
  333MOL0     O44844   1.067   5.052  10.326  1.1913 -0.1776  0.1674
  333MOL0     C44845   0.989   4.979  10.412 -0.1114  0.3258 -0.3779
  333MOL0     C44846   0.956   5.037  10.537  0.1211  0.7078  0.3515
  333MOL0     C44847   0.885   4.961  10.635 -0.1856  0.5317 -0.5695
  333MOL0     C44848   0.833   5.042  10.752 -0.4951 -0.1521  0.8117
  333MOL0     C44849   0.854   4.823  10.606  1.1711  0.3419 -0.7470
  333MOL0     C44850   0.781   4.725  10.696 -0.2946 -1.0380  0.2040
  333MOL0     O44851   0.746   4.602  10.638  0.2014 -0.3095  0.2283
  333MOL0     C44852   0.663   4.515  10.710 -1.3760  0.0731  0.5504
  333MOL0     C44853   0.600   4.417  10.634  0.2340 -0.9805 -0.9466
  333MOL0     C44854   0.543   4.303  10.690  1.1793 -0.7258 -0.3724
  333MOL0     C44855   0.536   4.287  10.829  0.3324  1.1443 -0.2527
  333MOL0     O44856   0.472   4.172  10.887 -0.3265 -0.4057 -0.4934
  333MOL0     C44857   0.536   4.109  11.001 -0.0252 -0.6718  0.1841
  333MOL0     C44858   0.675   4.055  10.978  0.9316 -0.0745  0.2052
  333MOL0     C44859   0.681   3.956  10.861 -0.2843  0.7197  0.5537
  333MOL0     C44860   0.814   3.879  10.856 -0.5170 -0.6088 -0.0623
  333MOL0     C44861   0.832   3.796  10.722  0.2757 -0.5104 -0.0626
  333MOL0     C44862   0.978   3.757  10.703 -0.2532 -0.1455 -0.2119
  333MOL0     C44863   1.017   3.743  10.558  0.6485 -0.4172  0.7844
  333MOL0     C44864   1.173   3.728  10.539  0.1920  0.9208 -0.1353
  333MOL0    Cl44865   1.256   3.894  10.587 -0.1578 -0.3971  0.2956
  333MOL0     C44866   0.601   4.389  10.901 -0.2745  0.3430  0.1789
  333MOL0     C44867   0.666   4.495  10.845 -0.2859 -0.3536 -0.8067
  333MOL0     O44868   0.748   4.771  10.806  0.7322 -0.0226  0.3888
  333MOL0     C44869   0.894   4.769  10.484  0.0572  0.6552  1.2366
  333MOL0     C44870   0.963   4.844  10.395  0.0262 -0.2872 -0.5641
  333MOL0     N44871   1.661   5.101  10.438  0.5668 -0.2229  0.8198
  333MOL0     N44872   1.768   5.175  10.426  0.1560  0.1045  0.1415
  333MOL0     C44873   2.497   4.700  10.588  0.7042 -0.7440 -0.1445
  333MOL0     C44874   2.517   4.605  10.483 -0.4388 -0.5475 -0.4941
  333MOL0     C44875   2.452   4.338  10.136 -0.4822 -0.6019 -0.1124
  333MOL0     C44876   2.430   4.199  10.134  0.4061  0.4956  0.6323
  333MOL0     C44877   2.454   4.127  10.019 -0.7147 -0.5286  0.7369
  333MOL0     C44878   2.506   4.190   9.905 -0.6755  0.4236 -0.4101
  333MOL0     O44879   2.518   4.104   9.798  0.4811 -0.1199 -0.3829
  333MOL0     C44880   2.580   4.157   9.679 -0.4852 -0.1886 -0.0533
  333MOL0     C44881   2.600   4.057   9.576  0.4693 -0.6571 -0.3108
  333MOL0     C44882   2.673   3.926   9.631  0.8757 -0.0633  0.0253
  333MOL0     C44883   2.672   3.803   9.529 -0.1220 -0.4134  0.6418
  333MOL0     C44884   2.534   3.772   9.486  0.1320 -0.2511  0.1395
  333MOL0     C44885   2.425   3.741   9.449 -0.3229 -0.3141 -0.7465
  333MOL0     C44886   2.529   4.327   9.901 -0.3830 -0.0917 -0.5955
  333MOL0     C44887   2.497   4.400  10.020 -0.3853 -0.0666  0.5203
  333MOL0     H44888   2.243   4.724  10.293 -0.5753 -1.5549 -0.6312
  333MOL0     H44889   2.200   4.841  10.482 -1.7305 -2.2712  3.1160
  333MOL0     H44890   2.425   5.019  10.821 -0.6015 -0.9641  1.7949
  333MOL0     H44891   2.544   4.936  10.701 -0.7084 -0.2374 -0.6115
  333MOL0     H44892   2.490   5.162  10.629  2.4746  0.0629 -4.1610
  333MOL0     H44893   2.442   5.039  10.529  0.0857 -0.3425  1.3713
  333MOL0     H44894   2.220   5.094  10.539 -3.3069  1.5625 -0.7024
  333MOL0     H44895   2.214   5.086  10.717  0.6120  1.8198  1.1178
  333MOL0     H44896   2.257   5.328  10.741  1.0764  0.6999 -0.0056
  333MOL0     H44897   2.345   5.330  10.593  1.0913 -0.4379  1.7052
  333MOL0     H44898   2.131   5.437  10.566 -0.8955  0.2785 -1.9608
  333MOL0     H44899   2.112   5.283  10.479  0.0296 -3.7804  1.1637
  333MOL0     H44900   1.972   5.198  10.606 -0.6466  2.3763 -2.8185
  333MOL0     H44901   2.031   5.263  10.756  2.7569 -0.4297 -1.1686
  333MOL0     H44902   1.833   5.377  10.725  0.2746 -0.5215  0.2372
  333MOL0     H44903   1.946   5.487  10.659  0.8994 -0.6934  0.8784
  333MOL0     H44904   1.910   5.398  10.430  0.1573 -0.6244 -0.1800
  333MOL0     H44905   1.778   5.498  10.502 -0.2363 -0.4373 -1.1581
  333MOL0     H44906   1.549   5.349  10.596  0.5320 -2.2333  2.3145
  333MOL0     H44907   1.432   5.067  10.654  1.1543  2.0587  0.8726
  333MOL0     H44908   1.351   5.189  10.557 -2.8600 -2.2094  0.5784
  333MOL0     H44909   1.277   4.957  10.519  1.6524  0.3718  1.8592
  333MOL0     H44910   1.430   4.932  10.424  1.7809  1.2090 -0.3978
  333MOL0     H44911   1.388   5.075  10.261  0.7481 -2.3363  0.7054
  333MOL0     H44912   1.270   5.178  10.348 -0.5100 -0.3778  0.0423
  333MOL0     H44913   1.187   4.892  10.285 -3.2174 -1.0043 -1.1426
  333MOL0     H44914   1.169   5.020  10.161  2.3245  1.3608  0.3438
  333MOL0     H44915   1.008   5.124  10.577  2.0461 -0.8231  1.4006
  333MOL0     H44916   0.724   5.038  10.756 -0.4985 -2.5157  0.3027
  333MOL0     H44917   0.877   5.006  10.845 -2.8697 -0.4801  1.8853
  333MOL0     H44918   0.852   5.149  10.740 -3.3978  0.2824 -0.7809
  333MOL0     H44919   0.614   4.424  10.527 -0.5971  0.9041 -0.9574
  333MOL0     H44920   0.482   4.241  10.625 -0.8161 -3.5598  3.7690
  333MOL0     H44921   0.527   4.183  11.081 -2.3662  0.8971 -1.4014
  333MOL0     H44922   0.478   4.025  11.039 -0.6033  2.0424  6.4447
  333MOL0     H44923   0.743   4.140  10.970  1.4126 -0.3715  1.0417
  333MOL0     H44924   0.700   4.006  11.072  0.7193  1.0549  0.8661
  333MOL0     H44925   0.682   4.017  10.770 -1.8335 -1.4623 -1.0215
  333MOL0     H44926   0.600   3.883  10.865 -1.7143  2.2457  0.6324
  333MOL0     H44927   0.894   3.951  10.876 -3.0886  2.5849 -0.4763
  333MOL0     H44928   0.814   3.807  10.938  1.6017 -2.0239 -1.1894
  333MOL0     H44929   0.811   3.866  10.641 -0.2737 -0.0494  0.4699
  333MOL0     H44930   0.755   3.717  10.722 -1.6925  1.2658 -2.1462
  333MOL0     H44931   1.046   3.823  10.757 -1.8429  0.8716  0.5901
  333MOL0     H44932   1.013   3.661  10.743  2.1850  1.9911  3.3726
  333MOL0     H44933   0.988   3.831  10.500  3.3034 -0.7064 -1.1248
  333MOL0     H44934   0.971   3.653  10.517 -0.5921  0.7166 -0.4158
  333MOL0     H44935   1.196   3.716  10.433  2.6601  3.3835  0.0128
  333MOL0     H44936   1.206   3.639  10.595 -0.2554  0.2549 -0.9182
  333MOL0     H44937   0.619   4.366  11.006  0.5545  0.2174  0.0111
  333MOL0     H44938   0.725   4.556  10.913  0.6276  0.2238 -2.0816
  333MOL0     H44939   0.873   4.666  10.458 -3.4630  1.2796  1.1396
  333MOL0     H44940   0.994   4.790  10.307  0.1126  2.1811 -2.1356
  333MOL0     H44941   2.550   4.693  10.683  0.3889 -0.0593  0.0926
  333MOL0     H44942   2.598   4.533  10.488 -1.3063 -1.5179  0.0398
  333MOL0     H44943   2.388   4.150  10.221 -0.0776 -1.0739 -0.4488
  333MOL0     H44944   2.438   4.020  10.022 -1.7956 -0.3911  0.3043
  333MOL0     H44945   2.523   4.241   9.637  0.6086 -0.2645 -1.8431
  333MOL0     H44946   2.680   4.187   9.710 -1.0690  0.1712  1.5660
  333MOL0     H44947   2.655   4.096   9.490 -0.1392 -0.9837 -0.8546
  333MOL0     H44948   2.503   4.025   9.538  1.1012 -0.2908 -2.3324
  333MOL0     H44949   2.623   3.891   9.722  0.5202  0.6684  0.1180
  333MOL0     H44950   2.778   3.942   9.658 -0.6245  1.1438  6.7474
  333MOL0     H44951   2.717   3.716   9.576 -1.5182 -0.9382  1.0390
  333MOL0     H44952   2.734   3.828   9.442  0.2478  2.2988  1.5974
  333MOL0     H44953   2.320   3.728   9.432 -1.0291 -0.2022  2.8711
  333MOL0     H44954   2.545   4.387   9.812  0.7675  0.2363 -0.1784
  333MOL0     H44955   2.505   4.508  10.023 -0.9108  0.0091 -0.4394
  334MOL0     O44956   9.662   3.019   8.155  0.6381 -0.0127  0.0717
  334MOL0     C44957   9.771   3.022   8.109  0.4676 -0.5939 -0.7550
  334MOL0     O44958   9.869   2.926   8.129 -0.3202 -0.3624  0.3099
  334MOL0     C44959   9.843   2.839   8.231 -0.0578 -0.1143  0.0796
  334MOL0     C44960   9.930   2.842   8.344  0.4834 -0.0679  0.2572
  334MOL0     C44961   9.900   2.760   8.456  0.1438  0.0479  0.1706
  334MOL0     C44962   9.795   2.669   8.442  0.0599  1.6990  0.0234
  334MOL0     O44963   9.772   2.578   8.548 -0.8496 -0.7219 -0.0191
  334MOL0     C44964   9.834   2.448   8.522  1.3843 -0.0220 -0.5629
  334MOL0     C44965   9.745   2.338   8.587 -0.4396  0.0604  0.4727
  334MOL0     C44966   9.604   2.326   8.517  0.1526 -0.5658 -0.2673
  334MOL0     C44967   9.512   2.265   8.622 -0.7018  0.2528  0.3235
  334MOL0     C44968   9.388   2.219   8.534 -0.2121 -0.9094 -1.0548
  334MOL0     C44969   9.279   2.155   8.634  0.4074 -0.4778 -0.2358
  334MOL0     C44970   9.161   2.102   8.560 -0.2997 -0.0542 -0.2107
  334MOL0     C44971   9.046   2.044   8.648 -0.3727 -1.4784 -0.3862
  334MOL0     N44972   8.931   2.011   8.561 -0.0709 -0.5401 -0.0582
  334MOL0     C44973   8.863   1.891   8.574 -0.8463 -0.2407  0.3293
  334MOL0     C44974   8.738   1.914   8.522 -0.8581  0.8746 -0.0881
  334MOL0     C44975   8.630   1.808   8.524  1.3145  0.7372  0.1073
  334MOL0     C44976   8.675   1.676   8.567 -0.2616  0.0565  0.0561
  334MOL0     C44977   8.560   1.570   8.544  0.1247  0.0495  0.1605
  334MOL0     C44978   8.536   1.535   8.389  0.0515  0.0001 -0.3795
  334MOL0     O44979   8.513   1.395   8.369  0.2766  0.4938  0.1047
  334MOL0     C44980   8.616   1.306   8.365  0.2964  0.8375  0.4733
  334MOL0     C44981   8.741   1.306   8.419 -0.2135  0.9309  0.3801
  334MOL0     C44982   8.837   1.208   8.394  0.4004 -0.4963 -0.2601
  334MOL0     C44983   8.965   1.220   8.481 -0.4514 -0.0272  0.6205
  334MOL0     C44984   8.798   1.099   8.318 -0.4243  0.7585  0.2858
  334MOL0     C44985   8.881   0.978   8.293  0.0272 -0.0483 -0.5604
  334MOL0     O44986   8.823   0.891   8.201 -0.4219  0.0109 -0.4942
  334MOL0     C44987   8.900   0.782   8.181 -0.9749  0.7104  0.7890
  334MOL0     C44988   8.985   0.766   8.072  0.5040 -0.0698 -0.5946
  334MOL0     C44989   9.067   0.660   8.071 -0.6402 -0.3490  0.1260
  334MOL0     C44990   9.044   0.549   8.150 -0.6753 -0.2334 -0.7915
  334MOL0     O44991   9.126   0.438   8.133  0.5521  0.3861 -0.7546
  334MOL0     C44992   9.167   0.361   8.255  0.1589 -0.0729 -0.7640
  334MOL0     C44993   9.259   0.250   8.198 -0.5742  0.2689 -0.5558
  334MOL0     C44994   9.344   0.190   8.306  0.8877  0.1207 -1.0594
  334MOL0     C44995   9.346   0.043   8.305  0.5073 -0.6321 -0.3382
  334MOL0     C44996   9.388  -0.012   8.172 -0.9807 -0.2240 -0.1813
  334MOL0     C44997   9.366  -0.161   8.179  0.1971 -0.2087  0.2734
  334MOL0     C44998   9.219  -0.205   8.155 -0.8867  0.3850  0.0298
  334MOL0     C44999   9.222  -0.349   8.103  0.2870  0.7609  0.8513
  334MOL0    Cl45000   9.055  -0.415   8.072 -0.2845  0.2529  0.2287
  334MOL0     C45001   8.946   0.553   8.247 -0.3378  0.6970  0.7979
  334MOL0     C45002   8.880   0.677   8.269  0.7719  0.3580  0.7738
  334MOL0     O45003   8.973   0.945   8.373 -0.1628 -0.4289  0.8784
  334MOL0     C45004   8.670   1.105   8.247  1.2490  0.4028  0.2130
  334MOL0     C45005   8.577   1.206   8.279  1.3713  0.3369  0.7251
  334MOL0     N45006   8.730   2.046   8.479  0.4596  0.6420  0.8053
  334MOL0     N45007   8.844   2.099   8.502  0.0259  0.2039  0.5095
  334MOL0     C45008   9.707   2.661   8.331  0.3912 -0.0622  0.4770
  334MOL0     C45009   9.738   2.750   8.223  0.1682  1.0737 -0.1361
  334MOL0     C45010   9.806   3.138   8.023 -0.7862  0.5901  0.0622
  334MOL0     C45011   9.710   3.230   7.984  0.1485 -0.0028 -0.2361
  334MOL0     C45012   9.742   3.334   7.902 -0.4453  0.1267  0.7601
  334MOL0     C45013   9.874   3.360   7.855 -0.4371 -0.4407  0.5310
  334MOL0     O45014   9.915   3.464   7.773 -0.8398  0.3058  0.4454
  334MOL0     C45015   9.828   3.527   7.681 -0.0626 -0.0659 -0.0202
  334MOL0     C45016   9.898   3.648   7.609 -0.3570 -0.1724  0.4985
  334MOL0     C45017   9.819   3.671   7.479 -1.1860 -0.1879  0.5972
  334MOL0     C45018   9.877   3.585   7.364 -0.5115  0.3412 -0.1107
  334MOL0     C45019   9.999   3.654   7.320 -0.4211 -0.2189 -0.2163
  334MOL0     C45020  10.096   3.709   7.273 -0.8822  0.2896 -0.3629
  334MOL0     C45021   9.980   3.270   7.884  0.6062  0.6360 -0.0976
  334MOL0     C45022   9.947   3.161   7.970  0.9121  0.5667 -0.5608
  334MOL0     H45023  10.014   2.910   8.356 -0.1544  0.3600  2.7381
  334MOL0     H45024   9.958   2.761   8.548 -2.7096  1.2752  2.0879
  334MOL0     H45025   9.841   2.423   8.416  3.2796 -3.3570  0.2268
  334MOL0     H45026   9.935   2.445   8.562  1.9553 -0.2416 -1.9533
  334MOL0     H45027   9.800   2.244   8.586  1.1015  0.8713 -2.8735
  334MOL0     H45028   9.732   2.366   8.692 -0.2840 -0.6409  0.6803
  334MOL0     H45029   9.584   2.430   8.490  0.5589  0.1063  1.7826
  334MOL0     H45030   9.609   2.257   8.433 -2.1848 -3.5880  1.8410
  334MOL0     H45031   9.558   2.181   8.674 -2.4853 -1.0698 -0.1569
  334MOL0     H45032   9.501   2.340   8.701  1.0852 -0.2964  1.1521
  334MOL0     H45033   9.333   2.302   8.489 -1.4351 -1.8925 -1.4451
  334MOL0     H45034   9.428   2.148   8.462  0.7632 -1.6117  0.1310
  334MOL0     H45035   9.340   2.085   8.691  2.7372  0.6287 -1.2529
  334MOL0     H45036   9.241   2.229   8.704 -3.3835 -2.0073 -0.4171
  334MOL0     H45037   9.124   2.182   8.495 -1.0284 -0.5256 -0.3952
  334MOL0     H45038   9.187   2.021   8.491 -2.2496  0.8112 -2.0653
  334MOL0     H45039   9.024   2.118   8.725  2.0837  0.8489 -1.7316
  334MOL0     H45040   9.084   1.950   8.691  3.6564  0.0930 -0.0771
  334MOL0     H45041   8.911   1.800   8.608  2.0397  0.4826 -1.5013
  334MOL0     H45042   8.551   1.847   8.589 -0.8927  0.8834 -2.4981
  334MOL0     H45043   8.592   1.788   8.424  1.4688 -1.9971  0.5244
  334MOL0     H45044   8.702   1.675   8.673 -0.1046  1.4236  0.0472
  334MOL0     H45045   8.771   1.653   8.520  0.6933  0.4025  1.7575
  334MOL0     H45046   8.463   1.596   8.588 -0.6145 -1.3714 -0.5563
  334MOL0     H45047   8.592   1.482   8.602 -0.8682 -0.1281  0.4699
  334MOL0     H45048   8.621   1.567   8.328  0.3094  1.2809  0.6028
  334MOL0     H45049   8.451   1.596   8.356  0.5573  1.4689  0.9204
  334MOL0     H45050   8.773   1.393   8.476 -1.7579  1.6105  0.2516
  334MOL0     H45051   9.037   1.285   8.431  0.0932 -2.0956 -1.4833
  334MOL0     H45052   8.931   1.268   8.573 -5.1681 -2.2327  0.3435
  334MOL0     H45053   9.016   1.126   8.503 -2.5157 -0.8839  2.0333
  334MOL0     H45054   9.008   0.851   8.008  2.0082  2.3030  2.7624
  334MOL0     H45055   9.146   0.649   7.997  0.4580 -2.1267  1.4670
  334MOL0     H45056   9.238   0.420   8.312  0.5713 -1.5046  0.2662
  334MOL0     H45057   9.085   0.319   8.315 -0.2694 -1.8438 -2.4771
  334MOL0     H45058   9.193   0.181   8.147 -0.0139 -1.1286  0.5485
  334MOL0     H45059   9.316   0.305   8.122  1.1601  1.2319  1.3263
  334MOL0     H45060   9.289   0.212   8.398  2.9118 -0.3902  0.3471
  334MOL0     H45061   9.448   0.221   8.313  0.8731  0.0022 -0.1195
  334MOL0     H45062   9.404   0.010   8.392 -1.9940  0.7073  2.0028
  334MOL0     H45063   9.246   0.006   8.330 -0.2532  1.4856 -0.0300
  334MOL0     H45064   9.496   0.003   8.167 -0.5855 -2.7457 -0.4755
  334MOL0     H45065   9.343   0.021   8.078  3.3830 -0.8581 -2.7772
  334MOL0     H45066   9.434  -0.203   8.104  1.5037 -1.9315  2.3082
  334MOL0     H45067   9.400  -0.197   8.276  2.1272 -2.5366 -1.1554
  334MOL0     H45068   9.169  -0.143   8.079  1.3942 -1.0587 -2.8374
  334MOL0     H45069   9.164  -0.207   8.249  1.5266  0.3751  1.5287
  334MOL0     H45070   9.287  -0.416   8.160  3.0394  0.3892 -2.3921
  334MOL0     H45071   9.263  -0.346   8.002 -2.1408 -0.8858 -0.2784
  334MOL0     H45072   8.936   0.466   8.311  3.7413  0.0636  0.8822
  334MOL0     H45073   8.818   0.695   8.357 -0.4249 -0.5042  0.1325
  334MOL0     H45074   8.629   1.033   8.177  1.2432  1.1492 -0.5683
  334MOL0     H45075   8.473   1.205   8.247  0.8848 -0.0839  2.2085
  334MOL0     H45076   9.621   2.597   8.315 -0.5234  1.3400 -0.5492
  334MOL0     H45077   9.673   2.742   8.137 -1.5201 -0.5396  1.2198
  334MOL0     H45078   9.603   3.215   7.999  0.2447 -2.9543 -1.8262
  334MOL0     H45079   9.663   3.404   7.877  0.1063  0.9468  1.2856
  334MOL0     H45080   9.800   3.454   7.605 -0.0065  0.1789 -0.2811
  334MOL0     H45081   9.741   3.565   7.735  1.4950  2.1775  1.0948
  334MOL0     H45082  10.001   3.614   7.591 -0.3232  1.2090 -2.4368
  334MOL0     H45083   9.901   3.738   7.671  0.8015  1.1809 -1.4139
  334MOL0     H45084   9.837   3.778   7.464 -0.1439  0.0565  2.9626
  334MOL0     H45085   9.711   3.655   7.483 -1.4934  1.3084 -0.7174
  334MOL0     H45086   9.820   3.564   7.273  0.6026  0.6494 -0.8930
  334MOL0     H45087   9.924   3.495   7.404  3.5166  0.6860 -3.3745
  334MOL0     H45088  10.186   3.752   7.235 -1.9031  4.3062  1.2793
  334MOL0     H45089  10.079   3.285   7.842  0.4402 -0.2909 -0.8694
  334MOL0     H45090  10.019   3.087   8.001  1.6827  2.2204  1.9333
  335MOL0     O45091  11.340   8.393   9.703 -0.0143 -0.2704 -0.1820
  335MOL0     C45092  11.414   8.339   9.786 -0.1647  0.0112  0.0065
  335MOL0     O45093  11.394   8.342   9.917  1.0824 -0.0840  0.1886
  335MOL0     C45094  11.286   8.411   9.961 -0.2660  0.0726 -0.0929
  335MOL0     C45095  11.194   8.344  10.041  0.5066 -0.1386 -0.0057
  335MOL0     C45096  11.088   8.415  10.106  1.0375 -0.0221  0.8903
  335MOL0     C45097  11.069   8.551  10.068  0.0013  0.2500  0.3044
  335MOL0     O45098  10.966   8.639  10.110 -0.1990  0.8714  0.7616
  335MOL0     C45099  10.906   8.626  10.237 -0.0352 -0.5164 -0.3348
  335MOL0     C45100  10.831   8.754  10.276  0.4331  0.1041  0.1532
  335MOL0     C45101  10.910   8.886  10.231  0.6015  0.7829  0.0221
  335MOL0     C45102  10.843   9.019  10.279  0.4555 -0.1693 -0.2554
  335MOL0     C45103  10.892   9.154  10.215 -0.0618 -0.1880 -0.8424
  335MOL0     C45104  10.814   9.270  10.286  0.1539  0.0759 -0.1339
  335MOL0     C45105  10.845   9.402  10.237 -0.3742 -1.1927 -0.5779
  335MOL0     C45106  10.779   9.507  10.328 -0.3579  0.6524  0.2001
  335MOL0     N45107  10.778   9.647  10.284 -0.5545  0.0320 -0.1325
  335MOL0     C45108  10.754   9.697  10.161  0.0077  0.0324 -0.2046
  335MOL0     C45109  10.756   9.837  10.176  0.2194 -0.5843  0.7469
  335MOL0     C45110  10.742   9.939  10.067  0.2235  0.2430 -0.1836
  335MOL0     C45111  10.856  10.044  10.070 -0.0310  0.3932 -0.7400
  335MOL0     C45112  10.884  10.151   9.955  0.7056 -0.4839  0.6499
  335MOL0     C45113  10.772  10.259   9.942 -0.0415  0.1322  0.5602
  335MOL0     O45114  10.664  10.217   9.855  0.3839  0.2183  0.0515
  335MOL0     C45115  10.528  10.209   9.892 -0.6091 -0.5798  0.3035
  335MOL0     C45116  10.450  10.154   9.785 -0.7011  0.1592 -0.0814
  335MOL0     C45117  10.313  10.147   9.791  0.4898  0.0825  0.0954
  335MOL0     C45118  10.223  10.106   9.670 -0.3320  0.1552  0.0225
  335MOL0     C45119  10.247  10.201   9.898  0.2481  0.1650 -0.0829
  335MOL0     C45120  10.110  10.169   9.935  0.8252  0.7161  1.0609
  335MOL0     O45121  10.052  10.050   9.889  0.0763 -0.0573 -0.3238
  335MOL0     C45122   9.919  10.028   9.894 -0.9175  0.9175  0.4653
  335MOL0     C45123   9.831  10.065   9.796 -0.3873 -0.5567 -0.4260
  335MOL0     C45124   9.694  10.045   9.821 -0.4722 -0.2693  1.0856
  335MOL0     C45125   9.646   9.978   9.936 -0.3610  1.1218  0.6977
  335MOL0     O45126   9.503   9.962   9.957 -0.7394  0.4038  0.1391
  335MOL0     C45127   9.420   9.937   9.848 -0.2436  0.6296 -0.5904
  335MOL0     C45128   9.293   9.859   9.901 -0.5815  0.1083  0.8631
  335MOL0     C45129   9.315   9.739   9.993  0.4719  0.0185 -0.6641
  335MOL0     C45130   9.186   9.652  10.013  0.3447  0.9556 -0.7112
  335MOL0     C45131   9.059   9.734  10.052  0.7331 -0.1825 -0.0159
  335MOL0     C45132   8.949   9.662  10.131  0.0190 -0.5824 -0.0010
  335MOL0     C45133   8.832   9.743  10.176  0.6360  0.2529  0.5879
  335MOL0     C45134   8.877   9.840  10.288 -0.4847 -0.4327  0.5191
  335MOL0    Cl45135   8.891   9.740  10.437  0.4855  0.1477 -0.3081
  335MOL0     C45136   9.737   9.922  10.022 -0.8310 -0.0934 -0.2712
  335MOL0     C45137   9.874   9.946  10.005  1.0395 -0.2771 -0.6039
  335MOL0     O45138  10.044  10.259   9.967 -0.7241 -0.7724 -0.1435
  335MOL0     C45139  10.320  10.265   9.997  0.2183 -0.5867  0.1790
  335MOL0     C45140  10.463  10.268   9.999  0.0044  0.6655  0.5352
  335MOL0     N45141  10.768   9.867  10.310  0.4587  0.1431  0.1720
  335MOL0     N45142  10.782   9.752  10.368 -0.0934  0.4400  0.4337
  335MOL0     C45143  11.158   8.611   9.983 -0.1545  0.8985  0.5049
  335MOL0     C45144  11.274   8.549   9.939  0.1589  0.3001  0.4245
  335MOL0     C45145  11.543   8.270   9.736  0.4720  0.4038 -0.3187
  335MOL0     C45146  11.561   8.261   9.596  0.6229 -0.5478  0.2326
  335MOL0     C45147  11.658   8.179   9.542 -0.9233 -0.4152  0.3916
  335MOL0     C45148  11.746   8.114   9.631 -0.4513 -0.2769 -0.0935
  335MOL0     O45149  11.862   8.054   9.580  0.2740 -0.6491  0.0798
  335MOL0     C45150  11.950   7.985   9.673 -0.4535 -0.4270  0.7572
  335MOL0     C45151  12.074   7.916   9.606  0.8523  0.0366 -0.2210
  335MOL0     C45152  12.162   8.010   9.514  0.2478  0.3861 -0.6009
  335MOL0     C45153  12.266   7.938   9.428 -0.5072 -0.6026  0.2655
  335MOL0     C45154  12.272   7.999   9.299  0.7179 -0.9101  0.3310
  335MOL0     C45155  12.286   8.054   9.189  0.0258 -0.3237 -0.1824
  335MOL0     C45156  11.730   8.127   9.770  0.2092  0.1087  0.9060
  335MOL0     C45157  11.629   8.200   9.819 -0.3897 -0.2581 -0.4390
  335MOL0     H45158  11.206   8.236  10.046 -0.3491 -0.2280  0.2746
  335MOL0     H45159  11.020   8.383  10.185 -0.9588  3.7622  0.9353
  335MOL0     H45160  10.831   8.546  10.236 -0.9531  0.2959 -2.1299
  335MOL0     H45161  10.994   8.614  10.300  0.5345  2.2778 -0.4639
  335MOL0     H45162  10.736   8.750  10.221  1.8127  0.2076 -2.3728
  335MOL0     H45163  10.808   8.762  10.383  1.5052  0.5456  0.3556
  335MOL0     H45164  11.011   8.873  10.272  0.3556  0.7081  0.6037
  335MOL0     H45165  10.914   8.890  10.122  1.5044 -1.2093 -0.0683
  335MOL0     H45166  10.736   9.006  10.262  1.0708 -2.3577 -3.2599
  335MOL0     H45167  10.870   9.018  10.385  6.1906  0.1662 -1.3870
  335MOL0     H45168  10.997   9.147  10.246 -0.8945  1.3438  2.8138
  335MOL0     H45169  10.878   9.155  10.107 -1.1371  0.6574 -0.7105
  335MOL0     H45170  10.706   9.260  10.268 -0.1272  3.0224 -0.7329
  335MOL0     H45171  10.835   9.266  10.393 -1.6656  2.0617  0.3813
  335MOL0     H45172  10.952   9.419  10.248 -0.9418  1.5584  1.7474
  335MOL0     H45173  10.813   9.429  10.135  1.8609  0.6811 -0.8601
  335MOL0     H45174  10.816   9.493  10.431  1.3455  1.1850 -0.2968
  335MOL0     H45175  10.672   9.486  10.326 -0.0610 -1.5545 -4.1852
  335MOL0     H45176  10.768   9.640  10.070  1.1696  0.0096 -0.0287
  335MOL0     H45177  10.735   9.886   9.971 -3.1679 -0.5530  0.3704
  335MOL0     H45178  10.645   9.989  10.069 -0.8015 -1.6519  0.0351
  335MOL0     H45179  10.948   9.985  10.071  0.3248  0.9367  0.3459
  335MOL0     H45180  10.860  10.086  10.171 -0.9349 -2.3512  0.5444
  335MOL0     H45181  10.908  10.104   9.860 -0.2201  0.3787 -0.0227
  335MOL0     H45182  10.975  10.209   9.973 -1.3603  2.7979  1.2521
  335MOL0     H45183  10.819  10.351   9.905 -1.3000 -0.2277 -2.1737
  335MOL0     H45184  10.740  10.279  10.044  1.1411  0.4441  0.8920
  335MOL0     H45185  10.505  10.132   9.694 -1.7894 -0.2293 -0.6655
  335MOL0     H45186  10.147  10.029   9.686 -3.7498  3.0819 -0.8787
  335MOL0     H45187  10.170  10.195   9.636  2.2495  0.9856 -2.1421
  335MOL0     H45188  10.276  10.087   9.577 -0.4595  1.3706 -0.3220
  335MOL0     H45189   9.865  10.132   9.718  0.1018  0.7735  0.8659
  335MOL0     H45190   9.624  10.088   9.750  0.3617  1.0159  1.0053
  335MOL0     H45191   9.386  10.034   9.811 -2.8872 -0.2845 -0.8109
  335MOL0     H45192   9.477   9.886   9.769  1.4901  2.8808 -0.8854
  335MOL0     H45193   9.242   9.931   9.966 -0.0507 -1.3923  3.0364
  335MOL0     H45194   9.227   9.836   9.818  0.6567 -2.0012  0.3858
  335MOL0     H45195   9.332   9.783  10.092  1.0280 -1.0450 -0.2716
  335MOL0     H45196   9.400   9.677   9.962  0.7594 -1.6816  3.0298
  335MOL0     H45197   9.163   9.579   9.935 -2.3935 -0.5302  1.2768
  335MOL0     H45198   9.190   9.586  10.100 -0.8674  0.9294 -0.6638
  335MOL0     H45199   9.003   9.772   9.966 -2.5287 -2.3672  0.9505
  335MOL0     H45200   9.087   9.822  10.111  2.0163 -0.7121  0.1977
  335MOL0     H45201   8.900   9.589  10.065 -2.6358  0.5651  0.5859
  335MOL0     H45202   8.999   9.606  10.210 -0.4306  0.0458  0.7402
  335MOL0     H45203   8.751   9.688  10.224 -0.3465 -1.3116 -2.6083
  335MOL0     H45204   8.781   9.795  10.095 -1.9803 -1.9301  0.7076
  335MOL0     H45205   8.797   9.913  10.303  0.0938  0.2388  0.4249
  335MOL0     H45206   8.966   9.898  10.261  1.0101 -2.2899  1.2308
  335MOL0     H45207   9.712   9.857  10.105  1.1604 -3.6161 -2.1930
  335MOL0     H45208   9.951   9.893  10.061  0.7840 -0.8023 -0.7389
  335MOL0     H45209  10.278  10.303  10.089  2.0238 -1.5769  1.4785
  335MOL0     H45210  10.516  10.330  10.070  0.8074  0.6398 -0.0306
  335MOL0     H45211  11.141   8.718   9.972 -2.0090  0.3711 -3.8433
  335MOL0     H45212  11.359   8.598   9.892  0.4980 -2.1945 -1.8370
  335MOL0     H45213  11.483   8.298   9.530  0.5195  0.5012  0.9315
  335MOL0     H45214  11.682   8.178   9.437 -0.1191 -0.6311  0.5682
  335MOL0     H45215  11.997   8.057   9.741  2.0518 -3.0332  2.0034
  335MOL0     H45216  11.889   7.912   9.726  1.0207 -0.9884  1.7450
  335MOL0     H45217  12.033   7.835   9.545  0.9067  1.0384 -1.6679
  335MOL0     H45218  12.134   7.877   9.688 -0.7500  0.4533  1.1932
  335MOL0     H45219  12.218   8.081   9.577 -0.5975 -1.2595  2.1708
  335MOL0     H45220  12.094   8.066   9.449 -0.5889  1.1749  0.9025
  335MOL0     H45221  12.236   7.838   9.396 -1.2686 -0.8739  1.7102
  335MOL0     H45222  12.363   7.924   9.477  0.5250  0.4992 -1.3703
  335MOL0     H45223  12.316   8.109   9.103  4.8129 -1.0649  0.7470
  335MOL0     H45224  11.795   8.072   9.838  2.6877 -0.3797 -1.6476
  335MOL0     H45225  11.623   8.209   9.927 -1.5717 -1.1933 -0.3933
  336MOL0     O45226   6.814   0.223   0.816 -0.2416 -0.2440  0.4348
  336MOL0     C45227   6.853   0.220   0.929  0.1054 -0.4400  0.0503
  336MOL0     O45228   6.925   0.323   0.996 -0.1797 -0.2728 -0.5648
  336MOL0     C45229   6.966   0.427   0.916 -1.0004 -0.2532  0.8430
  336MOL0     C45230   6.927   0.555   0.943  0.5115 -0.2956  0.8401
  336MOL0     C45231   6.956   0.666   0.863  0.1869 -1.4325  0.6288
  336MOL0     C45232   7.045   0.647   0.748 -0.4889  0.5601  0.5704
  336MOL0     O45233   7.098   0.743   0.661  1.3007 -0.4483 -1.0601
  336MOL0     C45234   7.070   0.887   0.690 -0.7470 -0.1177 -0.4802
  336MOL0     C45235   7.112   0.970   0.566  1.2734  0.2257 -1.3559
  336MOL0     C45236   7.075   1.124   0.579 -0.5003  0.5775 -0.6611
  336MOL0     C45237   7.092   1.187   0.442 -0.1932 -0.6327 -0.5514
  336MOL0     C45238   6.988   1.152   0.326 -0.0886 -0.5167  0.0654
  336MOL0     C45239   7.031   1.037   0.232 -0.3296  0.9570 -0.8306
  336MOL0     C45240   7.163   1.045   0.163 -0.0618  0.7285  1.2070
  336MOL0     C45241   7.166   0.946   0.051  0.2445  0.6078 -0.7144
  336MOL0     N45242   7.282   0.955  -0.029 -0.7526 -0.8043  0.8549
  336MOL0     C45243   7.327   1.073  -0.078  0.5821 -0.6059  0.1437
  336MOL0     C45244   7.418   1.036  -0.169 -0.4046  0.8928  0.3033
  336MOL0     C45245   7.518   1.117  -0.241 -0.3610  0.0437  0.4423
  336MOL0     C45246   7.664   1.104  -0.186 -0.4844  0.8373  0.3484
  336MOL0     C45247   7.743   0.969  -0.213 -0.4814  0.2112 -0.4434
  336MOL0     C45248   7.767   0.929  -0.363 -0.2147  0.0082  0.1919
  336MOL0     O45249   7.876   1.003  -0.408 -0.1098 -0.3439  1.1615
  336MOL0     C45250   7.923   0.988  -0.538 -0.6892  0.1925  0.5049
  336MOL0     C45251   7.997   1.093  -0.579 -0.2395  0.4300 -0.7810
  336MOL0     C45252   8.069   1.109  -0.696 -0.1069 -0.5700  0.2246
  336MOL0     C45253   8.161   1.236  -0.708 -0.0671 -0.1444  0.6671
  336MOL0     C45254   8.044   1.010  -0.797 -0.6219 -0.2758 -0.3404
  336MOL0     C45255   8.106   1.019  -0.934 -0.5268  0.3535  0.0928
  336MOL0     O45256   8.045   0.936  -1.019 -1.7278  0.2121  0.0744
  336MOL0     C45257   8.116   0.924  -1.136  1.2314  0.7981  0.0037
  336MOL0     C45258   8.096   1.026  -1.238 -0.3026  0.0958  0.2481
  336MOL0     C45259   8.180   1.022  -1.345  0.4626 -0.5820  0.5262
  336MOL0     C45260   8.259   0.918  -1.369  0.1097  0.7009  0.7606
  336MOL0     O45261   8.326   0.937  -1.489  0.0576 -0.4601  0.2077
  336MOL0     C45262   8.344   0.817  -1.569  0.1801 -1.4193 -0.0374
  336MOL0     C45263   8.479   0.813  -1.636  0.4745 -0.3637 -0.2815
  336MOL0     C45264   8.591   0.805  -1.531  0.7453 -0.1851  0.2611
  336MOL0     C45265   8.732   0.761  -1.597 -0.9347  0.3335 -0.1770
  336MOL0     C45266   8.865   0.766  -1.511 -0.7645  0.3507 -0.4771
  336MOL0     C45267   8.992   0.706  -1.571 -0.9147 -0.2034 -0.0465
  336MOL0     C45268   9.121   0.740  -1.490 -0.7626 -0.3728  0.8643
  336MOL0     C45269   9.243   0.697  -1.573  0.7051  0.1010 -0.4426
  336MOL0    Cl45270   9.393   0.703  -1.482  0.2429  0.1573  0.0234
  336MOL0     C45271   8.268   0.808  -1.281  1.1718 -0.0959 -0.0475
  336MOL0     C45272   8.194   0.807  -1.160 -0.4045 -0.0003 -0.0915
  336MOL0     O45273   8.209   1.090  -0.962  0.5038  0.7628  0.5659
  336MOL0     C45274   7.969   0.899  -0.764 -0.2455 -0.2575  0.4380
  336MOL0     C45275   7.905   0.881  -0.637  0.0712  0.3219  0.0877
  336MOL0     N45276   7.423   0.895  -0.185  0.1017 -0.4217  0.6646
  336MOL0     N45277   7.342   0.851  -0.100  0.3948 -0.8433 -0.4012
  336MOL0     C45278   7.089   0.520   0.718  0.4670 -0.7755  0.4397
  336MOL0     C45279   7.051   0.413   0.802 -0.0702 -0.1547 -1.1272
  336MOL0     C45280   6.805   0.098   1.004  0.5558 -0.6827  0.9004
  336MOL0     C45281   6.781   0.101   1.139  0.5333 -0.8950  0.7704
  336MOL0     C45282   6.741  -0.012   1.200 -2.0529  1.6032 -0.4033
  336MOL0     C45283   6.722  -0.138   1.141  0.3224 -0.4690  0.2742
  336MOL0     O45284   6.708  -0.250   1.219 -0.2963 -0.1166 -0.2054
  336MOL0     C45285   6.617  -0.342   1.171 -0.1476 -0.4415 -0.1943
  336MOL0     C45286   6.579  -0.465   1.266 -0.3176 -0.3709  0.2474
  336MOL0     C45287   6.576  -0.441   1.419  0.0843  0.2278  0.1761
  336MOL0     C45288   6.508  -0.558   1.495  0.3956  0.8937 -0.5861
  336MOL0     C45289   6.566  -0.699   1.470 -0.4798 -0.1442 -1.2738
  336MOL0     C45290   6.624  -0.808   1.462 -0.0451  0.6744  0.0720
  336MOL0     C45291   6.752  -0.133   1.005  0.8570 -0.4318 -0.5263
  336MOL0     C45292   6.787  -0.022   0.934 -0.1310 -0.1555 -0.1902
  336MOL0     H45293   6.864   0.550   1.032 -0.3443 -0.8780  0.2157
  336MOL0     H45294   6.918   0.766   0.878  3.6414  0.3316 -1.2139
  336MOL0     H45295   6.966   0.905   0.717  0.1286  0.9742  2.5650
  336MOL0     H45296   7.136   0.920   0.771 -2.0101  1.8867 -0.2053
  336MOL0     H45297   7.219   0.959   0.546  1.5263 -1.3514  0.5372
  336MOL0     H45298   7.069   0.919   0.480  0.0775 -0.9658 -0.0958
  336MOL0     H45299   6.972   1.136   0.612  0.6091  3.8894  2.2871
  336MOL0     H45300   7.150   1.168   0.646 -2.7200  2.6538  0.6329
  336MOL0     H45301   7.066   1.294   0.449  0.7334 -0.0300 -4.2238
  336MOL0     H45302   7.199   1.176   0.422  0.2669 -2.5756  2.3169
  336MOL0     H45303   6.894   1.121   0.374 -0.0376 -3.5554 -1.5689
  336MOL0     H45304   6.974   1.239   0.261 -1.8403 -1.2408 -0.5972
  336MOL0     H45305   7.047   0.939   0.280  2.5535  0.2089 -3.0580
  336MOL0     H45306   6.946   1.029   0.163 -1.3465  3.1646  0.0819
  336MOL0     H45307   7.158   1.143   0.115 -6.3938  0.2472 -0.0268
  336MOL0     H45308   7.252   1.031   0.224  1.1636  0.0925 -0.6346
  336MOL0     H45309   7.083   0.963  -0.019  1.3148  1.7285 -1.7561
  336MOL0     H45310   7.142   0.850   0.098 -1.0437  1.3502  0.2115
  336MOL0     H45311   7.314   1.172  -0.035 -3.1399 -0.6027 -0.6609
  336MOL0     H45312   7.511   1.088  -0.346  0.4491 -0.7310  0.5907
  336MOL0     H45313   7.490   1.223  -0.234 -0.8649  0.0122 -0.8799
  336MOL0     H45314   7.669   1.117  -0.078 -2.2634  2.2732  0.3188
  336MOL0     H45315   7.721   1.188  -0.228  0.6622 -0.0810  0.0133
  336MOL0     H45316   7.690   0.882  -0.172  0.2981  0.7377  1.8681
  336MOL0     H45317   7.828   0.971  -0.144 -2.5210  4.5641  2.4186
  336MOL0     H45318   7.674   0.947  -0.417 -1.6533 -4.2802  0.7841
  336MOL0     H45319   7.789   0.821  -0.369 -0.7090 -0.1113  0.4649
  336MOL0     H45320   8.010   1.169  -0.502  1.0047  0.4486 -0.9766
  336MOL0     H45321   8.142   1.281  -0.806  0.5381  2.3692  1.6231
  336MOL0     H45322   8.144   1.318  -0.638 -0.9662 -0.1515  0.4782
  336MOL0     H45323   8.267   1.213  -0.699  0.6247  1.8518 -1.4019
  336MOL0     H45324   8.032   1.112  -1.223 -2.5561 -1.6999  1.4913
  336MOL0     H45325   8.169   1.106  -1.414 -1.2845  0.9734  2.5728
  336MOL0     H45326   8.331   0.731  -1.502 -0.4518  1.9398  4.6096
  336MOL0     H45327   8.271   0.810  -1.649 -0.0872  1.3512 -0.1227
  336MOL0     H45328   8.488   0.719  -1.691 -1.0571 -2.1248  2.2574
  336MOL0     H45329   8.500   0.896  -1.703 -1.4185  0.6983  0.3799
  336MOL0     H45330   8.564   0.741  -1.446  1.8313  1.5914  2.0400
  336MOL0     H45331   8.608   0.902  -1.483  0.6957 -0.2521  0.4161
  336MOL0     H45332   8.721   0.665  -1.649 -2.8817  0.0232  0.7148
  336MOL0     H45333   8.758   0.826  -1.681  1.5370 -1.5248 -0.9582
  336MOL0     H45334   8.841   0.702  -1.425  0.3324 -0.6666 -0.9075
  336MOL0     H45335   8.875   0.872  -1.486 -1.9779  0.4394 -0.2935
  336MOL0     H45336   8.982   0.597  -1.574 -0.0502 -0.2783 -0.5667
  336MOL0     H45337   8.993   0.754  -1.670 -0.8336  0.8347  0.4438
  336MOL0     H45338   9.128   0.697  -1.389 -1.5939 -1.8489  0.3183
  336MOL0     H45339   9.140   0.847  -1.474  3.4748 -0.7545 -0.2474
  336MOL0     H45340   9.243   0.749  -1.669 -1.5701 -0.4674 -0.8063
  336MOL0     H45341   9.218   0.595  -1.602 -1.2005  0.1792  0.7487
  336MOL0     H45342   8.333   0.724  -1.301 -0.9305 -1.8951  0.3091
  336MOL0     H45343   8.202   0.747  -1.070  1.8525  2.9387  1.8895
  336MOL0     H45344   7.950   0.826  -0.842 -3.0276 -0.8581  1.5400
  336MOL0     H45345   7.843   0.797  -0.608  2.0017 -0.9032  0.8419
  336MOL0     H45346   7.145   0.512   0.625  2.0955  1.4305  1.1319
  336MOL0     H45347   7.079   0.312   0.773 -1.5438 -0.9075 -0.0686
  336MOL0     H45348   6.792   0.198   1.186  3.2119  0.6752 -2.6311
  336MOL0     H45349   6.729  -0.012   1.308 -1.8437 -0.4977 -0.3289
  336MOL0     H45350   6.524  -0.291   1.143 -0.5331 -0.1910  1.4683
  336MOL0     H45351   6.656  -0.400   1.086  2.3931 -0.8526  1.1737
  336MOL0     H45352   6.658  -0.536   1.241 -0.4549  0.0813 -1.6491
  336MOL0     H45353   6.477  -0.499   1.244  0.1178 -0.9412 -1.0040
  336MOL0     H45354   6.513  -0.352   1.431 -1.7192 -0.9987  0.2572
  336MOL0     H45355   6.675  -0.425   1.462  1.0463 -3.0314 -0.5464
  336MOL0     H45356   6.398  -0.562   1.491  0.3532  1.9649 -0.6050
  336MOL0     H45357   6.535  -0.548   1.601  0.4110 -2.2691 -0.1711
  336MOL0     H45358   6.670  -0.904   1.466 -2.8298 -0.8453 -1.5294
  336MOL0     H45359   6.755  -0.235   0.967 -2.2687 -0.9479  0.2947
  336MOL0     H45360   6.801  -0.027   0.827 -0.0885  3.9551 -0.5083
  337MOL0     O45361   2.564   8.481   9.894  0.3319 -0.2832  0.1188
  337MOL0     C45362   2.489   8.477   9.988  0.2738  0.5967  0.0262
  337MOL0     O45363   2.405   8.575  10.027 -0.4381  0.5960 -0.7411
  337MOL0     C45364   2.430   8.707   9.989 -0.3724 -1.0235  0.2470
  337MOL0     C45365   2.494   8.796  10.073 -0.6170 -0.6223 -0.4238
  337MOL0     C45366   2.537   8.926  10.024  0.4204 -0.3707  0.1214
  337MOL0     C45367   2.513   8.959   9.892 -0.1933  0.5793 -0.4098
  337MOL0     O45368   2.534   9.086   9.855  0.3190 -0.1538  0.0861
  337MOL0     C45369   2.450   9.146   9.752 -0.2477 -0.1677 -0.5866
  337MOL0     C45370   2.475   9.299   9.764  0.6753  0.6767 -0.4077
  337MOL0     C45371   2.398   9.350   9.876 -0.4562  0.1522 -0.1957
  337MOL0     C45372   2.393   9.509   9.867 -0.8095 -0.5905  0.1947
  337MOL0     C45373   2.280   9.577   9.949  0.0630  0.4050 -0.6978
  337MOL0     C45374   2.305   9.562  10.097  0.0504  0.2615 -0.8145
  337MOL0     C45375   2.169   9.610  10.172 -0.0789  0.6697  1.4824
  337MOL0     C45376   2.086   9.484  10.202 -0.6749  0.7696 -1.2692
  337MOL0     N45377   1.996   9.500  10.315  0.3735  0.7585 -0.8709
  337MOL0     C45378   1.896   9.593  10.319 -0.2732  0.8013 -0.4700
  337MOL0     C45379   1.820   9.556  10.429 -0.0870  0.9650 -0.2932
  337MOL0     C45380   1.692   9.629  10.472  0.6605  0.3471  0.0669
  337MOL0     C45381   1.576   9.534  10.451  0.5327 -0.4770  0.0455
  337MOL0     C45382   1.570   9.425  10.564  0.3283  0.5670 -0.7733
  337MOL0     C45383   1.631   9.460  10.699 -0.0044 -1.1437  0.1493
  337MOL0     O45384   1.583   9.582  10.757 -0.2330 -0.0352 -0.4591
  337MOL0     C45385   1.468   9.586  10.828 -0.3914  0.5719  0.8494
  337MOL0     C45386   1.412   9.486  10.907  0.7511  0.3995 -0.1103
  337MOL0     C45387   1.288   9.490  10.976  0.7531  0.3212  0.0266
  337MOL0     C45388   1.247   9.378  11.062 -0.1546 -0.1161  0.1871
  337MOL0     C45389   1.210   9.606  10.966 -0.6911 -0.1877  0.0791
  337MOL0     C45390   1.096   9.641  11.049 -0.4236 -0.0353 -0.0918
  337MOL0     O45391   1.039   9.768  11.045  0.1383 -0.6529  0.2545
  337MOL0     C45392   0.939   9.791  11.133 -0.0665 -0.0809  0.2826
  337MOL0     C45393   0.816   9.825  11.077  0.3714  0.0924  0.3799
  337MOL0     C45394   0.710   9.873  11.154 -0.2131  0.2473 -0.0947
  337MOL0     C45395   0.722   9.870  11.290  0.9936 -0.8573 -0.9593
  337MOL0     O45396   0.612   9.896  11.372 -0.6633 -0.2034  0.1164
  337MOL0     C45397   0.485   9.935  11.311 -0.6592  0.1579 -0.7051
  337MOL0     C45398   0.488  10.080  11.281  0.2839 -0.7612 -0.5702
  337MOL0     C45399   0.364  10.141  11.213  0.5061  0.4197  0.0831
  337MOL0     C45400   0.241  10.148  11.307 -0.1174  0.1790  0.3350
  337MOL0     C45401   0.110  10.188  11.238 -0.2455  0.1158 -0.2383
  337MOL0     C45402   0.001  10.238  11.324 -0.3704 -1.1264  0.0526
  337MOL0     C45403  -0.132  10.251  11.246 -0.3726  0.2540  0.2606
  337MOL0     C45404  -0.248  10.268  11.341 -1.2713  0.1987  0.3421
  337MOL0    Cl45405  -0.262  10.127  11.458 -0.1542 -0.1987 -0.4683
  337MOL0     C45406   0.844   9.838  11.352  0.3824  0.6000  0.1073
  337MOL0     C45407   0.950   9.800  11.270 -0.5384  0.0763 -0.7177
  337MOL0     O45408   1.051   9.560  11.126 -0.2644  0.1526 -0.7547
  337MOL0     C45409   1.261   9.706  10.886 -0.3910  0.6361  0.5767
  337MOL0     C45410   1.383   9.694  10.811  0.7369  0.2556  0.3512
  337MOL0     N45411   1.864   9.438  10.472  0.9670  0.6488 -0.0657
  337MOL0     N45412   1.963   9.404  10.405  0.1721  0.2375  0.7755
  337MOL0     C45413   2.442   8.868   9.812  0.0508 -1.3050  0.6681
  337MOL0     C45414   2.409   8.745   9.862 -0.1515 -0.4614 -0.7865
  337MOL0     C45415   2.483   8.350  10.068 -0.2706  0.6346 -0.6661
  337MOL0     C45416   2.553   8.240  10.021 -0.6837 -0.0153  0.6620
  337MOL0     C45417   2.536   8.112  10.083  0.1421  0.0313 -0.5416
  337MOL0     C45418   2.449   8.108  10.202 -1.0035  0.5562 -0.7049
  337MOL0     O45419   2.440   7.987  10.271 -0.2485  0.3086  0.2444
  337MOL0     C45420   2.403   7.875  10.193  0.1701  0.6134  0.5779
  337MOL0     C45421   2.260   7.890  10.131  0.1136  0.7247 -0.0166
  337MOL0     C45422   2.210   7.745  10.079 -0.5492 -1.2033  0.0005
  337MOL0     C45423   2.056   7.750  10.061 -0.9305  0.3813  0.6795
  337MOL0     C45424   2.023   7.828   9.937  0.0221  0.5020 -0.6137
  337MOL0     C45425   2.010   7.885   9.833  0.2963 -0.2884 -0.8287
  337MOL0     C45426   2.382   8.220  10.250  0.3099  0.9690 -0.3712
  337MOL0     C45427   2.403   8.339  10.181 -0.3483 -0.5868  0.6961
  337MOL0     H45428   2.511   8.767  10.176 -3.1029  1.4764  0.6817
  337MOL0     H45429   2.574   8.999  10.095 -0.3180 -1.4684  1.6895
  337MOL0     H45430   2.479   9.115   9.651 -1.4450 -1.1506 -0.6561
  337MOL0     H45431   2.345   9.116   9.763 -0.8912 -1.5581 -6.7066
  337MOL0     H45432   2.583   9.318   9.768  0.7204  0.3519  0.0015
  337MOL0     H45433   2.441   9.332   9.666 -3.6874  0.3669  0.8192
  337MOL0     H45434   2.294   9.318   9.870  0.6567 -4.2738  0.2990
  337MOL0     H45435   2.446   9.321   9.970  2.3625  2.2146 -0.8748
  337MOL0     H45436   2.492   9.550   9.888 -0.5402 -1.0058 -0.2388
  337MOL0     H45437   2.374   9.549   9.767  1.0770  2.3437  0.8714
  337MOL0     H45438   2.280   9.682   9.920 -0.0945  1.2153  2.0173
  337MOL0     H45439   2.180   9.537   9.929  1.1392 -1.8232 -2.0861
  337MOL0     H45440   2.340   9.463  10.126  1.4067  1.0190  0.2496
  337MOL0     H45441   2.391   9.623  10.123  0.6503 -0.9451  0.1223
  337MOL0     H45442   2.207   9.664  10.259  0.7308  1.8216  0.4551
  337MOL0     H45443   2.111   9.691  10.128  0.5392  1.7119  2.5421
  337MOL0     H45444   2.155   9.405  10.230  1.2777  3.2689  1.5535
  337MOL0     H45445   2.027   9.456  10.114  0.4002  3.0373 -2.8069
  337MOL0     H45446   1.891   9.685  10.261 -0.5796  0.3980 -1.1047
  337MOL0     H45447   1.686   9.678  10.570  1.6176  2.7573 -0.9995
  337MOL0     H45448   1.677   9.706  10.396  1.7324 -0.2219 -0.7675
  337MOL0     H45449   1.582   9.487  10.353  0.2863 -1.3268  0.4257
  337MOL0     H45450   1.479   9.586  10.448  1.5529  1.5123 -0.0978
  337MOL0     H45451   1.625   9.340  10.521  0.1088  0.4209 -0.7655
  337MOL0     H45452   1.471   9.383  10.586  0.6576  1.1124  2.1649
  337MOL0     H45453   1.738   9.468  10.680 -0.1530  0.0855 -0.2144
  337MOL0     H45454   1.636   9.376  10.769  1.0123 -0.2267  1.2146
  337MOL0     H45455   1.460   9.390  10.921 -1.6134 -1.3495 -2.8011
  337MOL0     H45456   1.320   9.297  11.055  0.0420 -0.0072  0.8815
  337MOL0     H45457   1.252   9.407  11.168 -3.2880 -1.6218  0.8530
  337MOL0     H45458   1.148   9.346  11.029 -1.5221  1.8912  2.0615
  337MOL0     H45459   0.803   9.821  10.969 -5.6927  1.6464  0.6450
  337MOL0     H45460   0.628   9.906  11.091 -0.0995 -0.6541 -0.7331
  337MOL0     H45461   0.464   9.876  11.222 -4.9254  2.8529 -1.7617
  337MOL0     H45462   0.408   9.915  11.386  1.8274 -1.6798  1.5657
  337MOL0     H45463   0.505  10.120  11.381 -3.0856 -3.8829  1.5185
  337MOL0     H45464   0.576  10.091  11.217  2.6753  0.0755  2.6243
  337MOL0     H45465   0.344  10.066  11.137  0.2393 -0.2057  0.7606
  337MOL0     H45466   0.384  10.240  11.172 -0.1454  0.7121  0.4559
  337MOL0     H45467   0.223  10.049  11.348  1.5273 -0.4500 -0.4145
  337MOL0     H45468   0.271  10.209  11.393 -0.6673  1.3214 -0.2588
  337MOL0     H45469   0.088  10.092  11.189  2.7389 -1.0395  0.4557
  337MOL0     H45470   0.135  10.259  11.159 -0.9635  1.4983  0.7482
  337MOL0     H45471  -0.003  10.157  11.398 -0.0516 -0.7292  0.5087
  337MOL0     H45472   0.036  10.327  11.377  0.8326 -0.4767 -1.7633
  337MOL0     H45473  -0.161  10.158  11.196 -2.6438  0.6292  0.7566
  337MOL0     H45474  -0.135  10.329  11.170 -0.2888 -2.0157 -2.2197
  337MOL0     H45475  -0.346  10.286  11.295 -1.3177 -0.0767  0.3305
  337MOL0     H45476  -0.225  10.356  11.402 -2.4717  0.3507  0.5987
  337MOL0     H45477   0.852   9.825  11.460 -0.7342  0.0625  0.1328
  337MOL0     H45478   1.044   9.766  11.311  0.4594  1.5613 -1.6525
  337MOL0     H45479   1.213   9.803  10.885 -1.0058  0.3518  1.6847
  337MOL0     H45480   1.404   9.775  10.742  1.1424 -0.4121 -0.3343
  337MOL0     H45481   2.427   8.898   9.708  0.1595 -0.8787  0.7710
  337MOL0     H45482   2.367   8.669   9.797 -0.9072  0.1972 -1.0728
  337MOL0     H45483   2.610   8.232   9.929 -4.4578 -2.1230 -1.7639
  337MOL0     H45484   2.610   8.036  10.060  1.2395 -1.8282  6.5527
  337MOL0     H45485   2.479   7.851  10.117 -0.6935 -0.2992 -0.0236
  337MOL0     H45486   2.399   7.787  10.258 -1.5751  0.2100 -0.0188
  337MOL0     H45487   2.267   7.962  10.049  0.7855  2.3878  1.4357
  337MOL0     H45488   2.193   7.923  10.211 -2.8524 -2.1313 -1.0857
  337MOL0     H45489   2.230   7.670  10.155 -0.1216 -0.9118  0.1813
  337MOL0     H45490   2.259   7.723   9.984 -1.5801  0.5958 -1.0210
  337MOL0     H45491   2.015   7.815  10.139 -1.4052  4.5628 -2.6278
  337MOL0     H45492   2.021   7.647  10.052  2.7893 -0.8434 -3.8505
  337MOL0     H45493   1.986   7.941   9.745 -0.4669 -0.5723 -0.8154
  337MOL0     H45494   2.326   8.216  10.343 -0.6191  0.6662 -0.9197
  337MOL0     H45495   2.343   8.421  10.221  0.2460 -0.3664  1.1469
  338MOL0     O45496  10.638   9.244   8.680 -0.6391  0.3104  0.2752
  338MOL0     C45497  10.720   9.243   8.584 -0.2113  0.2712  0.5940
  338MOL0     O45498  10.732   9.147   8.478  0.3180 -0.6851 -0.0488
  338MOL0     C45499  10.688   9.017   8.506 -1.2195  0.5429  0.8338
  338MOL0     C45500  10.654   8.930   8.395  0.9384 -0.4816 -0.2023
  338MOL0     C45501  10.633   8.793   8.421 -0.5290  0.6894  0.3722
  338MOL0     C45502  10.634   8.728   8.543 -1.4602 -0.6289 -0.6263
  338MOL0     O45503  10.601   8.592   8.554  0.6684 -0.1988  0.1238
  338MOL0     C45504  10.682   8.511   8.646 -0.5039 -0.0255  0.2311
  338MOL0     C45505  10.644   8.365   8.625 -0.2841  1.1530 -0.0781
  338MOL0     C45506  10.525   8.299   8.701  0.2434  0.3795 -0.3347
  338MOL0     C45507  10.468   8.174   8.642  1.0228  0.2194  0.6766
  338MOL0     C45508  10.370   8.085   8.729 -0.0608 -0.1130 -0.5287
  338MOL0     C45509  10.240   8.164   8.761 -0.2303 -0.2352  0.5703
  338MOL0     C45510  10.133   8.081   8.833 -0.6658 -0.4846 -0.0885
  338MOL0     C45511  10.032   8.004   8.749 -0.3265  0.6994 -0.2279
  338MOL0     N45512   9.986   7.892   8.833 -0.6790 -0.2384 -0.3682
  338MOL0     C45513   9.865   7.899   8.896 -0.0428  0.4477 -0.8963
  338MOL0     C45514   9.833   7.778   8.928 -0.1923  0.3184 -0.8178
  338MOL0     C45515   9.691   7.755   8.980 -0.3979  0.2592 -0.4056
  338MOL0     C45516   9.593   7.726   8.859  0.1030 -0.7543 -0.1994
  338MOL0     C45517   9.545   7.852   8.785  0.5313  0.2888 -0.4664
  338MOL0     C45518   9.434   7.937   8.854  0.0384 -0.5758 -0.3820
  338MOL0     O45519   9.420   8.063   8.791  0.5364 -0.8867  0.4758
  338MOL0     C45520   9.537   8.140   8.796 -1.2611 -0.2162 -0.2220
  338MOL0     C45521   9.581   8.201   8.675 -0.1748  0.7739 -0.5149
  338MOL0     C45522   9.694   8.280   8.660 -0.1238 -0.3256 -0.5112
  338MOL0     C45523   9.726   8.340   8.515 -1.1366  0.3028 -0.3728
  338MOL0     C45524   9.775   8.291   8.781 -0.1533 -0.4744 -0.5337
  338MOL0     C45525   9.886   8.396   8.796  0.2698  0.9898  0.8566
  338MOL0     O45526   9.960   8.408   8.913  0.1412 -0.1813 -0.2770
  338MOL0     C45527  10.022   8.533   8.945  0.3672  0.2823  0.2718
  338MOL0     C45528  10.007   8.582   9.070  0.0409  0.0216  0.7141
  338MOL0     C45529  10.053   8.703   9.121  0.8483 -0.0323 -0.2937
  338MOL0     C45530  10.115   8.788   9.038 -0.9840 -0.5706  1.0651
  338MOL0     O45531  10.141   8.911   9.090 -0.5698  0.4435 -0.1701
  338MOL0     C45532  10.087   9.024   9.013  0.2404  0.6227 -1.1426
  338MOL0     C45533  10.051   9.136   9.112 -0.7270  1.5369 -0.1866
  338MOL0     C45534  10.150   9.160   9.229 -0.0931  0.4201  0.1578
  338MOL0     C45535  10.107   9.292   9.296  0.5953  0.1853  0.4155
  338MOL0     C45536  10.146   9.427   9.221  0.1931  1.3363 -0.3228
  338MOL0     C45537  10.123   9.544   9.319  0.9597 -0.4750 -0.3730
  338MOL0     C45538  10.090   9.667   9.235  0.5220 -1.2946 -0.8657
  338MOL0     C45539  10.086   9.796   9.318  0.7934 -0.2107 -0.3006
  338MOL0    Cl45540  10.228   9.803   9.420  0.3047 -0.1371  0.6432
  338MOL0     C45541  10.146   8.754   8.902 -0.9038  0.0202  0.1579
  338MOL0     C45542  10.094   8.621   8.864 -0.3537  0.1310 -0.5801
  338MOL0     O45543   9.901   8.460   8.694 -0.2021 -0.1494  0.2396
  338MOL0     C45544   9.737   8.232   8.902 -0.0266 -0.3657  0.0202
  338MOL0     C45545   9.618   8.166   8.910 -0.6519  0.8115 -0.6522
  338MOL0     N45546   9.939   7.694   8.900 -0.2423 -0.5761  0.5262
  338MOL0     N45547  10.035   7.758   8.847 -0.0696 -0.0273 -0.3777
  338MOL0     C45548  10.689   8.810   8.644  0.5841 -0.6653  0.6306
  338MOL0     C45549  10.711   8.948   8.627 -0.0692  0.4453 -0.2277
  338MOL0     C45550  10.791   9.380   8.561  1.0517  0.3216 -0.2848
  338MOL0     C45551  10.750   9.486   8.643  0.2016 -0.1557  1.0780
  338MOL0     C45552  10.804   9.615   8.624 -0.1479 -0.9798  1.0074
  338MOL0     C45553  10.890   9.637   8.517 -0.2133  0.2139  0.0112
  338MOL0     O45554  10.939   9.756   8.482 -0.6216  0.0730 -0.0004
  338MOL0     C45555  10.871   9.869   8.518 -0.0274  0.2331  0.5463
  338MOL0     C45556  10.927   9.990   8.425  0.4529  0.2708  0.6450
  338MOL0     C45557  11.084  10.005   8.438  0.1407 -0.3880  0.7633
  338MOL0     C45558  11.133  10.050   8.565  0.3111  0.8793  0.0487
  338MOL0     C45559  11.091  10.191   8.575  1.4418 -0.1394  0.6521
  338MOL0     C45560  11.037  10.299   8.580 -0.5856  0.2486 -1.1044
  338MOL0     C45561  10.935   9.525   8.436 -0.4004  0.2064 -1.3637
  338MOL0     C45562  10.881   9.391   8.461  0.5211  0.2421 -0.4600
  338MOL0     H45563  10.637   8.973   8.297  3.1828  4.0189  1.0999
  338MOL0     H45564  10.600   8.726   8.342  1.6506 -0.9701  0.7594
  338MOL0     H45565  10.786   8.518   8.612 -0.6759 -2.2508 -0.9444
  338MOL0     H45566  10.690   8.543   8.751  4.3529 -3.8604  1.4178
  338MOL0     H45567  10.619   8.351   8.519 -2.3886  1.3852  0.3414
  338MOL0     H45568  10.727   8.299   8.652 -1.2855 -0.3948 -0.6171
  338MOL0     H45569  10.556   8.270   8.802  1.0477  0.6391 -0.5050
  338MOL0     H45570  10.447   8.375   8.697  1.2619  1.6859  2.3455
  338MOL0     H45571  10.416   8.206   8.552 -1.2715 -0.7739  1.5719
  338MOL0     H45572  10.551   8.110   8.611  0.8482 -0.6301  1.8669
  338MOL0     H45573  10.352   7.984   8.692  0.6261 -0.4612  0.0597
  338MOL0     H45574  10.408   8.061   8.829 -2.5530 -3.5996 -0.2339
  338MOL0     H45575  10.268   8.250   8.823 -1.9335  0.7369  0.0519
  338MOL0     H45576  10.197   8.215   8.675 -1.6923  0.3758  1.6083
  338MOL0     H45577  10.177   8.012   8.905  0.8020  1.2132  0.7319
  338MOL0     H45578  10.065   8.152   8.882 -1.4419  0.5403 -2.4756
  338MOL0     H45579  10.073   7.981   8.650  0.3981  1.5666 -0.1369
  338MOL0     H45580   9.943   8.065   8.730 -0.1674  3.3218  5.5356
  338MOL0     H45581   9.791   7.978   8.893  0.5312  1.0931  0.7907
  338MOL0     H45582   9.693   7.655   9.024  1.6122 -1.4765 -4.0217
  338MOL0     H45583   9.671   7.834   9.053 -0.1948 -1.1928  1.2775
  338MOL0     H45584   9.503   7.679   8.897  1.4690 -0.3286  4.0967
  338MOL0     H45585   9.642   7.668   8.781 -0.0405 -0.1697 -0.7380
  338MOL0     H45586   9.498   7.812   8.694 -2.6225  0.6056  0.8835
  338MOL0     H45587   9.632   7.911   8.755  0.2548  1.1893  0.4628
  338MOL0     H45588   9.454   7.947   8.962 -2.6465  3.7528 -0.0358
  338MOL0     H45589   9.333   7.896   8.848 -0.4897  0.6119  0.0653
  338MOL0     H45590   9.500   8.193   8.603 -1.1812 -0.4288  0.6868
  338MOL0     H45591   9.829   8.312   8.493 -0.7044  1.9934 -0.5867
  338MOL0     H45592   9.661   8.305   8.434  0.3527  0.7115 -1.7832
  338MOL0     H45593   9.726   8.449   8.512  2.3714  0.4158 -0.1819
  338MOL0     H45594   9.957   8.511   9.135  0.8618 -1.9166 -0.6757
  338MOL0     H45595  10.049   8.735   9.225 -1.2343 -4.0515  1.0858
  338MOL0     H45596  10.156   9.067   8.940 -0.4311  1.5995 -1.2214
  338MOL0     H45597   9.999   8.995   8.954  0.2188  2.6600 -2.1815
  338MOL0     H45598  10.041   9.225   9.050  1.1340  2.5138  0.8402
  338MOL0     H45599   9.956   9.119   9.165 -2.6147  1.4444 -3.3346
  338MOL0     H45600  10.253   9.169   9.194  0.6738 -2.1865  1.5130
  338MOL0     H45601  10.137   9.081   9.303  1.1554 -2.8974 -2.9044
  338MOL0     H45602   9.999   9.275   9.305  0.5188  0.5377  0.1998
  338MOL0     H45603  10.149   9.300   9.397  2.0530 -0.9327 -0.0769
  338MOL0     H45604  10.085   9.427   9.130 -1.9595 -1.7786  0.9838
  338MOL0     H45605  10.250   9.428   9.187 -0.4450  0.2879 -2.4421
  338MOL0     H45606  10.030   9.528   9.374 -0.2004 -1.1171 -2.3981
  338MOL0     H45607  10.208   9.555   9.387  0.3257  1.1063  0.2042
  338MOL0     H45608   9.996   9.649   9.183 -2.5442  0.6938  3.3628
  338MOL0     H45609  10.176   9.670   9.167  0.4828  0.0642 -0.8760
  338MOL0     H45610   9.992   9.807   9.371  1.5689 -0.2473  1.1259
  338MOL0     H45611  10.103   9.872   9.241  0.9694 -0.2864 -0.3393
  338MOL0     H45612  10.191   8.833   8.842 -0.2962 -0.2301  0.2720
  338MOL0     H45613  10.105   8.582   8.763 -1.9087  0.5076 -0.9228
  338MOL0     H45614   9.801   8.251   8.987  0.9608  4.7217 -1.5377
  338MOL0     H45615   9.607   8.134   9.013 -1.1401  0.0934 -0.9218
  338MOL0     H45616  10.725   8.757   8.731  0.0461  2.7370  3.1034
  338MOL0     H45617  10.751   9.008   8.709  2.1705 -1.2489  0.0332
  338MOL0     H45618  10.671   9.479   8.717  0.1671  0.4105  1.1001
  338MOL0     H45619  10.772   9.699   8.684  2.3485  1.3889 -0.7610
  338MOL0     H45620  10.767   9.850   8.487  1.0149 -1.1999 -2.4282
  338MOL0     H45621  10.891   9.889   8.624  2.5948  1.3928 -0.0910
  338MOL0     H45622  10.877  10.083   8.456  0.0178 -0.8448  3.5380
  338MOL0     H45623  10.912   9.975   8.318 -0.0023  3.3462  0.1867
  338MOL0     H45624  11.121  10.071   8.359  2.1298 -2.6769 -0.3580
  338MOL0     H45625  11.130   9.908   8.417  1.5953 -0.0939  2.3700
  338MOL0     H45626  11.241  10.047   8.580  0.5096 -1.9129 -1.1862
  338MOL0     H45627  11.090   9.994   8.649 -3.5851  3.5259  0.0448
  338MOL0     H45628  10.985  10.390   8.603 -1.6569  0.0642 -2.6426
  338MOL0     H45629  10.995   9.537   8.347 -0.4177  1.1886 -1.2435
  338MOL0     H45630  10.901   9.297   8.411 -0.9511 -2.4675  3.4606
  339MOL0     O45631   1.314   4.290  10.112 -0.8445  0.1674 -0.3048
  339MOL0     C45632   1.419   4.328  10.165 -0.0954 -0.2464 -0.2550
  339MOL0     O45633   1.545   4.284  10.138 -0.0819  0.3197  0.1780
  339MOL0     C45634   1.582   4.219  10.022 -0.0556 -0.1458  0.7220
  339MOL0     C45635   1.509   4.121   9.960  0.7371 -0.5656 -0.0219
  339MOL0     C45636   1.532   4.066   9.831 -0.2572  0.6571  0.3802
  339MOL0     C45637   1.641   4.114   9.759 -0.2696  0.1449  0.0379
  339MOL0     O45638   1.683   4.073   9.636  0.0062 -0.1439 -0.1131
  339MOL0     C45639   1.652   3.938   9.599 -0.5839 -0.0633 -0.1438
  339MOL0     C45640   1.702   3.934   9.457 -0.0976 -0.4343 -0.2723
  339MOL0     C45641   1.679   3.802   9.375 -0.6749 -0.4795  1.0550
  339MOL0     C45642   1.537   3.772   9.348  0.1201 -0.2666  0.6054
  339MOL0     C45643   1.510   3.637   9.283 -0.2964 -0.6181 -0.5123
  339MOL0     C45644   1.358   3.610   9.306 -1.2084  0.2223  0.7978
  339MOL0     C45645   1.319   3.449   9.283 -0.4333 -0.9684 -0.6513
  339MOL0     C45646   1.353   3.418   9.137 -0.5550  0.3261  0.7334
  339MOL0     N45647   1.296   3.499   9.035 -0.1525 -0.1050  0.0058
  339MOL0     C45648   1.171   3.538   9.001  0.3060  0.0726  0.5326
  339MOL0     C45649   1.181   3.650   8.912 -0.6862  0.4680 -0.2692
  339MOL0     C45650   1.082   3.747   8.855 -0.0328 -0.0570  0.8718
  339MOL0     C45651   0.977   3.785   8.948 -1.2999  1.1895  0.1537
  339MOL0     C45652   0.892   3.891   8.888  0.0294 -0.4202  0.7982
  339MOL0     C45653   0.796   3.950   8.989 -0.5449 -0.2897  0.2763
  339MOL0     O45654   0.676   3.979   8.914  0.1202 -1.0601 -0.3789
  339MOL0     C45655   0.581   4.043   8.990  0.7037 -0.3964  0.3559
  339MOL0     C45656   0.472   4.104   8.927 -0.9185  0.4811  0.3696
  339MOL0     C45657   0.369   4.154   8.991  0.6793 -1.1565 -1.3773
  339MOL0     C45658   0.254   4.223   8.925  0.3991  0.2496 -0.7722
  339MOL0     C45659   0.359   4.144   9.129 -0.0558  0.0950  0.4582
  339MOL0     C45660   0.247   4.188   9.213 -0.4915 -0.0623  0.0431
  339MOL0     O45661   0.220   4.119   9.330 -0.1007 -0.9338 -0.5022
  339MOL0     C45662   0.119   4.167   9.412 -0.2204 -0.3196 -0.5522
  339MOL0     C45663   0.014   4.074   9.451  0.0926  0.7339 -0.0352
  339MOL0     C45664  -0.091   4.112   9.543 -0.6121  0.4100  0.3879
  339MOL0     C45665  -0.084   4.241   9.595  0.1682  0.0240  0.0508
  339MOL0     O45666  -0.191   4.263   9.685 -1.0299  0.1168  0.1489
  339MOL0     C45667  -0.203   4.399   9.744  0.0185 -0.0567  0.5238
  339MOL0     C45668  -0.328   4.389   9.824 -0.2452  0.0047 -0.0466
  339MOL0     C45669  -0.340   4.283   9.937  0.7017 -0.5011  1.2252
  339MOL0     C45670  -0.213   4.270  10.023 -0.8218  0.6341 -0.2370
  339MOL0     C45671  -0.236   4.156  10.119 -0.6025 -1.1673 -0.3494
  339MOL0     C45672  -0.259   4.004  10.077 -0.1825 -0.2582  0.6578
  339MOL0     C45673  -0.216   3.911  10.182  0.8480  1.0384  0.2904
  339MOL0     C45674  -0.281   3.774  10.171  0.7198  0.0553  0.5553
  339MOL0    Cl45675  -0.189   3.661  10.045 -0.0255  0.2899 -0.1386
  339MOL0     C45676   0.022   4.324   9.562 -0.7905  0.1438 -0.9654
  339MOL0     C45677   0.117   4.298   9.468  0.6025  0.5064  0.1763
  339MOL0     O45678   0.203   4.299   9.190 -0.1683  0.2112  0.6574
  339MOL0     C45679   0.466   4.093   9.203 -0.0179  1.3169  1.1957
  339MOL0     C45680   0.574   4.040   9.138  0.1868  0.2341 -0.0646
  339MOL0     N45681   1.317   3.661   8.880  0.0390 -0.3057  0.4835
  339MOL0     N45682   1.383   3.579   8.957  0.1116  0.2240  0.7285
  339MOL0     C45683   1.712   4.220   9.819 -0.3031 -1.1613 -0.7993
  339MOL0     C45684   1.680   4.273   9.939  0.3567  0.1549 -0.2794
  339MOL0     C45685   1.399   4.422  10.285 -0.2978 -0.0783 -0.0142
  339MOL0     C45686   1.499   4.430  10.398 -0.1681 -0.3711  0.6560
  339MOL0     C45687   1.488   4.537  10.492  0.0456  0.7111 -0.5873
  339MOL0     C45688   1.375   4.620  10.485  0.3568 -0.4387 -0.2516
  339MOL0     O45689   1.359   4.725  10.578 -0.2817  0.4956  0.0899
  339MOL0     C45690   1.414   4.692  10.704  0.5298  0.3010  0.2666
  339MOL0     C45691   1.346   4.764  10.823 -0.6903  1.0759  0.2125
  339MOL0     C45692   1.392   4.724  10.956 -0.9615 -0.6717  1.1908
  339MOL0     C45693   1.390   4.575  11.001 -0.2483  0.3547 -0.0605
  339MOL0     C45694   1.363   4.545  11.142  0.4959  0.3031 -1.5715
  339MOL0     C45695   1.355   4.513  11.261 -0.7394  0.3289 -0.5087
  339MOL0     C45696   1.292   4.625  10.371 -0.3677  0.8957 -0.1456
  339MOL0     C45697   1.303   4.523  10.273 -0.3460 -0.3464  0.5094
  339MOL0     H45698   1.417   4.082  10.002  0.7864  0.3975  1.0254
  339MOL0     H45699   1.469   3.980   9.810 -0.3089  0.4360  1.4117
  339MOL0     H45700   1.706   3.869   9.665  3.0256  0.5534 -2.1861
  339MOL0     H45701   1.545   3.913   9.598 -0.0648 -2.5113 -0.5731
  339MOL0     H45702   1.669   4.026   9.408 -1.5956 -0.3171  0.8762
  339MOL0     H45703   1.811   3.928   9.463 -0.1066 -1.4740 -0.8595
  339MOL0     H45704   1.731   3.816   9.280  1.7148 -2.6960  1.8923
  339MOL0     H45705   1.729   3.716   9.422  0.7199  0.0284  0.5483
  339MOL0     H45706   1.483   3.787   9.442 -2.9237 -0.1763 -1.0258
  339MOL0     H45707   1.495   3.847   9.280  3.1889  2.4302  1.4243
  339MOL0     H45708   1.533   3.641   9.176  0.7597  1.5889 -0.2469
  339MOL0     H45709   1.570   3.560   9.332 -2.2322 -2.6301 -1.1310
  339MOL0     H45710   1.343   3.629   9.413  1.0752 -2.3510  1.6977
  339MOL0     H45711   1.301   3.678   9.242 -0.2236  0.5859  0.2907
  339MOL0     H45712   1.382   3.395   9.355  2.7258  3.4188  0.2869
  339MOL0     H45713   1.212   3.443   9.301 -0.1080 -0.7783  1.6708
  339MOL0     H45714   1.351   3.308   9.132 -1.0968  0.2945  1.5074
  339MOL0     H45715   1.461   3.432   9.124 -0.5338 -1.5492 -2.2041
  339MOL0     H45716   1.075   3.513   9.044  0.7830  2.0686  2.9911
  339MOL0     H45717   1.134   3.837   8.823  0.8198 -1.5504 -2.3652
  339MOL0     H45718   1.035   3.710   8.763  0.4262  2.9238 -0.6766
  339MOL0     H45719   1.026   3.821   9.039  0.5743 -2.1166  0.6134
  339MOL0     H45720   0.918   3.704   8.992  0.4191  1.0812  2.4408
  339MOL0     H45721   0.837   3.844   8.805  2.1114  0.5870 -1.2683
  339MOL0     H45722   0.951   3.968   8.838 -2.0751  1.0976  0.5165
  339MOL0     H45723   0.844   4.039   9.030  1.5137 -0.2687 -1.9521
  339MOL0     H45724   0.775   3.876   9.066 -3.6149  0.3953  0.2033
  339MOL0     H45725   0.482   4.113   8.819  1.0893  0.8502  0.5516
  339MOL0     H45726   0.169   4.155   8.936  0.0120  0.6373 -1.2956
  339MOL0     H45727   0.233   4.326   8.953 -3.0846 -0.9030  1.3936
  339MOL0     H45728   0.266   4.229   8.816 -1.7046 -0.5017 -1.0956
  339MOL0     H45729   0.010   3.970   9.420 -1.1331  1.5070 -2.8644
  339MOL0     H45730  -0.175   4.050   9.572  1.7549 -2.8597  0.7375
  339MOL0     H45731  -0.122   4.413   9.817 -1.1165 -0.4617  1.9039
  339MOL0     H45732  -0.208   4.481   9.673 -1.3517  2.9848  3.8187
  339MOL0     H45733  -0.349   4.488   9.866  2.0796 -0.3173  2.1338
  339MOL0     H45734  -0.402   4.365   9.747  1.1213 -3.0824 -0.5355
  339MOL0     H45735  -0.365   4.189   9.887  0.7309  0.0304  0.1730
  339MOL0     H45736  -0.428   4.312   9.994  0.8002  3.8626 -0.4815
  339MOL0     H45737  -0.121   4.247   9.969 -0.7290 -1.4265  0.7164
  339MOL0     H45738  -0.207   4.368  10.071 -4.4322 -0.0141  1.8881
  339MOL0     H45739  -0.310   4.176  10.196  0.6883 -1.0314  0.9028
  339MOL0     H45740  -0.137   4.161  10.165 -0.2451  0.2279 -1.2161
  339MOL0     H45741  -0.361   3.979  10.047  0.5487 -2.6915 -0.0156
  339MOL0     H45742  -0.200   3.974   9.990 -0.8651  0.6901 -0.1581
  339MOL0     H45743  -0.234   3.966  10.275 -0.0005  2.6398 -0.7607
  339MOL0     H45744  -0.108   3.895  10.193  0.3243 -0.9648  5.9936
  339MOL0     H45745  -0.385   3.776  10.137  1.4821  0.6503 -1.9868
  339MOL0     H45746  -0.284   3.729  10.271 -2.3191  0.5816  0.7962
  339MOL0     H45747   0.042   4.419   9.611 -0.9921  0.8121 -2.1199
  339MOL0     H45748   0.196   4.367   9.440  1.1796 -0.1168  0.2546
  339MOL0     H45749   0.460   4.098   9.311 -2.8035  0.3672  1.1571
  339MOL0     H45750   0.659   3.998   9.191  1.6146  1.0599 -1.5773
  339MOL0     H45751   1.799   4.257   9.766 -1.8991  0.5420 -2.3642
  339MOL0     H45752   1.756   4.346   9.967  1.2874 -1.4717  1.7362
  339MOL0     H45753   1.580   4.358  10.400 -1.0549 -1.3967  0.8228
  339MOL0     H45754   1.560   4.554  10.572  2.9207  2.4910 -3.3074
  339MOL0     H45755   1.381   4.589  10.718 -4.1712  1.4137 -0.7838
  339MOL0     H45756   1.523   4.700  10.706  0.7687  0.0894 -3.7285
  339MOL0     H45757   1.237   4.755  10.824 -0.5211 -1.9093  0.6196
  339MOL0     H45758   1.358   4.871  10.804  1.9831  0.5914 -1.1941
  339MOL0     H45759   1.325   4.776  11.025  0.1936  0.8499  1.2152
  339MOL0     H45760   1.495   4.758  10.967 -1.4181  0.3663  2.5114
  339MOL0     H45761   1.491   4.538  10.982  1.3070  4.0459  0.1583
  339MOL0     H45762   1.311   4.528  10.940  0.2027  0.1617 -0.5040
  339MOL0     H45763   1.354   4.502  11.368 -0.9242 -1.5650 -0.6634
  339MOL0     H45764   1.212   4.697  10.355 -0.2602  1.7700  2.6847
  339MOL0     H45765   1.251   4.537  10.179  1.2598  0.2080 -0.3402
  340MOL0     O45766   0.002   9.594   4.126  0.2656  0.2440 -0.2572
  340MOL0     C45767   0.077   9.505   4.087  0.2538  0.3280 -0.0037
  340MOL0     O45768   0.056   9.369   4.067 -0.0551 -0.2246 -0.1498
  340MOL0     C45769  -0.069   9.322   4.124  0.2573  0.1979  0.5275
  340MOL0     C45770  -0.072   9.267   4.251 -0.8763 -0.5045 -0.2967
  340MOL0     C45771  -0.189   9.202   4.295 -0.8023 -0.4614 -0.3364
  340MOL0     C45772  -0.313   9.219   4.218 -1.4162 -0.2756  0.8721
  340MOL0     O45773  -0.428   9.191   4.292  0.5014 -0.0134 -0.7267
  340MOL0     C45774  -0.536   9.147   4.209  0.8026  0.5310 -0.2101
  340MOL0     C45775  -0.634   9.056   4.290 -0.5841 -0.2064  0.0071
  340MOL0     C45776  -0.767   9.144   4.325 -0.0133  0.2507 -0.1180
  340MOL0     C45777  -0.863   9.061   4.402 -0.2273  0.8270  0.3238
  340MOL0     C45778  -0.992   9.134   4.442  0.1021 -0.0138  0.2156
  340MOL0     C45779  -1.108   9.043   4.479  0.0489 -0.1832 -0.2777
  340MOL0     C45780  -1.226   9.122   4.526 -0.3593  0.5482 -0.5255
  340MOL0     C45781  -1.324   9.023   4.600 -0.8612 -0.0768  0.4386
  340MOL0     N45782  -1.431   9.110   4.644 -0.3513  0.3216 -0.8307
  340MOL0     C45783  -1.543   9.131   4.571  0.7336 -0.1754 -0.8071
  340MOL0     C45784  -1.626   9.207   4.642 -0.2681 -0.4117 -0.0823
  340MOL0     C45785  -1.758   9.277   4.598  0.1231 -0.6960 -0.8618
  340MOL0     C45786  -1.882   9.192   4.631  0.2926  0.1783  0.5119
  340MOL0     C45787  -1.900   9.068   4.533 -0.2036  0.8206  0.8733
  340MOL0     C45788  -2.041   9.001   4.548  0.4721 -0.1684 -0.7886
  340MOL0     O45789  -2.148   9.087   4.601  0.0607 -0.0229  0.1928
  340MOL0     C45790  -2.266   9.030   4.647  0.3044  1.3334 -0.6466
  340MOL0     C45791  -2.278   8.899   4.689  0.5323  0.0936  0.8992
  340MOL0     C45792  -2.384   8.865   4.785 -0.6261 -0.0118  0.2561
  340MOL0     C45793  -2.369   8.728   4.844  0.2125 -0.2752 -0.3522
  340MOL0     C45794  -2.498   8.950   4.806  0.3847 -1.0950 -0.5937
  340MOL0     C45795  -2.613   8.920   4.892 -0.4800 -0.0379  0.1732
  340MOL0     O45796  -2.690   9.030   4.938 -0.4132 -0.0080  0.5880
  340MOL0     C45797  -2.800   9.037   5.015  1.1458 -0.9943 -0.0101
  340MOL0     C45798  -2.873   9.163   5.011 -0.3201  0.3465 -0.3411
  340MOL0     C45799  -2.981   9.182   5.100  0.5768  0.6945 -0.4356
  340MOL0     C45800  -3.024   9.076   5.189 -1.2342 -0.0671  1.3641
  340MOL0     O45801  -3.128   9.097   5.271  0.0450  0.0472 -0.4721
  340MOL0     C45802  -3.103   9.072   5.412 -0.3462 -0.1113  0.8861
  340MOL0     C45803  -2.998   9.161   5.467  0.2768  0.9520  0.3365
  340MOL0     C45804  -3.011   9.167   5.624  0.3067  0.5746  0.0592
  340MOL0     C45805  -3.096   9.285   5.673 -0.8691  0.0573 -0.5631
  340MOL0     C45806  -3.120   9.301   5.826 -0.5399  0.8948  0.3558
  340MOL0     C45807  -3.009   9.273   5.933 -0.2189 -0.7901  1.1315
  340MOL0     C45808  -3.058   9.289   6.069  0.3853  1.2093  0.4037
  340MOL0     C45809  -2.951   9.320   6.172  0.2732 -0.0646 -1.0127
  340MOL0    Cl45810  -2.830   9.198   6.183 -0.3123  0.1815  0.3216
  340MOL0     C45811  -2.945   8.964   5.189 -0.0149  0.6352  0.1653
  340MOL0     C45812  -2.843   8.939   5.099  0.1365  0.1718 -0.2181
  340MOL0     O45813  -2.645   8.803   4.907 -0.2863  0.0946 -1.0354
  340MOL0     C45814  -2.490   9.082   4.750  0.3950  0.2121  0.2379
  340MOL0     C45815  -2.384   9.118   4.663 -0.6485  0.3531  0.0971
  340MOL0     N45816  -1.562   9.224   4.759 -0.0129  0.0106  0.3625
  340MOL0     N45817  -1.442   9.171   4.757 -0.2592 -0.0672  0.0598
  340MOL0     C45818  -0.311   9.297   4.098  0.5723  0.1610 -0.4182
  340MOL0     C45819  -0.186   9.341   4.059  0.2339 -0.5469  0.4511
  340MOL0     C45820   0.217   9.553   4.056  0.0453 -0.9611  0.8405
  340MOL0     C45821   0.327   9.461   4.049 -0.4487 -0.0611 -0.2849
  340MOL0     C45822   0.447   9.511   4.004  0.2163  0.9463 -0.4998
  340MOL0     C45823   0.475   9.651   3.983  0.5370  0.2019 -0.8496
  340MOL0     O45824   0.591   9.714   3.943 -0.0468  0.8952  0.2093
  340MOL0     C45825   0.687   9.634   3.882  0.0414 -0.1003  0.0999
  340MOL0     C45826   0.772   9.709   3.784 -0.6596 -0.3513  0.3188
  340MOL0     C45827   0.891   9.637   3.739 -1.3422 -0.5066 -0.8023
  340MOL0     C45828   0.973   9.714   3.640 -0.8240 -0.6825  0.2731
  340MOL0     C45829   1.044   9.820   3.709  0.0292 -1.1669  1.3426
  340MOL0     C45830   1.107   9.911   3.768  0.8697  0.5987  0.8148
  340MOL0     C45831   0.365   9.744   4.004  0.3611 -0.8739  0.2851
  340MOL0     C45832   0.245   9.690   4.036  1.0402 -0.7089 -0.1188
  340MOL0     H45833   0.020   9.255   4.308 -1.6545  0.5465  1.2450
  340MOL0     H45834  -0.190   9.149   4.390  2.0886  0.9569  0.5914
  340MOL0     H45835  -0.589   9.235   4.172  1.3759 -0.8093 -4.8487
  340MOL0     H45836  -0.500   9.093   4.121  2.3355  2.6636 -0.9732
  340MOL0     H45837  -0.654   8.965   4.232 -0.9687 -1.0959  1.4835
  340MOL0     H45838  -0.592   9.026   4.387 -1.0090 -1.4570 -0.1736
  340MOL0     H45839  -0.728   9.230   4.381  0.4195 -0.9429  1.4911
  340MOL0     H45840  -0.820   9.178   4.236 -1.3334  0.2132  0.6382
  340MOL0     H45841  -0.901   8.978   4.341 -1.5494  1.5942  0.0760
  340MOL0     H45842  -0.814   9.014   4.488 -0.8843  0.1645  0.3502
  340MOL0     H45843  -0.958   9.189   4.530  0.3093 -3.6333  2.6183
  340MOL0     H45844  -1.022   9.196   4.356  1.2033 -1.3904 -1.2156
  340MOL0     H45845  -1.138   8.968   4.404  2.5929 -1.6469  0.0637
  340MOL0     H45846  -1.073   8.977   4.559  0.0534 -2.1321 -1.7916
  340MOL0     H45847  -1.183   9.192   4.599  0.5520 -0.8935  0.3663
  340MOL0     H45848  -1.280   9.179   4.450 -3.0359 -1.0328  0.0635
  340MOL0     H45849  -1.272   8.986   4.689 -1.0937 -0.7409  0.3028
  340MOL0     H45850  -1.354   8.941   4.534 -1.2315  0.2042  0.2545
  340MOL0     H45851  -1.567   9.098   4.471 -1.4530 -1.8670  0.2032
  340MOL0     H45852  -1.764   9.364   4.664  3.4018 -1.7579  1.0765
  340MOL0     H45853  -1.751   9.309   4.494 -2.8782 -3.0424 -1.9255
  340MOL0     H45854  -1.966   9.261   4.623  1.6115  1.6013 -2.1151
  340MOL0     H45855  -1.894   9.151   4.732 -0.8471  2.8744  1.5483
  340MOL0     H45856  -1.820   8.994   4.526  1.2175  2.4802 -2.3880
  340MOL0     H45857  -1.898   9.092   4.426 -1.5942 -0.1248  0.6125
  340MOL0     H45858  -2.029   8.922   4.622 -1.5429 -1.2756 -1.5619
  340MOL0     H45859  -2.073   8.945   4.460 -3.2063  2.3135 -1.2782
  340MOL0     H45860  -2.205   8.823   4.664  1.1051  1.3000 -1.3697
  340MOL0     H45861  -2.386   8.721   4.952  3.8368 -0.5610  0.3110
  340MOL0     H45862  -2.431   8.654   4.793  0.9042 -0.8267 -0.4077
  340MOL0     H45863  -2.265   8.698   4.830 -0.1472 -2.0957  0.5128
  340MOL0     H45864  -2.846   9.250   4.951 -0.4653  0.1947 -0.6292
  340MOL0     H45865  -3.042   9.271   5.094 -2.3079 -1.2472 -2.4261
  340MOL0     H45866  -3.194   9.103   5.464 -1.3970 -0.1720 -0.8374
  340MOL0     H45867  -3.093   8.967   5.443 -2.9090  0.2046  3.1662
  340MOL0     H45868  -2.897   9.141   5.431 -0.3505  2.0066 -2.2425
  340MOL0     H45869  -3.026   9.261   5.431 -1.0496  1.4766  2.6187
  340MOL0     H45870  -2.913   9.180   5.672 -0.0998  0.9333  0.8240
  340MOL0     H45871  -3.055   9.074   5.662 -3.3361  2.2471  0.3601
  340MOL0     H45872  -3.041   9.374   5.641 -0.4157 -0.0741 -0.1635
  340MOL0     H45873  -3.196   9.283   5.627 -0.9887 -0.1014 -0.3005
  340MOL0     H45874  -3.195   9.226   5.853  0.8461 -0.1312  1.5748
  340MOL0     H45875  -3.161   9.402   5.837 -1.6669  0.5066 -0.2551
  340MOL0     H45876  -2.958   9.177   5.917  0.5631 -0.0966 -1.0147
  340MOL0     H45877  -2.940   9.356   5.912 -1.1230 -0.0963  0.8657
  340MOL0     H45878  -3.119   9.203   6.097 -0.5006  2.0285  1.0402
  340MOL0     H45879  -3.122   9.377   6.074  1.9260  2.3021  1.9681
  340MOL0     H45880  -2.996   9.327   6.271 -1.8799 -0.4645 -1.9124
  340MOL0     H45881  -2.911   9.418   6.143  0.2998  0.5233  0.8792
  340MOL0     H45882  -2.983   8.898   5.267  0.9705 -1.9916 -1.4422
  340MOL0     H45883  -2.793   8.843   5.109  1.7058  0.6205 -2.9392
  340MOL0     H45884  -2.563   9.162   4.761  1.1319  0.6603  2.4947
  340MOL0     H45885  -2.385   9.217   4.619  2.3113  0.0758 -0.8303
  340MOL0     H45886  -0.402   9.329   4.048  0.2405 -1.3039 -0.7825
  340MOL0     H45887  -0.182   9.398   3.967  2.9812  1.3009  1.5745
  340MOL0     H45888   0.325   9.359   4.085  2.6241 -0.6388 -1.4139
  340MOL0     H45889   0.539   9.452   4.001 -2.1833 -3.1785 -0.0548
  340MOL0     H45890   0.755   9.606   3.963  0.0458 -0.8271 -0.1487
  340MOL0     H45891   0.649   9.542   3.836  1.1031  1.0364 -3.2957
  340MOL0     H45892   0.794   9.806   3.829 -1.5791 -0.3082  0.6962
  340MOL0     H45893   0.715   9.741   3.696  0.4529  0.0787 -0.2670
  340MOL0     H45894   0.867   9.540   3.696  0.2610 -1.3815  0.1999
  340MOL0     H45895   0.941   9.611   3.833  0.4015 -1.1694 -1.8740
  340MOL0     H45896   0.915   9.747   3.553  1.3109  1.5576 -0.4434
  340MOL0     H45897   1.053   9.647   3.607 -1.2167 -2.0688  2.0209
  340MOL0     H45898   1.163   9.990   3.814  1.5612 -0.0731  1.1258
  340MOL0     H45899   0.377   9.849   3.981  0.7310 -0.7820  0.8631
  340MOL0     H45900   0.155   9.750   4.034  1.0658 -0.6779 -0.3415
  341MOL0     O45901   2.445   9.580   4.076 -0.5195 -0.3964  0.1173
  341MOL0     C45902   2.421   9.510   4.170 -0.1305 -0.1157  0.2802
  341MOL0     O45903   2.355   9.387   4.173 -0.6409 -0.2125  0.9314
  341MOL0     C45904   2.285   9.337   4.059  0.1943  0.4515  0.3247
  341MOL0     C45905   2.280   9.196   4.057 -0.4684 -0.8599 -0.0616
  341MOL0     C45906   2.222   9.137   3.951  0.6889 -0.4388  0.6034
  341MOL0     C45907   2.180   9.202   3.835 -0.9421 -0.0885 -0.3069
  341MOL0     O45908   2.133   9.149   3.720  0.2293  0.4086  0.6208
  341MOL0     C45909   2.161   9.013   3.681  0.7740 -0.8988  0.3419
  341MOL0     C45910   2.082   8.974   3.554 -0.0066 -1.1521  0.2972
  341MOL0     C45911   2.130   8.858   3.478 -0.1644  0.0417 -0.9396
  341MOL0     C45912   2.113   8.725   3.556 -0.4700 -1.1366  0.8518
  341MOL0     C45913   2.124   8.602   3.447  0.1903  0.5361 -0.6358
  341MOL0     C45914   2.068   8.486   3.518  0.4632 -0.1068  0.9499
  341MOL0     C45915   2.092   8.376   3.423 -0.7591 -2.1608  0.5797
  341MOL0     C45916   2.019   8.251   3.481 -0.1362 -0.2505  0.8271
  341MOL0     N45917   2.099   8.132   3.446  0.3549  0.0069 -0.1207
  341MOL0     C45918   2.218   8.082   3.492 -0.2721 -0.4500  0.0003
  341MOL0     C45919   2.247   7.971   3.416  0.0483 -0.1897 -0.9205
  341MOL0     C45920   2.364   7.879   3.438  0.2182 -0.0038 -0.7545
  341MOL0     C45921   2.353   7.791   3.563 -0.0455 -0.5168  0.1463
  341MOL0     C45922   2.464   7.685   3.593  1.2238 -0.0131  0.0749
  341MOL0     C45923   2.445   7.647   3.740 -0.1719  0.3513 -0.1518
  341MOL0     O45924   2.581   7.616   3.795  0.2493  0.7580 -0.2262
  341MOL0     C45925   2.603   7.574   3.916 -0.3568  0.4970  0.3307
  341MOL0     C45926   2.731   7.517   3.932 -0.2504 -0.0992 -0.1907
  341MOL0     C45927   2.786   7.469   4.048  0.3203 -0.0331 -0.5167
  341MOL0     C45928   2.916   7.403   4.042  0.5581 -0.3021 -0.2346
  341MOL0     C45929   2.703   7.480   4.168  0.7943  0.0150  0.6741
  341MOL0     C45930   2.734   7.421   4.308  0.1166 -0.0946  0.2731
  341MOL0     O45931   2.626   7.414   4.394 -0.3549 -0.2348 -0.4152
  341MOL0     C45932   2.659   7.401   4.528  0.0720  0.0533 -0.1256
  341MOL0     C45933   2.614   7.490   4.628  0.5018  0.0973  0.2900
  341MOL0     C45934   2.643   7.475   4.761  1.0118 -0.3596  0.2383
  341MOL0     C45935   2.716   7.368   4.812  0.4517  0.8635 -0.3017
  341MOL0     O45936   2.752   7.356   4.947  1.0416  0.4521  0.1593
  341MOL0     C45937   2.873   7.300   4.988  0.6152 -0.6123  0.1071
  341MOL0     C45938   2.887   7.319   5.137  0.8634  0.5879 -0.9526
  341MOL0     C45939   2.873   7.470   5.171  0.8489 -0.0130  0.2739
  341MOL0     C45940   2.959   7.492   5.288  0.0889 -0.1932 -1.1310
  341MOL0     C45941   2.970   7.643   5.301  0.2623 -0.3006 -0.4016
  341MOL0     C45942   3.073   7.675   5.418  0.1482  0.5254  0.2759
  341MOL0     C45943   3.037   7.627   5.555 -0.4807  0.4509  0.0207
  341MOL0     C45944   3.142   7.667   5.665 -0.4532 -0.1824  0.3649
  341MOL0    Cl45945   3.125   7.590   5.825  0.3565 -0.2587 -0.0543
  341MOL0     C45946   2.756   7.272   4.712 -0.4197 -0.3837  0.0143
  341MOL0     C45947   2.735   7.297   4.571 -0.0644  0.8458 -1.3160
  341MOL0     O45948   2.849   7.383   4.333 -0.7734  0.2852  0.0144
  341MOL0     C45949   2.571   7.535   4.152  0.2983 -0.2084  0.9011
  341MOL0     C45950   2.522   7.583   4.028  1.1820 -0.2205 -0.0864
  341MOL0     N45951   2.137   7.945   3.339  0.8162  0.2245 -0.3035
  341MOL0     N45952   2.046   8.041   3.361 -1.0378  0.0561 -0.6245
  341MOL0     C45953   2.180   9.341   3.846  1.0569 -0.0951  0.6502
  341MOL0     C45954   2.238   9.407   3.949 -0.2472 -1.2400 -0.3394
  341MOL0     C45955   2.467   9.556   4.305  1.0843  0.4106 -0.2314
  341MOL0     C45956   2.446   9.477   4.417 -0.1235  0.1453  0.0517
  341MOL0     C45957   2.501   9.512   4.541 -0.3051  0.6196 -0.4133
  341MOL0     C45958   2.568   9.630   4.550 -0.6992  0.2002 -0.2177
  341MOL0     O45959   2.634   9.651   4.667 -0.2806 -0.3416  0.0040
  341MOL0     C45960   2.557   9.714   4.766 -0.0075 -0.1787 -0.7717
  341MOL0     C45961   2.506   9.609   4.866  0.2596 -0.1094  0.8556
  341MOL0     C45962   2.614   9.555   4.950 -0.4933 -0.5093 -0.6313
  341MOL0     C45963   2.568   9.456   5.056  0.4071 -0.7558 -0.0340
  341MOL0     C45964   2.515   9.540   5.160  0.2852  0.0506  0.0391
  341MOL0     C45965   2.457   9.602   5.237  0.0695  0.2046 -0.7495
  341MOL0     C45966   2.591   9.716   4.441  0.4591 -0.1062  0.7149
  341MOL0     C45967   2.532   9.679   4.322 -0.1442  0.6315 -0.1004
  341MOL0     H45968   2.322   9.143   4.142  1.3963  3.8643  2.3776
  341MOL0     H45969   2.211   9.029   3.956 -1.5576 -0.3489 -0.8290
  341MOL0     H45970   2.265   9.005   3.650 -0.0723  0.7580 -3.5203
  341MOL0     H45971   2.137   8.949   3.766  4.0628 -0.9743  1.3321
  341MOL0     H45972   1.982   8.945   3.585 -0.1137  0.8060  1.9880
  341MOL0     H45973   2.066   9.060   3.488  0.0604  0.2342  1.9996
  341MOL0     H45974   2.083   8.840   3.381 -0.0156 -3.5555 -0.4717
  341MOL0     H45975   2.239   8.860   3.477 -0.1006 -0.6362  0.9310
  341MOL0     H45976   2.192   8.707   3.630  1.2297 -0.9553 -0.8425
  341MOL0     H45977   2.018   8.731   3.610 -0.1891  3.2939  1.2199
  341MOL0     H45978   2.068   8.621   3.354  1.0415 -1.4122 -1.5956
  341MOL0     H45979   2.226   8.578   3.416  1.3487 -0.1867  3.2576
  341MOL0     H45980   2.120   8.451   3.608 -1.4888 -1.5389  1.5846
  341MOL0     H45981   1.961   8.500   3.535 -0.1040  1.2748 -2.7148
  341MOL0     H45982   2.050   8.379   3.321 -0.2325 -0.9064  0.3802
  341MOL0     H45983   2.201   8.366   3.426  0.0853  3.5345  3.7637
  341MOL0     H45984   1.915   8.245   3.449 -0.0836 -2.6792  0.9097
  341MOL0     H45985   2.020   8.265   3.589  2.2140 -3.7350  1.4241
  341MOL0     H45986   2.289   8.129   3.560  3.7828 -2.7110 -2.2958
  341MOL0     H45987   2.370   7.828   3.341 -0.1976  3.4605 -2.7752
  341MOL0     H45988   2.448   7.948   3.451 -0.7094  0.7729  1.8412
  341MOL0     H45989   2.255   7.744   3.554 -1.5733  2.4101  0.4177
  341MOL0     H45990   2.355   7.856   3.651  0.7890 -3.1781  2.2557
  341MOL0     H45991   2.557   7.740   3.579  0.6881  0.1825 -4.3078
  341MOL0     H45992   2.467   7.597   3.527  1.7230  1.2843 -1.7186
  341MOL0     H45993   2.361   7.581   3.763 -0.3301  0.7045  0.2927
  341MOL0     H45994   2.429   7.736   3.801  0.3277 -0.2880  0.9257
  341MOL0     H45995   2.785   7.517   3.838 -1.5094  1.0802 -0.9668
  341MOL0     H45996   2.962   7.421   3.944 -0.3155 -1.6054 -0.9077
  341MOL0     H45997   2.980   7.437   4.124 -1.6875 -0.6728  1.7674
  341MOL0     H45998   2.909   7.297   4.066  0.0387  0.1021  1.5769
  341MOL0     H45999   2.550   7.573   4.602  0.0937  0.5567  2.6044
  341MOL0     H46000   2.597   7.547   4.828 -1.7502 -1.4530 -0.3783
  341MOL0     H46001   2.866   7.194   4.963  2.1489  0.1427 -4.6732
  341MOL0     H46002   2.956   7.344   4.932 -0.9462 -0.2721 -2.0770
  341MOL0     H46003   2.797   7.269   5.174  1.9531 -0.1265  0.8727
  341MOL0     H46004   2.975   7.266   5.174 -0.1386  0.3078  1.2405
  341MOL0     H46005   2.768   7.489   5.193  0.8064  0.5880 -0.4110
  341MOL0     H46006   2.892   7.539   5.088  0.0081  1.5315  1.3289
  341MOL0     H46007   2.912   7.442   5.373  0.2386  2.4636  0.6374
  341MOL0     H46008   3.058   7.450   5.271  0.6163  0.2702  0.5503
  341MOL0     H46009   2.871   7.686   5.321  0.9842  0.7479  1.1253
  341MOL0     H46010   3.017   7.680   5.210  0.2831 -1.8731 -1.0577
  341MOL0     H46011   3.169   7.629   5.393  0.1049 -0.6637  2.1159
  341MOL0     H46012   3.081   7.784   5.414 -0.4914  0.5546 -3.2583
  341MOL0     H46013   3.033   7.518   5.547 -2.2275  0.6579 -4.0367
  341MOL0     H46014   2.943   7.677   5.579  1.2909  2.8990  2.4679
  341MOL0     H46015   3.156   7.775   5.660  0.4927 -0.3215 -3.8516
  341MOL0     H46016   3.241   7.634   5.633 -1.0547 -3.0497  1.1708
  341MOL0     H46017   2.809   7.183   4.745 -0.5917  0.1591  1.8712
  341MOL0     H46018   2.769   7.230   4.493 -1.4995  0.3749 -1.5647
  341MOL0     H46019   2.501   7.564   4.230 -0.1178 -0.3409  0.5809
  341MOL0     H46020   2.424   7.629   4.024  0.5634 -1.4415  0.4208
  341MOL0     H46021   2.152   9.398   3.758 -1.4796 -3.0962 -0.6718
  341MOL0     H46022   2.243   9.515   3.945  3.5085 -1.2619  0.2122
  341MOL0     H46023   2.400   9.379   4.410  0.4058 -0.0651 -0.6515
  341MOL0     H46024   2.480   9.443   4.622 -0.6458  1.6951  0.4575
  341MOL0     H46025   2.615   9.798   4.805  2.6508 -1.9175 -0.6571
  341MOL0     H46026   2.468   9.757   4.721  0.1549  0.9228 -0.0840
  341MOL0     H46027   2.470   9.525   4.805  2.1557 -0.4353  0.0893
  341MOL0     H46028   2.426   9.663   4.917 -0.6945  0.3566 -1.0451
  341MOL0     H46029   2.688   9.633   4.973  1.5295 -2.7871  1.1147
  341MOL0     H46030   2.678   9.490   4.891 -1.5420 -0.4620 -1.8638
  341MOL0     H46031   2.662   9.409   5.087  1.5488  1.9299  0.8984
  341MOL0     H46032   2.499   9.386   5.010  0.3669 -1.8595  1.6212
  341MOL0     H46033   2.402   9.669   5.300 -0.0803 -1.7485  1.3504
  341MOL0     H46034   2.634   9.815   4.428 -2.5381  0.9461 -3.0577
  341MOL0     H46035   2.541   9.747   4.239  2.3468  1.0379  0.4313
  342MOL0     O46036   8.769   4.088  10.722 -0.6719 -1.1977 -0.0607
  342MOL0     C46037   8.823   4.025  10.632 -0.4720  0.1999 -0.3610
  342MOL0     O46038   8.874   3.895  10.647 -0.5588  0.1542 -0.1526
  342MOL0     C46039   8.839   3.815  10.755  0.0792 -0.0301  1.2707
  342MOL0     C46040   8.708   3.786  10.792 -0.4627 -0.6362  0.6779
  342MOL0     C46041   8.673   3.700  10.900  0.6538  0.0516 -0.6548
  342MOL0     C46042   8.771   3.644  10.976 -0.0065  1.2816  0.9291
  342MOL0     O46043   8.734   3.572  11.089 -0.0418  0.0564  0.3952
  342MOL0     C46044   8.605   3.592  11.156  0.4179  0.2993 -0.7781
  342MOL0     C46045   8.619   3.552  11.304 -1.0839 -0.0687  0.5128
  342MOL0     C46046   8.488   3.558  11.375  0.6992 -0.3226 -0.2092
  342MOL0     C46047   8.507   3.519  11.524  0.1356  0.1360 -0.9244
  342MOL0     C46048   8.366   3.530  11.590  0.0245  0.1775  0.0498
  342MOL0     C46049   8.381   3.493  11.738  0.7948 -0.4050 -0.5753
  342MOL0     C46050   8.268   3.558  11.823 -0.6139 -0.7327  0.7491
  342MOL0     C46051   8.277   3.555  11.967 -0.6993  0.1387 -0.1490
  342MOL0     N46052   8.182   3.646  12.029  0.0594 -0.4081  0.0300
  342MOL0     C46053   8.159   3.781  11.999 -0.5073  0.4053 -0.3786
  342MOL0     C46054   8.074   3.823  12.091 -0.5498  0.8230  0.3170
  342MOL0     C46055   8.017   3.957  12.121  0.7235 -0.6219  0.4297
  342MOL0     C46056   7.925   4.029  12.024 -1.4603  0.6333  0.7841
  342MOL0     C46057   7.847   4.146  12.087 -0.1464  0.1838 -0.4891
  342MOL0     C46058   7.732   4.208  12.007  0.3438  0.0631 -0.0645
  342MOL0     O46059   7.783   4.246  11.870 -0.4920  0.6111  0.5639
  342MOL0     C46060   7.813   4.371  11.822  0.0870  0.1703 -0.0618
  342MOL0     C46061   7.758   4.488  11.887  0.5610 -0.9042 -0.3933
  342MOL0     C46062   7.797   4.615  11.850  0.3800  0.0125 -0.0710
  342MOL0     C46063   7.746   4.726  11.947 -0.0560 -0.0063  0.3351
  342MOL0     C46064   7.890   4.629  11.745 -0.0414  0.5100 -1.2215
  342MOL0     C46065   7.941   4.762  11.697 -0.6346  1.2449  0.4891
  342MOL0     O46066   8.026   4.753  11.599 -0.3177  0.1680  0.7572
  342MOL0     C46067   8.087   4.857  11.537  0.5771  0.0427  0.5565
  342MOL0     C46068   8.005   4.948  11.467  0.1777 -0.1242  0.7405
  342MOL0     C46069   8.068   5.042  11.373  1.0396  1.2914 -0.0437
  342MOL0     C46070   8.204   5.035  11.343  0.2306 -0.1660 -0.3138
  342MOL0     O46071   8.271   5.110  11.252 -0.4072  0.3702  0.4056
  342MOL0     C46072   8.213   5.233  11.218  0.0329 -0.3401  0.5548
  342MOL0     C46073   8.321   5.334  11.163  0.1530  0.9544 -0.3780
  342MOL0     C46074   8.275   5.470  11.096  0.2285 -0.1062  0.1213
  342MOL0     C46075   8.245   5.576  11.203  0.3018  0.0851 -0.0226
  342MOL0     C46076   8.371   5.660  11.216 -0.6356 -0.3753 -0.0918
  342MOL0     C46077   8.375   5.734  11.350  0.3027  1.5553  0.6546
  342MOL0     C46078   8.518   5.745  11.379 -0.5826 -0.2819  0.3592
  342MOL0     C46079   8.543   5.818  11.512 -0.6533  0.6241 -0.2256
  342MOL0    Cl46080   8.490   5.993  11.513 -1.0283 -0.1163 -0.4361
  342MOL0     C46081   8.278   4.944  11.420  0.3501  0.6121  0.0685
  342MOL0     C46082   8.225   4.853  11.515 -0.1541  0.0100  0.1706
  342MOL0     O46083   7.879   4.866  11.728  0.0759 -0.4242 -0.1563
  342MOL0     C46084   7.948   4.508  11.690  0.8007 -0.9032  0.5430
  342MOL0     C46085   7.905   4.382  11.716 -0.4642  0.2131 -0.8472
  342MOL0     N46086   8.057   3.729  12.186 -0.0563 -0.0936  0.3049
  342MOL0     N46087   8.125   3.620  12.151  0.2233  0.1085  0.4336
  342MOL0     C46088   8.903   3.674  10.940  0.3836  0.5251  0.4488
  342MOL0     C46089   8.937   3.753  10.830 -0.1682  0.1872  0.1252
  342MOL0     C46090   8.828   4.089  10.497 -0.4042  0.3270  0.0001
  342MOL0     C46091   8.934   4.061  10.406 -0.4280 -0.2760  0.8252
  342MOL0     C46092   8.932   4.115  10.275 -0.5742  0.3514  0.7502
  342MOL0     C46093   8.830   4.189  10.230 -1.0530 -0.6900  0.2472
  342MOL0     O46094   8.820   4.231  10.101 -0.4267 -0.8597 -0.3860
  342MOL0     C46095   8.879   4.153  10.003  0.0140 -0.3446  0.2041
  342MOL0     C46096   8.819   4.200   9.869  0.2270  0.6500  0.6632
  342MOL0     C46097   8.888   4.325   9.798 -0.0392 -0.5042  0.6268
  342MOL0     C46098   8.788   4.373   9.691  0.7876  0.0323 -0.0389
  342MOL0     C46099   8.664   4.433   9.741 -0.0557 -0.7900 -0.3611
  342MOL0     C46100   8.573   4.493   9.799  0.4830 -0.1371 -0.1918
  342MOL0     C46101   8.721   4.204  10.311  1.3574 -0.0698  0.4735
  342MOL0     C46102   8.723   4.152  10.443 -0.2711  0.5105 -0.5197
  342MOL0     H46103   8.641   3.853  10.738 -0.5056 -1.8383 -0.8293
  342MOL0     H46104   8.568   3.683  10.923  0.7529 -1.6447 -1.3054
  342MOL0     H46105   8.572   3.697  11.159 -2.9613 -0.6230 -1.5012
  342MOL0     H46106   8.529   3.536  11.103 -0.8320  0.1711  1.0563
  342MOL0     H46107   8.649   3.447  11.306 -1.0920 -0.1731 -2.0217
  342MOL0     H46108   8.694   3.609  11.361 -1.6327 -0.5700  1.7839
  342MOL0     H46109   8.457   3.663  11.365 -0.6614 -0.8750 -2.3528
  342MOL0     H46110   8.411   3.491  11.336  0.5556 -0.4436  0.2705
  342MOL0     H46111   8.536   3.415  11.535 -1.2713 -0.0669  1.4296
  342MOL0     H46112   8.584   3.587  11.562 -1.0944  1.6415 -0.9750
  342MOL0     H46113   8.337   3.635  11.575 -0.2017  0.2195  0.7569
  342MOL0     H46114   8.284   3.475  11.543  1.0194 -0.5765 -0.8445
  342MOL0     H46115   8.374   3.384  11.746  0.0270 -0.4031 -1.0268
  342MOL0     H46116   8.473   3.527  11.786  1.0828 -3.6944  1.5151
  342MOL0     H46117   8.257   3.665  11.803  0.3925 -0.7550  0.0277
  342MOL0     H46118   8.175   3.511  11.787 -0.3555 -0.4281 -0.3578
  342MOL0     H46119   8.378   3.562  12.009 -0.2519 -4.0248 -0.1552
  342MOL0     H46120   8.251   3.452  11.993 -2.3402  0.2999 -1.0446
  342MOL0     H46121   8.205   3.831  11.915  3.7369 -1.4185  0.5868
  342MOL0     H46122   7.963   3.954  12.217  1.8654  0.0248  1.1258
  342MOL0     H46123   8.109   4.011  12.146  0.1967 -0.4661  2.1992
  342MOL0     H46124   7.857   3.961  11.971 -0.5367  0.4619 -0.2378
  342MOL0     H46125   7.992   4.088  11.961 -1.4257  2.6181  2.5931
  342MOL0     H46126   7.918   4.227  12.110 -0.5837  0.4199  0.0686
  342MOL0     H46127   7.797   4.107  12.176 -0.4170  1.7250  0.0817
  342MOL0     H46128   7.681   4.287  12.064 -0.2393 -1.8121  2.1731
  342MOL0     H46129   7.662   4.124  11.999  0.3097 -0.1330  1.7474
  342MOL0     H46130   7.698   4.476  11.976  0.3106 -0.3242 -0.4789
  342MOL0     H46131   7.692   4.678  12.028  1.1103 -3.0637 -0.5666
  342MOL0     H46132   7.835   4.778  11.984  0.9097 -1.1764 -0.2845
  342MOL0     H46133   7.683   4.803  11.902  0.8046 -0.1814 -1.2405
  342MOL0     H46134   7.897   4.949  11.469  0.1695  0.9263  0.0524
  342MOL0     H46135   8.005   5.113  11.321  0.1896  1.8412  1.6486
  342MOL0     H46136   8.136   5.220  11.141 -0.7638  2.0594  0.8416
  342MOL0     H46137   8.161   5.271  11.306  2.3663 -1.3861  2.4885
  342MOL0     H46138   8.396   5.366  11.236 -1.2706  3.9635 -0.0549
  342MOL0     H46139   8.374   5.284  11.082 -1.0468  2.0689 -1.9013
  342MOL0     H46140   8.187   5.449  11.036  0.4167  2.9471 -1.4475
  342MOL0     H46141   8.353   5.519  11.035  1.2610 -2.7290 -0.7849
  342MOL0     H46142   8.162   5.642  11.177  1.4381  1.6933  0.2469
  342MOL0     H46143   8.213   5.530  11.297 -2.1408  3.2885  0.9242
  342MOL0     H46144   8.369   5.748  11.150 -2.0044  1.2455  2.0117
  342MOL0     H46145   8.460   5.600  11.194 -0.8567 -0.9766  0.6560
  342MOL0     H46146   8.325   5.831  11.345 -0.1064  1.2923 -0.8982
  342MOL0     H46147   8.330   5.670  11.427  0.3611  0.7665  0.0557
  342MOL0     H46148   8.565   5.802  11.299  1.3543  2.0081  2.9312
  342MOL0     H46149   8.582   5.657  11.389  4.3802  3.1635  2.3219
  342MOL0     H46150   8.652   5.817  11.524 -0.7376  0.4563  0.6049
  342MOL0     H46151   8.487   5.768  11.592 -1.1918  1.9773  0.2714
  342MOL0     H46152   8.384   4.935  11.398  1.6156  5.4081  2.6979
  342MOL0     H46153   8.283   4.766  11.544  0.0422 -0.1762 -0.7571
  342MOL0     H46154   8.011   4.511  11.601 -0.3572 -0.1450 -0.2764
  342MOL0     H46155   7.960   4.293  11.689 -2.3225 -1.1988 -0.1953
  342MOL0     H46156   8.985   3.647  11.006  1.6376  0.0235 -1.2349
  342MOL0     H46157   9.044   3.768  10.821  0.7933 -2.0176  5.0333
  342MOL0     H46158   9.029   4.020  10.441  0.1061 -2.1063 -2.3789
  342MOL0     H46159   9.007   4.090  10.200 -2.5538 -0.4567 -1.0945
  342MOL0     H46160   8.988   4.167  10.001  0.2082 -1.2600  2.0011
  342MOL0     H46161   8.872   4.045  10.018 -0.9738 -0.4386 -0.8662
  342MOL0     H46162   8.711   4.191   9.880 -0.0371 -1.7009 -2.6518
  342MOL0     H46163   8.849   4.119   9.803  4.9257  3.2553 -0.8916
  342MOL0     H46164   8.974   4.283   9.744  0.6430 -2.0310  2.7606
  342MOL0     H46165   8.910   4.411   9.861  1.3623  1.7984 -2.7025
  342MOL0     H46166   8.771   4.295   9.616  0.8480 -1.1596  1.1654
  342MOL0     H46167   8.836   4.460   9.644 -0.2830  1.0328  0.6539
  342MOL0     H46168   8.482   4.529   9.843  0.8358 -0.0616  0.5055
  342MOL0     H46169   8.636   4.254  10.266  1.3930  1.1464  1.7100
  342MOL0     H46170   8.631   4.148  10.501 -0.9004  0.5629 -1.4917
  343MOL0     O46171   4.197   2.043   5.702 -0.1259  1.1077 -0.4408
  343MOL0     C46172   4.128   2.116   5.774  0.7665 -0.2933  0.8675
  343MOL0     O46173   4.168   2.236   5.828 -0.2002  0.6117  0.7167
  343MOL0     C46174   4.295   2.279   5.824  0.8575  0.4571  0.0807
  343MOL0     C46175   4.409   2.205   5.801 -0.3267  0.3920  0.1140
  343MOL0     C46176   4.541   2.253   5.805  0.0763  0.2139  1.0981
  343MOL0     C46177   4.557   2.393   5.817  0.2393  0.9447  1.1787
  343MOL0     O46178   4.692   2.434   5.814  0.0888  0.4425 -0.0179
  343MOL0     C46179   4.737   2.477   5.681 -0.0287 -0.2113  0.1797
  343MOL0     C46180   4.883   2.490   5.672  0.5137  0.4191  0.2239
  343MOL0     C46181   4.931   2.598   5.767 -0.2991  0.5321 -0.9737
  343MOL0     C46182   5.085   2.611   5.749  0.0386  0.2079 -0.6263
  343MOL0     C46183   5.148   2.716   5.842  0.4743  1.2410  0.3131
  343MOL0     C46184   5.095   2.855   5.810  0.2125  0.6014 -0.2007
  343MOL0     C46185   5.182   2.955   5.873 -0.7331  0.0820 -0.6959
  343MOL0     C46186   5.314   2.971   5.811 -0.3446 -0.3654  0.0217
  343MOL0     N46187   5.310   3.042   5.690 -0.1308 -0.0369  0.7519
  343MOL0     C46188   5.291   2.998   5.564  0.7231  0.2211 -0.4570
  343MOL0     C46189   5.308   3.106   5.488  0.4882  0.9935  0.3129
  343MOL0     C46190   5.293   3.099   5.333 -0.5526 -0.2879 -0.9240
  343MOL0     C46191   5.148   3.105   5.289  0.3509 -0.1970  0.7480
  343MOL0     C46192   5.132   3.128   5.129  0.1395 -0.1018 -1.1067
  343MOL0     C46193   4.990   3.119   5.084  0.7343 -0.3036 -0.1479
  343MOL0     O46194   4.907   3.229   5.124 -0.4341 -0.0678 -0.2152
  343MOL0     C46195   4.780   3.200   5.161  1.2783  0.2661 -0.1542
  343MOL0     C46196   4.714   3.298   5.243  0.1030 -0.1908 -1.0451
  343MOL0     C46197   4.585   3.278   5.305  0.3683 -0.0531 -0.2844
  343MOL0     C46198   4.543   3.396   5.402 -0.0318  0.2912  0.3779
  343MOL0     C46199   4.516   3.154   5.283  0.5132 -0.1722  0.2200
  343MOL0     C46200   4.387   3.118   5.346 -0.0821  1.3693  0.9850
  343MOL0     O46201   4.332   2.996   5.298  0.2344 -0.2298 -0.5709
  343MOL0     C46202   4.207   2.960   5.345  0.0374  0.8265  0.9951
  343MOL0     C46203   4.096   3.038   5.322 -0.1180  0.3611  0.2869
  343MOL0     C46204   3.977   2.999   5.380 -1.2280 -0.7490 -0.0565
  343MOL0     C46205   3.962   2.885   5.456 -0.6781  0.2136 -0.8168
  343MOL0     O46206   3.852   2.836   5.509 -0.8389 -0.1776 -0.1241
  343MOL0     C46207   3.729   2.863   5.438  0.1569  0.0973  0.4714
  343MOL0     C46208   3.635   2.749   5.484  0.3929  0.1354  0.7174
  343MOL0     C46209   3.496   2.775   5.422 -0.0878  0.3074 -0.2670
  343MOL0     C46210   3.409   2.658   5.460 -0.8078 -0.2784  0.1033
  343MOL0     C46211   3.288   2.650   5.373  0.9792 -0.0123 -0.3067
  343MOL0     C46212   3.215   2.520   5.426  0.1964  1.1311  0.0675
  343MOL0     C46213   3.080   2.504   5.343 -0.2922 -0.8220 -0.0919
  343MOL0     C46214   2.999   2.379   5.370 -0.1444  0.0439 -0.0665
  343MOL0    Cl46215   3.092   2.231   5.323 -0.1803 -0.3190  0.0623
  343MOL0     C46216   4.078   2.817   5.474  0.3213  1.1502  0.7834
  343MOL0     C46217   4.202   2.844   5.425 -0.2287 -0.3391  0.2097
  343MOL0     O46218   4.327   3.189   5.418 -0.2080  0.1592 -0.2351
  343MOL0     C46219   4.574   3.077   5.182 -0.3900  0.0935  0.7864
  343MOL0     C46220   4.699   3.095   5.123 -0.3179  0.7565  0.3618
  343MOL0     N46221   5.338   3.213   5.569  0.0357 -0.0678 -0.2642
  343MOL0     N46222   5.331   3.166   5.693  0.6308  0.4233 -0.2140
  343MOL0     C46223   4.447   2.481   5.826 -0.2179 -0.5393 -0.2542
  343MOL0     C46224   4.313   2.426   5.833 -0.0891  0.1679 -0.9594
  343MOL0     C46225   3.984   2.088   5.768  0.2821  0.4173  0.5894
  343MOL0     C46226   3.931   1.995   5.684  0.2402 -0.2061  0.0665
  343MOL0     C46227   3.790   1.967   5.686  0.7194 -0.7548 -1.2412
  343MOL0     C46228   3.703   2.040   5.769  0.3993  0.0789  0.3546
  343MOL0     O46229   3.567   2.019   5.778 -0.4557  0.3367  0.5634
  343MOL0     C46230   3.522   1.877   5.772  0.3836 -0.1141  0.9001
  343MOL0     C46231   3.400   1.857   5.854  0.1443 -0.1814 -1.1200
  343MOL0     C46232   3.417   1.908   5.997 -0.5874  0.1609  0.7471
  343MOL0     C46233   3.301   1.859   6.090 -1.0415  0.0859  0.3600
  343MOL0     C46234   3.309   1.712   6.118 -0.6591 -0.4913 -0.2191
  343MOL0     C46235   3.332   1.598   6.129 -0.5351  0.4891  0.0725
  343MOL0     C46236   3.756   2.141   5.846  0.2785 -0.3111  0.9413
  343MOL0     C46237   3.896   2.164   5.848  0.3568  0.2354  0.4712
  343MOL0     H46238   4.401   2.097   5.800 -1.5375  0.4454 -2.3338
  343MOL0     H46239   4.612   2.171   5.808  1.5259  1.3957  0.2136
  343MOL0     H46240   4.698   2.397   5.618  1.6894 -2.8621  2.2639
  343MOL0     H46241   4.687   2.567   5.645  1.1405  0.3885  0.0226
  343MOL0     H46242   4.935   2.396   5.692  5.3518  2.9878  1.3071
  343MOL0     H46243   4.916   2.527   5.575  2.3060  0.1241  0.6819
  343MOL0     H46244   4.875   2.692   5.759 -2.2056 -0.1791  2.2598
  343MOL0     H46245   4.908   2.563   5.868  1.9698 -0.4799 -0.7482
  343MOL0     H46246   5.129   2.515   5.775 -1.4713 -0.0416  1.2613
  343MOL0     H46247   5.103   2.635   5.644 -0.2441 -1.0668 -0.9830
  343MOL0     H46248   5.138   2.680   5.945 -2.5154  0.9375  0.0151
  343MOL0     H46249   5.254   2.698   5.822  0.3897 -1.0777  1.6657
  343MOL0     H46250   5.090   2.876   5.703  0.7596 -0.1832 -0.3924
  343MOL0     H46251   4.994   2.856   5.850  1.2291  0.5212  2.5432
  343MOL0     H46252   5.132   3.052   5.876 -0.0983  0.4109 -0.5107
  343MOL0     H46253   5.201   2.927   5.977 -1.6835 -0.6129 -0.6995
  343MOL0     H46254   5.365   2.877   5.789  1.4425  0.3882  0.7830
  343MOL0     H46255   5.380   3.028   5.877 -2.7179  2.1163  0.4493
  343MOL0     H46256   5.274   2.893   5.541  0.5396 -0.5825  2.8916
  343MOL0     H46257   5.355   3.172   5.279  0.0054 -0.5956 -0.7084
  343MOL0     H46258   5.337   3.003   5.304 -0.3560 -1.8208  3.7141
  343MOL0     H46259   5.086   3.171   5.350 -0.1155 -1.6787  1.9324
  343MOL0     H46260   5.101   3.008   5.307 -0.6820 -0.3141 -2.0842
  343MOL0     H46261   5.186   3.049   5.076  2.0400  2.9571 -4.2061
  343MOL0     H46262   5.193   3.215   5.102 -1.2668  0.5912 -2.1670
  343MOL0     H46263   4.948   3.029   5.131 -0.6839 -0.8904 -2.3614
  343MOL0     H46264   4.992   3.110   4.975 -0.2818  3.3588 -0.5907
  343MOL0     H46265   4.769   3.389   5.263 -1.2993  0.4680 -0.1043
  343MOL0     H46266   4.595   3.486   5.366 -0.2533  0.8522  1.4176
  343MOL0     H46267   4.439   3.427   5.384  0.6462  2.6976  0.2988
  343MOL0     H46268   4.562   3.381   5.508 -1.1725  5.0834  1.5267
  343MOL0     H46269   4.094   3.132   5.268 -1.5886  1.9363  2.9193
  343MOL0     H46270   3.887   3.055   5.361 -0.9797 -0.5769 -0.7523
  343MOL0     H46271   3.684   2.958   5.466 -1.6725 -0.5792 -0.0318
  343MOL0     H46272   3.746   2.866   5.330  2.3204  1.9601  0.7866
  343MOL0     H46273   3.680   2.653   5.458 -0.6716  0.2280 -1.7376
  343MOL0     H46274   3.620   2.760   5.592 -1.4811  2.1121  0.3211
  343MOL0     H46275   3.512   2.780   5.314  0.2477 -0.8863 -0.2860
  343MOL0     H46276   3.452   2.872   5.451 -0.3794  0.1721 -0.2484
  343MOL0     H46277   3.458   2.560   5.458 -3.1114 -1.5428  1.2706
  343MOL0     H46278   3.371   2.681   5.559 -1.1701 -1.8174  0.3474
  343MOL0     H46279   3.321   2.644   5.268 -2.5581 -1.4442 -1.4875
  343MOL0     H46280   3.217   2.733   5.370  1.8722  0.7734 -2.9280
  343MOL0     H46281   3.281   2.433   5.419  0.5774  1.4891 -1.0754
  343MOL0     H46282   3.203   2.529   5.534  4.8436 -2.7387  1.2634
  343MOL0     H46283   3.110   2.510   5.238  0.8494 -1.5503  0.1765
  343MOL0     H46284   3.023   2.595   5.361  0.7523  0.1682 -1.6068
  343MOL0     H46285   2.905   2.391   5.316 -1.6886  1.0757  2.6235
  343MOL0     H46286   2.965   2.373   5.474  0.1612 -0.6079  0.0053
  343MOL0     H46287   4.057   2.718   5.512  3.1836  0.4924  0.9005
  343MOL0     H46288   4.283   2.771   5.431 -1.0330 -1.1659  1.7569
  343MOL0     H46289   4.510   2.995   5.151 -1.7512  1.3440  0.1877
  343MOL0     H46290   4.735   3.020   5.053 -2.1205  0.7201 -0.5863
  343MOL0     H46291   4.470   2.587   5.830 -0.6091 -0.4690  2.3888
  343MOL0     H46292   4.224   2.487   5.833  0.5409  1.1193 -0.1169
  343MOL0     H46293   3.994   1.945   5.611  1.4822 -1.0486  1.6608
  343MOL0     H46294   3.762   1.880   5.627  1.2312 -1.2747 -0.7223
  343MOL0     H46295   3.500   1.857   5.666 -2.6890 -0.0565  1.4466
  343MOL0     H46296   3.598   1.802   5.797  2.6886  1.4798 -0.9381
  343MOL0     H46297   3.374   1.751   5.857  2.3991 -0.7927 -1.0256
  343MOL0     H46298   3.315   1.908   5.809  1.5358  0.9591 -2.5913
  343MOL0     H46299   3.425   2.017   6.005  1.8706 -0.1030  3.1814
  343MOL0     H46300   3.517   1.881   6.033 -0.3750  1.5603  1.2924
  343MOL0     H46301   3.208   1.871   6.034 -0.5848 -4.0462 -1.7468
  343MOL0     H46302   3.295   1.928   6.174  2.1325  1.4913 -0.4037
  343MOL0     H46303   3.350   1.493   6.139  0.0424  0.5995  0.2518
  343MOL0     H46304   3.678   2.202   5.891  1.3162  0.8500  1.2103
  343MOL0     H46305   3.940   2.238   5.915  2.5565 -0.0854 -0.5526
  344MOL0     O46306   8.367   9.418   2.792  0.8385  0.4655  0.1904
  344MOL0     C46307   8.252   9.415   2.832 -0.7457 -0.8459 -0.1660
  344MOL0     O46308   8.139   9.400   2.763  0.1924  0.5916  0.3076
  344MOL0     C46309   8.148   9.384   2.625  0.5835  0.5886 -0.4882
  344MOL0     C46310   8.072   9.470   2.544 -0.0937  0.7223 -0.0051
  344MOL0     C46311   8.089   9.491   2.408  0.3973  0.2456  0.7505
  344MOL0     C46312   8.164   9.392   2.347 -0.4704  0.2213  0.2087
  344MOL0     O46313   8.165   9.377   2.210 -0.0979  0.4387  0.4605
  344MOL0     C46314   8.044   9.328   2.150  0.7710 -0.6176  0.2431
  344MOL0     C46315   8.056   9.346   1.997  0.5706  0.3616  1.1585
  344MOL0     C46316   8.079   9.494   1.958  1.2353  0.4581  0.0512
  344MOL0     C46317   8.106   9.517   1.810  0.2102  0.3000 -0.6752
  344MOL0     C46318   8.142   9.659   1.779 -0.2737  0.3425  0.3528
  344MOL0     C46319   8.124   9.681   1.626 -0.3312 -0.2925  0.0950
  344MOL0     C46320   8.186   9.815   1.579  0.1532  0.4647  0.6661
  344MOL0     C46321   8.263   9.808   1.444  0.6015  0.4685  1.0816
  344MOL0     N46322   8.332   9.936   1.425  0.2743 -0.4311  0.1019
  344MOL0     C46323   8.275  10.060   1.431 -0.2819 -0.4723  0.6898
  344MOL0     C46324   8.358  10.155   1.382  0.2888 -0.3365 -0.3488
  344MOL0     C46325   8.344  10.304   1.368  0.7513 -0.1479  0.2709
  344MOL0     C46326   8.443  10.376   1.460 -0.3065 -0.3375 -0.0066
  344MOL0     C46327   8.438  10.529   1.476  0.2323 -0.6976  0.1278
  344MOL0     C46328   8.451  10.610   1.341  0.6936 -0.4297 -0.2054
  344MOL0     O46329   8.567  10.582   1.258  0.1971 -0.3075 -0.3530
  344MOL0     C46330   8.681  10.639   1.294 -0.0439 -0.4479  0.6226
  344MOL0     C46331   8.704  10.757   1.380  0.7410  0.2209  0.2699
  344MOL0     C46332   8.824  10.817   1.409  0.2925 -1.0522 -0.1476
  344MOL0     C46333   8.832  10.940   1.505  0.0923  0.6007  0.2568
  344MOL0     C46334   8.943  10.765   1.353  0.0169 -0.5514  0.9765
  344MOL0     C46335   9.081  10.819   1.353  0.5571  0.4613  0.8926
  344MOL0     O46336   9.168  10.759   1.265 -0.4472 -0.0363  0.8438
  344MOL0     C46337   9.309  10.790   1.268 -0.2887  0.2957  0.1602
  344MOL0     C46338   9.389  10.851   1.369 -0.5331  0.4174 -0.0623
  344MOL0     C46339   9.522  10.884   1.346 -0.1050  0.1328  0.0720
  344MOL0     C46340   9.583  10.858   1.230  0.1609 -0.4344  0.1867
  344MOL0     O46341   9.709  10.874   1.188  0.5501  0.3232  0.1322
  344MOL0     C46342   9.800  10.955   1.262 -0.5793  0.6599 -0.4274
  344MOL0     C46343   9.933  10.972   1.182  1.0145 -0.9399 -0.0217
  344MOL0     C46344   9.998  10.846   1.148 -0.5853 -0.6208  0.1809
  344MOL0     C46345  10.148  10.870   1.089  0.3762 -0.3384 -0.2841
  344MOL0     C46346  10.208  10.738   1.027 -0.4305  0.1371  0.4202
  344MOL0     C46347  10.151  10.699   0.893  0.8191 -0.0899  0.4675
  344MOL0     C46348  10.217  10.577   0.831 -0.6570  0.2402 -0.2077
  344MOL0     C46349  10.158  10.561   0.688 -0.5197 -0.9797  1.2665
  344MOL0    Cl46350  10.215  10.408   0.620  0.2096 -0.2503  0.2881
  344MOL0     C46351   9.509  10.788   1.132 -0.3579 -0.1962 -0.1006
  344MOL0     C46352   9.379  10.758   1.152  0.2150 -0.1541  0.4876
  344MOL0     O46353   9.099  10.919   1.420 -0.3202 -0.0372  0.8537
  344MOL0     C46354   8.925  10.651   1.277  0.0311  0.0041  0.3184
  344MOL0     C46355   8.802  10.592   1.247 -0.0693  0.7940  0.2338
  344MOL0     N46356   8.480  10.076   1.352  0.5455 -0.8716  0.4522
  344MOL0     N46357   8.456   9.948   1.363 -0.0174  0.4836  0.1753
  344MOL0     C46358   8.253   9.308   2.420 -0.3383 -0.3598 -0.0948
  344MOL0     C46359   8.235   9.301   2.558 -0.8189  0.8491  0.5411
  344MOL0     C46360   8.255   9.438   2.976  0.3232 -0.7185 -0.6581
  344MOL0     C46361   8.135   9.414   3.055  0.4564  0.0401  1.0540
  344MOL0     C46362   8.109   9.457   3.174  0.4046  0.2052 -0.6478
  344MOL0     C46363   8.217   9.522   3.235 -0.3226  0.1529  0.0119
  344MOL0     O46364   8.219   9.556   3.366 -0.9137  0.1973 -0.8429
  344MOL0     C46365   8.271   9.455   3.454  1.1467  0.0773 -0.8194
  344MOL0     C46366   8.245   9.305   3.425  0.1322  0.3117  0.4219
  344MOL0     C46367   8.099   9.263   3.455  0.0618 -0.5894  0.5723
  344MOL0     C46368   8.079   9.159   3.566 -0.4643  0.6251  0.4453
  344MOL0     C46369   8.121   9.206   3.697  0.3089 -0.1759  0.3118
  344MOL0     C46370   8.146   9.265   3.799  0.1801  1.2284  0.4136
  344MOL0     C46371   8.337   9.544   3.168  0.1423  0.5043  0.5271
  344MOL0     C46372   8.359   9.497   3.041 -0.1764 -0.1839  0.5460
  344MOL0     H46373   8.005   9.540   2.593 -1.7855  1.2879 -2.8882
  344MOL0     H46374   8.025   9.560   2.355 -0.5909 -1.0634  0.1856
  344MOL0     H46375   8.024   9.221   2.164  0.2409 -0.9552 -2.6162
  344MOL0     H46376   7.958   9.383   2.191 -0.6105 -0.9741 -1.9975
  344MOL0     H46377   8.149   9.293   1.974  0.4109 -0.2206  1.7999
  344MOL0     H46378   7.973   9.304   1.940  2.6607 -1.4280 -0.7537
  344MOL0     H46379   7.983   9.545   1.969  1.1602  0.7668 -1.6858
  344MOL0     H46380   8.156   9.547   2.014  3.7429 -3.8915  1.1148
  344MOL0     H46381   8.200   9.461   1.801 -1.2120 -1.9154 -2.9107
  344MOL0     H46382   8.025   9.467   1.756 -2.2810 -0.2133  3.1224
  344MOL0     H46383   8.070   9.719   1.836 -0.5018 -1.2764  1.8593
  344MOL0     H46384   8.244   9.673   1.816  0.0377 -1.0230  0.1035
  344MOL0     H46385   8.180   9.604   1.573  2.6314  1.4683  0.4804
  344MOL0     H46386   8.021   9.682   1.587 -0.9250 -2.2695  1.4162
  344MOL0     H46387   8.096   9.877   1.570 -0.9140 -0.8425  1.8737
  344MOL0     H46388   8.249   9.857   1.659  1.4482  2.9579 -1.5028
  344MOL0     H46389   8.204   9.789   1.354  1.3575  1.0110  0.4670
  344MOL0     H46390   8.332   9.723   1.440  0.3366  0.2857  0.2463
  344MOL0     H46391   8.174  10.078   1.469 -2.0019 -1.5151 -2.9573
  344MOL0     H46392   8.349  10.330   1.262 -0.8694  2.4219  0.7317
  344MOL0     H46393   8.242  10.333   1.395  1.4539  0.2538  2.6993
  344MOL0     H46394   8.545  10.349   1.431 -0.3084 -0.6029  0.2209
  344MOL0     H46395   8.428  10.338   1.562  2.1146  2.9100  1.7274
  344MOL0     H46396   8.509  10.559   1.553 -1.3898 -0.2178  1.5155
  344MOL0     H46397   8.341  10.546   1.524 -0.0775 -0.4366 -0.5737
  344MOL0     H46398   8.437  10.716   1.366  1.3621  0.0869 -1.8874
  344MOL0     H46399   8.359  10.587   1.286  0.7988 -0.9047 -0.1793
  344MOL0     H46400   8.612  10.797   1.422 -0.5065  2.9049 -4.2957
  344MOL0     H46401   8.874  10.908   1.601 -0.9032  1.2333  0.9221
  344MOL0     H46402   8.904  11.009   1.460  0.7935 -0.3199 -0.0582
  344MOL0     H46403   8.734  10.988   1.511 -0.6779 -0.9714  0.8565
  344MOL0     H46404   9.357  10.873   1.470  0.7899 -2.3336  1.0729
  344MOL0     H46405   9.582  10.928   1.425  1.4226 -0.5610 -0.6578
  344MOL0     H46406   9.751  11.051   1.282  2.4720  2.2790 -0.1082
  344MOL0     H46407   9.819  10.898   1.354 -3.6408 -0.9382 -0.6551
  344MOL0     H46408   9.905  11.023   1.089 -2.6680 -1.8149  0.4526
  344MOL0     H46409   9.996  11.039   1.241  4.1706 -0.0791 -3.9818
  344MOL0     H46410   9.947  10.806   1.060 -1.4454  0.1852  0.2982
  344MOL0     H46411  10.001  10.776   1.233  1.0508 -1.6770 -0.6920
  344MOL0     H46412  10.145  10.949   1.014 -0.2893  0.8639  0.9620
  344MOL0     H46413  10.204  10.910   1.173  1.9207 -0.1749 -1.3539
  344MOL0     H46414  10.193  10.656   1.099 -1.7908  0.3562  0.4140
  344MOL0     H46415  10.315  10.750   1.010 -0.0757 -2.0300  0.8653
  344MOL0     H46416  10.044  10.682   0.900  0.1729  2.8375 -0.7084
  344MOL0     H46417  10.162  10.793   0.836  0.0178  0.1226  0.6536
  344MOL0     H46418  10.190  10.482   0.879  1.7762  0.6218  2.1867
  344MOL0     H46419  10.325  10.595   0.830 -0.6061 -0.0502 -0.9733
  344MOL0     H46420  10.194  10.641   0.622 -1.6416 -1.2955  0.2550
  344MOL0     H46421  10.049  10.561   0.696 -0.6284 -3.6585  0.8233
  344MOL0     H46422   9.547  10.756   1.035  1.0780  0.4926  0.2129
  344MOL0     H46423   9.321  10.695   1.085 -0.4566 -1.3686  2.1563
  344MOL0     H46424   9.008  10.607   1.223  0.5471 -0.4032  1.4141
  344MOL0     H46425   8.800  10.494   1.201  1.1965  0.1013  1.5959
  344MOL0     H46426   8.319   9.239   2.369  1.5002  1.3048 -0.1163
  344MOL0     H46427   8.282   9.226   2.622 -1.3260  1.0872  1.1973
  344MOL0     H46428   8.054   9.364   3.002  0.1953 -0.0833  1.5663
  344MOL0     H46429   8.018   9.430   3.228  1.9392 -0.0304  2.0061
  344MOL0     H46430   8.379   9.471   3.446  1.3716 -0.2885  0.9336
  344MOL0     H46431   8.252   9.472   3.561 -1.5086 -0.7045 -1.0835
  344MOL0     H46432   8.320   9.250   3.484 -1.8037 -0.4059  2.3748
  344MOL0     H46433   8.249   9.290   3.317 -6.3975  1.8655 -0.4171
  344MOL0     H46434   8.060   9.218   3.363  0.6101  0.7453 -0.3442
  344MOL0     H46435   8.046   9.353   3.488 -1.4585 -1.5548  0.8879
  344MOL0     H46436   8.135   9.071   3.532 -1.4746  1.1990 -3.1521
  344MOL0     H46437   7.979   9.117   3.579 -1.9669  4.6609  4.0225
  344MOL0     H46438   8.185   9.314   3.886 -1.3742  1.3086  1.0960
  344MOL0     H46439   8.406   9.608   3.222  0.0027  1.1639 -0.0689
  344MOL0     H46440   8.449   9.515   2.983  2.1027 -1.7318  3.3526
  345MOL0     O46441   3.625   9.033   9.680  0.8387  0.5204  0.3142
  345MOL0     C46442   3.520   9.015   9.614  0.0046  0.5364  0.1961
  345MOL0     O46443   3.450   8.899   9.608 -0.2165 -0.0415  0.3768
  345MOL0     C46444   3.509   8.788   9.661  0.9387  0.1622 -0.3497
  345MOL0     C46445   3.513   8.670   9.590 -0.4095 -0.4508 -0.4322
  345MOL0     C46446   3.554   8.553   9.642  0.9974 -0.3140 -0.8333
  345MOL0     C46447   3.590   8.553   9.778 -0.1411  0.0209  0.5961
  345MOL0     O46448   3.624   8.432   9.830 -0.3688 -0.3807  0.2958
  345MOL0     C46449   3.724   8.437   9.928 -0.4771 -0.0148 -0.8513
  345MOL0     C46450   3.841   8.329   9.898  0.3520  0.3816 -0.1461
  345MOL0     C46451   3.793   8.188   9.944  0.8261  0.2389 -0.5620
  345MOL0     C46452   3.915   8.097   9.948 -0.3426 -0.7062 -0.4291
  345MOL0     C46453   3.874   7.951   9.984  0.0944  0.2623  0.6720
  345MOL0     C46454   3.982   7.853   9.976  0.2407 -0.3548  1.4526
  345MOL0     C46455   3.933   7.707  10.029  0.6481 -1.9578  0.4131
  345MOL0     C46456   4.043   7.642  10.096  0.2734  0.9157  0.0956
  345MOL0     N46457   3.999   7.517  10.156 -0.2568  0.4569 -0.1522
  345MOL0     C46458   4.044   7.390  10.126  0.8936  0.4973 -0.8368
  345MOL0     C46459   3.971   7.304  10.193  0.3004 -0.1614  0.5317
  345MOL0     C46460   4.007   7.155  10.177  0.5822 -0.1584  0.3176
  345MOL0     C46461   4.004   7.099  10.032 -0.9585  0.1874 -0.0441
  345MOL0     C46462   4.103   6.981  10.005  0.4693  0.5661  0.4398
  345MOL0     C46463   4.108   6.886  10.134 -0.1419 -0.3112  0.1624
  345MOL0     O46464   4.171   6.761  10.110 -0.4630  0.0330 -0.4738
  345MOL0     C46465   4.111   6.669  10.028 -0.7694 -0.1806  0.2786
  345MOL0     C46466   3.979   6.673   9.999  0.7823  0.5630  0.9933
  345MOL0     C46467   3.932   6.587   9.907  1.1421 -0.8814 -0.7179
  345MOL0     C46468   3.785   6.610   9.892  0.5416  0.0081  0.2242
  345MOL0     C46469   4.013   6.496   9.834 -0.2076 -0.1065 -0.8423
  345MOL0     C46470   3.967   6.386   9.750  0.7951  0.5445 -0.3006
  345MOL0     O46471   4.055   6.340   9.663  0.6215  0.5587 -0.5678
  345MOL0     C46472   4.022   6.222   9.604 -0.6985 -0.4796  0.7083
  345MOL0     C46473   3.914   6.202   9.512  0.4552 -0.1741 -0.2395
  345MOL0     C46474   3.905   6.073   9.444  0.0770 -0.1395  0.0087
  345MOL0     C46475   3.997   5.970   9.465  0.1488  0.3743  0.6954
  345MOL0     O46476   3.990   5.851   9.393  0.1156 -0.6123 -0.8964
  345MOL0     C46477   4.112   5.782   9.382  0.2362  1.5298  0.2630
  345MOL0     C46478   4.093   5.643   9.333 -0.2006 -0.2450  0.7267
  345MOL0     C46479   4.021   5.558   9.443  0.2394  0.5753 -0.8927
  345MOL0     C46480   3.974   5.427   9.379 -0.9995 -0.9092  0.8043
  345MOL0     C46481   3.956   5.311   9.477  0.0311  0.3235  0.0127
  345MOL0     C46482   4.062   5.268   9.571  0.1091  0.5296 -0.9723
  345MOL0     C46483   4.038   5.137   9.640  0.4588  0.4760 -0.7541
  345MOL0     C46484   4.048   5.019   9.543 -0.5913 -1.1233  0.6737
  345MOL0    Cl46485   4.059   4.866   9.627 -0.1014  0.4178 -0.2819
  345MOL0     C46486   4.098   6.001   9.557 -0.1935  1.1690  0.1502
  345MOL0     C46487   4.114   6.123   9.618 -0.7936  0.5420 -0.1438
  345MOL0     O46488   3.855   6.343   9.770 -0.3768 -0.2252  0.0735
  345MOL0     C46489   4.154   6.497   9.857  0.3020 -0.2361 -0.1981
  345MOL0     C46490   4.201   6.583   9.953 -0.0677  0.5698 -0.0680
  345MOL0     N46491   3.907   7.378  10.281  0.6713  0.3014 -0.2079
  345MOL0     N46492   3.914   7.503  10.254 -0.2618 -0.9082 -0.2543
  345MOL0     C46493   3.570   8.665   9.868  0.2801  0.0290 -0.7092
  345MOL0     C46494   3.538   8.790   9.806 -0.0997 -0.5972  0.1195
  345MOL0     C46495   3.451   9.143   9.574  0.6830  0.3331 -0.1514
  345MOL0     C46496   3.480   9.266   9.625  0.3552 -0.4705 -0.5013
  345MOL0     C46497   3.421   9.387   9.582 -0.4087  0.1225  0.8896
  345MOL0     C46498   3.332   9.378   9.479 -0.0723  0.2991  0.5771
  345MOL0     O46499   3.296   9.497   9.423 -0.4125 -0.4983 -0.4754
  345MOL0     C46500   3.243   9.488   9.290 -0.4918  0.3605  0.6812
  345MOL0     C46501   3.283   9.625   9.219 -0.3015 -0.4673  0.7344
  345MOL0     C46502   3.232   9.755   9.289 -0.1094 -0.3554  0.0083
  345MOL0     C46503   3.216   9.877   9.194 -0.0876  0.1605  0.1643
  345MOL0     C46504   3.167   9.996   9.269 -0.1457  0.5966 -0.4776
  345MOL0     C46505   3.113  10.086   9.330 -0.6949 -0.2284 -1.0708
  345MOL0     C46506   3.289   9.255   9.428 -0.4938  0.5939  0.9430
  345MOL0     C46507   3.346   9.141   9.475  0.4062 -0.5232 -0.4430
  345MOL0     H46508   3.468   8.686   9.493 -1.9635 -1.3549  0.0994
  345MOL0     H46509   3.541   8.463   9.582 -1.1186 -0.0543 -0.8402
  345MOL0     H46510   3.776   8.532   9.938 -2.9303  1.2081  1.3112
  345MOL0     H46511   3.680   8.414  10.025 -3.4649  0.4869 -2.0039
  345MOL0     H46512   3.860   8.332   9.790  0.8436 -2.2356 -0.1885
  345MOL0     H46513   3.936   8.360   9.942  1.3918 -3.8117  0.9820
  345MOL0     H46514   3.744   8.197  10.041  2.6902 -1.2469  0.5746
  345MOL0     H46515   3.731   8.129   9.875  0.8300  0.3994 -0.7066
  345MOL0     H46516   3.980   8.102   9.860  3.0392 -1.8836  1.8033
  345MOL0     H46517   3.977   8.136  10.029  2.6584 -1.6644 -2.0996
  345MOL0     H46518   3.830   7.954  10.084  1.0558 -0.8044  1.1477
  345MOL0     H46519   3.795   7.920   9.914  1.2489  0.6763 -0.8779
  345MOL0     H46520   4.016   7.841   9.873 -1.2773  0.9708  0.7550
  345MOL0     H46521   4.067   7.896  10.029  2.6140  1.9431 -3.5421
  345MOL0     H46522   3.854   7.725  10.103  0.8077  1.9120 -0.1524
  345MOL0     H46523   3.892   7.640   9.954 -0.5789 -2.9265  1.8867
  345MOL0     H46524   4.087   7.713  10.168 -1.5895  2.0059  0.2211
  345MOL0     H46525   4.113   7.614  10.016 -0.7912 -0.8701 -0.2537
  345MOL0     H46526   4.117   7.360  10.052  1.1999 -2.0845  0.3989
  345MOL0     H46527   4.109   7.147  10.214  1.6788  0.9854 -2.2406
  345MOL0     H46528   3.949   7.091  10.244 -1.1410 -0.0860 -1.0026
  345MOL0     H46529   4.028   7.181   9.963  0.8071 -1.6474 -1.7404
  345MOL0     H46530   3.908   7.056  10.003 -0.0969 -3.2510  1.7810
  345MOL0     H46531   4.208   7.010   9.995  0.7019  1.1706  3.4555
  345MOL0     H46532   4.081   6.928   9.912  0.6735  1.3011 -0.0372
  345MOL0     H46533   4.006   6.871  10.172 -0.2887  0.6369  0.1654
  345MOL0     H46534   4.170   6.942  10.204 -1.0152 -0.3310  0.9656
  345MOL0     H46535   3.911   6.738  10.052 -0.1898 -2.0828  3.2433
  345MOL0     H46536   3.734   6.518   9.860  3.0046 -1.2713 -0.2411
  345MOL0     H46537   3.743   6.640   9.988 -2.3886  0.2834 -1.0055
  345MOL0     H46538   3.772   6.684   9.812 -1.6880  1.3230  1.6941
  345MOL0     H46539   3.836   6.277   9.512  1.6895  1.1910  1.3931
  345MOL0     H46540   3.823   6.042   9.380  1.4234 -3.1474 -0.3874
  345MOL0     H46541   4.172   5.842   9.314  1.0728  3.1916  2.3623
  345MOL0     H46542   4.158   5.761   9.480 -1.8812  1.0922  1.2175
  345MOL0     H46543   4.027   5.649   9.245 -1.1835 -3.4623  1.1303
  345MOL0     H46544   4.182   5.590   9.298  0.0621  1.5145 -1.5689
  345MOL0     H46545   3.939   5.608   9.495  1.7304  0.4547  1.7812
  345MOL0     H46546   4.095   5.535   9.520  0.3291  1.0436 -0.8408
  345MOL0     H46547   3.881   5.446   9.325 -0.6520  2.8413  1.2682
  345MOL0     H46548   4.041   5.397   9.298 -2.2897 -0.1869 -0.5796
  345MOL0     H46549   3.921   5.222   9.422 -0.8156  0.6753 -0.0364
  345MOL0     H46550   3.874   5.336   9.545 -0.7898  0.5020 -1.0193
  345MOL0     H46551   4.159   5.269   9.520  0.7070  0.2920  0.1376
  345MOL0     H46552   4.060   5.342   9.651 -0.5497 -0.7417  0.2334
  345MOL0     H46553   3.951   5.132   9.705  0.5494 -1.5740 -0.7423
  345MOL0     H46554   4.127   5.128   9.704 -0.6342 -0.2654  0.6938
  345MOL0     H46555   4.135   5.036   9.480 -1.5199  2.9274  0.1946
  345MOL0     H46556   3.965   5.031   9.473  0.3284  0.7842 -0.1557
  345MOL0     H46557   4.163   5.923   9.595  0.9162  1.6526 -0.6941
  345MOL0     H46558   4.208   6.135   9.672 -1.0315  5.2445 -0.4186
  345MOL0     H46559   4.225   6.436   9.804 -0.5724  0.9766 -2.9514
  345MOL0     H46560   4.308   6.593   9.970 -0.2419 -1.2510  2.9361
  345MOL0     H46561   3.590   8.666   9.974 -2.3418 -0.5134 -0.1221
  345MOL0     H46562   3.537   8.879   9.868  2.0997  0.3864 -1.1249
  345MOL0     H46563   3.562   9.274   9.697 -0.4641 -1.1329  0.5346
  345MOL0     H46564   3.464   9.485   9.602  0.4907 -0.6227  2.8712
  345MOL0     H46565   3.297   9.409   9.236  1.1164  0.4288  2.1319
  345MOL0     H46566   3.135   9.473   9.282 -0.3529  0.2245 -1.4686
  345MOL0     H46567   3.263   9.627   9.112  1.2392  0.2191  0.4203
  345MOL0     H46568   3.392   9.628   9.230 -0.1297 -1.5104 -0.4857
  345MOL0     H46569   3.313   9.783   9.357 -1.4131  0.5873  1.2425
  345MOL0     H46570   3.143   9.733   9.350  1.2323 -0.6602  1.9500
  345MOL0     H46571   3.152   9.859   9.108  1.4334  1.1338 -1.2367
  345MOL0     H46572   3.310   9.905   9.145  0.4587 -0.3657  0.8826
  345MOL0     H46573   3.053  10.137   9.403  1.3542  2.0223 -0.8616
  345MOL0     H46574   3.217   9.242   9.348 -0.3980 -2.7494  1.2358
  345MOL0     H46575   3.313   9.054   9.418  1.5190 -0.3318 -1.4240
  346MOL0     O46576   7.213   8.096   7.848 -0.4295  0.1637 -0.2885
  346MOL0     C46577   7.162   7.982   7.816 -0.0479  0.1211  0.0264
  346MOL0     O46578   7.041   7.969   7.769  0.0522 -0.8082  0.1737
  346MOL0     C46579   6.961   8.081   7.746 -0.4538  0.0850  0.2199
  346MOL0     C46580   6.909   8.136   7.862  0.4542 -0.1359 -0.5091
  346MOL0     C46581   6.833   8.250   7.846  0.7456 -0.5860  0.0129
  346MOL0     C46582   6.802   8.308   7.724  1.0462 -0.1480  0.3212
  346MOL0     O46583   6.723   8.423   7.727 -0.0799 -0.7257  0.1196
  346MOL0     C46584   6.727   8.502   7.605  1.3344  0.0994 -0.6732
  346MOL0     C46585   6.669   8.653   7.620 -0.1809  0.5241 -0.0549
  346MOL0     C46586   6.726   8.728   7.735  0.2769 -0.3850  0.3091
  346MOL0     C46587   6.687   8.880   7.746  0.6916 -0.0328 -0.3191
  346MOL0     C46588   6.541   8.905   7.734  0.7893 -0.9577  0.2955
  346MOL0     C46589   6.531   9.054   7.738  0.5651  0.1307 -0.1564
  346MOL0     C46590   6.383   9.101   7.768 -0.2858 -0.5438 -0.2504
  346MOL0     C46591   6.371   9.247   7.740 -0.2089 -0.5280 -0.9220
  346MOL0     N46592   6.419   9.330   7.849  0.6439 -0.7338 -0.6510
  346MOL0     C46593   6.368   9.340   7.980 -0.3065  0.1641  0.0380
  346MOL0     C46594   6.459   9.409   8.051  0.6577 -0.9789 -0.0662
  346MOL0     C46595   6.436   9.468   8.181  0.6224 -0.5479 -0.8319
  346MOL0     C46596   6.500   9.383   8.299 -0.6316 -0.0333  0.6793
  346MOL0     C46597   6.484   9.442   8.438 -0.3193  0.8103  0.2426
  346MOL0     C46598   6.587   9.540   8.493 -0.8140 -0.2496 -0.4880
  346MOL0     O46599   6.546   9.598   8.621 -1.0540  0.8151 -0.6641
  346MOL0     C46600   6.565   9.506   8.730  0.0531 -0.5612  0.7137
  346MOL0     C46601   6.468   9.504   8.827  0.4565 -0.7210  0.4031
  346MOL0     C46602   6.485   9.443   8.947  0.3999 -0.4479  0.3176
  346MOL0     C46603   6.362   9.442   9.039  0.1430 -0.2232  0.5177
  346MOL0     C46604   6.613   9.392   8.977  0.4739  0.1918 -1.3849
  346MOL0     C46605   6.662   9.343   9.106 -0.0712  0.0033 -0.6012
  346MOL0     O46606   6.612   9.400   9.222  0.5644 -0.5880  0.1422
  346MOL0     C46607   6.685   9.430   9.336 -0.4673 -0.9300  0.1526
  346MOL0     C46608   6.707   9.335   9.431  1.1399  0.4526 -0.8112
  346MOL0     C46609   6.765   9.360   9.557  0.4915 -0.3272 -0.2876
  346MOL0     C46610   6.807   9.488   9.592  1.1099  0.0035  0.5115
  346MOL0     O46611   6.849   9.526   9.709  0.3548 -0.2849  0.4747
  346MOL0     C46612   6.973   9.606   9.725  0.2520  0.0492  0.5216
  346MOL0     C46613   7.059   9.551   9.841 -0.0060 -0.1620  0.3236
  346MOL0     C46614   7.115   9.403   9.813 -0.1426  0.4652 -0.5148
  346MOL0     C46615   7.188   9.357   9.934 -0.0980 -0.5669 -0.0522
  346MOL0     C46616   7.310   9.458   9.983 -0.0680  0.1424  0.2268
  346MOL0     C46617   7.391   9.379  10.090 -1.0426  0.1035  0.9266
  346MOL0     C46618   7.527   9.433  10.123 -0.5175 -0.2646 -0.0527
  346MOL0     C46619   7.636   9.436  10.012  0.5001 -0.8202  0.0340
  346MOL0    Cl46620   7.677   9.274   9.963 -0.2289  0.2925 -0.1712
  346MOL0     C46621   6.802   9.585   9.489 -0.3170 -0.3160 -0.0250
  346MOL0     C46622   6.736   9.559   9.365  0.8602  0.3098 -0.4117
  346MOL0     O46623   6.751   9.260   9.105  0.0121  0.5462  0.1300
  346MOL0     C46624   6.714   9.391   8.881  0.3983 -0.0367  1.1646
  346MOL0     C46625   6.687   9.444   8.754 -0.8968 -0.1628  0.3633
  346MOL0     N46626   6.557   9.440   7.965 -0.5004 -0.7809 -0.3805
  346MOL0     N46627   6.532   9.404   7.843  0.4581 -0.8855 -0.2869
  346MOL0     C46628   6.864   8.255   7.614 -0.1245 -0.3113  0.0508
  346MOL0     C46629   6.940   8.138   7.620  0.5301  0.3130 -0.6080
  346MOL0     C46630   7.254   7.865   7.833 -0.4125 -0.2732 -0.5478
  346MOL0     C46631   7.350   7.866   7.943  0.7777 -1.3790 -0.5650
  346MOL0     C46632   7.436   7.759   7.957  0.3491 -0.0975 -0.4676
  346MOL0     C46633   7.439   7.651   7.875  0.2476 -0.0615 -0.4841
  346MOL0     O46634   7.535   7.553   7.901  0.3225 -0.0920 -0.3919
  346MOL0     C46635   7.588   7.474   7.788 -0.4623 -0.0913 -0.8324
  346MOL0     C46636   7.696   7.549   7.704  0.0976  0.8486  0.2198
  346MOL0     C46637   7.796   7.624   7.785 -0.1662 -0.1118 -1.0157
  346MOL0     C46638   7.934   7.565   7.821  1.0871  0.3173  0.0585
  346MOL0     C46639   7.919   7.480   7.935 -1.1214  0.0266  0.6527
  346MOL0     C46640   7.938   7.410   8.036  0.2156 -0.2112  0.6513
  346MOL0     C46641   7.343   7.642   7.777 -0.3695  0.7155 -0.3851
  346MOL0     C46642   7.247   7.746   7.764 -0.5729  0.4058  0.6249
  346MOL0     H46643   6.926   8.098   7.962 -0.1315 -0.2656 -0.4586
  346MOL0     H46644   6.808   8.297   7.941  2.0638 -4.4357  2.4760
  346MOL0     H46645   6.834   8.514   7.585  1.3179  0.8982 -0.3222
  346MOL0     H46646   6.687   8.446   7.520  0.5867  0.6789 -0.7124
  346MOL0     H46647   6.686   8.703   7.524 -1.1993  0.0616 -0.5029
  346MOL0     H46648   6.561   8.664   7.633  0.2874  6.7396  1.7042
  346MOL0     H46649   6.700   8.679   7.829 -0.5761 -1.3807 -0.4305
  346MOL0     H46650   6.835   8.724   7.740  0.4861  3.1798  3.4279
  346MOL0     H46651   6.733   8.901   7.844  3.3159  2.7126 -1.9613
  346MOL0     H46652   6.750   8.933   7.675  3.3939  1.6525  3.0428
  346MOL0     H46653   6.495   8.867   7.642 -1.8401  1.8814  0.3075
  346MOL0     H46654   6.489   8.862   7.820 -0.7793  3.2349  1.6942
  346MOL0     H46655   6.588   9.095   7.822 -0.0408 -0.2958  0.4706
  346MOL0     H46656   6.561   9.094   7.641  1.5571  1.9169  0.8414
  346MOL0     H46657   6.321   9.046   7.696  1.8408 -0.5967 -2.1663
  346MOL0     H46658   6.352   9.086   7.872 -1.7028  1.8430 -0.2547
  346MOL0     H46659   6.272   9.287   7.716  1.1391  3.3912 -0.7898
  346MOL0     H46660   6.426   9.269   7.648 -2.9625 -0.6192 -2.6901
  346MOL0     H46661   6.273   9.306   8.020 -0.1563  1.3500  1.5018
  346MOL0     H46662   6.487   9.564   8.166 -0.3529 -0.1376 -1.6464
  346MOL0     H46663   6.330   9.484   8.205  1.3057  2.2452  0.8529
  346MOL0     H46664   6.607   9.368   8.280 -0.2889  0.6465  1.9383
  346MOL0     H46665   6.448   9.288   8.297 -0.4873 -0.1238  1.1333
  346MOL0     H46666   6.484   9.354   8.503  0.5074 -0.5655 -1.5359
  346MOL0     H46667   6.386   9.490   8.426  0.0541  1.2532 -1.3021
  346MOL0     H46668   6.600   9.618   8.418  0.1907  0.0126 -0.0510
  346MOL0     H46669   6.675   9.477   8.503 -0.2775  0.9158  3.6875
  346MOL0     H46670   6.371   9.542   8.794  0.5650 -1.9834 -1.5050
  346MOL0     H46671   6.377   9.366   9.116 -2.1908 -3.0083 -1.5832
  346MOL0     H46672   6.349   9.543   9.078  1.0398  0.1619 -0.1230
  346MOL0     H46673   6.272   9.412   8.985  0.2884  1.1825 -0.5666
  346MOL0     H46674   6.665   9.237   9.414 -2.7435  1.3286  2.2092
  346MOL0     H46675   6.757   9.277   9.627 -2.3228  1.7214  2.0740
  346MOL0     H46676   7.039   9.586   9.640 -0.1672 -1.3365  0.4984
  346MOL0     H46677   6.952   9.712   9.735  3.7753  0.7344  2.2504
  346MOL0     H46678   7.138   9.624   9.856  2.4199 -2.6703  0.5116
  346MOL0     H46679   6.991   9.549   9.928  2.7289 -1.5065  2.5935
  346MOL0     H46680   7.180   9.408   9.725 -0.3591  1.3253 -0.6392
  346MOL0     H46681   7.027   9.341   9.796 -1.1539  1.5956  0.3794
  346MOL0     H46682   7.119   9.346  10.018 -2.3236  1.7530 -1.4057
  346MOL0     H46683   7.234   9.260   9.913  2.1089 -0.7371  4.4150
  346MOL0     H46684   7.267   9.546  10.033 -1.3384 -0.6710  0.6232
  346MOL0     H46685   7.368   9.509   9.906  1.0361  2.3194  2.3753
  346MOL0     H46686   7.326   9.370  10.178 -1.7171 -1.0468  0.3258
  346MOL0     H46687   7.404   9.278  10.051 -3.8740 -0.4673  1.2819
  346MOL0     H46688   7.567   9.368  10.202 -1.3150  0.3160  0.8537
  346MOL0     H46689   7.525   9.537  10.157 -0.6782 -0.7663  1.5540
  346MOL0     H46690   7.728   9.489  10.038  0.1716  0.6063 -1.5154
  346MOL0     H46691   7.604   9.500   9.930 -0.4058  0.8465  1.6053
  346MOL0     H46692   6.831   9.687   9.511 -2.9106  0.0668  2.2800
  346MOL0     H46693   6.702   9.630   9.290 -1.1777 -1.6147 -1.4180
  346MOL0     H46694   6.815   9.355   8.892  0.0410 -2.5482 -2.1835
  346MOL0     H46695   6.770   9.454   8.685 -0.4547  2.1613  1.1470
  346MOL0     H46696   6.863   8.303   7.517 -1.0969 -0.0141  0.2035
  346MOL0     H46697   6.999   8.094   7.540  1.6935 -0.2941  0.5361
  346MOL0     H46698   7.368   7.954   8.004 -3.9574 -0.0231 -0.7236
  346MOL0     H46699   7.509   7.765   8.037  1.1104 -2.6768 -0.9080
  346MOL0     H46700   7.638   7.391   7.839  2.3695  2.4460  0.8247
  346MOL0     H46701   7.507   7.438   7.724 -0.4817  0.7900 -1.3247
  346MOL0     H46702   7.661   7.592   7.610 -0.2456  0.6125  0.2366
  346MOL0     H46703   7.754   7.462   7.672  0.1384  0.6099  0.9118
  346MOL0     H46704   7.751   7.665   7.876 -0.0923 -3.4867  0.6938
  346MOL0     H46705   7.821   7.705   7.716 -0.4418 -0.3778 -1.4336
  346MOL0     H46706   8.002   7.643   7.857  1.0739 -0.4082  1.7544
  346MOL0     H46707   7.965   7.512   7.731 -0.1957  1.0950 -0.8709
  346MOL0     H46708   7.955   7.345   8.119 -0.2894 -1.5455 -0.2586
  346MOL0     H46709   7.344   7.558   7.709  4.2141  1.6596 -1.8416
  346MOL0     H46710   7.167   7.739   7.691  0.6550 -1.9791 -0.6093
  347MOL0     O46711   5.127   1.488   9.406  0.2214 -0.9297  0.7030
  347MOL0     C46712   5.009   1.516   9.401 -0.5900 -0.9836 -0.6191
  347MOL0     O46713   4.938   1.547   9.512 -0.0916  0.1956 -0.6178
  347MOL0     C46714   4.992   1.508   9.626 -0.5575  0.4421 -0.2066
  347MOL0     C46715   4.964   1.376   9.660  0.5505 -0.2559  0.4451
  347MOL0     C46716   5.018   1.320   9.771 -0.8676 -0.2506 -0.9645
  347MOL0     C46717   5.107   1.387   9.858  1.4135  0.4228  0.2291
  347MOL0     O46718   5.164   1.320   9.963  0.5293  0.7602  0.0556
  347MOL0     C46719   5.083   1.257  10.063  0.9085  1.0617  0.7447
  347MOL0     C46720   5.171   1.186  10.160  0.6313  0.3245 -0.1417
  347MOL0     C46721   5.253   1.076  10.113  0.6208  0.0487  0.0414
  347MOL0     C46722   5.399   1.123  10.066 -0.1124  1.1746 -0.5012
  347MOL0     C46723   5.487   1.168  10.186 -0.2673 -0.2854  0.1192
  347MOL0     C46724   5.635   1.163  10.138  0.4302 -0.0104 -0.6596
  347MOL0     C46725   5.739   1.251  10.199 -0.7296  0.1186  0.7812
  347MOL0     C46726   5.877   1.179  10.199  0.0556 -0.3900 -0.0758
  347MOL0     N46727   5.962   1.262  10.281 -0.6102 -0.1158  0.6669
  347MOL0     C46728   6.005   1.383  10.250 -1.0548  0.4639  0.7369
  347MOL0     C46729   6.073   1.419  10.353 -0.0504  0.7704 -0.7696
  347MOL0     C46730   6.129   1.563  10.374  0.1701 -0.0801 -0.3143
  347MOL0     C46731   6.285   1.555  10.389 -0.3471  0.4875  0.6057
  347MOL0     C46732   6.332   1.691  10.393 -0.2182  0.2884  0.0995
  347MOL0     C46733   6.304   1.757  10.523 -0.6057 -0.6503  0.8477
  347MOL0     O46734   6.332   1.896  10.509  0.0235 -0.6033 -0.0312
  347MOL0     C46735   6.407   1.954  10.610  0.5728 -0.7587 -0.4017
  347MOL0     C46736   6.364   1.956  10.745  0.8230 -0.2333 -0.6211
  347MOL0     C46737   6.453   2.004  10.842 -0.7845 -0.9996  0.1307
  347MOL0     C46738   6.433   1.979  10.987 -1.8721 -0.1663 -0.1306
  347MOL0     C46739   6.574   2.065  10.811 -0.9550 -0.0724  0.4864
  347MOL0     C46740   6.675   2.118  10.904 -0.9662 -0.1880 -0.8132
  347MOL0     O46741   6.727   2.034  10.997  0.4413 -0.3419 -0.1844
  347MOL0     C46742   6.757   2.079  11.125 -0.3075 -1.0814  0.6565
  347MOL0     C46743   6.874   2.028  11.181  0.0065 -1.0527  0.5149
  347MOL0     C46744   6.917   2.074  11.307 -0.3928 -0.1586  0.8084
  347MOL0     C46745   6.855   2.173  11.370 -0.8958 -0.2898 -0.0376
  347MOL0     O46746   6.906   2.199  11.494 -0.2929 -0.4457  1.0883
  347MOL0     C46747   6.882   2.327  11.550 -0.1648 -0.8401  1.2923
  347MOL0     C46748   6.923   2.319  11.693  0.4640 -0.2802  0.1125
  347MOL0     C46749   7.077   2.320  11.705  0.7022  0.0761  0.4962
  347MOL0     C46750   7.120   2.448  11.772 -0.1303 -0.3998 -0.8756
  347MOL0     C46751   7.271   2.464  11.806  1.0552  0.4186 -0.5870
  347MOL0     C46752   7.346   2.465  11.684 -0.4370 -0.3644  0.0527
  347MOL0     C46753   7.479   2.549  11.697 -0.0022 -0.4807 -0.0625
  347MOL0     C46754   7.599   2.455  11.723 -0.3448  1.0995  0.4948
  347MOL0    Cl46755   7.742   2.552  11.734 -0.0621  0.0644 -0.2146
  347MOL0     C46756   6.749   2.236  11.314  0.8047 -0.8231  0.0339
  347MOL0     C46757   6.700   2.184  11.194  1.1965 -0.5832 -0.2459
  347MOL0     O46758   6.708   2.234  10.898  0.2067  0.0204 -0.4282
  347MOL0     C46759   6.596   2.086  10.670 -0.0602 -0.0501 -1.0207
  347MOL0     C46760   6.517   2.035  10.573  0.6312  0.6512  0.3451
  347MOL0     N46761   6.081   1.317  10.447 -0.7009  0.3917  0.8648
  347MOL0     N46762   6.005   1.230  10.403  0.8917  0.2319 -0.0602
  347MOL0     C46763   5.135   1.520   9.825  0.1515 -0.2508 -1.1350
  347MOL0     C46764   5.078   1.583   9.712  0.0484 -0.9876 -0.3457
  347MOL0     C46765   4.950   1.518   9.274 -0.2334 -1.1179 -0.5257
  347MOL0     C46766   4.818   1.491   9.257  0.0000  0.4272  0.7046
  347MOL0     C46767   4.766   1.500   9.125  0.1943  0.4523 -0.5800
  347MOL0     C46768   4.852   1.535   9.010  0.5531  0.6377 -0.7785
  347MOL0     O46769   4.786   1.588   8.900  0.1511 -0.1426 -0.0587
  347MOL0     C46770   4.863   1.626   8.788  1.2925  1.1202  0.2016
  347MOL0     C46771   4.771   1.648   8.672 -0.3539 -0.3271  0.2574
  347MOL0     C46772   4.700   1.520   8.630  0.0175 -0.0571 -0.1267
  347MOL0     C46773   4.620   1.538   8.503 -0.4163  0.9676 -0.2841
  347MOL0     C46774   4.558   1.406   8.470 -0.6691 -0.2819  0.1437
  347MOL0     C46775   4.534   1.285   8.459 -0.3790  0.5724 -0.1319
  347MOL0     C46776   4.991   1.542   9.034  0.3128  0.0670 -0.7847
  347MOL0     C46777   5.035   1.543   9.164  0.1427  0.5866 -0.0708
  347MOL0     H46778   4.903   1.323   9.588 -0.1716  1.0623  0.0398
  347MOL0     H46779   5.001   1.213   9.781  0.9568 -1.1269 -5.0889
  347MOL0     H46780   5.021   1.330  10.116 -1.0928  0.7780 -1.0726
  347MOL0     H46781   5.026   1.192   9.996  0.2838  3.3703 -1.0952
  347MOL0     H46782   5.227   1.269  10.205 -0.7402  1.4909 -0.5113
  347MOL0     H46783   5.104   1.146  10.237 -0.1940 -0.4641 -1.2538
  347MOL0     H46784   5.259   1.002  10.194  2.4520 -0.6213 -0.6465
  347MOL0     H46785   5.184   1.021  10.048  0.3407  0.5398 -0.0788
  347MOL0     H46786   5.452   1.038  10.023  2.8355  1.5096  2.0356
  347MOL0     H46787   5.394   1.196   9.985 -2.0223  1.1844 -0.4126
  347MOL0     H46788   5.470   1.274  10.209 -0.9312  0.4162 -3.1589
  347MOL0     H46789   5.474   1.110  10.278  1.9894  0.5445  1.0338
  347MOL0     H46790   5.668   1.061  10.159 -1.1838 -0.0690  2.1171
  347MOL0     H46791   5.636   1.191  10.032 -0.7219 -0.2535 -0.7395
  347MOL0     H46792   5.746   1.348  10.149 -0.0600  0.0345  0.7027
  347MOL0     H46793   5.715   1.271  10.304 -0.9277  0.1807  0.7239
  347MOL0     H46794   5.913   1.158  10.097 -0.7002  0.8625 -0.6315
  347MOL0     H46795   5.868   1.080  10.245 -5.3176  0.1769  0.7910
  347MOL0     H46796   5.985   1.426  10.153 -0.1434  0.3620  0.4950
  347MOL0     H46797   6.089   1.630  10.298  1.5043 -1.4181 -2.3192
  347MOL0     H46798   6.095   1.593  10.474  0.6478 -1.5222  0.3085
  347MOL0     H46799   6.331   1.495  10.310  0.3823  2.9525 -0.9505
  347MOL0     H46800   6.319   1.506  10.480  2.3989 -0.2329 -0.7241
  347MOL0     H46801   6.293   1.756  10.314  2.0592  1.3698 -0.2087
  347MOL0     H46802   6.440   1.687  10.377 -0.5797 -2.0930 -2.4091
  347MOL0     H46803   6.365   1.708  10.599  0.3225  1.8495  1.8160
  347MOL0     H46804   6.202   1.749  10.561 -1.1077  0.3995 -0.2380
  347MOL0     H46805   6.279   1.898  10.781  0.8104  0.9143  1.3442
  347MOL0     H46806   6.333   1.937  11.002 -1.9477 -1.0009 -2.6007
  347MOL0     H46807   6.512   1.921  11.036 -1.5381  0.6919  0.3699
  347MOL0     H46808   6.435   2.071  11.045  0.6538 -0.0575 -0.2828
  347MOL0     H46809   6.941   1.954  11.138 -0.7908 -2.2188  1.2419
  347MOL0     H46810   7.003   2.021  11.347  2.2939  3.3673  0.1845
  347MOL0     H46811   6.937   2.403  11.493  0.4843 -1.8082  0.6028
  347MOL0     H46812   6.781   2.368  11.555 -0.0192 -0.2354 -0.1929
  347MOL0     H46813   6.869   2.396  11.747  2.3493  1.7207 -0.7208
  347MOL0     H46814   6.872   2.228  11.726 -1.4014  1.1045  1.2328
  347MOL0     H46815   7.124   2.309  11.607 -3.0177  0.4851 -1.5564
  347MOL0     H46816   7.115   2.245  11.774  0.4194  1.4036  2.1523
  347MOL0     H46817   7.088   2.537  11.718  1.4201  0.6722 -0.1004
  347MOL0     H46818   7.074   2.458  11.871 -0.8276  2.9121 -1.4058
  347MOL0     H46819   7.290   2.387  11.882 -0.5448 -0.0767 -0.6512
  347MOL0     H46820   7.281   2.560  11.857 -3.6221  2.5797 -3.1091
  347MOL0     H46821   7.364   2.361  11.655 -1.9106 -1.7224  3.4554
  347MOL0     H46822   7.285   2.517  11.610  0.7594 -0.0711 -0.7664
  347MOL0     H46823   7.475   2.625  11.776  1.1752 -2.7016  2.2825
  347MOL0     H46824   7.502   2.594  11.601  0.7563  0.5200  0.5657
  347MOL0     H46825   7.613   2.375  11.650  0.4737 -0.7008  2.4919
  347MOL0     H46826   7.581   2.416  11.824 -0.0229 -2.5382 -0.7118
  347MOL0     H46827   6.693   2.320  11.353  2.2555  2.4244 -4.1282
  347MOL0     H46828   6.608   2.219  11.149  0.5994 -0.7109  0.8423
  347MOL0     H46829   6.687   2.125  10.625  1.2103 -1.0393  0.5804
  347MOL0     H46830   6.538   2.052  10.468 -0.0548  1.4688  0.3340
  347MOL0     H46831   5.205   1.573   9.888  1.3790 -2.9127 -0.1058
  347MOL0     H46832   5.115   1.682   9.688  0.6386 -1.0249  0.3847
  347MOL0     H46833   4.761   1.451   9.340  1.0632 -1.5224  0.5570
  347MOL0     H46834   4.657   1.494   9.118  0.1149 -1.3829  1.2651
  347MOL0     H46835   4.922   1.712   8.820 -0.7287  1.9228  2.0387
  347MOL0     H46836   4.927   1.545   8.751 -0.5377 -0.9143  1.2011
  347MOL0     H46837   4.818   1.711   8.597 -1.3914 -0.4569 -0.5269
  347MOL0     H46838   4.690   1.716   8.701 -0.6234  0.0131 -1.2438
  347MOL0     H46839   4.615   1.501   8.696 -1.1584 -0.0117 -1.5954
  347MOL0     H46840   4.771   1.437   8.625 -1.6188 -1.5370  0.3863
  347MOL0     H46841   4.679   1.568   8.416  0.7142 -1.0157 -0.2594
  347MOL0     H46842   4.543   1.614   8.519 -0.1613  2.1589 -3.8417
  347MOL0     H46843   4.511   1.180   8.449 -1.6772  0.8668 -0.4073
  347MOL0     H46844   5.060   1.547   8.951  0.9255 -0.4770 -0.3111
  347MOL0     H46845   5.143   1.548   9.175  0.2949  0.9516 -1.4886
  348MOL0     O46846   1.718   9.941   6.288 -0.9529 -0.2433 -0.0200
  348MOL0     C46847   1.642   9.852   6.236 -0.5830 -1.1233 -0.0506
  348MOL0     O46848   1.609   9.838   6.109 -0.5447  0.7479  0.1001
  348MOL0     C46849   1.677   9.909   6.015 -0.0822  0.4789  0.2467
  348MOL0     C46850   1.813   9.878   5.976  0.1593  0.1541 -0.4603
  348MOL0     C46851   1.887   9.968   5.899 -0.5078  0.1740 -0.8557
  348MOL0     C46852   1.815  10.079   5.841 -0.0991  0.6513 -0.5628
  348MOL0     O46853   1.891  10.159   5.771  0.2326 -0.1675  0.2618
  348MOL0     C46854   1.847  10.212   5.642  0.9316  0.0074  0.1518
  348MOL0     C46855   1.889  10.353   5.617  0.7393 -0.2125 -0.5886
  348MOL0     C46856   1.795  10.438   5.701 -0.1883 -0.6139  0.5557
  348MOL0     C46857   1.860  10.576   5.713  0.0122  0.2819  1.1341
  348MOL0     C46858   1.761  10.690   5.716 -0.5968  0.4760 -0.8902
  348MOL0     C46859   1.652  10.696   5.832 -0.2034  0.5537 -0.1747
  348MOL0     C46860   1.560  10.816   5.834  0.1369  0.5494  0.3608
  348MOL0     C46861   1.485  10.822   5.692  0.1727 -1.0897  0.5823
  348MOL0     N46862   1.387  10.927   5.702  0.2618  0.5800 -0.1992
  348MOL0     C46863   1.255  10.895   5.748 -0.5854 -0.3965 -0.2054
  348MOL0     C46864   1.196  11.016   5.752 -0.0498  0.6347  0.5258
  348MOL0     C46865   1.064  11.061   5.798  0.4638 -0.5353 -0.2071
  348MOL0     C46866   0.972  11.046   5.682  0.8599 -0.2318 -0.3549
  348MOL0     C46867   0.824  11.074   5.712 -0.6605  0.1041  0.3657
  348MOL0     C46868   0.740  11.052   5.589 -0.1401 -0.6114  0.1375
  348MOL0     O46869   0.757  10.923   5.540 -0.4769 -0.6262  0.3750
  348MOL0     C46870   0.692  10.869   5.432  0.1963  0.4548 -0.2250
  348MOL0     C46871   0.581  10.934   5.371  0.0653  0.6440 -0.4493
  348MOL0     C46872   0.536  10.889   5.248 -1.0734 -0.8029 -0.3817
  348MOL0     C46873   0.433  10.972   5.176 -0.7855  0.9871 -0.0188
  348MOL0     C46874   0.590  10.770   5.195  0.1511 -0.2065 -0.0976
  348MOL0     C46875   0.525  10.727   5.062 -0.4013 -0.9679 -0.3638
  348MOL0     O46876   0.598  10.765   4.956  0.0898 -0.0126  1.0396
  348MOL0     C46877   0.568  10.702   4.837  0.5851 -0.7181 -0.6707
  348MOL0     C46878   0.622  10.587   4.801 -0.7764 -0.0511 -0.8389
  348MOL0     C46879   0.591  10.532   4.676 -0.2848 -0.4160 -0.2562
  348MOL0     C46880   0.518  10.601   4.577 -0.0055  0.3938 -1.7297
  348MOL0     O46881   0.490  10.554   4.454  0.0942 -0.3988 -0.5739
  348MOL0     C46882   0.598  10.583   4.361 -0.3991 -0.5665 -0.2115
  348MOL0     C46883   0.576  10.541   4.227  0.4983 -0.7427 -0.4412
  348MOL0     C46884   0.521  10.397   4.208 -0.1910 -1.0494 -0.2023
  348MOL0     C46885   0.571  10.290   4.303  0.0364  0.4668 -0.3814
  348MOL0     C46886   0.507  10.155   4.272  0.4032 -0.0526 -0.0121
  348MOL0     C46887   0.576  10.026   4.316 -0.2218 -0.3888  0.2308
  348MOL0     C46888   0.695   9.981   4.227 -0.4403 -0.7331  0.3152
  348MOL0     C46889   0.745   9.842   4.266 -0.2782  0.2334 -0.6801
  348MOL0    Cl46890   0.760   9.822   4.437  0.0077 -0.1124 -0.2828
  348MOL0     C46891   0.466  10.731   4.611  0.3275 -0.0728 -1.0222
  348MOL0     C46892   0.483  10.772   4.747  1.7894 -0.3652  0.4202
  348MOL0     O46893   0.443  10.636   5.076 -0.2614  0.0674  0.5734
  348MOL0     C46894   0.680  10.697   5.267 -0.2186  0.4034 -1.1766
  348MOL0     C46895   0.735  10.747   5.383 -1.0426 -0.9619 -0.6171
  348MOL0     N46896   1.290  11.116   5.710 -0.1955 -0.5347  0.3891
  348MOL0     N46897   1.404  11.061   5.674  0.1079  0.1090 -0.1004
  348MOL0     C46898   1.677  10.103   5.866  0.3494  0.5374  0.9107
  348MOL0     C46899   1.615  10.020   5.957 -0.1337 -0.6533  0.4566
  348MOL0     C46900   1.548   9.780   6.323 -0.2856 -0.1318 -0.6584
  348MOL0     C46901   1.538   9.837   6.449  0.4958 -0.2064 -0.4845
  348MOL0     C46902   1.435   9.791   6.535  0.9621 -0.1983  0.1242
  348MOL0     C46903   1.341   9.695   6.490  0.8841  1.4990 -0.5633
  348MOL0     O46904   1.229   9.646   6.556 -0.2651 -0.4111 -0.1417
  348MOL0     C46905   1.191   9.692   6.685  0.0752 -0.4587 -0.2717
  348MOL0     C46906   1.253   9.596   6.794 -0.4212  0.1988 -0.2086
  348MOL0     C46907   1.403   9.600   6.821  0.5151 -0.6021  0.5700
  348MOL0     C46908   1.454   9.509   6.936  0.0557  0.7992  0.1999
  348MOL0     C46909   1.419   9.551   7.065  0.3642  0.0857 -1.1726
  348MOL0     C46910   1.375   9.563   7.174  0.4860 -0.2170 -0.9783
  348MOL0     C46911   1.354   9.640   6.363 -0.2915 -0.6645 -0.0738
  348MOL0     C46912   1.458   9.680   6.279 -1.0056  0.0621 -0.2372
  348MOL0     H46913   1.862   9.796   6.027 -0.4596  0.4051  0.5699
  348MOL0     H46914   1.990   9.953   5.868 -0.5652 -2.7499  0.0954
  348MOL0     H46915   1.896  10.155   5.562  1.2154  0.3309  0.0919
  348MOL0     H46916   1.741  10.200   5.615  0.5381  1.1417  1.1205
  348MOL0     H46917   1.990  10.369   5.656  1.0189  0.1386 -1.4312
  348MOL0     H46918   1.880  10.384   5.512 -0.7264  0.8075 -0.1946
  348MOL0     H46919   1.702  10.441   5.643 -0.6802  2.8065  1.3190
  348MOL0     H46920   1.773  10.407   5.803 -0.6435  3.6135  1.9175
  348MOL0     H46921   1.926  10.583   5.800 -0.0757 -3.1285  1.6364
  348MOL0     H46922   1.918  10.588   5.622  0.0850 -2.5415  0.7327
  348MOL0     H46923   1.825  10.778   5.721  2.4982 -1.6068 -1.5256
  348MOL0     H46924   1.712  10.704   5.619  0.6174  0.6906 -1.4859
  348MOL0     H46925   1.605  10.600   5.809  1.7790 -0.5081 -0.0371
  348MOL0     H46926   1.699  10.687   5.931  1.6635 -1.1470 -1.1488
  348MOL0     H46927   1.493  10.806   5.920  1.5248 -2.1536  1.2394
  348MOL0     H46928   1.614  10.911   5.843 -0.7896  0.9955  1.6668
  348MOL0     H46929   1.431  10.731   5.664  3.3885 -2.1845 -2.8182
  348MOL0     H46930   1.548  10.850   5.607 -1.7876  0.0878 -0.5369
  348MOL0     H46931   1.218  10.796   5.772 -1.8174 -0.4622 -2.1769
  348MOL0     H46932   1.041  11.005   5.890  2.1690  0.5934  0.9768
  348MOL0     H46933   1.061  11.170   5.806  0.5262 -0.3381 -2.3390
  348MOL0     H46934   0.980  10.940   5.654 -2.4911  0.1949 -3.8273
  348MOL0     H46935   1.004  11.099   5.591  3.4233  0.4295  0.8571
  348MOL0     H46936   0.833  11.177   5.748  1.2958  1.0954 -2.5798
  348MOL0     H46937   0.789  10.999   5.783 -1.1712 -0.4732 -0.4702
  348MOL0     H46938   0.774  11.119   5.510  2.4608 -1.9927 -0.0350
  348MOL0     H46939   0.637  11.085   5.607  0.0058  0.6098 -1.1195
  348MOL0     H46940   0.570  11.028   5.424 -0.2540 -1.0507  2.7360
  348MOL0     H46941   0.334  10.946   5.213 -1.3594  2.8847 -0.1328
  348MOL0     H46942   0.440  11.080   5.193 -2.5698  1.4674 -1.8907
  348MOL0     H46943   0.440  10.973   5.066 -0.2491  2.2688  0.0116
  348MOL0     H46944   0.670  10.527   4.877 -1.1804  1.5256  0.7164
  348MOL0     H46945   0.625  10.429   4.662  1.0769  0.1115 -0.9736
  348MOL0     H46946   0.605  10.691   4.344 -0.4783 -0.0033  2.7633
  348MOL0     H46947   0.693  10.551   4.404  0.9901  1.1727 -1.8566
  348MOL0     H46948   0.504  10.617   4.195  1.0557  1.0122  2.1529
  348MOL0     H46949   0.666  10.571   4.173  1.3898  0.2214  1.4451
  348MOL0     H46950   0.550  10.364   4.108 -0.7526 -0.8962 -0.4179
  348MOL0     H46951   0.414  10.403   4.230  0.2162  1.5656  1.5676
  348MOL0     H46952   0.679  10.277   4.289  0.0777 -2.3740  1.6870
  348MOL0     H46953   0.559  10.310   4.410 -0.0676  0.6670 -0.4290
  348MOL0     H46954   0.483  10.143   4.166  1.7059  0.4161 -0.3714
  348MOL0     H46955   0.409  10.162   4.321  0.9412  1.7685  0.8938
  348MOL0     H46956   0.617  10.031   4.418 -0.4417 -0.3407  0.3175
  348MOL0     H46957   0.502   9.945   4.319  1.0123 -1.5468  0.2412
  348MOL0     H46958   0.771  10.059   4.220 -0.4934 -0.5487  1.5804
  348MOL0     H46959   0.657   9.969   4.125 -1.0229  1.4850  0.2217
  348MOL0     H46960   0.843   9.849   4.218 -0.5595  2.3262 -1.0127
  348MOL0     H46961   0.685   9.764   4.217  0.5862 -0.6647 -0.3643
  348MOL0     H46962   0.408  10.791   4.541 -0.3546  1.6867  0.9551
  348MOL0     H46963   0.430  10.857   4.788  0.5900 -1.4112  1.1047
  348MOL0     H46964   0.704  10.600   5.225 -2.0241  0.7082 -3.0834
  348MOL0     H46965   0.811  10.699   5.443  1.6941  2.0211 -1.4027
  348MOL0     H46966   1.615  10.177   5.816  0.9989  2.9985  3.4991
  348MOL0     H46967   1.512  10.046   5.978 -0.0887 -0.2969  0.2432
  348MOL0     H46968   1.603   9.917   6.484 -0.2310 -0.0464  0.5639
  348MOL0     H46969   1.419   9.822   6.638  1.2738 -1.0737  0.4409
  348MOL0     H46970   1.211   9.794   6.718  0.4940 -1.7817  4.1654
  348MOL0     H46971   1.083   9.681   6.695 -0.0092  1.7164  2.6401
  348MOL0     H46972   1.225   9.499   6.752 -0.3094  0.7717 -1.6590
  348MOL0     H46973   1.202   9.613   6.889 -0.5219  1.9334 -0.5400
  348MOL0     H46974   1.434   9.703   6.841  0.6744 -0.9457  2.2350
  348MOL0     H46975   1.454   9.575   6.727  2.5727 -0.0499  1.4836
  348MOL0     H46976   1.562   9.507   6.919  0.0446 -0.0391  0.1563
  348MOL0     H46977   1.415   9.407   6.929  1.2226  0.2646  1.1360
  348MOL0     H46978   1.314   9.588   7.258  0.7417  0.3192 -0.9511
  348MOL0     H46979   1.283   9.572   6.317 -0.2584 -2.0057  1.7752
  348MOL0     H46980   1.467   9.642   6.178 -0.5809  2.3424 -1.1195
  349MOL0     O46981   6.477   2.299   7.851  0.3335  0.4550 -0.7335
  349MOL0     C46982   6.523   2.217   7.934 -0.1404  0.3865  0.1330
  349MOL0     O46983   6.655   2.175   7.945 -0.3324 -0.0105  0.5016
  349MOL0     C46984   6.756   2.224   7.861  0.2477 -0.0589 -0.2199
  349MOL0     C46985   6.871   2.159   7.883 -0.6067  0.4466 -1.2693
  349MOL0     C46986   6.991   2.200   7.818 -0.6433  0.7940 -0.2689
  349MOL0     C46987   6.997   2.295   7.724 -0.1254 -0.3614  0.3875
  349MOL0     O46988   7.108   2.342   7.662  0.4683 -0.4183  0.4915
  349MOL0     C46989   7.233   2.345   7.739  0.1767  0.4510 -0.6520
  349MOL0     C46990   7.227   2.435   7.867 -0.6047 -1.9188 -0.4932
  349MOL0     C46991   7.364   2.458   7.917 -0.0784  0.1529 -0.0938
  349MOL0     C46992   7.367   2.567   8.020 -0.4970 -0.1505 -0.4252
  349MOL0     C46993   7.518   2.595   8.062  0.6427 -0.2609  0.1523
  349MOL0     C46994   7.528   2.719   8.153  0.1465 -0.0905  1.5564
  349MOL0     C46995   7.677   2.739   8.172  0.2351 -0.2827 -0.1072
  349MOL0     C46996   7.699   2.854   8.274 -0.9036 -0.1890  0.4091
  349MOL0     N46997   7.846   2.875   8.267  0.1243  0.6515 -0.0099
  349MOL0     C46998   7.951   2.834   8.341  0.1286 -0.5116 -0.8313
  349MOL0     C46999   8.062   2.878   8.277  0.6517  1.2891 -0.4250
  349MOL0     C47000   8.204   2.864   8.322 -0.1755 -0.8954 -0.3711
  349MOL0     C47001   8.300   2.779   8.238 -0.0095  0.0911 -0.3753
  349MOL0     C47002   8.354   2.838   8.110  0.6827  0.1149 -0.1671
  349MOL0     C47003   8.430   2.738   8.027 -0.4800 -0.9161  0.0450
  349MOL0     O47004   8.572   2.737   8.063 -0.5038 -0.3440 -0.0556
  349MOL0     C47005   8.649   2.642   8.007 -0.7246  0.7073  0.2255
  349MOL0     C47006   8.774   2.683   7.964  0.1203 -0.1791 -0.7323
  349MOL0     C47007   8.863   2.592   7.906 -0.5877  0.3123  0.1733
  349MOL0     C47008   8.993   2.657   7.862 -0.1045  0.2629  0.2700
  349MOL0     C47009   8.827   2.455   7.898  0.4995  0.0817  0.9377
  349MOL0     C47010   8.912   2.354   7.841  0.1617  0.0164 -0.1968
  349MOL0     O47011   8.893   2.227   7.887 -0.0090  0.0282  0.4787
  349MOL0     C47012   8.960   2.110   7.854  0.7915  0.5661  0.2108
  349MOL0     C47013   9.043   2.040   7.941  0.2971  0.5758 -0.3004
  349MOL0     C47014   9.099   1.914   7.900  0.2027 -0.8664 -0.1518
  349MOL0     C47015   9.078   1.869   7.769 -0.5326 -0.0105 -0.0652
  349MOL0     O47016   9.146   1.758   7.721  0.7303  0.6034  0.8053
  349MOL0     C47017   9.225   1.670   7.813  1.2069  0.8286 -0.3708
  349MOL0     C47018   9.268   1.545   7.736  0.0004  0.3660 -0.5432
  349MOL0     C47019   9.148   1.446   7.706  0.6810 -0.0281  0.1458
  349MOL0     C47020   9.111   1.360   7.823 -0.2763  0.3471 -0.4860
  349MOL0     C47021   8.981   1.280   7.800  0.4300  1.0285  0.7280
  349MOL0     C47022   8.850   1.355   7.839 -1.0397 -0.5583 -0.1502
  349MOL0     C47023   8.839   1.387   7.982  0.1486 -0.2095 -0.2335
  349MOL0     C47024   8.688   1.400   8.023  0.1814 -0.0731  0.6673
  349MOL0    Cl47025   8.594   1.495   7.901  0.0622 -0.5040 -0.4086
  349MOL0     C47026   8.994   1.943   7.678  0.7259  0.5799 -0.4251
  349MOL0     C47027   8.934   2.059   7.722 -0.5828  0.5165 -0.2121
  349MOL0     O47028   8.999   2.372   7.763 -0.0919 -0.6139 -0.5497
  349MOL0     C47029   8.708   2.414   7.957 -0.2681  0.1078 -0.5426
  349MOL0     C47030   8.623   2.509   8.013 -0.0251  1.1861  0.4611
  349MOL0     N47031   8.021   2.971   8.178 -0.4141  0.7316 -0.1372
  349MOL0     N47032   7.888   2.960   8.168 -0.4844 -0.2345  0.0619
  349MOL0     C47033   6.874   2.360   7.695 -0.0153  0.9196  0.5429
  349MOL0     C47034   6.753   2.328   7.766 -0.3190  0.7963 -0.5548
  349MOL0     C47035   6.420   2.139   8.008 -0.0997  0.3622 -0.4841
  349MOL0     C47036   6.453   2.027   8.088  0.1017  0.6141  0.6827
  349MOL0     C47037   6.353   1.947   8.146  0.5904 -0.6700  0.5068
  349MOL0     C47038   6.225   1.975   8.115  0.4794 -0.5583 -0.3494
  349MOL0     O47039   6.126   1.901   8.167  0.2052 -0.1932  0.1685
  349MOL0     C47040   6.141   1.805   8.274 -0.7149  0.5226  0.0556
  349MOL0     C47041   6.009   1.802   8.342  0.2431  0.1109 -0.3553
  349MOL0     C47042   6.000   1.683   8.442  0.6022 -0.3846 -0.2031
  349MOL0     C47043   5.860   1.680   8.509 -0.5751 -0.2817 -0.5148
  349MOL0     C47044   5.845   1.780   8.617 -0.2077  0.3035 -0.2726
  349MOL0     C47045   5.852   1.867   8.704 -0.3187  0.5951  0.5042
  349MOL0     C47046   6.186   2.086   8.034  0.3626 -0.4836 -0.6856
  349MOL0     C47047   6.289   2.163   7.982 -0.4763  0.1002 -0.1038
  349MOL0     H47048   6.873   2.109   7.979 -4.5473  0.2330 -1.1483
  349MOL0     H47049   7.080   2.149   7.853  1.5142  4.0751 -0.5735
  349MOL0     H47050   7.265   2.248   7.778 -0.7575  0.2145 -0.4446
  349MOL0     H47051   7.315   2.381   7.677  1.9094  2.8714  2.7138
  349MOL0     H47052   7.187   2.533   7.839  2.5334 -0.8876 -1.7536
  349MOL0     H47053   7.172   2.383   7.946  1.3845 -2.3491  0.6665
  349MOL0     H47054   7.412   2.371   7.963 -2.3670 -1.4279 -0.5184
  349MOL0     H47055   7.425   2.494   7.835  0.7110 -1.0088 -0.0422
  349MOL0     H47056   7.319   2.656   7.979 -0.1275 -0.8951 -2.6555
  349MOL0     H47057   7.314   2.533   8.109 -2.8572 -1.3042 -2.1736
  349MOL0     H47058   7.561   2.509   8.114  1.8485 -0.6598 -1.3944
  349MOL0     H47059   7.567   2.597   7.964 -0.5415  3.2003 -0.4907
  349MOL0     H47060   7.494   2.800   8.087  2.4705 -0.3840 -0.1288
  349MOL0     H47061   7.458   2.714   8.237 -3.4421  3.3683 -0.8417
  349MOL0     H47062   7.732   2.649   8.197  0.0341 -0.3167  0.2229
  349MOL0     H47063   7.710   2.782   8.078  1.7348 -2.3167 -0.5687
  349MOL0     H47064   7.684   2.818   8.376  0.0266 -1.7718  0.0192
  349MOL0     H47065   7.643   2.945   8.249  0.6434  0.9825  1.0277
  349MOL0     H47066   7.933   2.776   8.432 -2.0013  0.1146 -0.7974
  349MOL0     H47067   8.240   2.965   8.300 -1.6860 -0.8636 -3.2135
  349MOL0     H47068   8.207   2.834   8.427  0.8627 -2.3453 -0.7878
  349MOL0     H47069   8.259   2.677   8.232 -0.5558  0.1669  1.3421
  349MOL0     H47070   8.390   2.762   8.298  0.6273 -0.2312 -1.3920
  349MOL0     H47071   8.422   2.920   8.133  0.0970  0.3741  0.6876
  349MOL0     H47072   8.267   2.866   8.050 -0.3003 -1.3372  0.5313
  349MOL0     H47073   8.425   2.780   7.926 -0.1302  0.4246  0.5540
  349MOL0     H47074   8.380   2.642   8.016  0.9932 -1.9094  1.5163
  349MOL0     H47075   8.808   2.786   7.970 -1.2127  0.2122  1.5908
  349MOL0     H47076   9.083   2.600   7.886  0.5855  1.6381  1.1155
  349MOL0     H47077   8.995   2.675   7.754 -1.2694  2.0825  0.4912
  349MOL0     H47078   9.003   2.759   7.903 -4.3564  0.5906  0.9203
  349MOL0     H47079   9.080   2.096   8.027  1.2850 -1.4205  0.6757
  349MOL0     H47080   9.179   1.873   7.961  2.8955  4.3872  0.4024
  349MOL0     H47081   9.318   1.715   7.850  0.1772  1.9498  0.9396
  349MOL0     H47082   9.173   1.651   7.908 -3.9534  1.9161 -2.6428
  349MOL0     H47083   9.318   1.588   7.649  0.0479  1.0785 -0.1757
  349MOL0     H47084   9.345   1.494   7.794 -1.5172 -0.7432  0.5632
  349MOL0     H47085   9.172   1.382   7.621 -2.7516 -3.5578  1.5347
  349MOL0     H47086   9.068   1.506   7.662  0.8177 -0.4566 -0.7025
  349MOL0     H47087   9.184   1.279   7.829  0.4639  1.1013  2.7155
  349MOL0     H47088   9.121   1.411   7.919  1.9404  1.0876 -1.0625
  349MOL0     H47089   8.983   1.189   7.861 -0.3084  0.0835 -0.5961
  349MOL0     H47090   8.975   1.262   7.692  0.7937  0.0034  0.8694
  349MOL0     H47091   8.835   1.436   7.767 -2.1384 -0.0503  0.6331
  349MOL0     H47092   8.770   1.283   7.824  0.1600 -1.5548 -2.1506
  349MOL0     H47093   8.879   1.486   8.002  0.3526 -0.3628  0.1195
  349MOL0     H47094   8.878   1.305   8.043 -2.3136 -0.4801  1.0953
  349MOL0     H47095   8.679   1.449   8.120  0.3434  0.0656  0.6128
  349MOL0     H47096   8.639   1.304   8.037  1.8533 -1.1129 -0.1895
  349MOL0     H47097   8.978   1.909   7.576 -0.7086 -0.3068  0.0663
  349MOL0     H47098   8.872   2.118   7.655 -4.1330 -0.8734  1.5916
  349MOL0     H47099   8.667   2.314   7.954 -0.9970  0.3614  0.5344
  349MOL0     H47100   8.527   2.477   8.055  0.0476 -0.5885 -0.6027
  349MOL0     H47101   6.874   2.441   7.622  0.5645  1.9652  1.6596
  349MOL0     H47102   6.662   2.387   7.760  0.2141  1.8726  1.0812
  349MOL0     H47103   6.557   1.996   8.094 -0.0119  0.5158  2.9419
  349MOL0     H47104   6.401   1.864   8.197  3.2985  0.7981  0.5367
  349MOL0     H47105   6.156   1.705   8.234 -3.9863 -0.4900  1.0988
  349MOL0     H47106   6.226   1.829   8.339 -0.7603 -0.1829  0.3807
  349MOL0     H47107   5.932   1.781   8.267  0.5758 -1.1309 -0.3699
  349MOL0     H47108   5.977   1.895   8.391  2.1823  0.8420 -0.3848
  349MOL0     H47109   6.082   1.691   8.513 -1.6750  1.3301  2.4195
  349MOL0     H47110   6.013   1.590   8.384  0.9051 -1.1453  1.0484
  349MOL0     H47111   5.842   1.581   8.553 -2.8322  0.0142 -0.6464
  349MOL0     H47112   5.780   1.698   8.437 -3.6067 -1.9018  2.1845
  349MOL0     H47113   5.863   1.935   8.786 -1.0500 -1.5027  2.4274
  349MOL0     H47114   6.082   2.095   8.006  0.0586  1.8382  0.9886
  349MOL0     H47115   6.259   2.242   7.913 -0.4902  1.6001  1.5399
  350MOL0     O47116   5.356   2.398   5.852  1.0424  0.2408  0.5899
  350MOL0     C47117   5.332   2.320   5.945 -0.2981  0.2091  0.0068
  350MOL0     O47118   5.385   2.310   6.070 -0.2715  0.1741  1.2193
  350MOL0     C47119   5.461   2.420   6.115  0.3356 -0.3020 -1.2207
  350MOL0     C47120   5.600   2.420   6.146  0.2519 -0.1380 -0.0232
  350MOL0     C47121   5.667   2.517   6.211 -0.1025  0.1411 -0.8761
  350MOL0     C47122   5.602   2.638   6.244 -0.7443 -0.3667  0.0835
  350MOL0     O47123   5.638   2.751   6.306  0.4770 -0.1674 -1.1350
  350MOL0     C47124   5.766   2.746   6.388  0.7856 -0.6692  0.0747
  350MOL0     C47125   5.744   2.846   6.501  0.0093 -0.1579  1.0349
  350MOL0     C47126   5.640   2.790   6.605 -0.7199  0.4235 -0.6997
  350MOL0     C47127   5.599   2.889   6.706  0.7354  0.0912  0.1565
  350MOL0     C47128   5.511   2.822   6.814 -0.2517 -0.2118 -0.0706
  350MOL0     C47129   5.373   2.763   6.778 -0.6877  0.4142 -0.2590
  350MOL0     C47130   5.312   2.675   6.891  0.5757 -0.4701 -0.0356
  350MOL0     C47131   5.301   2.743   7.022 -0.3565  0.1353  0.0376
  350MOL0     N47132   5.213   2.862   7.017  0.0487 -0.2736  0.2798
  350MOL0     C47133   5.091   2.874   6.956  0.2421 -0.3321  0.1534
  350MOL0     C47134   5.031   2.987   6.994 -0.0712 -0.7578  0.3894
  350MOL0     C47135   4.883   3.021   7.005 -0.4598  0.3663  1.0790
  350MOL0     C47136   4.795   2.994   6.876 -0.7118  0.4911 -0.5619
  350MOL0     C47137   4.650   3.048   6.864 -0.2679  0.8615 -0.0357
  350MOL0     C47138   4.541   2.965   6.934 -0.3986 -0.8127  1.3849
  350MOL0     O47139   4.412   3.002   6.877 -0.9478 -1.1405  0.2380
  350MOL0     C47140   4.361   3.128   6.909 -0.4326  0.5512 -0.0052
  350MOL0     C47141   4.419   3.215   7.000 -0.2439 -0.1923 -0.3406
  350MOL0     C47142   4.375   3.349   7.030 -0.7416 -0.1319  0.6639
  350MOL0     C47143   4.444   3.426   7.137 -0.0909 -0.4635  0.2863
  350MOL0     C47144   4.240   3.380   6.984 -0.1889 -0.0798 -0.8083
  350MOL0     C47145   4.166   3.505   7.015 -0.5973  0.2259 -0.2626
  350MOL0     O47146   4.032   3.496   6.990 -0.1887 -0.2649 -0.6162
  350MOL0     C47147   3.956   3.611   6.985  0.3173  0.4364 -0.3033
  350MOL0     C47148   3.909   3.669   6.861 -0.3587 -0.0447 -1.3459
  350MOL0     C47149   3.817   3.777   6.854 -1.4631  0.0675  0.3650
  350MOL0     C47150   3.783   3.838   6.972  0.4833 -0.1954 -0.2482
  350MOL0     O47151   3.676   3.932   6.971 -0.7057 -0.0830 -0.1359
  350MOL0     C47152   3.569   3.912   7.069 -0.4090 -0.2362  0.2767
  350MOL0     C47153   3.480   4.034   7.064 -0.7230  1.1620 -0.2520
  350MOL0     C47154   3.444   4.076   6.920 -0.4162 -0.0058  0.3308
  350MOL0     C47155   3.359   4.204   6.936 -1.0762 -0.4481 -0.2860
  350MOL0     C47156   3.278   4.241   6.809  0.3994  0.4378  0.3386
  350MOL0     C47157   3.359   4.295   6.687 -0.4582  0.6389 -0.2842
  350MOL0     C47158   3.419   4.438   6.718  0.1398 -0.1154  0.4285
  350MOL0     C47159   3.539   4.474   6.624 -0.6891  0.1641  0.5963
  350MOL0    Cl47160   3.692   4.406   6.698 -0.0478  0.5709  0.0242
  350MOL0     C47161   3.834   3.786   7.095  0.3370 -0.1820  1.0618
  350MOL0     C47162   3.917   3.671   7.103 -0.6218 -0.2636  0.4907
  350MOL0     O47163   4.233   3.606   7.046  0.8079 -0.3928  0.1994
  350MOL0     C47164   4.185   3.289   6.891  0.6415  0.8743 -0.8019
  350MOL0     C47165   4.247   3.165   6.848 -0.5500 -0.9074  1.3052
  350MOL0     N47166   5.127   3.059   7.068 -1.1652 -0.7084  0.4513
  350MOL0     N47167   5.229   2.983   7.076  0.9515 -0.3754 -0.3790
  350MOL0     C47168   5.469   2.652   6.201 -0.9241 -0.2309  0.7242
  350MOL0     C47169   5.406   2.546   6.137  0.4547 -0.6752  0.6575
  350MOL0     C47170   5.238   2.210   5.914  0.6269  0.0634  0.2650
  350MOL0     C47171   5.229   2.098   5.996  0.9230  0.5375 -0.1370
  350MOL0     C47172   5.130   1.995   5.970  0.3059 -0.2894  0.2998
  350MOL0     C47173   5.061   2.003   5.851  0.6044  0.3786  0.5064
  350MOL0     O47174   4.975   1.921   5.802 -0.2699 -0.2715 -0.1813
  350MOL0     C47175   4.936   1.788   5.849  0.8876  0.0405 -0.6286
  350MOL0     C47176   4.813   1.794   5.955  0.4708 -0.0545  0.0703
  350MOL0     C47177   4.681   1.857   5.893 -0.3112 -0.4870  0.9858
  350MOL0     C47178   4.611   1.780   5.779  0.1340  0.3800  1.4010
  350MOL0     C47179   4.471   1.761   5.818  0.4139  0.5050 -0.9832
  350MOL0     C47180   4.368   1.794   5.877  0.1728  1.0718 -0.2584
  350MOL0     C47181   5.060   2.117   5.771  0.2505  0.0072  0.8753
  350MOL0     C47182   5.148   2.223   5.797 -0.1049  0.1728  0.3128
  350MOL0     H47183   5.656   2.328   6.132  0.4399  0.1748 -1.4427
  350MOL0     H47184   5.773   2.523   6.230 -0.4066  2.4762  0.4738
  350MOL0     H47185   5.774   2.643   6.423 -3.2640 -0.5703  1.8146
  350MOL0     H47186   5.846   2.770   6.317 -1.5668 -0.8696 -2.8819
  350MOL0     H47187   5.837   2.863   6.556  0.9609  0.5468 -0.7200
  350MOL0     H47188   5.708   2.941   6.459 -1.1985 -0.3530  1.5907
  350MOL0     H47189   5.547   2.761   6.556 -0.1144  0.1658 -1.7301
  350MOL0     H47190   5.685   2.704   6.656  0.6748  0.3037 -2.0573
  350MOL0     H47191   5.680   2.942   6.758  0.2638 -1.3278  2.4689
  350MOL0     H47192   5.543   2.971   6.659 -0.0335 -0.3492  0.2834
  350MOL0     H47193   5.579   2.746   6.853  2.1238  1.3327 -0.9333
  350MOL0     H47194   5.488   2.892   6.894 -3.1592  2.2942 -2.8340
  350MOL0     H47195   5.307   2.846   6.752 -3.3060 -0.6293  2.4088
  350MOL0     H47196   5.386   2.690   6.697  3.3624 -0.4561  0.9638
  350MOL0     H47197   5.211   2.648   6.858 -0.0235 -1.2370  2.2608
  350MOL0     H47198   5.362   2.577   6.894  0.3488 -0.6200  3.6601
  350MOL0     H47199   5.404   2.763   7.051 -1.3559  1.0972  3.3964
  350MOL0     H47200   5.266   2.676   7.101  1.7699 -0.2824  0.6937
  350MOL0     H47201   5.042   2.785   6.917  5.2402 -3.7600  0.8098
  350MOL0     H47202   4.837   2.961   7.085 -0.7306  1.6794  1.9403
  350MOL0     H47203   4.882   3.128   7.028  0.9725  0.4633  0.7716
  350MOL0     H47204   4.796   2.886   6.856 -2.9310 -0.1314  2.0344
  350MOL0     H47205   4.845   3.044   6.793  2.2169  1.0574  1.4067
  350MOL0     H47206   4.639   3.049   6.755  3.9794 -3.9733 -0.8941
  350MOL0     H47207   4.656   3.154   6.891 -2.1851  1.1836 -0.7695
  350MOL0     H47208   4.544   2.977   7.042  2.7985  0.6653  1.2564
  350MOL0     H47209   4.559   2.860   6.909 -2.0120 -0.8866  0.3607
  350MOL0     H47210   4.508   3.184   7.055 -0.3520  0.2691  0.1042
  350MOL0     H47211   4.372   3.467   7.209 -0.6023  1.5093 -1.2557
  350MOL0     H47212   4.526   3.372   7.184  1.4061  0.4635 -1.1539
  350MOL0     H47213   4.491   3.511   7.088  0.5981 -2.0230 -1.8927
  350MOL0     H47214   3.937   3.604   6.778  2.6427 -2.6289  1.4246
  350MOL0     H47215   3.769   3.809   6.762 -0.2422  0.5518 -0.1217
  350MOL0     H47216   3.509   3.824   7.042 -0.1545  0.0364 -1.3027
  350MOL0     H47217   3.613   3.904   7.169  0.8491  0.3882 -0.2089
  350MOL0     H47218   3.393   4.035   7.130 -0.1356  1.1203  0.5419
  350MOL0     H47219   3.544   4.118   7.092  2.5077 -0.8410 -0.9936
  350MOL0     H47220   3.385   4.005   6.863  1.6818 -0.4169 -1.4565
  350MOL0     H47221   3.534   4.095   6.861  0.8669 -1.7546  1.6074
  350MOL0     H47222   3.278   4.171   7.003 -0.6096 -3.4906 -1.0739
  350MOL0     H47223   3.408   4.295   6.971 -1.7212 -0.3949  0.5296
  350MOL0     H47224   3.192   4.303   6.834 -0.6293 -0.3689 -1.0639
  350MOL0     H47225   3.232   4.149   6.772 -1.0575  0.8409  1.0951
  350MOL0     H47226   3.440   4.234   6.645 -1.5430 -0.0998 -1.3606
  350MOL0     H47227   3.286   4.289   6.605  0.4536 -1.7277 -1.0044
  350MOL0     H47228   3.448   4.450   6.823  0.2928  2.4146  0.1608
  350MOL0     H47229   3.345   4.514   6.694  1.1021  0.5764 -0.4774
  350MOL0     H47230   3.552   4.582   6.624 -2.0015  0.4139  3.5545
  350MOL0     H47231   3.524   4.438   6.522  1.9756 -3.4655  1.2392
  350MOL0     H47232   3.806   3.827   7.191 -0.9977  2.0430 -0.1812
  350MOL0     H47233   3.972   3.646   7.192  2.7844  5.6763  0.5636
  350MOL0     H47234   4.087   3.301   6.846 -0.7473 -2.3449  1.0338
  350MOL0     H47235   4.198   3.095   6.781 -2.3012  2.3389 -1.0755
  350MOL0     H47236   5.410   2.742   6.220  0.7752  0.9308  0.6935
  350MOL0     H47237   5.300   2.548   6.113  0.3224 -1.3077  1.1852
  350MOL0     H47238   5.293   2.089   6.083  1.4069  1.1885 -0.4164
  350MOL0     H47239   5.113   1.912   6.039  0.6794  1.4237  2.5823
  350MOL0     H47240   4.892   1.732   5.765  0.5276  0.3105 -0.6231
  350MOL0     H47241   5.016   1.716   5.869  0.6938 -0.4324 -1.5056
  350MOL0     H47242   4.840   1.841   6.050  2.5688 -1.6215  0.3158
  350MOL0     H47243   4.784   1.693   5.984  2.6886 -0.5781  0.6635
  350MOL0     H47244   4.710   1.950   5.842 -0.8766 -0.4801  0.6629
  350MOL0     H47245   4.613   1.873   5.977  1.6635 -0.6053  2.6717
  350MOL0     H47246   4.648   1.679   5.758 -3.3556 -0.5150 -1.2202
  350MOL0     H47247   4.616   1.837   5.686 -3.5836 -3.4544 -1.5936
  350MOL0     H47248   4.281   1.827   5.929 -0.7660  1.4296 -1.9915
  350MOL0     H47249   5.002   2.113   5.679  1.1803 -0.4141  0.2962
  350MOL0     H47250   5.158   2.314   5.738 -0.7995  1.5747  2.2579
  351MOL0     O47251   6.808   5.197   6.078  0.3492  0.0714  0.4398
  351MOL0     C47252   6.840   5.168   5.957  0.0569  0.6237 -1.0519
  351MOL0     O47253   6.961   5.131   5.919 -0.4654  0.6229 -0.4065
  351MOL0     C47254   7.057   5.121   6.013  0.1604  0.9081  0.3750
  351MOL0     C47255   7.078   5.003   6.086  0.2343  0.9138  0.8269
  351MOL0     C47256   7.178   5.001   6.192  0.0612  0.2020 -0.2088
  351MOL0     C47257   7.254   5.110   6.220 -0.2477 -0.2270 -0.3559
  351MOL0     O47258   7.357   5.096   6.304 -0.3020 -0.5826  0.5625
  351MOL0     C47259   7.437   5.219   6.329  0.9594 -0.8894  0.1861
  351MOL0     C47260   7.535   5.200   6.439 -0.3237 -0.2388  0.3844
  351MOL0     C47261   7.595   5.335   6.470  0.0569 -0.7808 -0.2774
  351MOL0     C47262   7.636   5.327   6.616  0.3656  0.5766  0.2890
  351MOL0     C47263   7.742   5.435   6.644  0.2589 -0.3140  0.4521
  351MOL0     C47264   7.777   5.427   6.795  0.0885 -0.0291  0.3657
  351MOL0     C47265   7.903   5.510   6.834 -0.3569 -0.8702 -0.0092
  351MOL0     C47266   8.041   5.464   6.789  0.9078  0.1236 -0.3307
  351MOL0     N47267   8.082   5.328   6.845  0.7897  0.0661  0.0879
  351MOL0     C47268   8.079   5.293   6.981 -0.2080 -0.5463  0.0865
  351MOL0     C47269   8.138   5.172   6.973  0.3683  0.9063 -0.5944
  351MOL0     C47270   8.168   5.080   7.093 -0.0726 -0.4261 -0.2880
  351MOL0     C47271   8.277   5.147   7.184 -0.2003  0.8411  0.1998
  351MOL0     C47272   8.344   5.050   7.284  0.3972 -0.0455  0.6031
  351MOL0     C47273   8.241   4.991   7.388 -0.0658 -0.6016 -0.5284
  351MOL0     O47274   8.217   4.856   7.352  0.1171  1.1054  0.0243
  351MOL0     C47275   8.115   4.785   7.417 -0.0066 -0.1389 -0.3172
  351MOL0     C47276   8.101   4.648   7.373  0.1550 -0.7606 -0.0007
  351MOL0     C47277   7.989   4.564   7.419 -1.2298 -0.8270 -0.1390
  351MOL0     C47278   7.992   4.420   7.353 -0.9452 -0.0200 -0.4333
  351MOL0     C47279   7.889   4.615   7.503  0.3949 -0.6885  0.6063
  351MOL0     C47280   7.796   4.522   7.573 -0.2557 -0.1728 -0.0549
  351MOL0     O47281   7.699   4.593   7.632  0.2527 -1.8922 -0.0122
  351MOL0     C47282   7.570   4.554   7.614  0.1043 -0.2988 -0.3623
  351MOL0     C47283   7.520   4.427   7.634  0.6036 -0.5644  0.7517
  351MOL0     C47284   7.374   4.410   7.633  0.4565 -0.5467  0.3235
  351MOL0     C47285   7.287   4.515   7.589  0.7491  0.0440 -0.0702
  351MOL0     O47286   7.146   4.494   7.577 -0.7749  0.0243  0.0821
  351MOL0     C47287   7.055   4.599   7.581  0.0890 -0.9122  0.1176
  351MOL0     C47288   6.928   4.523   7.607  0.1381  0.1154  0.4422
  351MOL0     C47289   6.849   4.482   7.484  1.1273  0.7655  0.8717
  351MOL0     C47290   6.701   4.468   7.511 -0.7374  0.0405 -0.1922
  351MOL0     C47291   6.678   4.347   7.604  0.5411  0.8560 -0.5252
  351MOL0     C47292   6.530   4.321   7.627 -1.3113 -0.8568  0.2795
  351MOL0     C47293   6.504   4.216   7.731 -0.0443  0.0347  0.6433
  351MOL0     C47294   6.349   4.196   7.731 -0.5663 -0.6087 -0.3077
  351MOL0    Cl47295   6.299   4.033   7.793 -0.2831 -0.1178 -0.4285
  351MOL0     C47296   7.342   4.635   7.576  0.2263 -1.1035  0.0104
  351MOL0     C47297   7.475   4.657   7.586 -0.7786  0.4606  0.3705
  351MOL0     O47298   7.824   4.407   7.599  0.2737  0.3272 -0.1636
  351MOL0     C47299   7.890   4.759   7.519  0.5530  0.5895  0.4012
  351MOL0     C47300   8.007   4.839   7.492  0.4797 -0.1810 -0.2354
  351MOL0     N47301   8.158   5.138   6.843  0.6890  0.5431  0.2058
  351MOL0     N47302   8.116   5.225   6.765 -0.8144 -0.1056  0.1505
  351MOL0     C47303   7.231   5.222   6.144 -0.1563 -0.2864 -0.2280
  351MOL0     C47304   7.139   5.219   6.044 -0.0874 -0.3204 -0.2965
  351MOL0     C47305   6.727   5.168   5.858  0.0836  0.4376  0.5077
  351MOL0     C47306   6.586   5.189   5.900 -0.3238  0.0364 -0.1518
  351MOL0     C47307   6.480   5.181   5.813  0.4460  0.0053 -0.2181
  351MOL0     C47308   6.498   5.160   5.678  0.4627 -0.0103  1.1684
  351MOL0     O47309   6.384   5.150   5.606  0.1010 -0.2954 -0.1901
  351MOL0     C47310   6.383   5.185   5.465 -0.8164  0.0756 -0.2903
  351MOL0     C47311   6.331   5.062   5.386  0.4185 -0.3916 -0.4371
  351MOL0     C47312   6.184   5.012   5.429 -0.8465 -0.5419  0.5951
  351MOL0     C47313   6.076   5.108   5.385 -0.5625 -0.5806  0.4991
  351MOL0     C47314   6.053   5.080   5.243  0.9059 -0.0844 -0.0304
  351MOL0     C47315   6.062   5.052   5.124 -0.1729 -0.4097  0.3945
  351MOL0     C47316   6.626   5.143   5.628 -0.1580  0.4466  0.6636
  351MOL0     C47317   6.736   5.139   5.716 -0.9635 -0.0705  0.0304
  351MOL0     H47318   7.011   4.917   6.080  1.3452  0.0856 -0.0818
  351MOL0     H47319   7.206   4.924   6.263 -2.3030  0.4670  1.1271
  351MOL0     H47320   7.488   5.256   6.239 -2.1651 -1.8995 -2.1839
  351MOL0     H47321   7.370   5.298   6.363 -0.1186 -1.4697 -0.5248
  351MOL0     H47322   7.480   5.149   6.519  0.6563  0.1099  1.2994
  351MOL0     H47323   7.615   5.136   6.402  1.1918  1.4710  0.5703
  351MOL0     H47324   7.675   5.368   6.404 -1.6099  0.3632 -1.8308
  351MOL0     H47325   7.526   5.420   6.463  1.9071  0.8966  0.7648
  351MOL0     H47326   7.546   5.356   6.671  0.3870  1.6115 -0.1893
  351MOL0     H47327   7.677   5.232   6.649 -2.8248 -3.0049 -4.5953
  351MOL0     H47328   7.826   5.431   6.573  0.4408  1.2140  0.5403
  351MOL0     H47329   7.696   5.533   6.631  0.5220 -0.3244 -0.6580
  351MOL0     H47330   7.696   5.468   6.855  2.3174  2.2120  2.0299
  351MOL0     H47331   7.793   5.322   6.823  3.5085  0.1644 -0.3544
  351MOL0     H47332   7.887   5.606   6.784  0.1635 -0.6005  0.3319
  351MOL0     H47333   7.925   5.524   6.940  1.5500  0.1304 -0.4874
  351MOL0     H47334   8.116   5.538   6.818  0.1205  0.9204 -0.3015
  351MOL0     H47335   8.038   5.472   6.679 -0.6351  0.5499 -0.2885
  351MOL0     H47336   8.049   5.361   7.060 -0.7242  0.9356 -1.3422
  351MOL0     H47337   8.078   5.065   7.153  0.0514  0.5125  0.1581
  351MOL0     H47338   8.188   4.983   7.046 -0.0659  0.4837 -2.2941
  351MOL0     H47339   8.249   5.241   7.232  2.1516  2.2055 -0.9296
  351MOL0     H47340   8.349   5.185   7.112 -3.7765  3.0914 -2.5089
  351MOL0     H47341   8.435   5.092   7.330  1.3197 -1.6823  0.3541
  351MOL0     H47342   8.382   4.961   7.234  1.0223 -0.2070  1.3373
  351MOL0     H47343   8.145   5.043   7.382 -0.4976 -0.6192  3.6749
  351MOL0     H47344   8.274   4.994   7.492  2.5826  1.3569 -1.3090
  351MOL0     H47345   8.171   4.622   7.294  0.5354  0.8803 -0.2239
  351MOL0     H47346   8.094   4.384   7.337 -1.0317 -0.1628 -0.6715
  351MOL0     H47347   7.947   4.342   7.415  1.0147 -0.8088  0.0658
  351MOL0     H47348   7.954   4.437   7.252  2.1341 -3.2073 -2.3417
  351MOL0     H47349   7.590   4.348   7.658  1.3221 -0.7635 -1.7413
  351MOL0     H47350   7.341   4.309   7.654  1.9383 -1.0580  0.3389
  351MOL0     H47351   7.080   4.672   7.658 -0.6480 -2.1693  1.5962
  351MOL0     H47352   7.036   4.649   7.485 -0.4716 -3.1099 -0.9814
  351MOL0     H47353   6.955   4.436   7.667 -1.5257 -2.5925 -2.4122
  351MOL0     H47354   6.870   4.586   7.674  1.8780 -0.1263  2.2583
  351MOL0     H47355   6.900   4.396   7.440  1.0365  1.1212  0.0422
  351MOL0     H47356   6.852   4.569   7.417 -0.6421  1.3126  1.4337
  351MOL0     H47357   6.649   4.555   7.552 -1.9656 -0.6310 -0.2767
  351MOL0     H47358   6.656   4.452   7.413 -0.3159 -2.7623 -0.0013
  351MOL0     H47359   6.724   4.350   7.703 -0.3063 -1.2396  0.0070
  351MOL0     H47360   6.714   4.252   7.563 -0.1797 -2.0479  4.6710
  351MOL0     H47361   6.478   4.414   7.650  0.5475  0.4188 -0.4627
  351MOL0     H47362   6.483   4.281   7.537 -1.0624  0.9094 -0.6808
  351MOL0     H47363   6.557   4.231   7.825 -0.7698 -2.0484  1.4373
  351MOL0     H47364   6.546   4.125   7.687 -0.9796  0.7664 -1.9768
  351MOL0     H47365   6.301   4.222   7.636  0.6589  4.6118  0.2055
  351MOL0     H47366   6.308   4.269   7.801  1.6875  1.9114 -1.4492
  351MOL0     H47367   7.277   4.713   7.538 -0.4403 -2.3471 -1.5352
  351MOL0     H47368   7.515   4.756   7.573 -1.2992  1.0030  2.4856
  351MOL0     H47369   7.807   4.787   7.583 -0.5712 -0.6443 -0.4766
  351MOL0     H47370   8.015   4.941   7.530 -0.2403 -0.1585 -0.1312
  351MOL0     H47371   7.286   5.314   6.163 -0.7807  0.4583 -1.8521
  351MOL0     H47372   7.127   5.309   5.984  0.6235  0.0794  0.1505
  351MOL0     H47373   6.581   5.204   6.008  0.2812 -0.1550 -0.0909
  351MOL0     H47374   6.377   5.180   5.845 -0.0304  1.0378 -1.6303
  351MOL0     H47375   6.323   5.275   5.448  0.8030  0.9731 -1.5468
  351MOL0     H47376   6.476   5.211   5.414 -1.4410  0.8196 -1.0927
  351MOL0     H47377   6.400   4.978   5.398 -0.6623 -1.2858 -0.3360
  351MOL0     H47378   6.330   5.090   5.280  0.1332  3.0011  0.3284
  351MOL0     H47379   6.172   4.996   5.536 -1.5052 -1.0061  0.4569
  351MOL0     H47380   6.170   4.915   5.380 -0.9510 -0.5142  0.5698
  351MOL0     H47381   6.100   5.211   5.412  1.3110 -1.4997  2.6909
  351MOL0     H47382   5.978   5.076   5.422 -2.5736  1.7735 -2.3354
  351MOL0     H47383   6.068   5.034   5.019 -1.1795  0.1868  0.2215
  351MOL0     H47384   6.641   5.121   5.523 -3.4462 -0.6834  0.3153
  351MOL0     H47385   6.832   5.113   5.674  0.2337  4.3870 -0.5929
  352MOL0     O47386   9.068   3.274   5.665  0.5010 -0.4418  0.0150
  352MOL0     C47387   9.064   3.395   5.651 -0.0112 -1.4003  0.1579
  352MOL0     O47388   8.959   3.469   5.588  0.4000 -0.1100  0.3175
  352MOL0     C47389   8.851   3.401   5.546  0.5075  0.5613 -0.6973
  352MOL0     C47390   8.848   3.315   5.443  0.1454 -0.2777  0.2895
  352MOL0     C47391   8.739   3.225   5.419  0.7083 -0.1537  0.4547
  352MOL0     C47392   8.620   3.244   5.488 -0.2672  0.0917 -0.3989
  352MOL0     O47393   8.510   3.171   5.473 -0.9713  0.8833  0.5411
  352MOL0     C47394   8.524   3.035   5.454  0.7177 -0.0776 -0.0655
  352MOL0     C47395   8.403   2.970   5.527 -0.0525 -0.6703 -0.0525
  352MOL0     C47396   8.270   2.986   5.453  0.2708  0.6305  1.0502
  352MOL0     C47397   8.152   2.902   5.514 -0.7803 -0.2573  1.0555
  352MOL0     C47398   8.028   2.915   5.432 -0.1393 -0.0818  0.2611
  352MOL0     C47399   7.903   2.869   5.495 -0.6025 -0.0629  0.2434
  352MOL0     C47400   7.791   2.856   5.389  1.0830  0.4065  0.1218
  352MOL0     C47401   7.649   2.831   5.455  0.0640 -1.0607 -0.1743
  352MOL0     N47402   7.587   2.960   5.489  0.2386  0.6179 -0.0650
  352MOL0     C47403   7.617   3.047   5.593  1.1450  0.5125  0.4675
  352MOL0     C47404   7.504   3.127   5.597  0.6247  0.0437 -0.2421
  352MOL0     C47405   7.477   3.226   5.709 -0.9231 -0.5160  0.0970
  352MOL0     C47406   7.601   3.327   5.721 -0.3912  0.8462  0.0070
  352MOL0     C47407   7.585   3.444   5.617 -0.5411  0.3892 -0.1069
  352MOL0     C47408   7.710   3.532   5.626  0.7725  0.2287  0.4846
  352MOL0     O47409   7.684   3.637   5.537 -0.5822  0.2661  0.4118
  352MOL0     C47410   7.610   3.746   5.574 -1.5939  0.7107 -0.6938
  352MOL0     C47411   7.638   3.814   5.691  0.2750  0.2160  0.6689
  352MOL0     C47412   7.561   3.917   5.739  0.6473  0.4706 -0.5984
  352MOL0     C47413   7.607   3.962   5.879 -0.0739 -0.8409  0.0814
  352MOL0     C47414   7.465   3.974   5.656 -0.5533  0.2626  0.5256
  352MOL0     C47415   7.380   4.090   5.701 -0.1652 -0.3826 -0.0110
  352MOL0     O47416   7.367   4.138   5.835  0.0983 -0.3149  0.4859
  352MOL0     C47417   7.327   4.266   5.850 -0.3403 -0.9499 -1.1361
  352MOL0     C47418   7.396   4.378   5.813 -0.3099 -0.2269 -0.2829
  352MOL0     C47419   7.343   4.502   5.832  0.1160  0.2074 -0.1522
  352MOL0     C47420   7.212   4.521   5.886 -0.1940 -0.1257 -0.1647
  352MOL0     O47421   7.143   4.645   5.891 -0.2705 -0.0862 -0.2364
  352MOL0     C47422   7.171   4.734   5.787 -0.2629  0.7286  0.3120
  352MOL0     C47423   7.044   4.806   5.734  0.3622  1.1080 -0.3967
  352MOL0     C47424   6.927   4.736   5.661  0.1570 -1.0664 -0.4078
  352MOL0     C47425   6.813   4.722   5.766 -0.2714 -0.6837 -0.0422
  352MOL0     C47426   6.684   4.645   5.703  0.0038  0.3025  0.1095
  352MOL0     C47427   6.709   4.491   5.705  0.2024  0.7829  0.0278
  352MOL0     C47428   6.682   4.444   5.848  0.6560  0.5727  0.3059
  352MOL0     C47429   6.796   4.349   5.899  0.4203 -0.1330 -0.0031
  352MOL0    Cl47430   6.799   4.322   6.074  0.0055 -0.0446 -0.4824
  352MOL0     C47431   7.150   4.403   5.934 -0.2142 -0.0838  0.3400
  352MOL0     C47432   7.199   4.288   5.904  0.1874  1.0770  1.1252
  352MOL0     O47433   7.332   4.142   5.606  0.0559 -0.8977  0.5851
  352MOL0     C47434   7.437   3.908   5.530 -0.1519  0.9723  0.4239
  352MOL0     C47435   7.513   3.798   5.492  0.3630 -0.5196 -0.3964
  352MOL0     N47436   7.416   3.103   5.499 -0.8016 -0.2835  0.4191
  352MOL0     N47437   7.470   3.000   5.431  0.7784 -0.0872 -1.2495
  352MOL0     C47438   8.613   3.349   5.576  0.4110  0.8081  0.3116
  352MOL0     C47439   8.728   3.423   5.609  0.1740  0.2864 -0.2627
  352MOL0     C47440   9.175   3.477   5.708  0.1815  1.0883  1.0074
  352MOL0     C47441   9.270   3.417   5.794 -0.1728 -0.0013  0.3865
  352MOL0     C47442   9.365   3.495   5.860 -0.2095 -1.0069  0.2466
  352MOL0     C47443   9.379   3.636   5.834 -0.0737 -1.0481 -0.3027
  352MOL0     O47444   9.489   3.718   5.869  0.6397  0.7638  0.7378
  352MOL0     C47445   9.582   3.659   5.969  0.9216  0.1169  0.4952
  352MOL0     C47446   9.700   3.749   5.994  0.1657 -0.3775 -0.2287
  352MOL0     C47447   9.793   3.700   6.115 -0.8281 -0.4423  0.6815
  352MOL0     C47448   9.891   3.587   6.072  0.5757  0.0087  0.2575
  352MOL0     C47449   9.823   3.454   6.051 -0.0549 -0.1324 -0.1408
  352MOL0     C47450   9.787   3.338   6.036  0.3296 -0.6850 -0.2192
  352MOL0     C47451   9.279   3.693   5.754 -1.2790  0.0390 -0.3248
  352MOL0     C47452   9.189   3.613   5.683  0.8675 -0.0691  0.4132
  352MOL0     H47453   8.935   3.309   5.379 -1.1220 -2.8280 -1.3748
  352MOL0     H47454   8.734   3.153   5.338 -0.5960 -0.6836  0.9696
  352MOL0     H47455   8.536   3.012   5.347 -0.7907  1.9556 -0.7168
  352MOL0     H47456   8.611   3.002   5.511  0.0404 -1.7045  0.0941
  352MOL0     H47457   8.421   2.865   5.554  0.1248  0.0146  2.8748
  352MOL0     H47458   8.394   3.019   5.625 -0.6572  0.7675 -0.7991
  352MOL0     H47459   8.233   3.089   5.449 -0.0542  0.5223  1.1732
  352MOL0     H47460   8.276   2.942   5.354 -0.8456  1.0590  0.7736
  352MOL0     H47461   8.180   2.797   5.527  0.4799 -0.8211 -4.0427
  352MOL0     H47462   8.130   2.954   5.608  1.7951 -0.3643  1.7998
  352MOL0     H47463   8.018   3.016   5.390 -4.1587 -0.3436  0.2466
  352MOL0     H47464   8.030   2.842   5.350 -1.1630 -0.2477  0.3695
  352MOL0     H47465   7.920   2.776   5.550 -4.7763 -1.5327 -0.5557
  352MOL0     H47466   7.869   2.940   5.572 -0.6591  0.3410 -0.1475
  352MOL0     H47467   7.782   2.947   5.329 -0.6867  0.9641  1.1537
  352MOL0     H47468   7.806   2.773   5.320 -2.0873  0.0802 -0.3291
  352MOL0     H47469   7.665   2.771   5.545  1.0781  1.3057  1.3278
  352MOL0     H47470   7.580   2.779   5.388 -0.5189  0.2909 -0.6649
  352MOL0     H47471   7.695   3.040   5.668  3.6876 -2.4067 -2.1706
  352MOL0     H47472   7.387   3.285   5.691 -2.2843 -1.3017  3.5893
  352MOL0     H47473   7.473   3.176   5.806  0.4460  0.4938  0.7063
  352MOL0     H47474   7.694   3.270   5.713 -0.6808  0.5904 -2.3690
  352MOL0     H47475   7.597   3.385   5.813  0.3117  0.5828  0.2037
  352MOL0     H47476   7.500   3.509   5.638 -0.6810 -0.5437  2.5754
  352MOL0     H47477   7.577   3.402   5.516 -0.1770  2.4053 -1.0214
  352MOL0     H47478   7.797   3.470   5.605  0.9519 -0.8699  3.8626
  352MOL0     H47479   7.727   3.564   5.730 -0.4292  1.7934  0.2535
  352MOL0     H47480   7.713   3.768   5.755 -0.2672 -0.4959  0.8093
  352MOL0     H47481   7.713   3.935   5.882  1.1193  2.5183 -3.3982
  352MOL0     H47482   7.601   4.070   5.892  4.7668 -0.5691  2.3251
  352MOL0     H47483   7.546   3.907   5.951  0.6093 -0.5276  0.9202
  352MOL0     H47484   7.496   4.369   5.772  1.4603  4.3112  2.2482
  352MOL0     H47485   7.402   4.590   5.808  0.4135  0.5774  1.7393
  352MOL0     H47486   7.244   4.802   5.832 -1.8484 -0.2131  4.9281
  352MOL0     H47487   7.223   4.691   5.702  1.0061 -0.0879  1.4554
  352MOL0     H47488   7.013   4.862   5.823 -0.8354 -0.1976  0.0458
  352MOL0     H47489   7.073   4.884   5.663  0.5460  2.5632  1.2050
  352MOL0     H47490   6.959   4.645   5.608  0.5423  0.4416 -2.9124
  352MOL0     H47491   6.890   4.794   5.576  2.8439  2.4875  0.6202
  352MOL0     H47492   6.848   4.659   5.849  0.3159 -0.4270 -0.0947
  352MOL0     H47493   6.788   4.820   5.807  0.4163  0.7616 -2.8439
  352MOL0     H47494   6.662   4.683   5.603 -2.2699 -1.8830 -0.3162
  352MOL0     H47495   6.596   4.668   5.764  0.9110  4.9635  0.0416
  352MOL0     H47496   6.630   4.449   5.642  1.2129  0.4786 -1.0755
  352MOL0     H47497   6.808   4.462   5.670 -0.1198 -2.4150  1.4759
  352MOL0     H47498   6.586   4.393   5.859  1.2996 -0.8773 -0.4031
  352MOL0     H47499   6.663   4.526   5.917 -1.5992  0.3231  0.0573
  352MOL0     H47500   6.896   4.373   5.862  0.3397 -2.1947 -1.7883
  352MOL0     H47501   6.777   4.250   5.856  0.1265 -0.1263  0.1128
  352MOL0     H47502   7.055   4.400   5.988 -0.6148 -0.6923 -0.3916
  352MOL0     H47503   7.145   4.198   5.933 -1.8573  1.6508 -0.5842
  352MOL0     H47504   7.382   3.946   5.445 -1.6226 -0.5977  0.6055
  352MOL0     H47505   7.496   3.748   5.397 -0.1822  0.7974 -1.0267
  352MOL0     H47506   8.523   3.364   5.634 -0.4606  1.7679 -1.2160
  352MOL0     H47507   8.737   3.489   5.695 -1.9736 -4.1601  3.8606
  352MOL0     H47508   9.253   3.315   5.829 -2.4950 -0.1872 -1.0613
  352MOL0     H47509   9.430   3.456   5.937 -0.1346 -0.1161  0.6446
  352MOL0     H47510   9.526   3.649   6.062  0.2270  1.1923  0.2119
  352MOL0     H47511   9.620   3.563   5.933 -0.7270 -1.1933  2.0933
  352MOL0     H47512   9.663   3.845   6.031 -0.4163 -0.3503 -0.8635
  352MOL0     H47513   9.738   3.775   5.895 -2.1430  0.3669 -0.9982
  352MOL0     H47514   9.729   3.668   6.197 -2.0366 -0.8527 -0.3835
  352MOL0     H47515   9.850   3.785   6.154 -2.4072  0.4456  1.1369
  352MOL0     H47516   9.975   3.578   6.142  1.7876  0.5363 -1.0863
  352MOL0     H47517   9.939   3.605   5.976  0.3945 -1.1476 -0.0691
  352MOL0     H47518   9.763   3.237   6.010  0.3828 -0.3471 -1.6470
  352MOL0     H47519   9.296   3.800   5.748  1.0353 -0.3603 -2.2698
  352MOL0     H47520   9.114   3.668   5.627 -0.9013 -0.0616  2.6476
  353MOL0     O47521  10.443   6.873  11.432 -0.3858 -0.7274 -0.3240
  353MOL0     C47522  10.336   6.826  11.398 -0.2067  0.3388 -0.1930
  353MOL0     O47523  10.300   6.770  11.276 -1.0317  0.4444  1.1174
  353MOL0     C47524  10.406   6.724  11.196 -0.5076 -0.7485  0.3563
  353MOL0     C47525  10.450   6.791  11.078  0.0507 -1.0348 -0.8905
  353MOL0     C47526  10.547   6.726  11.008  1.0154  0.5060 -0.1692
  353MOL0     C47527  10.605   6.598  11.044 -0.7594 -0.0971  0.0560
  353MOL0     O47528  10.698   6.535  10.972  0.3352 -1.0583  0.6890
  353MOL0     C47529  10.641   6.476  10.852  0.3628 -0.6045  0.3997
  353MOL0     C47530  10.720   6.354  10.806  0.0994  1.0955 -0.7687
  353MOL0     C47531  10.728   6.252  10.917  0.5980  0.3400 -1.0183
  353MOL0     C47532  10.783   6.116  10.854 -0.0032 -0.3001  1.2253
  353MOL0     C47533  10.807   6.002  10.956  0.7270 -0.0718  0.2451
  353MOL0     C47534  10.876   6.039  11.084  1.1034 -0.2400  0.7387
  353MOL0     C47535  10.921   5.916  11.163 -0.0652 -0.7645 -0.4141
  353MOL0     C47536  11.037   5.951  11.257  0.3084 -0.8446 -0.2281
  353MOL0     N47537  11.106   5.833  11.317  0.5897 -0.8786 -0.3719
  353MOL0     C47538  11.069   5.768  11.434 -0.0663  0.6821 -0.1274
  353MOL0     C47539  11.156   5.663  11.434  0.4595 -0.6078  0.0229
  353MOL0     C47540  11.161   5.546  11.525  1.0497 -0.5528  0.3594
  353MOL0     C47541  11.277   5.531  11.623  1.0876 -0.1116  0.1496
  353MOL0     C47542  11.233   5.580  11.765 -0.6986 -0.7627 -0.6533
  353MOL0     C47543  11.340   5.641  11.847 -0.4434 -0.0673 -0.2522
  353MOL0     O47544  11.419   5.532  11.893  0.1842  0.4494 -1.4479
  353MOL0     C47545  11.552   5.557  11.925 -0.4791 -0.4206  0.5526
  353MOL0     C47546  11.646   5.448  11.901 -0.1957  0.0579 -0.5896
  353MOL0     C47547  11.775   5.468  11.936 -0.0405 -0.4322 -0.9562
  353MOL0     C47548  11.878   5.357  11.914  0.4689  0.6013 -0.0950
  353MOL0     C47549  11.814   5.592  11.998  0.4645  0.0586  0.0253
  353MOL0     C47550  11.951   5.631  12.048 -0.7264 -0.4833  0.7519
  353MOL0     O47551  11.975   5.766  12.042 -0.5612 -0.8608 -0.1662
  353MOL0     C47552  12.069   5.822  12.135  0.0757 -0.7776  0.3366
  353MOL0     C47553  12.139   5.930  12.074  0.6322  0.5050  0.1811
  353MOL0     C47554  12.230   5.995  12.154  0.2669 -0.2863 -0.2970
  353MOL0     C47555  12.242   5.956  12.289 -0.2076  0.3413 -0.4289
  353MOL0     O47556  12.336   6.013  12.372 -0.7594  0.0021 -0.4266
  353MOL0     C47557  12.418   6.114  12.321 -0.0263 -0.8280 -0.0771
  353MOL0     C47558  12.485   6.183  12.435 -0.9147  0.0525  0.2532
  353MOL0     C47559  12.497   6.335  12.406 -1.2808 -1.1882 -0.4468
  353MOL0     C47560  12.572   6.375  12.277  0.8251 -0.4406 -1.1078
  353MOL0     C47561  12.610   6.529  12.253  0.8345  0.6112  0.2789
  353MOL0     C47562  12.488   6.609  12.186  0.9747  0.0182 -0.3157
  353MOL0     C47563  12.440   6.560  12.060  0.0621 -0.2725  0.3501
  353MOL0     C47564  12.335   6.650  12.011  0.0539  0.1475  0.4555
  353MOL0    Cl47565  12.260   6.571  11.873 -0.1072  0.0518 -0.3158
  353MOL0     C47566  12.165   5.856  12.349 -0.5479  0.2165 -0.1051
  353MOL0     C47567  12.077   5.784  12.272  0.0942  0.1793 -0.3835
  353MOL0     O47568  12.024   5.549  12.099 -0.4894 -0.8917  0.4016
  353MOL0     C47569  11.718   5.698  12.018 -0.7865 -0.5523  0.0363
  353MOL0     C47570  11.592   5.676  11.977  0.2232 -0.5650  0.5216
  353MOL0     N47571  11.250   5.675  11.335 -0.7714 -0.7433  0.2458
  353MOL0     N47572  11.219   5.773  11.262  0.8302 -0.2789  0.3610
  353MOL0     C47573  10.548   6.528  11.159 -0.4271 -0.1918  0.8213
  353MOL0     C47574  10.451   6.597  11.231  0.2902 -0.2065 -0.5113
  353MOL0     C47575  10.231   6.848  11.495  0.4761  0.7162  0.2192
  353MOL0     C47576  10.100   6.821  11.452 -0.4994 -0.1379  0.0213
  353MOL0     C47577   9.992   6.823  11.545 -0.5481 -0.1115 -0.6303
  353MOL0     C47578  10.022   6.836  11.684  0.1398 -0.8881  0.3004
  353MOL0     O47579   9.923   6.853  11.786  0.3591  0.1926  0.5006
  353MOL0     C47580   9.784   6.877  11.742  0.4238  0.6349  0.4352
  353MOL0     C47581   9.699   6.923  11.865 -0.7931  0.4641  0.0663
  353MOL0     C47582   9.558   6.962  11.820 -1.0948  0.7937 -0.1055
  353MOL0     C47583   9.469   6.992  11.946 -0.6789  0.0614 -0.1147
  353MOL0     C47584   9.510   7.114  12.022  0.4721  0.1836  0.0420
  353MOL0     C47585   9.570   7.202  12.081  0.7137  1.1463  1.0697
  353MOL0     C47586  10.153   6.862  11.719 -0.0021 -0.0541 -0.1622
  353MOL0     C47587  10.256   6.871  11.631  0.3118 -0.5950  0.2581
  353MOL0     H47588  10.427   6.897  11.070  1.9399 -0.1806  2.8182
  353MOL0     H47589  10.584   6.781  10.922  0.6420  0.3566 -0.4317
  353MOL0     H47590  10.534   6.454  10.861  0.2511 -0.4911 -0.5023
  353MOL0     H47591  10.653   6.543  10.766 -0.9939 -2.5700 -1.4297
  353MOL0     H47592  10.670   6.294  10.729 -0.3924 -0.9116  1.0209
  353MOL0     H47593  10.816   6.383  10.762  0.9433 -0.2719  0.1171
  353MOL0     H47594  10.802   6.282  10.992  1.4636 -1.7689 -0.9652
  353MOL0     H47595  10.631   6.229  10.961  1.6413  0.3060  1.4218
  353MOL0     H47596  10.716   6.087  10.773 -0.0753  1.0956  0.7612
  353MOL0     H47597  10.876   6.138  10.800 -0.7904 -1.6408 -0.7907
  353MOL0     H47598  10.707   5.967  10.984  1.3895 -2.7125 -0.4114
  353MOL0     H47599  10.860   5.914  10.919 -1.3125 -3.2028  4.0114
  353MOL0     H47600  10.966   6.093  11.055  0.8701  1.7261  3.3188
  353MOL0     H47601  10.806   6.098  11.144 -0.9241  2.6144 -3.8343
  353MOL0     H47602  10.834   5.889  11.224  0.6724 -0.4858  0.7916
  353MOL0     H47603  10.962   5.833  11.104  1.9009 -2.0678  2.5455
  353MOL0     H47604  10.996   6.025  11.325 -1.7718 -1.6733 -0.4875
  353MOL0     H47605  11.109   6.008  11.198  2.1533 -0.6547  2.0876
  353MOL0     H47606  10.978   5.784  11.491  0.3750 -0.5605  0.9838
  353MOL0     H47607  11.074   5.526  11.589 -0.0583  0.9388 -0.6302
  353MOL0     H47608  11.163   5.461  11.456 -2.3011  0.3961 -1.0996
  353MOL0     H47609  11.360   5.594  11.590  2.2864 -1.0749  1.2486
  353MOL0     H47610  11.305   5.426  11.616  1.3446 -0.0397  0.0750
  353MOL0     H47611  11.184   5.502  11.825 -2.4944  2.0161  1.7877
  353MOL0     H47612  11.157   5.657  11.753  0.6470  0.2479 -3.3616
  353MOL0     H47613  11.297   5.699  11.929  1.0386 -2.0529  2.0787
  353MOL0     H47614  11.398   5.709  11.784 -0.6993 -0.6442 -1.1294
  353MOL0     H47615  11.619   5.359  11.845 -0.4251 -1.5871  1.9337
  353MOL0     H47616  11.910   5.314  12.009  1.4398 -6.2018 -2.9214
  353MOL0     H47617  11.828   5.278  11.858  1.0340 -1.0375  1.6078
  353MOL0     H47618  11.964   5.377  11.850 -0.3583  0.2371 -1.3583
  353MOL0     H47619  12.121   5.939  11.968  2.8535 -1.8985 -0.5079
  353MOL0     H47620  12.282   6.075  12.102  2.5017 -1.6977 -0.3616
  353MOL0     H47621  12.484   6.076  12.243 -2.5769 -3.1108 -1.2972
  353MOL0     H47622  12.364   6.193  12.268  3.4288 -1.5516 -5.3659
  353MOL0     H47623  12.431   6.170  12.529  0.6363  1.2048  1.3571
  353MOL0     H47624  12.587   6.146  12.455 -1.1017 -2.6158 -2.8476
  353MOL0     H47625  12.548   6.389  12.486 -4.4820  1.3757  0.0567
  353MOL0     H47626  12.406   6.394  12.403 -0.6427 -0.2341 -1.4837
  353MOL0     H47627  12.665   6.319  12.280  1.2784  0.3410  1.4200
  353MOL0     H47628  12.515   6.338  12.191 -2.5118 -1.7057  1.4157
  353MOL0     H47629  12.694   6.523  12.184  1.2087 -1.1129  0.8487
  353MOL0     H47630  12.640   6.567  12.351 -1.5414 -2.0364  2.1658
  353MOL0     H47631  12.399   6.595  12.248  0.4458 -0.4243 -1.1616
  353MOL0     H47632  12.513   6.716  12.189 -3.9059  1.3521  1.2632
  353MOL0     H47633  12.383   6.470  12.084 -0.3142  0.3628  2.0273
  353MOL0     H47634  12.521   6.543  11.989  0.7542  0.7665  0.8510
  353MOL0     H47635  12.378   6.748  11.987  1.3247 -0.5758 -0.3861
  353MOL0     H47636  12.260   6.676  12.086 -1.8927 -2.7775 -0.3282
  353MOL0     H47637  12.178   5.822  12.451  0.1683  1.5705  0.2743
  353MOL0     H47638  12.014   5.702  12.306 -0.0351  0.6908  0.6584
  353MOL0     H47639  11.747   5.792  12.064  0.5688 -0.5889 -0.6972
  353MOL0     H47640  11.522   5.759  11.988 -1.0320 -1.2910 -1.4732
  353MOL0     H47641  10.592   6.431  11.181  0.1362 -0.7740 -2.4435
  353MOL0     H47642  10.415   6.546  11.319  0.2367  1.3515  0.4082
  353MOL0     H47643  10.067   6.817  11.348  0.6084  1.8187 -0.4677
  353MOL0     H47644   9.892   6.792  11.518  0.3903 -1.3390 -3.0296
  353MOL0     H47645   9.768   6.951  11.663  0.4972 -2.0415 -2.2687
  353MOL0     H47646   9.740   6.780  11.717 -2.5141  1.0215  3.3971
  353MOL0     H47647   9.755   6.994  11.928  1.3284 -1.1205  0.0792
  353MOL0     H47648   9.678   6.833  11.924  0.5732  0.2162  0.2048
  353MOL0     H47649   9.499   6.886  11.769  1.0243 -0.2559 -1.1335
  353MOL0     H47650   9.577   7.054  11.764  1.6227 -0.4258 -1.3663
  353MOL0     H47651   9.470   6.906  12.013 -0.1113 -0.5067 -0.8417
  353MOL0     H47652   9.368   6.992  11.905  0.3971 -1.7465 -3.1081
  353MOL0     H47653   9.644   7.264  12.127  2.6572  2.2808 -3.0568
  353MOL0     H47654  10.182   6.877  11.822  0.1382 -0.8691 -0.0727
  353MOL0     H47655  10.357   6.887  11.669  0.1283  0.2835  0.4072
  354MOL0     O47656   5.639   9.480   9.179  0.1000  0.3824 -0.2387
  354MOL0     C47657   5.531   9.524   9.213 -0.0784 -0.7155  0.4946
  354MOL0     O47658   5.448   9.604   9.136 -0.7427  0.3713 -0.2112
  354MOL0     C47659   5.468   9.641   9.003  0.2466 -0.6806  0.7065
  354MOL0     C47660   5.425   9.764   8.956 -0.3710  0.4155  0.3081
  354MOL0     C47661   5.428   9.796   8.820 -0.1628 -0.7640 -0.0685
  354MOL0     C47662   5.484   9.709   8.718  0.0735 -0.2145 -0.1956
  354MOL0     O47663   5.480   9.752   8.592 -0.5348  0.3101 -0.1821
  354MOL0     C47664   5.600   9.737   8.516 -0.7418 -0.7211 -0.2467
  354MOL0     C47665   5.562   9.672   8.383 -0.5431 -0.0690  0.1706
  354MOL0     C47666   5.434   9.741   8.329 -0.5664  0.2772  0.4952
  354MOL0     C47667   5.393   9.706   8.181  0.0954  0.2546  0.4312
  354MOL0     C47668   5.405   9.560   8.153  0.2625  0.2147  0.4219
  354MOL0     C47669   5.355   9.524   8.011  0.4069 -0.6608  1.0995
  354MOL0     C47670   5.208   9.536   7.998  0.5567 -0.1136 -0.0195
  354MOL0     C47671   5.159   9.511   7.856 -0.2724  0.3662 -0.6363
  354MOL0     N47672   5.016   9.513   7.851 -0.1856  0.3731  0.2294
  354MOL0     C47673   4.935   9.421   7.902  0.0176 -0.3301 -0.0777
  354MOL0     C47674   4.812   9.438   7.856 -0.4973 -0.3834  0.6738
  354MOL0     C47675   4.694   9.352   7.870  0.0037  0.1892 -0.8757
  354MOL0     C47676   4.561   9.420   7.912 -1.3801 -0.0482 -0.9438
  354MOL0     C47677   4.435   9.345   7.949  0.2959 -0.4949  0.6277
  354MOL0     C47678   4.395   9.230   7.853  0.5420  0.7712 -0.0082
  354MOL0     O47679   4.417   9.272   7.719 -0.1136 -0.0406 -1.1945
  354MOL0     C47680   4.360   9.198   7.621 -0.3476  1.0747  0.1592
  354MOL0     C47681   4.288   9.083   7.631 -0.1324  0.5245  1.5219
  354MOL0     C47682   4.249   9.005   7.522  0.0502 -0.3458  0.5449
  354MOL0     C47683   4.187   8.871   7.540  0.1048 -0.1685 -0.3757
  354MOL0     C47684   4.269   9.062   7.392 -0.3818  0.0790  0.2468
  354MOL0     C47685   4.229   8.997   7.264  0.4685  0.2537 -0.2565
  354MOL0     O47686   4.246   9.063   7.148  0.4291 -0.6388  1.0522
  354MOL0     C47687   4.139   9.070   7.056 -0.9134 -0.0662 -1.0998
  354MOL0     C47688   4.165   9.084   6.917 -0.1489  0.9779 -0.6044
  354MOL0     C47689   4.077   9.132   6.823  0.0303 -0.4517  0.1454
  354MOL0     C47690   3.938   9.135   6.860  0.4508 -0.1533  0.6086
  354MOL0     O47691   3.847   9.140   6.759  0.1243 -0.6465 -1.2118
  354MOL0     C47692   3.777   9.260   6.760 -0.3148  0.3936 -0.1611
  354MOL0     C47693   3.745   9.304   6.619  0.2151 -0.3804  1.5440
  354MOL0     C47694   3.611   9.245   6.557  0.3415  0.3503 -0.1803
  354MOL0     C47695   3.621   9.089   6.570 -0.8231 -0.0386  0.2533
  354MOL0     C47696   3.529   9.017   6.470  1.1101  0.3195  0.1701
  354MOL0     C47697   3.558   8.860   6.458  0.3535 -0.2956 -0.7712
  354MOL0     C47698   3.471   8.798   6.346 -0.2871 -0.5245 -0.6492
  354MOL0     C47699   3.523   8.657   6.318  1.5228 -0.5596 -0.6661
  354MOL0    Cl47700   3.502   8.542   6.455  0.1798  0.0886  0.0592
  354MOL0     C47701   3.901   9.109   6.989  0.6270 -0.0014 -0.3435
  354MOL0     C47702   4.002   9.077   7.088  0.5913 -0.3569  0.5362
  354MOL0     O47703   4.162   8.898   7.270  0.5882  0.2119  0.0319
  354MOL0     C47704   4.329   9.185   7.381  0.4848  0.2802 -1.0598
  354MOL0     C47705   4.376   9.240   7.492  0.3635 -1.0376 -1.1067
  354MOL0     N47706   4.824   9.570   7.795 -0.3177  0.4490  0.2604
  354MOL0     N47707   4.948   9.607   7.792  0.6144  0.3731  0.7621
  354MOL0     C47708   5.547   9.599   8.770 -0.0056  0.4724  0.7933
  354MOL0     C47709   5.533   9.563   8.904  0.5257 -0.2062 -0.4833
  354MOL0     C47710   5.471   9.488   9.340  0.0573  0.4084  0.1500
  354MOL0     C47711   5.554   9.437   9.444 -0.9919  0.0160 -0.2164
  354MOL0     C47712   5.500   9.406   9.568  0.0026  0.1155 -0.5601
  354MOL0     C47713   5.369   9.418   9.599  0.2481 -1.2888  0.4505
  354MOL0     O47714   5.312   9.389   9.717  0.4182  0.0893  0.6285
  354MOL0     C47715   5.167   9.343   9.729 -0.3742  0.2138 -0.7622
  354MOL0     C47716   5.139   9.218   9.652  0.0368  0.5836 -0.5765
  354MOL0     C47717   5.218   9.089   9.676  0.1028  0.0803  0.4859
  354MOL0     C47718   5.371   9.094   9.637 -0.8429  1.2396 -0.4338
  354MOL0     C47719   5.432   8.975   9.692  0.8381 -0.0804 -0.3892
  354MOL0     C47720   5.472   8.877   9.755  0.7717  0.0709 -0.2046
  354MOL0     C47721   5.285   9.454   9.490  0.0405  1.0723  0.2654
  354MOL0     C47722   5.339   9.484   9.364 -0.1909 -0.5947 -0.8545
  354MOL0     H47723   5.366   9.832   9.017  1.1682  1.2776  0.8742
  354MOL0     H47724   5.388   9.886   8.775 -0.3469 -1.9923 -2.5348
  354MOL0     H47725   5.624   9.843   8.509 -2.7246 -0.2241 -0.0499
  354MOL0     H47726   5.674   9.674   8.567  0.2564 -1.8676 -2.9287
  354MOL0     H47727   5.647   9.665   8.314  1.2232 -2.6287  2.4061
  354MOL0     H47728   5.552   9.566   8.410  3.4124 -1.7213 -3.4457
  354MOL0     H47729   5.352   9.719   8.397 -0.4762 -2.0343 -0.0777
  354MOL0     H47730   5.470   9.845   8.329 -1.8163  0.8230 -2.3228
  354MOL0     H47731   5.287   9.728   8.165 -0.0741 -1.2963 -0.8051
  354MOL0     H47732   5.462   9.759   8.115  0.7124  2.4576  2.6759
  354MOL0     H47733   5.513   9.544   8.145  0.3581  1.6440 -1.7870
  354MOL0     H47734   5.357   9.495   8.227 -1.2237  1.2894  0.4427
  354MOL0     H47735   5.399   9.587   7.934  0.0307 -1.6567  0.0505
  354MOL0     H47736   5.384   9.422   7.984 -0.9228 -0.0070 -3.6244
  354MOL0     H47737   5.167   9.473   8.078  1.8488  1.0020  1.5845
  354MOL0     H47738   5.175   9.637   8.023 -0.5137 -0.9400  2.1792
  354MOL0     H47739   5.206   9.421   7.815  0.3922  1.0328 -1.3637
  354MOL0     H47740   5.198   9.590   7.791 -1.5540  0.6492 -1.0836
  354MOL0     H47741   4.974   9.333   7.952 -2.5602 -2.6062 -1.7898
  354MOL0     H47742   4.676   9.301   7.775 -3.7243 -1.7743  0.6812
  354MOL0     H47743   4.717   9.281   7.950 -0.9833  1.0145  0.1749
  354MOL0     H47744   4.533   9.485   7.828  2.9278  1.7373 -1.2475
  354MOL0     H47745   4.589   9.477   8.001  2.5350  0.7173 -2.4518
  354MOL0     H47746   4.357   9.421   7.947  0.5339 -0.2118  1.4163
  354MOL0     H47747   4.433   9.311   8.053  2.6767 -0.4293  0.7661
  354MOL0     H47748   4.293   9.198   7.878  1.9931 -3.6976  1.0645
  354MOL0     H47749   4.473   9.155   7.866  0.5325  0.9432  1.2014
  354MOL0     H47750   4.272   9.042   7.730 -2.1972 -0.8201  0.6921
  354MOL0     H47751   4.174   8.839   7.644 -3.3988 -0.4987 -0.7984
  354MOL0     H47752   4.083   8.882   7.506  0.4741  2.6840 -0.8007
  354MOL0     H47753   4.235   8.793   7.479 -0.2736  0.1107 -1.0443
  354MOL0     H47754   4.270   9.069   6.895 -0.2195 -0.3742 -0.0664
  354MOL0     H47755   4.104   9.131   6.718  1.3517  0.7492  0.4435
  354MOL0     H47756   3.683   9.231   6.808 -2.2924  1.6890 -2.9876
  354MOL0     H47757   3.831   9.332   6.822  0.4793 -0.4463  0.1542
  354MOL0     H47758   3.738   9.413   6.617 -0.9951 -0.4176 -1.4413
  354MOL0     H47759   3.821   9.279   6.544 -2.2284  0.4556 -1.4257
  354MOL0     H47760   3.589   9.270   6.453  0.5689 -0.6249 -0.4690
  354MOL0     H47761   3.528   9.286   6.615  1.6915  1.2374  1.2459
  354MOL0     H47762   3.725   9.064   6.546 -0.8285  1.1322 -1.1100
  354MOL0     H47763   3.595   9.055   6.671  1.3678 -1.3395  0.4486
  354MOL0     H47764   3.537   9.072   6.376  2.6397 -0.0480  0.0563
  354MOL0     H47765   3.430   9.031   6.513  0.5790 -2.9789  0.2331
  354MOL0     H47766   3.657   8.855   6.412  0.7466 -2.7021  0.2127
  354MOL0     H47767   3.546   8.809   6.554  0.9930  0.6791 -0.1547
  354MOL0     H47768   3.475   8.850   6.250 -0.6630  1.5373  0.3965
  354MOL0     H47769   3.364   8.807   6.366 -0.4407 -3.3636  0.2693
  354MOL0     H47770   3.631   8.667   6.307  1.6910  2.0945  2.0089
  354MOL0     H47771   3.474   8.620   6.228  0.4116  1.0287 -0.7577
  354MOL0     H47772   3.795   9.093   7.000  0.9320 -3.9584 -1.3787
  354MOL0     H47773   3.980   9.067   7.194 -0.1029 -0.1103  0.4184
  354MOL0     H47774   4.356   9.238   7.290  2.3334 -0.5289 -1.0285
  354MOL0     H47775   4.435   9.330   7.479 -3.9675  2.4046  0.4662
  354MOL0     H47776   5.603   9.524   8.714 -0.0780 -0.2490  1.6699
  354MOL0     H47777   5.563   9.462   8.930  3.1463  0.2958 -1.2792
  354MOL0     H47778   5.660   9.418   9.426 -0.2198 -0.6897  3.9321
  354MOL0     H47779   5.562   9.366   9.648 -2.4831 -1.2973  0.7703
  354MOL0     H47780   5.164   9.316   9.835  0.7593 -0.3846 -0.8689
  354MOL0     H47781   5.099   9.425   9.702  1.2100  2.2792  1.1334
  354MOL0     H47782   5.138   9.233   9.544  1.0697  2.6885 -0.3308
  354MOL0     H47783   5.039   9.188   9.685  0.7323 -2.1656 -0.7371
  354MOL0     H47784   5.168   9.017   9.611  0.0330  1.0738 -0.5892
  354MOL0     H47785   5.211   9.069   9.784  1.6490 -2.0649  0.2602
  354MOL0     H47786   5.414   9.175   9.696 -1.5042  0.1850  1.6043
  354MOL0     H47787   5.395   9.109   9.532 -2.9788  1.5923 -0.9298
  354MOL0     H47788   5.516   8.796   9.808 -0.1609 -1.0998 -1.1668
  354MOL0     H47789   5.180   9.463   9.514 -0.0547  2.0366 -0.4723
  354MOL0     H47790   5.260   9.518   9.296  0.9875  0.4008 -1.7814
  355MOL0     O47791   9.446   2.431   8.250 -0.6006  0.0062 -0.2671
  355MOL0     C47792   9.430   2.439   8.131 -1.7716  0.0161  0.1282
  355MOL0     O47793   9.322   2.468   8.073 -0.0386 -0.5083  0.4950
  355MOL0     C47794   9.211   2.494   8.146  0.2257  0.0812  0.5526
  355MOL0     C47795   9.138   2.393   8.211  1.0312  0.6328  0.4753
  355MOL0     C47796   9.014   2.414   8.262 -0.2443 -0.1733 -0.9870
  355MOL0     C47797   8.958   2.545   8.260  0.0303  1.0026 -0.5371
  355MOL0     O47798   8.828   2.573   8.293 -0.1069  0.4772 -0.3397
  355MOL0     C47799   8.740   2.466   8.333 -0.5116 -0.7125  1.0227
  355MOL0     C47800   8.638   2.537   8.415 -0.0491  0.2674  0.5955
  355MOL0     C47801   8.560   2.425   8.496  0.7892 -1.1448 -0.1322
  355MOL0     C47802   8.461   2.353   8.398  0.3521  0.2645 -0.7874
  355MOL0     C47803   8.341   2.282   8.470 -0.7239  0.6337  0.1936
  355MOL0     C47804   8.371   2.130   8.523  0.0792 -1.0346  0.5744
  355MOL0     C47805   8.350   2.109   8.671 -0.5626  0.8900 -1.2006
  355MOL0     C47806   8.461   2.183   8.761 -0.4881 -0.5599 -0.3482
  355MOL0     N47807   8.412   2.230   8.892  0.6460  0.6092 -0.5325
  355MOL0     C47808   8.501   2.252   8.995 -0.3582 -0.3959 -0.3717
  355MOL0     C47809   8.434   2.326   9.085 -0.7132 -0.6219  1.0424
  355MOL0     C47810   8.513   2.394   9.197 -0.2393  0.1681  0.9359
  355MOL0     C47811   8.566   2.279   9.281  0.0984  0.1732 -0.7276
  355MOL0     C47812   8.603   2.310   9.423 -0.2759 -0.8149 -0.0315
  355MOL0     C47813   8.733   2.401   9.432 -0.4503 -0.0129  0.6085
  355MOL0     O47814   8.697   2.526   9.368  0.5054  0.7330  0.4159
  355MOL0     C47815   8.791   2.629   9.378 -0.2600  0.6687  0.5139
  355MOL0     C47816   8.750   2.756   9.342  1.1191  0.6091 -0.0244
  355MOL0     C47817   8.833   2.870   9.341  0.1746 -0.2648  0.1265
  355MOL0     C47818   8.764   2.998   9.308  0.5658 -0.2296 -0.4868
  355MOL0     C47819   8.972   2.855   9.381  0.2676  0.1774 -0.1387
  355MOL0     C47820   9.067   2.969   9.389  0.0079  0.6286  0.5933
  355MOL0     O47821   9.172   2.952   9.472  0.4325 -0.3999 -0.7233
  355MOL0     C47822   9.274   3.038   9.488 -0.1006  0.1902  0.2410
  355MOL0     C47823   9.394   2.984   9.535 -0.1898 -0.2659 -0.3108
  355MOL0     C47824   9.501   3.064   9.574 -0.3678  0.4160 -0.5884
  355MOL0     C47825   9.492   3.203   9.567 -0.0520  0.1755  1.2704
  355MOL0     O47826   9.585   3.298   9.588  0.2678  0.1486 -0.0120
  355MOL0     C47827   9.685   3.263   9.677  0.2377  0.1770  0.3486
  355MOL0     C47828   9.746   3.383   9.741 -0.7599  0.4346 -0.9478
  355MOL0     C47829   9.801   3.333   9.880  0.5728  0.7922  0.3935
  355MOL0     C47830   9.878   3.437   9.956 -0.5887  0.3098 -1.0123
  355MOL0     C47831   9.961   3.359  10.070  0.4000  0.3760 -0.0652
  355MOL0     C47832  10.027   3.447  10.177  0.9251 -0.0146 -0.4619
  355MOL0     C47833  10.083   3.355  10.294  0.2161  0.2605 -1.2922
  355MOL0     C47834  10.198   3.418  10.364  0.6314 -0.6543 -0.2728
  355MOL0    Cl47835  10.276   3.285  10.457  0.1879 -0.3002  0.2332
  355MOL0     C47836   9.373   3.257   9.520  0.2121  0.0108  0.3368
  355MOL0     C47837   9.268   3.178   9.482  0.2366  0.2706  0.1029
  355MOL0     O47838   9.062   3.062   9.308  0.0279  0.5569 -0.3866
  355MOL0     C47839   9.017   2.726   9.411  0.4088  0.7616 -0.3254
  355MOL0     C47840   8.927   2.615   9.413 -0.0714  0.3479  0.0132
  355MOL0     N47841   8.300   2.339   9.037  0.6086  0.3286 -0.3312
  355MOL0     N47842   8.290   2.284   8.915  0.2285 -0.2784  0.0779
  355MOL0     C47843   9.036   2.653   8.216  0.3555 -0.0403 -0.1604
  355MOL0     C47844   9.158   2.625   8.145  0.7799  0.0017  0.1210
  355MOL0     C47845   9.547   2.401   8.042  0.4671  0.5105  0.2861
  355MOL0     C47846   9.547   2.441   7.906  0.4113  0.0839 -0.6201
  355MOL0     C47847   9.658   2.425   7.822 -0.8294 -0.3398  0.4841
  355MOL0     C47848   9.768   2.342   7.859 -0.7532  0.3596 -0.0291
  355MOL0     O47849   9.886   2.330   7.791 -0.1597 -0.2946  0.2565
  355MOL0     C47850   9.909   2.420   7.683  0.5218 -0.1077  0.7938
  355MOL0     C47851  10.057   2.389   7.622  0.1571 -0.4517  0.9858
  355MOL0     C47852  10.076   2.240   7.610 -0.4697 -0.3235  0.6314
  355MOL0     C47853  10.196   2.218   7.524 -0.3984  0.1161  0.2116
  355MOL0     C47854  10.234   2.079   7.527 -0.3463  0.0553  1.5188
  355MOL0     C47855  10.280   1.961   7.531 -0.5515 -0.1514  0.6643
  355MOL0     C47856   9.766   2.286   7.994  0.6348  0.9709  1.5387
  355MOL0     C47857   9.656   2.325   8.081  0.0796  0.9709 -0.7805
  355MOL0     H47858   9.192   2.299   8.214 -0.2436 -0.1515 -0.2109
  355MOL0     H47859   8.972   2.324   8.307  3.1224 -0.9980  0.8799
  355MOL0     H47860   8.691   2.415   8.250 -0.0943  2.1138 -1.0959
  355MOL0     H47861   8.793   2.389   8.390  1.8950 -0.2838 -0.5069
  355MOL0     H47862   8.683   2.601   8.492 -1.8698  2.3377  0.0537
  355MOL0     H47863   8.570   2.597   8.355  0.9355  0.9780  0.1529
  355MOL0     H47864   8.632   2.348   8.527  0.1499 -2.8209 -2.4520
  355MOL0     H47865   8.508   2.474   8.579  0.0743  0.1993 -1.3276
  355MOL0     H47866   8.421   2.437   8.340 -2.0384 -0.4280 -0.2874
  355MOL0     H47867   8.510   2.285   8.328 -3.1265 -3.1614 -0.2540
  355MOL0     H47868   8.325   2.344   8.559  1.3308 -0.0104  1.0631
  355MOL0     H47869   8.249   2.258   8.415 -1.7212  0.7627  1.7269
  355MOL0     H47870   8.314   2.062   8.459  0.0475  1.3014 -2.1101
  355MOL0     H47871   8.478   2.122   8.503 -0.2980  1.1080 -3.2047
  355MOL0     H47872   8.252   2.142   8.708  0.9175  1.8657  2.2874
  355MOL0     H47873   8.361   2.001   8.682 -0.1797  1.0785  0.6673
  355MOL0     H47874   8.503   2.272   8.712 -3.0731  2.2938  2.1349
  355MOL0     H47875   8.539   2.111   8.782 -1.1415 -0.5442  2.5381
  355MOL0     H47876   8.608   2.236   9.003 -0.2965 -0.0105 -0.3781
  355MOL0     H47877   8.597   2.447   9.150  0.0889 -1.7589 -0.8040
  355MOL0     H47878   8.447   2.458   9.256 -0.0683 -0.3894  1.7417
  355MOL0     H47879   8.655   2.232   9.237 -0.4310 -0.9073 -0.6668
  355MOL0     H47880   8.500   2.192   9.287  0.6682 -0.5330 -3.3474
  355MOL0     H47881   8.629   2.218   9.476  1.1553 -1.3091 -1.5083
  355MOL0     H47882   8.521   2.359   9.476  0.8567 -0.3027  1.3085
  355MOL0     H47883   8.813   2.354   9.374 -2.2156  0.3436 -2.3462
  355MOL0     H47884   8.758   2.412   9.537  1.6597  0.9616  0.0461
  355MOL0     H47885   8.650   2.767   9.301  0.4570 -0.0661  1.3433
  355MOL0     H47886   8.791   3.049   9.214 -2.3095  1.3853 -0.5599
  355MOL0     H47887   8.654   2.998   9.306  0.3671  3.4771  1.5793
  355MOL0     H47888   8.775   3.067   9.392 -4.2030  0.2847 -0.0017
  355MOL0     H47889   9.412   2.877   9.532  1.4968 -0.0035 -0.5937
  355MOL0     H47890   9.597   3.017   9.594 -0.9709 -0.2470  0.8683
  355MOL0     H47891   9.652   3.193   9.753  2.7309  0.2054  1.5531
  355MOL0     H47892   9.767   3.213   9.624  0.3003 -0.1858  0.7876
  355MOL0     H47893   9.824   3.423   9.676  1.6479 -2.9142 -0.3683
  355MOL0     H47894   9.668   3.455   9.770  0.6508  2.1280 -1.1829
  355MOL0     H47895   9.859   3.243   9.861 -2.1407 -0.4697 -2.9947
  355MOL0     H47896   9.725   3.293   9.948  2.1184 -0.6908  1.3182
  355MOL0     H47897   9.938   3.492   9.883 -0.0138 -1.9958 -2.3697
  355MOL0     H47898   9.813   3.510  10.007  1.1607 -0.4596  2.6546
  355MOL0     H47899  10.039   3.301  10.020 -1.7402 -1.7557 -1.1690
  355MOL0     H47900   9.905   3.271  10.106  0.2909 -0.8994 -3.0296
  355MOL0     H47901  10.114   3.498  10.137  1.0372 -0.5294 -0.8898
  355MOL0     H47902   9.957   3.521  10.217  0.8405 -0.0011 -0.6360
  355MOL0     H47903  10.095   3.251  10.262  0.0859  0.4461 -1.9533
  355MOL0     H47904  10.007   3.347  10.372  0.9750 -0.5763 -0.6045
  355MOL0     H47905  10.154   3.489  10.434  2.4562 -1.4262  1.7865
  355MOL0     H47906  10.267   3.456  10.288  3.5021  0.3774  2.5948
  355MOL0     H47907   9.366   3.365   9.521 -0.4239  0.0783  4.2707
  355MOL0     H47908   9.178   3.226   9.446 -0.6722 -2.6638 -1.8955
  355MOL0     H47909   9.120   2.704   9.437 -0.1138  0.3473  1.5595
  355MOL0     H47910   8.972   2.518   9.434 -0.4940 -0.4199 -2.2431
  355MOL0     H47911   9.001   2.756   8.221  2.9341  0.9007  0.1547
  355MOL0     H47912   9.208   2.706   8.095  1.9615  0.5040  2.0171
  355MOL0     H47913   9.458   2.495   7.876 -1.7154 -3.0216 -0.3618
  355MOL0     H47914   9.648   2.476   7.726 -1.5692 -0.1497  0.6529
  355MOL0     H47915   9.832   2.404   7.607  1.2385 -0.7055  0.1736
  355MOL0     H47916   9.919   2.520   7.726  2.5885 -0.8798  2.3003
  355MOL0     H47917  10.139   2.432   7.680  0.7452  0.0534 -0.1749
  355MOL0     H47918  10.057   2.437   7.523 -2.9992 -1.1605  0.5140
  355MOL0     H47919   9.987   2.196   7.562 -0.9486 -1.0428  2.1280
  355MOL0     H47920  10.099   2.197   7.708 -0.5975  1.1044  1.2979
  355MOL0     H47921  10.279   2.277   7.564 -0.9694  1.4232 -0.4920
  355MOL0     H47922  10.176   2.242   7.420 -2.2578 -0.7153  0.3276
  355MOL0     H47923  10.307   1.858   7.536  0.5963 -0.0516 -1.7444
  355MOL0     H47924   9.845   2.216   8.020  0.4609 -0.3424 -1.1276
  355MOL0     H47925   9.652   2.270   8.175 -1.1209  0.3553 -1.1754
  356MOL0     O47926   6.965   7.072   3.295 -0.1708 -0.5748 -0.4786
  356MOL0     C47927   6.952   7.189   3.257 -0.5843  0.0726 -0.2572
  356MOL0     O47928   6.905   7.296   3.334  0.2830  0.0292 -0.0778
  356MOL0     C47929   6.860   7.307   3.462 -0.9150  0.0556  0.0679
  356MOL0     C47930   6.821   7.435   3.505  0.5134  0.8199 -0.3551
  356MOL0     C47931   6.763   7.457   3.632 -0.3958  0.7440  0.4573
  356MOL0     C47932   6.751   7.353   3.723 -0.0172 -0.5677 -0.1871
  356MOL0     O47933   6.714   7.366   3.853 -0.2269  0.0447 -0.1941
  356MOL0     C47934   6.804   7.330   3.956 -0.0146  1.0898  0.0427
  356MOL0     C47935   6.879   7.450   4.006  0.6669 -0.3552 -0.0055
  356MOL0     C47936   6.938   7.432   4.147 -0.4696  0.3183  0.2950
  356MOL0     C47937   6.841   7.395   4.254  0.2127 -0.3948  0.4028
  356MOL0     C47938   6.765   7.532   4.288 -0.5474  0.4803 -0.4740
  356MOL0     C47939   6.701   7.527   4.428 -0.4556  0.3516  0.3921
  356MOL0     C47940   6.577   7.619   4.431 -0.4597  0.2823 -0.5714
  356MOL0     C47941   6.547   7.700   4.559  0.0636  0.2459  0.7030
  356MOL0     N47942   6.436   7.800   4.542 -0.2863  0.3468  0.8193
  356MOL0     C47943   6.464   7.938   4.533 -1.2094  0.1679  0.0167
  356MOL0     C47944   6.342   7.995   4.550 -0.9233 -0.4241 -0.0478
  356MOL0     C47945   6.323   8.137   4.580 -0.2529  0.5333 -0.4924
  356MOL0     C47946   6.191   8.185   4.646  0.2580  0.1364  0.6661
  356MOL0     C47947   6.064   8.217   4.557 -0.1695  0.7527 -0.8713
  356MOL0     C47948   5.944   8.284   4.621 -0.1122  0.2374 -0.5334
  356MOL0     O47949   5.938   8.260   4.764 -1.0409  0.5628  0.1468
  356MOL0     C47950   5.820   8.226   4.815  0.9077 -0.0852 -0.3482
  356MOL0     C47951   5.698   8.260   4.766 -0.7371  0.3023  0.8446
  356MOL0     C47952   5.576   8.231   4.833 -0.2344 -0.4932 -0.7394
  356MOL0     C47953   5.444   8.296   4.785  0.1315  0.6462 -0.3055
  356MOL0     C47954   5.577   8.146   4.948 -0.0715  0.5118  0.9011
  356MOL0     C47955   5.461   8.100   5.026 -1.1087 -0.7830 -0.2083
  356MOL0     O47956   5.481   7.989   5.104 -0.3891 -0.3877 -0.4509
  356MOL0     C47957   5.412   7.975   5.217  0.1970  0.6141  0.1725
  356MOL0     C47958   5.314   8.057   5.278 -0.2325 -0.1742  0.8218
  356MOL0     C47959   5.245   8.008   5.390 -0.6398  0.1852  0.2526
  356MOL0     C47960   5.266   7.881   5.454 -0.6112  0.1435  0.4765
  356MOL0     O47961   5.212   7.841   5.570 -0.8675 -0.3395 -0.0513
  356MOL0     C47962   5.180   7.944   5.672 -0.1786  0.8583 -0.3477
  356MOL0     C47963   5.143   7.885   5.806 -0.2162  0.5322  0.1274
  356MOL0     C47964   5.264   7.870   5.899  0.0606  0.6846  0.0936
  356MOL0     C47965   5.241   7.767   6.006  0.8579 -0.5237 -0.1416
  356MOL0     C47966   5.362   7.709   6.069  0.5179 -0.4495  0.3865
  356MOL0     C47967   5.441   7.822   6.141 -0.5515 -0.1456 -0.4459
  356MOL0     C47968   5.550   7.760   6.227 -0.7334  0.0574  0.1873
  356MOL0     C47969   5.624   7.855   6.324  0.2661 -0.2855 -0.2579
  356MOL0    Cl47970   5.746   7.944   6.236 -0.0277 -0.0360 -0.5027
  356MOL0     C47971   5.360   7.810   5.388  0.4239  0.0929  0.7402
  356MOL0     C47972   5.432   7.853   5.271  0.2292 -0.7928  0.0107
  356MOL0     O47973   5.370   8.188   5.029  0.0329  0.5523 -1.4472
  356MOL0     C47974   5.704   8.114   4.993  0.2881  0.0703  0.0707
  356MOL0     C47975   5.821   8.148   4.930 -0.3669 -0.8730 -0.6370
  356MOL0     N47976   6.254   7.888   4.572  0.2426 -0.3253 -0.2601
  356MOL0     N47977   6.310   7.782   4.569 -0.6543 -0.6205 -0.4134
  356MOL0     C47978   6.793   7.225   3.687 -0.3543 -0.3198 -0.5920
  356MOL0     C47979   6.838   7.200   3.554 -0.4656  0.7596  0.1898
  356MOL0     C47980   6.981   7.222   3.114  0.2204 -0.3959 -0.5998
  356MOL0     C47981   7.046   7.134   3.027 -0.4841  0.5732 -0.2678
  356MOL0     C47982   7.073   7.173   2.890 -0.4377 -0.2586  0.0531
  356MOL0     C47983   7.045   7.299   2.847 -0.7875 -0.6170 -0.1558
  356MOL0     O47984   7.091   7.340   2.729  0.7142  0.2742 -0.0638
  356MOL0     C47985   6.986   7.378   2.642  0.3248  0.0735 -0.5949
  356MOL0     C47986   7.051   7.410   2.506 -0.3199  0.0257 -0.3344
  356MOL0     C47987   6.994   7.345   2.379  0.9801 -0.5947 -0.0842
  356MOL0     C47988   7.103   7.315   2.274  0.3802 -1.1828 -0.2961
  356MOL0     C47989   7.119   7.436   2.186  0.7632 -0.2154 -0.2419
  356MOL0     C47990   7.125   7.542   2.127  0.0265 -0.4829  0.2912
  356MOL0     C47991   6.997   7.386   2.938  0.4487  0.4094  0.0223
  356MOL0     C47992   6.957   7.348   3.065  1.4362  0.4816  0.3607
  356MOL0     H47993   6.841   7.514   3.434  0.6637 -0.7548 -2.1549
  356MOL0     H47994   6.737   7.561   3.650  1.1849  1.6529 -2.0715
  356MOL0     H47995   6.750   7.273   4.032 -2.9449  0.4936 -2.2966
  356MOL0     H47996   6.874   7.252   3.924 -2.0838 -0.9590  0.2287
  356MOL0     H47997   6.959   7.469   3.935 -0.8584 -0.5475 -1.8515
  356MOL0     H47998   6.808   7.534   4.012 -2.8871 -3.1903  2.2135
  356MOL0     H47999   7.023   7.364   4.131 -0.7480 -0.4166  1.7696
  356MOL0     H48000   6.986   7.527   4.172 -0.4718  0.1794  0.8596
  356MOL0     H48001   6.774   7.312   4.231 -0.0709  0.2218 -1.1711
  356MOL0     H48002   6.908   7.364   4.334  1.6006  2.1627  0.3443
  356MOL0     H48003   6.839   7.612   4.289 -0.3734  0.3157  0.5716
  356MOL0     H48004   6.689   7.554   4.212 -2.2636  1.0962  1.3270
  356MOL0     H48005   6.673   7.422   4.439  2.8321 -0.7045 -0.2265
  356MOL0     H48006   6.766   7.541   4.515  1.7730  2.8538 -1.5070
  356MOL0     H48007   6.598   7.683   4.345 -0.3923 -2.3663 -2.6412
  356MOL0     H48008   6.491   7.558   4.405  1.6754 -2.2196 -2.2977
  356MOL0     H48009   6.633   7.763   4.582  0.3143 -0.0538  0.5910
  356MOL0     H48010   6.522   7.629   4.638 -0.2192 -1.9489 -1.2498
  356MOL0     H48011   6.563   7.981   4.544 -0.4786 -1.3921 -0.1836
  356MOL0     H48012   6.409   8.155   4.646 -0.6109  1.4088 -0.2531
  356MOL0     H48013   6.337   8.189   4.485 -0.3908  0.5659 -0.4952
  356MOL0     H48014   6.221   8.266   4.713  1.6109  1.4362 -1.3809
  356MOL0     H48015   6.152   8.105   4.709 -1.4239  0.9936  0.7591
  356MOL0     H48016   6.023   8.123   4.520 -0.5625  1.1868 -1.5542
  356MOL0     H48017   6.103   8.272   4.471  3.7655 -0.3843 -0.0417
  356MOL0     H48018   5.858   8.242   4.568 -0.2312 -1.7845  1.1359
  356MOL0     H48019   5.946   8.392   4.603 -2.6027  0.5175  0.5760
  356MOL0     H48020   5.689   8.318   4.674 -3.3164  0.2439  1.0100
  356MOL0     H48021   5.362   8.230   4.756  0.2034  0.5261 -0.2362
  356MOL0     H48022   5.413   8.380   4.848 -0.0584 -0.9137  1.7657
  356MOL0     H48023   5.483   8.341   4.693 -2.2437  2.2783 -0.5864
  356MOL0     H48024   5.289   8.155   5.239 -2.6260 -0.2186  2.0673
  356MOL0     H48025   5.165   8.057   5.444 -1.9730 -1.7124  0.1149
  356MOL0     H48026   5.271   8.004   5.682  0.8942 -1.0231  2.9174
  356MOL0     H48027   5.095   8.007   5.645 -1.7301 -1.8859 -2.3750
  356MOL0     H48028   5.068   7.948   5.855  0.6337  0.9598  0.8944
  356MOL0     H48029   5.109   7.784   5.781  1.2738  0.3357 -1.2686
  356MOL0     H48030   5.285   7.972   5.933  0.5322  1.0488 -1.2216
  356MOL0     H48031   5.349   7.842   5.836  0.5989 -2.2432  1.9233
  356MOL0     H48032   5.187   7.821   6.084  0.2971 -0.2444 -0.7114
  356MOL0     H48033   5.189   7.679   5.967  3.2861 -1.2428 -2.0416
  356MOL0     H48034   5.436   7.667   6.000  0.8382 -0.3248  0.6487
  356MOL0     H48035   5.336   7.627   6.137  2.0035  0.9422  2.8229
  356MOL0     H48036   5.479   7.904   6.080 -0.7626 -0.0890 -0.5023
  356MOL0     H48037   5.365   7.868   6.205 -0.6351  1.3117 -1.5538
  356MOL0     H48038   5.634   7.737   6.161  1.6708 -0.4887  3.2026
  356MOL0     H48039   5.516   7.670   6.279 -2.4626  0.2372 -0.5583
  356MOL0     H48040   5.672   7.796   6.403  0.0520  2.0449  1.7222
  356MOL0     H48041   5.548   7.908   6.381  1.1253 -0.4256  1.0629
  356MOL0     H48042   5.379   7.711   5.429  0.6244  0.8763  2.5967
  356MOL0     H48043   5.502   7.787   5.222  0.6124  0.5566 -1.3441
  356MOL0     H48044   5.721   8.054   5.081  1.8627 -2.8805 -2.0869
  356MOL0     H48045   5.922   8.121   4.960  1.6383  1.0485 -4.7895
  356MOL0     H48046   6.797   7.146   3.761  2.6085 -1.4829 -1.8267
  356MOL0     H48047   6.863   7.098   3.526  0.4725  0.4448  2.0611
  356MOL0     H48048   7.059   7.033   3.065 -1.4762  0.7286  0.5324
  356MOL0     H48049   7.105   7.095   2.822  1.3126 -1.9279  2.6417
  356MOL0     H48050   6.919   7.294   2.623  2.5963 -2.6132  2.1953
  356MOL0     H48051   6.923   7.457   2.683  1.7644  1.1814 -0.4354
  356MOL0     H48052   7.159   7.397   2.519 -0.1530  1.7625  0.3644
  356MOL0     H48053   7.041   7.518   2.488  1.9492  0.1332 -1.2563
  356MOL0     H48054   6.922   7.410   2.328 -1.1270 -3.4714 -1.0657
  356MOL0     H48055   6.937   7.260   2.418 -2.1216  1.8404  1.1220
  356MOL0     H48056   7.076   7.229   2.213 -1.4795 -0.4438 -0.5862
  356MOL0     H48057   7.194   7.289   2.329 -1.3621  1.0587  4.1876
  356MOL0     H48058   7.140   7.638   2.083  3.2208 -2.1931 -2.8099
  356MOL0     H48059   6.994   7.486   2.896 -1.7374  0.2653 -0.3165
  356MOL0     H48060   6.911   7.427   3.125 -2.9854 -1.6341  0.1686
  357MOL0     O48061   1.876   0.261   2.952  0.3228 -0.8161 -0.4411
  357MOL0     C48062   1.918   0.276   3.066 -0.0273 -0.5609  1.0599
  357MOL0     O48063   1.961   0.399   3.106  0.3328 -1.0234 -0.2766
  357MOL0     C48064   2.012   0.495   3.024  0.9351  0.4390 -0.0838
  357MOL0     C48065   2.149   0.508   3.014 -0.1106 -0.4766 -0.0487
  357MOL0     C48066   2.198   0.601   2.929  0.6604  0.5835  0.9650
  357MOL0     C48067   2.113   0.683   2.853  0.1465  0.5553 -0.2447
  357MOL0     O48068   2.172   0.773   2.785 -0.3047 -0.6005 -0.0360
  357MOL0     C48069   2.124   0.841   2.676 -0.1536  0.2128  0.2186
  357MOL0     C48070   2.220   0.941   2.615  0.6349 -1.0375 -0.4332
  357MOL0     C48071   2.257   1.057   2.713 -0.3742 -0.5833  0.3565
  357MOL0     C48072   2.381   1.137   2.658 -0.1267  0.7375 -0.0698
  357MOL0     C48073   2.366   1.234   2.537 -0.1506  0.5079 -1.3178
  357MOL0     C48074   2.235   1.305   2.527  0.3522 -1.5287  0.4998
  357MOL0     C48075   2.193   1.388   2.652 -0.2873  0.3463 -0.6624
  357MOL0     C48076   2.262   1.521   2.665  0.3940 -0.2506 -0.1392
  357MOL0     N48077   2.207   1.630   2.580  1.2831  0.0472 -1.0447
  357MOL0     C48078   2.237   1.766   2.593  0.0813  1.1426 -0.2822
  357MOL0     C48079   2.125   1.833   2.560  0.3248  0.2139  0.1233
  357MOL0     C48080   2.123   1.982   2.555 -0.0467  0.1789 -0.7829
  357MOL0     C48081   2.119   2.032   2.407  0.5739  0.2738 -0.9780
  357MOL0     C48082   2.138   2.186   2.403  0.0092  0.8169  0.4457
  357MOL0     C48083   2.006   2.251   2.453  0.3797  0.5829  0.7097
  357MOL0     O48084   1.969   2.359   2.366 -0.6946  1.3159  0.9761
  357MOL0     C48085   1.883   2.460   2.402  0.6995 -0.2927 -0.6125
  357MOL0     C48086   1.865   2.569   2.320  0.4396 -1.0338 -0.2156
  357MOL0     C48087   1.797   2.690   2.347 -0.9788 -0.5039 -0.2705
  357MOL0     C48088   1.790   2.807   2.250 -0.2794 -0.2685 -0.1068
  357MOL0     C48089   1.760   2.710   2.483 -0.2241 -0.3185 -0.1837
  357MOL0     C48090   1.687   2.830   2.539  0.0580 -0.1188  0.1551
  357MOL0     O48091   1.709   2.858   2.671  0.3816  0.2034 -0.3326
  357MOL0     C48092   1.666   2.979   2.725 -0.1518 -0.5116 -0.2375
  357MOL0     C48093   1.534   3.011   2.770 -0.2511 -0.7091 -0.2231
  357MOL0     C48094   1.511   3.142   2.826 -0.4508  0.3487 -1.0937
  357MOL0     C48095   1.605   3.244   2.823  0.4191 -0.3822  0.1101
  357MOL0     O48096   1.586   3.384   2.864  0.2715  0.8573 -0.4299
  357MOL0     C48097   1.514   3.409   2.979  0.1067  0.5223 -0.4237
  357MOL0     C48098   1.518   3.561   3.015  0.0960  0.4058  0.8802
  357MOL0     C48099   1.667   3.616   3.035  0.2022 -0.5199  0.2854
  357MOL0     C48100   1.670   3.763   3.068  0.0315 -0.5008  0.0858
  357MOL0     C48101   1.642   3.851   2.946  0.3251 -0.8327 -1.7341
  357MOL0     C48102   1.659   4.003   2.984  0.7768  0.7355  1.1523
  357MOL0     C48103   1.635   4.087   2.860 -1.0317  0.1425 -0.5644
  357MOL0     C48104   1.668   4.237   2.877 -0.0043 -0.3005 -0.9390
  357MOL0    Cl48105   1.594   4.335   2.751 -0.0866 -0.4179  0.2284
  357MOL0     C48106   1.730   3.216   2.772 -0.0275 -0.0976 -0.8033
  357MOL0     C48107   1.757   3.089   2.716  0.0845  0.7151  0.0040
  357MOL0     O48108   1.623   2.905   2.460 -0.4924 -0.5337 -0.3065
  357MOL0     C48109   1.775   2.601   2.568  0.0081  0.3987 -0.9245
  357MOL0     C48110   1.842   2.479   2.532 -0.3843 -0.8403  0.3149
  357MOL0     N48111   2.027   1.739   2.517 -0.1157  0.9321  0.7424
  357MOL0     N48112   2.084   1.624   2.527  0.1085 -0.3280  0.3452
  357MOL0     C48113   1.971   0.678   2.863  0.1041  0.2644  0.6785
  357MOL0     C48114   1.929   0.574   2.950 -0.0336 -0.6769 -0.2871
  357MOL0     C48115   1.929   0.161   3.152  0.2220 -0.5842 -0.1833
  357MOL0     C48116   1.894   0.038   3.104  0.2133 -0.8468  0.2586
  357MOL0     C48117   1.901  -0.066   3.192 -0.9410 -0.6033 -0.6166
  357MOL0     C48118   1.958  -0.059   3.321 -0.3991 -0.6572 -0.6364
  357MOL0     O48119   1.982  -0.176   3.378  0.0476  0.2208 -0.5210
  357MOL0     C48120   2.016  -0.204   3.518 -0.8558  0.1031  0.5338
  357MOL0     C48121   1.915  -0.146   3.611  0.4762 -0.0615  0.6768
  357MOL0     C48122   1.788  -0.226   3.630 -0.0839 -0.5648  0.0661
  357MOL0     C48123   1.815  -0.347   3.725  0.1806 -0.0137  0.3733
  357MOL0     C48124   1.835  -0.308   3.866 -0.2532  0.2457 -0.2709
  357MOL0     C48125   1.857  -0.269   3.984  0.1711 -0.5690 -0.4378
  357MOL0     C48126   2.000   0.066   3.368 -0.0863 -0.5031  0.7130
  357MOL0     C48127   1.979   0.178   3.286  0.0253 -0.2947  0.4227
  357MOL0     H48128   2.209   0.444   3.079 -0.5907 -0.7620  0.1221
  357MOL0     H48129   2.305   0.617   2.914  0.0551  3.3953 -1.1331
  357MOL0     H48130   2.112   0.766   2.596 -1.0714  2.6684 -2.0808
  357MOL0     H48131   2.028   0.890   2.693  0.4827  0.8693  2.1073
  357MOL0     H48132   2.310   0.890   2.581  0.9340  0.3995 -1.9005
  357MOL0     H48133   2.173   0.994   2.532 -0.3456  2.7611  2.2470
  357MOL0     H48134   2.169   1.119   2.735 -0.4371 -0.5317 -0.0453
  357MOL0     H48135   2.274   1.007   2.809  1.0412 -2.6432 -0.8926
  357MOL0     H48136   2.422   1.201   2.737 -0.6638 -1.4871  2.1382
  357MOL0     H48137   2.453   1.057   2.637  0.2636  0.0595  3.3054
  357MOL0     H48138   2.450   1.304   2.544  1.2993 -1.0696 -2.2575
  357MOL0     H48139   2.396   1.183   2.445 -2.1998 -1.0804 -1.1649
  357MOL0     H48140   2.238   1.371   2.439  3.6539 -3.5983 -1.1584
  357MOL0     H48141   2.160   1.227   2.512 -0.0085 -1.4916  2.0223
  357MOL0     H48142   2.085   1.404   2.643 -0.1539  0.6770 -1.8872
  357MOL0     H48143   2.218   1.336   2.745  0.8000  1.6556 -0.1813
  357MOL0     H48144   2.367   1.510   2.638 -0.6645 -0.8313 -4.8789
  357MOL0     H48145   2.248   1.547   2.771  1.0805  1.9718 -0.5485
  357MOL0     H48146   2.320   1.813   2.645  0.6711  0.1137 -0.2666
  357MOL0     H48147   2.036   2.026   2.605  1.6497  0.5995  2.0233
  357MOL0     H48148   2.218   2.014   2.599 -1.1613  0.1882  1.8064
  357MOL0     H48149   2.033   1.983   2.359  1.5203 -1.5750 -0.8813
  357MOL0     H48150   2.207   1.990   2.358  1.6640  1.0474  0.2488
  357MOL0     H48151   2.149   2.212   2.297  1.1426 -2.8424 -0.5058
  357MOL0     H48152   2.228   2.215   2.459 -1.0425  0.7925  2.2004
  357MOL0     H48153   2.021   2.296   2.552  0.9592 -2.3402  2.0770
  357MOL0     H48154   1.925   2.180   2.473 -0.9694  1.5287 -1.0807
  357MOL0     H48155   1.910   2.579   2.221  1.2352 -1.0822  0.1310
  357MOL0     H48156   1.812   2.796   2.144 -0.5292 -0.8781 -0.1012
  357MOL0     H48157   1.690   2.852   2.248 -0.2281 -0.1190  0.4993
  357MOL0     H48158   1.866   2.881   2.278  3.0247 -2.9754 -1.1792
  357MOL0     H48159   1.466   2.926   2.775  0.8986 -1.5738  1.5584
  357MOL0     H48160   1.422   3.164   2.885  0.9497  1.4360  0.7262
  357MOL0     H48161   1.409   3.381   2.968 -0.1174  0.5283  1.4042
  357MOL0     H48162   1.556   3.343   3.056 -0.3690  0.9031  0.1789
  357MOL0     H48163   1.470   3.622   2.937 -0.9521 -0.9070  0.4637
  357MOL0     H48164   1.457   3.592   3.100  0.7825  3.0633  0.5028
  357MOL0     H48165   1.723   3.588   2.945 -0.3931  2.4394 -1.1342
  357MOL0     H48166   1.707   3.566   3.123 -1.2927  0.7168  1.7253
  357MOL0     H48167   1.614   3.794   3.157 -2.1616  1.0401 -1.7188
  357MOL0     H48168   1.776   3.783   3.086 -0.2599  1.5522 -0.3330
  357MOL0     H48169   1.541   3.834   2.908 -1.6407  1.9099  1.6667
  357MOL0     H48170   1.714   3.827   2.867  1.5319  0.5639 -1.1042
  357MOL0     H48171   1.585   4.035   3.057  2.4066  2.5591  2.0886
  357MOL0     H48172   1.760   4.026   3.020  0.4516  1.6913  1.4606
  357MOL0     H48173   1.537   4.073   2.813  0.3738  0.5251 -3.9438
  357MOL0     H48174   1.699   4.048   2.780  1.4143 -0.5081  1.5694
  357MOL0     H48175   1.776   4.249   2.875  0.2840 -1.9861  1.2042
  357MOL0     H48176   1.639   4.282   2.972  1.1186 -1.4783 -0.0090
  357MOL0     H48177   1.812   3.287   2.761  0.9256 -1.2244 -1.1353
  357MOL0     H48178   1.850   3.069   2.665 -0.6127 -1.2727 -0.5684
  357MOL0     H48179   1.741   2.612   2.670 -0.3851  1.5616 -1.1642
  357MOL0     H48180   1.875   2.420   2.617 -1.1984  0.5699  1.6742
  357MOL0     H48181   1.911   0.752   2.813  0.9747 -0.4514 -1.5373
  357MOL0     H48182   1.822   0.558   2.950 -0.4048  1.5267 -0.3793
  357MOL0     H48183   1.869   0.022   3.000  1.7190  0.7202 -0.4064
  357MOL0     H48184   1.856  -0.159   3.161 -0.0197 -1.0238 -0.7396
  357MOL0     H48185   2.035  -0.309   3.543  2.8262  0.4336 -0.2454
  357MOL0     H48186   2.107  -0.145   3.533 -0.3514  0.3267 -2.7376
  357MOL0     H48187   1.880  -0.049   3.575 -2.3332 -1.6495 -1.2969
  357MOL0     H48188   1.956  -0.135   3.711 -3.7485 -2.0136  2.8977
  357MOL0     H48189   1.759  -0.264   3.532  0.8763 -1.6564  0.1825
  357MOL0     H48190   1.706  -0.160   3.660  1.7856  2.1158 -0.2810
  357MOL0     H48191   1.913  -0.387   3.700 -0.7636 -2.7311  0.6569
  357MOL0     H48192   1.737  -0.422   3.705 -0.1300  0.3632  0.1434
  357MOL0     H48193   1.870  -0.225   4.080 -0.3756  1.9261 -1.4273
  357MOL0     H48194   2.048   0.065   3.465  0.0527  0.8779  0.6885
  357MOL0     H48195   2.016   0.273   3.322  1.1736 -0.4635 -0.2592
  358MOL0     O48196   5.462  10.494   5.716  0.1329 -0.0180 -0.4035
  358MOL0     C48197   5.370  10.421   5.670 -0.8135  0.6035  0.8497
  358MOL0     O48198   5.378  10.291   5.630 -0.0768 -0.3997  0.2987
  358MOL0     C48199   5.418  10.201   5.721 -0.2569  0.3115 -0.0748
  358MOL0     C48200   5.424  10.220   5.858 -0.6012  0.2235 -0.7923
  358MOL0     C48201   5.467  10.121   5.946  0.6819 -1.0233 -0.1419
  358MOL0     C48202   5.495   9.996   5.892  0.3346 -0.0070  0.5190
  358MOL0     O48203   5.527   9.885   5.966  0.9784  0.2072  0.3990
  358MOL0     C48204   5.468   9.864   6.098 -0.2514 -0.5810 -0.2347
  358MOL0     C48205   5.570   9.929   6.202 -0.0780  0.0997  0.3049
  358MOL0     C48206   5.685   9.843   6.262 -0.6635 -0.3084  0.2980
  358MOL0     C48207   5.804   9.829   6.160  0.8719  0.8864  0.2149
  358MOL0     C48208   5.940   9.828   6.231 -1.0939  0.0185 -0.0508
  358MOL0     C48209   5.968   9.974   6.273  0.6592 -0.1849 -0.6963
  358MOL0     C48210   6.072   9.994   6.387 -0.0265  0.0851 -0.2265
  358MOL0     C48211   6.005   9.969   6.528  0.8676  0.5462 -0.3785
  358MOL0     N48212   6.103   9.983   6.636 -0.6178  0.6046 -0.0359
  358MOL0     C48213   6.142   9.890   6.726  0.1876  0.3999 -0.3357
  358MOL0     C48214   6.214   9.950   6.826 -0.4748 -0.2983 -0.2898
  358MOL0     C48215   6.286   9.875   6.936 -0.5499 -0.5386 -0.1442
  358MOL0     C48216   6.404   9.805   6.875  0.2179  0.3939  0.7580
  358MOL0     C48217   6.492   9.726   6.968  0.0796 -0.4098 -0.1970
  358MOL0     C48218   6.629   9.685   6.905  0.8529 -0.1286  0.9018
  358MOL0     O48219   6.642   9.548   6.884  0.4223 -0.2661 -0.5132
  358MOL0     C48220   6.775   9.507   6.899 -0.0990  0.9164 -0.5313
  358MOL0     C48221   6.834   9.436   7.010  0.4881 -0.6531 -0.5589
  358MOL0     C48222   6.974   9.400   7.013  0.6092 -0.3945 -0.0861
  358MOL0     C48223   7.020   9.347   7.143 -0.7911  0.1911 -0.1777
  358MOL0     C48224   7.058   9.428   6.901 -0.4092 -0.4011 -0.5713
  358MOL0     C48225   7.200   9.396   6.911 -0.9266  0.5902 -0.2227
  358MOL0     O48226   7.285   9.380   6.808  0.2719  0.3369  0.0901
  358MOL0     C48227   7.414   9.322   6.821  0.8099 -0.3188 -0.3711
  358MOL0     C48228   7.440   9.225   6.916 -0.1001 -0.2477 -0.6285
  358MOL0     C48229   7.568   9.180   6.931  0.1551  0.6756  1.6148
  358MOL0     C48230   7.677   9.219   6.851  0.5411 -0.0475 -0.1203
  358MOL0     O48231   7.809   9.194   6.870 -0.0602  0.2704  0.0413
  358MOL0     C48232   7.849   9.116   6.993  0.1247  0.9346  0.2653
  358MOL0     C48233   7.993   9.084   6.969  0.1231 -0.1979  0.0076
  358MOL0     C48234   8.030   8.977   7.077 -0.4365 -0.4991 -0.0963
  358MOL0     C48235   8.162   8.921   7.053  0.3250 -0.0761 -0.0076
  358MOL0     C48236   8.222   8.870   7.176 -0.2696  0.4606 -0.9439
  358MOL0     C48237   8.323   8.964   7.253 -0.3019  0.6534  0.7845
  358MOL0     C48238   8.446   9.002   7.161 -0.2943  0.0368 -1.0313
  358MOL0     C48239   8.567   9.078   7.228 -0.1122 -0.1999 -0.8090
  358MOL0    Cl48240   8.483   9.221   7.292  0.1863  0.1900 -0.6431
  358MOL0     C48241   7.642   9.302   6.754  0.6429  0.2540  0.9773
  358MOL0     C48242   7.512   9.351   6.734  0.4661  0.0397  1.2093
  358MOL0     O48243   7.246   9.410   7.024 -0.3902  0.1902  0.3486
  358MOL0     C48244   7.005   9.499   6.793  0.1279  0.6876  0.1531
  358MOL0     C48245   6.866   9.538   6.793 -0.9212 -0.3846  0.3937
  358MOL0     N48246   6.230  10.084   6.782  0.2930 -1.0404 -0.0466
  358MOL0     N48247   6.158  10.092   6.675  0.2467 -1.1555  0.9818
  358MOL0     C48248   5.485   9.967   5.753 -0.2410  1.1014 -0.8489
  358MOL0     C48249   5.445  10.075   5.666 -0.7246  0.3160 -0.8271
  358MOL0     C48250   5.239  10.485   5.640 -0.1605  0.3977 -0.3874
  358MOL0     C48251   5.123  10.402   5.621 -0.1456  0.2936  0.0419
  358MOL0     C48252   5.004  10.450   5.567 -0.2636 -0.6264 -0.9876
  358MOL0     C48253   4.987  10.588   5.539  0.5218  0.8333 -0.6730
  358MOL0     O48254   4.867  10.651   5.510  0.0978  0.2940 -0.3014
  358MOL0     C48255   4.739  10.603   5.558 -0.2345 -0.0862 -0.2185
  358MOL0     C48256   4.627  10.699   5.509  0.0767  0.0017 -0.2295
  358MOL0     C48257   4.634  10.835   5.574  0.5399 -0.4792  0.5020
  358MOL0     C48258   4.529  10.929   5.514  0.4181  0.2120 -0.0639
  358MOL0     C48259   4.513  11.058   5.584 -0.7812  0.5555 -0.2365
  358MOL0     C48260   4.493  11.159   5.646  0.0684 -0.1375 -0.1599
  358MOL0     C48261   5.102  10.672   5.562  0.0515 -0.4108 -0.8881
  358MOL0     C48262   5.223  10.623   5.607 -0.3580 -0.1837  0.3139
  358MOL0     H48263   5.381  10.310   5.900 -2.6558 -0.3648 -1.5107
  358MOL0     H48264   5.468  10.136   6.053 -2.6317 -2.3230  0.2013
  358MOL0     H48265   5.366   9.901   6.108 -0.1539 -0.3705 -0.0123
  358MOL0     H48266   5.458   9.757   6.119  1.5322 -0.3628  2.1558
  358MOL0     H48267   5.606  10.023   6.159 -0.8546 -0.0752 -0.7859
  358MOL0     H48268   5.508   9.953   6.289  0.8954  0.8471  0.8090
  358MOL0     H48269   5.722   9.868   6.362 -0.8468 -4.2742  1.5204
  358MOL0     H48270   5.643   9.743   6.275  0.1546 -0.6623  0.2445
  358MOL0     H48271   5.795   9.737   6.102 -3.1343  2.0738 -1.4110
  358MOL0     H48272   5.803   9.905   6.081 -1.1505 -2.1832 -2.9872
  358MOL0     H48273   5.954   9.762   6.317 -1.2165  0.4737  0.3262
  358MOL0     H48274   6.016   9.793   6.161  1.5227  4.2357  0.2984
  358MOL0     H48275   6.005  10.039   6.193 -1.2407  1.0392 -0.6430
  358MOL0     H48276   5.881  10.034   6.301  2.0321  2.3806 -1.5790
  358MOL0     H48277   6.166   9.939   6.376  0.6722  1.1602  0.1848
  358MOL0     H48278   6.117  10.094   6.381  3.1045 -1.0984  1.1308
  358MOL0     H48279   5.972   9.865   6.534 -1.7943  1.2901 -0.6680
  358MOL0     H48280   5.923  10.037   6.554 -0.9221 -2.4354  2.6858
  358MOL0     H48281   6.111   9.787   6.721 -0.3808  0.5519  0.0037
  358MOL0     H48282   6.326   9.948   7.007 -0.0141 -1.0994  0.1454
  358MOL0     H48283   6.216   9.808   6.988 -1.7434 -0.6365 -1.7941
  358MOL0     H48284   6.477   9.875   6.833  3.1993 -2.8125  0.1757
  358MOL0     H48285   6.356   9.741   6.801 -0.2254  1.0468  0.4692
  358MOL0     H48286   6.447   9.634   7.006 -1.9130  0.5310 -0.1448
  358MOL0     H48287   6.526   9.780   7.057 -1.6083  0.2011  0.1213
  358MOL0     H48288   6.713   9.717   6.968 -0.0939  3.0162  0.7321
  358MOL0     H48289   6.632   9.735   6.807  1.9404  3.2362  2.4848
  358MOL0     H48290   6.774   9.419   7.099  1.4380  2.8507  0.9283
  358MOL0     H48291   7.079   9.257   7.123  0.6476  1.4503 -1.9591
  358MOL0     H48292   7.068   9.423   7.205 -1.0868 -0.6965  1.1823
  358MOL0     H48293   6.941   9.312   7.211 -0.1622 -0.9203  0.0020
  358MOL0     H48294   7.369   9.177   6.983 -2.0705 -1.0579 -3.1178
  358MOL0     H48295   7.576   9.112   7.015  0.2666 -2.8377 -1.0082
  358MOL0     H48296   7.823   9.163   7.088 -3.0229  0.9948 -0.5110
  358MOL0     H48297   7.795   9.020   6.991  1.8798 -0.0927 -1.3868
  358MOL0     H48298   8.003   9.037   6.871  0.8377  1.3053 -0.6591
  358MOL0     H48299   8.054   9.174   6.977  1.5046 -1.1863  1.2277
  358MOL0     H48300   7.960   8.893   7.077 -0.8200 -0.1801  0.2006
  358MOL0     H48301   8.032   9.020   7.177 -1.4295 -0.2218 -0.1836
  358MOL0     H48302   8.146   8.846   6.975 -1.3448  0.2980 -0.0700
  358MOL0     H48303   8.218   9.007   7.015 -3.1153  5.1555  4.9906
  358MOL0     H48304   8.274   8.776   7.152  0.3840  0.3527  0.7163
  358MOL0     H48305   8.152   8.839   7.254  0.2905 -1.9562 -1.3031
  358MOL0     H48306   8.269   9.055   7.283 -1.7988  0.7415 -1.9256
  358MOL0     H48307   8.358   8.931   7.352 -1.5304  1.7611  1.6233
  358MOL0     H48308   8.417   9.076   7.086  2.4522  3.8393  1.3106
  358MOL0     H48309   8.480   8.912   7.109  1.0810  0.9100 -1.7157
  358MOL0     H48310   8.638   9.093   7.146  0.2950 -4.6693 -1.5611
  358MOL0     H48311   8.609   9.013   7.305 -1.5297 -0.4818 -0.2580
  358MOL0     H48312   7.726   9.332   6.692  1.6321 -2.8663  0.6315
  358MOL0     H48313   7.495   9.424   6.655  0.6120  0.6566  1.7459
  358MOL0     H48314   7.071   9.512   6.708  0.5181  0.8469  0.4722
  358MOL0     H48315   6.836   9.606   6.713 -1.4083 -1.1363 -0.0704
  358MOL0     H48316   5.515   9.873   5.709  1.9741  1.5876 -0.4951
  358MOL0     H48317   5.447  10.066   5.557  0.3819 -2.3757 -0.6706
  358MOL0     H48318   5.117  10.299   5.655  0.8939 -0.5984 -2.2312
  358MOL0     H48319   4.936  10.365   5.572  2.7526 -3.1265  1.9334
  358MOL0     H48320   4.724  10.504   5.512  1.0188  0.3311 -1.6088
  358MOL0     H48321   4.734  10.594   5.667  0.6964  2.2909  0.0762
  358MOL0     H48322   4.535  10.648   5.540  1.0500 -0.9037  1.3255
  358MOL0     H48323   4.637  10.702   5.401 -1.3648  1.4077 -0.3654
  358MOL0     H48324   4.734  10.873   5.550  0.5108  1.4482  2.9846
  358MOL0     H48325   4.624  10.829   5.682  1.0138  1.1682  0.6586
  358MOL0     H48326   4.431  10.880   5.520 -0.5996  2.3463  2.5297
  358MOL0     H48327   4.554  10.964   5.413 -0.1552 -0.0950 -0.3173
  358MOL0     H48328   4.493  11.244   5.711 -2.8985 -2.1206  2.7434
  358MOL0     H48329   5.093  10.780   5.567 -1.5079 -0.5550  0.4884
  358MOL0     H48330   5.310  10.687   5.589 -0.4658 -0.0086  0.4144
  359MOL0     O48331   9.098   3.685   1.034  0.7229 -0.3244  0.1102
  359MOL0     C48332   9.012   3.606   1.082 -0.8094 -0.0304 -0.6551
  359MOL0     O48333   8.947   3.520   1.004  0.7008 -0.6363 -0.5502
  359MOL0     C48334   8.970   3.499   0.870  1.0349 -1.0600  0.0617
  359MOL0     C48335   8.995   3.374   0.826  0.0874 -0.3004  0.3871
  359MOL0     C48336   9.025   3.351   0.687 -0.3235 -0.4432 -1.0102
  359MOL0     C48337   9.006   3.451   0.596 -0.3800  0.7793  1.2822
  359MOL0     O48338   9.022   3.463   0.456 -1.6123 -0.6954 -0.5671
  359MOL0     C48339   9.104   3.365   0.389 -0.0277  0.5067  0.2414
  359MOL0     C48340   9.061   3.344   0.240  0.1793  0.3302 -0.6721
  359MOL0     C48341   9.142   3.450   0.158  0.0237  1.1079 -0.2159
  359MOL0     C48342   9.068   3.485   0.029  0.5198 -0.6695 -0.0549
  359MOL0     C48343   9.036   3.366  -0.058 -1.2533 -0.1997  1.2429
  359MOL0     C48344   9.012   3.410  -0.214  0.1489 -1.1972 -0.8498
  359MOL0     C48345   8.966   3.286  -0.296  0.1470  0.1502  0.0538
  359MOL0     C48346   9.003   3.303  -0.444  0.5722 -0.0855 -0.1680
  359MOL0     N48347   8.957   3.179  -0.515  0.3045  0.5856 -0.4828
  359MOL0     C48348   8.826   3.155  -0.551 -0.2993 -0.2176  0.6125
  359MOL0     C48349   8.814   3.029  -0.591 -0.7512 -0.5697  0.1585
  359MOL0     C48350   8.691   2.951  -0.627  0.6934  0.6158 -0.2749
  359MOL0     C48351   8.679   2.939  -0.790 -0.6748  0.0873 -0.5761
  359MOL0     C48352   8.784   2.832  -0.841 -0.0772 -0.1911  0.4697
  359MOL0     C48353   8.755   2.692  -0.797  0.0293  0.3743 -0.2160
  359MOL0     O48354   8.834   2.597  -0.875  0.4661 -0.3067 -0.4172
  359MOL0     C48355   8.946   2.533  -0.836  0.8247 -0.3232  0.3477
  359MOL0     C48356   9.008   2.553  -0.717  1.3740  0.8973 -0.5006
  359MOL0     C48357   9.116   2.483  -0.662  0.0735 -1.0557 -0.2952
  359MOL0     C48358   9.151   2.525  -0.515  0.5616  0.2847  0.3864
  359MOL0     C48359   9.177   2.376  -0.737  0.2683  0.1929 -0.1270
  359MOL0     C48360   9.286   2.289  -0.704  0.9371  0.3593 -0.0428
  359MOL0     O48361   9.344   2.225  -0.812 -0.0984 -0.0427  0.2921
  359MOL0     C48362   9.417   2.106  -0.805  0.4050 -0.9362 -0.0869
  359MOL0     C48363   9.423   2.023  -0.690 -0.5228 -0.2999  0.3763
  359MOL0     C48364   9.504   1.902  -0.696 -0.4495  0.0634 -0.6904
  359MOL0     C48365   9.587   1.875  -0.808  0.3183  0.9539 -0.9549
  359MOL0     O48366   9.670   1.762  -0.827  0.1780 -0.4144 -0.1058
  359MOL0     C48367   9.759   1.721  -0.724  0.3002  1.1307 -1.0809
  359MOL0     C48368   9.889   1.665  -0.785  0.0037 -0.6782 -0.3513
  359MOL0     C48369   9.856   1.550  -0.877 -0.4756 -0.0892  0.0079
  359MOL0     C48370   9.981   1.470  -0.900 -0.1191 -0.6401 -0.0483
  359MOL0     C48371   9.965   1.336  -0.967  0.7952 -0.2697 -0.3144
  359MOL0     C48372  10.094   1.313  -1.046 -0.7144 -0.2069 -0.8262
  359MOL0     C48373  10.109   1.169  -1.102 -0.0606 -0.8163  0.0588
  359MOL0     C48374  10.116   1.057  -0.999 -0.4351 -0.1456 -0.4523
  359MOL0    Cl48375  10.295   1.026  -0.955 -0.1491  0.3186  0.4540
  359MOL0     C48376   9.565   1.953  -0.922  0.8355 -0.2262 -0.0570
  359MOL0     C48377   9.484   2.069  -0.922  0.1574 -0.3001  0.0778
  359MOL0     O48378   9.313   2.284  -0.586 -0.1896 -0.2116  0.5108
  359MOL0     C48379   9.113   2.353  -0.862 -0.2033 -0.1582  0.1095
  359MOL0     C48380   9.017   2.432  -0.914 -0.1388  0.4288  0.4764
  359MOL0     N48381   8.938   2.967  -0.552 -0.6552  0.3785 -0.1036
  359MOL0     N48382   9.022   3.061  -0.506  0.1546  0.7288 -0.0275
  359MOL0     C48383   8.962   3.570   0.645  0.8991  0.6248 -0.0454
  359MOL0     C48384   8.937   3.598   0.783  0.3924 -0.3430 -0.2105
  359MOL0     C48385   8.969   3.607   1.229  0.4939 -0.3376 -0.1986
  359MOL0     C48386   8.876   3.518   1.277  0.1668  0.0610 -0.8658
  359MOL0     C48387   8.858   3.506   1.413  0.2034 -0.1161 -0.1359
  359MOL0     C48388   8.937   3.584   1.502 -0.7005 -0.6758 -0.7973
  359MOL0     O48389   8.913   3.571   1.642 -0.0561  0.6351 -0.0573
  359MOL0     C48390   8.884   3.443   1.705  0.0605  0.9319 -0.6729
  359MOL0     C48391   9.004   3.344   1.698 -0.0128 -0.6474  0.4378
  359MOL0     C48392   9.125   3.411   1.753 -0.6002  0.1126 -0.0138
  359MOL0     C48393   9.161   3.399   1.905 -0.0709 -0.6232  0.0209
  359MOL0     C48394   9.091   3.484   2.006 -1.1574  0.9030 -0.4148
  359MOL0     C48395   9.026   3.541   2.091  1.0974 -0.2971  0.4521
  359MOL0     C48396   9.025   3.677   1.456 -0.2477 -1.3092  0.9308
  359MOL0     C48397   9.038   3.694   1.318  0.5981  1.2089 -0.1679
  359MOL0     H48398   9.027   3.305   0.903  0.9239 -0.4482 -0.0720
  359MOL0     H48399   9.082   3.262   0.661 -0.7933 -0.1161 -3.4094
  359MOL0     H48400   9.209   3.396   0.384  0.7370 -1.9977 -0.7192
  359MOL0     H48401   9.106   3.265   0.434  0.5900 -1.6926 -4.1567
  359MOL0     H48402   9.088   3.242   0.209  2.4372  0.0296  1.8977
  359MOL0     H48403   8.954   3.364   0.235 -0.0270 -0.6867 -0.6805
  359MOL0     H48404   9.171   3.536   0.218  0.2877 -0.0827  1.4301
  359MOL0     H48405   9.240   3.406   0.136  0.0765  0.9092  0.4006
  359MOL0     H48406   8.973   3.534   0.050 -1.1404 -2.0678 -3.4655
  359MOL0     H48407   9.127   3.564  -0.018 -1.6878  0.6564 -0.7633
  359MOL0     H48408   9.124   3.302  -0.042  0.9598  2.0098 -1.0817
  359MOL0     H48409   8.954   3.304  -0.020 -1.0909 -1.2722 -0.0507
  359MOL0     H48410   8.938   3.491  -0.213  0.7922 -0.5992  0.9218
  359MOL0     H48411   9.102   3.451  -0.260 -0.1191  0.3622 -0.0533
  359MOL0     H48412   9.014   3.194  -0.263 -0.3493 -0.3522 -0.5877
  359MOL0     H48413   8.860   3.260  -0.287  0.9179 -2.8381  2.2287
  359MOL0     H48414   9.106   3.328  -0.472 -0.3735  1.0615 -3.0764
  359MOL0     H48415   8.941   3.381  -0.488 -0.9041 -0.2195  1.5753
  359MOL0     H48416   8.742   3.216  -0.521 -1.1227 -0.5352 -0.9477
  359MOL0     H48417   8.700   2.851  -0.585 -0.6224  1.5354  2.4279
  359MOL0     H48418   8.597   2.992  -0.590  1.0724 -0.5394  2.1945
  359MOL0     H48419   8.695   3.031  -0.847 -3.9596  0.0643 -1.7100
  359MOL0     H48420   8.574   2.919  -0.812 -1.1681  2.3708 -0.5253
  359MOL0     H48421   8.883   2.864  -0.806 -1.3339  2.4403  1.9135
  359MOL0     H48422   8.786   2.843  -0.950 -0.1526  0.2967  0.5164
  359MOL0     H48423   8.649   2.672  -0.818  0.1259  0.1689 -0.5078
  359MOL0     H48424   8.772   2.689  -0.689 -4.3650 -2.8819  0.7014
  359MOL0     H48425   8.977   2.625  -0.642  0.2501  0.1739 -0.2568
  359MOL0     H48426   9.104   2.621  -0.493 -0.1336 -0.1154  0.6901
  359MOL0     H48427   9.119   2.458  -0.435  0.5596  2.0414  1.9242
  359MOL0     H48428   9.258   2.539  -0.499  0.1610  1.7154  2.1971
  359MOL0     H48429   9.367   2.048  -0.600 -1.0204  1.1464 -0.3053
  359MOL0     H48430   9.517   1.830  -0.616  3.2584  0.8136 -0.4454
  359MOL0     H48431   9.799   1.803  -0.663 -1.5477 -0.0679  1.9946
  359MOL0     H48432   9.712   1.651  -0.654  1.0554  3.5125  2.0614
  359MOL0     H48433   9.938   1.752  -0.830  3.3098 -2.4249 -0.4678
  359MOL0     H48434   9.959   1.631  -0.708  0.2607 -0.1544 -0.3482
  359MOL0     H48435   9.814   1.580  -0.973 -0.7145  0.8212  0.3878
  359MOL0     H48436   9.782   1.492  -0.822  1.7684 -1.3981  1.8273
  359MOL0     H48437  10.039   1.531  -0.970 -0.3066 -3.9122 -3.4181
  359MOL0     H48438  10.025   1.454  -0.801 -0.9429 -1.8739  0.1442
  359MOL0     H48439   9.889   1.354  -1.043 -1.4402  2.7438  2.3448
  359MOL0     H48440   9.930   1.263  -0.894  0.6326  0.4730  0.3720
  359MOL0     H48441  10.098   1.378  -1.134 -1.5238 -0.8770 -1.3683
  359MOL0     H48442  10.185   1.340  -0.991  0.5413 -1.6145 -2.1110
  359MOL0     H48443  10.190   1.172  -1.176 -0.1431  3.4173 -0.0993
  359MOL0     H48444  10.017   1.146  -1.156  1.0216  1.0782 -2.8610
  359MOL0     H48445  10.075   0.967  -1.046  1.2045 -2.1779  1.8026
  359MOL0     H48446  10.053   1.083  -0.913 -0.4855  2.9265 -1.2871
  359MOL0     H48447   9.623   1.936  -1.012  0.4080  1.8144 -0.7602
  359MOL0     H48448   9.460   2.134  -1.006  1.1504  0.2450  0.1892
  359MOL0     H48449   9.150   2.279  -0.932  1.6062  2.8211 -2.4059
  359MOL0     H48450   8.993   2.407  -1.016  1.2744 -1.4910  0.5667
  359MOL0     H48451   8.937   3.638   0.564  0.2671 -2.4028 -2.5851
  359MOL0     H48452   8.896   3.696   0.807 -0.4820 -0.2629 -1.9127
  359MOL0     H48453   8.842   3.438   1.211  3.9525 -0.2032 -2.7524
  359MOL0     H48454   8.789   3.430   1.449  0.0339 -1.1478 -2.4181
  359MOL0     H48455   8.849   3.457   1.808 -0.3380 -0.8646 -0.5382
  359MOL0     H48456   8.789   3.402   1.668 -0.3370  1.4036 -0.1988
  359MOL0     H48457   9.036   3.330   1.594  1.2312 -3.0217  1.0616
  359MOL0     H48458   8.987   3.247   1.745  3.9194 -2.2301 -0.9324
  359MOL0     H48459   9.126   3.516   1.723  0.7919  0.6413  1.6951
  359MOL0     H48460   9.214   3.381   1.696  0.8716  0.8333  1.8051
  359MOL0     H48461   9.270   3.405   1.914  0.2383 -1.6847 -2.2189
  359MOL0     H48462   9.132   3.297   1.934 -2.8654  0.4018  1.2057
  359MOL0     H48463   8.969   3.595   2.163  3.8315  2.7823  0.5035
  359MOL0     H48464   9.076   3.733   1.534 -0.9985 -0.1365  0.6138
  359MOL0     H48465   9.111   3.765   1.280  2.7108  0.1990  1.7623
  360MOL0     O48466  10.376   3.702   6.255  0.6310 -0.7039 -0.8379
  360MOL0     C48467  10.410   3.698   6.374  0.1769  0.2077  0.3802
  360MOL0     O48468  10.332   3.666   6.477  1.5761  0.9375  0.0186
  360MOL0     C48469  10.198   3.649   6.449  0.6281 -0.6645  0.1639
  360MOL0     C48470  10.105   3.750   6.486 -0.0015 -0.1814  0.3414
  360MOL0     C48471   9.969   3.729   6.493  0.5956  0.9265  0.1085
  360MOL0     C48472   9.920   3.596   6.462 -0.4567 -0.3782  0.5623
  360MOL0     O48473   9.784   3.579   6.468  0.4908  0.1790 -0.4397
  360MOL0     C48474   9.729   3.462   6.414  0.0948  0.5442 -0.4701
  360MOL0     C48475   9.582   3.450   6.433  0.4388 -0.1734 -0.7597
  360MOL0     C48476   9.513   3.584   6.425 -0.4960 -0.0742 -0.5526
  360MOL0     C48477   9.380   3.589   6.500 -0.9139 -0.5106  0.0681
  360MOL0     C48478   9.324   3.729   6.473  0.1224 -0.3934 -0.5233
  360MOL0     C48479   9.202   3.755   6.557  0.4212 -0.3821  0.3806
  360MOL0     C48480   9.137   3.888   6.521  0.7614 -0.1448  0.7437
  360MOL0     C48481   8.983   3.881   6.541 -0.8667  0.8552  0.1952
  360MOL0     N48482   8.941   4.013   6.524 -0.0818 -0.0225  0.2351
  360MOL0     C48483   8.918   4.100   6.630  0.2490  0.2401 -0.1741
  360MOL0     C48484   8.857   4.202   6.567  0.3757  0.4468  0.0663
  360MOL0     C48485   8.809   4.330   6.636 -0.2421  0.3255 -0.3257
  360MOL0     C48486   8.914   4.447   6.639 -0.2226 -0.0415 -0.4055
  360MOL0     C48487   9.053   4.384   6.680 -0.3138 -0.2937 -0.2934
  360MOL0     C48488   9.150   4.495   6.701  0.5032  0.7615 -0.4529
  360MOL0     O48489   9.116   4.577   6.809  0.8555 -0.0445  0.2980
  360MOL0     C48490   9.214   4.639   6.884 -0.2692 -1.1513 -0.1624
  360MOL0     C48491   9.174   4.759   6.955  0.2284 -0.0170 -0.0886
  360MOL0     C48492   9.262   4.838   7.027  0.2601 -0.5117 -0.4964
  360MOL0     C48493   9.194   4.957   7.101 -0.5818  0.5482 -0.3398
  360MOL0     C48494   9.399   4.800   7.034 -1.1192  0.0464 -0.3391
  360MOL0     C48495   9.496   4.870   7.121 -0.0736  0.3362 -0.4069
  360MOL0     O48496   9.484   5.002   7.145 -0.6535  0.0810 -0.2156
  360MOL0     C48497   9.547   5.061   7.256  0.3490  0.4790 -0.0663
  360MOL0     C48498   9.685   5.070   7.266  0.8461  0.6111  0.7615
  360MOL0     C48499   9.735   5.139   7.378  0.2380  0.1023  0.7346
  360MOL0     C48500   9.661   5.181   7.476 -0.1306 -1.1269 -0.0619
  360MOL0     O48501   9.708   5.273   7.562  0.2136 -0.0914  0.0943
  360MOL0     C48502   9.813   5.241   7.647 -0.7457  0.3321  0.4290
  360MOL0     C48503   9.788   5.314   7.779  0.2168 -0.4846 -0.0481
  360MOL0     C48504   9.644   5.282   7.830 -0.0258 -0.9271  0.6929
  360MOL0     C48505   9.639   5.327   7.978 -1.4904  0.8186 -0.8556
  360MOL0     C48506   9.504   5.347   8.032  0.2495 -0.0762 -0.3345
  360MOL0     C48507   9.436   5.458   7.961  0.1431 -0.1487  0.6403
  360MOL0     C48508   9.293   5.492   8.017  1.0520 -0.4676  0.3731
  360MOL0     C48509   9.301   5.609   8.117 -0.6268  0.5095 -0.4323
  360MOL0    Cl48510   9.158   5.629   8.226 -0.0218  0.7178 -0.2738
  360MOL0     C48511   9.524   5.160   7.478  0.4204 -0.1161 -0.0404
  360MOL0     C48512   9.467   5.100   7.363  0.3887 -0.2233 -0.5523
  360MOL0     O48513   9.593   4.801   7.164  0.2920 -0.0992 -0.5602
  360MOL0     C48514   9.442   4.686   6.968  0.0621 -0.5969  0.2854
  360MOL0     C48515   9.355   4.614   6.885  0.6212 -0.4392 -0.1342
  360MOL0     N48516   8.837   4.172   6.433  0.0856  0.1953 -0.6437
  360MOL0     N48517   8.898   4.064   6.408 -0.2034 -0.8478  1.5341
  360MOL0     C48518  10.018   3.503   6.428 -0.3204 -0.1940 -0.1603
  360MOL0     C48519  10.153   3.523   6.417  1.1347 -1.5179  0.6523
  360MOL0     C48520  10.550   3.707   6.402  0.1280 -0.6898  0.1183
  360MOL0     C48521  10.600   3.688   6.535  0.2748 -0.5719 -0.5291
  360MOL0     C48522  10.738   3.698   6.558  0.3228  0.4049  0.3972
  360MOL0     C48523  10.832   3.723   6.453 -0.1634 -1.0656  0.2588
  360MOL0     O48524  10.958   3.738   6.497 -0.6540 -0.4012 -0.0090
  360MOL0     C48525  11.068   3.743   6.403 -0.0864 -0.2854 -0.7237
  360MOL0     C48526  11.196   3.701   6.489  1.1458  0.1951  0.4766
  360MOL0     C48527  11.226   3.791   6.608 -0.7885 -0.2515 -0.9323
  360MOL0     C48528  11.326   3.904   6.587  0.2077  0.9679  0.7858
  360MOL0     C48529  11.284   3.984   6.476  0.4009 -0.8884  0.2481
  360MOL0     C48530  11.248   4.059   6.393 -0.2563 -0.0277 -0.4374
  360MOL0     C48531  10.783   3.737   6.325  0.5800  0.8238 -0.2661
  360MOL0     C48532  10.646   3.721   6.301 -0.0331  0.2451 -0.0134
  360MOL0     H48533  10.154   3.844   6.507  0.4069 -0.5460  1.0548
  360MOL0     H48534   9.888   3.796   6.520  1.2201  1.4158  0.7808
  360MOL0     H48535   9.750   3.469   6.307  0.8654  0.3379 -0.3438
  360MOL0     H48536   9.779   3.379   6.466 -0.0793  0.8975  0.2776
  360MOL0     H48537   9.533   3.391   6.354 -4.4688  0.1319  1.6670
  360MOL0     H48538   9.557   3.397   6.525 -0.6272 -0.3703 -1.1460
  360MOL0     H48539   9.577   3.660   6.470 -0.9865  0.4005 -0.6517
  360MOL0     H48540   9.484   3.602   6.321 -0.1960  0.1593 -0.5950
  360MOL0     H48541   9.318   3.506   6.466 -0.0071 -1.5534  0.8781
  360MOL0     H48542   9.405   3.590   6.606 -0.0980  1.3095 -0.1043
  360MOL0     H48543   9.397   3.801   6.510 -1.0734 -0.0849  1.3838
  360MOL0     H48544   9.305   3.740   6.366  0.0850 -2.8385 -0.8234
  360MOL0     H48545   9.120   3.685   6.537 -1.9996  2.7636 -1.7232
  360MOL0     H48546   9.232   3.741   6.661  5.1396 -1.0887 -0.8253
  360MOL0     H48547   9.192   3.961   6.581  0.5226 -0.6038  1.5397
  360MOL0     H48548   9.155   3.926   6.420 -3.0602 -0.4103 -0.2120
  360MOL0     H48549   8.972   3.859   6.647  0.7269  3.0608  0.8737
  360MOL0     H48550   8.936   3.807   6.475  1.0379  0.5657 -0.9249
  360MOL0     H48551   8.930   4.082   6.736  0.6124 -1.6739 -0.5019
  360MOL0     H48552   8.728   4.367   6.572  0.9077 -0.1371 -2.1449
  360MOL0     H48553   8.765   4.302   6.731  0.0475 -0.2096 -0.3456
  360MOL0     H48554   8.876   4.515   6.717  0.2578 -0.5947  0.3274
  360MOL0     H48555   8.913   4.488   6.538  0.2426  2.0495  0.3798
  360MOL0     H48556   9.080   4.305   6.610 -1.8243 -4.3629  3.2679
  360MOL0     H48557   9.038   4.324   6.770 -3.0272 -2.2503 -1.9027
  360MOL0     H48558   9.173   4.545   6.606  1.5009 -0.0876 -0.6740
  360MOL0     H48559   9.238   4.436   6.728 -1.7413 -2.7232 -0.1173
  360MOL0     H48560   9.075   4.804   6.951  1.4566  2.7728 -1.6846
  360MOL0     H48561   9.246   5.049   7.072  3.5155 -0.6983  2.2548
  360MOL0     H48562   9.087   4.948   7.079 -0.0194 -1.5618 -2.6395
  360MOL0     H48563   9.205   4.954   7.209  3.0652 -0.4379 -0.6051
  360MOL0     H48564   9.748   5.041   7.182  0.9048  3.0551 -0.1028
  360MOL0     H48565   9.839   5.171   7.375  0.4463 -0.6037 -2.0153
  360MOL0     H48566   9.836   5.137   7.671 -1.9771 -0.3727 -1.2375
  360MOL0     H48567   9.908   5.276   7.605 -0.5814  0.3997  0.8517
  360MOL0     H48568   9.858   5.271   7.852  1.5282  1.2078 -0.2477
  360MOL0     H48569   9.804   5.420   7.758 -2.0071 -0.4205 -1.7292
  360MOL0     H48570   9.620   5.176   7.826  2.3087 -1.5365  1.3691
  360MOL0     H48571   9.562   5.321   7.770  0.2551  0.9333  1.4427
  360MOL0     H48572   9.685   5.248   8.038 -4.5652 -1.6889 -1.5430
  360MOL0     H48573   9.702   5.414   7.995 -1.5977  1.0013 -1.3522
  360MOL0     H48574   9.518   5.372   8.138 -1.0217  1.3554 -0.4797
  360MOL0     H48575   9.437   5.262   8.018 -0.0551  0.3794 -1.7728
  360MOL0     H48576   9.491   5.553   7.957 -0.5139  0.2024 -0.5066
  360MOL0     H48577   9.425   5.428   7.857  1.9613  2.2239 -0.3455
  360MOL0     H48578   9.248   5.404   8.065 -0.3930  1.2151  2.2889
  360MOL0     H48579   9.219   5.527   7.944 -0.2604  0.9916  2.3038
  360MOL0     H48580   9.329   5.701   8.066  0.0017  2.1734  2.6712
  360MOL0     H48581   9.386   5.588   8.183  1.4331  1.0524 -2.7572
  360MOL0     H48582   9.468   5.209   7.556  1.9409 -0.3231  1.2251
  360MOL0     H48583   9.360   5.085   7.366  0.3654  0.0148 -0.2697
  360MOL0     H48584   9.548   4.665   6.976 -0.1579 -1.0114  3.0216
  360MOL0     H48585   9.389   4.529   6.827 -0.4047 -0.1055 -1.2885
  360MOL0     H48586   9.995   3.398   6.414 -1.2588 -0.2504  1.6167
  360MOL0     H48587  10.219   3.440   6.394 -1.5643 -2.7877 -3.6224
  360MOL0     H48588  10.530   3.670   6.616  1.6538 -1.7683  0.4553
  360MOL0     H48589  10.779   3.682   6.657 -1.1303  0.0037  0.9570
  360MOL0     H48590  11.056   3.672   6.321  0.4406  0.4398 -1.4458
  360MOL0     H48591  11.075   3.846   6.368  0.1826  0.2823  0.9020
  360MOL0     H48592  11.274   3.690   6.414  0.4051 -1.0053 -0.1645
  360MOL0     H48593  11.176   3.601   6.530 -1.6037  1.1044  1.6351
  360MOL0     H48594  11.273   3.725   6.682  1.3232  1.6190 -0.5284
  360MOL0     H48595  11.130   3.825   6.648  0.0850 -0.3871  1.4149
  360MOL0     H48596  11.417   3.846   6.568 -1.1558 -0.6705 -1.1140
  360MOL0     H48597  11.352   3.967   6.673  1.6047 -0.4653  1.4674
  360MOL0     H48598  11.205   4.133   6.329 -3.6712 -0.4677  1.1279
  360MOL0     H48599  10.863   3.740   6.251 -0.8163 -0.2920 -1.9035
  360MOL0     H48600  10.623   3.725   6.195  0.0185  2.0120  0.0048
  361MOL0     O48601   5.111   0.453   1.663  0.0619 -0.2810 -0.3528
  361MOL0     C48602   5.226   0.424   1.677  0.3386 -0.7466 -0.2238
  361MOL0     O48603   5.292   0.412   1.797  0.1260 -0.0109 -0.1347
  361MOL0     C48604   5.235   0.412   1.913  0.2087 -0.4111 -0.6885
  361MOL0     C48605   5.290   0.483   2.018  0.1343 -1.0058 -0.7834
  361MOL0     C48606   5.244   0.468   2.150  0.3258 -0.7995 -0.0309
  361MOL0     C48607   5.130   0.386   2.175  0.6127 -0.7150 -0.8474
  361MOL0     O48608   5.080   0.362   2.306  0.5646  0.0491 -0.4875
  361MOL0     C48609   4.955   0.285   2.329  0.4393 -0.3264  0.5729
  361MOL0     C48610   4.906   0.318   2.466 -0.0833 -0.1036 -0.7524
  361MOL0     C48611   4.991   0.251   2.573 -0.5389  0.3141 -0.5305
  361MOL0     C48612   4.931   0.257   2.719 -0.3067  0.0575 -0.7590
  361MOL0     C48613   4.993   0.143   2.805  0.6137 -0.2214  0.9071
  361MOL0     C48614   4.951   0.144   2.955  0.1554  0.4791 -0.4158
  361MOL0     C48615   5.047   0.081   3.046 -1.2206  0.6079  0.6999
  361MOL0     C48616   5.018   0.100   3.193  0.4341  0.4194  0.7839
  361MOL0     N48617   5.068  -0.001   3.286 -0.1188  0.3063  0.5800
  361MOL0     C48618   5.191   0.010   3.353 -0.1083 -0.1047  1.9876
  361MOL0     C48619   5.205  -0.117   3.412 -0.2814  0.9502 -0.7004
  361MOL0     C48620   5.314  -0.170   3.494  0.8699  0.2723 -0.0984
  361MOL0     C48621   5.262  -0.253   3.613  0.0488  0.8268 -0.8158
  361MOL0     C48622   5.383  -0.298   3.705  0.5012  0.3395 -0.2524
  361MOL0     C48623   5.360  -0.441   3.752 -0.4785 -0.1677  0.1887
  361MOL0     O48624   5.238  -0.464   3.832  0.2498  0.7027  0.9565
  361MOL0     C48625   5.243  -0.422   3.964  0.6803 -0.5913  0.6459
  361MOL0     C48626   5.340  -0.344   4.027  0.4970 -0.2679 -0.1852
  361MOL0     C48627   5.317  -0.296   4.149 -1.0252  0.4649  0.1593
  361MOL0     C48628   5.419  -0.190   4.196  0.6957 -0.6955  0.2461
  361MOL0     C48629   5.196  -0.324   4.226  0.4373 -0.7976  0.5495
  361MOL0     C48630   5.160  -0.267   4.356  0.6171  0.0583 -0.3197
  361MOL0     O48631   5.020  -0.288   4.394 -0.6380 -0.3121  0.3460
  361MOL0     C48632   4.994  -0.241   4.512  0.0162 -0.3517 -0.6074
  361MOL0     C48633   4.907  -0.139   4.532  0.0085 -0.4739  0.5342
  361MOL0     C48634   4.877  -0.096   4.663 -0.3699 -0.1843 -0.4517
  361MOL0     C48635   4.944  -0.151   4.777 -0.1904  0.0026 -0.8111
  361MOL0     O48636   4.918  -0.115   4.904 -0.8809 -0.3732 -0.2542
  361MOL0     C48637   4.862   0.010   4.927  0.0072  0.1292 -0.0096
  361MOL0     C48638   4.846   0.068   5.069 -1.1711  1.2066  1.0297
  361MOL0     C48639   4.833  -0.031   5.176  1.0049  0.8810  0.4459
  361MOL0     C48640   4.728   0.010   5.282 -0.6900 -0.0429 -0.3828
  361MOL0     C48641   4.662  -0.106   5.358  0.0455  0.1229  0.2274
  361MOL0     C48642   4.589  -0.215   5.269  0.5412 -0.6879 -0.2825
  361MOL0     C48643   4.478  -0.151   5.179 -0.5437 -0.0511 -1.3591
  361MOL0     C48644   4.401  -0.261   5.115  1.0833 -0.0479  0.7375
  361MOL0    Cl48645   4.307  -0.341   5.259 -0.4807  0.2618 -0.0363
  361MOL0     C48646   5.033  -0.257   4.758  0.0663  0.1415 -0.4027
  361MOL0     C48647   5.061  -0.299   4.626 -0.2916  0.6327 -0.9510
  361MOL0     O48648   5.243  -0.213   4.426 -0.1913  0.5544  0.2610
  361MOL0     C48649   5.096  -0.378   4.148 -0.0454  0.7051  0.0875
  361MOL0     C48650   5.121  -0.447   4.027  0.1200  0.3261 -0.5031
  361MOL0     N48651   5.090  -0.190   3.378  0.6233 -0.0841  0.0044
  361MOL0     N48652   5.006  -0.118   3.313 -0.2849  0.7026 -0.1390
  361MOL0     C48653   5.066   0.330   2.067 -0.2065 -0.4137  0.6544
  361MOL0     C48654   5.119   0.336   1.940  0.4651  0.0770 -0.1660
  361MOL0     C48655   5.305   0.429   1.547  0.9011  0.0817 -0.0702
  361MOL0     C48656   5.432   0.381   1.554  0.3715  0.2130  0.8888
  361MOL0     C48657   5.514   0.389   1.439 -0.7738 -0.4804 -0.3215
  361MOL0     C48658   5.465   0.432   1.318 -0.4496 -0.3287  0.4507
  361MOL0     O48659   5.555   0.448   1.225 -0.2262 -0.1543  0.1277
  361MOL0     C48660   5.538   0.514   1.102 -0.9072 -0.1949 -0.6740
  361MOL0     C48661   5.589   0.659   1.123  0.1052 -0.4847  0.5172
  361MOL0     C48662   5.728   0.667   1.193 -0.5024  1.5427 -0.7139
  361MOL0     C48663   5.789   0.807   1.207 -0.1727 -0.6454  0.2181
  361MOL0     C48664   5.826   0.872   1.076  0.9825 -0.7303 -0.1303
  361MOL0     C48665   5.844   0.931   0.968  0.0848 -0.3260 -0.7545
  361MOL0     C48666   5.331   0.469   1.310  0.4145 -0.3514  0.2152
  361MOL0     C48667   5.254   0.474   1.422 -0.0317  1.8901 -0.1622
  361MOL0     H48668   5.380   0.538   1.993  0.8539 -2.1238 -0.7639
  361MOL0     H48669   5.296   0.512   2.235 -2.0383 -2.1992  2.3152
  361MOL0     H48670   4.871   0.308   2.262 -1.2445 -0.6054  2.4890
  361MOL0     H48671   4.975   0.178   2.323  1.2228 -0.1800  0.4596
  361MOL0     H48672   4.917   0.427   2.472 -1.7775  0.1838 -2.2441
  361MOL0     H48673   4.803   0.281   2.462 -0.2393  0.4054 -1.5882
  361MOL0     H48674   4.985   0.145   2.545  0.3524  0.2922 -0.6420
  361MOL0     H48675   5.095   0.283   2.574 -0.7536  1.2330 -2.5276
  361MOL0     H48676   4.963   0.353   2.759  1.8136 -2.0413  3.2103
  361MOL0     H48677   4.824   0.235   2.710  0.3291 -3.6201 -1.1370
  361MOL0     H48678   4.961   0.047   2.764 -2.1795  0.8207  0.4488
  361MOL0     H48679   5.101   0.160   2.803  0.0518  4.9104 -0.6587
  361MOL0     H48680   4.936   0.248   2.985 -2.6587 -1.0228  4.6694
  361MOL0     H48681   4.854   0.096   2.974 -0.1517  1.4130  0.4954
  361MOL0     H48682   5.062  -0.025   3.023 -0.9630  1.3495 -3.2866
  361MOL0     H48683   5.147   0.125   3.035 -2.2776  2.5176 -2.5895
  361MOL0     H48684   4.910   0.088   3.195  0.6427 -2.0179  2.9931
  361MOL0     H48685   5.037   0.201   3.231  0.4168  0.0865  1.7160
  361MOL0     H48686   5.270   0.084   3.343  1.1029 -1.2504  2.6728
  361MOL0     H48687   5.374  -0.240   3.436 -2.5180 -4.2357  1.2873
  361MOL0     H48688   5.380  -0.091   3.532 -0.0844  0.7565  0.6129
  361MOL0     H48689   5.211  -0.343   3.579 -1.5336  1.4653 -0.2419
  361MOL0     H48690   5.194  -0.183   3.662 -1.1843 -0.4854 -0.5803
  361MOL0     H48691   5.412  -0.222   3.777 -0.2586 -0.2539  0.7036
  361MOL0     H48692   5.478  -0.303   3.650  0.5649  0.3486 -0.1421
  361MOL0     H48693   5.441  -0.488   3.808 -2.3176 -4.6368 -0.4631
  361MOL0     H48694   5.332  -0.491   3.659 -3.9138  2.7325 -0.5719
  361MOL0     H48695   5.437  -0.319   3.984  0.1756  1.3727  0.0020
  361MOL0     H48696   5.473  -0.222   4.286  0.7926  0.2168  0.5278
  361MOL0     H48697   5.497  -0.161   4.125  1.5453  1.5045  1.9449
  361MOL0     H48698   5.363  -0.099   4.218  1.5073 -0.1423  0.0879
  361MOL0     H48699   4.867  -0.088   4.445  4.4277  1.1306 -0.8345
  361MOL0     H48700   4.801  -0.019   4.674 -1.1942 -0.1733 -4.5225
  361MOL0     H48701   4.926   0.088   4.884  0.6862  2.3004  4.3157
  361MOL0     H48702   4.758   0.004   4.893 -0.8758 -2.6222  2.7002
  361MOL0     H48703   4.929   0.134   5.096  0.4394  0.7368 -2.2382
  361MOL0     H48704   4.766   0.142   5.071  0.1889  2.8623 -1.2364
  361MOL0     H48705   4.934  -0.044   5.215  1.3267 -1.9147 -1.0317
  361MOL0     H48706   4.815  -0.132   5.137  2.6208  1.6727 -2.6737
  361MOL0     H48707   4.781   0.068   5.358  0.3063 -0.1652 -0.9579
  361MOL0     H48708   4.646   0.076   5.249 -0.4168  1.4315  1.6877
  361MOL0     H48709   4.592  -0.055   5.425  1.7409  0.3998  1.8981
  361MOL0     H48710   4.733  -0.154   5.427 -0.6953 -1.3379  0.0088
  361MOL0     H48711   4.663  -0.260   5.202  0.2186 -1.2796 -0.2438
  361MOL0     H48712   4.538  -0.293   5.327  0.5024 -1.5989 -1.5142
  361MOL0     H48713   4.532  -0.082   5.113  0.8876  0.6431  0.4391
  361MOL0     H48714   4.414  -0.077   5.229 -0.2853  0.5188 -1.8516
  361MOL0     H48715   4.456  -0.339   5.062 -3.3131 -2.0147 -1.4226
  361MOL0     H48716   4.341  -0.209   5.041  3.1027 -1.3233 -1.9682
  361MOL0     H48717   5.079  -0.322   4.833  0.7027  0.4472 -0.5220
  361MOL0     H48718   5.120  -0.388   4.605  0.7032  1.6544 -2.6843
  361MOL0     H48719   4.994  -0.360   4.182  0.7876  5.1480  0.8335
  361MOL0     H48720   5.038  -0.496   3.977 -0.8729  0.8860  0.5347
  361MOL0     H48721   4.980   0.265   2.087 -1.0543  0.0791 -1.1337
  361MOL0     H48722   5.089   0.277   1.854 -2.3861  0.4787  0.4733
  361MOL0     H48723   5.472   0.340   1.646  1.1953  0.5908  0.7133
  361MOL0     H48724   5.620   0.373   1.449 -0.7553 -2.1005 -2.4740
  361MOL0     H48725   5.575   0.462   1.013  1.0195  0.0989 -0.0691
  361MOL0     H48726   5.433   0.526   1.073 -0.2064  1.2207 -2.8966
  361MOL0     H48727   5.509   0.705   1.180 -0.9178 -2.1122  0.4538
  361MOL0     H48728   5.598   0.720   1.033 -0.8842  2.0196  2.0339
  361MOL0     H48729   5.801   0.612   1.133 -0.1323  1.1629  0.0821
  361MOL0     H48730   5.728   0.620   1.291 -1.4553  0.2609 -1.2974
  361MOL0     H48731   5.881   0.788   1.262  0.3619  2.4998  0.5715
  361MOL0     H48732   5.731   0.871   1.274 -1.7803  0.2477 -1.8934
  361MOL0     H48733   5.863   0.977   0.874  3.3352  1.1864  0.5037
  361MOL0     H48734   5.289   0.507   1.217 -2.3710 -0.1725  1.4497
  361MOL0     H48735   5.150   0.503   1.407  0.9395  4.9603 -1.8137
  362MOL0     O48736   8.581   3.134   4.312  0.1989  0.5552 -0.1673
  362MOL0     C48737   8.519   3.026   4.313  0.6260  0.3102  0.7771
  362MOL0     O48738   8.426   2.994   4.207 -0.0690 -0.4552 -0.8174
  362MOL0     C48739   8.427   3.066   4.090  0.0896 -0.0299 -0.0638
  362MOL0     C48740   8.544   3.089   4.023 -0.3274 -0.3418  0.0558
  362MOL0     C48741   8.551   3.176   3.910 -0.0032 -0.4512 -0.5822
  362MOL0     C48742   8.431   3.238   3.862 -0.3888  0.9993  0.0805
  362MOL0     O48743   8.448   3.330   3.754  0.2922  0.1797  0.6954
  362MOL0     C48744   8.477   3.264   3.624 -0.0136  1.4350 -0.4833
  362MOL0     C48745   8.342   3.235   3.566  0.5144  1.0402 -0.1823
  362MOL0     C48746   8.339   3.160   3.431  0.9836  0.0533 -0.1719
  362MOL0     C48747   8.197   3.126   3.380 -0.3167 -0.2535  0.4445
  362MOL0     C48748   8.183   3.114   3.233 -0.1269  0.6516  0.5198
  362MOL0     C48749   8.037   3.104   3.182 -0.1184  0.4305 -0.6863
  362MOL0     C48750   8.013   3.166   3.043 -0.2192 -0.4690  0.2610
  362MOL0     C48751   8.088   3.093   2.924  0.3286 -0.2213 -0.9890
  362MOL0     N48752   8.021   3.146   2.801 -0.8168  0.0311  0.2130
  362MOL0     C48753   8.022   3.284   2.766  0.6507  0.1273  0.0403
  362MOL0     C48754   7.977   3.286   2.644  0.0780 -0.2536  0.1748
  362MOL0     C48755   7.956   3.412   2.556  0.8835 -0.7038  0.8330
  362MOL0     C48756   7.810   3.390   2.519 -0.7185 -0.3040  0.0219
  362MOL0     C48757   7.755   3.509   2.449  0.4269  0.4147  0.6309
  362MOL0     C48758   7.615   3.476   2.392 -1.0613 -0.0636 -0.1480
  362MOL0     O48759   7.529   3.424   2.489  0.3416  0.2725  0.3536
  362MOL0     C48760   7.398   3.394   2.445  0.1022 -0.1506 -0.3270
  362MOL0     C48761   7.324   3.451   2.340 -0.4891  0.0616  0.5880
  362MOL0     C48762   7.186   3.415   2.319  0.5566  0.0066 -0.5751
  362MOL0     C48763   7.112   3.488   2.200  0.2681  1.0832 -0.1897
  362MOL0     C48764   7.117   3.328   2.404 -0.5048  0.1843  0.2313
  362MOL0     C48765   6.987   3.277   2.378 -0.5961  0.5470  0.0161
  362MOL0     O48766   6.950   3.158   2.439 -0.0153 -0.0446 -0.3096
  362MOL0     C48767   6.824   3.115   2.442 -0.5429  0.8699 -0.0541
  362MOL0     C48768   6.783   3.045   2.335  0.0534  0.0640  0.1403
  362MOL0     C48769   6.661   2.983   2.333  0.4903 -0.1732 -0.5266
  362MOL0     C48770   6.570   2.995   2.438  0.1813  0.2312  0.2981
  362MOL0     O48771   6.438   2.943   2.435 -0.3413  0.3352  0.8218
  362MOL0     C48772   6.386   2.879   2.310  0.1819  0.3037 -0.1340
  362MOL0     C48773   6.312   2.975   2.211 -0.2386 -0.7117 -0.6151
  362MOL0     C48774   6.306   3.121   2.265  0.2326  0.2831  0.9494
  362MOL0     C48775   6.212   3.195   2.168 -0.0135  0.2541  0.6584
  362MOL0     C48776   6.203   3.346   2.191  0.0882  0.1619 -0.6618
  362MOL0     C48777   6.155   3.371   2.335  0.3228  0.0981  0.7469
  362MOL0     C48778   6.083   3.502   2.345 -0.1231  0.2315 -0.1498
  362MOL0     C48779   6.091   3.556   2.484  0.2638  0.2633  0.1703
  362MOL0    Cl48780   5.995   3.447   2.586 -0.2621  0.1432  0.1310
  362MOL0     C48781   6.603   3.081   2.545 -0.3577  0.0463 -0.0545
  362MOL0     C48782   6.734   3.140   2.546  0.4462 -0.0394 -0.0874
  362MOL0     O48783   6.909   3.333   2.301  0.7684 -0.3292  0.3526
  362MOL0     C48784   7.191   3.273   2.511  0.0467  0.2330 -0.5866
  362MOL0     C48785   7.330   3.307   2.537  0.8526 -0.3180  0.7337
  362MOL0     N48786   7.951   3.163   2.597  0.6157  0.6024 -0.4978
  362MOL0     N48787   7.977   3.081   2.686 -0.0176  0.1932 -0.3643
  362MOL0     C48788   8.316   3.214   3.930  1.2884 -0.0405 -0.7142
  362MOL0     C48789   8.308   3.127   4.043  0.4064  0.4030 -0.5209
  362MOL0     C48790   8.546   2.925   4.413  0.4854 -0.6985 -0.4117
  362MOL0     C48791   8.634   2.952   4.515  0.1160 -0.7286  0.2727
  362MOL0     C48792   8.646   2.856   4.615  1.3350  0.0531  0.1458
  362MOL0     C48793   8.554   2.746   4.630  0.3609 -0.8854  0.5178
  362MOL0     O48794   8.564   2.658   4.729  0.2231 -0.4168 -0.2050
  362MOL0     C48795   8.677   2.670   4.825  0.3353  0.2747  0.1677
  362MOL0     C48796   8.650   2.774   4.930 -0.7820 -0.6906  0.4893
  362MOL0     C48797   8.764   2.788   5.028 -0.5325 -0.1091 -1.1400
  362MOL0     C48798   8.741   2.877   5.158 -0.5025  0.1476 -0.1020
  362MOL0     C48799   8.680   2.794   5.261  0.6068 -0.3304  0.0041
  362MOL0     C48800   8.651   2.702   5.333 -0.7111 -0.4428  0.1480
  362MOL0     C48801   8.455   2.732   4.532  0.6287  0.3081  0.0527
  362MOL0     C48802   8.448   2.819   4.426  0.8212  0.1023  0.6392
  362MOL0     H48803   8.633   3.037   4.058  1.3406  0.4299 -2.7257
  362MOL0     H48804   8.646   3.189   3.858  0.5461 -0.7307  0.3257
  362MOL0     H48805   8.533   3.330   3.556  2.2364  3.2321  2.8620
  362MOL0     H48806   8.535   3.171   3.628  0.6033  1.8572  1.1858
  362MOL0     H48807   8.278   3.182   3.637 -1.4345  2.8829 -0.4614
  362MOL0     H48808   8.296   3.334   3.555  1.5375  1.4310 -1.1216
  362MOL0     H48809   8.389   3.227   3.361  3.3135 -0.4925  0.8811
  362MOL0     H48810   8.400   3.071   3.449  1.2002  1.0569  6.1227
  362MOL0     H48811   8.164   3.027   3.412 -1.3454 -0.3809 -0.9374
  362MOL0     H48812   8.130   3.207   3.412 -0.7162 -1.0428  1.6655
  362MOL0     H48813   8.241   3.186   3.173  2.0204 -1.4939 -0.1332
  362MOL0     H48814   8.242   3.027   3.203  1.0422  0.3113  3.4556
  362MOL0     H48815   8.010   2.999   3.170 -1.7509  0.4345  2.0478
  362MOL0     H48816   7.969   3.134   3.263 -0.5157  0.2934 -0.9637
  362MOL0     H48817   7.907   3.157   3.021 -0.4288  0.2394  0.9408
  362MOL0     H48818   8.037   3.273   3.039 -0.4282 -0.3562  1.7757
  362MOL0     H48819   8.086   2.984   2.930 -1.7035 -0.1390  1.7631
  362MOL0     H48820   8.195   3.117   2.924  0.3459 -0.2458 -2.1595
  362MOL0     H48821   8.041   3.361   2.841 -0.7747  1.4830 -0.9157
  362MOL0     H48822   7.969   3.507   2.608 -2.0832  1.8702 -2.6621
  362MOL0     H48823   8.005   3.415   2.459  0.1445 -1.8344  0.3986
  362MOL0     H48824   7.741   3.376   2.603 -1.0428  0.2376 -0.1511
  362MOL0     H48825   7.817   3.306   2.448  0.1582 -1.6298  1.5891
  362MOL0     H48826   7.825   3.544   2.372  0.3791 -0.2596  0.2796
  362MOL0     H48827   7.749   3.582   2.530  0.2317  1.4722 -0.3090
  362MOL0     H48828   7.623   3.410   2.305  1.5624  0.1279 -0.1251
  362MOL0     H48829   7.575   3.570   2.353  0.2121  1.0689  1.1505
  362MOL0     H48830   7.366   3.525   2.272 -1.7266 -0.7559 -1.1464
  362MOL0     H48831   7.085   3.411   2.126 -0.3605 -1.2232  2.2577
  362MOL0     H48832   7.021   3.543   2.225 -0.9811 -0.9956  0.1404
  362MOL0     H48833   7.180   3.551   2.142  0.4108  3.8240  2.7453
  362MOL0     H48834   6.863   3.029   2.263 -1.0149  2.4224 -1.7289
  362MOL0     H48835   6.640   2.913   2.252 -1.8360  1.8688 -1.7989
  362MOL0     H48836   6.460   2.822   2.253 -0.1674 -0.5084  0.2154
  362MOL0     H48837   6.308   2.807   2.339  1.3605 -2.0792 -2.4733
  362MOL0     H48838   6.368   2.982   2.118 -0.5483  1.5569 -0.6693
  362MOL0     H48839   6.212   2.939   2.186 -0.6594  1.0437 -1.6013
  362MOL0     H48840   6.402   3.172   2.261  0.9720 -0.9084  2.6121
  362MOL0     H48841   6.282   3.135   2.371  3.3317  1.9219  1.5473
  362MOL0     H48842   6.247   3.174   2.067 -0.3967  1.3550  0.2799
  362MOL0     H48843   6.113   3.150   2.177  0.8823 -1.9061  0.3746
  362MOL0     H48844   6.134   3.398   2.124 -2.6472 -1.2666  0.8820
  362MOL0     H48845   6.295   3.406   2.182 -1.9832  3.5843 -0.8194
  362MOL0     H48846   6.077   3.299   2.362  1.4560 -1.4260  0.1678
  362MOL0     H48847   6.243   3.359   2.400  2.3826  1.6378 -1.5676
  362MOL0     H48848   5.984   3.486   2.301 -0.1350  0.6304 -0.2682
  362MOL0     H48849   6.137   3.578   2.289 -1.6039  1.9176  0.6290
  362MOL0     H48850   6.042   3.654   2.476 -1.0580 -0.5106 -2.3807
  362MOL0     H48851   6.190   3.573   2.528 -1.0036  1.6511  2.7252
  362MOL0     H48852   6.521   3.102   2.612  0.5803  0.1007  1.1085
  362MOL0     H48853   6.758   3.205   2.629 -2.8954  2.5842 -0.9300
  362MOL0     H48854   7.132   3.208   2.574 -1.4100  1.2054 -0.8968
  362MOL0     H48855   7.385   3.271   2.623 -0.3193  0.3909  1.8063
  362MOL0     H48856   8.224   3.266   3.905 -0.3637 -1.1629  2.4587
  362MOL0     H48857   8.211   3.131   4.093  0.7094  1.2304  0.0093
  362MOL0     H48858   8.680   3.047   4.539 -2.2279  0.3255  0.8330
  362MOL0     H48859   8.720   2.876   4.692 -0.7717  1.0907  2.0505
  362MOL0     H48860   8.695   2.577   4.880  1.8735 -0.4159 -1.3910
  362MOL0     H48861   8.776   2.696   4.788  1.6098 -2.8154  1.0325
  362MOL0     H48862   8.565   2.736   4.988 -0.1575  0.8983  2.5942
  362MOL0     H48863   8.613   2.868   4.886 -1.4992 -1.7198 -1.2071
  362MOL0     H48864   8.858   2.826   4.987  0.8936 -0.9054  1.2000
  362MOL0     H48865   8.805   2.692   5.061  3.4984  0.8158 -2.8755
  362MOL0     H48866   8.669   2.953   5.129 -2.8756 -0.2046  4.1213
  362MOL0     H48867   8.837   2.915   5.194 -1.5079  1.2223  1.5978
  362MOL0     H48868   8.638   2.614   5.393 -2.1625  0.5465  1.3659
  362MOL0     H48869   8.386   2.650   4.518  1.5369 -0.2085 -1.5281
  362MOL0     H48870   8.369   2.802   4.354 -1.3655  1.6706  2.5291
  363MOL0     O48871   7.152   1.209  11.223  0.6009 -0.6350  0.0532
  363MOL0     C48872   7.162   1.104  11.164  0.9536  0.7746  1.5502
  363MOL0     O48873   7.078   0.998  11.184 -0.1877  0.5239 -0.0509
  363MOL0     C48874   6.972   0.987  11.271  0.5775 -0.4550 -0.3528
  363MOL0     C48875   6.932   0.868  11.312  0.1151  0.5114 -1.6215
  363MOL0     C48876   6.830   0.851  11.406 -0.2148 -0.1006 -0.1890
  363MOL0     C48877   6.769   0.961  11.460 -0.0806 -0.5037  0.1022
  363MOL0     O48878   6.669   0.951  11.560 -0.1500  0.2240 -0.7428
  363MOL0     C48879   6.550   0.887  11.529 -0.7000  1.0924  0.4936
  363MOL0     C48880   6.450   0.979  11.495 -0.1667  1.0373 -0.2173
  363MOL0     C48881   6.401   1.030  11.631  0.5853  0.5881 -0.2264
  363MOL0     C48882   6.304   0.932  11.705 -0.6016  0.4997 -0.1269
  363MOL0     C48883   6.212   1.003  11.795 -0.3897 -0.3759  0.3554
  363MOL0     C48884   6.109   0.904  11.862 -0.2312 -0.3200 -0.1617
  363MOL0     C48885   6.019   0.963  11.970  0.7431 -0.4358  0.4601
  363MOL0     C48886   6.090   0.977  12.107  0.6323 -0.4503  0.2749
  363MOL0     N48887   6.110   0.851  12.174 -0.6974 -0.0132 -0.4824
  363MOL0     C48888   6.220   0.773  12.181 -0.1614 -0.4013  0.1042
  363MOL0     C48889   6.197   0.662  12.250  0.1705  0.1088 -0.5700
  363MOL0     C48890   6.288   0.542  12.286 -0.2986 -0.1907  0.5368
  363MOL0     C48891   6.291   0.432  12.182 -1.1445 -0.6317  0.0365
  363MOL0     C48892   6.340   0.473  12.053  0.2198 -0.9462  0.7536
  363MOL0     C48893   6.418   0.384  11.981  0.8938 -0.1441  0.7250
  363MOL0     O48894   6.344   0.262  11.957  0.2038  0.4404 -0.1841
  363MOL0     C48895   6.361   0.145  12.027  0.2387  0.6132 -0.4100
  363MOL0     C48896   6.303   0.032  11.975 -0.0979  1.2659 -0.4966
  363MOL0     C48897   6.312  -0.097  12.037  0.0519  0.2765  0.1437
  363MOL0     C48898   6.249  -0.211  11.967  1.3878 -0.7985 -0.1097
  363MOL0     C48899   6.389  -0.115  12.153 -0.1939 -0.2189  0.3688
  363MOL0     C48900   6.411  -0.247  12.213 -0.3722 -0.3380 -0.1802
  363MOL0     O48901   6.425  -0.259  12.352  0.2754  0.2427  0.0345
  363MOL0     C48902   6.457  -0.384  12.395 -0.6839  0.1664  1.1678
  363MOL0     C48903   6.576  -0.460  12.371  0.3315 -0.3217  0.6677
  363MOL0     C48904   6.586  -0.591  12.416  1.1676  0.7556  0.6133
  363MOL0     C48905   6.486  -0.656  12.494 -0.0175 -0.7649 -0.8419
  363MOL0     O48906   6.489  -0.791  12.534 -0.0414 -0.0763  0.5058
  363MOL0     C48907   6.617  -0.859  12.553  0.7766 -0.1995  0.3973
  363MOL0     C48908   6.594  -0.990  12.609  0.3508 -0.4145  0.2708
  363MOL0     C48909   6.712  -1.074  12.599  0.3901 -0.8341 -0.3569
  363MOL0     C48910   6.681  -1.221  12.640  0.1305  0.2594 -0.4508
  363MOL0     C48911   6.783  -1.275  12.746  0.5747  0.0763  0.3923
  363MOL0     C48912   6.760  -1.422  12.781 -0.2867 -0.1633  0.8075
  363MOL0     C48913   6.882  -1.484  12.860  0.1415 -0.5132  0.0273
  363MOL0     C48914   6.891  -1.633  12.892 -0.5408 -0.6573 -0.0554
  363MOL0    Cl48915   6.863  -1.726  12.740 -0.3151 -0.1506  0.1734
  363MOL0     C48916   6.367  -0.585  12.521  0.7100  0.0101 -0.2851
  363MOL0     C48917   6.356  -0.451  12.469  0.3768  0.1297  0.2810
  363MOL0     O48918   6.437  -0.335  12.134 -0.5729  0.3495  1.2764
  363MOL0     C48919   6.454  -0.001  12.206  0.2426  0.8062  0.3748
  363MOL0     C48920   6.443   0.121  12.142 -0.3668 -0.2068 -0.9813
  363MOL0     N48921   6.060   0.666  12.281  0.0523  0.2710  1.0210
  363MOL0     N48922   6.013   0.786  12.246  0.3830  1.0062  0.4751
  363MOL0     C48923   6.810   1.085  11.416  0.3913  0.9318  0.0117
  363MOL0     C48924   6.909   1.105  11.322  0.4607  0.6325 -0.3258
  363MOL0     C48925   7.257   1.091  11.060 -1.2217  1.2467  0.1481
  363MOL0     C48926   7.285   0.965  11.004 -0.2976 -0.0503 -0.1864
  363MOL0     C48927   7.378   0.953  10.904 -0.1969 -0.0589  1.2514
  363MOL0     C48928   7.449   1.064  10.857  0.1899 -0.4615  0.1573
  363MOL0     O48929   7.543   1.055  10.759  0.1590  0.2252  1.0201
  363MOL0     C48930   7.604   1.178  10.700 -0.5898  0.4488  0.6377
  363MOL0     C48931   7.704   1.161  10.584  0.3017 -0.1968  0.5097
  363MOL0     C48932   7.637   1.109  10.459  0.5683  0.3681 -0.2764
  363MOL0     C48933   7.721   1.084  10.329 -0.0798  0.0896 -0.2470
  363MOL0     C48934   7.755   1.207  10.269  0.4013 -0.0193 -0.2723
  363MOL0     C48935   7.770   1.315  10.219  0.1278  0.3978 -0.0824
  363MOL0     C48936   7.424   1.191  10.916  0.0718  0.6833 -0.0189
  363MOL0     C48937   7.320   1.202  11.015  0.8916 -0.1720 -0.4803
  363MOL0     H48938   6.988   0.784  11.273 -0.0723 -0.9082  0.9723
  363MOL0     H48939   6.801   0.750  11.433 -0.9717  0.4773  1.2807
  363MOL0     H48940   6.573   0.812  11.453 -0.0908  0.6414  1.1065
  363MOL0     H48941   6.526   0.833  11.621 -1.7356 -1.1966 -1.0159
  363MOL0     H48942   6.499   1.067  11.452 -1.9025  1.5824 -1.1465
  363MOL0     H48943   6.364   0.953  11.432  2.8276 -0.9061 -3.9139
  363MOL0     H48944   6.479   1.062  11.701  3.2254  2.7084 -3.8268
  363MOL0     H48945   6.342   1.118  11.605  1.1436  1.0063 -0.0657
  363MOL0     H48946   6.252   0.884  11.621 -0.6572  2.5233 -1.3031
  363MOL0     H48947   6.363   0.858  11.760  3.4317  0.8316 -3.5250
  363MOL0     H48948   6.281   1.043  11.869  0.2993  0.0413 -0.4982
  363MOL0     H48949   6.166   1.079  11.732  5.1061  1.4567 -2.0470
  363MOL0     H48950   6.047   0.868  11.779 -0.7969  0.8211 -0.2659
  363MOL0     H48951   6.150   0.811  11.902  0.3349  0.2878  0.7048
  363MOL0     H48952   5.994   1.062  11.930 -0.7613 -0.9732  0.0125
  363MOL0     H48953   5.920   0.916  11.974 -0.7247  2.1581 -1.7282
  363MOL0     H48954   6.016   1.038  12.160  1.0687  1.5340 -1.2793
  363MOL0     H48955   6.183   1.033  12.102 -0.2794  1.0300 -1.2044
  363MOL0     H48956   6.316   0.796  12.135 -0.7713  1.4370 -0.3375
  363MOL0     H48957   6.393   0.575  12.293 -0.4635  0.0891  2.2263
  363MOL0     H48958   6.261   0.498  12.382  2.3999  2.2057  2.5922
  363MOL0     H48959   6.195   0.379  12.180 -1.8440  0.4310  2.5817
  363MOL0     H48960   6.379   0.377  12.217  1.2143  2.3363 -0.8255
  363MOL0     H48961   6.396   0.566  12.067 -0.9670 -0.2462  0.9692
  363MOL0     H48962   6.253   0.512  11.999 -0.0130 -0.2367  1.6260
  363MOL0     H48963   6.516   0.368  12.027  1.7646  0.5511 -0.8400
  363MOL0     H48964   6.433   0.428  11.882 -0.8805 -0.3790  0.3111
  363MOL0     H48965   6.238   0.046  11.889 -2.0896  0.7382  0.8637
  363MOL0     H48966   6.171  -0.174  11.898  3.0199  2.5907 -0.3416
  363MOL0     H48967   6.329  -0.260  11.912  2.0107 -0.0274  0.0938
  363MOL0     H48968   6.205  -0.272  12.046 -0.2966  2.4429  1.7185
  363MOL0     H48969   6.656  -0.410  12.317 -0.5401 -2.1601 -2.5710
  363MOL0     H48970   6.676  -0.639  12.379  0.1416 -0.4020 -0.4800
  363MOL0     H48971   6.668  -0.873  12.457  0.4309  1.9862 -0.1633
  363MOL0     H48972   6.673  -0.802  12.628  2.5097 -1.5558  0.1911
  363MOL0     H48973   6.554  -0.982  12.710  0.1390  0.8867  0.1049
  363MOL0     H48974   6.522  -1.038  12.541  2.1621  1.8136 -3.5370
  363MOL0     H48975   6.785  -1.050  12.677 -0.7105 -2.8456  1.3788
  363MOL0     H48976   6.758  -1.083  12.500 -0.8414 -1.0488 -0.9173
  363MOL0     H48977   6.584  -1.226  12.691  0.8308  3.9554  1.6359
  363MOL0     H48978   6.689  -1.283  12.550  4.0091 -0.2743  0.1265
  363MOL0     H48979   6.776  -1.213  12.835 -2.3015 -0.3137  0.5176
  363MOL0     H48980   6.883  -1.262  12.703  0.0293  3.0677 -0.1796
  363MOL0     H48981   6.670  -1.418  12.842  0.0296  0.4717  1.2433
  363MOL0     H48982   6.738  -1.481  12.692 -3.0919  1.4388  0.3330
  363MOL0     H48983   6.889  -1.434  12.957  0.4481 -0.8160  0.1636
  363MOL0     H48984   6.964  -1.466  12.790 -0.8442 -2.4111 -1.7011
  363MOL0     H48985   6.819  -1.652  12.972  0.8104 -1.9946  0.8978
  363MOL0     H48986   6.991  -1.658  12.929 -0.5532  1.3280  1.5589
  363MOL0     H48987   6.282  -0.634  12.565 -1.6230 -0.5927 -4.8162
  363MOL0     H48988   6.260  -0.409  12.497  0.1062 -0.3855  0.1513
  363MOL0     H48989   6.522  -0.010  12.290  4.4980 -0.6990 -2.8640
  363MOL0     H48990   6.495   0.195  12.202  2.3418 -1.7051 -1.3402
  363MOL0     H48991   6.763   1.175  11.455 -2.2241 -0.1314 -0.4497
  363MOL0     H48992   6.939   1.204  11.289 -3.1069  3.1874  3.1703
  363MOL0     H48993   7.237   0.877  11.046  2.1111 -1.7030 -0.6777
  363MOL0     H48994   7.396   0.859  10.852 -1.2033  0.4802 -0.1231
  363MOL0     H48995   7.520   1.234  10.660 -1.3706  1.9548  3.9990
  363MOL0     H48996   7.666   1.232  10.773  2.5371 -2.1408  0.1492
  363MOL0     H48997   7.788   1.093  10.605 -0.4865 -1.9687 -1.6994
  363MOL0     H48998   7.746   1.261  10.576  0.7963  0.0986  4.5924
  363MOL0     H48999   7.556   1.177  10.429 -0.3981 -0.7613 -0.3038
  363MOL0     H49000   7.587   1.015  10.484  0.4401  0.2624 -0.9057
  363MOL0     H49001   7.662   1.019  10.265  3.8173 -2.5263 -1.5280
  363MOL0     H49002   7.814   1.042  10.369 -0.2745 -0.2012 -0.0983
  363MOL0     H49003   7.796   1.410  10.176  0.1326  0.3901 -0.0962
  363MOL0     H49004   7.471   1.284  10.888  1.4678  0.0344  0.0809
  363MOL0     H49005   7.303   1.301  11.056  0.5279  0.6237 -2.4324
  364MOL0     O49006   5.565   6.854  10.368 -0.0078 -0.5670 -0.2330
  364MOL0     C49007   5.483   6.940  10.395  0.5994 -0.2876  0.8149
  364MOL0     O49008   5.424   6.950  10.517 -0.0254  0.4609  0.1837
  364MOL0     C49009   5.487   6.885  10.620 -0.0728  0.0932 -0.4022
  364MOL0     C49010   5.400   6.810  10.699  0.1296 -0.3831 -0.4996
  364MOL0     C49011   5.447   6.728  10.799  0.1424  1.1976  0.0330
  364MOL0     C49012   5.583   6.699  10.825 -0.2949  0.0756  1.7128
  364MOL0     O49013   5.615   6.621  10.929  0.4130  0.1398  0.8745
  364MOL0     C49014   5.755   6.595  10.951 -0.4841 -0.1274  0.0846
  364MOL0     C49015   5.773   6.455  11.026 -0.2191 -0.2948  0.1885
  364MOL0     C49016   5.731   6.467  11.173 -0.0938  0.0667  0.4389
  364MOL0     C49017   5.842   6.523  11.266 -0.1241  0.2186  0.7302
  364MOL0     C49018   5.787   6.529  11.408  0.3602 -0.0582  0.7174
  364MOL0     C49019   5.878   6.608  11.515 -0.5701  0.3930  1.0319
  364MOL0     C49020   5.845   6.607  11.662 -0.5026  0.3291 -0.2792
  364MOL0     C49021   5.698   6.643  11.689  0.0619 -0.1091  0.2409
  364MOL0     N49022   5.662   6.640  11.826 -0.4836  1.3205 -0.8282
  364MOL0     C49023   5.728   6.577  11.930  0.7896 -0.0284  0.4639
  364MOL0     C49024   5.669   6.621  12.051  0.0832 -0.5825  0.5786
  364MOL0     C49025   5.698   6.564  12.185  0.9390 -0.1750  0.8800
  364MOL0     C49026   5.618   6.429  12.193 -0.8865  0.2729 -0.1986
  364MOL0     C49027   5.612   6.390  12.345 -0.7178  0.8366 -0.0573
  364MOL0     C49028   5.684   6.258  12.370 -0.3011  1.4020  0.6837
  364MOL0     O49029   5.644   6.151  12.277 -0.6938  0.2335 -0.0891
  364MOL0     C49030   5.646   6.020  12.330 -0.6979  1.0071 -0.2960
  364MOL0     C49031   5.696   5.981  12.460  0.6676 -0.6976 -0.4908
  364MOL0     C49032   5.691   5.847  12.505  0.5325  0.6488  0.8272
  364MOL0     C49033   5.750   5.811  12.638  0.2435  0.0856  0.4472
  364MOL0     C49034   5.632   5.746  12.417 -0.1594  0.3689  0.5570
  364MOL0     C49035   5.618   5.601  12.451  0.2708  0.5275 -0.1705
  364MOL0     O49036   5.571   5.521  12.345 -0.3921 -0.1040  0.7911
  364MOL0     C49037   5.536   5.387  12.361 -0.6780  1.8132 -0.3371
  364MOL0     C49038   5.503   5.321  12.479 -0.5569  0.7274  0.3630
  364MOL0     C49039   5.452   5.192  12.481 -0.8309 -0.6050  0.0716
  364MOL0     C49040   5.428   5.121  12.356  0.0006 -0.4660 -0.2370
  364MOL0     O49041   5.396   4.992  12.335  0.5561 -0.0742 -0.8035
  364MOL0     C49042   5.466   4.895  12.413 -0.3312  0.6124  0.5036
  364MOL0     C49043   5.598   4.860  12.338 -0.0326  0.1043 -0.1446
  364MOL0     C49044   5.698   4.760  12.400 -0.5606  0.6966  0.0253
  364MOL0     C49045   5.772   4.694  12.286  0.1785  1.2478 -0.9807
  364MOL0     C49046   5.900   4.631  12.330 -0.0119  0.1616 -0.1056
  364MOL0     C49047   6.005   4.595  12.214 -0.5277 -0.7506 -0.3305
  364MOL0     C49048   6.126   4.509  12.246 -0.2531 -0.1108 -0.6422
  364MOL0     C49049   6.218   4.505  12.119 -0.3013  0.2445  0.3918
  364MOL0    Cl49050   6.362   4.384  12.129 -0.1008 -0.0041  0.1119
  364MOL0     C49051   5.461   5.184  12.236 -0.6223 -0.5194 -0.1529
  364MOL0     C49052   5.511   5.316  12.236  0.7453  0.0586  0.1900
  364MOL0     O49053   5.647   5.557  12.560  0.6789  0.2907 -0.0144
  364MOL0     C49054   5.579   5.796  12.291  0.5366  0.0309 -0.4240
  364MOL0     C49055   5.581   5.926  12.252  0.4217  0.5542  1.7639
  364MOL0     N49056   5.558   6.695  12.010 -0.9869 -0.7153  0.6957
  364MOL0     N49057   5.558   6.708  11.878 -0.2873  0.2757 -0.4518
  364MOL0     C49058   5.676   6.773  10.745 -0.2038 -0.0909 -0.4168
  364MOL0     C49059   5.627   6.871  10.649 -0.7736  0.6243  0.1197
  364MOL0     C49060   5.443   7.021  10.277  0.7292 -0.2787  0.6344
  364MOL0     C49061   5.364   7.144  10.289  0.2749 -0.2244  0.3111
  364MOL0     C49062   5.300   7.194  10.182 -0.3100 -0.5647  0.9251
  364MOL0     C49063   5.339   7.156  10.048 -0.2008  0.5260  0.0026
  364MOL0     O49064   5.300   7.218   9.934  0.4246  0.8724  0.3761
  364MOL0     C49065   5.267   7.356   9.939 -0.3850  0.1052 -0.3158
  364MOL0     C49066   5.352   7.449   9.853 -0.2433 -0.8913  0.7113
  364MOL0     C49067   5.501   7.431   9.860  0.1298 -0.1498 -0.4662
  364MOL0     C49068   5.593   7.528   9.788 -0.0708 -1.2335  0.2396
  364MOL0     C49069   5.723   7.472   9.785 -1.2515 -0.6134  1.0238
  364MOL0     C49070   5.842   7.437   9.778 -0.0800 -0.2638 -0.8184
  364MOL0     C49071   5.424   7.044  10.040 -0.5477  0.4538  0.5660
  364MOL0     C49072   5.472   6.976  10.146  0.2303  0.2347 -0.2341
  364MOL0     H49073   5.295   6.819  10.674  0.1448  1.2765 -0.1065
  364MOL0     H49074   5.385   6.681  10.874  0.9818 -0.4974 -0.2771
  364MOL0     H49075   5.806   6.575  10.856 -0.1365  1.4485 -0.0891
  364MOL0     H49076   5.806   6.673  11.007 -2.3552  0.4198  1.1259
  364MOL0     H49077   5.712   6.378  10.979 -0.4811 -0.1214  0.2474
  364MOL0     H49078   5.881   6.437  11.017  0.3461  2.9560 -1.2277
  364MOL0     H49079   5.643   6.531  11.181 -0.7269 -0.6984 -0.1422
  364MOL0     H49080   5.711   6.364  11.201 -0.5928 -0.5022 -1.8043
  364MOL0     H49081   5.920   6.447  11.265  0.5786  0.9187  0.8084
  364MOL0     H49082   5.881   6.619  11.231 -1.3536 -0.7235 -3.7915
  364MOL0     H49083   5.689   6.578  11.405 -0.8486 -2.1853  2.0485
  364MOL0     H49084   5.773   6.428  11.448  1.2103  0.2252  1.7657
  364MOL0     H49085   5.973   6.554  11.515 -0.9093 -0.2550 -0.4161
  364MOL0     H49086   5.882   6.711  11.478 -1.9313  0.1514  0.1445
  364MOL0     H49087   5.876   6.513  11.708 -2.3294  0.0528  0.4838
  364MOL0     H49088   5.909   6.677  11.716  1.7163 -2.7059  1.3388
  364MOL0     H49089   5.638   6.570  11.634  1.1094  0.6398 -2.0178
  364MOL0     H49090   5.676   6.731  11.627 -0.7433 -0.5315 -0.0833
  364MOL0     H49091   5.799   6.495  11.927  2.1180  1.1190 -0.6282
  364MOL0     H49092   5.804   6.544  12.201  0.6037 -1.1782  1.9199
  364MOL0     H49093   5.653   6.639  12.251 -0.4250 -0.4583  0.3170
  364MOL0     H49094   5.655   6.350  12.127 -1.2680  0.2582 -0.3991
  364MOL0     H49095   5.517   6.458  12.163  0.3354  6.1293  0.1450
  364MOL0     H49096   5.508   6.367  12.370  0.2471 -2.6024  1.3289
  364MOL0     H49097   5.642   6.460  12.424 -3.1312  1.8353  0.0972
  364MOL0     H49098   5.659   6.231  12.473 -2.0091 -4.6457 -0.9025
  364MOL0     H49099   5.791   6.283  12.367 -0.1316  0.5838 -1.1464
  364MOL0     H49100   5.731   6.060  12.525  3.9116 -1.6736 -0.8533
  364MOL0     H49101   5.791   5.905  12.677  1.8778 -0.7757  0.8606
  364MOL0     H49102   5.674   5.779  12.710 -1.3986 -0.9259 -1.6195
  364MOL0     H49103   5.834   5.744  12.617  0.5701  0.6314 -0.0232
  364MOL0     H49104   5.521   5.360  12.579  1.7427  3.1880 -0.8877
  364MOL0     H49105   5.428   5.135  12.570  0.1347 -0.0869  0.6871
  364MOL0     H49106   5.496   4.939  12.509 -2.7268  1.4441  0.9350
  364MOL0     H49107   5.408   4.804  12.429  1.9043 -1.2226 -1.2147
  364MOL0     H49108   5.586   4.831  12.233  2.3864  1.9552 -1.0067
  364MOL0     H49109   5.645   4.956  12.318 -0.1037  0.1764  0.0356
  364MOL0     H49110   5.647   4.685  12.460  2.0527 -0.6028  0.7464
  364MOL0     H49111   5.781   4.806  12.454  2.9310 -1.9248 -2.6928
  364MOL0     H49112   5.700   4.624  12.244  1.0022 -0.5496  0.4733
  364MOL0     H49113   5.796   4.772  12.213  2.7811 -0.1897 -1.7885
  364MOL0     H49114   5.869   4.534  12.370  0.3621 -0.7042 -1.8443
  364MOL0     H49115   5.960   4.697  12.394  0.7847 -1.0245  0.4127
  364MOL0     H49116   5.953   4.553  12.128  2.7900  0.1382 -2.9600
  364MOL0     H49117   6.059   4.687  12.189  1.4616 -2.3383 -2.1396
  364MOL0     H49118   6.097   4.405  12.264 -1.2685  0.2322 -0.2236
  364MOL0     H49119   6.188   4.538  12.332 -0.9880 -1.2404  0.2996
  364MOL0     H49120   6.264   4.604  12.115  3.5215 -1.1669  3.0324
  364MOL0     H49121   6.165   4.471  12.030 -0.0591  0.3959  0.1901
  364MOL0     H49122   5.442   5.132  12.143 -0.1449  2.9051 -2.3349
  364MOL0     H49123   5.521   5.357  12.136 -0.6868 -2.4180 -1.0660
  364MOL0     H49124   5.543   5.719  12.223 -1.8044 -2.1213  2.9252
  364MOL0     H49125   5.551   5.944  12.149  0.8555  1.4255  1.7849
  364MOL0     H49126   5.777   6.776  10.784 -0.9502  0.5275  1.6350
  364MOL0     H49127   5.686   6.942  10.593 -0.8329  0.2961 -0.3667
  364MOL0     H49128   5.356   7.185  10.390 -1.0040 -2.4204  1.1742
  364MOL0     H49129   5.226   7.273  10.189 -1.3150 -1.1839 -1.7580
  364MOL0     H49130   5.162   7.367   9.910 -0.4001 -1.0814 -0.7547
  364MOL0     H49131   5.279   7.408  10.034 -1.3644 -2.1361  1.1131
  364MOL0     H49132   5.346   7.555   9.877  0.0313 -0.5486 -0.6284
  364MOL0     H49133   5.322   7.450   9.748  0.8338 -2.7506  0.3259
  364MOL0     H49134   5.513   7.337   9.806 -4.6013 -2.9069  2.6135
  364MOL0     H49135   5.536   7.402   9.959 -3.1178 -2.2061  0.2452
  364MOL0     H49136   5.586   7.618   9.848 -0.0651 -0.3655 -1.0158
  364MOL0     H49137   5.561   7.563   9.689  1.4362  0.3670  0.2769
  364MOL0     H49138   5.947   7.412   9.784  0.4059  1.8958  2.7601
  364MOL0     H49139   5.440   7.005   9.940 -0.6392 -3.1251  1.7976
  364MOL0     H49140   5.517   6.879  10.130 -2.4546 -1.0332 -0.5988
  365MOL0     O49141  10.501   5.816   0.541 -0.3331 -0.1859  0.1500
  365MOL0     C49142  10.396   5.762   0.577 -0.4335  0.3889  0.7941
  365MOL0     O49143  10.360   5.736   0.703  0.1063  0.2322 -0.3766
  365MOL0     C49144  10.459   5.752   0.801 -0.1436 -0.6832 -0.7875
  365MOL0     C49145  10.581   5.681   0.795  0.7881 -0.6491 -0.3911
  365MOL0     C49146  10.678   5.718   0.895  0.6059  0.2262 -0.3966
  365MOL0     C49147  10.654   5.808   0.994  0.3431 -0.5264 -0.5839
  365MOL0     O49148  10.750   5.846   1.084 -0.5330  0.3411  0.2304
  365MOL0     C49149  10.876   5.782   1.097  0.0039  0.5372  0.2187
  365MOL0     C49150  10.952   5.850   1.210 -0.2879  0.1057 -0.1176
  365MOL0     C49151  11.063   5.951   1.196 -0.7174  0.5455  0.1898
  365MOL0     C49152  11.116   6.005   1.326 -0.1637 -0.3640  0.2415
  365MOL0     C49153  11.208   6.133   1.301 -0.2859 -0.2177  0.0360
  365MOL0     C49154  11.336   6.099   1.217 -0.7930  0.2914 -0.8025
  365MOL0     C49155  11.429   6.225   1.224 -0.7285 -0.5860 -0.7073
  365MOL0     C49156  11.564   6.205   1.151 -0.1250 -0.7949  0.0005
  365MOL0     N49157  11.629   6.331   1.124 -0.7584 -0.2162 -0.9774
  365MOL0     C49158  11.702   6.399   1.222 -0.6000  0.9201  0.9249
  365MOL0     C49159  11.732   6.512   1.152 -0.3735  0.4559  0.1530
  365MOL0     C49160  11.820   6.628   1.197  0.4209  0.3250  0.6449
  365MOL0     C49161  11.833   6.634   1.356  0.0219  0.5615 -0.6189
  365MOL0     C49162  11.964   6.724   1.373  0.1747  0.2764 -0.4122
  365MOL0     C49163  12.015   6.751   1.524  0.4383 -0.2922  0.6068
  365MOL0     O49164  12.147   6.810   1.536  0.0749  0.6472  0.4991
  365MOL0     C49165  12.144   6.948   1.522 -0.0835  0.2262 -0.2220
  365MOL0     C49166  12.188   7.009   1.403  0.6219 -0.3479  0.2359
  365MOL0     C49167  12.181   7.150   1.390  0.9570 -0.2184  0.0606
  365MOL0     C49168  12.219   7.214   1.257 -0.0629 -0.0336 -0.5742
  365MOL0     C49169  12.132   7.224   1.501 -0.6767 -0.0869  0.1018
  365MOL0     C49170  12.097   7.370   1.488 -0.6421  0.6164  0.6399
  365MOL0     O49171  12.033   7.408   1.373  0.6618 -0.4147  0.1042
  365MOL0     C49172  11.973   7.532   1.366 -0.0916  0.6100  0.0840
  365MOL0     C49173  11.837   7.554   1.379  0.2752  0.3863  0.7632
  365MOL0     C49174  11.782   7.688   1.378  1.0492  0.4775  0.7413
  365MOL0     C49175  11.870   7.797   1.365  0.9408  0.7927  0.0993
  365MOL0     O49176  11.801   7.911   1.362 -0.8109 -0.2482  0.5717
  365MOL0     C49177  11.867   8.039   1.386  0.1596  0.1435  0.7308
  365MOL0     C49178  11.754   8.148   1.356  0.7159 -0.2076  0.3704
  365MOL0     C49179  11.653   8.162   1.473 -0.3953 -0.0187  0.0768
  365MOL0     C49180  11.523   8.239   1.454 -0.6986 -0.8378  1.2442
  365MOL0     C49181  11.414   8.204   1.552 -0.4225  0.3352  0.6879
  365MOL0     C49182  11.366   8.051   1.546 -0.0633  0.1880  0.8099
  365MOL0     C49183  11.268   8.011   1.648 -0.3502 -0.9157 -0.7122
  365MOL0     C49184  11.270   7.857   1.675 -0.1612 -0.5589  0.4960
  365MOL0    Cl49185  11.435   7.830   1.755 -0.0676  0.4830  0.1795
  365MOL0     C49186  12.002   7.776   1.364  0.5417  0.6937 -0.3059
  365MOL0     C49187  12.055   7.650   1.368 -0.3334  0.3452 -0.2821
  365MOL0     O49188  12.102   7.442   1.592 -0.1104  0.5899 -0.2439
  365MOL0     C49189  12.090   7.158   1.620  0.3165  0.4223  0.0725
  365MOL0     C49190  12.099   7.022   1.627 -0.1223  0.8010 -0.8693
  365MOL0     N49191  11.703   6.497   1.012 -1.1125 -0.7616 -0.2649
  365MOL0     N49192  11.644   6.391   1.000  0.1827  0.5343  0.2200
  365MOL0     C49193  10.537   5.887   0.991  0.3075  0.2377 -0.2446
  365MOL0     C49194  10.438   5.847   0.901 -0.6484 -0.1760 -0.1122
  365MOL0     C49195  10.291   5.711   0.475 -0.5852 -0.1763  0.3422
  365MOL0     C49196  10.172   5.660   0.511 -0.4197  0.6541  0.5823
  365MOL0     C49197  10.064   5.640   0.419  0.1268  0.0566 -0.3045
  365MOL0     C49198  10.093   5.647   0.284 -0.4666 -0.2196  0.4328
  365MOL0     O49199   9.981   5.646   0.208  0.5194 -0.0670 -0.1841
  365MOL0     C49200   9.999   5.630   0.066 -0.7565 -0.6524  0.4581
  365MOL0     C49201   9.852   5.623   0.015  0.6885  0.3523 -0.0353
  365MOL0     C49202   9.867   5.584  -0.135  0.0725  0.1856  0.3578
  365MOL0     C49203   9.722   5.594  -0.186  0.9324 -0.9090 -1.1091
  365MOL0     C49204   9.706   5.519  -0.314  0.7568 -0.2184  0.1232
  365MOL0     C49205   9.715   5.445  -0.406  0.2362 -0.0588  0.0099
  365MOL0     C49206  10.220   5.684   0.240  0.2556  0.0370  0.4789
  365MOL0     C49207  10.315   5.719   0.339 -0.4864 -0.7571 -0.2075
  365MOL0     H49208  10.609   5.619   0.711  2.2139 -3.1125  1.7216
  365MOL0     H49209  10.778   5.677   0.888  1.7109  2.0161  2.7937
  365MOL0     H49210  10.870   5.676   1.125 -0.3868  0.1980 -1.0949
  365MOL0     H49211  10.938   5.793   1.007 -0.9144  0.1457 -0.4734
  365MOL0     H49212  10.879   5.894   1.278 -0.3860  1.1691 -0.8842
  365MOL0     H49213  11.000   5.775   1.274 -0.1674 -1.1530 -1.6131
  365MOL0     H49214  11.144   5.909   1.137 -0.6549  1.4372 -0.3888
  365MOL0     H49215  11.016   6.030   1.136 -1.9909  1.0579  1.7841
  365MOL0     H49216  11.032   6.040   1.388 -0.9863  0.4002 -1.2544
  365MOL0     H49217  11.169   5.929   1.384 -0.8849 -0.3688  0.9146
  365MOL0     H49218  11.148   6.204   1.243  0.1867 -1.1749 -1.6976
  365MOL0     H49219  11.231   6.179   1.397 -2.0510  1.2014 -0.1639
  365MOL0     H49220  11.391   6.010   1.246 -2.0640 -0.7849 -1.6015
  365MOL0     H49221  11.302   6.076   1.116 -2.9760  1.5007 -0.4154
  365MOL0     H49222  11.371   6.309   1.184 -0.9875  0.4145  1.5949
  365MOL0     H49223  11.440   6.251   1.330 -3.6461 -0.4357 -0.3359
  365MOL0     H49224  11.546   6.150   1.058  1.7104 -1.4451 -0.0165
  365MOL0     H49225  11.626   6.137   1.210  0.1467  0.1418  0.8200
  365MOL0     H49226  11.734   6.361   1.318  4.1254 -1.9706 -1.4069
  365MOL0     H49227  11.912   6.620   1.139 -0.2076  0.0270 -0.3387
  365MOL0     H49228  11.773   6.721   1.165 -3.3159 -0.6229  2.7402
  365MOL0     H49229  11.840   6.537   1.405  0.4314  1.6530  1.6080
  365MOL0     H49230  11.745   6.691   1.387  0.0161 -0.3900  1.2250
  365MOL0     H49231  11.952   6.823   1.329 -2.5016  0.3645  0.3578
  365MOL0     H49232  12.049   6.674   1.325 -0.3107  0.6425 -1.6750
  365MOL0     H49233  11.991   6.656   1.572 -2.9003 -1.1088 -2.2450
  365MOL0     H49234  11.937   6.820   1.558 -1.6336 -1.3199 -1.6954
  365MOL0     H49235  12.242   6.954   1.326  2.0383 -0.9286  1.5747
  365MOL0     H49236  12.276   7.304   1.282 -2.5594  1.5542 -0.2704
  365MOL0     H49237  12.288   7.156   1.195  1.6651 -1.0395  2.0998
  365MOL0     H49238  12.138   7.241   1.190 -0.0001  0.3466 -0.5015
  365MOL0     H49239  11.772   7.467   1.375  1.9056 -0.8552  0.5332
  365MOL0     H49240  11.677   7.711   1.381  0.9437  0.0410  0.5588
  365MOL0     H49241  11.913   8.049   1.484  1.3180 -0.1586  0.2378
  365MOL0     H49242  11.945   8.054   1.310 -0.8973  3.2848  0.1367
  365MOL0     H49243  11.804   8.245   1.341  1.6143 -0.6525  0.4061
  365MOL0     H49244  11.689   8.120   1.273 -1.8876  0.7692  1.9406
  365MOL0     H49245  11.712   8.201   1.556  3.3005 -0.2620 -2.1951
  365MOL0     H49246  11.624   8.062   1.505 -3.2083  0.2660 -1.2406
  365MOL0     H49247  11.532   8.348   1.449 -3.9215 -0.5328 -2.0464
  365MOL0     H49248  11.485   8.218   1.354 -1.9534 -0.1565  1.5592
  365MOL0     H49249  11.325   8.266   1.537  0.7334  2.2226  1.3327
  365MOL0     H49250  11.436   8.237   1.654 -2.2215  1.0403  0.8873
  365MOL0     H49251  11.309   8.022   1.457 -0.4731  0.3626  1.0163
  365MOL0     H49252  11.454   7.988   1.562 -1.1485 -2.0324 -1.2955
  365MOL0     H49253  11.168   8.035   1.611 -1.0356 -1.6069  0.6159
  365MOL0     H49254  11.276   8.063   1.745  1.4067 -1.8194 -0.3366
  365MOL0     H49255  11.260   7.812   1.576 -2.5541  3.0779 -1.1542
  365MOL0     H49256  11.191   7.810   1.733  0.7760 -1.3244  1.1823
  365MOL0     H49257  12.060   7.868   1.368  0.1220  0.9387  0.2827
  365MOL0     H49258  12.160   7.633   1.347 -0.5724  0.6174 -1.8206
  365MOL0     H49259  12.052   7.217   1.702 -0.1877  2.9060 -1.8110
  365MOL0     H49260  12.070   6.975   1.721  0.9048 -0.8155 -1.3282
  365MOL0     H49261  10.514   5.971   1.056 -0.8139 -1.4128  1.5957
  365MOL0     H49262  10.344   5.901   0.902  0.6803  2.2337  0.6552
  365MOL0     H49263  10.159   5.645   0.618 -0.6966  0.0309  0.4660
  365MOL0     H49264   9.963   5.607   0.440 -0.8530  0.6063 -3.6001
  365MOL0     H49265  10.054   5.715   0.027 -1.6691  0.1383  0.8461
  365MOL0     H49266  10.059   5.543   0.039 -2.9394 -1.5239 -2.0520
  365MOL0     H49267   9.805   5.721   0.023  2.4051  1.0882  1.5478
  365MOL0     H49268   9.790   5.545   0.062 -1.8077  2.5339  0.5182
  365MOL0     H49269   9.901   5.480  -0.133  2.4977  0.9268  1.8135
  365MOL0     H49270   9.933   5.660  -0.179 -1.0623  0.8363 -0.2601
  365MOL0     H49271   9.707   5.699  -0.213 -1.4912  0.1448  3.3658
  365MOL0     H49272   9.638   5.572  -0.119  0.0156  1.4056 -1.4076
  365MOL0     H49273   9.752   5.385  -0.486  3.0298  0.5570  0.7277
  365MOL0     H49274  10.239   5.704   0.135 -3.1862  0.7687 -0.1271
  365MOL0     H49275  10.415   5.749   0.311 -0.5861 -0.1144  0.0876
  366MOL0     O49276   8.650  11.212   9.018  0.0499  0.3875  0.1689
  366MOL0     C49277   8.540  11.215   9.076 -0.6647 -0.4124 -0.2357
  366MOL0     O49278   8.528  11.274   9.203 -0.2557 -0.4575  0.3605
  366MOL0     C49279   8.627  11.348   9.259 -0.1426  0.0095 -0.3950
  366MOL0     C49280   8.634  11.327   9.400 -0.6420 -0.0396 -0.2146
  366MOL0     C49281   8.737  11.392   9.465  0.7276  0.0112  0.5315
  366MOL0     C49282   8.826  11.486   9.401  0.6631 -0.3403  0.2005
  366MOL0     O49283   8.921  11.536   9.485  0.5037  0.2853 -0.0087
  366MOL0     C49284   8.983  11.662   9.466  0.3537 -0.5831  0.7606
  366MOL0     C49285   9.107  11.643   9.377  0.0239  0.9313  0.5729
  366MOL0     C49286   9.174  11.772   9.330  0.0025 -0.2143 -0.2372
  366MOL0     C49287   9.085  11.870   9.247  0.3150 -0.2093  0.0786
  366MOL0     C49288   9.173  11.979   9.215 -0.3795 -0.1023 -0.2306
  366MOL0     C49289   9.122  12.083   9.108  0.6335  0.5349  0.7057
  366MOL0     C49290   9.244  12.136   9.040 -0.2164  0.2658 -0.1981
  366MOL0     C49291   9.331  12.225   9.124  0.3788 -0.0079 -0.7261
  366MOL0     N49292   9.454  12.264   9.060 -0.0159 -0.1746  0.3338
  366MOL0     C49293   9.472  12.310   8.930  0.1461 -0.1141  1.0770
  366MOL0     C49294   9.590  12.372   8.932 -0.5483  0.0700  0.1509
  366MOL0     C49295   9.650  12.445   8.819 -1.2503  0.0621  0.0680
  366MOL0     C49296   9.804  12.478   8.822 -0.4024  0.6551 -0.6621
  366MOL0     C49297   9.845  12.585   8.936 -0.4868  0.1985  0.3416
  366MOL0     C49298   9.747  12.704   8.946  0.8622  0.6404  0.0320
  366MOL0     O49299   9.767  12.790   8.835  0.5093 -0.3313  0.1709
  366MOL0     C49300   9.889  12.851   8.809 -0.6595 -0.2158  1.0761
  366MOL0     C49301   9.912  12.890   8.671 -0.6093 -0.0723  0.6856
  366MOL0     C49302  10.035  12.955   8.630 -0.6449 -0.6038 -0.4629
  366MOL0     C49303  10.058  12.971   8.477 -0.3112  0.1529 -0.2457
  366MOL0     C49304  10.136  12.976   8.734 -0.0798 -1.0399  0.7410
  366MOL0     C49305  10.266  13.027   8.714 -0.2735 -0.6683  0.4061
  366MOL0     O49306  10.322  12.995   8.596  0.2200  0.4490 -0.2594
  366MOL0     C49307  10.435  13.070   8.556 -0.1375 -0.0662  0.0146
  366MOL0     C49308  10.418  13.166   8.466 -0.2786  0.2769  0.6193
  366MOL0     C49309  10.523  13.252   8.424  1.3383  0.0478 -0.3595
  366MOL0     C49310  10.657  13.230   8.467  0.2081 -0.2548 -0.0666
  366MOL0     O49311  10.764  13.317   8.431 -0.0657 -0.4318  0.0311
  366MOL0     C49312  10.901  13.259   8.468  0.6339 -0.4136 -0.2068
  366MOL0     C49313  11.011  13.342   8.406 -0.4156 -0.4300  0.5595
  366MOL0     C49314  11.164  13.283   8.409  0.3662 -0.0409  0.2300
  366MOL0     C49315  11.201  13.269   8.565 -0.0568  0.2082 -0.1708
  366MOL0     C49316  11.356  13.270   8.594  0.5303 -0.5128  0.7381
  366MOL0     C49317  11.399  13.157   8.680  0.0271  0.0324 -0.2952
  366MOL0     C49318  11.559  13.162   8.703 -0.1809 -0.4004  0.3320
  366MOL0     C49319  11.649  13.148   8.578  0.2290  0.4540 -0.4604
  366MOL0    Cl49320  11.661  13.298   8.485  0.0162  0.2705 -0.3775
  366MOL0     C49321  10.674  13.122   8.557 -0.4762  0.1198  0.8011
  366MOL0     C49322  10.568  13.047   8.600 -0.2494  0.7813 -0.3106
  366MOL0     O49323  10.317  13.089   8.805 -0.2956  0.1588  0.2828
  366MOL0     C49324  10.095  12.956   8.874  0.0075 -0.5145  0.4296
  366MOL0     C49325   9.980  12.887   8.907 -0.3345  0.5071 -0.4140
  366MOL0     N49326   9.640  12.372   9.058  0.3291 -0.5427 -0.0191
  366MOL0     N49327   9.564  12.304   9.137  0.4022 -0.6936 -0.7327
  366MOL0     C49328   8.815  11.509   9.267  0.6611 -0.9387  0.9452
  366MOL0     C49329   8.720  11.430   9.189  0.0329  1.4067 -0.0966
  366MOL0     C49330   8.436  11.121   9.025 -0.0142 -0.0148  0.5386
  366MOL0     C49331   8.471  10.998   8.955 -0.5755 -0.5061  0.3781
  366MOL0     C49332   8.374  10.909   8.916 -0.1884 -0.0009  0.9504
  366MOL0     C49333   8.236  10.940   8.925  0.2900 -0.8997 -0.0560
  366MOL0     O49334   8.136  10.869   8.874 -0.9445 -0.3378  0.2818
  366MOL0     C49335   8.137  10.726   8.878 -0.2606 -0.5815 -0.9445
  366MOL0     C49336   7.990  10.678   8.855  0.8362  0.3001  0.7491
  366MOL0     C49337   7.895  10.730   8.967  0.5494  0.8963 -0.6099
  366MOL0     C49338   7.745  10.714   8.938  0.5841  0.4467  0.5286
  366MOL0     C49339   7.688  10.600   9.005 -0.0227  0.0663  0.2739
  366MOL0     C49340   7.643  10.518   9.084  0.0588  0.0411  0.8057
  366MOL0     C49341   8.199  11.066   8.983 -0.4552  0.9407  0.0637
  366MOL0     C49342   8.299  11.147   9.039 -0.6345 -0.2981  0.0564
  366MOL0     H49343   8.562  11.262   9.449 -1.0732  0.3121 -0.3773
  366MOL0     H49344   8.741  11.366   9.571  0.1683  0.3492  0.6391
  366MOL0     H49345   8.911  11.728   9.417  1.7078 -1.1921 -2.2320
  366MOL0     H49346   9.008  11.715   9.558 -0.6824 -0.0319  0.7422
  366MOL0     H49347   9.175  11.589   9.444 -1.9237 -0.6937  1.3510
  366MOL0     H49348   9.083  11.579   9.292 -0.7007  0.8280  0.8470
  366MOL0     H49349   9.197  11.827   9.421  0.0908 -1.5490  0.5640
  366MOL0     H49350   9.269  11.743   9.285  0.6971 -2.0951  2.2356
  366MOL0     H49351   9.058  11.825   9.151 -1.2135  1.1746 -0.1800
  366MOL0     H49352   8.998  11.906   9.302  0.7329 -0.0935  0.6861
  366MOL0     H49353   9.192  12.022   9.314 -1.3531 -0.5055  0.1420
  366MOL0     H49354   9.261  11.935   9.166  0.4069  1.7983 -0.6172
  366MOL0     H49355   9.061  12.027   9.036 -0.3282 -1.0263  2.6089
  366MOL0     H49356   9.057  12.163   9.145  0.4805  0.2799  0.9962
  366MOL0     H49357   9.308  12.052   9.010  1.7335 -0.6615  5.3799
  366MOL0     H49358   9.201  12.192   8.956 -1.9866 -0.5462  0.1230
  366MOL0     H49359   9.354  12.183   9.222 -3.3328 -0.8349 -0.0622
  366MOL0     H49360   9.275  12.314   9.153  0.2623  0.2165 -1.6040
  366MOL0     H49361   9.400  12.303   8.849  0.4747  0.3154  0.7440
  366MOL0     H49362   9.625  12.384   8.732 -3.3500  1.4440 -0.3878
  366MOL0     H49363   9.604  12.542   8.797  0.0948  0.8437  0.5302
  366MOL0     H49364   9.842  12.515   8.727  1.9420 -0.5663 -0.2923
  366MOL0     H49365   9.868  12.389   8.831  1.9721  2.2539 -0.9849
  366MOL0     H49366   9.946  12.622   8.913 -1.4803  0.7397 -4.0434
  366MOL0     H49367   9.860  12.533   9.031  1.7503 -2.4773 -1.3232
  366MOL0     H49368   9.763  12.765   9.035 -0.3695  2.6330 -1.0340
  366MOL0     H49369   9.645  12.666   8.949  0.8913  0.5327 -0.3139
  366MOL0     H49370   9.833  12.865   8.601 -0.7657 -2.0953  1.5249
  366MOL0     H49371   9.963  12.946   8.427 -1.5065 -0.2808  2.0865
  366MOL0     H49372  10.081  13.074   8.448  0.1663  0.2441  0.4531
  366MOL0     H49373  10.129  12.892   8.450 -0.5669 -1.6147  3.6215
  366MOL0     H49374  10.320  13.187   8.424 -1.5551 -3.7956  1.1156
  366MOL0     H49375  10.500  13.324   8.346  0.9419 -0.6005 -0.8529
  366MOL0     H49376  10.920  13.253   8.575  1.6914  0.4454 -0.3253
  366MOL0     H49377  10.906  13.165   8.412  0.8060 -0.6389  0.1884
  366MOL0     H49378  10.975  13.360   8.304 -0.5913 -0.5451  0.6013
  366MOL0     H49379  11.006  13.440   8.455 -0.2382  0.7228 -1.6273
  366MOL0     H49380  11.231  13.361   8.372 -1.7674  1.6616 -0.2695
  366MOL0     H49381  11.167  13.200   8.339 -0.5062 -0.2893  0.4686
  366MOL0     H49382  11.150  13.347   8.622 -1.9820  0.7917 -2.5363
  366MOL0     H49383  11.150  13.179   8.600 -1.7190  0.9962 -0.4650
  366MOL0     H49384  11.388  13.366   8.637 -1.8054  0.9170 -0.4938
  366MOL0     H49385  11.396  13.252   8.494 -2.9635 -1.1955 -0.6674
  366MOL0     H49386  11.369  13.170   8.785  1.7263  2.5354 -0.0287
  366MOL0     H49387  11.357  13.067   8.635  0.8381  0.5796 -2.2415
  366MOL0     H49388  11.585  13.081   8.772  1.3483  1.4218  2.0343
  366MOL0     H49389  11.587  13.250   8.761  1.8432 -0.0401 -1.0785
  366MOL0     H49390  11.612  13.071   8.511 -0.8703  0.7622 -0.2313
  366MOL0     H49391  11.747  13.114   8.615 -0.6374 -0.2320  1.3539
  366MOL0     H49392  10.770  13.091   8.595 -0.0060  1.8821  1.1160
  366MOL0     H49393  10.573  12.962   8.667  4.0500  1.2830  0.2998
  366MOL0     H49394  10.150  12.996   8.958  1.8655  0.4135 -1.1588
  366MOL0     H49395   9.964  12.860   9.011 -0.2776  1.6323 -0.1001
  366MOL0     H49396   8.880  11.580   9.217  1.2320 -1.5028  0.8728
  366MOL0     H49397   8.709  11.451   9.083 -1.6762  1.1708  0.0039
  366MOL0     H49398   8.576  10.974   8.969 -0.7136  0.4370  3.7515
  366MOL0     H49399   8.403  10.820   8.861 -2.5122  0.2836 -0.9061
  366MOL0     H49400   8.200  10.681   8.801  1.4510 -0.9111  0.5914
  366MOL0     H49401   8.177  10.697   8.975 -1.2806  0.8819 -0.0492
  366MOL0     H49402   8.000  10.570   8.869 -2.4726 -0.0495  1.0560
  366MOL0     H49403   7.962  10.710   8.754  3.5554  1.3571  0.2479
  366MOL0     H49404   7.903  10.838   8.984 -1.9469  1.2617 -1.3205
  366MOL0     H49405   7.922  10.693   9.067 -3.8584  3.9921  2.1051
  366MOL0     H49406   7.728  10.701   8.830  2.7083  0.5820  0.1411
  366MOL0     H49407   7.690  10.806   8.961  0.7310  0.3710  1.2072
  366MOL0     H49408   7.597  10.446   9.148 -0.5404 -1.0915 -0.8409
  366MOL0     H49409   8.095  11.095   8.980 -0.3843  1.2817  0.7236
  366MOL0     H49410   8.285  11.245   9.084  1.0918 -0.9207  2.1171
  367MOL0     O49411   2.726  10.398   3.963  0.1991  0.3976  0.6962
  367MOL0     C49412   2.840  10.374   4.007 -0.2395 -0.1106  0.3590
  367MOL0     O49413   2.926  10.284   3.964 -1.0163  0.5843  0.3640
  367MOL0     C49414   2.910  10.194   3.859 -0.1613 -0.6486 -0.1653
  367MOL0     C49415   2.795  10.169   3.790  0.5590  0.7218  0.3660
  367MOL0     C49416   2.798  10.057   3.703  0.6407 -0.9060 -0.5387
  367MOL0     C49417   2.909   9.977   3.691 -0.3563  0.4793 -0.3160
  367MOL0     O49418   2.922   9.861   3.615  0.1312  0.0449  0.5584
  367MOL0     C49419   3.024   9.858   3.518  0.0982  0.6201 -0.4352
  367MOL0     C49420   3.059   9.714   3.491  0.0701  0.3609  0.8079
  367MOL0     C49421   2.973   9.660   3.377 -0.6931  0.1602 -0.6497
  367MOL0     C49422   3.055   9.680   3.252  0.1676 -0.4288 -0.6688
  367MOL0     C49423   2.982   9.701   3.127 -0.3843  0.2398  0.7135
  367MOL0     C49424   3.066   9.694   2.991  0.5904  0.6409 -0.2559
  367MOL0     C49425   3.172   9.803   2.978 -0.5041 -0.0505 -0.3412
  367MOL0     C49426   3.231   9.810   2.839 -0.4855 -0.0999 -0.9418
  367MOL0     N49427   3.299   9.944   2.817  0.4321 -0.5409  0.6287
  367MOL0     C49428   3.429   9.966   2.771 -0.3586  1.3411  0.3342
  367MOL0     C49429   3.449  10.104   2.784  0.2273  0.9063  0.4639
  367MOL0     C49430   3.567  10.179   2.749 -0.2250  0.1933 -0.5181
  367MOL0     C49431   3.579  10.209   2.600  0.5140  0.2623  0.5343
  367MOL0     C49432   3.707  10.289   2.577 -0.0612  0.0096  0.1766
  367MOL0     C49433   3.730  10.289   2.432 -0.2871  0.1175 -0.7862
  367MOL0     O49434   3.844  10.375   2.403 -0.0770 -0.7797 -0.0436
  367MOL0     C49435   3.820  10.496   2.340  0.0539  0.2993 -0.4906
  367MOL0     C49436   3.931  10.571   2.315  0.4464 -1.3207 -0.4003
  367MOL0     C49437   3.928  10.695   2.246  0.2324  0.3168  1.1509
  367MOL0     C49438   4.055  10.753   2.196  0.1658 -0.7472 -0.4831
  367MOL0     C49439   3.807  10.750   2.196 -0.4752  0.5053 -0.0634
  367MOL0     C49440   3.787  10.877   2.123  1.2374 -0.3442 -0.6105
  367MOL0     O49441   3.655  10.925   2.123  1.0393  0.7830  0.7409
  367MOL0     C49442   3.646  11.042   2.046  0.5524 -0.1954  0.6533
  367MOL0     C49443   3.679  11.161   2.105 -0.1460  0.5693 -0.0686
  367MOL0     C49444   3.675  11.283   2.035 -0.2592  0.7952  0.2425
  367MOL0     C49445   3.642  11.284   1.898  0.1609  0.1384  1.0292
  367MOL0     O49446   3.640  11.410   1.837  0.0121  0.0803  0.5219
  367MOL0     C49447   3.756  11.434   1.744  0.0045  0.7101  0.7262
  367MOL0     C49448   3.767  11.586   1.697 -0.5923 -0.0015 -0.1908
  367MOL0     C49449   3.894  11.612   1.626  0.1619  0.2042 -0.2224
  367MOL0     C49450   3.928  11.500   1.524  0.1967 -0.6476  0.3537
  367MOL0     C49451   4.054  11.529   1.448  0.5119  0.0648 -0.4886
  367MOL0     C49452   4.069  11.415   1.353  0.1425  0.8006  0.5704
  367MOL0     C49453   4.195  11.442   1.264  0.7569  0.7221  0.5601
  367MOL0     C49454   4.257  11.316   1.200 -0.2821  0.3184 -0.3407
  367MOL0    Cl49455   4.133  11.243   1.100 -0.7271 -0.0452 -0.2781
  367MOL0     C49456   3.611  11.157   1.827  0.1334  0.2371 -0.1428
  367MOL0     C49457   3.611  11.038   1.908  0.3752 -0.4379  0.9143
  367MOL0     O49458   3.876  10.925   2.061 -1.1058 -0.5947 -0.6007
  367MOL0     C49459   3.689  10.688   2.241  0.9444 -0.3467  0.3266
  367MOL0     C49460   3.696  10.566   2.314 -0.9704  0.4250  0.1100
  367MOL0     N49461   3.329  10.168   2.826  0.3315  0.8580 -0.6194
  367MOL0     N49462   3.240  10.072   2.847 -0.2132  0.2420  0.0815
  367MOL0     C49463   3.026  10.000   3.767 -0.6752  0.2368  0.4557
  367MOL0     C49464   3.023  10.109   3.852 -0.1903 -0.0639  0.7235
  367MOL0     C49465   2.867  10.447   4.137 -0.6766  0.0660 -0.2825
  367MOL0     C49466   2.763  10.492   4.228  0.2332 -0.3389 -1.0586
  367MOL0     C49467   2.784  10.521   4.357 -0.9312  0.8277  0.4587
  367MOL0     C49468   2.916  10.511   4.405  0.4194  0.0201 -0.1612
  367MOL0     O49469   2.935  10.562   4.530 -0.4679 -0.2217  0.6122
  367MOL0     C49470   3.078  10.587   4.584 -0.1104 -0.0104 -1.0712
  367MOL0     C49471   3.139  10.719   4.533 -0.3629  0.9457  1.2868
  367MOL0     C49472   3.038  10.832   4.529  0.0188  1.4154 -0.4391
  367MOL0     C49473   3.111  10.960   4.556 -1.0376  0.1312  0.0036
  367MOL0     C49474   3.112  11.043   4.437 -0.3260 -1.0654  0.1595
  367MOL0     C49475   3.090  11.127   4.348 -0.0661  0.4381  0.3152
  367MOL0     C49476   3.023  10.481   4.315 -0.0765 -1.0983 -1.1125
  367MOL0     C49477   2.997  10.441   4.185 -0.7110 -0.7974 -0.3395
  367MOL0     H49478   2.702  10.222   3.807  0.3245  1.1396 -1.8959
  367MOL0     H49479   2.714  10.025   3.643  1.8710 -2.4619 -1.4983
  367MOL0     H49480   2.994   9.924   3.436  3.5733  1.8186 -0.8837
  367MOL0     H49481   3.114   9.909   3.553 -0.4710  0.2971  1.6105
  367MOL0     H49482   3.164   9.690   3.469  0.1927 -0.0198  1.7312
  367MOL0     H49483   3.046   9.658   3.584  0.2765 -3.1740 -1.1009
  367MOL0     H49484   2.955   9.553   3.391 -1.7417  0.6870  2.9405
  367MOL0     H49485   2.873   9.705   3.377 -0.7695  0.0077 -1.3521
  367MOL0     H49486   3.124   9.765   3.253  2.6416 -2.3005  0.2227
  367MOL0     H49487   3.117   9.590   3.244  0.1349 -0.7966  2.1550
  367MOL0     H49488   2.907   9.622   3.116  1.1909 -1.5514  2.1212
  367MOL0     H49489   2.928   9.794   3.145 -1.9104 -0.4885  0.1316
  367MOL0     H49490   3.112   9.595   3.001 -1.2947 -0.1235  1.7919
  367MOL0     H49491   2.994   9.698   2.909  0.9770 -2.2085 -0.8118
  367MOL0     H49492   3.145   9.908   2.996 -0.1218 -0.0569  0.2781
  367MOL0     H49493   3.260   9.790   3.041 -0.1288 -2.5066 -1.2597
  367MOL0     H49494   3.147   9.792   2.772 -0.9268 -1.6636 -0.0384
  367MOL0     H49495   3.290   9.718   2.830  1.5627  1.0920 -0.4199
  367MOL0     H49496   3.497   9.884   2.752 -0.1056  1.6509 -0.1130
  367MOL0     H49497   3.569  10.279   2.792 -4.7357  0.4823 -0.5216
  367MOL0     H49498   3.663  10.138   2.783 -0.1233  1.3561  0.6820
  367MOL0     H49499   3.491  10.270   2.576  1.5077  1.6101  0.1828
  367MOL0     H49500   3.575  10.115   2.545  3.6767  0.2627  0.1523
  367MOL0     H49501   3.789  10.234   2.625 -0.2413 -3.1964 -2.7949
  367MOL0     H49502   3.701  10.394   2.608  1.0146  0.5916 -1.4138
  367MOL0     H49503   3.633  10.303   2.383 -0.0695  3.3037 -0.4850
  367MOL0     H49504   3.764  10.188   2.408 -0.3628 -0.2191  0.4374
  367MOL0     H49505   4.024  10.518   2.335  1.7076  1.2372  0.9759
  367MOL0     H49506   4.137  10.690   2.231 -1.7119 -2.4072  1.1392
  367MOL0     H49507   4.062  10.755   2.086 -0.2507  1.1141 -0.5080
  367MOL0     H49508   4.077  10.856   2.227 -1.1606 -0.6586  0.2208
  367MOL0     H49509   3.722  11.175   2.203  4.0975  0.1434 -1.6640
  367MOL0     H49510   3.705  11.375   2.084 -1.4070  0.5873  1.3937
  367MOL0     H49511   3.845  11.407   1.801 -2.5271 -1.6916  3.8982
  367MOL0     H49512   3.739  11.369   1.657 -4.3166  1.0921  1.0720
  367MOL0     H49513   3.690  11.609   1.623  0.4681 -2.0878 -2.0705
  367MOL0     H49514   3.760  11.648   1.787  0.5064 -0.9145  0.5565
  367MOL0     H49515   3.970  11.625   1.704  0.3353  1.1358 -0.5350
  367MOL0     H49516   3.883  11.704   1.568 -4.1562  0.0850  0.0296
  367MOL0     H49517   3.936  11.403   1.574 -3.2579  0.0580  2.6073
  367MOL0     H49518   3.844  11.482   1.456 -3.1854 -0.7743  4.1632
  367MOL0     H49519   4.134  11.541   1.522 -1.4545  0.8662  1.6069
  367MOL0     H49520   4.045  11.621   1.389  2.2695 -1.0930 -2.7244
  367MOL0     H49521   4.061  11.314   1.394 -1.2813  1.4400  2.0277
  367MOL0     H49522   3.988  11.427   1.280 -0.4110  3.2612  1.4917
  367MOL0     H49523   4.268  11.501   1.319  1.8773  1.4261 -1.5874
  367MOL0     H49524   4.146  11.512   1.196 -3.6595  0.7637  3.3450
  367MOL0     H49525   4.287  11.236   1.269  1.3808  0.0730 -1.2788
  367MOL0     H49526   4.339  11.337   1.130 -0.6684  2.3663 -0.2342
  367MOL0     H49527   3.608  11.154   1.718  0.4591 -1.2936 -0.1282
  367MOL0     H49528   3.593  10.940   1.865 -0.7828 -0.6957  1.9045
  367MOL0     H49529   3.592  10.735   2.227  1.6767  1.6195  1.5476
  367MOL0     H49530   3.598  10.533   2.346  0.1037 -3.4489 -0.1354
  367MOL0     H49531   3.113   9.936   3.758  0.2726  1.3318  1.5009
  367MOL0     H49532   3.107  10.132   3.917  2.2743 -0.4281 -2.1242
  367MOL0     H49533   2.666  10.490   4.179 -0.5081  2.7593  0.0574
  367MOL0     H49534   2.722  10.552   4.441  0.2946  0.9508  1.3550
  367MOL0     H49535   3.068  10.601   4.692  1.7280 -0.2460 -0.8494
  367MOL0     H49536   3.145  10.503   4.565  0.8551  1.0510 -2.5281
  367MOL0     H49537   3.177  10.711   4.431 -1.0704 -1.7906  1.1538
  367MOL0     H49538   3.226  10.732   4.598 -1.1729 -0.0436  2.6179
  367MOL0     H49539   2.955  10.827   4.600 -0.6904  0.9314 -1.2901
  367MOL0     H49540   2.977  10.827   4.439 -0.1447 -2.9420 -0.2961
  367MOL0     H49541   3.215  10.951   4.587  0.1293 -1.3182 -3.7934
  367MOL0     H49542   3.053  11.016   4.631 -2.4008 -2.6027  1.1608
  367MOL0     H49543   3.076  11.202   4.272  4.3386  0.1509 -1.0715
  367MOL0     H49544   3.125  10.471   4.353  0.7835  2.7664 -1.9682
  367MOL0     H49545   3.088  10.400   4.142  1.2973  2.0412  0.8156
  368MOL0     O49546   0.203   3.426   8.848 -0.5317  0.0216 -0.2815
  368MOL0     C49547   0.284   3.336   8.858 -0.6728 -0.3347  0.2956
  368MOL0     O49548   0.292   3.246   8.971 -0.0840  0.2939 -0.3575
  368MOL0     C49549   0.214   3.259   9.082 -0.6702  0.1253 -0.0172
  368MOL0     C49550   0.077   3.292   9.092 -1.1389  0.1349  0.2422
  368MOL0     C49551   0.010   3.300   9.213 -0.5488  0.3433  0.1078
  368MOL0     C49552   0.071   3.274   9.335 -0.1375 -0.2630  0.2301
  368MOL0     O49553   0.021   3.266   9.456  0.4390  0.2292 -0.5113
  368MOL0     C49554  -0.128   3.241   9.474 -0.3976  0.1754  0.0633
  368MOL0     C49555  -0.154   3.097   9.452 -0.8533 -0.4794  0.4738
  368MOL0     C49556  -0.094   3.007   9.559 -0.2139 -0.3590  1.1827
  368MOL0     C49557   0.049   2.962   9.541  0.1286 -0.0051  0.4725
  368MOL0     C49558   0.073   2.840   9.630 -0.2476  0.1550 -1.2634
  368MOL0     C49559   0.034   2.711   9.556  0.2075 -0.5867  0.8271
  368MOL0     C49560   0.052   2.580   9.623  0.9823  0.1159  0.4830
  368MOL0     C49561   0.016   2.470   9.518  0.9938 -0.2617  0.1335
  368MOL0     N49562   0.046   2.328   9.558 -0.5321 -0.1203  0.6447
  368MOL0     C49563   0.071   2.281   9.684  0.2898 -0.0334 -0.2595
  368MOL0     C49564   0.087   2.146   9.679  0.4507  0.3842  0.9012
  368MOL0     C49565   0.100   2.050   9.793  0.0712  0.1068  0.4095
  368MOL0     C49566   0.137   1.901   9.751  0.3276 -0.0509 -0.2047
  368MOL0     C49567   0.281   1.880   9.703 -0.0913 -0.0273 -0.0553
  368MOL0     C49568   0.377   1.973   9.761  0.7551  0.4374  0.4424
  368MOL0     O49569   0.379   1.953   9.906 -0.3958 -0.3806  0.0281
  368MOL0     C49570   0.420   2.070   9.959 -0.4977 -0.1714  0.0690
  368MOL0     C49571   0.533   2.142   9.910 -1.1860 -0.3233 -0.4127
  368MOL0     C49572   0.582   2.258   9.973  0.1286 -0.1328 -0.5575
  368MOL0     C49573   0.700   2.339   9.916  0.1128 -0.4433  0.5940
  368MOL0     C49574   0.521   2.295  10.097 -0.0647 -0.7976  0.7210
  368MOL0     C49575   0.572   2.402  10.182  0.3377 -0.1431 -0.6577
  368MOL0     O49576   0.477   2.463  10.272 -0.2726 -0.5538  0.1755
  368MOL0     C49577   0.517   2.589  10.316  0.3644 -0.7271  0.2978
  368MOL0     C49578   0.511   2.618  10.449 -0.4482 -0.3119  0.1343
  368MOL0     C49579   0.564   2.733  10.511 -0.1325  0.0633 -0.2145
  368MOL0     C49580   0.607   2.833  10.429  0.0423 -0.5364  0.1227
  368MOL0     O49581   0.653   2.949  10.487  1.1178 -0.4559 -0.2958
  368MOL0     C49582   0.777   3.006  10.439 -0.6504 -0.5195 -0.1616
  368MOL0     C49583   0.848   3.106  10.522  0.8897 -0.4256 -0.3095
  368MOL0     C49584   0.789   3.246  10.512  0.4258  0.1480 -0.6581
  368MOL0     C49585   0.874   3.350  10.596 -1.3049 -0.0071  0.9018
  368MOL0     C49586   0.886   3.319  10.751 -0.1374 -0.5583  0.1832
  368MOL0     C49587   0.752   3.302  10.831 -1.0978  0.1936  0.8917
  368MOL0     C49588   0.685   3.433  10.850  0.6809 -0.4562  0.7083
  368MOL0     C49589   0.528   3.414  10.864 -0.0169 -0.0835  0.6939
  368MOL0    Cl49590   0.445   3.575  10.853 -0.2194 -0.7618  0.2732
  368MOL0     C49591   0.597   2.817  10.292  0.7641 -0.6047 -1.0156
  368MOL0     C49592   0.560   2.701  10.234  0.2959  1.1099  0.1781
  368MOL0     O49593   0.699   2.424  10.180  0.8063  0.6318 -0.5968
  368MOL0     C49594   0.406   2.223  10.137 -0.4913 -0.1778  0.0023
  368MOL0     C49595   0.354   2.112  10.071  0.5068 -0.7023  0.7580
  368MOL0     N49596   0.085   2.109   9.547  0.7597  0.0675  0.5596
  368MOL0     N49597   0.053   2.216   9.479  0.2103 -0.8317 -0.9520
  368MOL0     C49598   0.208   3.248   9.328  0.4027 -0.0424  0.1063
  368MOL0     C49599   0.274   3.243   9.208 -1.1734 -1.4123  0.1767
  368MOL0     C49600   0.386   3.320   8.745 -0.7964 -0.3042 -0.5226
  368MOL0     C49601   0.365   3.370   8.607  0.1723 -0.2970  0.5018
  368MOL0     C49602   0.460   3.352   8.504  0.4548  0.3528 -1.7477
  368MOL0     C49603   0.566   3.274   8.537  0.0967  0.4408  0.0504
  368MOL0     O49604   0.651   3.263   8.430 -0.7215  0.2364  0.1846
  368MOL0     C49605   0.751   3.163   8.435  0.1746  0.6740  0.3327
  368MOL0     C49606   0.849   3.186   8.324 -0.0263 -0.3583  0.0843
  368MOL0     C49607   0.788   3.135   8.189 -0.2843  0.5736 -0.6675
  368MOL0     C49608   0.897   3.117   8.086 -0.3736 -0.3910 -0.0846
  368MOL0     C49609   0.939   3.243   8.018  0.1530 -0.0328  0.7026
  368MOL0     C49610   0.980   3.339   7.964 -0.0659  0.7344 -0.1077
  368MOL0     C49611   0.580   3.218   8.663 -0.0383 -0.8004 -0.3856
  368MOL0     C49612   0.501   3.254   8.772  0.3899  0.1445  0.1622
  368MOL0     H49613   0.023   3.312   9.000 -0.8372  0.1354  0.0646
  368MOL0     H49614  -0.095   3.327   9.209 -1.3432 -2.1183  2.1240
  368MOL0     H49615  -0.155   3.267   9.578 -0.1440  0.9861 -0.0670
  368MOL0     H49616  -0.181   3.305   9.402 -0.2396 -1.0180 -1.1420
  368MOL0     H49617  -0.263   3.083   9.455 -1.2663  2.3266  1.1811
  368MOL0     H49618  -0.113   3.058   9.358  0.5477  0.8573  0.5012
  368MOL0     H49619  -0.106   3.053   9.658 -3.0713  1.8996 -0.0687
  368MOL0     H49620  -0.146   2.910   9.556  1.6634 -1.6854  4.7325
  368MOL0     H49621   0.070   2.946   9.435 -1.9284  2.6627 -0.4459
  368MOL0     H49622   0.118   3.044   9.563 -2.1432  2.1455  0.0247
  368MOL0     H49623   0.179   2.839   9.656 -0.6493  1.0338  0.5794
  368MOL0     H49624   0.012   2.840   9.721  0.5366  1.7985 -0.7031
  368MOL0     H49625  -0.073   2.714   9.534 -0.1315  2.1987  2.4623
  368MOL0     H49626   0.082   2.714   9.458  0.6350 -2.7629  0.9067
  368MOL0     H49627   0.152   2.559   9.662  0.8073 -1.3933  0.1839
  368MOL0     H49628  -0.023   2.573   9.703 -1.4012  0.3939 -1.5950
  368MOL0     H49629   0.072   2.491   9.426  1.0896  0.8103  0.4200
  368MOL0     H49630  -0.092   2.470   9.500  0.8137  1.7961  0.9456
  368MOL0     H49631   0.086   2.343   9.772 -1.0379  4.5906 -2.9572
  368MOL0     H49632   0.160   2.091   9.876  1.8468  0.5580 -1.0194
  368MOL0     H49633   0.004   2.029   9.841 -0.3416  0.1114 -0.3975
  368MOL0     H49634   0.069   1.857   9.677 -1.1423 -1.8593  2.0556
  368MOL0     H49635   0.117   1.838   9.839 -1.8542 -1.0648 -1.3396
  368MOL0     H49636   0.273   1.884   9.594 -1.1579 -1.9090 -0.0897
  368MOL0     H49637   0.320   1.779   9.721  1.2969 -0.2859 -3.7236
  368MOL0     H49638   0.346   2.076   9.741 -3.3909 -0.4358  1.4267
  368MOL0     H49639   0.474   1.960   9.712 -0.1671 -0.4426 -1.2272
  368MOL0     H49640   0.596   2.113   9.827 -0.7367 -0.0170 -0.1863
  368MOL0     H49641   0.797   2.302   9.949  0.4827 -0.5678 -0.5822
  368MOL0     H49642   0.697   2.336   9.807 -1.0858  0.1748  0.5968
  368MOL0     H49643   0.676   2.441   9.948 -1.9664 -0.0837 -1.8272
  368MOL0     H49644   0.480   2.537  10.515 -0.0985 -2.9213 -2.6712
  368MOL0     H49645   0.565   2.757  10.617 -2.7811 -0.6621  0.0478
  368MOL0     H49646   0.853   2.928  10.427  0.3934 -0.3743  3.8138
  368MOL0     H49647   0.763   3.055  10.343 -0.7436 -0.1262  0.0502
  368MOL0     H49648   0.851   3.072  10.626 -0.8753  0.8783  0.2157
  368MOL0     H49649   0.946   3.102  10.475  1.2901 -0.2229  0.4960
  368MOL0     H49650   0.688   3.242  10.553  0.9781 -2.9253  0.6119
  368MOL0     H49651   0.776   3.278  10.408 -1.7325  0.1394 -0.4397
  368MOL0     H49652   0.973   3.356  10.548 -0.8920 -1.8871  1.4352
  368MOL0     H49653   0.819   3.443  10.579 -1.6879 -0.7430 -2.9425
  368MOL0     H49654   0.942   3.402  10.795  0.5122 -1.5529  1.2502
  368MOL0     H49655   0.943   3.229  10.773 -2.5567 -2.2026  0.1076
  368MOL0     H49656   0.683   3.237  10.776  0.6565 -2.4742  1.6027
  368MOL0     H49657   0.783   3.251  10.923 -0.6485 -2.4710 -0.6014
  368MOL0     H49658   0.704   3.498  10.764  3.3799 -0.2324  1.3827
  368MOL0     H49659   0.726   3.486  10.936  0.3996  1.2970 -0.1928
  368MOL0     H49660   0.500   3.365  10.958 -2.1837  1.1594  0.7642
  368MOL0     H49661   0.475   3.358  10.787 -3.2765  0.6278  2.2223
  368MOL0     H49662   0.613   2.905  10.231 -1.4162  1.8645  1.6957
  368MOL0     H49663   0.556   2.703  10.126  0.9686  1.0979  0.1456
  368MOL0     H49664   0.356   2.265  10.224 -1.3563  2.2898 -1.5881
  368MOL0     H49665   0.260   2.076  10.111 -0.7535  0.0290 -1.3601
  368MOL0     H49666   0.263   3.215   9.415  1.0388 -1.9160 -0.9403
  368MOL0     H49667   0.376   3.208   9.213 -1.1775 -1.5717 -0.7930
  368MOL0     H49668   0.283   3.436   8.581  2.3456  2.2715 -0.2807
  368MOL0     H49669   0.455   3.400   8.406 -2.4269  2.2826 -0.7866
  368MOL0     H49670   0.816   3.162   8.523 -1.1445 -0.8559  1.3464
  368MOL0     H49671   0.700   3.068   8.417 -2.7347  2.5362 -2.1665
  368MOL0     H49672   0.930   3.122   8.359 -0.8028 -0.0145  2.7286
  368MOL0     H49673   0.874   3.292   8.318  0.9192 -0.6456 -2.3187
  368MOL0     H49674   0.707   3.199   8.154 -0.2742 -0.1483 -2.1117
  368MOL0     H49675   0.739   3.038   8.203 -1.4785  1.0614 -1.4029
  368MOL0     H49676   0.862   3.043   8.013  1.7050 -2.5476  0.9621
  368MOL0     H49677   0.983   3.067   8.130  1.0989  0.2263 -2.1077
  368MOL0     H49678   1.013   3.427   7.912  4.2147 -0.4029  0.2712
  368MOL0     H49679   0.658   3.150   8.697 -1.2268 -0.5191  3.4623
  368MOL0     H49680   0.515   3.211   8.871 -3.5067 -0.5134  0.5884
  369MOL0     O49681   8.001   0.111   6.753  0.7029  0.7256 -0.1100
  369MOL0     C49682   7.952   0.008   6.706  0.1054 -0.2478  0.5600
  369MOL0     O49683   7.920  -0.009   6.572 -0.3896  0.2357 -0.2614
  369MOL0     C49684   7.874   0.101   6.494 -0.2434 -0.4093 -0.6986
  369MOL0     C49685   7.957   0.170   6.413  0.0670 -0.2975  0.5924
  369MOL0     C49686   7.906   0.271   6.340  0.6551  0.8117  0.6929
  369MOL0     C49687   7.774   0.306   6.345 -0.3119 -0.6559  1.0463
  369MOL0     O49688   7.744   0.389   6.240  0.0703  0.4659 -0.3098
  369MOL0     C49689   7.607   0.422   6.224 -0.4761  0.0966  0.1537
  369MOL0     C49690   7.586   0.547   6.312  0.5668  0.9200 -0.2495
  369MOL0     C49691   7.629   0.678   6.247  0.0446 -0.3218  0.5056
  369MOL0     C49692   7.636   0.787   6.347 -1.2714 -0.8896  0.8607
  369MOL0     C49693   7.729   0.911   6.321  0.7930  0.7111 -0.7207
  369MOL0     C49694   7.876   0.878   6.303 -0.5811 -1.4551 -1.3817
  369MOL0     C49695   7.947   0.975   6.218 -0.1149 -0.3044  0.0813
  369MOL0     C49696   8.083   0.909   6.165  0.2244 -0.8434 -0.1967
  369MOL0     N49697   8.172   1.016   6.116 -0.4150  0.3954 -0.2295
  369MOL0     C49698   8.184   1.064   5.990  0.6788  0.0232 -0.0932
  369MOL0     C49699   8.243   1.182   6.010  0.4729 -0.3505  0.3805
  369MOL0     C49700   8.274   1.281   5.914  0.8013  0.2704 -0.7408
  369MOL0     C49701   8.376   1.237   5.807  0.5498 -0.1077 -1.0727
  369MOL0     C49702   8.323   1.222   5.674 -0.5219  0.3644 -0.0044
  369MOL0     C49703   8.369   1.106   5.582  0.4171 -0.3859 -0.7056
  369MOL0     O49704   8.516   1.094   5.575 -0.2037  0.4101  0.3697
  369MOL0     C49705   8.564   0.967   5.539  1.3351  0.0397 -1.0381
  369MOL0     C49706   8.694   0.948   5.566  0.1048 -0.0839  0.3363
  369MOL0     C49707   8.764   0.830   5.537 -0.5188 -0.8348 -0.1095
  369MOL0     C49708   8.907   0.841   5.571  0.4540 -0.4499  0.0082
  369MOL0     C49709   8.685   0.727   5.476 -0.2179 -0.1961 -0.0900
  369MOL0     C49710   8.742   0.592   5.458  0.4048  0.2943  0.8960
  369MOL0     O49711   8.684   0.527   5.357 -0.5039 -0.2908  0.4261
  369MOL0     C49712   8.701   0.388   5.346 -0.1298 -1.0317  1.1109
  369MOL0     C49713   8.610   0.290   5.388 -0.1142  0.3324  0.0157
  369MOL0     C49714   8.641   0.151   5.364 -0.0103 -0.3214 -0.7757
  369MOL0     C49715   8.759   0.120   5.296 -0.6361 -0.1799 -0.9645
  369MOL0     O49716   8.804  -0.015   5.287  0.1076 -0.6404  0.2471
  369MOL0     C49717   8.695  -0.119   5.279 -0.7808  0.1477 -0.6556
  369MOL0     C49718   8.602  -0.122   5.156  0.0919  0.5247 -0.2277
  369MOL0     C49719   8.474  -0.204   5.192 -0.7761 -0.3369 -0.9413
  369MOL0     C49720   8.353  -0.169   5.113 -0.0663 -0.2961  0.5359
  369MOL0     C49721   8.227  -0.235   5.175  0.3845 -0.6102  0.0430
  369MOL0     C49722   8.118  -0.206   5.073  0.7134  0.8452  0.1476
  369MOL0     C49723   7.978  -0.248   5.128  0.3474  0.7114  0.1403
  369MOL0     C49724   7.850  -0.180   5.080 -0.6947 -0.5067 -0.2441
  369MOL0    Cl49725   7.712  -0.215   5.195 -0.2812  0.3111 -0.1632
  369MOL0     C49726   8.831   0.217   5.230 -0.2539  1.3472 -0.8571
  369MOL0     C49727   8.805   0.349   5.258 -0.6429 -0.2280 -0.5224
  369MOL0     O49728   8.800   0.539   5.546 -0.3383  0.0002  0.4438
  369MOL0     C49729   8.553   0.743   5.455  0.7918 -0.0279  0.3953
  369MOL0     C49730   8.492   0.865   5.481 -0.3048 -0.8986 -0.6237
  369MOL0     N49731   8.265   1.206   6.144 -0.1508 -1.1395  0.6253
  369MOL0     N49732   8.225   1.106   6.210  0.5181  0.2978  0.1572
  369MOL0     C49733   7.683   0.234   6.432 -0.4435 -0.1667  1.1268
  369MOL0     C49734   7.744   0.141   6.520  0.1592  0.1091  0.4657
  369MOL0     C49735   7.939  -0.108   6.793 -0.0673 -0.1671 -0.2612
  369MOL0     C49736   7.960  -0.107   6.930  0.0871  0.1412 -0.2295
  369MOL0     C49737   7.929  -0.210   7.007 -0.6056  1.0262 -0.7409
  369MOL0     C49738   7.892  -0.339   6.954  0.4057 -0.2536 -0.6021
  369MOL0     O49739   7.876  -0.444   7.047  0.1902  0.6383 -0.3747
  369MOL0     C49740   7.863  -0.576   6.999  0.6982 -0.3010 -0.1625
  369MOL0     C49741   7.724  -0.628   7.002  0.5734  0.1184  0.5089
  369MOL0     C49742   7.715  -0.778   6.979 -0.3946  0.1945  0.2006
  369MOL0     C49743   7.565  -0.830   6.963  0.0280  0.0405 -0.8055
  369MOL0     C49744   7.497  -0.833   7.097 -0.5390  0.1113  0.3697
  369MOL0     C49745   7.466  -0.848   7.213 -0.1799 -0.0471  0.0676
  369MOL0     C49746   7.871  -0.342   6.815 -0.1548  0.8748  0.7180
  369MOL0     C49747   7.901  -0.231   6.737 -0.2020  1.0621  0.1896
  369MOL0     H49748   8.064   0.150   6.411  0.0413 -0.3648 -0.4895
  369MOL0     H49749   7.968   0.329   6.273  2.6153 -2.2296 -0.3028
  369MOL0     H49750   7.587   0.457   6.123  3.0490 -1.1084 -1.1049
  369MOL0     H49751   7.543   0.337   6.253 -2.2864  1.2984 -0.1396
  369MOL0     H49752   7.479   0.549   6.331  0.5642  2.8573 -0.2770
  369MOL0     H49753   7.645   0.547   6.404  2.0811 -3.2633 -0.9797
  369MOL0     H49754   7.723   0.661   6.192  0.6666  1.2919  1.0130
  369MOL0     H49755   7.563   0.702   6.164 -2.2322  3.2767  3.0903
  369MOL0     H49756   7.533   0.818   6.369 -0.4597  1.6368  1.4088
  369MOL0     H49757   7.685   0.743   6.433  1.9209  0.6941  0.0044
  369MOL0     H49758   7.700   0.950   6.223  1.3686 -0.5682 -1.4205
  369MOL0     H49759   7.707   0.983   6.400  1.3857 -0.6461  0.7389
  369MOL0     H49760   7.910   0.862   6.405 -1.3364  0.8658 -0.7109
  369MOL0     H49761   7.878   0.780   6.254 -3.0363 -2.8628  1.0588
  369MOL0     H49762   7.895   1.008   6.127 -0.2383  3.4427  1.3582
  369MOL0     H49763   7.963   1.074   6.261 -1.5150 -0.1821  0.3762
  369MOL0     H49764   8.060   0.828   6.094 -2.8989  2.0708 -2.8695
  369MOL0     H49765   8.132   0.864   6.252 -0.3199  1.7921  1.5845
  369MOL0     H49766   8.140   1.019   5.902  1.7369 -3.4886  1.0021
  369MOL0     H49767   8.182   1.311   5.862  0.4106  0.3753  0.0069
  369MOL0     H49768   8.293   1.372   5.972  1.5885  0.0700 -0.6768
  369MOL0     H49769   8.431   1.149   5.840 -1.5969 -0.9111  0.6022
  369MOL0     H49770   8.440   1.325   5.794  0.4192 -0.0111 -1.0642
  369MOL0     H49771   8.345   1.312   5.615  3.7528 -1.7786 -2.1383
  369MOL0     H49772   8.215   1.202   5.675 -0.5036 -0.4336 -3.0542
  369MOL0     H49773   8.329   1.118   5.481  0.7037  3.5280 -0.4896
  369MOL0     H49774   8.332   1.022   5.642  1.3054  0.3132  0.8694
  369MOL0     H49775   8.755   1.027   5.607 -2.6492  0.8208  3.1004
  369MOL0     H49776   8.917   0.875   5.674  0.7363 -2.3804  0.6722
  369MOL0     H49777   8.961   0.746   5.566 -0.2815 -0.8818  0.1368
  369MOL0     H49778   8.959   0.903   5.497  0.4894  0.5938  0.8890
  369MOL0     H49779   8.527   0.320   5.451  3.0105  0.0472  4.8064
  369MOL0     H49780   8.580   0.081   5.420 -2.3718  2.8653  0.9655
  369MOL0     H49781   8.748  -0.215   5.275  0.9554  0.8986  1.8540
  369MOL0     H49782   8.643  -0.132   5.375 -2.9783 -3.4916 -2.1006
  369MOL0     H49783   8.572  -0.019   5.133 -0.9156  1.4386  4.2806
  369MOL0     H49784   8.649  -0.169   5.069 -1.2273 -1.5560  0.0986
  369MOL0     H49785   8.455  -0.166   5.293  0.6910  1.1896 -1.1755
  369MOL0     H49786   8.485  -0.312   5.189 -2.3901 -0.5008 -1.6390
  369MOL0     H49787   8.354  -0.061   5.098  1.5291 -0.6851 -3.3293
  369MOL0     H49788   8.367  -0.216   5.015  0.8148 -0.9044  0.9420
  369MOL0     H49789   8.209  -0.191   5.274  1.1849  1.3884 -0.6362
  369MOL0     H49790   8.231  -0.344   5.186  0.1071 -0.6739 -0.4901
  369MOL0     H49791   8.122  -0.103   5.036  0.3743  1.0023  0.5444
  369MOL0     H49792   8.149  -0.263   4.984 -1.6224  2.5668 -1.8937
  369MOL0     H49793   7.975  -0.211   5.231 -1.3706  2.6161 -0.5277
  369MOL0     H49794   7.973  -0.357   5.133 -3.3498  0.8199  1.4435
  369MOL0     H49795   7.828  -0.209   4.976  0.2575  1.2980 -1.0009
  369MOL0     H49796   7.863  -0.071   5.083 -0.5263 -0.5422  0.4616
  369MOL0     H49797   8.927   0.188   5.188 -0.1929 -3.1085  1.7078
  369MOL0     H49798   8.877   0.421   5.222 -0.0570 -1.1617 -1.2626
  369MOL0     H49799   8.502   0.652   5.424  2.3906 -0.9429  0.3805
  369MOL0     H49800   8.389   0.883   5.453  0.6469  7.0868 -1.3382
  369MOL0     H49801   7.575   0.241   6.433 -0.4906  3.7035 -1.9966
  369MOL0     H49802   7.685   0.095   6.599 -2.9322 -0.4748 -1.9633
  369MOL0     H49803   7.998  -0.015   6.972  3.0362  0.4291 -3.1358
  369MOL0     H49804   7.932  -0.204   7.116 -3.0550 -3.8900 -0.1032
  369MOL0     H49805   7.913  -0.585   6.903  1.6972 -1.4875  0.4443
  369MOL0     H49806   7.918  -0.628   7.078 -0.2075  0.0492  0.7262
  369MOL0     H49807   7.673  -0.579   6.918  1.0346 -0.2442  0.0076
  369MOL0     H49808   7.669  -0.597   7.091 -1.1995 -1.3345 -0.0140
  369MOL0     H49809   7.764  -0.834   7.060  2.1385 -1.5304 -2.3293
  369MOL0     H49810   7.766  -0.793   6.883 -2.0905 -0.3839 -0.6584
  369MOL0     H49811   7.568  -0.930   6.920 -2.5202  0.3335 -1.8432
  369MOL0     H49812   7.508  -0.761   6.899 -2.4006 -0.8300  0.3004
  369MOL0     H49813   7.425  -0.846   7.312  2.6674  0.1990  1.3536
  369MOL0     H49814   7.831  -0.434   6.773  3.5621 -1.3563  1.6579
  369MOL0     H49815   7.873  -0.237   6.632  0.1028 -0.0936  0.1593
  370MOL0     O49816   1.349   7.075  10.361  0.1811  1.0985 -0.5927
  370MOL0     C49817   1.434   7.102  10.451  0.9421 -0.7506  0.1624
  370MOL0     O49818   1.564   7.148  10.427 -0.2046 -0.0757  0.1054
  370MOL0     C49819   1.595   7.171  10.294 -0.7725 -0.5368 -0.3027
  370MOL0     C49820   1.605   7.297  10.246 -0.2835  0.2259 -0.3415
  370MOL0     C49821   1.647   7.320  10.111  0.0316 -0.6393  0.3614
  370MOL0     C49822   1.689   7.211  10.035 -0.4136  0.3924 -0.9781
  370MOL0     O49823   1.714   7.242   9.904 -0.0096 -0.0606  0.1771
  370MOL0     C49824   1.784   7.156   9.826  0.0152  0.2963  0.1092
  370MOL0     C49825   1.844   7.234   9.712 -0.3192 -0.3673  0.9279
  370MOL0     C49826   1.927   7.356   9.750  0.3058  0.4922 -0.9160
  370MOL0     C49827   1.989   7.416   9.624 -1.0073  0.2796  0.1338
  370MOL0     C49828   2.069   7.553   9.643 -0.3166 -0.2142  0.4163
  370MOL0     C49829   2.185   7.531   9.738 -0.9969  0.6840 -0.0540
  370MOL0     C49830   2.306   7.619   9.704 -1.1627 -0.1146 -0.2334
  370MOL0     C49831   2.429   7.597   9.803  0.5903 -0.1344  0.6496
  370MOL0     N49832   2.535   7.677   9.757  0.4337 -0.3874 -0.9156
  370MOL0     C49833   2.619   7.658   9.651 -0.4669  0.1745  0.9731
  370MOL0     C49834   2.686   7.777   9.646 -0.9116 -0.6209 -0.6345
  370MOL0     C49835   2.749   7.828   9.515 -0.6716 -0.1569  0.3238
  370MOL0     C49836   2.894   7.878   9.529 -0.3529  0.4329  0.0268
  370MOL0     C49837   2.897   8.024   9.572 -0.1940 -0.7383 -0.0622
  370MOL0     C49838   2.856   8.117   9.450  0.5100  0.0671 -0.0918
  370MOL0     O49839   2.863   8.244   9.508 -0.3339  0.1986 -0.3650
  370MOL0     C49840   2.797   8.340   9.444  0.4792 -0.9214  0.1380
  370MOL0     C49841   2.749   8.448   9.527  0.3628 -0.2155 -0.9568
  370MOL0     C49842   2.680   8.550   9.475 -0.7459 -0.2139 -0.6158
  370MOL0     C49843   2.613   8.652   9.570 -0.3114 -1.1219  0.4265
  370MOL0     C49844   2.653   8.558   9.337 -0.2334 -0.7532  0.1357
  370MOL0     C49845   2.599   8.672   9.264 -0.1603  0.3528  0.6694
  370MOL0     O49846   2.640   8.792   9.312 -0.1877 -0.2956  0.3841
  370MOL0     C49847   2.594   8.907   9.255 -1.0293  0.4662 -0.4749
  370MOL0     C49848   2.471   8.952   9.294  0.6698  0.9211 -0.0256
  370MOL0     C49849   2.410   9.067   9.231  0.2435 -0.5035 -1.3465
  370MOL0     C49850   2.491   9.145   9.154  0.4426  0.1340  0.1119
  370MOL0     O49851   2.456   9.272   9.108  0.3497 -0.9921 -0.1647
  370MOL0     C49852   2.431   9.368   9.214  0.7005  0.4639  0.3139
  370MOL0     C49853   2.386   9.502   9.142  0.2653  0.6197 -0.2547
  370MOL0     C49854   2.393   9.629   9.224  0.2458  0.1743  1.2364
  370MOL0     C49855   2.298   9.636   9.335 -0.0892 -0.2944 -0.4887
  370MOL0     C49856   2.307   9.777   9.407 -0.4213 -0.4072 -1.0624
  370MOL0     C49857   2.221   9.776   9.536 -0.2127  0.2334 -0.3882
  370MOL0     C49858   2.078   9.719   9.533 -0.6781 -0.1891  0.1511
  370MOL0     C49859   1.995   9.755   9.661  0.8757 -0.1966  0.1300
  370MOL0    Cl49860   1.844   9.668   9.654 -0.0421  0.0324 -0.3012
  370MOL0     C49861   2.619   9.096   9.117  0.1447 -0.9585 -0.5178
  370MOL0     C49862   2.672   8.981   9.171  0.1731  0.1398  0.3398
  370MOL0     O49863   2.530   8.655   9.156  0.0788 -0.0906 -0.5888
  370MOL0     C49864   2.676   8.442   9.259 -0.0349 -0.5174  0.4947
  370MOL0     C49865   2.754   8.340   9.308  0.4149  0.1604  0.5960
  370MOL0     N49866   2.661   7.860   9.752 -0.3905  0.1663 -0.3436
  370MOL0     N49867   2.569   7.796   9.813 -0.4719 -0.3800  0.2836
  370MOL0     C49868   1.668   7.081  10.083 -0.0436  0.2116  0.8708
  370MOL0     C49869   1.618   7.066  10.210 -0.4712 -0.0172  0.4190
  370MOL0     C49870   1.396   7.077  10.594  0.8246  0.1030  0.8158
  370MOL0     C49871   1.496   7.072  10.686 -0.1631 -0.3677  0.0965
  370MOL0     C49872   1.469   7.027  10.818 -0.1071 -1.0305  0.4427
  370MOL0     C49873   1.335   7.010  10.860 -0.2159 -1.1483 -0.2089
  370MOL0     O49874   1.324   6.978  10.994 -0.1264  0.1105 -0.0940
  370MOL0     C49875   1.212   7.026  11.061  0.0714 -0.2560  0.4345
  370MOL0     C49876   1.250   7.048  11.212  0.1157  0.3642 -0.0433
  370MOL0     C49877   1.141   7.091  11.309 -0.5743  0.2333  0.4612
  370MOL0     C49878   1.208   7.143  11.440  0.9846  0.6927 -0.9245
  370MOL0     C49879   1.264   7.276  11.411  0.2943  0.7911 -0.2838
  370MOL0     C49880   1.326   7.383  11.398 -0.1766  0.3086  1.2915
  370MOL0     C49881   1.238   7.025  10.770  0.0530  0.3101  0.8727
  370MOL0     C49882   1.264   7.057  10.636  0.0511 -0.1401 -0.5885
  370MOL0     H49883   1.582   7.373  10.320 -1.2282 -1.4750  1.1950
  370MOL0     H49884   1.639   7.419  10.068 -1.8582 -1.8220 -2.2345
  370MOL0     H49885   1.858   7.110   9.891  1.1754  2.9046  0.7636
  370MOL0     H49886   1.715   7.078   9.792  2.3683 -2.1166  0.5889
  370MOL0     H49887   1.894   7.162   9.647  0.0638 -0.0660  0.8874
  370MOL0     H49888   1.759   7.257   9.648  0.1955 -0.9105  0.0341
  370MOL0     H49889   1.857   7.425   9.798  2.7640  1.2422  1.9197
  370MOL0     H49890   2.002   7.333   9.826 -2.1717 -2.1372  0.9029
  370MOL0     H49891   2.059   7.347   9.577  2.2219  0.5840  3.9777
  370MOL0     H49892   1.904   7.429   9.556 -1.5697 -2.7023  0.1214
  370MOL0     H49893   2.112   7.568   9.544  1.6482 -1.8256  0.9617
  370MOL0     H49894   1.998   7.633   9.666  1.3598  1.6382 -0.4646
  370MOL0     H49895   2.154   7.557   9.840  0.7282 -0.1480  0.7367
  370MOL0     H49896   2.215   7.426   9.749  1.5189  1.2749 -0.5757
  370MOL0     H49897   2.340   7.600   9.601 -0.9281  0.2128 -0.2208
  370MOL0     H49898   2.280   7.725   9.715  0.9610  0.2852  1.8049
  370MOL0     H49899   2.455   7.493   9.827 -2.0174 -0.7043  1.3255
  370MOL0     H49900   2.403   7.619   9.907  3.0289  1.4419  1.0001
  370MOL0     H49901   2.625   7.588   9.568 -1.3540  3.4722 -2.1029
  370MOL0     H49902   2.745   7.747   9.442 -2.1716  0.2689 -0.0957
  370MOL0     H49903   2.678   7.905   9.483 -0.6846 -0.1791  0.2988
  370MOL0     H49904   2.948   7.868   9.435  0.9028  3.1059  0.3495
  370MOL0     H49905   2.953   7.820   9.600 -1.2696  1.3755  1.6326
  370MOL0     H49906   3.001   8.042   9.600 -0.0062  1.0706 -1.7172
  370MOL0     H49907   2.832   8.034   9.660  2.6118 -0.2611  2.0699
  370MOL0     H49908   2.761   8.093   9.403  1.1171 -0.6893 -0.9731
  370MOL0     H49909   2.926   8.106   9.366 -0.7406  3.9027 -1.8343
  370MOL0     H49910   2.770   8.436   9.633 -0.2072 -0.3986 -0.8640
  370MOL0     H49911   2.511   8.662   9.530 -0.8714 -1.2793  1.7483
  370MOL0     H49912   2.604   8.630   9.677 -0.5450  2.5427  1.2737
  370MOL0     H49913   2.670   8.744   9.573  0.4156 -1.5776  0.8543
  370MOL0     H49914   2.419   8.897   9.372 -1.2910  1.9896 -0.5229
  370MOL0     H49915   2.318   9.110   9.270 -0.6415 -4.1594  1.0701
  370MOL0     H49916   2.353   9.332   9.282  0.0876 -0.0672 -0.6326
  370MOL0     H49917   2.526   9.370   9.267  0.7108  0.8974  0.2811
  370MOL0     H49918   2.452   9.509   9.055 -0.9060 -0.0057 -1.2214
  370MOL0     H49919   2.285   9.484   9.106  1.7647 -3.8109 -3.1194
  370MOL0     H49920   2.366   9.713   9.160 -1.0691 -0.4275  0.9675
  370MOL0     H49921   2.496   9.657   9.248  0.1921  1.1814  0.3426
  370MOL0     H49922   2.199   9.602   9.302  0.0988 -1.3567 -0.0034
  370MOL0     H49923   2.324   9.573   9.421  1.5951  2.6722  1.3546
  370MOL0     H49924   2.288   9.860   9.339 -2.3615  1.9091  2.0488
  370MOL0     H49925   2.407   9.813   9.431 -0.2573  0.2388 -2.5925
  370MOL0     H49926   2.282   9.712   9.601 -0.4862 -0.8619 -1.1730
  370MOL0     H49927   2.214   9.880   9.569 -0.1179 -0.3383  1.6012
  370MOL0     H49928   2.097   9.611   9.536 -1.3199 -0.3785 -1.5547
  370MOL0     H49929   2.034   9.749   9.438 -2.3149 -1.9062  0.3004
  370MOL0     H49930   1.977   9.862   9.670 -1.5867 -0.2307 -2.8030
  370MOL0     H49931   2.050   9.735   9.753  2.0164 -0.2414 -0.5355
  370MOL0     H49932   2.676   9.159   9.051  0.7481  0.5985  1.3872
  370MOL0     H49933   2.770   8.956   9.133  0.3943  0.8442  0.4212
  370MOL0     H49934   2.653   8.424   9.154  1.8001 -1.8333  0.2702
  370MOL0     H49935   2.775   8.251   9.250  0.8848  0.2185  0.6714
  370MOL0     H49936   1.700   7.000  10.018 -2.5553  0.2380 -0.5257
  370MOL0     H49937   1.626   6.963  10.243  0.0683 -0.4504 -0.9686
  370MOL0     H49938   1.601   7.088  10.665  0.3051 -1.2658  1.5742
  370MOL0     H49939   1.545   7.000  10.891 -0.7765 -0.4074  1.4101
  370MOL0     H49940   1.173   7.116  11.013  0.3165 -1.7828 -2.8500
  370MOL0     H49941   1.138   6.948  11.045  0.9950 -0.9726 -0.4441
  370MOL0     H49942   1.328   7.126  11.212 -0.4872  1.0517  2.4574
  370MOL0     H49943   1.295   6.957  11.252 -0.1466 -0.8145 -2.2764
  370MOL0     H49944   1.088   7.001  11.342 -1.4427 -0.3942 -2.4213
  370MOL0     H49945   1.073   7.167  11.270 -1.1511  1.5918  3.7501
  370MOL0     H49946   1.277   7.076  11.491  1.2040  2.5008  1.3178
  370MOL0     H49947   1.135   7.152  11.521  0.3564 -2.3485 -1.0532
  370MOL0     H49948   1.375   7.473  11.367  1.7467  0.0787  3.3587
  370MOL0     H49949   1.136   6.997  10.792  0.4845 -0.1472  2.3849
  370MOL0     H49950   1.189   7.040  10.560  1.2264 -1.9737 -1.4062
  371MOL0     O49951   5.334   9.589   1.620  0.2395  0.8105 -0.4850
  371MOL0     C49952   5.239   9.644   1.569 -0.0098  0.2448 -0.1500
  371MOL0     O49953   5.170   9.610   1.457 -0.8102  0.2512  0.3895
  371MOL0     C49954   5.246   9.560   1.350 -0.2679  0.5655 -0.5044
  371MOL0     C49955   5.371   9.612   1.303  0.3751 -0.1449  0.3611
  371MOL0     C49956   5.433   9.540   1.202  0.6172  0.1198  0.0087
  371MOL0     C49957   5.388   9.431   1.137 -0.4606 -0.2319  0.0153
  371MOL0     O49958   5.465   9.391   1.033  1.1146 -0.1831  0.4367
  371MOL0     C49959   5.415   9.417   0.898  0.2608  0.1179  0.5258
  371MOL0     C49960   5.526   9.451   0.799  0.4715  0.3958  0.7558
  371MOL0     C49961   5.488   9.460   0.653 -0.0307 -0.1100 -0.1863
  371MOL0     C49962   5.469   9.324   0.580  0.3181 -0.7713 -0.5246
  371MOL0     C49963   5.318   9.327   0.537  0.6469  0.1453  0.4083
  371MOL0     C49964   5.255   9.200   0.470 -0.4353  0.5160 -0.8555
  371MOL0     C49965   5.288   9.066   0.535 -0.2555 -0.2235 -0.7495
  371MOL0     C49966   5.235   9.053   0.682  0.3225 -0.4384  0.5822
  371MOL0     N49967   5.091   9.070   0.701  0.7688 -0.3581  0.3275
  371MOL0     C49968   4.992   8.980   0.676  0.9121  0.1453  0.6294
  371MOL0     C49969   4.889   9.029   0.745 -0.0111  0.0825  0.1691
  371MOL0     C49970   4.748   8.959   0.746  0.1314  0.4510  0.5619
  371MOL0     C49971   4.718   8.905   0.601 -0.3597  1.7384  0.4714
  371MOL0     C49972   4.705   9.026   0.495  0.0337 -0.1751 -0.5056
  371MOL0     C49973   4.661   8.988   0.352 -0.3602 -0.5450  0.3570
  371MOL0     O49974   4.518   8.975   0.337 -0.2836  0.1284  0.1468
  371MOL0     C49975   4.485   8.845   0.343  0.0155  0.0027  0.0279
  371MOL0     C49976   4.523   8.753   0.243  1.2591  0.2066  0.0710
  371MOL0     C49977   4.485   8.613   0.249 -0.3962 -0.1546 -1.4510
  371MOL0     C49978   4.501   8.521   0.125  0.0939 -0.6386  0.2596
  371MOL0     C49979   4.419   8.566   0.371 -0.2413 -0.0121  0.3200
  371MOL0     C49980   4.378   8.429   0.400 -0.8753  0.0210  0.2919
  371MOL0     O49981   4.243   8.410   0.397  0.3313 -0.5255  0.1904
  371MOL0     C49982   4.195   8.274   0.394 -0.1738  0.1824  0.1055
  371MOL0     C49983   4.069   8.243   0.334  0.9491  0.0122  0.0247
  371MOL0     C49984   4.012   8.111   0.329 -0.2302 -0.3372  0.4100
  371MOL0     C49985   4.076   8.008   0.385  0.0549 -0.0521 -1.1099
  371MOL0     O49986   4.022   7.884   0.391  0.1939  0.3845  0.6507
  371MOL0     C49987   3.998   7.821   0.260  0.5014 -0.1500 -0.7253
  371MOL0     C49988   4.123   7.804   0.179 -0.3205  0.1899 -0.3567
  371MOL0     C49989   4.227   7.733   0.263 -0.5375  0.2503  0.1947
  371MOL0     C49990   4.341   7.678   0.171  0.5327 -0.4701  0.0449
  371MOL0     C49991   4.429   7.792   0.122  0.0133  0.4029  0.8389
  371MOL0     C49992   4.525   7.851   0.228  0.2885 -0.2887  0.2369
  371MOL0     C49993   4.582   7.993   0.190  0.1594 -0.4955 -0.8428
  371MOL0     C49994   4.687   8.044   0.282  0.4618  0.3521 -0.5115
  371MOL0    Cl49995   4.812   7.927   0.349  0.1412  0.1317 -0.0895
  371MOL0     C49996   4.188   8.039   0.462  0.2088  0.4322  0.8854
  371MOL0     C49997   4.244   8.165   0.462  0.2431  0.2256  0.0009
  371MOL0     O49998   4.465   8.345   0.418  0.3887 -0.0260  0.1067
  371MOL0     C49999   4.384   8.662   0.467 -0.2846  0.7135 -0.5832
  371MOL0     C50000   4.414   8.798   0.446  0.0906  0.3512 -0.7319
  371MOL0     N50001   4.919   9.155   0.786  0.4684  0.4444  0.5234
  371MOL0     N50002   5.040   9.186   0.759 -0.2499  0.5942 -0.1655
  371MOL0     C50003   5.258   9.384   1.173  0.4939 -0.5097  0.2575
  371MOL0     C50004   5.198   9.450   1.281  0.9317  0.7920 -0.0365
  371MOL0     C50005   5.212   9.769   1.635  0.4482 -0.1343 -0.1467
  371MOL0     C50006   5.080   9.829   1.621 -0.0410 -0.0655 -1.0171
  371MOL0     C50007   5.057   9.946   1.700  0.5984 -0.2085  0.6774
  371MOL0     C50008   5.153  10.021   1.764  0.2862  0.2106 -0.0567
  371MOL0     O50009   5.120  10.130   1.848 -0.4426 -0.0857  0.1741
  371MOL0     C50010   5.041  10.226   1.772  0.0499  0.5992 -0.9431
  371MOL0     C50011   5.007  10.346   1.863 -0.6823 -0.2908  0.3444
  371MOL0     C50012   4.935  10.307   1.996  0.2259 -0.1294  0.1814
  371MOL0     C50013   4.818  10.195   1.984  0.0695  0.1433  0.0719
  371MOL0     C50014   4.726  10.229   1.879 -0.8324 -0.3629 -0.7394
  371MOL0     C50015   4.648  10.236   1.781 -0.7039 -0.8201 -0.0506
  371MOL0     C50016   5.275   9.958   1.780 -0.0090 -0.4110  0.6268
  371MOL0     C50017   5.299   9.836   1.718 -0.8826  0.4119 -0.7224
  371MOL0     H50018   5.413   9.696   1.357 -0.9917 -0.9662  2.8898
  371MOL0     H50019   5.526   9.576   1.159 -0.1539 -1.5570 -3.4083
  371MOL0     H50020   5.366   9.324   0.864  2.6662 -1.0889  0.1405
  371MOL0     H50021   5.340   9.496   0.905  2.4726  2.2394  1.4548
  371MOL0     H50022   5.572   9.541   0.841 -3.4841  1.2882  3.7926
  371MOL0     H50023   5.589   9.363   0.814 -0.2666 -1.0617 -3.3770
  371MOL0     H50024   5.398   9.520   0.644 -1.9250 -2.6662  0.4553
  371MOL0     H50025   5.574   9.505   0.603 -0.1192  2.2431  1.6164
  371MOL0     H50026   5.538   9.302   0.498  0.3318 -1.0076 -0.4511
  371MOL0     H50027   5.492   9.240   0.647 -0.4515 -0.1562  0.5359
  371MOL0     H50028   5.255   9.355   0.622 -0.2144  0.4110 -0.3034
  371MOL0     H50029   5.318   9.413   0.470  0.3847  0.4030  0.7395
  371MOL0     H50030   5.146   9.204   0.478 -0.3535  0.9457  0.3011
  371MOL0     H50031   5.278   9.207   0.363  3.2733  1.2477 -0.1516
  371MOL0     H50032   5.249   8.982   0.477  1.3773  1.1683 -4.1853
  371MOL0     H50033   5.396   9.052   0.526 -0.5755 -1.5799 -3.8165
  371MOL0     H50034   5.279   9.140   0.730 -1.0644  0.9198 -0.5292
  371MOL0     H50035   5.276   8.961   0.727  1.0983 -0.2209  0.3343
  371MOL0     H50036   4.994   8.890   0.614 -1.9052  2.2597 -2.8826
  371MOL0     H50037   4.746   8.884   0.825  0.0958  3.6133  3.8564
  371MOL0     H50038   4.672   9.031   0.779  2.6473  3.6494 -0.0699
  371MOL0     H50039   4.626   8.846   0.610 -0.7132  2.4594  1.9486
  371MOL0     H50040   4.798   8.836   0.575  0.6294  3.6287 -1.8325
  371MOL0     H50041   4.793   9.091   0.486 -0.3829  1.7961  5.3431
  371MOL0     H50042   4.625   9.089   0.536 -0.9912 -0.1961 -2.3583
  371MOL0     H50043   4.710   8.891   0.335 -1.1256 -0.9681  0.5097
  371MOL0     H50044   4.695   9.058   0.276  0.8292 -1.3615  0.1059
  371MOL0     H50045   4.565   8.781   0.147  0.3335 -0.2591 -0.4843
  371MOL0     H50046   4.578   8.450   0.154  0.7946 -1.2580 -2.8007
  371MOL0     H50047   4.407   8.477   0.090  0.2660 -0.9637  0.2058
  371MOL0     H50048   4.540   8.574   0.038  1.5547 -1.3523  0.4505
  371MOL0     H50049   4.012   8.325   0.292  2.9765  0.7969 -1.3665
  371MOL0     H50050   3.917   8.111   0.276  0.9885  1.9259 -2.0246
  371MOL0     H50051   3.951   7.724   0.279  1.4780 -0.6163 -0.5810
  371MOL0     H50052   3.927   7.887   0.211  1.2114  0.6712 -0.6721
  371MOL0     H50053   4.098   7.745   0.090  0.3747 -1.5846  0.5960
  371MOL0     H50054   4.165   7.902   0.154  1.3839 -0.5827 -0.6630
  371MOL0     H50055   4.187   7.644   0.314  3.7781 -3.3505 -1.9169
  371MOL0     H50056   4.273   7.783   0.348  0.3607  0.1016 -0.1901
  371MOL0     H50057   4.409   7.601   0.210  0.3422 -0.2327  0.8652
  371MOL0     H50058   4.292   7.633   0.085  0.3896 -0.6864  0.2376
  371MOL0     H50059   4.368   7.874   0.083 -1.7487  0.1564  2.9276
  371MOL0     H50060   4.489   7.754   0.038  0.0204 -1.2732  1.5493
  371MOL0     H50061   4.480   7.867   0.326  1.4247 -3.0292  1.3043
  371MOL0     H50062   4.603   7.777   0.246  2.6560  1.6781 -1.2124
  371MOL0     H50063   4.497   8.061   0.201  1.7154  1.5634 -0.9456
  371MOL0     H50064   4.618   8.002   0.087 -1.5659 -3.0260 -1.7736
  371MOL0     H50065   4.625   8.084   0.363  1.7234  2.6431 -0.5821
  371MOL0     H50066   4.736   8.132   0.238  0.3775  1.3640  1.3308
  371MOL0     H50067   4.231   7.962   0.526 -0.6819  0.2439  1.2729
  371MOL0     H50068   4.328   8.177   0.530 -2.4890 -0.8478  3.9420
  371MOL0     H50069   4.326   8.636   0.555  1.7436 -1.9985  0.0894
  371MOL0     H50070   4.394   8.862   0.532  0.4411 -0.3083 -0.1508
  371MOL0     H50071   5.209   9.305   1.117  1.0625 -1.0335  0.4884
  371MOL0     H50072   5.106   9.403   1.313  1.8253 -0.1632  1.2488
  371MOL0     H50073   5.007   9.777   1.560 -0.9519  1.1958 -1.0377
  371MOL0     H50074   4.950   9.962   1.705  0.2526 -0.4952 -3.1680
  371MOL0     H50075   5.087  10.270   1.683 -1.1153 -1.2913 -2.5650
  371MOL0     H50076   4.950  10.181   1.732  0.2919  3.3298 -5.1871
  371MOL0     H50077   4.947  10.421   1.810  0.8550 -0.0625 -1.1544
  371MOL0     H50078   5.103  10.378   1.902 -0.4070 -4.8399  4.3037
  371MOL0     H50079   4.915  10.395   2.059 -0.3842 -2.2359  3.1700
  371MOL0     H50080   5.007  10.248   2.054 -0.1540  0.1424  0.9464
  371MOL0     H50081   4.774  10.181   2.084  1.1087 -2.5439  0.2335
  371MOL0     H50082   4.863  10.098   1.963  0.4619  0.5097 -0.8184
  371MOL0     H50083   4.574  10.236   1.703 -1.3710  1.5153  0.4975
  371MOL0     H50084   5.359  10.013   1.821  1.5468 -0.3855 -2.3088
  371MOL0     H50085   5.395   9.792   1.739 -0.9682  1.1053  1.3227
  372MOL0     O50086   1.755   4.781   2.016  0.3960 -1.1702  0.2733
  372MOL0     C50087   1.819   4.863   2.085  0.0064 -0.0215  0.0835
  372MOL0     O50088   1.821   4.866   2.223  0.2555 -0.2354 -0.2761
  372MOL0     C50089   1.741   4.781   2.291 -0.0680 -0.4488 -0.0776
  372MOL0     C50090   1.792   4.666   2.334  0.1999  0.1886  0.7349
  372MOL0     C50091   1.709   4.565   2.387  0.3544  0.7092 -0.8982
  372MOL0     C50092   1.567   4.583   2.405  0.1493  0.1206 -0.2908
  372MOL0     O50093   1.487   4.478   2.451  0.9307  0.0671  0.5786
  372MOL0     C50094   1.362   4.444   2.390 -0.4806 -0.3497 -1.0378
  372MOL0     C50095   1.314   4.324   2.458  0.1850 -0.6863 -1.0863
  372MOL0     C50096   1.180   4.287   2.408 -0.3156  0.1521  0.0148
  372MOL0     C50097   1.185   4.148   2.360  0.8316  0.0680  0.7325
  372MOL0     C50098   1.058   4.099   2.291  0.7098  1.4433  0.4122
  372MOL0     C50099   0.964   4.031   2.400 -0.5287 -1.1743 -0.0293
  372MOL0     C50100   0.832   3.963   2.356 -0.2596 -0.2827 -0.6470
  372MOL0     C50101   0.855   3.855   2.258  0.0682  0.3585  0.3355
  372MOL0     N50102   0.736   3.765   2.235  0.4013 -0.2058 -0.9108
  372MOL0     C50103   0.614   3.808   2.201 -0.6217 -0.1599  0.6970
  372MOL0     C50104   0.536   3.703   2.199 -0.0648  1.2974 -0.3628
  372MOL0     C50105   0.385   3.701   2.172  0.5351 -0.8904 -0.6785
  372MOL0     C50106   0.353   3.682   2.028  0.8021  0.0182 -0.6353
  372MOL0     C50107   0.398   3.808   1.939  0.7110 -0.2524 -0.3750
  372MOL0     C50108   0.309   3.811   1.822  0.0851  0.3781 -0.1810
  372MOL0     O50109   0.324   3.941   1.758  0.1720  0.2829  0.0481
  372MOL0     C50110   0.279   3.957   1.626 -0.7390  0.9474  0.8307
  372MOL0     C50111   0.342   4.055   1.541  0.2791 -0.4074  0.2421
  372MOL0     C50112   0.323   4.063   1.404  0.8290  0.3112 -0.3436
  372MOL0     C50113   0.410   4.156   1.330  0.5728 -0.6654  0.0883
  372MOL0     C50114   0.242   3.964   1.344 -0.4501  0.4613 -0.5553
  372MOL0     C50115   0.210   3.943   1.193  0.9724 -0.5009  1.2264
  372MOL0     O50116   0.091   3.884   1.158  0.1821  0.5021 -0.4638
  372MOL0     C50117   0.069   3.861   1.017  0.0885  0.5138 -0.0557
  372MOL0     C50118   0.027   3.971   0.932 -0.0939  0.1121 -0.7981
  372MOL0     C50119   0.018   3.967   0.794 -0.2173  0.1092  0.5198
  372MOL0     C50120   0.036   3.842   0.729  0.1277 -0.4942 -0.0100
  372MOL0     O50121   0.028   3.812   0.596  0.4925 -1.4236  0.6944
  372MOL0     C50122  -0.018   3.917   0.505 -0.8944 -1.0338 -0.7501
  372MOL0     C50123  -0.021   3.882   0.354 -0.5798  0.0646 -0.3215
  372MOL0     C50124   0.122   3.885   0.284  1.1531 -1.2082 -0.4475
  372MOL0     C50125   0.213   3.773   0.335 -0.8926 -0.1760  0.3288
  372MOL0     C50126   0.307   3.735   0.225  0.2782  0.3590  0.1317
  372MOL0     C50127   0.402   3.619   0.263  0.1125  0.7381 -0.0043
  372MOL0     C50128   0.502   3.657   0.369 -0.0015  0.3205  0.0115
  372MOL0     C50129   0.637   3.589   0.339 -0.4400 -0.6278 -0.3389
  372MOL0    Cl50130   0.630   3.419   0.297  0.4943 -0.7030  0.1224
  372MOL0     C50131   0.071   3.733   0.808 -0.0356 -0.3981  0.2200
  372MOL0     C50132   0.090   3.734   0.950  0.0740 -0.5305 -1.0155
  372MOL0     O50133   0.298   3.980   1.108  0.0089 -0.2468 -0.1736
  372MOL0     C50134   0.178   3.867   1.426  0.1133  0.0728 -0.5751
  372MOL0     C50135   0.198   3.866   1.565 -0.3484 -1.2961  0.4494
  372MOL0     N50136   0.605   3.591   2.232  0.3565  0.0099 -1.1795
  372MOL0     N50137   0.727   3.626   2.261 -0.0841  0.5274 -0.1950
  372MOL0     C50138   1.525   4.707   2.365  0.1015  0.4606  0.5053
  372MOL0     C50139   1.609   4.804   2.313  0.3044 -0.1253  0.1964
  372MOL0     C50140   1.892   4.977   2.021 -0.8629  0.3304  0.5259
  372MOL0     C50141   1.974   5.055   2.108  0.5634 -0.2143  1.2300
  372MOL0     C50142   2.034   5.165   2.044 -0.1868 -0.4067  0.7185
  372MOL0     C50143   2.025   5.199   1.908  0.0690  0.0204  0.5682
  372MOL0     O50144   2.088   5.314   1.853  0.9484  0.0745  0.1890
  372MOL0     C50145   2.154   5.405   1.932  0.2680 -0.5895 -1.0850
  372MOL0     C50146   2.285   5.341   1.957  0.0357  0.2359 -0.5779
  372MOL0     C50147   2.381   5.450   2.013 -0.4450 -0.1799 -0.8329
  372MOL0     C50148   2.356   5.488   2.172 -0.2147 -0.3684  0.1119
  372MOL0     C50149   2.378   5.377   2.263 -0.9813 -1.2195 -0.1985
  372MOL0     C50150   2.381   5.285   2.337 -0.2336 -0.3025  0.2200
  372MOL0     C50151   1.939   5.116   1.828 -0.0943 -0.4902 -0.3448
  372MOL0     C50152   1.870   5.016   1.891  0.8295  0.3188  0.2299
  372MOL0     H50153   1.895   4.636   2.320 -0.2274 -0.7300 -0.8063
  372MOL0     H50154   1.743   4.467   2.422  0.4261  1.3244  0.8621
  372MOL0     H50155   1.292   4.526   2.405  0.9791  0.4849  2.0749
  372MOL0     H50156   1.379   4.412   2.287 -1.4019 -2.5692 -0.5554
  372MOL0     H50157   1.384   4.240   2.465  1.2122  0.2441  0.6833
  372MOL0     H50158   1.313   4.362   2.561  3.0653 -0.6652 -0.9798
  372MOL0     H50159   1.107   4.309   2.486  1.2150  1.7061  1.0843
  372MOL0     H50160   1.148   4.355   2.328 -1.5380  1.9543  1.9163
  372MOL0     H50161   1.260   4.152   2.281  0.0892 -0.8547 -0.0459
  372MOL0     H50162   1.222   4.068   2.425 -2.0159 -1.5738  0.4810
  372MOL0     H50163   1.004   4.177   2.237  0.9740 -0.1795 -2.3840
  372MOL0     H50164   1.083   4.017   2.223 -2.5548 -0.6418  1.4895
  372MOL0     H50165   1.022   3.951   2.446  0.8704 -0.6530 -0.7952
  372MOL0     H50166   0.951   4.100   2.484  0.1276  3.9483 -3.6146
  372MOL0     H50167   0.789   3.930   2.450  1.6905 -1.4258 -0.0905
  372MOL0     H50168   0.767   4.038   2.309  1.0776  1.0911 -0.3913
  372MOL0     H50169   0.939   3.792   2.288  1.8655  2.3398 -0.2792
  372MOL0     H50170   0.884   3.911   2.168  2.3617  1.3112  1.5790
  372MOL0     H50171   0.588   3.912   2.180  1.4542  0.1535 -0.6415
  372MOL0     H50172   0.336   3.620   2.227  0.0285 -2.4691 -3.2681
  372MOL0     H50173   0.351   3.796   2.214  3.2024 -0.1842  0.0947
  372MOL0     H50174   0.244   3.677   2.023  0.3034  5.6528 -3.3259
  372MOL0     H50175   0.397   3.589   1.991 -1.1362 -0.7145 -1.2226
  372MOL0     H50176   0.497   3.790   1.896 -0.1418 -4.1581 -1.1142
  372MOL0     H50177   0.410   3.897   2.002  1.9479  0.4431 -1.5522
  372MOL0     H50178   0.207   3.786   1.852  0.7083 -2.9441 -0.4947
  372MOL0     H50179   0.342   3.730   1.756 -2.9719 -1.1093 -0.0375
  372MOL0     H50180   0.405   4.128   1.591  0.7335 -0.4398 -0.2730
  372MOL0     H50181   0.351   4.212   1.257 -0.9469 -0.5913  1.3329
  372MOL0     H50182   0.456   4.231   1.394  3.1657 -1.7220 -0.3714
  372MOL0     H50183   0.493   4.109   1.275  0.3809  2.2068 -2.9899
  372MOL0     H50184   0.024   4.070   0.975  2.8623 -0.1446  0.2276
  372MOL0     H50185  -0.020   4.053   0.738  1.0244 -1.3580 -2.8240
  372MOL0     H50186  -0.124   3.934   0.530 -0.1180  2.6269  0.7300
  372MOL0     H50187   0.040   4.009   0.515  0.1337 -1.4952 -2.1220
  372MOL0     H50188  -0.072   3.786   0.338  0.9390 -0.7061 -0.7555
  372MOL0     H50189  -0.088   3.946   0.298  0.0512  0.7750 -0.2784
  372MOL0     H50190   0.167   3.983   0.301 -0.5010 -0.3541 -0.7817
  372MOL0     H50191   0.115   3.875   0.175 -0.4541  3.5640 -1.0067
  372MOL0     H50192   0.260   3.794   0.431  1.6426 -1.6449 -0.4963
  372MOL0     H50193   0.163   3.678   0.353  1.0098 -1.1863  0.5274
  372MOL0     H50194   0.374   3.819   0.206  1.5606 -0.4242  0.9890
  372MOL0     H50195   0.256   3.712   0.131 -2.4203 -2.2270  2.0425
  372MOL0     H50196   0.349   3.525   0.283  0.4066  0.8310  1.2526
  372MOL0     H50197   0.453   3.597   0.169 -0.2300 -1.2007  0.2251
  372MOL0     H50198   0.463   3.614   0.462 -1.1722 -1.0249 -1.0503
  372MOL0     H50199   0.503   3.765   0.386 -1.1063  0.4805 -0.8233
  372MOL0     H50200   0.704   3.601   0.425 -0.0525 -0.7655 -0.6195
  372MOL0     H50201   0.681   3.637   0.252 -0.0567 -0.5940 -0.1278
  372MOL0     H50202   0.078   3.643   0.749  1.3571 -0.3241  0.2294
  372MOL0     H50203   0.122   3.642   0.997 -1.3313 -2.2850 -3.3190
  372MOL0     H50204   0.125   3.789   1.373 -2.2697  0.2647  1.3543
  372MOL0     H50205   0.162   3.776   1.614  2.6134 -1.4902  2.5080
  372MOL0     H50206   1.418   4.723   2.377 -0.7964 -4.6595  1.7659
  372MOL0     H50207   1.566   4.903   2.299  4.0701  1.7006  0.2705
  372MOL0     H50208   2.013   5.056   2.209  1.7413  1.0063  0.7923
  372MOL0     H50209   2.101   5.230   2.099 -0.8240  1.8066 -1.0017
  372MOL0     H50210   2.170   5.498   1.877  2.1291  0.2360  0.7196
  372MOL0     H50211   2.103   5.446   2.019  0.8305  1.2314 -1.5508
  372MOL0     H50212   2.319   5.303   1.860 -2.4741  0.8169 -1.7519
  372MOL0     H50213   2.283   5.251   2.020  0.2437 -0.1722 -1.1448
  372MOL0     H50214   2.369   5.540   1.952  5.7718 -0.4505 -3.2086
  372MOL0     H50215   2.488   5.431   2.000  0.1304  2.5587 -0.7823
  372MOL0     H50216   2.251   5.514   2.183  0.1321  1.5056 -0.6084
  372MOL0     H50217   2.424   5.569   2.201  0.8532 -0.7219 -1.2923
  372MOL0     H50218   2.374   5.204   2.407  0.2702  1.5759  2.5753
  372MOL0     H50219   1.914   5.131   1.723  0.8265 -3.5413 -1.0870
  372MOL0     H50220   1.800   4.964   1.825  0.5491  1.0174 -0.0352
  373MOL0     O50221   2.641   0.620   0.418  0.9446 -0.2315  0.4762
  373MOL0     C50222   2.528   0.569   0.393  0.8019  0.2007 -0.5777
  373MOL0     O50223   2.487   0.508   0.285  0.9308  0.2919  0.1805
  373MOL0     C50224   2.582   0.451   0.198 -0.0200 -0.0103 -0.2741
  373MOL0     C50225   2.544   0.448   0.065  0.1125 -0.2021  0.5917
  373MOL0     C50226   2.636   0.397  -0.032  0.4923  0.4607  0.1767
  373MOL0     C50227   2.757   0.338   0.017  0.2647 -0.2001 -0.6130
  373MOL0     O50228   2.848   0.328  -0.078  0.5824  0.2656 -0.1761
  373MOL0     C50229   2.945   0.219  -0.070  0.2803 -0.9868 -0.1626
  373MOL0     C50230   3.078   0.272  -0.093 -0.8037  0.1558 -0.1050
  373MOL0     C50231   3.193   0.197  -0.014 -0.9684  0.5553  1.4786
  373MOL0     C50232   3.163   0.181   0.134  0.5267  0.4810 -0.7829
  373MOL0     C50233   3.277   0.195   0.242  0.2767 -0.2313  0.6450
  373MOL0     C50234   3.366   0.068   0.246  0.0742 -0.2833 -0.2884
  373MOL0     C50235   3.459   0.058   0.367  0.6928 -0.0214 -0.3743
  373MOL0     C50236   3.544   0.196   0.372  0.4962  0.6884  0.0464
  373MOL0     N50237   3.656   0.173   0.456 -0.1130  0.9152  1.0977
  373MOL0     C50238   3.664   0.161   0.592  0.1568  0.1813  0.4205
  373MOL0     C50239   3.779   0.100   0.624 -0.0387  0.5701 -0.5038
  373MOL0     C50240   3.828   0.055   0.755 -0.6845  0.7755 -0.6544
  373MOL0     C50241   3.803  -0.089   0.796 -0.2963 -0.3797 -1.1240
  373MOL0     C50242   3.816  -0.098   0.956 -0.2908 -0.4753  1.1798
  373MOL0     C50243   3.807  -0.253   0.998  0.0108 -0.0103 -0.4293
  373MOL0     O50244   3.716  -0.320   0.925  0.7201 -0.1857  0.2774
  373MOL0     C50245   3.615  -0.365   1.000  0.3409 -0.0090 -0.5280
  373MOL0     C50246   3.490  -0.299   1.006  0.2977 -0.8710  0.5925
  373MOL0     C50247   3.385  -0.348   1.088 -0.2866 -0.4147  1.2134
  373MOL0     C50248   3.252  -0.268   1.076 -0.5813 -0.1064  0.4030
  373MOL0     C50249   3.400  -0.470   1.160  0.2976 -0.0271 -0.9856
  373MOL0     C50250   3.302  -0.522   1.236 -1.0241 -0.2948 -0.7321
  373MOL0     O50251   3.336  -0.572   1.362 -0.6033 -0.2775 -0.2025
  373MOL0     C50252   3.237  -0.576   1.453 -0.6833  0.2786 -0.5126
  373MOL0     C50253   3.252  -0.685   1.542 -0.0239  0.1940  0.0812
  373MOL0     C50254   3.158  -0.679   1.649 -0.0930  0.3256 -0.3867
  373MOL0     C50255   3.065  -0.569   1.670 -0.1102  0.3265 -0.3391
  373MOL0     O50256   2.973  -0.564   1.774  0.2485  0.1611  0.3589
  373MOL0     C50257   2.928  -0.696   1.820  0.0055 -1.2528 -0.8360
  373MOL0     C50258   2.780  -0.703   1.817 -0.1067  1.2891  1.0207
  373MOL0     C50259   2.716  -0.607   1.911  1.0221  0.1728 -0.1415
  373MOL0     C50260   2.563  -0.602   1.870 -0.9635  0.8961 -0.1387
  373MOL0     C50261   2.506  -0.468   1.922 -0.9969  0.3719  0.2165
  373MOL0     C50262   2.359  -0.447   1.893  0.5909 -0.3262 -0.6252
  373MOL0     C50263   2.296  -0.319   1.960 -0.2437 -0.2465  0.0271
  373MOL0     C50264   2.162  -0.291   1.918  0.1552 -0.0237  0.8573
  373MOL0    Cl50265   2.044  -0.405   2.009 -0.0300  0.1275 -0.1814
  373MOL0     C50266   3.065  -0.464   1.582  0.6823  0.7666 -0.0414
  373MOL0     C50267   3.157  -0.464   1.479  0.3404  0.1174 -0.5301
  373MOL0     O50268   3.190  -0.527   1.185  1.2203 -0.1528  0.3278
  373MOL0     C50269   3.521  -0.539   1.148 -0.6121 -0.7785 -1.0149
  373MOL0     C50270   3.628  -0.492   1.073  0.1997 -0.1053 -0.1139
  373MOL0     N50271   3.855   0.100   0.509  0.5365 -0.1215 -0.0657
  373MOL0     N50272   3.778   0.140   0.407  0.4790  0.1731 -0.0129
  373MOL0     C50273   2.784   0.335   0.152 -0.4272 -0.3071 -0.4374
  373MOL0     C50274   2.698   0.390   0.249  0.4907 -0.4555 -0.2599
  373MOL0     C50275   2.438   0.571   0.514  0.3197  1.0503 -0.1470
  373MOL0     C50276   2.444   0.676   0.601  0.6452 -0.4386 -0.9246
  373MOL0     C50277   2.352   0.685   0.707  0.3443  0.0411 -0.4209
  373MOL0     C50278   2.273   0.580   0.736  1.1142 -0.2733 -0.5953
  373MOL0     O50279   2.215   0.586   0.862 -0.2544 -0.3496 -0.1880
  373MOL0     C50280   2.112   0.496   0.902  0.1119 -0.1171 -0.2633
  373MOL0     C50281   2.157   0.370   0.965  0.6729  0.9822 -0.5904
  373MOL0     C50282   2.224   0.402   1.101 -0.5711  0.3315  0.3555
  373MOL0     C50283   2.271   0.267   1.160 -0.0367  0.2858  1.0561
  373MOL0     C50284   2.312   0.279   1.302 -0.7727  0.2714  0.0196
  373MOL0     C50285   2.370   0.273   1.407  0.1814  0.1807  0.8426
  373MOL0     C50286   2.272   0.468   0.647 -0.0829  0.0809  0.0898
  373MOL0     C50287   2.355   0.460   0.537 -0.4007  0.2265  0.3268
  373MOL0     H50288   2.461   0.510   0.031  1.1825 -1.1804 -4.6450
  373MOL0     H50289   2.614   0.397  -0.139  0.0086 -2.8279  0.1727
  373MOL0     H50290   2.929   0.170   0.027  0.5034  2.4269  1.7489
  373MOL0     H50291   2.916   0.142  -0.142  1.6189 -1.9078  0.2557
  373MOL0     H50292   3.096   0.266  -0.201 -2.3303 -1.2045 -0.3340
  373MOL0     H50293   3.090   0.375  -0.060 -0.1850  1.1409 -3.0743
  373MOL0     H50294   3.211   0.098  -0.056 -0.5160  1.0756  0.4226
  373MOL0     H50295   3.292   0.243  -0.005  0.7380 -3.0596  3.8028
  373MOL0     H50296   3.100   0.269   0.150  1.8378  1.6823 -1.9463
  373MOL0     H50297   3.096   0.096   0.149 -2.2877  2.5947 -0.4206
  373MOL0     H50298   3.336   0.285   0.223 -3.5580  2.5387  0.8255
  373MOL0     H50299   3.227   0.206   0.339  0.7249  1.9448  0.6680
  373MOL0     H50300   3.291  -0.012   0.240 -3.5654  2.8791 -0.6494
  373MOL0     H50301   3.430   0.060   0.158 -0.4216  1.4458 -0.8414
  373MOL0     H50302   3.407   0.031   0.459 -0.7239  3.8694  0.1519
  373MOL0     H50303   3.532  -0.020   0.343  1.7400  0.8042  0.0300
  373MOL0     H50304   3.492   0.281   0.418  1.3193 -0.5918  3.6849
  373MOL0     H50305   3.582   0.224   0.274  1.2585  3.9764  1.1564
  373MOL0     H50306   3.577   0.176   0.656 -1.0565  1.8105 -1.4818
  373MOL0     H50307   3.936   0.069   0.766 -0.4577 -1.5742  0.7472
  373MOL0     H50308   3.803   0.131   0.830  0.7391  0.4619  0.1653
  373MOL0     H50309   3.863  -0.159   0.738  1.0746  2.7416 -3.7811
  373MOL0     H50310   3.697  -0.104   0.774 -0.4243 -1.2596 -0.0214
  373MOL0     H50311   3.735  -0.041   1.002 -0.4016 -1.5257  2.3432
  373MOL0     H50312   3.906  -0.044   0.984  1.2894 -2.5214  0.3531
  373MOL0     H50313   3.786  -0.266   1.105 -4.0935  0.3988 -1.0110
  373MOL0     H50314   3.898  -0.305   0.967  0.1300  1.3423 -2.5744
  373MOL0     H50315   3.479  -0.209   0.946 -1.4000  0.5128  2.7973
  373MOL0     H50316   3.216  -0.231   1.173  0.9369 -2.6791  2.0646
  373MOL0     H50317   3.250  -0.188   1.001  0.9399 -0.4983 -0.0884
  373MOL0     H50318   3.178  -0.339   1.038 -2.0123  1.0598  0.8695
  373MOL0     H50319   3.327  -0.759   1.517 -0.8986  0.2756 -3.2038
  373MOL0     H50320   3.165  -0.760   1.721  0.5308  1.4809  0.8952
  373MOL0     H50321   2.974  -0.775   1.760  1.2756 -1.7791  0.7463
  373MOL0     H50322   2.967  -0.705   1.922 -0.1501 -1.4939 -0.7992
  373MOL0     H50323   2.762  -0.689   1.710  3.3816  1.5909  0.3570
  373MOL0     H50324   2.749  -0.799   1.859 -0.8324  0.8022 -0.5708
  373MOL0     H50325   2.770  -0.512   1.901 -0.8750  1.2067 -1.2620
  373MOL0     H50326   2.721  -0.637   2.016  0.4994  0.2863 -0.0820
  373MOL0     H50327   2.539  -0.616   1.764 -0.1792 -3.1264  0.0514
  373MOL0     H50328   2.506  -0.681   1.921  0.9865 -0.5520 -0.0879
  373MOL0     H50329   2.557  -0.376   1.892 -1.7075  0.2589 -1.4454
  373MOL0     H50330   2.523  -0.481   2.030  1.9453 -1.3805 -0.3547
  373MOL0     H50331   2.342  -0.441   1.785 -0.3139  1.2045 -0.4209
  373MOL0     H50332   2.301  -0.530   1.933  4.0296 -2.6817 -0.0251
  373MOL0     H50333   2.360  -0.238   1.924 -0.9445 -0.0925 -0.8855
  373MOL0     H50334   2.300  -0.324   2.070 -2.1849 -2.0692  0.0876
  373MOL0     H50335   2.157  -0.290   1.809  2.7171  3.1123  0.6286
  373MOL0     H50336   2.142  -0.187   1.944 -2.5490  0.6204 -2.9240
  373MOL0     H50337   2.988  -0.388   1.590 -3.0371 -2.6234 -0.0690
  373MOL0     H50338   3.146  -0.375   1.418  1.9481  0.3408 -0.5161
  373MOL0     H50339   3.551  -0.626   1.205  0.2209 -0.2294 -0.5932
  373MOL0     H50340   3.720  -0.549   1.070  1.0631  1.2627 -0.4099
  373MOL0     H50341   2.877   0.294   0.189  0.1744  1.2883 -0.0960
  373MOL0     H50342   2.721   0.372   0.353 -0.2497  2.1285  0.4166
  373MOL0     H50343   2.513   0.758   0.583  1.4373 -0.6742  0.7862
  373MOL0     H50344   2.371   0.769   0.773 -2.2487  1.1289 -0.9445
  373MOL0     H50345   2.047   0.549   0.972  1.7743  0.6478  0.7684
  373MOL0     H50346   2.055   0.464   0.814 -0.9732  0.7590  0.1002
  373MOL0     H50347   2.212   0.315   0.888 -1.8407 -1.0459 -1.0541
  373MOL0     H50348   2.078   0.297   0.985  1.8612 -0.4628 -0.9861
  373MOL0     H50349   2.154   0.466   1.155 -1.2802  0.5872 -0.8305
  373MOL0     H50350   2.313   0.465   1.093 -0.5722  0.3385  0.3961
  373MOL0     H50351   2.355   0.232   1.100 -1.5320 -0.0093 -0.9519
  373MOL0     H50352   2.190   0.195   1.153  0.9612 -0.8233  0.6339
  373MOL0     H50353   2.423   0.278   1.500 -0.6421  0.5534  1.2979
  373MOL0     H50354   2.220   0.379   0.681 -0.1081 -0.3694 -1.0768
  373MOL0     H50355   2.357   0.368   0.479 -0.0584 -0.6775  1.7298
  374MOL0     O50356   9.042  10.067   8.893 -0.7040  0.0180 -0.0883
  374MOL0     C50357   8.944  10.137   8.919 -1.0313  0.2519  0.9833
  374MOL0     O50358   8.827  10.077   8.962  0.1398 -0.1411 -0.2533
  374MOL0     C50359   8.828   9.956   9.022 -0.0849 -0.3038  0.4711
  374MOL0     C50360   8.925   9.867   9.079  0.5524 -0.2857  1.1775
  374MOL0     C50361   8.897   9.743   9.136  0.4906 -0.5049 -0.3193
  374MOL0     C50362   8.761   9.698   9.143 -0.2335  0.3670  0.4054
  374MOL0     O50363   8.733   9.571   9.183  0.0777  0.0159  0.8550
  374MOL0     C50364   8.809   9.498   9.277 -0.5423 -0.4689  0.2329
  374MOL0     C50365   8.722   9.431   9.382 -0.1658  0.4554  0.8692
  374MOL0     C50366   8.799   9.393   9.511 -0.4847  1.0516  1.0220
  374MOL0     C50367   8.712   9.344   9.627  0.1643 -0.1570  0.9728
  374MOL0     C50368   8.794   9.341   9.757  0.5913 -0.4435  0.3639
  374MOL0     C50369   8.724   9.243   9.857  0.6486  1.2064  0.4523
  374MOL0     C50370   8.786   9.248   9.996  0.0383 -0.1183  0.1904
  374MOL0     C50371   8.881   9.133  10.025  0.6751 -1.0274  0.1094
  374MOL0     N50372   9.002   9.156   9.944 -0.0286 -0.2922  0.5732
  374MOL0     C50373   9.016   9.083   9.829 -0.9409  0.3648  0.3953
  374MOL0     C50374   9.143   9.120   9.799 -0.7689  0.7058  1.2053
  374MOL0     C50375   9.214   9.070   9.671  0.9139 -0.0656  0.4271
  374MOL0     C50376   9.187   8.920   9.667 -0.1506  0.6692  0.7365
  374MOL0     C50377   9.304   8.847   9.588 -0.1034 -0.2863 -0.3096
  374MOL0     C50378   9.295   8.698   9.581  0.1611  0.1600  0.2200
  374MOL0     O50379   9.304   8.649   9.711  0.7568  0.4034  0.1203
  374MOL0     C50380   9.367   8.536   9.732 -0.5815  0.0115  0.8994
  374MOL0     C50381   9.485   8.523   9.813  0.1456  0.4516 -0.3043
  374MOL0     C50382   9.553   8.402   9.839  0.2038  0.5403 -0.9971
  374MOL0     C50383   9.682   8.399   9.915 -0.8349 -0.4564 -0.3319
  374MOL0     C50384   9.489   8.276   9.786 -1.5904 -0.5592  0.5437
  374MOL0     C50385   9.556   8.140   9.792  0.4512 -0.5151  0.4416
  374MOL0     O50386   9.661   8.134   9.880  0.0703  0.5728 -0.3526
  374MOL0     C50387   9.728   8.011   9.881  0.5787  0.5258 -0.3058
  374MOL0     C50388   9.769   7.927   9.773 -0.0772 -0.4716 -0.1678
  374MOL0     C50389   9.855   7.815   9.788  0.3002  0.4161 -0.3409
  374MOL0     C50390   9.899   7.785   9.919  0.8889 -0.3403  1.0983
  374MOL0     O50391   9.985   7.676   9.938 -0.3354 -0.0958 -0.2188
  374MOL0     C50392  10.044   7.648  10.067  0.5701  0.0604 -0.7732
  374MOL0     C50393  10.164   7.551  10.050 -0.2048 -0.0165 -0.3847
  374MOL0     C50394  10.245   7.529  10.178 -1.2328 -0.7229  0.6903
  374MOL0     C50395  10.357   7.431  10.152 -0.9068 -0.1547 -0.5610
  374MOL0     C50396  10.416   7.376  10.282 -0.7503 -0.0185 -0.7583
  374MOL0     C50397  10.502   7.243  10.251 -0.7333  0.6066  0.3839
  374MOL0     C50398  10.588   7.203  10.364 -0.0427 -1.2999  0.3162
  374MOL0     C50399  10.684   7.086  10.347  0.6086 -0.2124  0.4482
  374MOL0    Cl50400  10.804   7.111  10.216  0.7253 -0.2702 -0.1030
  374MOL0     C50401   9.856   7.857  10.026 -0.9086  0.5462  0.0782
  374MOL0     C50402   9.782   7.972  10.006  0.0775 -0.2320  1.2177
  374MOL0     O50403   9.507   8.051   9.721 -0.1502  0.0094  0.0546
  374MOL0     C50404   9.368   8.288   9.719 -0.2505  0.7976  0.1607
  374MOL0     C50405   9.303   8.415   9.696 -0.1752 -0.6067  0.4590
  374MOL0     N50406   9.199   9.208   9.884 -0.2735 -0.0181 -0.1667
  374MOL0     N50407   9.113   9.227   9.977  0.9227  0.5007 -0.3427
  374MOL0     C50408   8.658   9.783   9.094  0.0633  0.2628  0.9051
  374MOL0     C50409   8.696   9.909   9.043 -0.2180 -0.7427  0.2693
  374MOL0     C50410   8.963  10.283   8.919  0.5373 -0.8786 -0.2910
  374MOL0     C50411   8.866  10.359   8.986 -0.1082  0.0351 -1.1170
  374MOL0     C50412   8.858  10.496   8.981 -0.3869 -0.3112 -0.1761
  374MOL0     C50413   8.958  10.564   8.915 -0.5580 -0.3728  0.3681
  374MOL0     O50414   8.950  10.693   8.916  0.1087  0.0453 -0.0906
  374MOL0     C50415   9.063  10.772   8.880  0.2385  0.4208  0.0454
  374MOL0     C50416   9.038  10.912   8.935 -1.1467  0.3130 -0.5957
  374MOL0     C50417   8.887  10.961   8.936  0.6098  0.3748  0.5641
  374MOL0     C50418   8.838  10.987   8.790 -0.0384 -0.0231  0.4420
  374MOL0     C50419   8.906  11.110   8.732 -0.0301  0.6470 -0.8630
  374MOL0     C50420   8.974  11.203   8.685 -0.2745  0.6818 -0.2568
  374MOL0     C50421   9.068  10.491   8.861 -0.3576  0.2139 -0.2151
  374MOL0     C50422   9.071  10.350   8.872 -0.7718 -0.9621 -0.3910
  374MOL0     H50423   9.027   9.902   9.070  0.4811 -0.5368 -1.2216
  374MOL0     H50424   8.972   9.673   9.172 -0.3798 -0.1248  2.4551
  374MOL0     H50425   8.860   9.416   9.226 -3.1990 -0.4265 -2.8345
  374MOL0     H50426   8.884   9.565   9.320 -2.0973  0.7039  1.2227
  374MOL0     H50427   8.643   9.506   9.394  1.3169  2.4300 -0.9227
  374MOL0     H50428   8.679   9.339   9.342 -0.4568  0.1425  1.8755
  374MOL0     H50429   8.871   9.315   9.481 -1.6130  0.5793 -0.6066
  374MOL0     H50430   8.858   9.474   9.554 -0.5864  0.2317  2.7637
  374MOL0     H50431   8.629   9.415   9.627  0.7166  0.5018  0.4517
  374MOL0     H50432   8.669   9.249   9.593 -0.5966  1.4797 -3.2922
  374MOL0     H50433   8.898   9.314   9.734  0.3184 -2.4151  1.2667
  374MOL0     H50434   8.803   9.440   9.802 -0.0404  0.0375 -0.5359
  374MOL0     H50435   8.618   9.267   9.860  0.4762  0.5176  0.1033
  374MOL0     H50436   8.734   9.139   9.825 -1.5109  0.1812  2.7345
  374MOL0     H50437   8.847   9.338  10.004 -1.1401  0.6209  1.0558
  374MOL0     H50438   8.708   9.256  10.072  1.6897 -0.6224  2.0120
  374MOL0     H50439   8.830   9.039  10.002 -0.5493 -0.1050 -1.0958
  374MOL0     H50440   8.924   9.150  10.124  2.4371  1.9551 -1.0319
  374MOL0     H50441   8.958   9.012   9.771  0.8811 -0.5554 -0.3838
  374MOL0     H50442   9.168   9.132   9.592 -1.5809 -1.9128  0.3040
  374MOL0     H50443   9.321   9.091   9.674  0.7835  1.0895 -1.3421
  374MOL0     H50444   9.090   8.907   9.617  0.2062 -0.9715  0.4140
  374MOL0     H50445   9.183   8.881   9.769  0.5314  1.5791  1.1307
  374MOL0     H50446   9.395   8.879   9.639 -0.5465  0.8116 -0.1842
  374MOL0     H50447   9.314   8.892   9.489 -0.8751 -2.2411 -1.3227
  374MOL0     H50448   9.371   8.661   9.512  1.0083  0.3509  1.0349
  374MOL0     H50449   9.197   8.685   9.535  0.5874  0.6164 -0.8592
  374MOL0     H50450   9.532   8.617   9.838  0.8956 -0.1816  0.7864
  374MOL0     H50451   9.777   8.377   9.866  2.8986  1.8936  5.0090
  374MOL0     H50452   9.701   8.496   9.962 -2.6677  2.3745 -4.7465
  374MOL0     H50453   9.666   8.332  10.000 -0.2162 -4.5592 -3.1503
  374MOL0     H50454   9.740   7.954   9.672 -1.0591  0.1373  0.2567
  374MOL0     H50455   9.892   7.748   9.711 -2.3465 -1.9369  0.2778
  374MOL0     H50456  10.079   7.740  10.115 -0.0007  0.7201 -1.6071
  374MOL0     H50457   9.964   7.602  10.126 -0.0539  0.1786 -1.5082
  374MOL0     H50458  10.123   7.458  10.011 -2.6099  1.4112 -1.5457
  374MOL0     H50459  10.239   7.590   9.981  3.0866 -0.8317  2.4410
  374MOL0     H50460  10.171   7.502  10.254 -0.5237  1.0338  2.0661
  374MOL0     H50461  10.299   7.616  10.217 -2.3099  0.5492 -0.5494
  374MOL0     H50462  10.323   7.341  10.099  3.1803 -2.9007  1.0016
  374MOL0     H50463  10.427   7.473  10.080 -2.3407 -1.1011 -2.6430
  374MOL0     H50464  10.342   7.368  10.362  0.2711  5.1801  1.1007
  374MOL0     H50465  10.476   7.458  10.322  0.2301 -1.0045 -0.1538
  374MOL0     H50466  10.425   7.170  10.226  0.5297 -0.9912  1.0363
  374MOL0     H50467  10.576   7.251  10.170  1.5267 -0.2108  2.2741
  374MOL0     H50468  10.527   7.174  10.450 -0.9055 -1.8227 -0.4521
  374MOL0     H50469  10.649   7.290  10.387 -0.9755 -0.6373  0.3148
  374MOL0     H50470  10.611   7.008  10.324 -0.7549  1.0644  0.3516
  374MOL0     H50471  10.732   7.074  10.445 -1.0821  1.2228  1.5036
  374MOL0     H50472   9.883   7.823  10.125  1.0158 -1.2582 -0.9933
  374MOL0     H50473   9.754   8.032  10.092 -1.1234  2.7756 -1.0966
  374MOL0     H50474   9.315   8.200   9.685  0.2991  0.3503  0.4520
  374MOL0     H50475   9.211   8.419   9.639  1.0346  2.2484 -1.5393
  374MOL0     H50476   8.553   9.754   9.094  0.2834 -0.6283 -0.4890
  374MOL0     H50477   8.616   9.969   9.000  1.0866 -0.0059 -1.2409
  374MOL0     H50478   8.781  10.307   9.028  0.0656 -1.8489 -2.8976
  374MOL0     H50479   8.787  10.561   9.032  2.3404  0.8018  2.4884
  374MOL0     H50480   9.160  10.737   8.917  0.6272 -0.0499 -1.3298
  374MOL0     H50481   9.067  10.778   8.770 -0.5048  2.4337  0.0966
  374MOL0     H50482   9.102  10.989   8.891 -0.6992  1.3311  1.7164
  374MOL0     H50483   9.072  10.888   9.036  0.2514 -1.9184 -1.4972
  374MOL0     H50484   8.884  11.060   8.983 -0.4259  0.2651  0.7627
  374MOL0     H50485   8.824  10.888   8.988  0.1215 -0.4077 -1.0756
  374MOL0     H50486   8.729  10.988   8.781 -0.1652 -1.5531  1.4810
  374MOL0     H50487   8.880  10.906   8.729  0.2348 -0.2107  0.8772
  374MOL0     H50488   9.038  11.285   8.660  0.3673  1.8563  4.3552
  374MOL0     H50489   9.152  10.540   8.814  0.5108  3.3954  4.0348
  374MOL0     H50490   9.163  10.298   8.846 -0.3569  0.4720 -2.0169
  375MOL0     O50491   9.404   1.224  10.976  0.2487 -0.8908  0.6906
  375MOL0     C50492   9.501   1.231  10.900 -0.5365 -0.2360 -0.7716
  375MOL0     O50493   9.619   1.284  10.933 -0.3261  0.2273  0.0254
  375MOL0     C50494   9.622   1.394  11.026  0.2781 -1.4477  0.9798
  375MOL0     C50495   9.523   1.498  11.045 -0.3839 -0.8191 -0.5586
  375MOL0     C50496   9.539   1.599  11.134  0.7766 -0.7653  0.1550
  375MOL0     C50497   9.662   1.609  11.202 -0.2824 -0.3644 -0.8385
  375MOL0     O50498   9.684   1.702  11.294  0.3925 -0.5859  0.1211
  375MOL0     C50499   9.653   1.836  11.252 -0.0633 -0.0999  0.1657
  375MOL0     C50500   9.752   1.897  11.163  1.0278 -0.3354  0.0636
  375MOL0     C50501   9.699   2.028  11.109 -0.1002  0.8588 -0.6203
  375MOL0     C50502   9.787   2.084  11.006 -0.1820 -0.1294  0.1033
  375MOL0     C50503   9.728   2.227  10.979 -0.4086  0.1103  0.8394
  375MOL0     C50504   9.817   2.313  10.895 -0.8098  0.3217 -0.3522
  375MOL0     C50505   9.749   2.445  10.881  0.9085 -0.3235  0.4974
  375MOL0     C50506   9.695   2.457  10.735  0.3115  0.3733  1.1261
  375MOL0     N50507   9.623   2.579  10.705  0.0550 -0.2818  0.1528
  375MOL0     C50508   9.499   2.590  10.657 -0.6135  0.4212 -0.4214
  375MOL0     C50509   9.469   2.710  10.614 -0.3491 -0.5278 -0.5414
  375MOL0     C50510   9.350   2.778  10.550 -0.9601  0.3789 -0.0873
  375MOL0     C50511   9.232   2.693  10.522 -0.9520  0.4345  0.1921
  375MOL0     C50512   9.230   2.628  10.380 -0.1826 -0.7287 -2.1940
  375MOL0     C50513   9.326   2.505  10.371  0.1825  0.0672 -0.3176
  375MOL0     O50514   9.307   2.448  10.240 -0.2581  0.1500  0.6374
  375MOL0     C50515   9.380   2.335  10.206  0.3104  0.4369  0.0194
  375MOL0     C50516   9.354   2.267  10.083 -0.2679 -0.4058 -0.5176
  375MOL0     C50517   9.430   2.158  10.038  0.2030  1.0463  0.2181
  375MOL0     C50518   9.402   2.101   9.900  0.0232  0.6095  0.1122
  375MOL0     C50519   9.526   2.098  10.118 -0.5325 -0.2135 -0.4490
  375MOL0     C50520   9.611   1.982  10.087  0.6284  0.2020 -0.2696
  375MOL0     O50521   9.746   2.001  10.105 -0.5476 -0.3186 -0.0218
  375MOL0     C50522   9.837   1.896  10.101  0.0278 -0.2350 -1.2272
  375MOL0     C50523   9.843   1.836  10.225  0.2756 -0.5796 -0.3764
  375MOL0     C50524   9.913   1.717  10.233 -0.1701 -0.3008  0.6846
  375MOL0     C50525   9.991   1.680  10.119  0.2389  0.6554 -0.6725
  375MOL0     O50526  10.073   1.576  10.160  0.5515  0.1812  0.4134
  375MOL0     C50527  10.205   1.628  10.153  0.5949 -0.5581 -0.0653
  375MOL0     C50528  10.304   1.544  10.226  0.3911  0.3588  0.4022
  375MOL0     C50529  10.332   1.582  10.369  1.0740  0.0487 -0.0087
  375MOL0     C50530  10.431   1.494  10.429 -1.0236 -0.9915 -0.0966
  375MOL0     C50531  10.473   1.527  10.570 -0.4334  1.0537 -0.7789
  375MOL0     C50532  10.582   1.421  10.629 -0.0963  0.1262 -0.0502
  375MOL0     C50533  10.531   1.286  10.686 -0.0068  0.4983 -0.1041
  375MOL0     C50534  10.650   1.198  10.743 -0.0287  0.9010 -0.8168
  375MOL0    Cl50535  10.596   1.032  10.792 -0.5387 -0.2436 -0.0127
  375MOL0     C50536   9.996   1.751   9.999 -0.0009  0.2965 -0.4056
  375MOL0     C50537   9.909   1.863   9.990  0.3692 -0.5207  0.1030
  375MOL0     O50538   9.560   1.878  10.048 -0.0757 -0.0878 -0.2811
  375MOL0     C50539   9.542   2.152  10.245 -0.5230 -0.5515  0.4628
  375MOL0     C50540   9.475   2.270  10.289  1.4696  0.1859 -0.5870
  375MOL0     N50541   9.590   2.776  10.627 -0.0591  0.2285 -0.0062
  375MOL0     N50542   9.684   2.701  10.686 -0.5449 -0.0483 -0.0836
  375MOL0     C50543   9.764   1.511  11.183  0.8681  0.1571  0.3209
  375MOL0     C50544   9.743   1.414  11.098 -0.2364 -0.0063  0.5956
  375MOL0     C50545   9.498   1.143  10.786 -0.9506 -0.7066 -0.5362
  375MOL0     C50546   9.604   1.156  10.693  0.1619  0.1043  2.1047
  375MOL0     C50547   9.615   1.075  10.580  0.4499  0.0097  0.3827
  375MOL0     C50548   9.522   0.969  10.570  0.0781 -0.4618 -0.3437
  375MOL0     O50549   9.527   0.899  10.450  0.1258  0.4090 -0.5535
  375MOL0     C50550   9.570   0.763  10.455  0.6661  0.6568  0.0948
  375MOL0     C50551   9.683   0.721  10.549  0.1322 -0.3084  0.4498
  375MOL0     C50552   9.818   0.774  10.502  1.0276 -0.0854  0.4981
  375MOL0     C50553   9.923   0.657  10.513  0.0658 -0.3180 -0.0507
  375MOL0     C50554  10.050   0.700  10.447  0.2365 -0.4771 -0.3281
  375MOL0     C50555  10.158   0.742  10.413  0.1906 -0.1503  0.3965
  375MOL0     C50556   9.412   0.957  10.662 -0.8797  0.4669 -0.1641
  375MOL0     C50557   9.401   1.045  10.765  0.1149  0.0966 -0.3781
  375MOL0     H50558   9.430   1.493  10.989 -3.2253  1.8038  3.3868
  375MOL0     H50559   9.457   1.668  11.148  0.4147 -1.3940  1.2341
  375MOL0     H50560   9.546   1.839  11.227 -0.7832 -0.4493  2.8764
  375MOL0     H50561   9.665   1.891  11.345  0.1354  1.6678 -0.8583
  375MOL0     H50562   9.841   1.920  11.222 -0.8926  3.1948  1.9171
  375MOL0     H50563   9.777   1.827  11.083  0.1155 -0.5715 -0.0267
  375MOL0     H50564   9.608   2.025  11.049  0.4654  2.7002 -1.6984
  375MOL0     H50565   9.676   2.104  11.184  0.3904  1.9382 -1.5288
  375MOL0     H50566   9.887   2.090  11.049 -0.2258 -0.0538  0.1961
  375MOL0     H50567   9.783   2.019  10.918  1.1150  0.9818 -0.8079
  375MOL0     H50568   9.627   2.218  10.937 -0.2732  0.2377  0.4846
  375MOL0     H50569   9.710   2.276  11.075 -0.7276 -0.2336  0.9559
  375MOL0     H50570   9.916   2.323  10.940 -1.0779  1.6024 -0.0025
  375MOL0     H50571   9.825   2.267  10.796 -1.0938 -0.8217  0.1453
  375MOL0     H50572   9.668   2.452  10.954 -1.2940 -1.5661 -1.6689
  375MOL0     H50573   9.820   2.522  10.914  4.2117 -4.2640  3.7496
  375MOL0     H50574   9.621   2.380  10.715 -2.3490  2.8693  0.6927
  375MOL0     H50575   9.783   2.457  10.670  1.7810  2.0769  2.9704
  375MOL0     H50576   9.424   2.511  10.661 -0.1612  0.0161  0.4714
  375MOL0     H50577   9.316   2.851  10.624  0.3509  2.1865 -1.1841
  375MOL0     H50578   9.389   2.833  10.464  2.6717 -2.0172 -0.1846
  375MOL0     H50579   9.145   2.759  10.519 -0.8617  0.5580  0.3030
  375MOL0     H50580   9.215   2.620  10.601 -0.7915  1.8812  1.6071
  375MOL0     H50581   9.254   2.701  10.302 -2.6674 -0.1906 -2.5320
  375MOL0     H50582   9.132   2.585  10.359  0.3615 -2.0579 -2.0869
  375MOL0     H50583   9.301   2.440  10.455  2.7530  2.4937  2.5701
  375MOL0     H50584   9.425   2.545  10.393 -0.2677  1.2852 -0.3986
  375MOL0     H50585   9.287   2.320  10.016 -1.0096 -2.3644 -1.3936
  375MOL0     H50586   9.499   2.079   9.854  0.2493 -0.0379  0.8785
  375MOL0     H50587   9.342   2.009   9.898  0.1656  0.5085 -1.9132
  375MOL0     H50588   9.334   2.167   9.845 -2.2826  0.2895  2.3852
  375MOL0     H50589   9.780   1.855  10.311 -0.0366 -2.2130 -0.2080
  375MOL0     H50590   9.903   1.656  10.322 -0.2092  0.3779  1.1567
  375MOL0     H50591  10.242   1.620  10.051 -2.5752 -2.8210 -1.2053
  375MOL0     H50592  10.200   1.729  10.194  0.9165 -1.0739  1.3202
  375MOL0     H50593  10.280   1.437  10.223 -0.9383  0.5156  2.7537
  375MOL0     H50594  10.398   1.554  10.172 -0.5920  5.9503 -0.8509
  375MOL0     H50595  10.236   1.575  10.419  1.0815 -0.1107 -0.0144
  375MOL0     H50596  10.351   1.690  10.375  0.9818  0.0008  1.2673
  375MOL0     H50597  10.401   1.389  10.421  0.7327 -1.5277  0.0006
  375MOL0     H50598  10.516   1.496  10.361 -1.7000 -0.9757 -0.9538
  375MOL0     H50599  10.386   1.514  10.635 -1.6086 -0.4044 -2.5514
  375MOL0     H50600  10.508   1.631  10.576  4.1921 -0.3522  2.1958
  375MOL0     H50601  10.644   1.391  10.544 -2.1061 -1.6747 -0.9651
  375MOL0     H50602  10.643   1.470  10.705 -0.3118 -0.3556  0.4432
  375MOL0     H50603  10.479   1.227  10.610  0.5845  1.4648 -1.2926
  375MOL0     H50604  10.459   1.295  10.768 -1.9265  4.8628 -1.9626
  375MOL0     H50605  10.716   1.239  10.820  2.0203 -1.1318 -1.3847
  375MOL0     H50606  10.720   1.195  10.659  0.1486  3.6422 -0.8605
  375MOL0     H50607  10.060   1.718   9.918 -1.2996  1.0708 -1.8291
  375MOL0     H50608   9.883   1.928   9.908 -4.4068 -2.7826 -0.5022
  375MOL0     H50609   9.598   2.099  10.322 -1.4041  0.0821  1.5773
  375MOL0     H50610   9.499   2.313  10.385 -2.6708  0.9429  0.3031
  375MOL0     H50611   9.856   1.515  11.240  0.3414  0.3626  1.1630
  375MOL0     H50612   9.821   1.342  11.075 -0.0219  0.8179 -1.4453
  375MOL0     H50613   9.681   1.233  10.698  1.3657 -0.9880  1.1182
  375MOL0     H50614   9.699   1.087  10.512  2.1692  0.4191  2.4840
  375MOL0     H50615   9.477   0.710  10.477  0.1420  1.6318  0.2601
  375MOL0     H50616   9.602   0.722  10.359 -0.4333  2.8855 -1.2900
  375MOL0     H50617   9.701   0.613  10.544  4.4414  0.2512 -1.1243
  375MOL0     H50618   9.664   0.756  10.651 -1.6477  3.0495 -0.8476
  375MOL0     H50619   9.853   0.860  10.559  0.8388  0.1667  0.2385
  375MOL0     H50620   9.813   0.814  10.400  2.7996  3.4706  1.6278
  375MOL0     H50621   9.898   0.575  10.445  2.8547  2.1548 -4.5011
  375MOL0     H50622   9.933   0.622  10.616 -0.3632  0.9338  0.4430
  375MOL0     H50623  10.246   0.788  10.372  1.0598  0.0389  2.3474
  375MOL0     H50624   9.339   0.878  10.645  0.0756 -0.3337 -0.6814
  375MOL0     H50625   9.313   1.049  10.829 -1.3429 -1.5791 -2.1820
  376MOL0     O50626   3.426   7.248  11.155  0.4240  0.6231  1.1323
  376MOL0     C50627   3.422   7.289  11.037 -0.3730  0.8208 -0.2273
  376MOL0     O50628   3.529   7.339  10.963  0.3593  0.3498  0.0723
  376MOL0     C50629   3.652   7.306  10.999  0.7211  0.5356  0.4410
  376MOL0     C50630   3.694   7.317  11.135  1.2022  0.6300 -0.2450
  376MOL0     C50631   3.818   7.272  11.160 -0.2256  0.2029  0.0824
  376MOL0     C50632   3.912   7.228  11.068 -0.3994  0.2738 -0.8922
  376MOL0     O50633   4.036   7.209  11.116  0.3975  0.2995 -0.4830
  376MOL0     C50634   4.132   7.148  11.033 -0.0232 -0.4521 -0.0104
  376MOL0     C50635   4.250   7.110  11.130 -0.7843  0.3762  1.2403
  376MOL0     C50636   4.315   6.989  11.068  0.8223 -0.4239 -0.0302
  376MOL0     C50637   4.441   6.940  11.135  0.8482  0.7001  0.9029
  376MOL0     C50638   4.523   6.816  11.057  0.6845 -0.3744  0.5540
  376MOL0     C50639   4.541   6.834  10.911  0.6434  0.1459 -0.1202
  376MOL0     C50640   4.608   6.722  10.823  0.7501 -0.1434 -0.3288
  376MOL0     C50641   4.529   6.589  10.831 -1.2879 -0.2308  0.4121
  376MOL0     N50642   4.592   6.499  10.731  0.2176  0.7057 -0.0478
  376MOL0     C50643   4.723   6.459  10.724 -0.3141 -0.6548  0.7338
  376MOL0     C50644   4.735   6.363  10.632 -0.3779 -0.2685  0.2182
  376MOL0     C50645   4.847   6.279  10.577  0.2467  0.4811 -0.2001
  376MOL0     C50646   4.966   6.363  10.544  0.5179  0.1304  0.1015
  376MOL0     C50647   5.089   6.275  10.493  0.2985 -1.3736 -0.3651
  376MOL0     C50648   5.204   6.368  10.457 -0.5682  0.8004  0.1174
  376MOL0     O50649   5.311   6.286  10.400 -0.9537  0.8476 -0.3539
  376MOL0     C50650   5.433   6.340  10.440 -0.4251  0.2121 -0.4585
  376MOL0     C50651   5.509   6.266  10.532  0.3221 -0.2114 -0.5334
  376MOL0     C50652   5.628   6.315  10.581  0.0579 -0.3657  0.5347
  376MOL0     C50653   5.692   6.219  10.677 -0.2321  0.4569  0.3167
  376MOL0     C50654   5.674   6.438  10.538 -1.0433  0.4797  0.1175
  376MOL0     C50655   5.811   6.484  10.570  0.5765 -0.8477 -0.8434
  376MOL0     O50656   5.894   6.407  10.638 -0.0373 -0.1903 -0.4078
  376MOL0     C50657   6.029   6.432  10.621  0.6831  0.6606 -0.6184
  376MOL0     C50658   6.103   6.379  10.524 -0.8587  0.3697 -0.7944
  376MOL0     C50659   6.238   6.403  10.517 -0.7295  0.5663  0.4357
  376MOL0     C50660   6.304   6.486  10.618 -0.4770  0.0891  0.6732
  376MOL0     O50661   6.443   6.510  10.602 -0.0889  0.1919 -0.3903
  376MOL0     C50662   6.479   6.647  10.621 -0.6924 -0.0660  0.4838
  376MOL0     C50663   6.625   6.668  10.582  0.1258 -0.1140 -0.2856
  376MOL0     C50664   6.681   6.802  10.635 -0.4493 -0.5146  0.9754
  376MOL0     C50665   6.826   6.824  10.600  0.2354 -0.2285 -1.1072
  376MOL0     C50666   6.889   6.943  10.679 -0.6943 -0.3955  0.0781
  376MOL0     C50667   7.038   6.945  10.663 -0.0011  0.1322  0.1990
  376MOL0     C50668   7.098   7.084  10.666 -0.1414  0.9273 -0.0623
  376MOL0     C50669   7.116   7.136  10.806 -0.2181  0.4860  0.5375
  376MOL0    Cl50670   7.214   7.283  10.830  0.4447 -0.2768 -0.1435
  376MOL0     C50671   6.225   6.539  10.724 -0.7446  0.1699 -0.0240
  376MOL0     C50672   6.089   6.509  10.723  1.1312  0.7689  0.5284
  376MOL0     O50673   5.849   6.580  10.507 -0.6414 -0.1958 -0.6920
  376MOL0     C50674   5.590   6.517  10.458  0.1480 -0.4815 -0.6724
  376MOL0     C50675   5.472   6.471  10.405  0.4892 -0.1742 -0.1189
  376MOL0     N50676   4.606   6.359  10.569 -0.1387  0.0271  1.0267
  376MOL0     N50677   4.521   6.435  10.635 -0.4247  0.2280  0.7862
  376MOL0     C50678   3.875   7.240  10.937 -0.1909  0.0234  0.1250
  376MOL0     C50679   3.741   7.266  10.900 -0.5794  0.2757  0.0959
  376MOL0     C50680   3.285   7.300  10.983 -0.4368  0.0433 -0.0188
  376MOL0     C50681   3.254   7.306  10.845 -0.2444 -0.1946  0.1990
  376MOL0     C50682   3.124   7.292  10.794  0.7987  0.4980  0.0424
  376MOL0     C50683   3.011   7.284  10.885 -0.5120  0.1214  0.0322
  376MOL0     O50684   2.886   7.278  10.838 -0.2227 -0.0592 -0.6953
  376MOL0     C50685   2.796   7.199  10.911 -0.1792  0.6179 -0.2515
  376MOL0     C50686   2.655   7.207  10.861  0.0347  0.7550  0.3834
  376MOL0     C50687   2.605   7.338  10.812  0.4822  0.0417 -0.0478
  376MOL0     C50688   2.491   7.324  10.704 -0.6555 -0.6860  0.9435
  376MOL0     C50689   2.360   7.285  10.762  0.1475 -0.0777  0.5757
  376MOL0     C50690   2.258   7.247  10.817  0.0290  0.2920 -0.1835
  376MOL0     C50691   3.044   7.272  11.026  1.5915  1.0669  0.7405
  376MOL0     C50692   3.178   7.276  11.063 -0.0282 -0.3407 -0.2701
  376MOL0     H50693   3.637   7.362  11.215 -2.5678 -3.4051 -0.3353
  376MOL0     H50694   3.848   7.276  11.264 -1.5825  0.1085  0.4960
  376MOL0     H50695   4.098   7.058  10.980  2.3436 -0.2224 -2.1411
  376MOL0     H50696   4.164   7.216  10.954 -2.9029  2.4508  1.1182
  376MOL0     H50697   4.317   7.194  11.148 -0.3682  0.4410 -0.4307
  376MOL0     H50698   4.208   7.085  11.228 -1.1387  4.0031  2.1483
  376MOL0     H50699   4.241   6.909  11.063  0.4538 -0.2168  1.5939
  376MOL0     H50700   4.337   7.005  10.962 -1.3640  0.5269 -0.3757
  376MOL0     H50701   4.511   7.025  11.132  1.1708  0.4966  2.0546
  376MOL0     H50702   4.428   6.921  11.242  1.7362  1.0246  1.0851
  376MOL0     H50703   4.628   6.817  11.088  0.2932 -0.2024  1.9340
  376MOL0     H50704   4.467   6.723  11.071 -2.1378  1.3392  1.4620
  376MOL0     H50705   4.444   6.839  10.860 -0.7909 -4.4691  1.6141
  376MOL0     H50706   4.594   6.927  10.891  0.1589 -0.2777 -4.2376
  376MOL0     H50707   4.622   6.769  10.725  1.2534 -0.8969 -0.6312
  376MOL0     H50708   4.711   6.714  10.861  0.4217  2.0216  1.1845
  376MOL0     H50709   4.426   6.611  10.801 -0.5193  2.9523 -0.2333
  376MOL0     H50710   4.532   6.549  10.933 -0.4616 -0.7321  0.2054
  376MOL0     H50711   4.799   6.500  10.789 -0.2311  0.8798 -0.2745
  376MOL0     H50712   4.874   6.208  10.655 -0.7960  0.6007  0.2939
  376MOL0     H50713   4.820   6.220  10.488  1.0259  2.2714 -1.6979
  376MOL0     H50714   4.998   6.418  10.632 -1.2274  0.7406  0.3999
  376MOL0     H50715   4.955   6.435  10.462  4.8359 -0.4532 -1.2396
  376MOL0     H50716   5.072   6.201  10.415  0.7164  1.5756 -3.5233
  376MOL0     H50717   5.116   6.203  10.571  1.1307  0.7198  1.3982
  376MOL0     H50718   5.237   6.436  10.536 -0.7428  0.7007  0.2769
  376MOL0     H50719   5.178   6.429  10.370 -3.1711 -0.5791 -0.1764
  376MOL0     H50720   5.474   6.165  10.552 -3.2148  0.8731 -0.5705
  376MOL0     H50721   5.751   6.154  10.612 -0.6513 -1.0164  1.3293
  376MOL0     H50722   5.754   6.262  10.756 -0.4141 -1.1035  1.3553
  376MOL0     H50723   5.612   6.161  10.725 -1.6007  0.9466 -1.2705
  376MOL0     H50724   6.052   6.320  10.448  1.6142 -0.5362 -1.8598
  376MOL0     H50725   6.295   6.360  10.436  2.0487  0.8519  2.1155
  376MOL0     H50726   6.421   6.709  10.552  3.1560  1.2129 -1.9124
  376MOL0     H50727   6.453   6.671  10.724 -1.3729  0.9576  0.0880
  376MOL0     H50728   6.689   6.586  10.618  1.3570  0.5801 -0.8393
  376MOL0     H50729   6.636   6.658  10.474 -0.7065  0.3312 -0.4227
  376MOL0     H50730   6.675   6.806  10.745 -1.1216  0.0455  0.9300
  376MOL0     H50731   6.624   6.882  10.587  0.4404 -1.3458 -1.6072
  376MOL0     H50732   6.882   6.731  10.615  0.6811  0.1716 -0.2048
  376MOL0     H50733   6.839   6.844  10.493  3.7267  1.5914 -0.4861
  376MOL0     H50734   6.884   6.931  10.788  0.3383 -0.6040  0.1137
  376MOL0     H50735   6.832   7.030  10.645  0.6909  1.5199  2.2942
  376MOL0     H50736   7.082   6.874  10.733 -1.3345  2.0079  3.1528
  376MOL0     H50737   7.064   6.911  10.563  2.4985 -3.2603  1.8151
  376MOL0     H50738   7.047   7.160  10.607  0.5733  0.1639 -1.6974
  376MOL0     H50739   7.195   7.060  10.623 -1.4161  0.2798 -2.7877
  376MOL0     H50740   7.185   7.077  10.867 -0.4827  1.0014  1.3635
  376MOL0     H50741   7.022   7.140  10.861 -0.0108  2.1662  0.8432
  376MOL0     H50742   6.289   6.576  10.804 -1.6777  1.3502  0.2000
  376MOL0     H50743   6.024   6.554  10.797  1.2528  0.8492  0.5877
  376MOL0     H50744   5.623   6.613  10.418  0.9773  0.0058  1.0908
  376MOL0     H50745   5.407   6.539  10.350 -0.1361 -1.1860 -0.6805
  376MOL0     H50746   3.939   7.204  10.857  0.1979 -0.4180  0.6308
  376MOL0     H50747   3.688   7.274  10.806 -0.9036  0.3003  0.2812
  376MOL0     H50748   3.335   7.303  10.773 -0.1098  1.8587  0.2242
  376MOL0     H50749   3.104   7.292  10.687 -2.2584 -1.6932  0.4889
  376MOL0     H50750   2.828   7.094  10.917  4.8561  1.9846  1.9545
  376MOL0     H50751   2.780   7.233  11.014  0.5558 -0.2784  0.1784
  376MOL0     H50752   2.587   7.159  10.932  1.8605 -1.7499  0.5662
  376MOL0     H50753   2.651   7.133  10.781  1.7823 -0.1168  1.0413
  376MOL0     H50754   2.686   7.397  10.767  1.1481  0.6220  1.8206
  376MOL0     H50755   2.566   7.400  10.893  0.7062  0.3158 -0.1471
  376MOL0     H50756   2.530   7.258  10.626 -2.4774 -0.1587 -0.4732
  376MOL0     H50757   2.484   7.410  10.638  0.8971 -0.2309  1.3128
  376MOL0     H50758   2.170   7.211  10.867 -1.5395 -1.1534 -3.6933
  376MOL0     H50759   2.969   7.246  11.099  1.7029  0.9813  0.8257
  376MOL0     H50760   3.195   7.250  11.166  3.3214 -0.6811 -0.8032
  377MOL0     O50761   8.458   0.068   3.998 -0.3151  1.1792 -0.2439
  377MOL0     C50762   8.355   0.125   4.030  0.7524  0.4530  0.1639
  377MOL0     O50763   8.324   0.254   3.981  0.1098  0.2788 -0.2606
  377MOL0     C50764   8.421   0.310   3.908  0.6313  0.6637  0.4617
  377MOL0     C50765   8.547   0.359   3.958 -0.1360 -0.6039  0.2293
  377MOL0     C50766   8.626   0.418   3.861 -0.3881  0.4248  0.5514
  377MOL0     C50767   8.603   0.426   3.727 -0.4846 -1.0753  0.0920
  377MOL0     O50768   8.688   0.508   3.654  0.2912 -0.2988 -0.5251
  377MOL0     C50769   8.662   0.525   3.513  0.4865  0.4749  0.8547
  377MOL0     C50770   8.770   0.611   3.447  0.4770  0.1100  0.0302
  377MOL0     C50771   8.904   0.550   3.448 -0.1808  0.6914  0.5288
  377MOL0     C50772   8.997   0.620   3.358 -0.2641  0.0777  1.2529
  377MOL0     C50773   9.147   0.572   3.370 -0.5357 -0.3833 -0.5687
  377MOL0     C50774   9.161   0.423   3.352 -0.6608 -0.1701 -0.2365
  377MOL0     C50775   9.133   0.376   3.212 -0.4954  0.1460 -0.4705
  377MOL0     C50776   9.129   0.221   3.202  0.0137 -0.3304  0.0041
  377MOL0     N50777   9.251   0.154   3.241 -0.3512  0.1559 -0.5932
  377MOL0     C50778   9.258   0.067   3.348 -0.3820 -0.4171 -0.0149
  377MOL0     C50779   9.389   0.044   3.350 -1.0704  0.0701 -0.1924
  377MOL0     C50780   9.463  -0.044   3.444 -0.5380  0.7538  0.0649
  377MOL0     C50781   9.386  -0.180   3.481  0.0709 -0.4924  0.2627
  377MOL0     C50782   9.311  -0.161   3.611  0.4341 -0.1903 -0.9370
  377MOL0     C50783   9.227  -0.284   3.653  0.1277  0.1247 -0.2239
  377MOL0     O50784   9.171  -0.358   3.541  0.3219 -0.0817  0.3968
  377MOL0     C50785   9.032  -0.356   3.556 -0.6064  0.9248 -0.0647
  377MOL0     C50786   8.971  -0.467   3.615  0.3725 -0.0993 -0.9606
  377MOL0     C50787   8.833  -0.479   3.634  0.3644 -0.1720 -0.4865
  377MOL0     C50788   8.778  -0.608   3.698  0.9665  0.0605  0.8114
  377MOL0     C50789   8.754  -0.362   3.593 -0.0252  0.7437 -0.3039
  377MOL0     C50790   8.607  -0.369   3.599  0.1070 -0.3400 -0.4555
  377MOL0     O50791   8.558  -0.244   3.624 -0.3339 -0.9952 -0.3974
  377MOL0     C50792   8.418  -0.237   3.647  0.1137 -0.2583 -0.7145
  377MOL0     C50793   8.319  -0.254   3.538  0.9342  0.2809 -0.5369
  377MOL0     C50794   8.185  -0.222   3.548  0.5851 -0.4019 -0.3879
  377MOL0     C50795   8.142  -0.162   3.668 -0.3807  0.5905 -0.0031
  377MOL0     O50796   8.013  -0.117   3.696 -0.2932  1.4002 -0.6560
  377MOL0     C50797   7.943  -0.047   3.592  1.0701  0.3377 -1.1488
  377MOL0     C50798   8.000   0.096   3.561  0.8722 -0.4995 -0.6163
  377MOL0     C50799   7.995   0.139   3.411 -0.3988  0.2677 -0.0408
  377MOL0     C50800   8.058   0.280   3.388 -0.8827 -0.0495  0.0870
  377MOL0     C50801   7.993   0.390   3.474 -1.5068  0.0277  0.3701
  377MOL0     C50802   7.843   0.399   3.461 -0.2281  0.0768 -0.7355
  377MOL0     C50803   7.797   0.448   3.322  0.2878 -0.1286  0.0865
  377MOL0     C50804   7.654   0.494   3.319  0.1742 -0.4586 -0.2248
  377MOL0    Cl50805   7.629   0.633   3.447  0.2867 -0.2081 -0.7737
  377MOL0     C50806   8.234  -0.141   3.777  0.1427 -0.0655  0.9016
  377MOL0     C50807   8.366  -0.181   3.765 -0.6594 -0.2694  0.0991
  377MOL0     O50808   8.540  -0.468   3.555  0.0551 -0.7767  0.2126
  377MOL0     C50809   8.817  -0.256   3.526 -0.7258 -0.5617  0.2962
  377MOL0     C50810   8.950  -0.255   3.502  0.0407 -0.9206  0.0557
  377MOL0     N50811   9.460   0.109   3.249 -0.1506  0.2427  0.4437
  377MOL0     N50812   9.373   0.159   3.174 -0.5424  0.6737 -0.1111
  377MOL0     C50813   8.480   0.369   3.680  0.2339 -0.1017  0.6322
  377MOL0     C50814   8.389   0.314   3.767  0.1092  1.0451 -0.6517
  377MOL0     C50815   8.249   0.056   4.122  0.8664 -0.1589  0.9085
  377MOL0     C50816   8.283  -0.078   4.164  0.0904  1.2030 -0.0746
  377MOL0     C50817   8.182  -0.151   4.220  1.3487  0.6132 -0.0196
  377MOL0     C50818   8.043  -0.110   4.224  0.3681  0.7205  1.3566
  377MOL0     O50819   7.944  -0.179   4.269  0.7927  0.3723  0.3626
  377MOL0     C50820   7.959  -0.322   4.306 -0.1812  0.3249 -0.9343
  377MOL0     C50821   7.814  -0.372   4.315  1.3077  0.0162 -0.3318
  377MOL0     C50822   7.724  -0.287   4.408  0.7660 -0.2711 -0.2480
  377MOL0     C50823   7.584  -0.353   4.428 -0.6609 -0.2139  0.4124
  377MOL0     C50824   7.579  -0.503   4.429  0.4270 -0.7764 -0.1894
  377MOL0     C50825   7.548  -0.627   4.434  0.0362 -1.1171 -0.3640
  377MOL0     C50826   8.019   0.019   4.175  0.0960  0.0351 -0.7176
  377MOL0     C50827   8.124   0.107   4.140  0.1565  0.6494 -0.1192
  377MOL0     H50828   8.573   0.370   4.062  1.9214  1.0759 -0.3998
  377MOL0     H50829   8.714   0.460   3.907  2.2429 -2.2893 -1.6214
  377MOL0     H50830   8.650   0.422   3.476  1.4620  0.5898  0.1896
  377MOL0     H50831   8.570   0.583   3.510  1.5111  2.1017 -1.1591
  377MOL0     H50832   8.734   0.631   3.346 -0.3177  0.7371  0.4209
  377MOL0     H50833   8.770   0.705   3.502 -1.8652  0.1314  0.1101
  377MOL0     H50834   8.937   0.556   3.552 -0.4588 -0.7724  0.7163
  377MOL0     H50835   8.901   0.443   3.426  0.3760  0.7379  0.2038
  377MOL0     H50836   8.964   0.609   3.254 -0.7993  1.3014  1.2676
  377MOL0     H50837   9.010   0.728   3.375  3.4870  0.0477 -0.3926
  377MOL0     H50838   9.217   0.625   3.304 -2.0767  1.3526 -0.8976
  377MOL0     H50839   9.184   0.592   3.471 -2.8023  0.7824  0.0970
  377MOL0     H50840   9.268   0.402   3.360 -0.1573  2.3106  0.3943
  377MOL0     H50841   9.095   0.371   3.422  0.7533 -2.2264 -0.3410
  377MOL0     H50842   9.038   0.416   3.175 -0.1025  1.8523  0.2843
  377MOL0     H50843   9.205   0.409   3.137  1.4235  0.4433  1.4068
  377MOL0     H50844   9.102   0.194   3.100  1.6974  1.1913 -0.9071
  377MOL0     H50845   9.057   0.179   3.273  0.5023  0.2930  0.8827
  377MOL0     H50846   9.175   0.034   3.409  0.9409  3.7176  4.5554
  377MOL0     H50847   9.550  -0.075   3.384 -1.4361 -2.7597  0.3375
  377MOL0     H50848   9.504   0.006   3.532  0.8515  0.3963 -0.3461
  377MOL0     H50849   9.461  -0.257   3.501 -0.6408 -0.9361  1.3046
  377MOL0     H50850   9.320  -0.213   3.400 -0.3200 -1.0513  0.8094
  377MOL0     H50851   9.247  -0.072   3.612  2.5176  1.3990  0.8259
  377MOL0     H50852   9.378  -0.144   3.696 -0.4137  2.8842 -0.7318
  377MOL0     H50853   9.150  -0.260   3.727 -1.2109 -1.3043 -1.0818
  377MOL0     H50854   9.287  -0.364   3.697 -3.1752 -1.3860  1.8876
  377MOL0     H50855   9.034  -0.550   3.645 -0.1847 -0.1609  0.0810
  377MOL0     H50856   8.797  -0.679   3.617 -2.4943  2.4738 -2.4875
  377MOL0     H50857   8.831  -0.640   3.789  0.6387 -3.9223 -0.2124
  377MOL0     H50858   8.672  -0.606   3.726  0.7122  1.4324 -0.1711
  377MOL0     H50859   8.367  -0.297   3.451  0.5488  3.2548 -2.3537
  377MOL0     H50860   8.108  -0.237   3.473 -0.8423  0.9269  0.7462
  377MOL0     H50861   7.942  -0.118   3.509 -0.6147  1.0555 -1.7853
  377MOL0     H50862   7.842  -0.038   3.631  0.6174 -1.2737 -1.8629
  377MOL0     H50863   7.948   0.169   3.623 -0.5234 -0.3476 -1.9121
  377MOL0     H50864   8.102   0.108   3.598  1.0666 -3.3217 -0.0068
  377MOL0     H50865   7.891   0.138   3.379  0.0534 -3.3510 -1.9175
  377MOL0     H50866   8.036   0.064   3.344 -3.5348 -0.6586 -1.0946
  377MOL0     H50867   8.164   0.269   3.415 -0.0120  5.5690  0.1589
  377MOL0     H50868   8.054   0.296   3.280 -1.4669 -0.1638  0.0918
  377MOL0     H50869   8.028   0.490   3.447 -1.6976 -0.5131 -2.2024
  377MOL0     H50870   8.022   0.372   3.578 -0.8899 -1.6544 -0.0589
  377MOL0     H50871   7.793   0.304   3.483  3.3475 -1.6911  0.6887
  377MOL0     H50872   7.810   0.462   3.544 -0.2512 -0.4943 -0.3023
  377MOL0     H50873   7.822   0.371   3.248  1.0605 -0.3759  0.5957
  377MOL0     H50874   7.861   0.534   3.300  2.4316 -1.7307 -0.3221
  377MOL0     H50875   7.588   0.409   3.337  1.2835 -0.8886  2.2431
  377MOL0     H50876   7.629   0.524   3.216 -1.2957 -0.4717  0.1087
  377MOL0     H50877   8.198  -0.086   3.863 -0.9003  2.5781 -1.0947
  377MOL0     H50878   8.433  -0.163   3.849 -1.6069 -0.4805  0.9179
  377MOL0     H50879   8.756  -0.169   3.501 -0.3914 -0.5497 -0.4927
  377MOL0     H50880   9.006  -0.168   3.469 -0.6507 -0.6859 -0.5476
  377MOL0     H50881   8.457   0.389   3.576  0.3813 -0.5953  0.5041
  377MOL0     H50882   8.295   0.269   3.738  0.1062  0.1317  0.6711
  377MOL0     H50883   8.384  -0.115   4.149 -1.0883 -2.1902 -0.5290
  377MOL0     H50884   8.200  -0.256   4.236 -0.8011 -0.3012 -2.6615
  377MOL0     H50885   8.021  -0.359   4.224  4.9126 -0.9327  2.9638
  377MOL0     H50886   8.024  -0.336   4.393  0.7828 -1.2126 -1.8578
  377MOL0     H50887   7.814  -0.477   4.347  0.9303  0.7761  2.4134
  377MOL0     H50888   7.778  -0.360   4.212  0.7293 -0.1097 -0.1474
  377MOL0     H50889   7.693  -0.189   4.371  3.0805  0.2627 -0.8928
  377MOL0     H50890   7.771  -0.277   4.506  0.3759  1.4890 -0.2056
  377MOL0     H50891   7.517  -0.326   4.346  0.5865 -0.0077 -0.5736
  377MOL0     H50892   7.549  -0.314   4.523 -2.6946  2.5604 -1.3244
  377MOL0     H50893   7.522  -0.730   4.447 -0.1116 -0.7027  3.7269
  377MOL0     H50894   7.921   0.057   4.150  0.2762 -1.1119 -3.5391
  377MOL0     H50895   8.109   0.204   4.094  1.1042  0.9565  0.1942
  378MOL0     O50896   3.354   3.195  11.339 -0.2896 -0.3248 -0.3698
  378MOL0     C50897   3.468   3.220  11.374  0.9234  0.3028  0.5356
  378MOL0     O50898   3.502   3.290  11.485  0.4695  0.7370 -0.7248
  378MOL0     C50899   3.407   3.335  11.575  0.0114  0.7643  1.2483
  378MOL0     C50900   3.292   3.264  11.599 -0.6701 -0.2863 -0.0761
  378MOL0     C50901   3.195   3.323  11.685  0.4730 -0.9526 -0.6543
  378MOL0     C50902   3.220   3.448  11.741 -0.8081 -0.9278  0.5728
  378MOL0     O50903   3.134   3.504  11.823 -0.1369  0.0749  0.5000
  378MOL0     C50904   3.067   3.626  11.777  0.5621  0.3333  0.0576
  378MOL0     C50905   2.934   3.636  11.852  0.3659 -0.4280  1.6284
  378MOL0     C50906   2.888   3.779  11.882 -0.1705 -0.1701 -0.7803
  378MOL0     C50907   2.990   3.848  11.981  0.7701 -0.1358 -0.1424
  378MOL0     C50908   2.939   3.997  12.015  0.4390 -0.3759  0.4425
  378MOL0     C50909   2.860   4.003  12.148 -0.2479  0.3470 -0.3976
  378MOL0     C50910   2.828   4.139  12.212 -0.0199 -1.4431  0.7613
  378MOL0     C50911   2.735   4.143  12.332  0.0733 -0.5674 -1.3931
  378MOL0     N50912   2.686   4.282  12.367  0.2706 -0.0075 -0.7267
  378MOL0     C50913   2.756   4.357  12.456 -0.2476  0.1556 -0.3480
  378MOL0     C50914   2.665   4.453  12.474  0.3192  0.9858 -0.1291
  378MOL0     C50915   2.677   4.573  12.565  0.0573  0.6826 -0.5611
  378MOL0     C50916   2.660   4.716  12.492  0.6143  0.0287  0.7402
  378MOL0     C50917   2.515   4.752  12.476  0.4881  0.3491 -0.0292
  378MOL0     C50918   2.510   4.884  12.404  0.1130  0.1454 -0.0322
  378MOL0     O50919   2.364   4.915  12.401  0.0635 -0.6446  0.3402
  378MOL0     C50920   2.329   5.021  12.310 -0.5564  1.1433 -0.6130
  378MOL0     C50921   2.407   5.132  12.277  0.5694 -0.2221 -0.4511
  378MOL0     C50922   2.358   5.241  12.201 -0.0577 -0.1773  0.1864
  378MOL0     C50923   2.453   5.358  12.171 -0.0764  0.8695  0.0225
  378MOL0     C50924   2.235   5.222  12.138  0.0260  1.1483 -1.0256
  378MOL0     C50925   2.176   5.309  12.034  0.1198  0.0004  0.1649
  378MOL0     O50926   2.071   5.254  11.955 -0.2689 -0.1109  0.6762
  378MOL0     C50927   1.995   5.344  11.887 -0.2222  0.4605 -0.5052
  378MOL0     C50928   1.920   5.435  11.961  0.3969  0.3792 -0.2225
  378MOL0     C50929   1.857   5.540  11.893  0.4865 -0.2944  0.2930
  378MOL0     C50930   1.868   5.559  11.747 -0.4495  0.8277 -0.0492
  378MOL0     O50931   1.823   5.673  11.693 -0.1224  0.0972  1.3459
  378MOL0     C50932   1.765   5.660  11.563  1.0283  0.6377  0.0014
  378MOL0     C50933   1.836   5.745  11.456  1.0215 -0.4122 -0.1294
  378MOL0     C50934   1.938   5.678  11.363 -0.0095 -0.0252  0.4366
  378MOL0     C50935   1.966   5.758  11.239 -0.3642 -0.7411  0.5585
  378MOL0     C50936   2.046   5.893  11.269  0.2655 -0.6370  0.3041
  378MOL0     C50937   2.101   5.958  11.143 -0.2797  0.3693  0.7162
  378MOL0     C50938   2.153   6.107  11.167  0.2320  0.7760 -0.0077
  378MOL0     C50939   2.233   6.115  11.295  0.3434 -0.0305 -0.2644
  378MOL0    Cl50940   2.376   6.021  11.269 -0.3773  0.2222 -0.3864
  378MOL0     C50941   1.943   5.462  11.681 -0.3185 -0.3821  0.0425
  378MOL0     C50942   2.001   5.359  11.745 -0.5727 -0.1121 -0.1350
  378MOL0     O50943   2.227   5.424  12.024  0.2866  0.5787 -0.0601
  378MOL0     C50944   2.158   5.110  12.172 -1.1046 -0.3748  0.3721
  378MOL0     C50945   2.203   5.003  12.253 -0.5943  0.0467 -0.8605
  378MOL0     N50946   2.547   4.436  12.392 -0.1454  0.1182 -0.0541
  378MOL0     N50947   2.568   4.330  12.321  0.5963  0.3674  0.0897
  378MOL0     C50948   3.339   3.514  11.711  0.2441 -1.2551 -0.6041
  378MOL0     C50949   3.433   3.455  11.635  0.2372 -0.8075  0.0784
  378MOL0     C50950   3.573   3.187  11.285 -0.5429  0.0168 -0.4017
  378MOL0     C50951   3.709   3.202  11.316  0.1280 -0.8215 -0.6349
  378MOL0     C50952   3.801   3.184  11.210  0.5285  0.6666 -0.1634
  378MOL0     C50953   3.761   3.153  11.078  0.5620  0.0444 -0.2862
  378MOL0     O50954   3.863   3.163  10.982  0.0741 -0.2057  0.7615
  378MOL0     C50955   3.865   3.062  10.885 -0.0764  1.0094 -0.0999
  378MOL0     C50956   3.885   2.923  10.948 -0.3311  0.2869  0.1099
  378MOL0     C50957   4.021   2.919  11.017 -1.0075  0.4193 -1.2565
  378MOL0     C50958   4.044   2.794  11.104 -0.3694 -0.6506 -0.5506
  378MOL0     C50959   3.955   2.806  11.217 -0.8664  0.1232 -0.3833
  378MOL0     C50960   3.873   2.790  11.309  0.6502  0.1159  0.6651
  378MOL0     C50961   3.626   3.142  11.049  0.0654  0.3127  0.5059
  378MOL0     C50962   3.531   3.147  11.150 -0.0209  0.4547  0.2319
  378MOL0     H50963   3.283   3.158  11.577 -0.2435 -0.5707  1.0321
  378MOL0     H50964   3.105   3.271  11.716 -1.8430  3.1413  0.2470
  378MOL0     H50965   3.130   3.712  11.804 -1.0120  1.1463  1.2797
  378MOL0     H50966   3.049   3.626  11.669 -5.0512  1.5842  0.6835
  378MOL0     H50967   2.860   3.581  11.793 -0.4059  0.1981  1.9996
  378MOL0     H50968   2.936   3.589  11.951 -3.3727 -1.3647  1.4002
  378MOL0     H50969   2.881   3.839  11.790  1.5569  2.8148  0.8907
  378MOL0     H50970   2.785   3.777  11.920 -0.4712 -0.0931 -1.5669
  378MOL0     H50971   2.991   3.790  12.074 -1.7588  0.4373  0.3202
  378MOL0     H50972   3.092   3.849  11.941  1.6236  1.0750  1.9134
  378MOL0     H50973   3.024   4.065  12.024 -0.7557  1.9455 -3.3394
  378MOL0     H50974   2.893   4.037  11.924  1.6506  0.1023  0.0272
  378MOL0     H50975   2.762   3.958  12.131 -0.7616  2.4274 -3.9131
  378MOL0     H50976   2.930   3.950  12.213  2.6814 -0.7100 -4.0754
  378MOL0     H50977   2.912   4.202  12.239 -1.5574  1.0359  0.1172
  378MOL0     H50978   2.782   4.197  12.130  0.8118 -2.4594 -0.4663
  378MOL0     H50979   2.780   4.103  12.422 -4.1236 -1.2570  0.6608
  378MOL0     H50980   2.646   4.081  12.319  0.1383 -1.4571  1.7412
  378MOL0     H50981   2.851   4.350  12.508 -1.2344 -0.7257  1.4232
  378MOL0     H50982   2.597   4.563  12.639 -0.5592 -0.2991 -1.3249
  378MOL0     H50983   2.768   4.574  12.625 -0.1750  1.3246 -0.2108
  378MOL0     H50984   2.706   4.713  12.393 -2.6158 -1.3584 -0.8430
  378MOL0     H50985   2.702   4.800  12.549  1.5487  1.1361 -1.4718
  378MOL0     H50986   2.462   4.764  12.571 -1.8908  1.0803 -1.3690
  378MOL0     H50987   2.456   4.680  12.417  3.2301 -0.7032 -1.7071
  378MOL0     H50988   2.551   4.881  12.302  0.0542  1.2120 -0.0988
  378MOL0     H50989   2.575   4.951  12.461  0.9374 -2.1488  1.9182
  378MOL0     H50990   2.514   5.126  12.295  0.5716 -2.4023 -0.9342
  378MOL0     H50991   2.470   5.361  12.063 -3.6416  1.2017 -0.6683
  378MOL0     H50992   2.414   5.456  12.202 -0.5836  0.9005 -0.6766
  378MOL0     H50993   2.547   5.331  12.219 -1.6943 -1.4864  2.1389
  378MOL0     H50994   1.918   5.432  12.070 -1.3516  3.3583 -0.0747
  378MOL0     H50995   1.812   5.631  11.932  2.3140  2.1500 -2.7062
  378MOL0     H50996   1.756   5.554  11.541  0.1457  0.1440  2.4540
  378MOL0     H50997   1.660   5.689  11.567  1.1443  0.9484  1.2171
  378MOL0     H50998   1.756   5.789  11.396  1.0717  2.0721  1.4970
  378MOL0     H50999   1.883   5.828  11.509  1.7627  0.0847 -1.5157
  378MOL0     H51000   1.886   5.589  11.326  0.5418 -0.2165  0.0976
  378MOL0     H51001   2.024   5.650  11.425  0.9723 -0.2348 -0.9474
  378MOL0     H51002   2.017   5.692  11.169 -1.4383 -2.4703  1.3565
  378MOL0     H51003   1.868   5.781  11.196 -0.3078  0.5612  1.0721
  378MOL0     H51004   2.125   5.871  11.341 -0.1271  0.0126  0.9475
  378MOL0     H51005   1.972   5.960  11.313 -1.5203 -2.9152  0.9119
  378MOL0     H51006   2.185   5.895  11.114 -0.3254 -1.9109  4.8064
  378MOL0     H51007   2.027   5.975  11.064  0.4695 -0.2421 -0.1398
  378MOL0     H51008   2.068   6.176  11.163  1.7755  3.0230  2.4682
  378MOL0     H51009   2.217   6.122  11.080 -0.8581 -1.5653 -1.3238
  378MOL0     H51010   2.193   6.096  11.395 -0.7641  0.5963 -0.5744
  378MOL0     H51011   2.268   6.218  11.297 -1.6590  0.7883 -2.8460
  378MOL0     H51012   1.950   5.460  11.573 -1.8411 -2.0208 -0.0788
  378MOL0     H51013   2.057   5.298  11.675  1.9080  0.7277  1.0121
  378MOL0     H51014   2.061   5.099  12.123 -0.0219  2.5291 -2.8360
  378MOL0     H51015   2.147   4.911  12.267 -0.3092 -0.2839 -1.7797
  378MOL0     H51016   3.370   3.604  11.765  0.3383 -2.4638  1.4804
  378MOL0     H51017   3.528   3.506  11.619  0.2091 -1.3746 -2.2152
  378MOL0     H51018   3.732   3.231  11.418 -5.0343  0.0305  0.5302
  378MOL0     H51019   3.909   3.185  11.219  0.4009 -1.1111  2.8160
  378MOL0     H51020   3.770   3.075  10.831 -0.0687  1.0142 -0.1123
  378MOL0     H51021   3.947   3.073  10.814  2.0442 -0.1389  2.0096
  378MOL0     H51022   3.879   2.843  10.874  3.2836 -0.1182  0.0924
  378MOL0     H51023   3.813   2.896  11.025 -1.0179  0.1956 -0.5602
  378MOL0     H51024   4.036   3.010  11.075 -1.8332 -1.4819  2.1794
  378MOL0     H51025   4.091   2.915  10.933 -1.2494 -1.8119 -1.4084
  378MOL0     H51026   4.148   2.806  11.136 -0.4872  3.1499 -1.0742
  378MOL0     H51027   4.028   2.705  11.042 -0.0437 -0.8038 -0.4198
  378MOL0     H51028   3.790   2.780  11.375 -0.6212  0.9964 -0.7437
  378MOL0     H51029   3.598   3.115  10.948  1.8865 -0.4698  0.1746
  378MOL0     H51030   3.430   3.118  11.125 -0.0348  0.2762  0.4908
  379MOL0     O51031   4.977   5.500   2.745 -0.2499  0.3636  0.0441
  379MOL0     C51032   4.991   5.384   2.785  0.5623 -0.0665  0.8707
  379MOL0     O51033   4.892   5.305   2.828 -0.1027  0.2483  0.1029
  379MOL0     C51034   4.761   5.339   2.827  0.0388 -0.0416  0.9412
  379MOL0     C51035   4.669   5.273   2.743 -0.3829  0.5615  0.0902
  379MOL0     C51036   4.537   5.314   2.753  0.5244  0.3700 -0.5621
  379MOL0     C51037   4.489   5.407   2.835 -0.4730 -0.4196  0.1703
  379MOL0     O51038   4.355   5.438   2.835  0.5310  0.0638 -0.2516
  379MOL0     C51039   4.309   5.568   2.788 -0.4780 -0.7463 -0.0106
  379MOL0     C51040   4.374   5.639   2.668 -0.3166 -0.1418  0.2985
  379MOL0     C51041   4.350   5.561   2.537  0.7682  0.7355 -0.8774
  379MOL0     C51042   4.405   5.636   2.417  0.5538 -0.2908  0.5086
  379MOL0     C51043   4.553   5.615   2.407  1.4519 -1.0137  0.4443
  379MOL0     C51044   4.600   5.678   2.272  0.9016 -0.7193  0.3562
  379MOL0     C51045   4.750   5.664   2.265  0.2377  0.0325  0.4578
  379MOL0     C51046   4.800   5.736   2.135  0.0350  0.4678  0.7971
  379MOL0     N51047   4.954   5.743   2.138  0.7798 -0.1614  0.6172
  379MOL0     C51048   5.045   5.659   2.187  0.3898 -0.4741 -0.0054
  379MOL0     C51049   5.161   5.701   2.139 -0.0672 -0.0161 -0.5948
  379MOL0     C51050   5.299   5.642   2.163  0.6153 -0.0573 -0.7592
  379MOL0     C51051   5.376   5.703   2.288  0.3912 -1.2252  1.0385
  379MOL0     C51052   5.472   5.602   2.357  0.5399 -0.1924  0.5051
  379MOL0     C51053   5.526   5.684   2.475 -0.4002 -0.5549 -0.1110
  379MOL0     O51054   5.603   5.596   2.561  0.3636  0.4698 -0.1688
  379MOL0     C51055   5.734   5.554   2.535  1.1503  0.5577  0.7414
  379MOL0     C51056   5.823   5.610   2.442  0.3504 -0.8879  0.5407
  379MOL0     C51057   5.948   5.556   2.420  0.4961  0.3662 -0.4005
  379MOL0     C51058   6.040   5.638   2.338 -0.1978  0.0357  0.5183
  379MOL0     C51059   5.993   5.444   2.498  0.0317  0.1388  0.1000
  379MOL0     C51060   6.118   5.356   2.470  0.1403 -1.3088 -0.3700
  379MOL0     O51061   6.163   5.366   2.346 -0.1194 -0.1360 -0.4453
  379MOL0     C51062   6.294   5.382   2.317 -0.1029 -0.2024 -0.3528
  379MOL0     C51063   6.407   5.341   2.384 -0.6555  0.1509 -0.8517
  379MOL0     C51064   6.538   5.358   2.332 -0.1944  0.2512  0.9251
  379MOL0     C51065   6.560   5.422   2.211  0.1774  0.2455  1.0089
  379MOL0     O51066   6.673   5.435   2.134 -0.3543 -0.1731 -0.2078
  379MOL0     C51067   6.767   5.335   2.111 -1.0937  0.8356  0.7895
  379MOL0     C51068   6.697   5.257   1.998  0.4577  0.3071 -0.7491
  379MOL0     C51069   6.791   5.141   1.950 -0.8066  0.5960 -0.6739
  379MOL0     C51070   6.764   5.074   1.812  0.5931 -0.0827 -0.4806
  379MOL0     C51071   6.818   5.134   1.686  0.7757  0.1018  0.3601
  379MOL0     C51072   6.800   5.019   1.578  0.8805 -0.6184  0.1486
  379MOL0     C51073   6.877   5.059   1.456 -0.5718  0.4056  0.6293
  379MOL0     C51074   6.846   4.971   1.334 -0.1908  0.6293 -0.4862
  379MOL0    Cl51075   6.962   5.010   1.196 -0.0560 -0.2417 -0.1023
  379MOL0     C51076   6.440   5.476   2.149 -0.2948  0.4036  0.9736
  379MOL0     C51077   6.319   5.447   2.194 -0.0156 -0.0899 -0.2745
  379MOL0     O51078   6.164   5.284   2.560 -0.1060  0.5179  0.2051
  379MOL0     C51079   5.908   5.388   2.598 -0.0768  1.1451  0.4187
  379MOL0     C51080   5.781   5.448   2.613 -0.7945 -0.7740  0.0250
  379MOL0     N51081   5.148   5.828   2.083  0.4142  0.1832 -1.2040
  379MOL0     N51082   5.018   5.844   2.077  0.1886 -0.5007 -0.6645
  379MOL0     C51083   4.582   5.476   2.916  0.0245 -0.3967 -0.2513
  379MOL0     C51084   4.720   5.450   2.906 -0.8480 -0.0278  0.0032
  379MOL0     C51085   5.133   5.329   2.790  0.8342 -0.4551  0.5872
  379MOL0     C51086   5.238   5.398   2.731  0.3103  1.0531  0.4040
  379MOL0     C51087   5.367   5.355   2.750 -0.2056 -0.9784 -1.4591
  379MOL0     C51088   5.400   5.233   2.813  0.0884  0.1695  0.8440
  379MOL0     O51089   5.525   5.180   2.828  0.0826 -1.0936  0.3307
  379MOL0     C51090   5.571   5.148   2.956 -0.3910  0.2288 -0.7076
  379MOL0     C51091   5.511   5.225   3.074  0.3848  0.1799  0.4717
  379MOL0     C51092   5.593   5.221   3.203 -1.0573 -0.0666  0.1287
  379MOL0     C51093   5.638   5.088   3.264 -0.2968 -0.1783 -0.7610
  379MOL0     C51094   5.525   4.998   3.285 -0.0745  0.2810  0.5599
  379MOL0     C51095   5.428   4.926   3.320  0.5850 -0.6635 -0.3153
  379MOL0     C51096   5.294   5.161   2.860  0.5395  0.2538  0.5393
  379MOL0     C51097   5.154   5.205   2.846 -0.1775  0.3390  0.5463
  379MOL0     H51098   4.707   5.195   2.676  3.0888  1.3506  0.9212
  379MOL0     H51099   4.474   5.258   2.685  1.3584 -0.2409 -0.8618
  379MOL0     H51100   4.200   5.568   2.780 -0.3916 -0.2777 -1.4748
  379MOL0     H51101   4.320   5.628   2.878 -4.7216 -0.3457  0.4373
  379MOL0     H51102   4.331   5.737   2.644  0.0024 -0.1451 -0.3258
  379MOL0     H51103   4.478   5.670   2.685 -0.6609  1.5302 -0.3908
  379MOL0     H51104   4.382   5.457   2.540 -1.6397 -0.2084 -3.7353
  379MOL0     H51105   4.241   5.564   2.527  0.6114  1.2167  0.6490
  379MOL0     H51106   4.364   5.623   2.317  2.5959 -1.3325 -0.2653
  379MOL0     H51107   4.395   5.743   2.436  0.5315 -0.1031 -0.5285
  379MOL0     H51108   4.606   5.675   2.482  0.1421  0.0705  0.5466
  379MOL0     H51109   4.582   5.510   2.415  2.0011 -0.9786 -0.8633
  379MOL0     H51110   4.561   5.618   2.189 -0.7187 -0.8176  1.1471
  379MOL0     H51111   4.565   5.782   2.259  2.5545 -0.0818  0.8282
  379MOL0     H51112   4.791   5.723   2.347 -1.0363 -1.5141  2.3126
  379MOL0     H51113   4.775   5.558   2.274  0.1813  0.0057  0.2992
  379MOL0     H51114   4.765   5.838   2.116 -2.6108 -0.8556 -2.3848
  379MOL0     H51115   4.769   5.680   2.047 -0.4200  0.1254  1.1742
  379MOL0     H51116   5.019   5.580   2.257  0.0843 -0.6948 -0.3660
  379MOL0     H51117   5.297   5.535   2.184 -0.4414 -0.8729 -4.3304
  379MOL0     H51118   5.355   5.655   2.070  0.5616 -0.0064 -0.7843
  379MOL0     H51119   5.308   5.728   2.369  1.0812 -2.5126  2.0526
  379MOL0     H51120   5.421   5.801   2.268  1.4015 -1.8616  0.0331
  379MOL0     H51121   5.541   5.548   2.292 -2.2560 -2.3865 -0.8975
  379MOL0     H51122   5.415   5.519   2.401  0.0046  0.6070  1.3546
  379MOL0     H51123   5.444   5.713   2.541 -1.0054 -2.9335  0.3049
  379MOL0     H51124   5.584   5.770   2.442  0.7636 -1.1284  0.3673
  379MOL0     H51125   5.794   5.686   2.370  4.5680  0.5347  0.1200
  379MOL0     H51126   6.048   5.587   2.241  3.3958 -0.0457  0.7256
  379MOL0     H51127   6.008   5.741   2.320 -0.2586  0.5998  3.3876
  379MOL0     H51128   6.140   5.635   2.381  0.9561 -1.9148 -2.0027
  379MOL0     H51129   6.391   5.276   2.470 -2.2560  2.2026  0.5106
  379MOL0     H51130   6.621   5.323   2.392  1.3565 -4.3643 -3.2752
  379MOL0     H51131   6.859   5.382   2.074 -0.0861 -1.1518  0.6229
  379MOL0     H51132   6.780   5.275   2.202  1.8430  1.9495  1.2206
  379MOL0     H51133   6.606   5.221   2.047  0.6398 -0.4720 -0.9672
  379MOL0     H51134   6.672   5.310   1.906  0.2543 -0.1602 -0.9658
  379MOL0     H51135   6.767   5.055   2.014 -1.3493 -1.3999 -3.3656
  379MOL0     H51136   6.897   5.170   1.954 -1.1148  1.6257  0.3157
  379MOL0     H51137   6.808   4.975   1.826 -2.4287 -1.7530 -1.9130
  379MOL0     H51138   6.655   5.063   1.805  0.4308  1.9044 -2.2518
  379MOL0     H51139   6.925   5.150   1.697  0.4359  1.0711  2.7445
  379MOL0     H51140   6.764   5.228   1.668 -0.9464 -1.0389 -0.6483
  379MOL0     H51141   6.832   4.923   1.620  2.0471 -1.2061 -1.9649
  379MOL0     H51142   6.697   5.012   1.541  1.0513 -0.6791 -0.3167
  379MOL0     H51143   6.985   5.052   1.476 -1.2599 -1.3875  5.1010
  379MOL0     H51144   6.858   5.163   1.431 -0.2012  0.1210 -0.9106
  379MOL0     H51145   6.745   4.992   1.299 -0.7602  1.8758  1.7610
  379MOL0     H51146   6.847   4.867   1.368  1.7431  1.0272  0.8820
  379MOL0     H51147   6.445   5.540   2.062 -1.1907 -1.8334 -0.8269
  379MOL0     H51148   6.235   5.500   2.150 -0.3260 -1.1065 -0.9522
  379MOL0     H51149   5.930   5.299   2.656  0.0727 -2.2438 -4.2527
  379MOL0     H51150   5.711   5.393   2.676 -0.8923 -1.4900 -0.6976
  379MOL0     H51151   4.562   5.550   2.992  3.5508 -0.6725  1.1280
  379MOL0     H51152   4.793   5.510   2.960  0.0715 -1.0411 -0.0594
  379MOL0     H51153   5.218   5.493   2.682 -1.3286  0.4597 -0.1440
  379MOL0     H51154   5.455   5.407   2.712 -0.8759  0.3279 -1.2936
  379MOL0     H51155   5.546   5.044   2.979 -0.9505  0.0693 -1.9389
  379MOL0     H51156   5.678   5.162   2.971 -0.6905 -0.4439  3.2944
  379MOL0     H51157   5.405   5.204   3.091 -0.0012  0.6531 -1.1899
  379MOL0     H51158   5.509   5.331   3.047  2.1856 -0.2984 -1.8157
  379MOL0     H51159   5.541   5.290   3.270 -0.6214  0.7424 -0.3465
  379MOL0     H51160   5.686   5.277   3.186 -1.3436  0.6924  0.9861
  379MOL0     H51161   5.699   5.103   3.354  2.7470  1.5549 -2.9389
  379MOL0     H51162   5.695   5.030   3.191  0.8282 -1.7125  1.2196
  379MOL0     H51163   5.340   4.884   3.363  0.0354  1.6761  0.9956
  379MOL0     H51164   5.306   5.066   2.912 -0.5906 -0.4326 -0.3718
  379MOL0     H51165   5.069   5.148   2.883 -0.2184  0.0094 -0.0518
  380MOL0     O51166   6.666   0.580   0.334  0.0072  0.0830  0.3482
  380MOL0     C51167   6.781   0.632   0.316  0.0476  1.7252  0.3309
  380MOL0     O51168   6.833   0.742   0.375  0.0004  0.7579 -0.1537
  380MOL0     C51169   6.742   0.794   0.460 -0.4191 -1.2358  1.1191
  380MOL0     C51170   6.726   0.751   0.596  1.0445  0.2721  0.7854
  380MOL0     C51171   6.634   0.814   0.683 -0.3118 -1.1311 -0.2421
  380MOL0     C51172   6.560   0.925   0.646 -0.1144  0.3041  0.7061
  380MOL0     O51173   6.476   0.983   0.740  0.2892 -0.2444  0.1284
  380MOL0     C51174   6.428   1.121   0.729 -0.8382  0.0855  0.2384
  380MOL0     C51175   6.546   1.204   0.783 -0.0951  0.2094 -0.9606
  380MOL0     C51176   6.566   1.192   0.943 -0.0177 -0.2901  1.6782
  380MOL0     C51177   6.679   1.085   0.987  0.4230  0.0117 -0.0577
  380MOL0     C51178   6.679   1.092   1.148 -0.3369 -0.1897 -0.7223
  380MOL0     C51179   6.799   1.028   1.215 -0.0473 -0.1892 -0.0315
  380MOL0     C51180   6.839   0.890   1.165  0.5283 -0.8625 -0.2086
  380MOL0     C51181   6.773   0.770   1.251  0.4780  0.1218  0.9121
  380MOL0     N51182   6.625   0.768   1.243  0.6977 -0.3948 -0.1632
  380MOL0     C51183   6.557   0.765   1.127 -0.0121  0.6783  0.8252
  380MOL0     C51184   6.427   0.785   1.168 -0.1719 -0.7090  0.3573
  380MOL0     C51185   6.303   0.783   1.080  0.2771  0.0305 -0.5807
  380MOL0     C51186   6.186   0.890   1.103 -0.8481  0.1916 -0.6658
  380MOL0     C51187   6.242   1.022   1.041 -0.2651  0.1692 -0.0030
  380MOL0     C51188   6.140   1.144   1.034  1.3735 -1.0563 -0.3908
  380MOL0     O51189   6.195   1.258   0.957  0.3126  0.0939 -0.4371
  380MOL0     C51190   6.282   1.347   1.006  0.2505  0.0432  0.2497
  380MOL0     C51191   6.334   1.356   1.137 -0.4512  0.6378 -0.8729
  380MOL0     C51192   6.434   1.455   1.164 -0.2641  0.5854  0.0707
  380MOL0     C51193   6.505   1.447   1.297  0.0657 -0.2723 -0.5556
  380MOL0     C51194   6.464   1.557   1.072  0.6848 -0.6530 -0.3080
  380MOL0     C51195   6.546   1.676   1.113 -0.3681  0.4597 -0.1795
  380MOL0     O51196   6.618   1.720   1.005  0.8783 -0.0548  0.1148
  380MOL0     C51197   6.658   1.850   1.002 -0.5070 -0.0159  0.7285
  380MOL0     C51198   6.799   1.882   1.025  0.8700 -0.5496  0.2951
  380MOL0     C51199   6.844   2.015   1.004 -0.2065 -0.5138  0.3331
  380MOL0     C51200   6.753   2.107   0.941  0.0318 -0.5714 -1.0155
  380MOL0     O51201   6.809   2.231   0.923 -0.2576 -0.1488  0.4746
  380MOL0     C51202   6.715   2.333   0.941 -0.8477 -0.3662  0.5687
  380MOL0     C51203   6.796   2.464   0.928 -0.2004 -0.0883  0.1935
  380MOL0     C51204   6.819   2.502   0.779  0.1289  0.4243  0.1599
  380MOL0     C51205   6.854   2.649   0.762  1.4277 -0.2387  0.8848
  380MOL0     C51206   6.900   2.684   0.618 -0.6601 -0.9035 -0.3276
  380MOL0     C51207   6.877   2.831   0.585  0.0171 -0.1432 -1.0127
  380MOL0     C51208   6.954   2.882   0.465 -0.1818 -0.6900  0.4954
  380MOL0     C51209   6.888   2.830   0.336  1.1083  0.1024  0.6579
  380MOL0    Cl51210   6.987   2.885   0.196 -0.2068  0.0624  0.4240
  380MOL0     C51211   6.626   2.071   0.907 -0.4329  0.6363 -0.7140
  380MOL0     C51212   6.577   1.946   0.937  0.0765 -0.0535 -0.6338
  380MOL0     O51213   6.541   1.732   1.224 -0.2965  0.2891 -0.0616
  380MOL0     C51214   6.405   1.544   0.949  1.0212 -0.1700 -0.8067
  380MOL0     C51215   6.319   1.441   0.912 -0.5121  0.2086 -0.4466
  380MOL0     N51216   6.417   0.795   1.305  0.2975  0.1998 -0.3636
  380MOL0     N51217   6.536   0.783   1.352  0.7102  0.0811  0.5449
  380MOL0     C51218   6.555   0.951   0.502  0.1516  0.3933 -0.5219
  380MOL0     C51219   6.654   0.898   0.417  0.9249 -0.0899 -0.6621
  380MOL0     C51220   6.851   0.570   0.196  0.2880  0.5868  0.9032
  380MOL0     C51221   6.963   0.637   0.143 -0.0011 -0.0782 -0.5448
  380MOL0     C51222   7.047   0.581   0.045  0.2057 -0.5012  1.2581
  380MOL0     C51223   7.031   0.446   0.009  0.2499  0.3797 -0.3682
  380MOL0     O51224   7.110   0.372  -0.073 -0.6870  0.3267 -0.0666
  380MOL0     C51225   7.247   0.410  -0.111 -0.3174 -0.4196  1.0448
  380MOL0     C51226   7.249   0.507  -0.222 -0.3510  0.5770 -0.1971
  380MOL0     C51227   7.218   0.431  -0.350 -0.3514  0.2583  0.2545
  380MOL0     C51228   7.203   0.529  -0.477 -0.1456  0.0563 -0.8322
  380MOL0     C51229   7.337   0.576  -0.520  1.1937 -0.8205  0.5776
  380MOL0     C51230   7.444   0.611  -0.562  0.5725 -0.2801  0.3534
  380MOL0     C51231   6.923   0.376   0.067 -0.3783 -1.3688  0.0953
  380MOL0     C51232   6.829   0.440   0.157  0.3949  1.1710 -0.3791
  380MOL0     H51233   6.788   0.665   0.619  2.6423  0.9400 -0.7938
  380MOL0     H51234   6.616   0.783   0.785 -0.0361 -0.5516 -0.0123
  380MOL0     H51235   6.402   1.168   0.634 -2.8796  0.4536  0.9424
  380MOL0     H51236   6.336   1.131   0.787 -1.0428  1.6601 -0.3102
  380MOL0     H51237   6.645   1.181   0.742 -0.0385 -1.8170  0.1816
  380MOL0     H51238   6.527   1.309   0.761 -1.4938  1.3238  4.1335
  380MOL0     H51239   6.610   1.286   0.976 -0.6449  1.8371 -2.9191
  380MOL0     H51240   6.471   1.165   0.990 -1.4057 -2.2078 -1.8868
  380MOL0     H51241   6.659   0.984   0.951 -0.4607 -0.5093  1.7753
  380MOL0     H51242   6.783   1.101   0.957 -0.1282 -0.6592 -2.5626
  380MOL0     H51243   6.676   1.198   1.175 -3.0350 -0.4454  0.3380
  380MOL0     H51244   6.582   1.059   1.186  0.6998 -0.2716  2.0950
  380MOL0     H51245   6.882   1.093   1.184 -0.4203 -0.9359 -2.8501
  380MOL0     H51246   6.800   1.042   1.323  0.6289 -0.2637 -0.0261
  380MOL0     H51247   6.816   0.870   1.060  1.2296 -0.8610 -0.3716
  380MOL0     H51248   6.948   0.883   1.178  0.8055 -2.8027 -2.8693
  380MOL0     H51249   6.802   0.788   1.355  0.8077  1.2920  0.6331
  380MOL0     H51250   6.812   0.671   1.226  1.5477  0.7137  0.1368
  380MOL0     H51251   6.587   0.752   1.024  1.9326 -1.8900  1.5946
  380MOL0     H51252   6.314   0.776   0.971 -1.6576  1.6835 -0.9443
  380MOL0     H51253   6.261   0.686   1.107 -0.2143  0.2025 -0.7165
  380MOL0     H51254   6.185   0.909   1.210 -0.4101 -1.5539 -0.3360
  380MOL0     H51255   6.096   0.845   1.060  1.7945 -4.3082 -2.2176
  380MOL0     H51256   6.275   1.001   0.939  2.5263  1.6814  0.4738
  380MOL0     H51257   6.326   1.060   1.100  0.1784  0.4273 -0.7809
  380MOL0     H51258   6.101   1.185   1.128 -0.8270 -4.1314  0.2139
  380MOL0     H51259   6.050   1.114   0.980  0.5244  1.0831 -0.2454
  380MOL0     H51260   6.313   1.286   1.217 -3.0039  1.1383 -1.0134
  380MOL0     H51261   6.498   1.357   1.358  4.1485 -0.3405  0.1073
  380MOL0     H51262   6.611   1.468   1.279  0.0991  0.0651  0.0115
  380MOL0     H51263   6.456   1.535   1.341 -1.3543 -0.3128 -1.9600
  380MOL0     H51264   6.871   1.816   1.073  3.2939  1.4125 -0.4271
  380MOL0     H51265   6.946   2.033   1.036  0.6579 -0.1756 -2.3339
  380MOL0     H51266   6.628   2.329   0.874 -0.8918 -0.6924  0.6452
  380MOL0     H51267   6.677   2.329   1.044 -1.4983  2.8814  0.5517
  380MOL0     H51268   6.744   2.547   0.976  0.2687 -0.4813  1.4069
  380MOL0     H51269   6.897   2.458   0.969 -0.4592  4.8755  2.2371
  380MOL0     H51270   6.726   2.490   0.724 -1.1810  0.4464  2.2837
  380MOL0     H51271   6.905   2.448   0.737  0.3473  1.0746 -0.2578
  380MOL0     H51272   6.783   2.721   0.802  0.7496 -0.1763 -0.3758
  380MOL0     H51273   6.946   2.655   0.821  1.0396 -1.7666  1.7018
  380MOL0     H51274   6.848   2.615   0.551 -0.7463 -2.8731  1.6442
  380MOL0     H51275   7.006   2.658   0.617  0.0247  1.5327  1.3100
  380MOL0     H51276   6.770   2.853   0.579 -0.2408 -0.6646  0.9503
  380MOL0     H51277   6.921   2.881   0.672 -1.7899 -0.0423 -0.1198
  380MOL0     H51278   7.056   2.842   0.470  0.5698  0.8898 -1.2552
  380MOL0     H51279   6.962   2.991   0.466 -1.3707 -0.5681  2.1576
  380MOL0     H51280   6.787   2.871   0.339  1.7238  1.7163  0.6095
  380MOL0     H51281   6.884   2.721   0.339  0.1849  0.0731 -0.7554
  380MOL0     H51282   6.556   2.141   0.862 -1.5463  0.6587  0.9660
  380MOL0     H51283   6.474   1.930   0.906  0.2110 -0.0963 -1.0527
  380MOL0     H51284   6.415   1.625   0.877 -0.1091 -0.0883 -0.8821
  380MOL0     H51285   6.263   1.436   0.819 -0.9739 -2.1070 -0.1024
  380MOL0     H51286   6.495   1.029   0.456 -1.8652 -1.8361 -1.8572
  380MOL0     H51287   6.659   0.937   0.316  2.3074  2.5763  0.3147
  380MOL0     H51288   6.981   0.742   0.165 -2.7745 -0.0931  2.7533
  380MOL0     H51289   7.125   0.638  -0.004  1.1711 -1.2955  1.8246
  380MOL0     H51290   7.304   0.439  -0.023 -1.0118  3.1730  0.4754
  380MOL0     H51291   7.293   0.321  -0.155 -0.3029 -0.0024  0.1937
  380MOL0     H51292   7.350   0.547  -0.231  0.1589 -0.7094 -0.3237
  380MOL0     H51293   7.183   0.593  -0.205 -0.2392  1.1256 -2.2356
  380MOL0     H51294   7.127   0.372  -0.336 -0.1366  0.0576  0.8476
  380MOL0     H51295   7.297   0.361  -0.380  0.8508  3.0089 -3.7130
  380MOL0     H51296   7.152   0.622  -0.451 -0.2817  0.3448 -2.0562
  380MOL0     H51297   7.145   0.479  -0.555 -1.1557 -1.2956  0.7236
  380MOL0     H51298   7.541   0.640  -0.598  1.0274 -0.6846  1.2145
  380MOL0     H51299   6.898   0.273   0.045  0.3129 -2.3397  3.3601
  380MOL0     H51300   6.752   0.377   0.202  1.9260  0.4505  1.3398
  381MOL0     O51301   7.037   0.583   6.496  0.5033 -0.6285 -0.5708
  381MOL0     C51302   7.036   0.681   6.573  0.3712 -0.8038  0.8443
  381MOL0     O51303   6.930   0.736   6.640  0.4979  0.1948  0.1177
  381MOL0     C51304   6.810   0.673   6.621 -0.4358  0.3512 -0.0186
  381MOL0     C51305   6.776   0.569   6.712  0.5495 -1.1719  1.5704
  381MOL0     C51306   6.656   0.491   6.701 -1.1221  0.0148 -0.7603
  381MOL0     C51307   6.585   0.514   6.577 -1.7748  0.0731 -0.9998
  381MOL0     O51308   6.468   0.439   6.554  0.0909  0.1906 -0.2565
  381MOL0     C51309   6.378   0.467   6.444 -0.1594  0.7432 -0.2588
  381MOL0     C51310   6.287   0.578   6.478  0.1099  0.2979 -0.7705
  381MOL0     C51311   6.145   0.542   6.481 -1.1567  0.5575  1.0457
  381MOL0     C51312   6.060   0.644   6.549  0.2100  0.2884 -0.0968
  381MOL0     C51313   5.904   0.605   6.537 -0.1632  0.4983  0.1510
  381MOL0     C51314   5.820   0.711   6.602  1.0918 -0.8843 -0.4370
  381MOL0     C51315   5.670   0.664   6.601 -1.0022  0.5627 -0.1088
  381MOL0     C51316   5.647   0.535   6.679 -0.5986 -0.8187 -0.4362
  381MOL0     N51317   5.504   0.521   6.718 -0.4047 -1.0454  0.3407
  381MOL0     C51318   5.400   0.484   6.628 -0.2542 -0.1924  0.2306
  381MOL0     C51319   5.294   0.454   6.709  1.4871  0.1783  0.3724
  381MOL0     C51320   5.161   0.426   6.645  0.0686 -0.4441 -0.2607
  381MOL0     C51321   5.116   0.279   6.678 -0.3319 -0.3680  0.3972
  381MOL0     C51322   4.977   0.240   6.608 -0.0987  0.2081 -0.3646
  381MOL0     C51323   5.002   0.176   6.471 -0.4404  0.2318  0.4059
  381MOL0     O51324   5.021   0.281   6.384  0.5768  0.0122  0.1800
  381MOL0     C51325   5.083   0.268   6.260 -0.0963 -0.1367  0.2429
  381MOL0     C51326   5.115   0.379   6.191  1.3311  0.7414  0.5410
  381MOL0     C51327   5.168   0.373   6.062  0.2659 -1.2814  0.2856
  381MOL0     C51328   5.208   0.503   5.990 -0.4047 -0.3879 -0.1195
  381MOL0     C51329   5.170   0.250   5.997  0.0014 -0.2203  0.6903
  381MOL0     C51330   5.192   0.227   5.845 -0.7947 -0.8626 -0.3571
  381MOL0     O51331   5.129   0.122   5.787 -0.3579 -0.1079 -0.5478
  381MOL0     C51332   5.155   0.105   5.655  0.7196 -0.2661 -0.2773
  381MOL0     C51333   5.281   0.079   5.612 -0.3618 -0.2124  0.0276
  381MOL0     C51334   5.297   0.031   5.477 -0.1026  0.2445  0.7414
  381MOL0     C51335   5.200   0.068   5.387  0.3423  0.5139  0.9654
  381MOL0     O51336   5.207   0.051   5.250 -0.3129  1.1803  1.1328
  381MOL0     C51337   5.333   0.084   5.187  0.9818 -0.2464 -0.0245
  381MOL0     C51338   5.309   0.145   5.051 -0.7165  0.6010  0.2137
  381MOL0     C51339   5.316   0.034   4.943  0.7134 -0.3041  0.1269
  381MOL0     C51340   5.281   0.096   4.800 -0.1792  0.5297  0.2368
  381MOL0     C51341   5.303  -0.008   4.690 -1.5005 -0.2097  0.2673
  381MOL0     C51342   5.454  -0.046   4.665 -0.4343 -0.0994 -0.1695
  381MOL0     C51343   5.490  -0.178   4.724 -0.4215 -0.0393 -0.0621
  381MOL0     C51344   5.631  -0.223   4.697 -0.2528 -0.9587  0.5691
  381MOL0    Cl51345   5.749  -0.144   4.802 -0.1249 -0.2930 -0.1421
  381MOL0     C51346   5.074   0.111   5.435 -0.5685 -0.6377 -0.7107
  381MOL0     C51347   5.054   0.133   5.567  0.3710 -0.2052  0.3603
  381MOL0     O51348   5.280   0.304   5.793  0.2622  0.4356 -0.4082
  381MOL0     C51349   5.138   0.131   6.066  0.3552 -1.3494  0.7449
  381MOL0     C51350   5.094   0.142   6.202 -1.1870  0.9365  0.9443
  381MOL0     N51351   5.333   0.469   6.838  0.9591 -0.2153  1.0679
  381MOL0     N51352   5.459   0.495   6.845 -0.4054 -0.1879  1.0062
  381MOL0     C51353   6.621   0.612   6.485 -0.4034 -0.1472 -0.5069
  381MOL0     C51354   6.732   0.697   6.510  0.3575  0.4212 -0.3551
  381MOL0     C51355   7.168   0.729   6.606 -0.9413  0.1252 -0.8538
  381MOL0     C51356   7.184   0.844   6.678  0.2192  0.2735 -1.4979
  381MOL0     C51357   7.309   0.889   6.713 -0.9841  0.0083 -0.3538
  381MOL0     C51358   7.421   0.812   6.684 -0.7389  0.7930  0.0099
  381MOL0     O51359   7.552   0.853   6.716  0.6743 -0.1144  0.2488
  381MOL0     C51360   7.577   0.994   6.725  1.3287  0.6380  0.4572
  381MOL0     C51361   7.708   1.033   6.773  0.2330 -0.1210  0.7093
  381MOL0     C51362   7.731   1.189   6.765 -0.4131 -0.2453 -0.1545
  381MOL0     C51363   7.836   1.234   6.857 -0.0102 -0.3988 -0.7690
  381MOL0     C51364   7.815   1.203   6.999 -0.4902  0.0036 -0.5926
  381MOL0     C51365   7.804   1.191   7.111  0.7838 -0.3404 -1.3468
  381MOL0     C51366   7.405   0.691   6.619 -0.5013 -0.7147  0.3121
  381MOL0     C51367   7.281   0.647   6.574 -0.7530  0.2923 -0.4330
  381MOL0     H51368   6.846   0.558   6.794  0.9937 -0.5744  1.2761
  381MOL0     H51369   6.641   0.414   6.776  0.1900 -0.5399 -1.0465
  381MOL0     H51370   6.409   0.476   6.340 -1.2976 -2.1275 -0.9313
  381MOL0     H51371   6.326   0.371   6.436 -0.9207  1.0658  0.5709
  381MOL0     H51372   6.314   0.626   6.572 -2.7025  0.4172  0.0865
  381MOL0     H51373   6.307   0.659   6.408  1.5425  0.0939 -0.6235
  381MOL0     H51374   6.119   0.528   6.376 -2.5312 -1.1361  1.5538
  381MOL0     H51375   6.139   0.448   6.537  1.7294 -0.4444 -0.1445
  381MOL0     H51376   6.101   0.662   6.649  1.7645 -1.5236 -0.3618
  381MOL0     H51377   6.073   0.743   6.503 -1.6325 -0.8613 -3.4427
  381MOL0     H51378   5.876   0.599   6.432 -0.1270 -1.6926  0.2226
  381MOL0     H51379   5.880   0.507   6.578  0.4524  0.3789  0.2310
  381MOL0     H51380   5.843   0.720   6.708 -4.2773 -3.3270  1.2878
  381MOL0     H51381   5.822   0.803   6.543 -1.9592 -0.5670 -0.1843
  381MOL0     H51382   5.597   0.735   6.640 -2.0535 -0.8272  0.5624
  381MOL0     H51383   5.652   0.662   6.493  0.6537  1.2293 -0.4386
  381MOL0     H51384   5.709   0.537   6.770  0.3513  2.2590 -1.0266
  381MOL0     H51385   5.674   0.442   6.629  0.8056 -1.3231  1.1698
  381MOL0     H51386   5.410   0.488   6.520  1.9905 -2.5555  0.2477
  381MOL0     H51387   5.090   0.500   6.683 -1.5056 -0.0618 -3.6596
  381MOL0     H51388   5.173   0.434   6.537 -0.6602 -0.6816 -0.3662
  381MOL0     H51389   5.103   0.264   6.785  1.6882 -0.4672  0.6542
  381MOL0     H51390   5.195   0.207   6.658 -1.6059 -2.3022  1.9191
  381MOL0     H51391   4.909   0.325   6.597  1.7227  1.5413 -2.1338
  381MOL0     H51392   4.932   0.165   6.673  1.6788 -0.5316  0.0739
  381MOL0     H51393   4.920   0.108   6.447 -0.0595 -0.2594  0.4940
  381MOL0     H51394   5.094   0.118   6.479 -1.9679 -2.2538  0.9219
  381MOL0     H51395   5.092   0.477   6.232  1.2382  0.2808  1.6332
  381MOL0     H51396   5.133   0.522   5.913 -0.4965  0.8847  0.2686
  381MOL0     H51397   5.224   0.593   6.050 -1.2742 -0.3807  0.1085
  381MOL0     H51398   5.304   0.494   5.936 -0.3585  0.6152 -0.2173
  381MOL0     H51399   5.366   0.098   5.676  0.3875  3.8143 -1.8647
  381MOL0     H51400   5.393  -0.019   5.461  0.6560  1.6284  0.8000
  381MOL0     H51401   5.378   0.161   5.251 -3.7644  1.3569  1.7794
  381MOL0     H51402   5.397  -0.004   5.179 -0.8196 -1.6564  0.5983
  381MOL0     H51403   5.214   0.199   5.048 -1.7800 -0.9527  2.8415
  381MOL0     H51404   5.381   0.225   5.032  0.2376 -0.1832  0.4695
  381MOL0     H51405   5.242  -0.043   4.967  0.7507 -0.5966 -0.6665
  381MOL0     H51406   5.410  -0.022   4.947  0.6770 -0.2982  1.9401
  381MOL0     H51407   5.171   0.104   4.802 -0.2616 -0.5627  0.3610
  381MOL0     H51408   5.332   0.189   4.772  0.3262 -0.3764 -2.0341
  381MOL0     H51409   5.250   0.020   4.599 -2.1128 -1.3984  0.2415
  381MOL0     H51410   5.248  -0.098   4.719 -2.8920 -0.5787 -3.0305
  381MOL0     H51411   5.476  -0.022   4.560 -3.2551  4.6921  0.0523
  381MOL0     H51412   5.517   0.020   4.725 -1.3671  0.4665  0.2130
  381MOL0     H51413   5.426  -0.252   4.676 -0.6701 -1.0648  1.7369
  381MOL0     H51414   5.474  -0.188   4.832  0.5944 -1.2596  0.0089
  381MOL0     H51415   5.671  -0.203   4.598 -1.8796  0.5879  0.1741
  381MOL0     H51416   5.642  -0.332   4.702  0.5997 -0.8838  0.4920
  381MOL0     H51417   4.995   0.131   5.363 -1.1458 -2.7742 -0.7628
  381MOL0     H51418   4.959   0.178   5.594 -0.0991  0.3736 -2.0916
  381MOL0     H51419   5.145   0.038   6.011 -1.0246  0.0416 -1.9860
  381MOL0     H51420   5.056   0.054   6.254 -2.0755  0.0680 -1.0919
  381MOL0     H51421   6.585   0.631   6.384  0.8712  0.4323 -0.8744
  381MOL0     H51422   6.759   0.771   6.436 -0.9493  0.4271 -0.8498
  381MOL0     H51423   7.097   0.896   6.717  2.0445  1.5727  1.1597
  381MOL0     H51424   7.320   0.982   6.769 -1.0012 -0.0305 -0.2855
  381MOL0     H51425   7.545   1.036   6.629 -0.3720 -4.8632 -1.7926
  381MOL0     H51426   7.520   1.041   6.806  4.6936  4.5610  0.8589
  381MOL0     H51427   7.780   0.985   6.707 -1.2954  1.0099 -1.9446
  381MOL0     H51428   7.728   0.977   6.865  0.0663 -1.1825  0.1097
  381MOL0     H51429   7.632   1.221   6.799 -0.1483  1.7550 -1.0865
  381MOL0     H51430   7.752   1.230   6.666 -2.4452 -1.0710 -0.9736
  381MOL0     H51431   7.840   1.341   6.834  0.3955  0.1884  1.6713
  381MOL0     H51432   7.935   1.196   6.831  0.6206 -1.7341  2.8938
  381MOL0     H51433   7.776   1.153   7.207 -0.8306  1.5369 -1.0214
  381MOL0     H51434   7.495   0.630   6.616 -0.8720 -1.2905  0.7775
  381MOL0     H51435   7.283   0.545   6.538  1.9570 -0.0031  0.3428
  382MOL0     O51436   9.387   8.911   5.757 -0.4286  0.7763  0.2306
  382MOL0     C51437   9.438   8.863   5.853 -0.2930 -0.7296  0.0412
  382MOL0     O51438   9.392   8.758   5.919 -0.1410 -0.3429 -0.1966
  382MOL0     C51439   9.298   8.674   5.859 -0.1686 -0.1999 -0.3666
  382MOL0     C51440   9.173   8.723   5.877  0.8720  0.1419 -0.3920
  382MOL0     C51441   9.062   8.642   5.863  0.6217  0.3333  0.3279
  382MOL0     C51442   9.077   8.513   5.816  0.9571 -0.2878  0.7049
  382MOL0     O51443   8.964   8.434   5.805 -0.3965  0.0865 -0.3017
  382MOL0     C51444   8.979   8.287   5.777  0.6712  0.1787 -1.2410
  382MOL0     C51445   8.851   8.204   5.804 -0.3464  0.8056  0.3757
  382MOL0     C51446   8.890   8.060   5.769  0.3584  0.1055  0.2765
  382MOL0     C51447   8.758   7.973   5.771  0.4688  0.3592  0.1383
  382MOL0     C51448   8.774   7.829   5.717  0.6624  1.2951  0.3178
  382MOL0     C51449   8.638   7.745   5.723  0.3657  0.6766  0.3369
  382MOL0     C51450   8.548   7.742   5.856  0.4061 -0.5559  0.4110
  382MOL0     C51451   8.600   7.671   5.980  0.5025  0.1430 -0.0769
  382MOL0     N51452   8.522   7.712   6.094  0.0725  0.6741 -0.8095
  382MOL0     C51453   8.565   7.762   6.223  0.2574  0.2751  0.5533
  382MOL0     C51454   8.452   7.810   6.277 -0.0094 -0.5697 -0.6731
  382MOL0     C51455   8.443   7.885   6.406  0.2121  1.1938  0.5377
  382MOL0     C51456   8.314   7.964   6.413  0.2255  0.0058 -0.1079
  382MOL0     C51457   8.333   8.077   6.524  0.3037 -0.0214 -0.3079
  382MOL0     C51458   8.196   8.149   6.545 -0.6258  0.4676 -0.1421
  382MOL0     O51459   8.127   8.183   6.419  0.9638 -0.5657  0.3023
  382MOL0     C51460   8.161   8.305   6.363 -0.6543  0.5330 -0.5341
  382MOL0     C51461   8.267   8.387   6.412  0.0260  0.6018 -0.1487
  382MOL0     C51462   8.293   8.513   6.353  0.4017  0.9169 -0.7667
  382MOL0     C51463   8.437   8.565   6.387 -0.0281 -0.3454  0.2255
  382MOL0     C51464   8.206   8.568   6.260 -0.4803 -0.9036  0.6592
  382MOL0     C51465   8.214   8.714   6.213  0.1095  0.1290  0.2108
  382MOL0     O51466   8.104   8.759   6.138  0.3884 -0.0032  0.3681
  382MOL0     C51467   8.098   8.892   6.092  0.2799 -0.1823  0.2275
  382MOL0     C51468   8.148   9.017   6.138 -0.5569  0.2740 -0.2055
  382MOL0     C51469   8.126   9.135   6.071  0.0911  0.0471 -0.6048
  382MOL0     C51470   8.059   9.129   5.949 -0.6458 -0.1621  0.0070
  382MOL0     O51471   8.022   9.250   5.897 -0.1759 -0.6904  0.0599
  382MOL0     C51472   7.894   9.276   5.836 -0.2657  0.1522 -0.5894
  382MOL0     C51473   7.907   9.288   5.685  0.6776  0.4238 -1.1881
  382MOL0     C51474   7.992   9.406   5.636 -0.3268  0.2638 -0.2733
  382MOL0     C51475   8.007   9.420   5.482 -0.7137 -0.1375  0.2659
  382MOL0     C51476   8.141   9.485   5.432  0.2669 -1.1104  0.4381
  382MOL0     C51477   8.156   9.498   5.279  0.9905 -0.5605 -0.2242
  382MOL0     C51478   8.211   9.369   5.213  0.6517  0.2111 -0.6976
  382MOL0     C51479   8.188   9.382   5.063 -0.3717 -0.3067 -0.3364
  382MOL0    Cl51480   8.011   9.379   5.023  0.4823  0.4161  0.4680
  382MOL0     C51481   8.006   9.006   5.903 -0.4546  0.0011 -0.0448
  382MOL0     C51482   8.027   8.899   5.975  0.5282 -0.1235  0.3179
  382MOL0     O51483   8.316   8.773   6.242  0.7017 -0.3987 -0.5681
  382MOL0     C51484   8.101   8.487   6.208 -0.6499 -0.0303  0.3069
  382MOL0     C51485   8.078   8.359   6.260 -0.0893  0.1319  0.5909
  382MOL0     N51486   8.347   7.767   6.198 -0.1448 -0.2661 -0.3723
  382MOL0     N51487   8.388   7.708   6.095  0.6298 -0.4676  0.4478
  382MOL0     C51488   9.204   8.467   5.785 -0.5618  0.0615  0.3016
  382MOL0     C51489   9.314   8.538   5.833 -1.0284  0.4497  0.1598
  382MOL0     C51490   9.551   8.941   5.900 -0.4148 -0.7455 -0.0313
  382MOL0     C51491   9.656   8.889   5.969 -0.4307 -0.2729  0.0102
  382MOL0     C51492   9.767   8.963   6.009  0.1941 -0.5718  0.3275
  382MOL0     C51493   9.772   9.103   5.977 -0.4894  0.0598  0.0932
  382MOL0     O51494   9.885   9.174   6.011 -0.3081  0.0763  0.0935
  382MOL0     C51495   9.934   9.281   5.929 -0.7135  0.0193  0.0572
  382MOL0     C51496  10.079   9.299   5.963 -0.2814  0.0732  0.3282
  382MOL0     C51497  10.142   9.407   5.878 -0.7472 -0.3894 -0.3319
  382MOL0     C51498  10.088   9.548   5.911  0.0104 -0.0866  0.9664
  382MOL0     C51499  10.099   9.581   6.050  0.3846  0.4841 -0.0893
  382MOL0     C51500  10.116   9.613   6.168 -0.1016  0.7890  0.2363
  382MOL0     C51501   9.669   9.157   5.900  0.4197 -0.4947 -0.0520
  382MOL0     C51502   9.557   9.075   5.863 -0.9288 -0.2590  0.3833
  382MOL0     H51503   9.149   8.825   5.908 -2.0542 -0.2765 -1.0372
  382MOL0     H51504   8.967   8.684   5.896  0.8627  0.2792  1.1228
  382MOL0     H51505   8.996   8.280   5.670 -1.9707 -0.3040 -1.7025
  382MOL0     H51506   9.070   8.244   5.821  0.4772 -1.0110 -1.9513
  382MOL0     H51507   8.828   8.218   5.910 -3.4914  0.9008 -0.2111
  382MOL0     H51508   8.775   8.250   5.739  0.0250  0.7576 -0.0961
  382MOL0     H51509   8.942   8.061   5.673  0.8026 -0.5371  0.5072
  382MOL0     H51510   8.958   8.026   5.847 -2.8931 -3.7442  1.7902
  382MOL0     H51511   8.708   7.973   5.869  2.4828 -0.5839  1.2313
  382MOL0     H51512   8.680   8.020   5.710 -0.3819 -0.2080  0.7579
  382MOL0     H51513   8.812   7.838   5.614 -2.8171 -1.1004 -1.3829
  382MOL0     H51514   8.845   7.771   5.776 -2.5260 -3.6878 -0.2159
  382MOL0     H51515   8.574   7.793   5.647 -0.0977 -1.6417 -0.8433
  382MOL0     H51516   8.658   7.643   5.687  2.0668  0.3144  2.1409
  382MOL0     H51517   8.522   7.845   5.880  4.9231  1.0685 -0.6691
  382MOL0     H51518   8.456   7.688   5.833 -0.7364  2.2011 -2.1824
  382MOL0     H51519   8.702   7.702   6.006  1.1693 -1.7775 -0.2380
  382MOL0     H51520   8.608   7.562   5.972 -1.5481 -0.0881  0.4677
  382MOL0     H51521   8.667   7.777   6.258  1.4474  1.9426 -3.1016
  382MOL0     H51522   8.421   7.807   6.480  2.9032  0.2201  0.3937
  382MOL0     H51523   8.538   7.925   6.443 -0.0194  1.7824  0.5155
  382MOL0     H51524   8.227   7.899   6.421  0.8964 -1.0111 -0.7850
  382MOL0     H51525   8.305   8.026   6.324  0.6023 -2.1697 -1.7318
  382MOL0     H51526   8.409   8.153   6.500  0.6222 -0.6124 -1.2007
  382MOL0     H51527   8.353   8.027   6.619 -3.3844 -3.0378 -0.9083
  382MOL0     H51528   8.199   8.234   6.614  3.8327 -0.4926  1.1254
  382MOL0     H51529   8.149   8.068   6.601 -0.3929  1.1693  1.1090
  382MOL0     H51530   8.348   8.356   6.477  0.6059  2.0212 -0.1527
  382MOL0     H51531   8.495   8.482   6.428  2.4674  1.4728  0.6322
  382MOL0     H51532   8.482   8.611   6.299  1.0457  0.7936  1.3302
  382MOL0     H51533   8.434   8.643   6.463 -0.1845  0.2171 -0.3501
  382MOL0     H51534   8.221   9.008   6.217  1.1880 -4.6979 -2.0048
  382MOL0     H51535   8.165   9.232   6.102  2.0555 -1.1022  0.8172
  382MOL0     H51536   7.828   9.193   5.863  1.6360 -1.3802 -0.4923
  382MOL0     H51537   7.863   9.371   5.881  1.0774  0.0593  0.5938
  382MOL0     H51538   7.965   9.201   5.652  0.1051 -1.3063  1.9281
  382MOL0     H51539   7.809   9.301   5.638  0.0963  0.2989 -0.0516
  382MOL0     H51540   8.090   9.383   5.679 -0.2071 -1.6049 -1.4727
  382MOL0     H51541   7.949   9.493   5.688 -2.2665 -2.5624  3.3871
  382MOL0     H51542   8.004   9.316   5.449 -4.2838 -0.1732  0.3159
  382MOL0     H51543   7.920   9.478   5.449  0.3522  2.0405  1.0748
  382MOL0     H51544   8.226   9.429   5.472  0.1206 -0.1193  2.2725
  382MOL0     H51545   8.147   9.590   5.462  1.3260 -0.3532 -2.1335
  382MOL0     H51546   8.057   9.528   5.243 -1.0615 -3.1466  2.6847
  382MOL0     H51547   8.234   9.569   5.252  0.3241  0.4518  0.4407
  382MOL0     H51548   8.150   9.286   5.248 -1.0198  1.3918 -0.6652
  382MOL0     H51549   8.315   9.347   5.238  0.2870  0.3013  1.0850
  382MOL0     H51550   8.221   9.291   5.011 -2.2994 -1.6146  0.6422
  382MOL0     H51551   8.239   9.473   5.030  0.7080  0.1830  2.3987
  382MOL0     H51552   7.950   9.005   5.809  1.9665 -2.7204 -1.6306
  382MOL0     H51553   7.968   8.811   5.950  0.0754  0.1874  0.2778
  382MOL0     H51554   8.034   8.531   6.134 -1.7743 -4.1566 -1.4174
  382MOL0     H51555   7.991   8.302   6.228 -0.5317  0.2599  1.5259
  382MOL0     H51556   9.222   8.364   5.753  5.2341  0.6979  0.4939
  382MOL0     H51557   9.416   8.502   5.836 -2.3645 -3.8546 -0.3983
  382MOL0     H51558   9.651   8.786   6.004  4.9495  0.0658  2.7431
  382MOL0     H51559   9.854   8.920   6.057  1.4630  0.6386 -0.8140
  382MOL0     H51560   9.912   9.250   5.827 -1.3134  1.0050 -0.1256
  382MOL0     H51561   9.881   9.375   5.951 -1.2488  0.2807 -2.0965
  382MOL0     H51562  10.132   9.204   5.949  1.0866  1.0113 -1.1401
  382MOL0     H51563  10.093   9.326   6.068  0.3548  0.0648  0.2487
  382MOL0     H51564  10.120   9.390   5.773 -2.5844  1.3502 -0.2929
  382MOL0     H51565  10.249   9.415   5.900 -1.3526  3.1210  2.2380
  382MOL0     H51566   9.985   9.543   5.875  0.6044 -0.8723 -0.7384
  382MOL0     H51567  10.142   9.634   5.870  0.1442  1.8742  4.7781
  382MOL0     H51568  10.124   9.632   6.274  0.9423  0.8827  0.1550
  382MOL0     H51569   9.679   9.254   5.854  1.0974  0.0401  1.1517
  382MOL0     H51570   9.481   9.117   5.798  0.8053 -0.6897 -2.0866
  383MOL0     O51571   1.701   6.720   8.483 -0.2166  0.6300  0.3134
  383MOL0     C51572   1.590   6.774   8.498 -0.2071  0.6683  0.3388
  383MOL0     O51573   1.486   6.720   8.563 -0.1782 -0.2171 -0.3488
  383MOL0     C51574   1.506   6.596   8.612 -0.2307  0.9308 -0.0537
  383MOL0     C51575   1.423   6.492   8.570  0.5054 -0.2844 -0.1317
  383MOL0     C51576   1.427   6.360   8.616  0.5098  0.2997  0.2189
  383MOL0     C51577   1.525   6.330   8.708 -0.5844  0.3794 -0.0946
  383MOL0     O51578   1.540   6.200   8.763 -0.4326  0.0272  0.5277
  383MOL0     C51579   1.571   6.100   8.665 -0.4008 -0.2408  0.2924
  383MOL0     C51580   1.628   5.979   8.736 -0.2121 -0.5761 -0.8637
  383MOL0     C51581   1.519   5.879   8.786  0.2985  0.2531 -0.8807
  383MOL0     C51582   1.588   5.754   8.853  0.9834 -0.4004 -0.2097
  383MOL0     C51583   1.485   5.636   8.854  0.6423 -0.2096 -0.1859
  383MOL0     C51584   1.471   5.614   8.996 -0.6303  0.3911 -0.2700
  383MOL0     C51585   1.379   5.489   9.001  0.4145 -0.6585 -0.5168
  383MOL0     C51586   1.433   5.347   8.987 -0.6024 -1.0339 -0.1686
  383MOL0     N51587   1.568   5.337   9.053 -0.3972 -0.9186 -0.7826
  383MOL0     C51588   1.689   5.373   9.004  0.4098  0.5195  0.0875
  383MOL0     C51589   1.777   5.354   9.103  0.3022 -0.3429 -0.6399
  383MOL0     C51590   1.922   5.389   9.104 -0.6781 -0.2775  0.0048
  383MOL0     C51591   1.937   5.540   9.132  0.2778 -0.4530 -0.6743
  383MOL0     C51592   2.080   5.573   9.191  0.1513 -0.1270  0.6933
  383MOL0     C51593   2.127   5.506   9.323 -0.4834 -0.3238  0.2038
  383MOL0     O51594   2.249   5.559   9.363 -0.3039  0.9083 -0.7543
  383MOL0     C51595   2.289   5.524   9.489 -1.0551 -0.6471  0.5637
  383MOL0     C51596   2.289   5.615   9.596  0.5738  0.1904  0.4071
  383MOL0     C51597   2.305   5.577   9.729  0.5104 -0.9369 -0.1515
  383MOL0     C51598   2.327   5.691   9.825 -0.3171 -0.7050  0.0813
  383MOL0     C51599   2.326   5.443   9.753 -0.7065 -0.7756 -0.9962
  383MOL0     C51600   2.352   5.395   9.889  0.1818 -0.1406 -0.8221
  383MOL0     O51601   2.424   5.284   9.908 -0.1815 -0.2378  0.3950
  383MOL0     C51602   2.480   5.254  10.018 -1.0962  0.4276 -0.1719
  383MOL0     C51603   2.414   5.253  10.145 -0.4598 -0.2579 -0.0021
  383MOL0     C51604   2.484   5.226  10.269 -0.3520 -0.5040 -0.1739
  383MOL0     C51605   2.619   5.229  10.267 -0.7751  0.3713  0.5559
  383MOL0     O51606   2.686   5.242  10.382  0.1333  0.0202 -0.1486
  383MOL0     C51607   2.811   5.315  10.378  0.8472 -0.1889  0.3208
  383MOL0     C51608   2.851   5.352  10.525  0.5730 -0.8633  0.5361
  383MOL0     C51609   2.756   5.448  10.594 -0.1485 -0.2342 -0.5409
  383MOL0     C51610   2.777   5.455  10.741  1.2446 -0.7034 -1.4269
  383MOL0     C51611   2.652   5.412  10.819 -0.8782  0.5037 -0.2250
  383MOL0     C51612   2.664   5.425  10.971  0.8336  1.1780  0.6161
  383MOL0     C51613   2.675   5.564  11.033  0.8785 -0.2007 -0.3411
  383MOL0     C51614   2.687   5.546  11.187 -0.6617  0.5416  0.9417
  383MOL0    Cl51615   2.640   5.696  11.279  0.2325  0.2224  0.2661
  383MOL0     C51616   2.687   5.226  10.148 -1.1547 -0.3007  1.0550
  383MOL0     C51617   2.616   5.238  10.027 -0.4387 -0.6840 -0.4377
  383MOL0     O51618   2.298   5.459   9.980  0.3402  0.1153  0.3699
  383MOL0     C51619   2.321   5.342   9.652  0.2259  0.1271 -0.6979
  383MOL0     C51620   2.310   5.392   9.519  0.0927 -0.3616  0.9068
  383MOL0     N51621   1.713   5.300   9.209 -0.0574  0.1149 -0.1207
  383MOL0     N51622   1.587   5.284   9.175  0.0452 -0.1230 -0.3933
  383MOL0     C51623   1.614   6.425   8.753  0.5369 -0.1335 -1.7071
  383MOL0     C51624   1.611   6.552   8.702  0.4826 -0.4598 -0.2288
  383MOL0     C51625   1.581   6.908   8.437  0.2882 -0.5816 -0.6199
  383MOL0     C51626   1.686   6.970   8.367  0.0023 -0.2698 -0.0446
  383MOL0     C51627   1.684   7.106   8.340 -0.3291 -0.7471 -0.1326
  383MOL0     C51628   1.568   7.179   8.357 -1.3278  0.0493 -0.5965
  383MOL0     O51629   1.539   7.310   8.334 -0.0423 -0.2895 -0.4946
  383MOL0     C51630   1.640   7.412   8.365  0.5818  0.8542 -0.5211
  383MOL0     C51631   1.644   7.421   8.522 -0.1928  0.9079 -0.1208
  383MOL0     C51632   1.753   7.524   8.570  1.0129  0.0182 -0.4272
  383MOL0     C51633   1.734   7.561   8.727  0.0789 -0.1586 -0.4588
  383MOL0     C51634   1.857   7.621   8.778 -0.1415 -0.2713  0.2487
  383MOL0     C51635   1.948   7.680   8.825  0.1245 -0.8994  0.6618
  383MOL0     C51636   1.469   7.124   8.420 -0.6962  0.1320  0.0638
  383MOL0     C51637   1.470   6.991   8.465  0.3567  0.0889 -0.6819
  383MOL0     H51638   1.349   6.512   8.493 -0.1461 -0.2895  0.4826
  383MOL0     H51639   1.367   6.278   8.578  0.2160  0.3179  0.6454
  383MOL0     H51640   1.476   6.063   8.626 -1.8080 -0.8286  3.9682
  383MOL0     H51641   1.642   6.139   8.590 -0.3406 -0.2411  0.3495
  383MOL0     H51642   1.697   5.934   8.665  2.1668  2.9430 -1.0508
  383MOL0     H51643   1.687   6.011   8.823  1.3838 -1.7086 -1.5007
  383MOL0     H51644   1.455   5.928   8.860  0.0404 -1.5412  0.1388
  383MOL0     H51645   1.462   5.845   8.699  3.1292  0.5151 -2.9764
  383MOL0     H51646   1.665   5.723   8.782  5.0539  4.0622  1.6738
  383MOL0     H51647   1.646   5.787   8.940  1.1278  3.2861 -1.5127
  383MOL0     H51648   1.394   5.673   8.807  1.9111  0.5787 -2.1766
  383MOL0     H51649   1.524   5.547   8.803 -2.7345 -1.5372 -0.6773
  383MOL0     H51650   1.568   5.599   9.045  1.8204 -3.1900 -5.2643
  383MOL0     H51651   1.418   5.705   9.026  0.8975  1.3711 -0.3936
  383MOL0     H51652   1.336   5.485   9.102 -1.3473  0.7166 -1.1559
  383MOL0     H51653   1.296   5.507   8.933 -0.3607 -1.2614  0.2478
  383MOL0     H51654   1.449   5.331   8.880  0.0742  0.4158 -0.3151
  383MOL0     H51655   1.368   5.271   9.030  1.0109 -1.5795  1.4236
  383MOL0     H51656   1.714   5.406   8.903  1.1463 -0.6387 -0.1222
  383MOL0     H51657   1.967   5.327   9.181  2.7313  0.6723 -1.0711
  383MOL0     H51658   1.969   5.363   9.009 -1.9880  0.1491 -0.7897
  383MOL0     H51659   1.866   5.563   9.211  0.2865  1.1645 -1.1112
  383MOL0     H51660   1.920   5.603   9.044  2.1702  2.9960  1.2116
  383MOL0     H51661   2.101   5.681   9.185  1.4477 -0.3726  0.4437
  383MOL0     H51662   2.149   5.538   9.114 -1.3747  2.0665 -1.8595
  383MOL0     H51663   2.125   5.397   9.308  0.7238 -0.2752 -0.4805
  383MOL0     H51664   2.058   5.541   9.400 -2.4108 -1.8905 -0.7169
  383MOL0     H51665   2.241   5.710   9.577 -1.0381 -0.4079  1.3432
  383MOL0     H51666   2.344   5.784   9.770  0.1762  0.5886  2.2939
  383MOL0     H51667   2.235   5.715   9.878 -1.4055 -1.4958 -1.3849
  383MOL0     H51668   2.414   5.676   9.889  0.8588 -1.5238 -1.6112
  383MOL0     H51669   2.307   5.269  10.157 -0.6230 -2.5676  2.6218
  383MOL0     H51670   2.432   5.223  10.365 -2.4712 -0.3253 -1.2583
  383MOL0     H51671   2.891   5.253  10.338  0.6755 -0.9136  1.0822
  383MOL0     H51672   2.805   5.405  10.316  0.4241  0.3247  1.1051
  383MOL0     H51673   2.857   5.259  10.582  0.2283 -2.4277 -1.8517
  383MOL0     H51674   2.951   5.395  10.528  0.1271  0.1482  1.7924
  383MOL0     H51675   2.653   5.416  10.578 -0.8278  0.1267  2.4204
  383MOL0     H51676   2.769   5.552  10.562 -0.5086  0.8665  2.5532
  383MOL0     H51677   2.863   5.396  10.773  0.5898 -0.2011  1.4993
  383MOL0     H51678   2.808   5.553  10.779  1.5900 -1.3269 -0.0506
  383MOL0     H51679   2.629   5.308  10.797 -2.0726  1.3898 -3.9193
  383MOL0     H51680   2.579   5.489  10.793 -0.1594  1.9866  1.8589
  383MOL0     H51681   2.576   5.375  11.013  0.7457  0.7813 -0.0391
  383MOL0     H51682   2.749   5.365  11.007 -1.1063 -1.4666  1.1265
  383MOL0     H51683   2.581   5.614  11.008  1.7871  1.5968 -0.3050
  383MOL0     H51684   2.751   5.624  10.983 -1.8324  2.9659 -0.9873
  383MOL0     H51685   2.781   5.499  11.216  0.2460  0.3630 -1.9717
  383MOL0     H51686   2.613   5.477  11.228  0.0102 -1.6648 -1.2793
  383MOL0     H51687   2.795   5.228  10.140 -1.1319  0.6491  1.4821
  383MOL0     H51688   2.665   5.258   9.932 -0.1323  0.7203 -0.0018
  383MOL0     H51689   2.342   5.237   9.670 -0.9149 -0.7546 -3.8123
  383MOL0     H51690   2.302   5.313   9.445 -3.6216 -1.4851  2.3040
  383MOL0     H51691   1.696   6.390   8.814 -0.7501 -1.6557 -0.7592
  383MOL0     H51692   1.675   6.625   8.751 -0.3898  0.5785 -0.5827
  383MOL0     H51693   1.771   6.905   8.346  0.9203 -0.4124  3.4443
  383MOL0     H51694   1.771   7.159   8.301 -2.4468  2.3072 -1.0398
  383MOL0     H51695   1.739   7.380   8.330  1.1874  1.7325  0.3218
  383MOL0     H51696   1.607   7.508   8.324 -2.8777  0.5929  1.2661
  383MOL0     H51697   1.663   7.318   8.550 -1.5434  0.3568 -1.1121
  383MOL0     H51698   1.551   7.451   8.572  0.6997  1.1200  1.4888
  383MOL0     H51699   1.737   7.612   8.506 -3.9412 -0.0873  0.2476
  383MOL0     H51700   1.853   7.499   8.534  2.3471 -0.2489  3.1475
  383MOL0     H51701   1.710   7.473   8.788  0.2284  0.9529  1.2535
  383MOL0     H51702   1.648   7.628   8.735  1.3227  1.4365  0.1121
  383MOL0     H51703   2.034   7.738   8.851 -0.0341  0.2455 -1.1496
  383MOL0     H51704   1.388   7.194   8.439 -1.9416 -1.1332 -0.3813
  383MOL0     H51705   1.388   6.966   8.530  1.5291  0.9448  1.2023
  384MOL0     O51706   1.737   7.685   1.133 -0.4784  0.4126 -0.0985
  384MOL0     C51707   1.710   7.599   1.221 -0.3068 -0.4615 -0.1186
  384MOL0     O51708   1.581   7.575   1.260  0.5215  0.5497  0.2280
  384MOL0     C51709   1.472   7.631   1.193  0.0663 -0.2436 -1.3719
  384MOL0     C51710   1.382   7.698   1.276 -0.4607  0.5055 -1.5815
  384MOL0     C51711   1.269   7.767   1.213 -0.3348 -0.1804 -0.2899
  384MOL0     C51712   1.242   7.756   1.085  0.1368  0.0124  1.1337
  384MOL0     O51713   1.122   7.814   1.052 -0.7067 -0.2406  0.5100
  384MOL0     C51714   1.100   7.860   0.918 -1.1843  0.6902  0.6270
  384MOL0     C51715   0.959   7.907   0.919  0.3891 -0.7539  0.3500
  384MOL0     C51716   0.908   7.959   0.785 -0.8322  0.1369 -0.0359
  384MOL0     C51717   0.867   7.840   0.684 -0.1496  0.0631  0.1607
  384MOL0     C51718   0.852   7.880   0.541 -0.0504 -0.1173 -0.7236
  384MOL0     C51719   0.748   7.795   0.464 -0.3909 -1.6272  0.1550
  384MOL0     C51720   0.733   7.865   0.324 -0.8086  0.1928  0.3242
  384MOL0     C51721   0.635   7.796   0.227  0.3438  0.4550 -0.8750
  384MOL0     N51722   0.496   7.793   0.279  0.0722 -0.6385  0.4128
  384MOL0     C51723   0.405   7.901   0.273 -0.2749  0.7883 -0.3707
  384MOL0     C51724   0.285   7.849   0.291  0.3884 -0.3192  0.3580
  384MOL0     C51725   0.157   7.925   0.265 -0.8963 -0.2950  0.3947
  384MOL0     C51726   0.141   7.937   0.115 -0.0523 -0.1163 -0.1406
  384MOL0     C51727   0.055   8.058   0.094 -0.7664 -0.3498 -1.4472
  384MOL0     C51728  -0.006   8.052  -0.041 -0.7846  0.5093  0.3986
  384MOL0     O51729   0.092   8.043  -0.144  0.5062  0.3731 -0.1945
  384MOL0     C51730   0.066   8.021  -0.278 -0.0771 -0.1802 -0.0493
  384MOL0     C51731   0.162   7.971  -0.357 -0.0930 -0.9645 -0.2851
  384MOL0     C51732   0.142   7.961  -0.501 -0.2246  0.0278 -0.0238
  384MOL0     C51733   0.269   7.941  -0.582  0.7358 -0.1783 -0.4050
  384MOL0     C51734   0.013   7.978  -0.555 -0.0231 -0.3560  0.1190
  384MOL0     C51735  -0.016   7.965  -0.702 -1.3032 -0.6094 -0.1301
  384MOL0     O51736  -0.101   7.873  -0.744 -0.1935 -0.0126 -0.3772
  384MOL0     C51737  -0.160   7.894  -0.862  0.7588 -0.2767  0.4818
  384MOL0     C51738  -0.192   7.784  -0.945  0.4375  0.0276  0.0110
  384MOL0     C51739  -0.261   7.800  -1.061  0.2685 -0.5446  0.5370
  384MOL0     C51740  -0.311   7.926  -1.106  0.5577  1.2783  0.7417
  384MOL0     O51741  -0.370   7.923  -1.225  0.4485  0.1844  0.1747
  384MOL0     C51742  -0.464   8.030  -1.243 -0.2621  0.7692  0.1997
  384MOL0     C51743  -0.544   8.009  -1.369  0.2389  1.0904 -0.5124
  384MOL0     C51744  -0.649   8.118  -1.395  0.2424  1.0707  0.3943
  384MOL0     C51745  -0.709   8.101  -1.534 -0.1897 -0.5678  1.1422
  384MOL0     C51746  -0.825   8.210  -1.572  0.8724  0.1266  0.3110
  384MOL0     C51747  -0.782   8.357  -1.562  0.5144 -0.2249  0.2897
  384MOL0     C51748  -0.902   8.454  -1.580  0.5165 -0.2358  0.6724
  384MOL0     C51749  -0.975   8.434  -1.712 -0.7353 -0.2325  0.2331
  384MOL0    Cl51750  -0.863   8.450  -1.841 -0.3097 -0.1862  0.0624
  384MOL0     C51751  -0.291   8.034  -1.021 -0.5070 -0.4168  0.0928
  384MOL0     C51752  -0.210   8.021  -0.903  0.4225 -0.1002 -0.0865
  384MOL0     O51753   0.067   8.025  -0.775 -0.0979 -0.2644 -0.2974
  384MOL0     C51754  -0.090   8.014  -0.470 -0.5036  0.0261 -0.8358
  384MOL0     C51755  -0.063   8.037  -0.334  0.3004  0.3101 -0.0751
  384MOL0     N51756   0.307   7.714   0.317 -0.1018  0.2714  0.7834
  384MOL0     N51757   0.425   7.679   0.309  0.8245  0.9316  0.3082
  384MOL0     C51758   1.333   7.691   1.000 -0.5343 -0.1774 -0.0064
  384MOL0     C51759   1.449   7.631   1.051  0.2768  0.9520 -0.2695
  384MOL0     C51760   1.823   7.543   1.295 -0.7340  0.0648 -1.0130
  384MOL0     C51761   1.964   7.559   1.258  0.1219  0.2818  0.2294
  384MOL0     C51762   2.070   7.496   1.321  0.5769  1.8013  0.3120
  384MOL0     C51763   2.046   7.413   1.433 -1.1881  0.3062 -1.0904
  384MOL0     O51764   2.152   7.348   1.505  0.2847  0.0146  0.4612
  384MOL0     C51765   2.149   7.253   1.608 -0.3550 -0.0364  0.2777
  384MOL0     C51766   2.297   7.209   1.628  0.9779  0.7640 -0.5885
  384MOL0     C51767   2.316   7.126   1.757 -0.4842 -0.1006  0.9299
  384MOL0     C51768   2.459   7.071   1.777  0.4799 -0.6096 -0.1185
  384MOL0     C51769   2.565   7.175   1.736  0.8227 -0.3216 -0.5456
  384MOL0     C51770   2.656   7.259   1.718 -0.4765 -0.1811  0.1165
  384MOL0     C51771   1.914   7.394   1.472  0.1310 -0.7846  0.6152
  384MOL0     C51772   1.803   7.461   1.403 -0.7393  0.3096  0.1692
  384MOL0     H51773   1.395   7.708   1.384  2.5884  0.8655 -1.9016
  384MOL0     H51774   1.195   7.816   1.275 -1.4576  0.2005 -1.8830
  384MOL0     H51775   1.168   7.943   0.894  1.0952 -1.4054 -0.5720
  384MOL0     H51776   1.109   7.779   0.845  3.0296  1.1815  0.3450
  384MOL0     H51777   0.898   7.825   0.958 -3.2263  0.3330 -2.4661
  384MOL0     H51778   0.947   7.991   0.988  0.4013  1.0465 -1.6947
  384MOL0     H51779   0.839   8.042   0.803  1.8137  2.2654  1.1919
  384MOL0     H51780   0.987   8.014   0.733  1.3154 -1.9229  0.8729
  384MOL0     H51781   0.943   7.763   0.693 -2.1018 -2.0283 -0.3141
  384MOL0     H51782   0.771   7.796   0.713 -1.3780  0.9776 -2.2189
  384MOL0     H51783   0.818   7.984   0.547 -0.3011 -0.1812 -0.9944
  384MOL0     H51784   0.943   7.893   0.483  0.2379  0.2750 -0.1919
  384MOL0     H51785   0.793   7.695   0.462  3.4408 -0.1077  1.3373
  384MOL0     H51786   0.646   7.803   0.502 -0.4690 -0.2961 -0.2958
  384MOL0     H51787   0.702   7.969   0.331 -0.5308  0.3547 -0.7094
  384MOL0     H51788   0.832   7.855   0.278 -2.3251 -0.5230 -3.1007
  384MOL0     H51789   0.677   7.695   0.217 -1.7450 -0.6276  0.6411
  384MOL0     H51790   0.624   7.832   0.125 -2.3949 -1.7946 -1.4630
  384MOL0     H51791   0.418   8.007   0.254  0.9059  1.0946  1.8234
  384MOL0     H51792   0.076   7.877   0.321  0.9092 -1.9002  1.7688
  384MOL0     H51793   0.169   8.019   0.320 -2.8260  0.8310 -1.0083
  384MOL0     H51794   0.111   7.843   0.069  1.3051 -0.8873  0.4817
  384MOL0     H51795   0.228   7.958   0.052  0.1603  0.8976  0.4501
  384MOL0     H51796   0.120   8.146   0.093 -1.6258  0.3122 -1.3809
  384MOL0     H51797  -0.008   8.069   0.183 -1.0074 -0.6084 -1.5820
  384MOL0     H51798  -0.080   8.128  -0.069 -1.0310  0.6827  1.4721
  384MOL0     H51799  -0.057   7.957  -0.061  0.7143 -0.3216  0.4338
  384MOL0     H51800   0.261   7.962  -0.314  0.0606 -1.0389 -0.6457
  384MOL0     H51801   0.350   7.914  -0.513  0.0952 -0.1937  0.3559
  384MOL0     H51802   0.253   7.857  -0.650 -1.4864  1.4785 -2.0636
  384MOL0     H51803   0.283   8.032  -0.640 -0.9049  0.3532 -0.0215
  384MOL0     H51804  -0.162   7.685  -0.910  1.2569  0.5354  0.7829
  384MOL0     H51805  -0.279   7.715  -1.126  0.5324 -0.3026  0.1385
  384MOL0     H51806  -0.538   8.047  -1.164  1.0994  0.4998  1.5810
  384MOL0     H51807  -0.401   8.120  -1.246 -0.8087  1.2558  2.1782
  384MOL0     H51808  -0.478   7.990  -1.454 -0.7727 -3.3280 -0.5740
  384MOL0     H51809  -0.600   7.917  -1.350  1.4959  0.2591 -0.7406
  384MOL0     H51810  -0.619   8.222  -1.378  0.5874  1.6249 -2.9617
  384MOL0     H51811  -0.735   8.092  -1.333 -2.7582  0.1514 -3.7103
  384MOL0     H51812  -0.632   8.103  -1.612 -1.4118  0.5153 -0.0965
  384MOL0     H51813  -0.754   8.001  -1.541  1.9685 -1.6973  2.4490
  384MOL0     H51814  -0.906   8.200  -1.499  1.2209  4.4530  1.6154
  384MOL0     H51815  -0.874   8.189  -1.667 -0.7745  1.4437  0.8132
  384MOL0     H51816  -0.750   8.377  -1.460 -0.0684  4.9095 -0.2679
  384MOL0     H51817  -0.698   8.386  -1.626  1.3896 -2.1284  0.4987
  384MOL0     H51818  -0.850   8.550  -1.573 -2.7139  1.9784 -2.1384
  384MOL0     H51819  -0.964   8.451  -1.489  3.0689 -0.9730  2.4978
  384MOL0     H51820  -1.052   8.510  -1.726  0.0572  0.4160 -0.6773
  384MOL0     H51821  -1.032   8.340  -1.716 -0.9514 -0.1055  0.2940
  384MOL0     H51822  -0.324   8.133  -1.049  2.8002  0.5316 -0.8340
  384MOL0     H51823  -0.191   8.100  -0.831 -1.1221 -0.0269  0.2725
  384MOL0     H51824  -0.191   8.021  -0.508 -0.3046  2.5324 -1.1082
  384MOL0     H51825  -0.146   8.060  -0.268 -1.9622 -0.3455 -2.5525
  384MOL0     H51826   1.315   7.697   0.893 -1.0044  1.5795  0.1335
  384MOL0     H51827   1.517   7.589   0.979  0.1732  0.6769 -0.2109
  384MOL0     H51828   1.986   7.623   1.173 -0.1395 -0.0305 -0.0758
  384MOL0     H51829   2.174   7.504   1.290  1.6702 -1.7269  2.4500
  384MOL0     H51830   2.111   7.313   1.690 -1.6576  0.0179 -0.3474
  384MOL0     H51831   2.083   7.168   1.589  0.2181 -0.0898 -1.7977
  384MOL0     H51832   2.360   7.298   1.641  1.7095  0.0317  1.0797
  384MOL0     H51833   2.326   7.139   1.549  0.9785  0.3903 -0.2597
  384MOL0     H51834   2.249   7.039   1.757  0.1177 -0.5696  0.1258
  384MOL0     H51835   2.306   7.189   1.846  1.8132  1.7701 -0.0134
  384MOL0     H51836   2.448   6.989   1.706 -0.6669  0.3279 -1.0601
  384MOL0     H51837   2.479   7.038   1.880  0.3222  1.5363  0.6497
  384MOL0     H51838   2.731   7.336   1.714  1.0953 -1.6935 -1.5090
  384MOL0     H51839   1.882   7.344   1.563 -0.8867  2.9365  2.4918
  384MOL0     H51840   1.709   7.433   1.450 -0.5803 -4.4024 -1.7089
  385MOL0     O51841   2.979   8.713   4.126  0.4483 -0.2702 -0.0905
  385MOL0     C51842   3.004   8.649   4.025  0.4812  0.2947 -0.3711
  385MOL0     O51843   3.069   8.680   3.916 -1.2341 -0.6106  0.0779
  385MOL0     C51844   3.126   8.808   3.929  0.0422 -0.2326  0.7565
  385MOL0     C51845   3.060   8.921   3.870 -0.1668 -0.2255  0.4582
  385MOL0     C51846   3.102   9.050   3.891  0.9085 -0.3778 -0.0479
  385MOL0     C51847   3.214   9.072   3.975 -1.2162 -0.3654  0.3355
  385MOL0     O51848   3.267   9.197   4.002  0.1472 -0.5060  0.0612
  385MOL0     C51849   3.243   9.311   3.918  0.3889  0.4515 -1.3975
  385MOL0     C51850   3.307   9.308   3.776  0.6518  0.8545  0.6986
  385MOL0     C51851   3.272   9.425   3.672  0.9628  0.2117 -0.6435
  385MOL0     C51852   3.325   9.560   3.711  1.1745  0.3271 -0.0295
  385MOL0     C51853   3.468   9.555   3.759  0.3679  0.4759  0.0226
  385MOL0     C51854   3.530   9.689   3.781 -0.3581  0.5364 -0.9070
  385MOL0     C51855   3.648   9.683   3.885 -0.2443 -1.1844  0.8266
  385MOL0     C51856   3.767   9.587   3.855 -0.2429 -0.6801  0.7246
  385MOL0     N51857   3.833   9.604   3.716 -1.1448  0.6278  0.2038
  385MOL0     C51858   3.828   9.514   3.607 -0.1860  0.0454  0.0511
  385MOL0     C51859   3.925   9.567   3.520 -0.5666  0.7117 -1.1608
  385MOL0     C51860   3.979   9.512   3.395 -0.6036  0.5044  0.6582
  385MOL0     C51861   3.945   9.367   3.381 -0.2423  0.1931  0.4421
  385MOL0     C51862   3.990   9.306   3.238  0.0818 -0.3500  0.5616
  385MOL0     C51863   3.977   9.157   3.233  0.1038 -0.9955  0.7675
  385MOL0     O51864   3.833   9.127   3.227 -0.3702 -0.1916 -0.1621
  385MOL0     C51865   3.793   9.004   3.184 -1.1349  0.2998 -0.1797
  385MOL0     C51866   3.666   8.980   3.147 -0.2663  0.2513  0.4905
  385MOL0     C51867   3.618   8.865   3.094 -0.0428  0.3830 -0.5575
  385MOL0     C51868   3.468   8.863   3.082 -0.5277 -0.3928 -0.1363
  385MOL0     C51869   3.705   8.759   3.073 -0.0568 -0.5411 -0.2230
  385MOL0     C51870   3.665   8.624   3.028 -0.7595  0.1437  1.0852
  385MOL0     O51871   3.766   8.536   2.985  0.2392  0.5439 -0.2214
  385MOL0     C51872   3.717   8.418   2.927  0.1514  0.6149 -0.3104
  385MOL0     C51873   3.636   8.399   2.812 -0.7522 -0.7954 -0.2672
  385MOL0     C51874   3.593   8.275   2.769 -0.5634 -0.2757  0.8141
  385MOL0     C51875   3.664   8.168   2.823  1.7346  1.3713 -0.5044
  385MOL0     O51876   3.637   8.037   2.780  0.2508 -0.8440  0.2515
  385MOL0     C51877   3.690   8.002   2.651 -0.7538 -1.1906 -0.1696
  385MOL0     C51878   3.630   7.869   2.617  0.2324 -0.6758  0.0863
  385MOL0     C51879   3.712   7.767   2.697  1.1232  0.6003 -0.8847
  385MOL0     C51880   3.679   7.631   2.650  0.1082 -0.3693  0.5130
  385MOL0     C51881   3.779   7.526   2.691 -0.3555 -0.3034  0.2369
  385MOL0     C51882   3.743   7.384   2.619  0.3924 -0.2222  0.1049
  385MOL0     C51883   3.807   7.269   2.693  0.9594  0.8592  0.0215
  385MOL0     C51884   3.738   7.216   2.830  0.1298 -0.3841 -0.1601
  385MOL0    Cl51885   3.565   7.191   2.819  0.0540 -0.2619  0.5991
  385MOL0     C51886   3.754   8.179   2.934 -0.1404  0.3723 -0.1391
  385MOL0     C51887   3.768   8.313   2.988 -0.2062  0.0020 -0.8413
  385MOL0     O51888   3.547   8.594   3.039  0.5902 -0.4393  0.0279
  385MOL0     C51889   3.847   8.791   3.094  0.2228  0.0844  1.0130
  385MOL0     C51890   3.887   8.908   3.157  0.0204 -0.3412 -0.0543
  385MOL0     N51891   3.972   9.687   3.556 -0.8515 -0.0327  0.4910
  385MOL0     N51892   3.918   9.705   3.675  0.2251 -0.2505 -0.1301
  385MOL0     C51893   3.280   8.959   4.034  0.2487 -0.3863 -0.1659
  385MOL0     C51894   3.241   8.824   3.998 -0.3805 -0.0247 -0.4503
  385MOL0     C51895   2.940   8.510   4.015 -0.8187  0.1747 -0.4094
  385MOL0     C51896   2.859   8.454   4.110 -0.0839 -0.2617 -0.2814
  385MOL0     C51897   2.811   8.319   4.108  0.8959 -1.4118 -0.2365
  385MOL0     C51898   2.849   8.245   3.998  0.4727  0.0631 -0.1632
  385MOL0     O51899   2.801   8.119   3.984  0.6625 -1.1482 -0.0218
  385MOL0     C51900   2.883   8.014   3.973  0.2913  0.3766 -0.0953
  385MOL0     C51901   2.874   7.957   3.834 -0.1598 -0.0633 -1.1605
  385MOL0     C51902   2.764   8.005   3.733  0.4107 -0.3786 -0.0697
  385MOL0     C51903   2.770   7.936   3.604  1.0233 -0.6909 -0.6643
  385MOL0     C51904   2.882   7.986   3.515  0.6865  0.6744 -0.5692
  385MOL0     C51905   2.966   8.031   3.443 -0.1901 -1.6888 -0.4759
  385MOL0     C51906   2.924   8.297   3.892 -0.2008 -0.8159 -0.7686
  385MOL0     C51907   2.958   8.432   3.900 -0.1397  0.1604 -0.0382
  385MOL0     H51908   2.967   8.908   3.815 -1.6218  1.0213  2.4749
  385MOL0     H51909   3.044   9.127   3.841  1.8418 -0.3787 -1.1684
  385MOL0     H51910   3.135   9.318   3.902  0.2992 -0.5599 -1.2743
  385MOL0     H51911   3.260   9.404   3.973  2.2464 -0.0899 -1.0023
  385MOL0     H51912   3.411   9.277   3.790 -0.2048 -1.2081  3.4469
  385MOL0     H51913   3.274   9.214   3.730  0.3167  0.6079  1.4321
  385MOL0     H51914   3.313   9.402   3.574 -0.2780  1.2015 -1.4346
  385MOL0     H51915   3.164   9.434   3.654  1.2910  1.5106 -2.1005
  385MOL0     H51916   3.316   9.619   3.619  0.8275  1.6201  0.8097
  385MOL0     H51917   3.271   9.603   3.796  0.3463  0.1624 -0.4663
  385MOL0     H51918   3.460   9.506   3.856 -0.2963  0.4577 -0.0380
  385MOL0     H51919   3.538   9.496   3.699  0.3520 -2.9822  3.0791
  385MOL0     H51920   3.561   9.732   3.685 -1.0914  0.8467 -1.0127
  385MOL0     H51921   3.455   9.762   3.814 -0.6265  0.6173 -1.6707
  385MOL0     H51922   3.693   9.783   3.885  1.6109 -1.9821  0.2206
  385MOL0     H51923   3.599   9.650   3.977 -0.2765 -0.7163  0.9831
  385MOL0     H51924   3.740   9.482   3.863 -0.0873 -0.7961 -0.0949
  385MOL0     H51925   3.835   9.606   3.938 -0.8498 -1.9170  1.5313
  385MOL0     H51926   3.787   9.414   3.613  1.5537 -0.5721  4.0260
  385MOL0     H51927   3.935   9.557   3.306  0.4626 -2.0755 -1.2815
  385MOL0     H51928   4.088   9.514   3.396 -0.5282 -1.5418  0.5409
  385MOL0     H51929   3.837   9.352   3.392 -0.2078  0.5205  1.2947
  385MOL0     H51930   3.996   9.313   3.461 -1.1523  1.6056  2.0440
  385MOL0     H51931   4.094   9.338   3.228  0.3645 -1.1846  0.7254
  385MOL0     H51932   3.931   9.343   3.154  0.9251  2.8533  1.2590
  385MOL0     H51933   4.022   9.116   3.324 -1.7022  0.3950  2.3737
  385MOL0     H51934   4.032   9.139   3.140 -2.5978  3.0229 -1.9429
  385MOL0     H51935   3.599   9.061   3.173 -1.0894 -0.6864  1.3745
  385MOL0     H51936   3.428   8.801   3.163 -1.6359  5.0038  4.0477
  385MOL0     H51937   3.430   8.963   3.101  4.7290  1.9635 -0.5254
  385MOL0     H51938   3.440   8.831   2.980 -1.2413 -0.7990  0.1754
  385MOL0     H51939   3.617   8.488   2.753 -0.1986 -1.8717 -2.1591
  385MOL0     H51940   3.537   8.278   2.676  0.2909  3.5689  0.2576
  385MOL0     H51941   3.659   8.085   2.586 -2.8819  0.3869  2.6263
  385MOL0     H51942   3.798   8.012   2.659 -0.9312 -0.4745  2.2465
  385MOL0     H51943   3.527   7.859   2.651  0.5210 -4.0199  0.2638
  385MOL0     H51944   3.626   7.843   2.511 -1.4364  0.8760 -0.2675
  385MOL0     H51945   3.679   7.772   2.802 -2.6542 -1.2853 -1.7943
  385MOL0     H51946   3.819   7.784   2.689  1.3129 -0.0361  0.0930
  385MOL0     H51947   3.583   7.597   2.691  0.5645 -0.8442  1.2291
  385MOL0     H51948   3.669   7.628   2.541 -0.8178 -1.3449  0.6080
  385MOL0     H51949   3.757   7.508   2.797  2.4181 -0.7146  0.8108
  385MOL0     H51950   3.879   7.567   2.673 -0.6591  0.2916 -0.1436
  385MOL0     H51951   3.635   7.369   2.624  0.0229  1.8591 -0.4786
  385MOL0     H51952   3.776   7.390   2.515  0.0286 -1.4355 -0.0949
  385MOL0     H51953   3.911   7.287   2.722  0.8312  2.1010 -0.2137
  385MOL0     H51954   3.795   7.188   2.620  2.6672 -0.1978  0.8645
  385MOL0     H51955   3.757   7.301   2.896  1.1135 -0.1126 -0.7720
  385MOL0     H51956   3.778   7.124   2.874 -1.1658 -0.6137  0.5937
  385MOL0     H51957   3.807   8.087   2.957  0.3039  0.0989 -2.0579
  385MOL0     H51958   3.833   8.327   3.074 -0.4584 -1.6728 -0.3432
  385MOL0     H51959   3.917   8.709   3.084  1.7964  1.1249  2.6733
  385MOL0     H51960   3.993   8.908   3.181  0.4601 -2.1281 -1.7141
  385MOL0     H51961   3.358   8.976   4.109 -0.2110  0.0237  0.2253
  385MOL0     H51962   3.293   8.751   4.060 -0.1192  1.2774  0.9225
  385MOL0     H51963   2.829   8.520   4.191 -0.7563  0.9912 -1.4911
  385MOL0     H51964   2.738   8.287   4.182 -0.8031  2.4714  0.0288
  385MOL0     H51965   2.987   8.041   3.995  0.5603 -0.2609 -0.5619
  385MOL0     H51966   2.863   7.940   4.051  0.5263  0.6776  0.2606
  385MOL0     H51967   2.863   7.849   3.846  1.6249  0.0480  2.9227
  385MOL0     H51968   2.974   7.968   3.790  1.2198 -2.9519  0.9479
  385MOL0     H51969   2.763   8.113   3.721  3.3595 -0.3833 -1.0319
  385MOL0     H51970   2.669   7.975   3.780 -1.5567  6.1683  1.0737
  385MOL0     H51971   2.671   7.948   3.560  0.6632 -0.5667  0.1602
  385MOL0     H51972   2.779   7.828   3.618  0.5471 -0.5213  1.2533
  385MOL0     H51973   3.045   8.083   3.391 -0.4635  0.7417  1.3949
  385MOL0     H51974   2.954   8.240   3.805  0.8682 -1.6377  0.1112
  385MOL0     H51975   3.029   8.468   3.826  3.8834 -2.0324  2.4087
  386MOL0     O51976  10.474   6.297   2.380 -0.1598 -0.2696 -0.2641
  386MOL0     C51977  10.525   6.211   2.309 -0.0995  0.0023  0.2692
  386MOL0     O51978  10.503   6.074   2.325  0.1498  0.1370  0.3627
  386MOL0     C51979  10.404   6.011   2.402 -0.1143  0.2157  0.7237
  386MOL0     C51980  10.378   5.888   2.343 -0.3253  0.0011  0.2956
  386MOL0     C51981  10.278   5.808   2.398  0.4089  0.0850  0.4701
  386MOL0     C51982  10.216   5.856   2.516  0.6127  0.9032  0.2359
  386MOL0     O51983  10.132   5.771   2.582  0.9293  0.3454  0.0972
  386MOL0     C51984  10.180   5.705   2.702 -0.3426  0.2440 -0.2468
  386MOL0     C51985  10.209   5.555   2.686  0.7631  0.4252 -0.4942
  386MOL0     C51986  10.192   5.479   2.828 -0.8021 -0.0364  0.7274
  386MOL0     C51987  10.285   5.541   2.930 -0.2231 -0.5509  0.9631
  386MOL0     C51988  10.239   5.505   3.072 -0.6078  0.9832 -0.7296
  386MOL0     C51989  10.243   5.348   3.096 -0.3146 -0.1506 -0.2964
  386MOL0     C51990  10.172   5.311   3.223  0.2793  0.1266 -0.7178
  386MOL0     C51991  10.222   5.377   3.352  0.1362 -0.4687 -0.0423
  386MOL0     N51992  10.319   5.290   3.421  0.4631 -0.2240 -0.5764
  386MOL0     C51993  10.369   5.312   3.547  0.3056  0.2041 -1.0695
  386MOL0     C51994  10.485   5.236   3.553 -0.3381  0.4466 -0.1634
  386MOL0     C51995  10.597   5.276   3.639  0.4330 -0.3425 -0.1204
  386MOL0     C51996  10.622   5.173   3.747 -0.6554  0.3868 -0.0055
  386MOL0     C51997  10.686   5.045   3.704  0.2848  0.5535  0.2340
  386MOL0     C51998  10.840   5.035   3.713 -0.6293 -0.4402 -0.8027
  386MOL0     O51999  10.904   5.144   3.641  0.3124 -0.5956  0.2976
  386MOL0     C52000  11.041   5.149   3.632  0.9288  0.2417  0.0132
  386MOL0     C52001  11.104   5.265   3.595 -0.0474 -1.4283  0.1154
  386MOL0     C52002  11.239   5.278   3.568  0.4431 -0.8686  1.0181
  386MOL0     C52003  11.269   5.416   3.505  0.5606 -0.2431  0.4235
  386MOL0     C52004  11.323   5.170   3.599 -1.2424  0.1261  0.1291
  386MOL0     C52005  11.477   5.166   3.568 -0.0519 -0.3729 -0.5186
  386MOL0     O52006  11.553   5.055   3.614  0.2233 -0.9970 -0.2170
  386MOL0     C52007  11.676   5.036   3.570  0.1277  0.2304  0.8149
  386MOL0     C52008  11.751   4.962   3.660 -1.0472  0.4625 -0.6875
  386MOL0     C52009  11.872   4.907   3.625 -2.0627  0.3372  0.2106
  386MOL0     C52010  11.932   4.939   3.500  0.5212  0.7468  0.9524
  386MOL0     O52011  12.058   4.889   3.480 -1.1341 -0.4882 -0.2419
  386MOL0     C52012  12.112   4.896   3.355  0.2662 -0.0609  1.4476
  386MOL0     C52013  12.228   4.797   3.346 -1.0007  0.2848  0.3405
  386MOL0     C52014  12.358   4.848   3.417  0.2419  0.1561  0.0680
  386MOL0     C52015  12.450   4.721   3.420 -0.4639 -0.2906 -0.0512
  386MOL0     C52016  12.593   4.767   3.471  0.9195 -0.3009  0.6302
  386MOL0     C52017  12.661   4.854   3.375 -0.1554 -1.0961  1.4659
  386MOL0     C52018  12.813   4.851   3.409  0.6316  1.0253 -0.6641
  386MOL0     C52019  12.889   4.953   3.329 -0.5900 -0.4586 -0.5914
  386MOL0    Cl52020  12.864   5.114   3.398 -0.7558  0.0448 -0.4524
  386MOL0     C52021  11.855   5.024   3.412  0.5925 -0.3177  0.4724
  386MOL0     C52022  11.721   5.065   3.440  0.3858 -0.1651 -0.7180
  386MOL0     O52023  11.527   5.260   3.509  0.1196  0.2414  0.4789
  386MOL0     C52024  11.264   5.052   3.647 -0.3241 -0.8218 -0.6366
  386MOL0     C52025  11.128   5.044   3.665  0.2896  0.2991  0.3639
  386MOL0     N52026  10.505   5.170   3.433  0.4534 -0.3284 -0.4858
  386MOL0     N52027  10.406   5.216   3.352 -0.3913  0.1100 -0.3994
  386MOL0     C52028  10.243   5.981   2.570 -0.6931  0.4813  0.6407
  386MOL0     C52029  10.340   6.063   2.518 -0.5244 -0.4031  0.2622
  386MOL0     C52030  10.616   6.252   2.207  0.1595 -0.2344  1.4763
  386MOL0     C52031  10.635   6.390   2.172  0.6157  0.7523 -0.4398
  386MOL0     C52032  10.731   6.431   2.081 -0.2625 -0.4507  0.0144
  386MOL0     C52033  10.821   6.341   2.026  0.5592  0.8713 -0.4521
  386MOL0     O52034  10.900   6.372   1.913  0.2963 -0.8344 -0.3500
  386MOL0     C52035  11.042   6.366   1.916  0.6132 -0.3406  0.1024
  386MOL0     C52036  11.103   6.506   1.918 -0.1823 -0.8198  0.5330
  386MOL0     C52037  11.072   6.595   2.039  0.9269 -1.1123  0.3028
  386MOL0     C52038  11.098   6.749   2.028  0.0970  0.9959 -0.1688
  386MOL0     C52039  11.234   6.777   2.004 -0.4090 -0.4999  0.4171
  386MOL0     C52040  11.353   6.792   1.981  0.3896 -0.8707  0.2312
  386MOL0     C52041  10.814   6.209   2.079 -0.4372 -0.1083  0.4300
  386MOL0     C52042  10.704   6.161   2.154 -0.4448  0.6286  0.1896
  386MOL0     H52043  10.437   5.849   2.261 -0.5041  1.9271 -0.8165
  386MOL0     H52044  10.243   5.716   2.351  1.7477 -1.2893  2.0376
  386MOL0     H52045  10.271   5.758   2.731  0.7191 -0.4570 -2.1464
  386MOL0     H52046  10.105   5.712   2.782  0.3094 -0.8834  0.4944
  386MOL0     H52047  10.139   5.510   2.616 -0.5896  0.5872  0.6959
  386MOL0     H52048  10.305   5.547   2.634 -0.2191 -1.6349 -2.1014
  386MOL0     H52049  10.086   5.487   2.855 -0.8010  0.0429  0.7068
  386MOL0     H52050  10.205   5.372   2.808 -0.4707  0.0795  0.3170
  386MOL0     H52051  10.384   5.499   2.909 -1.3280 -1.8768 -2.2229
  386MOL0     H52052  10.295   5.650   2.923 -0.7501 -0.5919 -0.8699
  386MOL0     H52053  10.299   5.548   3.153 -1.3024 -1.4950  1.2439
  386MOL0     H52054  10.138   5.546   3.076 -0.7829  0.4721  0.2257
  386MOL0     H52055  10.189   5.302   3.013 -0.7412  2.6099 -1.6886
  386MOL0     H52056  10.343   5.306   3.105 -1.1007 -1.7769  1.8988
  386MOL0     H52057  10.070   5.341   3.195  0.3256  0.3442 -0.6551
  386MOL0     H52058  10.171   5.202   3.225  0.8217  0.1189 -0.6883
  386MOL0     H52059  10.149   5.393   3.432 -0.5777  0.3153 -0.8225
  386MOL0     H52060  10.286   5.465   3.339  0.8446 -0.9244  0.2965
  386MOL0     H52061  10.335   5.386   3.619  1.6845 -0.5773  0.4198
  386MOL0     H52062  10.678   5.287   3.567 -0.3222 -3.7805 -1.7630
  386MOL0     H52063  10.584   5.369   3.695  2.7920 -0.8377  1.3763
  386MOL0     H52064  10.530   5.157   3.804 -0.2392 -1.7215  0.1582
  386MOL0     H52065  10.693   5.205   3.824 -0.7523  3.4190 -1.0764
  386MOL0     H52066  10.642   5.014   3.609  0.1809 -2.1460  1.0729
  386MOL0     H52067  10.663   4.968   3.778  1.9806 -0.5611 -0.3346
  386MOL0     H52068  10.875   4.938   3.675  1.0636  0.2534 -1.1164
  386MOL0     H52069  10.854   5.031   3.822 -1.8143  0.9234 -0.5762
  386MOL0     H52070  11.032   5.340   3.565 -0.3585 -0.3815  3.1439
  386MOL0     H52071  11.181   5.480   3.491 -1.3953 -2.7231  0.6918
  386MOL0     H52072  11.345   5.455   3.572  1.6781 -0.1178 -0.8761
  386MOL0     H52073  11.309   5.389   3.406 -0.5488 -1.5943  0.3079
  386MOL0     H52074  11.709   4.939   3.758  0.4530  3.4878  0.7787
  386MOL0     H52075  11.934   4.847   3.691 -3.0800  0.3731  1.2155
  386MOL0     H52076  12.049   4.869   3.269  1.4597  1.5276 -0.0040
  386MOL0     H52077  12.129   5.001   3.328  1.8840  0.2791  3.5517
  386MOL0     H52078  12.196   4.699   3.383 -1.4175  0.8472  1.5264
  386MOL0     H52079  12.256   4.776   3.242 -0.7574 -1.4040  0.7122
  386MOL0     H52080  12.338   4.880   3.519 -1.6878 -0.6998  0.0075
  386MOL0     H52081  12.402   4.937   3.371 -1.7930  1.9767  1.3902
  386MOL0     H52082  12.416   4.640   3.485 -1.6404 -0.9753 -1.4743
  386MOL0     H52083  12.455   4.684   3.317  0.4140  1.0789 -0.5272
  386MOL0     H52084  12.651   4.675   3.478 -1.2297 -1.6423  1.9025
  386MOL0     H52085  12.577   4.806   3.572 -2.3013  2.8077 -0.8717
  386MOL0     H52086  12.632   4.848   3.270  1.1860  2.2263  0.7817
  386MOL0     H52087  12.630   4.957   3.394  0.0001 -0.2391 -2.1205
  386MOL0     H52088  12.857   4.753   3.388  0.5296  0.6647  0.7253
  386MOL0     H52089  12.822   4.867   3.517  1.0994 -0.4995 -0.4509
  386MOL0     H52090  12.852   4.953   3.226  1.3250 -0.0098 -1.3223
  386MOL0     H52091  12.997   4.937   3.340 -0.7951 -0.1604  3.5176
  386MOL0     H52092  11.897   5.049   3.315 -1.5398 -0.4710 -0.5658
  386MOL0     H52093  11.667   5.116   3.361  0.9206  0.2091 -0.8446
  386MOL0     H52094  11.326   4.964   3.662  1.4229  0.4209 -0.2840
  386MOL0     H52095  11.092   4.944   3.689  1.7237 -0.1768  0.6374
  386MOL0     H52096  10.198   6.012   2.664 -3.2329 -0.0263 -0.3268
  386MOL0     H52097  10.345   6.166   2.553 -2.6880 -0.1608  0.0060
  386MOL0     H52098  10.574   6.465   2.220 -0.0628  0.8964 -1.4856
  386MOL0     H52099  10.736   6.536   2.052 -1.9285 -0.5107 -0.6284
  386MOL0     H52100  11.091   6.304   1.992  1.1989 -2.2765 -1.7529
  386MOL0     H52101  11.070   6.328   1.817  1.7363  4.3445 -1.6571
  386MOL0     H52102  11.082   6.564   1.828 -1.9172 -1.1030  0.7168
  386MOL0     H52103  11.211   6.492   1.911 -0.1359 -0.2844  0.1618
  386MOL0     H52104  11.120   6.562   2.132  0.4991 -0.9942  0.5712
  386MOL0     H52105  10.966   6.576   2.061  0.1787 -0.7827 -2.6612
  386MOL0     H52106  11.067   6.790   2.124  2.6390  0.7398  0.8379
  386MOL0     H52107  11.041   6.789   1.944 -1.5951  2.0372  1.4053
  386MOL0     H52108  11.459   6.806   1.983  0.1678  1.0802  1.3999
  386MOL0     H52109  10.885   6.139   2.036  0.6801  1.7278 -0.8380
  386MOL0     H52110  10.704   6.055   2.178  3.4178  0.8828  2.1331
  387MOL0     O52111   9.872   3.211   7.550  0.2497  0.2449 -0.6055
  387MOL0     C52112   9.783   3.144   7.609  0.1853  0.6770 -0.3946
  387MOL0     O52113   9.656   3.169   7.609 -0.2063  0.2313  0.0280
  387MOL0     C52114   9.603   3.279   7.549 -0.2918 -0.1398 -0.6321
  387MOL0     C52115   9.508   3.342   7.630  0.0432  0.6826  1.3573
  387MOL0     C52116   9.432   3.451   7.581 -0.4213  0.1383  0.0724
  387MOL0     C52117   9.464   3.507   7.452  0.5333 -0.0752 -0.9323
  387MOL0     O52118   9.373   3.608   7.417 -0.2597  0.0384  0.2388
  387MOL0     C52119   9.376   3.658   7.281  0.0131 -0.0196  0.3057
  387MOL0     C52120   9.429   3.793   7.265  0.8483  0.3814 -0.2146
  387MOL0     C52121   9.579   3.805   7.303  0.7420 -0.1209 -0.1481
  387MOL0     C52122   9.645   3.944   7.249 -0.1657  0.3926 -0.7468
  387MOL0     C52123   9.564   4.072   7.285 -0.7523 -0.0113  0.3345
  387MOL0     C52124   9.647   4.194   7.227  0.3036 -1.4747  0.2269
  387MOL0     C52125   9.594   4.334   7.272 -0.2326  0.8464  0.5085
  387MOL0     C52126   9.631   4.445   7.174 -0.0061 -0.6383  1.0122
  387MOL0     N52127   9.775   4.452   7.156 -0.9144  0.0214 -0.5707
  387MOL0     C52128   9.863   4.468   7.267 -0.4889 -0.2630  0.5223
  387MOL0     C52129   9.969   4.518   7.203  1.1125  0.5798 -0.0357
  387MOL0     C52130  10.090   4.566   7.272  0.1447  0.4795  0.0017
  387MOL0     C52131  10.062   4.704   7.334  0.2827  1.0082 -0.4620
  387MOL0     C52132  10.045   4.825   7.239  0.0543  0.2031 -0.0610
  387MOL0     C52133  10.161   4.877   7.152 -0.3885  0.0328 -0.3753
  387MOL0     O52134  10.286   4.898   7.227  0.5658 -0.0403 -0.3058
  387MOL0     C52135  10.293   4.996   7.325 -0.2905  0.1470  0.6961
  387MOL0     C52136  10.412   4.980   7.403 -0.3949  0.4618  0.2874
  387MOL0     C52137  10.424   5.061   7.519  0.0035  1.3448  0.2497
  387MOL0     C52138  10.528   5.022   7.615  0.4037 -0.2766 -0.4728
  387MOL0     C52139  10.327   5.149   7.556  0.4909 -1.3478  1.1465
  387MOL0     C52140  10.345   5.242   7.662  0.2001 -0.3287  0.0047
  387MOL0     O52141  10.479   5.281   7.699  0.3908  0.1543  0.4243
  387MOL0     C52142  10.489   5.370   7.804 -0.6047 -0.2223 -0.8223
  387MOL0     C52143  10.460   5.505   7.803  0.2472 -0.3509 -0.5661
  387MOL0     C52144  10.469   5.589   7.913  0.6898  0.5636  0.5139
  387MOL0     C52145  10.515   5.527   8.033  0.1743  0.9285 -1.0882
  387MOL0     O52146  10.494   5.599   8.140  0.0043 -0.3629 -0.3723
  387MOL0     C52147  10.602   5.589   8.238  0.0995 -0.0418 -0.1910
  387MOL0     C52148  10.730   5.670   8.183  1.1760  0.1734  0.1854
  387MOL0     C52149  10.836   5.713   8.293 -0.7453  0.4609  0.5490
  387MOL0     C52150  10.895   5.585   8.361  0.5683 -0.2113 -0.4891
  387MOL0     C52151  11.044   5.610   8.391  0.3645 -1.3172 -0.3044
  387MOL0     C52152  11.119   5.483   8.421 -0.2907  0.1793  0.8709
  387MOL0     C52153  11.263   5.494   8.366  0.2608  0.1877 -0.4840
  387MOL0     C52154  11.339   5.601   8.451 -0.7858 -0.3182 -0.3406
  387MOL0    Cl52155  11.480   5.676   8.367 -0.0476  0.2863  0.1156
  387MOL0     C52156  10.513   5.387   8.052  0.4636 -0.1724  0.8467
  387MOL0     C52157  10.507   5.309   7.933 -0.7222  1.0094 -0.2531
  387MOL0     O52158  10.239   5.289   7.711 -0.3664  0.7683  0.1647
  387MOL0     C52159  10.214   5.158   7.478  0.1743 -0.6894  0.0756
  387MOL0     C52160  10.193   5.081   7.364  0.2625  0.6380 -0.7334
  387MOL0     N52161   9.957   4.498   7.074  1.2635 -0.0423  0.5099
  387MOL0     N52162   9.841   4.463   7.044 -0.1318  1.1692  0.8642
  387MOL0     C52163   9.570   3.450   7.378  0.2366 -0.1480 -0.2169
  387MOL0     C52164   9.624   3.326   7.420 -0.2514 -1.1226  0.0939
  387MOL0     C52165   9.821   3.022   7.684  0.2475 -0.0596 -0.2692
  387MOL0     C52166   9.727   2.950   7.765 -0.4205  0.3061 -0.8454
  387MOL0     C52167   9.762   2.834   7.835  0.1784 -0.0563 -0.3213
  387MOL0     C52168   9.896   2.793   7.833 -1.0059 -0.3831 -0.6574
  387MOL0     O52169   9.920   2.682   7.916 -0.6957 -0.5382 -1.1278
  387MOL0     C52170  10.062   2.653   7.928 -0.3947 -1.0348  0.6217
  387MOL0     C52171  10.089   2.524   8.006  0.0283  0.2198  0.0972
  387MOL0     C52172  10.219   2.536   8.082  0.3653  0.8924 -0.1743
  387MOL0     C52173  10.225   2.446   8.213 -0.0340 -0.2514  0.3422
  387MOL0     C52174  10.358   2.465   8.273 -0.1936  0.0063 -0.1080
  387MOL0     C52175  10.471   2.468   8.319  0.3518 -0.0771 -1.2464
  387MOL0     C52176   9.987   2.866   7.759  0.8415 -0.7288 -0.1956
  387MOL0     C52177   9.949   2.978   7.689 -0.6192  0.5197  1.1425
  387MOL0     H52178   9.491   3.306   7.731  0.2858  1.8836  1.8531
  387MOL0     H52179   9.356   3.501   7.641 -0.6931 -0.6116  0.3657
  387MOL0     H52180   9.418   3.590   7.207 -0.2487 -2.1538  2.0289
  387MOL0     H52181   9.270   3.674   7.257 -0.0163  0.2634  0.6101
  387MOL0     H52182   9.416   3.832   7.164  0.7533  1.7489  0.3026
  387MOL0     H52183   9.373   3.864   7.327 -1.8661  0.8433 -2.9862
  387MOL0     H52184   9.586   3.804   7.412 -0.0971  4.1067  0.1230
  387MOL0     H52185   9.632   3.719   7.261 -1.1984 -0.3695 -2.2706
  387MOL0     H52186   9.747   3.950   7.287  0.8546 -4.8995 -1.9254
  387MOL0     H52187   9.648   3.938   7.140 -1.6688  2.3052 -0.9528
  387MOL0     H52188   9.467   4.077   7.234  0.0359 -1.5925 -1.4265
  387MOL0     H52189   9.556   4.068   7.394  0.9884 -2.3182  0.4432
  387MOL0     H52190   9.756   4.187   7.233  1.1274  2.5909 -3.8233
  387MOL0     H52191   9.618   4.200   7.121 -2.2861 -0.1983  0.9256
  387MOL0     H52192   9.485   4.328   7.280 -0.3819  1.9133 -0.4211
  387MOL0     H52193   9.632   4.353   7.373 -1.1671 -1.4009  1.3428
  387MOL0     H52194   9.586   4.541   7.202  0.0679 -0.4761  0.5793
  387MOL0     H52195   9.575   4.425   7.083 -2.5224  0.5354  2.2194
  387MOL0     H52196   9.843   4.475   7.373 -0.4775 -2.2111  0.6910
  387MOL0     H52197  10.137   4.495   7.342 -0.4678  0.8112  0.7678
  387MOL0     H52198  10.163   4.592   7.195 -2.6897  3.0576 -2.0408
  387MOL0     H52199  10.134   4.733   7.411  1.1392 -0.8725 -0.5144
  387MOL0     H52200   9.967   4.690   7.385  1.8838 -0.6581  2.3251
  387MOL0     H52201   9.997   4.906   7.293 -1.3705 -0.9410  0.4519
  387MOL0     H52202   9.965   4.794   7.170 -0.2663  3.6533 -1.4077
  387MOL0     H52203  10.130   4.973   7.110  2.5198  1.1176 -0.2774
  387MOL0     H52204  10.173   4.812   7.065 -1.5058  1.9655 -2.0768
  387MOL0     H52205  10.486   4.908   7.371  1.4934  1.4012  2.3180
  387MOL0     H52206  10.499   5.038   7.719  3.2092  2.0969  0.0425
  387MOL0     H52207  10.559   4.917   7.613  2.0556  0.1927 -0.7527
  387MOL0     H52208  10.616   5.086   7.605  0.2860  0.0159  0.3226
  387MOL0     H52209  10.438   5.556   7.710  0.8649 -0.4318 -0.7571
  387MOL0     H52210  10.462   5.697   7.924  0.0633  0.5843 -0.0051
  387MOL0     H52211  10.557   5.647   8.319  1.7026  2.3981 -0.9570
  387MOL0     H52212  10.628   5.484   8.258 -1.7979  0.0257  3.4265
  387MOL0     H52213  10.779   5.629   8.095  4.8155 -0.0139  2.1038
  387MOL0     H52214  10.684   5.766   8.156 -1.5840 -0.8394  0.9179
  387MOL0     H52215  10.799   5.790   8.362 -0.8039  1.2698 -0.3606
  387MOL0     H52216  10.926   5.756   8.247 -1.3437  2.9632  1.5580
  387MOL0     H52217  10.847   5.562   8.457  2.6828  0.6850  0.8504
  387MOL0     H52218  10.885   5.496   8.298 -1.9329  0.4222 -1.0928
  387MOL0     H52219  11.056   5.670   8.482 -1.9143  0.0452 -0.8393
  387MOL0     H52220  11.083   5.667   8.307 -4.6294 -0.6216 -2.5165
  387MOL0     H52221  11.143   5.475   8.527  0.5202 -0.3818  0.6571
  387MOL0     H52222  11.071   5.399   8.370 -1.0599  1.0583  0.1188
  387MOL0     H52223  11.242   5.527   8.264  0.8862  0.3366 -0.5726
  387MOL0     H52224  11.321   5.401   8.361 -0.4650 -0.3764  1.0402
  387MOL0     H52225  11.377   5.547   8.538 -2.6541  0.6409  1.1408
  387MOL0     H52226  11.287   5.690   8.487 -1.7120 -0.3982 -1.4167
  387MOL0     H52227  10.506   5.337   8.148 -1.8871 -1.8016 -0.0622
  387MOL0     H52228  10.508   5.201   7.948 -0.9111  0.5830 -2.8148
  387MOL0     H52229  10.133   5.226   7.501  0.9521  0.4281 -0.3823
  387MOL0     H52230  10.106   5.110   7.307  0.1513  2.7858  0.4482
  387MOL0     H52231   9.598   3.491   7.282  1.2712 -2.1404 -0.8269
  387MOL0     H52232   9.696   3.280   7.353 -1.4543 -0.2342 -1.9380
  387MOL0     H52233   9.620   2.967   7.755 -0.2014  0.5624 -3.4530
  387MOL0     H52234   9.691   2.767   7.883  1.0134 -1.0179 -0.4105
  387MOL0     H52235  10.115   2.640   7.833 -0.3074 -2.9585  0.9046
  387MOL0     H52236  10.097   2.747   7.973  0.0409  0.9196 -3.3326
  387MOL0     H52237  10.085   2.441   7.934 -0.2485 -1.0925  1.5705
  387MOL0     H52238  10.019   2.489   8.082  0.0712 -2.9867 -1.1788
  387MOL0     H52239  10.234   2.643   8.095 -0.9084  1.1204 -0.4457
  387MOL0     H52240  10.303   2.515   8.016  0.2999  1.8858 -0.5934
  387MOL0     H52241  10.219   2.338   8.196  1.3564 -0.0880 -1.5518
  387MOL0     H52242  10.143   2.476   8.278  2.0697 -0.3284  3.2167
  387MOL0     H52243  10.566   2.471   8.368 -0.8657 -1.0239  1.3562
  387MOL0     H52244  10.091   2.837   7.755  0.0668 -4.1362  0.6087
  387MOL0     H52245  10.030   3.037   7.647 -2.1044  0.6066 -1.8953
  388MOL0     O52246   2.308   7.035   7.917 -0.5437 -0.1504  0.8343
  388MOL0     C52247   2.410   7.049   7.844  0.4550  1.0473 -1.2115
  388MOL0     O52248   2.464   6.956   7.760  0.3152  0.8041  0.2564
  388MOL0     C52249   2.407   6.834   7.747 -0.8954  0.1152 -0.3324
  388MOL0     C52250   2.288   6.825   7.676 -0.3135  0.8905 -0.3613
  388MOL0     C52251   2.233   6.698   7.651 -0.4277  0.0717  0.5195
  388MOL0     C52252   2.301   6.586   7.698 -0.0786 -0.1921  0.8894
  388MOL0     O52253   2.262   6.459   7.670 -0.2334 -0.2874 -0.2513
  388MOL0     C52254   2.187   6.395   7.781  0.4818 -0.1208 -0.1405
  388MOL0     C52255   2.059   6.316   7.716  0.0826 -0.0049 -0.9915
  388MOL0     C52256   2.062   6.304   7.575  0.3668 -0.3478  0.3131
  388MOL0     C52257   1.944   6.217   7.526 -0.5976  0.3458 -0.1059
  388MOL0     C52258   1.981   6.152   7.390 -0.4354  0.0101 -0.4035
  388MOL0     C52259   2.005   6.237   7.267 -0.4942  0.3042  0.7226
  388MOL0     C52260   1.909   6.352   7.249  0.7978 -0.6456 -0.0964
  388MOL0     C52261   1.929   6.433   7.112 -0.0360 -0.0220 -0.2264
  388MOL0     N52262   1.824   6.524   7.092  0.7545 -0.0005 -0.0859
  388MOL0     C52263   1.705   6.487   7.032  1.6342 -0.3398  0.6923
  388MOL0     C52264   1.633   6.603   7.028  0.3622 -0.3394 -0.2168
  388MOL0     C52265   1.493   6.619   6.967  1.8940  0.3081  0.6303
  388MOL0     C52266   1.411   6.502   7.004  1.2115  0.2830 -0.4732
  388MOL0     C52267   1.411   6.488   7.163 -0.0931  0.0395 -0.2881
  388MOL0     C52268   1.297   6.401   7.218  0.1509 -0.6356 -0.4205
  388MOL0     O52269   1.284   6.290   7.138 -0.3494 -0.0701 -0.3989
  388MOL0     C52270   1.366   6.178   7.124  0.4358  0.1406 -0.3191
  388MOL0     C52271   1.356   6.099   7.013 -0.3405 -0.4917  0.3193
  388MOL0     C52272   1.449   5.997   6.983 -0.0645 -0.3631 -0.2431
  388MOL0     C52273   1.427   5.919   6.851 -0.2118  0.0499 -0.1972
  388MOL0     C52274   1.543   5.966   7.082  1.0124  0.4550  0.6141
  388MOL0     C52275   1.635   5.847   7.074 -0.0785 -0.1439  0.2530
  388MOL0     O52276   1.575   5.725   7.047 -0.0087 -0.5612  0.4105
  388MOL0     C52277   1.668   5.634   7.027 -0.3744 -0.4501  0.0383
  388MOL0     C52278   1.725   5.600   6.897  0.0500 -0.3907  0.3916
  388MOL0     C52279   1.811   5.495   6.889 -0.7867  0.6976  0.3604
  388MOL0     C52280   1.844   5.418   7.001  0.4028 -1.0578  0.1882
  388MOL0     O52281   1.917   5.310   6.989  0.0933 -0.3687 -0.2542
  388MOL0     C52282   2.022   5.275   7.082  1.6760  0.2796 -0.2372
  388MOL0     C52283   2.022   5.131   7.035  0.5799  0.3156 -0.0714
  388MOL0     C52284   2.103   5.047   7.137  0.7558  0.0384 -0.0828
  388MOL0     C52285   2.023   5.014   7.264 -0.5548  0.4760 -0.9710
  388MOL0     C52286   2.109   4.924   7.359  0.0273  0.3850  0.0559
  388MOL0     C52287   2.040   4.871   7.479  0.0490 -0.0787 -0.0538
  388MOL0     C52288   1.930   4.962   7.538 -0.5051  0.8012  0.3649
  388MOL0     C52289   1.918   4.923   7.680 -0.0938  0.1752  0.7682
  388MOL0    Cl52290   1.805   5.047   7.751 -0.3308 -0.5217 -0.0724
  388MOL0     C52291   1.788   5.455   7.119 -0.3659  0.1747 -0.2345
  388MOL0     C52292   1.709   5.560   7.130  0.3427 -0.6606 -1.0421
  388MOL0     O52293   1.752   5.875   7.064 -0.0698 -0.2551  0.4209
  388MOL0     C52294   1.543   6.033   7.198 -0.9326 -0.6753  0.6880
  388MOL0     C52295   1.470   6.147   7.216 -0.3237  0.2506 -0.5290
  388MOL0     N52296   1.701   6.704   7.102 -0.8966 -0.9703  0.3211
  388MOL0     N52297   1.821   6.659   7.124 -0.2034  0.6003  0.2741
  388MOL0     C52298   2.413   6.599   7.773 -0.1812 -0.6578 -0.0005
  388MOL0     C52299   2.472   6.724   7.797 -0.2238  0.1578  0.2137
  388MOL0     C52300   2.472   7.181   7.851  0.3931  0.2354  0.7502
  388MOL0     C52301   2.413   7.287   7.911 -0.7107  0.0227 -0.7063
  388MOL0     C52302   2.471   7.420   7.899  0.9503  0.2408 -1.0647
  388MOL0     C52303   2.596   7.434   7.841  0.4940 -0.4156  0.0511
  388MOL0     O52304   2.642   7.566   7.844  0.4145  0.1175  0.3515
  388MOL0     C52305   2.753   7.608   7.751 -0.0067  0.3769  0.4898
  388MOL0     C52306   2.750   7.762   7.733 -0.3560  0.1130  1.1388
  388MOL0     C52307   2.866   7.799   7.643  0.2224 -0.0243  0.2224
  388MOL0     C52308   2.881   7.948   7.646 -0.2475 -0.7442  0.0019
  388MOL0     C52309   3.024   7.987   7.631 -0.0389  0.2499 -0.2721
  388MOL0     C52310   3.136   8.029   7.611 -0.2233 -0.7264 -0.9144
  388MOL0     C52311   2.665   7.326   7.792  0.8422  0.3597  0.8555
  388MOL0     C52312   2.596   7.203   7.793  0.3526  0.8161  0.2921
  388MOL0     H52313   2.231   6.915   7.653 -1.9333 -0.4449 -1.9380
  388MOL0     H52314   2.138   6.701   7.598 -1.0120  2.1348  1.5820
  388MOL0     H52315   2.244   6.311   7.824  1.1996  1.2145  1.6503
  388MOL0     H52316   2.163   6.458   7.867  0.3755 -1.8737  1.1778
  388MOL0     H52317   2.027   6.222   7.761 -0.4873  1.4130  1.7905
  388MOL0     H52318   1.970   6.377   7.735 -1.2065 -2.5340  1.7676
  388MOL0     H52319   2.058   6.400   7.521  1.6376  0.5811  1.7831
  388MOL0     H52320   2.153   6.243   7.565  0.3433 -0.3573  0.1565
  388MOL0     H52321   1.932   6.134   7.596  0.3693  1.4099  1.4072
  388MOL0     H52322   1.855   6.274   7.498 -1.1224 -0.0273  0.7658
  388MOL0     H52323   2.077   6.100   7.403 -0.1989  0.7073  0.8094
  388MOL0     H52324   1.906   6.076   7.370 -0.9156  0.2694  0.3600
  388MOL0     H52325   2.104   6.277   7.291  0.5152 -2.3152  1.2282
  388MOL0     H52326   2.015   6.166   7.185  0.2366  0.8615  0.3175
  388MOL0     H52327   1.807   6.314   7.260  0.0946  1.1616  0.0295
  388MOL0     H52328   1.916   6.420   7.335 -1.1916 -3.2441  2.2841
  388MOL0     H52329   1.939   6.363   7.029  1.8886  0.4677 -0.4596
  388MOL0     H52330   2.025   6.483   7.125 -0.6830  0.9082  1.2854
  388MOL0     H52331   1.675   6.395   6.984  1.4530 -0.2344  0.6032
  388MOL0     H52332   1.440   6.704   7.009 -0.9237 -3.0464  4.7569
  388MOL0     H52333   1.495   6.616   6.857 -1.8716 -4.8466  0.2998
  388MOL0     H52334   1.441   6.408   6.956 -1.5998 -0.8613 -0.2041
  388MOL0     H52335   1.308   6.507   6.967  1.5171 -3.3949 -2.3410
  388MOL0     H52336   1.391   6.583   7.214 -2.6573 -0.0393 -1.0157
  388MOL0     H52337   1.495   6.433   7.208 -0.9775  0.8976  2.6615
  388MOL0     H52338   1.196   6.444   7.222  0.5673  0.3006  2.1052
  388MOL0     H52339   1.316   6.375   7.322  0.6646 -1.7780 -0.7825
  388MOL0     H52340   1.279   6.116   6.939 -1.1298 -2.1701  0.7258
  388MOL0     H52341   1.511   5.859   6.815  0.0188 -0.3867  1.0249
  388MOL0     H52342   1.346   5.848   6.871  1.6981 -1.8486  1.1492
  388MOL0     H52343   1.396   5.984   6.769 -4.4999  0.6832  1.6291
  388MOL0     H52344   1.696   5.666   6.816  0.6528 -2.3848 -1.5174
  388MOL0     H52345   1.852   5.466   6.792  1.8802 -5.0973  2.7821
  388MOL0     H52346   2.111   5.335   7.062  1.4299  1.0710  0.9832
  388MOL0     H52347   1.976   5.283   7.181 -0.2848 -2.8206 -0.7485
  388MOL0     H52348   1.923   5.086   7.029 -0.2618  1.9411  0.9856
  388MOL0     H52349   2.070   5.117   6.937  1.4174 -1.0953  0.5174
  388MOL0     H52350   2.182   5.110   7.178 -0.4252  1.6527 -0.1624
  388MOL0     H52351   2.145   4.961   7.084 -0.6592  0.9669 -2.9257
  388MOL0     H52352   1.988   5.106   7.310 -2.5832 -0.0795 -1.3410
  388MOL0     H52353   1.934   4.957   7.236  1.1400 -2.5312 -0.7875
  388MOL0     H52354   2.200   4.979   7.383  0.4923 -0.6033  0.6162
  388MOL0     H52355   2.144   4.839   7.300 -2.1344 -2.2218  2.1759
  388MOL0     H52356   1.988   4.776   7.464 -2.6301  1.7116 -3.6321
  388MOL0     H52357   2.117   4.855   7.555 -0.2140  0.1465  0.2650
  388MOL0     H52358   1.830   4.943   7.498 -0.0411 -1.1016  0.0143
  388MOL0     H52359   1.953   5.069   7.525  1.8421  0.2780 -0.1680
  388MOL0     H52360   2.014   4.919   7.733 -0.5109  0.3214  1.5511
  388MOL0     H52361   1.873   4.825   7.689  0.8221 -0.4103 -0.5968
  388MOL0     H52362   1.813   5.401   7.210  1.1781 -1.0110 -1.2993
  388MOL0     H52363   1.661   5.586   7.224  1.3597 -1.0508 -0.3956
  388MOL0     H52364   1.608   6.000   7.279  0.3737  2.5646  1.1030
  388MOL0     H52365   1.488   6.212   7.301 -0.5191 -0.8837  0.4066
  388MOL0     H52366   2.458   6.508   7.810 -0.1177 -1.0200 -0.9302
  388MOL0     H52367   2.569   6.727   7.845 -0.9817  1.1012  1.7847
  388MOL0     H52368   2.325   7.270   7.972 -0.1688  1.6370  0.6198
  388MOL0     H52369   2.415   7.499   7.949 -3.7395 -2.2100 -1.8817
  388MOL0     H52370   2.848   7.576   7.794  0.3335  1.5322  0.6150
  388MOL0     H52371   2.744   7.561   7.652 -4.5228  1.0178  0.3809
  388MOL0     H52372   2.758   7.806   7.833 -1.5022  0.7180  0.9823
  388MOL0     H52373   2.651   7.795   7.700 -3.3255 -4.0976  4.6875
  388MOL0     H52374   2.838   7.774   7.540  0.1003  3.5107 -0.7188
  388MOL0     H52375   2.959   7.751   7.675 -0.0592 -1.8494 -1.4486
  388MOL0     H52376   2.845   7.987   7.742 -1.3464  2.2308 -1.4884
  388MOL0     H52377   2.829   7.996   7.563 -3.9807 -0.1009  2.4490
  388MOL0     H52378   3.232   8.067   7.583  0.6434  0.2358  2.8298
  388MOL0     H52379   2.755   7.333   7.732 -0.2280 -1.2821 -1.0638
  388MOL0     H52380   2.644   7.120   7.741 -1.9138 -2.2510  2.6838
  389MOL0     O52381   0.608   4.494   1.695 -0.5571  0.1683  0.1391
  389MOL0     C52382   0.685   4.582   1.725 -0.3548 -0.2883 -0.0063
  389MOL0     O52383   0.685   4.667   1.837  0.3628 -0.1147  0.2657
  389MOL0     C52384   0.581   4.683   1.932  0.9437 -0.4204 -0.3058
  389MOL0     C52385   0.449   4.651   1.911 -0.1567  0.1393 -0.3901
  389MOL0     C52386   0.354   4.719   1.989 -0.4340  0.6466 -0.0783
  389MOL0     C52387   0.386   4.794   2.101  0.0028 -0.7614  0.2305
  389MOL0     O52388   0.277   4.835   2.183 -0.1244 -0.0512 -0.4279
  389MOL0     C52389   0.305   4.899   2.306  0.1660 -0.4909  0.5615
  389MOL0     C52390   0.349   5.046   2.270 -0.8592 -0.7665  0.4921
  389MOL0     C52391   0.235   5.151   2.289  0.0245 -0.6096  0.1885
  389MOL0     C52392   0.208   5.256   2.185  0.1111 -0.4772 -0.2279
  389MOL0     C52393   0.081   5.327   2.205 -0.1997  1.2726  0.0508
  389MOL0     C52394   0.089   5.470   2.164 -0.2264 -1.0957  0.0558
  389MOL0     C52395   0.055   5.473   2.009  0.2794  0.0115 -0.4526
  389MOL0     C52396   0.050   5.613   1.949 -0.5367 -1.2479  0.6323
  389MOL0     N52397   0.139   5.628   1.834 -0.5603  0.5666 -0.6463
  389MOL0     C52398   0.272   5.628   1.852  0.8417 -0.4899  0.3924
  389MOL0     C52399   0.326   5.625   1.735  0.6303 -0.3983  0.3076
  389MOL0     C52400   0.474   5.614   1.720  0.3736  0.5931 -0.3862
  389MOL0     C52401   0.530   5.546   1.592 -0.5528 -0.2544 -0.0661
  389MOL0     C52402   0.681   5.564   1.562  0.2980 -0.1005 -0.5648
  389MOL0     C52403   0.773   5.501   1.666  0.0142  0.3928 -0.1243
  389MOL0     O52404   0.916   5.502   1.641 -1.0046  0.0236 -0.3575
  389MOL0     C52405   0.988   5.543   1.751 -0.6296  0.1577 -0.1913
  389MOL0     C52406   0.996   5.685   1.781 -0.0866  0.8554  0.9485
  389MOL0     C52407   1.076   5.727   1.886  0.4286  0.1823  0.1600
  389MOL0     C52408   1.081   5.873   1.902 -0.3589  0.2487  0.2017
  389MOL0     C52409   1.147   5.637   1.958 -0.1395 -0.0402  0.2887
  389MOL0     C52410   1.231   5.677   2.074  0.1191 -0.0486  0.3588
  389MOL0     O52411   1.350   5.603   2.103  0.6549 -1.3386  0.1622
  389MOL0     C52412   1.412   5.621   2.226  0.7354  0.0160 -0.1060
  389MOL0     C52413   1.396   5.536   2.333  0.7450  0.0087  0.4308
  389MOL0     C52414   1.453   5.569   2.460  0.0332  0.3840  0.4889
  389MOL0     C52415   1.556   5.667   2.469  0.4055  0.2126  0.0634
  389MOL0     O52416   1.606   5.702   2.590  0.3721  0.5331  0.6406
  389MOL0     C52417   1.660   5.833   2.609  0.1687 -0.6234  0.3819
  389MOL0     C52418   1.704   5.854   2.753  0.4691  0.0421  0.9813
  389MOL0     C52419   1.722   6.008   2.764  1.2299  0.1065 -0.2398
  389MOL0     C52420   1.838   6.030   2.864  0.4733 -0.1583 -1.0239
  389MOL0     C52421   1.974   6.006   2.798 -0.4393  0.0367  0.0160
  389MOL0     C52422   2.087   6.097   2.873 -0.3868 -0.3820 -0.0636
  389MOL0     C52423   2.127   6.058   3.016 -0.4701  0.0858  1.1882
  389MOL0     C52424   2.192   5.917   3.011 -0.1565  0.1167 -0.7378
  389MOL0    Cl52425   2.329   5.900   2.903  0.3108 -0.7963 -0.1519
  389MOL0     C52426   1.575   5.746   2.354  0.0409  0.4079 -0.1294
  389MOL0     C52427   1.495   5.726   2.241  0.0562  0.1423  1.1910
  389MOL0     O52428   1.193   5.777   2.142 -0.1711 -0.1205  0.4188
  389MOL0     C52429   1.143   5.496   1.923  0.4594 -0.1770  0.1849
  389MOL0     C52430   1.057   5.449   1.829  1.1278 -0.6044  0.0726
  389MOL0     N52431   0.222   5.617   1.648 -0.3128 -0.3863  0.0328
  389MOL0     N52432   0.107   5.622   1.705  0.8830  0.4574 -0.4405
  389MOL0     C52433   0.521   4.793   2.137 -0.0149  1.7889 -0.2425
  389MOL0     C52434   0.614   4.740   2.055 -0.8923  0.6623  0.1690
  389MOL0     C52435   0.808   4.597   1.637  0.4845 -0.4525  0.2448
  389MOL0     C52436   0.844   4.501   1.546  0.5886  0.6551  0.3883
  389MOL0     C52437   0.944   4.511   1.455 -0.0890  0.6744 -0.0302
  389MOL0     C52438   1.022   4.620   1.456  0.3721 -0.7295  0.3391
  389MOL0     O52439   1.126   4.651   1.366  0.5978 -0.2933  0.9059
  389MOL0     C52440   1.157   4.550   1.266 -0.9881  0.9534  0.1916
  389MOL0     C52441   1.078   4.575   1.138  0.6899  0.3624  1.0080
  389MOL0     C52442   1.126   4.461   1.038 -0.4072  0.2488  0.5466
  389MOL0     C52443   1.085   4.494   0.895  0.0091 -0.7897  0.1319
  389MOL0     C52444   1.155   4.416   0.792  1.0045 -0.0012 -0.9800
  389MOL0     C52445   1.197   4.347   0.701 -0.5305 -0.6573  0.5177
  389MOL0     C52446   0.992   4.729   1.551  0.2324 -0.1752  0.7935
  389MOL0     C52447   0.883   4.711   1.640  0.2910 -0.3274 -1.0122
  389MOL0     H52448   0.423   4.606   1.816  2.7166 -1.1921 -0.6541
  389MOL0     H52449   0.251   4.701   1.959  0.5376 -2.6994 -1.9140
  389MOL0     H52450   0.220   4.903   2.375  1.7838 -0.5028  2.6437
  389MOL0     H52451   0.390   4.846   2.349  1.2269  1.9924  1.7505
  389MOL0     H52452   0.432   5.066   2.339  0.4403 -0.5869 -1.0515
  389MOL0     H52453   0.391   5.060   2.169  0.2372  2.4150  1.2442
  389MOL0     H52454   0.142   5.095   2.296 -0.7519  0.7811  1.7211
  389MOL0     H52455   0.256   5.199   2.385  4.1710 -1.2009 -0.2129
  389MOL0     H52456   0.285   5.334   2.192 -3.8031  3.6839  1.9184
  389MOL0     H52457   0.223   5.211   2.086 -0.9217  1.9532 -1.5721
  389MOL0     H52458   0.004   5.274   2.148  0.6109  0.3091 -0.1726
  389MOL0     H52459   0.062   5.332   2.312  2.3134 -1.7771  0.7852
  389MOL0     H52460   0.017   5.533   2.217 -0.0617 -0.7353 -0.1438
  389MOL0     H52461   0.186   5.514   2.184 -0.0447 -1.5268  0.1295
  389MOL0     H52462   0.128   5.405   1.964  0.5002 -1.6635  2.2008
  389MOL0     H52463  -0.038   5.419   1.990  0.1863  0.2460 -0.6833
  389MOL0     H52464   0.069   5.686   2.028 -0.9250 -0.7598  0.2856
  389MOL0     H52465  -0.053   5.625   1.915  0.3520  1.4459 -1.4507
  389MOL0     H52466   0.327   5.630   1.945  0.3137 -1.5476  0.7451
  389MOL0     H52467   0.510   5.717   1.718  0.6670  0.6040 -4.9539
  389MOL0     H52468   0.506   5.572   1.815 -2.2174  4.3481  2.4547
  389MOL0     H52469   0.494   5.590   1.498  1.6621 -0.6216 -1.1566
  389MOL0     H52470   0.515   5.437   1.593 -3.8913 -0.2212 -5.1769
  389MOL0     H52471   0.710   5.668   1.549  0.4351 -0.1480 -0.6485
  389MOL0     H52472   0.703   5.519   1.464  0.7179 -1.0122 -0.0671
  389MOL0     H52473   0.733   5.401   1.686  0.1333  0.1402 -1.0810
  389MOL0     H52474   0.756   5.565   1.753  4.7883 -1.9441  3.0132
  389MOL0     H52475   0.927   5.753   1.733  1.6913  0.4966 -2.4191
  389MOL0     H52476   1.070   5.922   1.805 -0.0401  1.4283  0.7427
  389MOL0     H52477   1.001   5.898   1.972 -0.6373 -0.2641  0.0717
  389MOL0     H52478   1.174   5.915   1.942  0.9534  0.9843 -3.2954
  389MOL0     H52479   1.325   5.456   2.320  0.2199  0.7412 -1.7023
  389MOL0     H52480   1.405   5.524   2.547 -3.1649  0.8910 -0.8701
  389MOL0     H52481   1.729   5.879   2.539 -2.5373  0.5716 -1.6735
  389MOL0     H52482   1.571   5.894   2.591 -0.2570 -0.3189  3.0941
  389MOL0     H52483   1.631   5.825   2.830 -1.1257  2.5150  0.5149
  389MOL0     H52484   1.801   5.806   2.770 -0.6473 -2.0708  1.7886
  389MOL0     H52485   1.633   6.051   2.810  2.7468  1.5402  1.5406
  389MOL0     H52486   1.741   6.057   2.668 -0.2537 -0.0398 -0.6222
  389MOL0     H52487   1.839   6.138   2.883 -1.2215 -0.2813  0.1049
  389MOL0     H52488   1.824   5.961   2.948  1.2216  0.4536 -0.3814
  389MOL0     H52489   1.979   6.036   2.693  0.2709 -0.3691 -0.0692
  389MOL0     H52490   1.992   5.898   2.795  0.6489  0.2023  0.3770
  389MOL0     H52491   2.174   6.098   2.807  0.8637  2.9965  1.4193
  389MOL0     H52492   2.053   6.201   2.875  1.6244  0.3924 -1.9003
  389MOL0     H52493   2.033   6.062   3.071 -2.0057  2.1196 -1.3626
  389MOL0     H52494   2.196   6.134   3.055 -1.7701  1.4205  0.9696
  389MOL0     H52495   2.117   5.844   2.977 -2.1570  1.6536  0.1806
  389MOL0     H52496   2.228   5.894   3.111  0.9221  0.7980 -0.9600
  389MOL0     H52497   1.637   5.836   2.354  1.5463 -0.5749 -1.2497
  389MOL0     H52498   1.495   5.808   2.169  1.7435 -1.9038 -1.3274
  389MOL0     H52499   1.200   5.429   1.987 -1.9523 -0.2781  2.3733
  389MOL0     H52500   1.061   5.343   1.807  0.3060 -0.5827 -0.1806
  389MOL0     H52501   0.547   4.845   2.229 -0.8994  0.0481  1.0501
  389MOL0     H52502   0.718   4.741   2.086 -1.1147 -1.5468  1.1956
  389MOL0     H52503   0.783   4.412   1.540  2.1244 -0.3709 -3.5442
  389MOL0     H52504   0.959   4.424   1.392 -1.5564 -1.2730  2.1172
  389MOL0     H52505   1.261   4.567   1.237 -1.3784  2.6720 -0.2809
  389MOL0     H52506   1.148   4.445   1.297 -1.5555  1.2528  1.0777
  389MOL0     H52507   1.106   4.671   1.093  2.3405 -1.2953 -1.7819
  389MOL0     H52508   0.969   4.561   1.140  0.3436  2.1261 -1.3200
  389MOL0     H52509   1.098   4.357   1.057 -0.2892  0.2242  0.5908
  389MOL0     H52510   1.234   4.480   1.047 -0.9547  3.0828  2.6538
  389MOL0     H52511   1.107   4.599   0.871 -1.7743 -0.2947  0.5073
  389MOL0     H52512   0.978   4.480   0.882 -0.2930  0.4628  1.1011
  389MOL0     H52513   1.237   4.281   0.627  0.2326 -0.2499  0.5661
  389MOL0     H52514   1.054   4.818   1.541  3.3630 -2.0639  1.8361
  389MOL0     H52515   0.851   4.789   1.709 -0.8027 -1.5286 -0.1229
  390MOL0     O52516  10.263   5.601   3.681 -0.4617  0.0199 -0.4246
  390MOL0     C52517  10.213   5.697   3.741  1.1508  0.3650  0.0835
  390MOL0     O52518  10.095   5.753   3.706 -0.2679 -0.4930  0.2183
  390MOL0     C52519  10.032   5.698   3.608 -0.1779 -0.0004 -0.4496
  390MOL0     C52520   9.935   5.599   3.622  0.6237  0.8282  0.8457
  390MOL0     C52521   9.889   5.540   3.503  0.0946 -0.7399  0.8041
  390MOL0     C52522   9.921   5.592   3.379  0.1238  0.0522 -0.9099
  390MOL0     O52523   9.857   5.532   3.275  0.5652 -0.2512 -0.2361
  390MOL0     C52524   9.845   5.602   3.148 -0.0165  0.0387 -0.8907
  390MOL0     C52525   9.769   5.496   3.076 -0.7693 -0.4334 -0.0222
  390MOL0     C52526   9.767   5.554   2.934  0.6551 -0.3112 -0.0337
  390MOL0     C52527   9.753   5.440   2.828 -0.1596 -0.4270 -0.4151
  390MOL0     C52528   9.733   5.500   2.697 -1.1424 -0.2854  0.7746
  390MOL0     C52529   9.734   5.390   2.582 -0.1038 -0.5921 -0.1626
  390MOL0     C52530   9.696   5.450   2.454  0.6394  0.0911  0.2290
  390MOL0     C52531   9.773   5.571   2.418 -0.6978 -0.3304 -0.2609
  390MOL0     N52532   9.800   5.583   2.270  0.4252 -0.0548  0.5078
  390MOL0     C52533   9.721   5.536   2.165 -0.3174  0.9186  0.0794
  390MOL0     C52534   9.793   5.574   2.055  0.2257  0.2975 -0.6620
  390MOL0     C52535   9.747   5.566   1.910  0.3797  0.4555 -0.0436
  390MOL0     C52536   9.733   5.702   1.852  0.2526 -0.4904 -0.7600
  390MOL0     C52537   9.652   5.702   1.727  0.0930  0.3749  0.7308
  390MOL0     C52538   9.669   5.841   1.681  0.7518 -0.8916  0.3460
  390MOL0     O52539   9.804   5.885   1.653  1.2253  0.0331 -0.7029
  390MOL0     C52540   9.851   6.004   1.703 -0.9418 -0.1197 -0.4855
  390MOL0     C52541   9.785   6.119   1.743  0.6000 -0.9175 -0.3222
  390MOL0     C52542   9.855   6.228   1.789 -0.5845 -0.0275  0.5482
  390MOL0     C52543   9.772   6.341   1.834  0.2708  0.1572 -0.3920
  390MOL0     C52544  10.000   6.224   1.777  0.6277 -0.2310 -0.3587
  390MOL0     C52545  10.089   6.352   1.798  0.5161  0.4836  0.2928
  390MOL0     O52546  10.223   6.330   1.783 -0.8991  0.6291  0.0612
  390MOL0     C52547  10.314   6.433   1.781  0.1121 -0.4669  0.5740
  390MOL0     C52548  10.392   6.472   1.889  0.1402  0.9459  0.2360
  390MOL0     C52549  10.487   6.565   1.887  0.3694 -0.4514  0.8132
  390MOL0     C52550  10.520   6.625   1.762  0.3879  0.8103  0.2776
  390MOL0     O52551  10.623   6.719   1.745 -0.6472 -0.3909  0.1306
  390MOL0     C52552  10.764   6.700   1.782 -0.1371  0.0319 -0.1257
  390MOL0     C52553  10.847   6.715   1.661 -0.7696  0.3932  0.0534
  390MOL0     C52554  10.877   6.858   1.607 -0.3098 -0.6904 -0.3907
  390MOL0     C52555  10.925   6.844   1.460 -0.0107 -1.5178 -0.5502
  390MOL0     C52556  10.983   6.980   1.405 -0.3543 -0.5221 -0.4070
  390MOL0     C52557  11.071   6.949   1.276  0.2206 -0.7755 -0.4036
  390MOL0     C52558  11.157   7.070   1.227 -0.8199  0.7966  0.6116
  390MOL0     C52559  11.069   7.193   1.217 -0.8122  0.2479 -0.2513
  390MOL0    Cl52560  11.161   7.321   1.131  0.1649 -0.6952 -0.4518
  390MOL0     C52561  10.432   6.601   1.650  0.2070  0.0869  0.3489
  390MOL0     C52562  10.323   6.507   1.660  0.5578  0.1773 -0.7731
  390MOL0     O52563  10.044   6.456   1.846 -0.5437  0.2660 -0.9691
  390MOL0     C52564  10.066   6.108   1.737  0.5256 -0.7244  0.1839
  390MOL0     C52565   9.992   6.004   1.694 -0.4334 -1.0760  0.0901
  390MOL0     N52566   9.917   5.614   2.090  1.3262 -0.2595 -0.3425
  390MOL0     N52567   9.910   5.639   2.217 -0.5887  0.7456  0.2508
  390MOL0     C52568  10.011   5.691   3.371  0.3008  0.0836 -0.1857
  390MOL0     C52569  10.068   5.748   3.482  0.4233  0.3364 -0.4725
  390MOL0     C52570  10.271   5.740   3.867 -0.1165  0.2024  0.1476
  390MOL0     C52571  10.402   5.702   3.906 -0.2479 -1.4265  0.3892
  390MOL0     C52572  10.441   5.729   4.040  0.0597  0.6170  0.6725
  390MOL0     C52573  10.360   5.808   4.130  0.2799 -0.1084  0.3732
  390MOL0     O52574  10.403   5.808   4.263 -0.3266  0.2161  0.4902
  390MOL0     C52575  10.334   5.878   4.362 -0.4470  0.5367  0.3979
  390MOL0     C52576  10.386   5.838   4.503 -0.3038  1.1086 -0.1749
  390MOL0     C52577  10.336   5.703   4.543 -0.3390  0.3149  0.5161
  390MOL0     C52578  10.184   5.666   4.525  0.4267 -0.1062 -0.7679
  390MOL0     C52579  10.148   5.554   4.609  0.5732 -0.2853 -0.1945
  390MOL0     C52580  10.120   5.454   4.676 -0.0335  0.5665  0.0750
  390MOL0     C52581  10.244   5.865   4.077  0.0201  0.1074  0.0459
  390MOL0     C52582  10.200   5.826   3.955  0.0391  0.3724  0.1007
  390MOL0     H52583   9.905   5.559   3.719  1.5753 -1.2022  0.3600
  390MOL0     H52584   9.819   5.456   3.507 -0.5007 -0.2348  1.1987
  390MOL0     H52585   9.784   5.692   3.160 -0.2969 -0.0902 -1.3133
  390MOL0     H52586   9.935   5.624   3.090  0.2819 -1.8004 -1.1699
  390MOL0     H52587   9.821   5.400   3.074 -0.1179 -0.1218  1.1076
  390MOL0     H52588   9.661   5.494   3.096 -0.2280  0.2107  3.5689
  390MOL0     H52589   9.681   5.621   2.927 -0.5848 -1.7829  0.4297
  390MOL0     H52590   9.852   5.613   2.900 -0.4371  0.6352 -1.2477
  390MOL0     H52591   9.851   5.394   2.839 -0.3771 -0.7016  0.4934
  390MOL0     H52592   9.674   5.371   2.859  0.5743 -0.2580  2.1001
  390MOL0     H52593   9.637   5.553   2.697 -1.8199 -1.4381 -0.3523
  390MOL0     H52594   9.814   5.568   2.669 -0.4388 -1.7990 -1.0718
  390MOL0     H52595   9.832   5.341   2.584  0.1419 -0.1052  1.2170
  390MOL0     H52596   9.665   5.309   2.610 -2.5214  1.5181  0.4056
  390MOL0     H52597   9.707   5.377   2.374  1.6303  0.5967 -0.1263
  390MOL0     H52598   9.595   5.492   2.448  0.7732  0.2900 -0.9985
  390MOL0     H52599   9.867   5.573   2.474 -1.2205  1.3598  0.6063
  390MOL0     H52600   9.716   5.659   2.449  0.3033  0.7917 -1.5136
  390MOL0     H52601   9.617   5.504   2.166 -0.2125  0.5761  1.6008
  390MOL0     H52602   9.822   5.514   1.850 -0.3210 -0.6370  0.0031
  390MOL0     H52603   9.659   5.502   1.922  2.2027 -2.4680 -1.1388
  390MOL0     H52604   9.836   5.732   1.829  0.2996 -0.6953 -0.8174
  390MOL0     H52605   9.695   5.764   1.934 -3.1628  0.2885 -2.7510
  390MOL0     H52606   9.548   5.675   1.744 -0.2272  0.5722 -0.7501
  390MOL0     H52607   9.691   5.631   1.654 -1.7118 -0.5554  0.6403
  390MOL0     H52608   9.630   5.910   1.756  1.1156  1.7835 -1.7703
  390MOL0     H52609   9.603   5.855   1.595  0.2659  1.3736  1.0362
  390MOL0     H52610   9.677   6.121   1.754  0.6175  2.5538  0.5200
  390MOL0     H52611   9.665   6.331   1.814  0.0760 -1.0257  1.0428
  390MOL0     H52612   9.790   6.363   1.940  3.2398 -2.1968 -0.2651
  390MOL0     H52613   9.803   6.428   1.775 -1.4796 -0.1962 -1.9234
  390MOL0     H52614  10.388   6.419   1.984 -1.4834 -0.7250 -0.6762
  390MOL0     H52615  10.547   6.591   1.974 -1.8037 -2.0870  2.9781
  390MOL0     H52616  10.790   6.774   1.858 -1.7311  2.0769 -1.4793
  390MOL0     H52617  10.780   6.602   1.828 -2.8223 -1.0285 -1.2667
  390MOL0     H52618  10.945   6.667   1.668 -0.8465  0.3247  0.6726
  390MOL0     H52619  10.799   6.656   1.583  0.0269  0.4113 -0.4659
  390MOL0     H52620  10.951   6.910   1.667 -1.6816  0.4494  0.3827
  390MOL0     H52621  10.783   6.913   1.609 -1.6377 -2.8143  1.8696
  390MOL0     H52622  11.001   6.766   1.468 -1.0061 -2.6286 -1.4453
  390MOL0     H52623  10.842   6.821   1.392 -3.1348  3.6955  0.9536
  390MOL0     H52624  11.045   7.013   1.488  1.5876 -1.8778 -1.2548
  390MOL0     H52625  10.903   7.050   1.378 -0.7112 -0.3650  0.9843
  390MOL0     H52626  11.139   6.872   1.313 -1.3082 -1.8664  0.2925
  390MOL0     H52627  11.004   6.909   1.199 -1.1474  0.9106 -0.1633
  390MOL0     H52628  11.209   7.037   1.137  1.0219 -0.8606  2.2108
  390MOL0     H52629  11.233   7.102   1.298 -0.0239  3.5294 -1.2990
  390MOL0     H52630  11.046   7.224   1.320 -1.4747 -0.5104 -0.1632
  390MOL0     H52631  10.981   7.161   1.160 -0.5375 -0.5968 -0.2245
  390MOL0     H52632  10.444   6.644   1.551 -2.0929  0.9434  0.3747
  390MOL0     H52633  10.247   6.498   1.583 -0.4226 -1.7019  0.3465
  390MOL0     H52634  10.173   6.089   1.737  0.0851 -3.6560  0.3767
  390MOL0     H52635  10.045   5.921   1.647 -2.4526 -0.3181 -4.0068
  390MOL0     H52636  10.052   5.732   3.279  1.6213  2.0712  1.2026
  390MOL0     H52637  10.137   5.832   3.479 -1.8942  2.3941  0.5978
  390MOL0     H52638  10.454   5.649   3.827 -2.1303 -1.0846 -1.1642
  390MOL0     H52639  10.541   5.704   4.075  0.0441  0.3204  0.5084
  390MOL0     H52640  10.329   5.987   4.350 -2.3359  0.2764 -2.0346
  390MOL0     H52641  10.228   5.852   4.352 -1.5347  3.0385  3.7298
  390MOL0     H52642  10.337   5.909   4.569  0.5874  1.0980  0.5177
  390MOL0     H52643  10.494   5.846   4.519 -0.0872 -2.3612  1.0196
  390MOL0     H52644  10.350   5.702   4.652 -0.1377 -2.8597  0.5658
  390MOL0     H52645  10.392   5.630   4.483  0.2523  0.8073  0.4506
  390MOL0     H52646  10.170   5.639   4.420 -1.0159  2.6184 -1.3646
  390MOL0     H52647  10.123   5.751   4.557  3.9363  2.5102 -0.3917
  390MOL0     H52648  10.105   5.370   4.741 -1.0577  0.5943 -0.1054
  390MOL0     H52649  10.178   5.931   4.133 -0.3794 -0.5763  0.4026
  390MOL0     H52650  10.095   5.847   3.932 -0.4444 -1.2844  0.6675
  391MOL0     O52651   9.951   6.322  10.279  0.1034  0.4454  0.2711
  391MOL0     C52652   9.903   6.363  10.173 -0.5849 -0.6214  0.8540
  391MOL0     O52653   9.849   6.485  10.154 -0.1271  0.0855 -0.5964
  391MOL0     C52654   9.839   6.570  10.264  0.3669  0.2868  0.1533
  391MOL0     C52655   9.845   6.708  10.228  0.2813 -0.0009 -0.1115
  391MOL0     C52656   9.826   6.803  10.335 -0.2459  0.0132  0.4685
  391MOL0     C52657   9.794   6.765  10.459  1.0135 -0.5012 -0.4938
  391MOL0     O52658   9.774   6.865  10.548 -0.1230 -0.0049 -0.9385
  391MOL0     C52659   9.710   6.845  10.676  1.3612  0.2781  0.7851
  391MOL0     C52660   9.569   6.871  10.672  0.8699  0.0429  0.3501
  391MOL0     C52661   9.480   6.741  10.644  0.3271  0.6739  1.0421
  391MOL0     C52662   9.328   6.759  10.635  0.5588  0.6683  0.0246
  391MOL0     C52663   9.249   6.618  10.637  0.5880 -0.0480  0.3473
  391MOL0     C52664   9.092   6.633  10.641 -0.7150  0.4216  0.2594
  391MOL0     C52665   9.045   6.716  10.761 -0.6438 -0.0356  0.2918
  391MOL0     C52666   8.900   6.694  10.819 -0.1473  0.0845  0.5220
  391MOL0     N52667   8.803   6.669  10.706  0.8300  0.6113  0.3440
  391MOL0     C52668   8.748   6.769  10.626 -0.1037  0.2511  0.9893
  391MOL0     C52669   8.669   6.705  10.536 -0.0873 -0.5119 -0.2469
  391MOL0     C52670   8.598   6.766  10.414 -0.8641  0.0737 -0.1251
  391MOL0     C52671   8.446   6.747  10.395 -0.2860 -0.1998  1.1556
  391MOL0     C52672   8.351   6.810  10.490  0.1431  0.1324 -0.2888
  391MOL0     C52673   8.254   6.913  10.423 -0.6234  0.1681  0.5471
  391MOL0     O52674   8.146   6.964  10.495  0.7173  0.2359  0.5423
  391MOL0     C52675   8.154   7.093  10.536  0.7271 -0.0892  0.0105
  391MOL0     C52676   8.267   7.157  10.591 -0.2501 -0.2946 -0.2395
  391MOL0     C52677   8.264   7.290  10.637 -1.1514  0.6181 -0.4448
  391MOL0     C52678   8.402   7.330  10.691 -0.2329  0.2139 -0.0284
  391MOL0     C52679   8.157   7.366  10.623  0.5409 -0.7973 -0.6392
  391MOL0     C52680   8.142   7.515  10.679 -0.0140 -0.4594 -0.5225
  391MOL0     O52681   8.009   7.548  10.696 -1.0748  0.3915  0.0145
  391MOL0     C52682   7.983   7.666  10.760 -1.1817 -0.0927 -0.1731
  391MOL0     C52683   7.939   7.780  10.687 -0.2361 -0.5634  0.2646
  391MOL0     C52684   7.924   7.905  10.757  0.4563 -0.0105  0.2903
  391MOL0     C52685   7.953   7.921  10.890 -0.3044 -0.0637  0.1189
  391MOL0     O52686   7.923   8.043  10.943 -0.6867  0.0766  0.0112
  391MOL0     C52687   7.952   8.077  11.086 -1.4340 -0.3115 -0.2488
  391MOL0     C52688   8.101   8.105  11.101  0.0649  0.0078  1.1100
  391MOL0     C52689   8.150   8.109  11.242  0.7460 -0.8817 -0.7465
  391MOL0     C52690   8.165   7.984  11.318  0.7014 -0.4860  0.0697
  391MOL0     C52691   8.158   7.999  11.470 -0.4220 -0.3997 -0.0781
  391MOL0     C52692   8.148   7.860  11.534  0.8650 -0.2557 -0.5123
  391MOL0     C52693   8.148   7.891  11.686  0.5731  0.2625  0.6595
  391MOL0     C52694   8.172   7.756  11.761  0.0581 -0.7346 -0.7485
  391MOL0    Cl52695   8.015   7.675  11.758  0.3084  0.1141 -0.0659
  391MOL0     C52696   7.985   7.813  10.966 -0.8694  0.1465  1.2831
  391MOL0     C52697   8.007   7.685  10.898  0.2134  0.7524 -0.4883
  391MOL0     O52698   8.238   7.581  10.716  0.1157 -0.3744 -0.4923
  391MOL0     C52699   8.043   7.311  10.556  0.2306  0.6273 -0.8131
  391MOL0     C52700   8.042   7.175  10.508  0.2589  0.4923 -0.6253
  391MOL0     N52701   8.672   6.573  10.560 -0.0515  0.2948  0.2783
  391MOL0     N52702   8.745   6.548  10.663 -0.5897 -0.8757 -0.6081
  391MOL0     C52703   9.788   6.628  10.486 -0.6807 -0.2312 -1.3584
  391MOL0     C52704   9.804   6.529  10.392  0.7726  0.4832  0.9022
  391MOL0     C52705   9.911   6.261  10.062 -0.3488 -0.7898 -0.0427
  391MOL0     C52706   9.963   6.132  10.093  1.1803 -0.2470  0.7988
  391MOL0     C52707   9.972   6.045   9.984 -0.0338 -0.4115 -0.7524
  391MOL0     C52708   9.945   6.084   9.851 -0.0035  0.5145  0.1538
  391MOL0     O52709   9.963   5.995   9.748  0.8556 -1.1206 -0.5340
  391MOL0     C52710  10.099   6.008   9.696 -0.4946  0.2384  0.3181
  391MOL0     C52711  10.165   5.862   9.697 -1.1347  0.3651 -0.6185
  391MOL0     C52712  10.060   5.760   9.639 -0.2779  0.5696  0.9104
  391MOL0     C52713  10.115   5.613   9.635  0.6024 -0.3874 -0.5338
  391MOL0     C52714  10.235   5.589   9.557 -0.0741 -0.9602  0.3383
  391MOL0     C52715  10.334   5.574   9.485  0.3628  1.1307  0.6611
  391MOL0     C52716   9.890   6.213   9.828 -0.3031 -1.0113 -0.4992
  391MOL0     C52717   9.868   6.296   9.933  0.4608  0.4282 -0.7455
  391MOL0     H52718   9.859   6.732  10.123 -1.9716  1.8085 -0.0789
  391MOL0     H52719   9.842   6.906  10.304 -1.0605  0.0996  0.3255
  391MOL0     H52720   9.727   6.746  10.719 -0.8797 -1.0828 -1.2216
  391MOL0     H52721   9.750   6.917  10.748 -0.8931  1.6136  0.7800
  391MOL0     H52722   9.532   6.900  10.771 -0.3816 -0.3876  0.0337
  391MOL0     H52723   9.554   6.958  10.608  1.0237 -0.9769 -1.1127
  391MOL0     H52724   9.508   6.689  10.552 -0.3382 -2.1118  2.3216
  391MOL0     H52725   9.509   6.659  10.709 -0.0921 -0.9218 -0.6878
  391MOL0     H52726   9.284   6.818  10.716  0.0336  0.3527 -0.0226
  391MOL0     H52727   9.311   6.807  10.538 -0.5127 -0.1739 -0.2222
  391MOL0     H52728   9.279   6.555  10.553 -0.9416  1.4019 -1.3806
  391MOL0     H52729   9.279   6.567  10.729  0.7818  0.1555  0.3971
  391MOL0     H52730   9.056   6.665  10.542  3.1618  1.9911 -0.8496
  391MOL0     H52731   9.045   6.541  10.674 -0.2516  0.7772  2.0420
  391MOL0     H52732   9.116   6.716  10.844 -0.5272 -1.5028  0.2170
  391MOL0     H52733   9.042   6.824  10.743 -0.7343  0.7706  4.2751
  391MOL0     H52734   8.865   6.781  10.875 -0.6921  1.9192 -2.4625
  391MOL0     H52735   8.901   6.599  10.873 -2.0647 -2.1972 -3.0267
  391MOL0     H52736   8.776   6.874  10.622  3.0406 -0.4074 -4.5951
  391MOL0     H52737   8.611   6.875  10.420  1.5492 -0.1446 -0.4882
  391MOL0     H52738   8.654   6.740  10.323  0.4210  2.9684 -0.2806
  391MOL0     H52739   8.448   6.637  10.390 -2.7533 -0.2524  0.2247
  391MOL0     H52740   8.433   6.778  10.291  1.3921 -0.1337  0.9361
  391MOL0     H52741   8.385   6.860  10.581 -2.1252  0.3080  0.5210
  391MOL0     H52742   8.283   6.735  10.531 -0.9706  1.0047 -0.5237
  391MOL0     H52743   8.233   6.871  10.325 -2.9060  0.8254  0.7017
  391MOL0     H52744   8.325   6.993  10.398 -0.7030  0.0777  0.0246
  391MOL0     H52745   8.357   7.097  10.601 -1.3615 -1.8733  0.7243
  391MOL0     H52746   8.451   7.244  10.737 -0.7172 -1.1156 -1.9297
  391MOL0     H52747   8.466   7.379  10.617 -1.6046  0.2003 -1.2532
  391MOL0     H52748   8.397   7.410  10.766 -2.5757 -2.3672  2.8060
  391MOL0     H52749   7.921   7.766  10.581  2.8571 -2.8508 -0.0976
  391MOL0     H52750   7.897   7.984  10.688 -1.1134  0.3775  1.2817
  391MOL0     H52751   7.897   8.162  11.129 -0.4399 -0.8435  2.2827
  391MOL0     H52752   7.931   7.995  11.156 -0.3279 -0.4699 -0.0852
  391MOL0     H52753   8.147   8.026  11.040 -1.1612  1.4678 -1.9012
  391MOL0     H52754   8.121   8.198  11.047  1.4930  0.1809  1.9071
  391MOL0     H52755   8.101   8.187  11.302  1.9736 -0.1785 -0.6086
  391MOL0     H52756   8.252   8.149  11.235 -0.1237  1.1954 -2.7343
  391MOL0     H52757   8.097   7.905  11.284 -1.3217  1.8264 -1.6009
  391MOL0     H52758   8.262   7.937  11.297  0.5876  0.1587 -2.1550
  391MOL0     H52759   8.077   8.069  11.493 -1.1243 -0.4230 -2.2373
  391MOL0     H52760   8.244   8.055  11.507 -0.9275  0.8934 -0.7907
  391MOL0     H52761   8.059   7.799  11.513 -0.9009  1.6652  0.8694
  391MOL0     H52762   8.243   7.818  11.501  1.9210  0.4784  1.3791
  391MOL0     H52763   8.059   7.942  11.724  0.3704  0.2344  0.2309
  391MOL0     H52764   8.234   7.957  11.702  1.4015  0.3117 -3.0694
  391MOL0     H52765   8.181   7.791  11.865 -0.2221  2.8883 -1.8241
  391MOL0     H52766   8.262   7.703  11.727  1.1870  1.0812 -0.7088
  391MOL0     H52767   7.995   7.828  11.073 -3.0399 -0.6867  1.6457
  391MOL0     H52768   8.048   7.599  10.951 -4.0973 -4.0429 -3.9953
  391MOL0     H52769   7.965   7.384  10.540 -1.4901 -0.3536  2.2541
  391MOL0     H52770   7.958   7.141  10.449 -2.9719 -1.8506  4.6059
  391MOL0     H52771   9.763   6.613  10.590 -0.5422  2.0911 -0.9418
  391MOL0     H52772   9.779   6.427  10.420  2.0660 -0.3923 -0.8732
  391MOL0     H52773   9.991   6.078  10.183  2.2981  1.0739  1.2862
  391MOL0     H52774  10.008   5.946  10.009 -2.6177 -1.8940 -2.4130
  391MOL0     H52775  10.104   6.043   9.593  0.8271  0.2715  0.3756
  391MOL0     H52776  10.155   6.090   9.742 -2.7497  2.7883 -1.2120
  391MOL0     H52777  10.166   5.823   9.799 -1.3871 -0.4375 -0.9102
  391MOL0     H52778  10.258   5.864   9.639 -0.4775  2.1084  0.4385
  391MOL0     H52779  10.041   5.794   9.537 -2.9624  0.5567  1.3213
  391MOL0     H52780   9.972   5.757   9.704  2.6562 -1.3274  5.2442
  391MOL0     H52781  10.030   5.554   9.598 -0.2086  1.5977 -2.0186
  391MOL0     H52782  10.142   5.577   9.735  1.9934 -3.4768 -1.8941
  391MOL0     H52783  10.417   5.546   9.423  0.8045  1.4342  1.1135
  391MOL0     H52784   9.857   6.244   9.729 -1.9384  4.2612  1.4022
  391MOL0     H52785   9.823   6.393   9.913  0.0475  0.6282  0.9862
  392MOL0     O52786  11.395   7.250  11.155 -0.0695 -0.5277  0.4260
  392MOL0     C52787  11.320   7.180  11.214 -0.0152 -0.2606 -0.1961
  392MOL0     O52788  11.311   7.042  11.199  0.3593  0.7112  0.0307
  392MOL0     C52789  11.399   6.971  11.126 -0.2742  0.1948 -0.2860
  392MOL0     C52790  11.535   7.000  11.103  0.8097 -0.3456 -0.7367
  392MOL0     C52791  11.625   6.901  11.071  0.7022  0.2206  0.4785
  392MOL0     C52792  11.586   6.769  11.057 -0.0095  0.1602 -0.3262
  392MOL0     O52793  11.676   6.674  11.028 -1.3557 -0.4175 -0.2412
  392MOL0     C52794  11.670   6.545  11.085 -0.4118  0.3365  0.3934
  392MOL0     C52795  11.792   6.463  11.039 -0.3279 -0.5942 -0.0978
  392MOL0     C52796  11.925   6.527  11.093  1.2874  0.4514  1.0659
  392MOL0     C52797  12.043   6.428  11.065 -0.7511 -0.2124 -0.6130
  392MOL0     C52798  12.075   6.315  11.171  0.8302 -0.2305 -0.1325
  392MOL0     C52799  12.210   6.257  11.152  0.6181  0.2042 -0.1542
  392MOL0     C52800  12.247   6.189  11.284 -0.2131 -0.7889  0.7342
  392MOL0     C52801  12.365   6.093  11.266  0.2160  0.0034 -0.3133
  392MOL0     N52802  12.346   6.003  11.149 -0.2567 -0.7182 -0.0848
  392MOL0     C52803  12.239   5.924  11.125 -0.3225  0.1090  0.0928
  392MOL0     C52804  12.274   5.841  11.021 -0.0645  1.2801 -0.4647
  392MOL0     C52805  12.200   5.726  10.951 -0.7457  0.5939  0.5803
  392MOL0     C52806  12.090   5.752  10.850  0.2696 -0.2908  0.0971
  392MOL0     C52807  12.122   5.878  10.762 -0.1942  1.3907 -0.3649
  392MOL0     C52808  12.010   5.890  10.658 -0.0853 -0.8691 -0.4799
  392MOL0     O52809  12.043   5.827  10.531 -0.6759 -0.7512  0.1452
  392MOL0     C52810  11.978   5.849  10.406 -0.3856  0.0892 -0.3447
  392MOL0     C52811  11.846   5.821  10.384  0.4002 -0.1350 -0.1517
  392MOL0     C52812  11.784   5.837  10.265  0.6392  1.4918 -0.2601
  392MOL0     C52813  11.632   5.800  10.266 -0.4528 -0.6808 -0.4648
  392MOL0     C52814  11.856   5.885  10.155 -0.0139  0.1103  0.5745
  392MOL0     C52815  11.795   5.940  10.023  0.4463 -0.6386 -0.2890
  392MOL0     O52816  11.657   5.960  10.030  0.5085 -0.1641  1.2437
  392MOL0     C52817  11.579   6.030   9.931  0.1540  0.3387  0.2200
  392MOL0     C52818  11.438   6.038   9.949  0.0927 -0.5498 -0.1861
  392MOL0     C52819  11.354   6.101   9.865  0.5022  0.6098 -1.1453
  392MOL0     C52820  11.401   6.168   9.751 -0.6624 -0.5547  0.2663
  392MOL0     O52821  11.309   6.237   9.672  0.0087  0.1767 -0.4174
  392MOL0     C52822  11.272   6.166   9.552 -0.0981  0.2324 -0.3756
  392MOL0     C52823  11.211   6.251   9.448  0.2079 -0.1109  0.5409
  392MOL0     C52824  11.077   6.321   9.499 -0.1304 -0.2628  1.3107
  392MOL0     C52825  11.017   6.429   9.407  0.3325  0.2862 -0.0468
  392MOL0     C52826  10.904   6.392   9.318 -0.8904 -0.2174  0.7913
  392MOL0     C52827  10.770   6.397   9.400 -0.5899 -0.5720 -0.4225
  392MOL0     C52828  10.691   6.531   9.408 -0.5089 -0.5455 -0.3860
  392MOL0     C52829  10.567   6.524   9.494  0.3087 -0.4780  0.6729
  392MOL0    Cl52830  10.602   6.530   9.665  0.0193 -0.3058 -0.2003
  392MOL0     C52831  11.535   6.171   9.737 -0.5740 -0.0662 -0.7291
  392MOL0     C52832  11.626   6.098   9.820 -0.2355 -0.0754  0.5220
  392MOL0     O52833  11.871   5.968   9.928  0.1846  0.6032  0.1942
  392MOL0     C52834  11.992   5.906  10.181 -0.2668  1.0459  0.0456
  392MOL0     C52835  12.054   5.894  10.302 -0.1806  0.6355 -0.0843
  392MOL0     N52836  12.394   5.881  10.975 -0.1345  0.3257  0.7034
  392MOL0     N52837  12.444   5.964  11.054 -0.1922  0.5910  0.5847
  392MOL0     C52838  11.450   6.729  11.074 -1.2492 -0.8561  0.8277
  392MOL0     C52839  11.359   6.834  11.108  1.3440  0.2650 -0.6604
  392MOL0     C52840  11.204   7.242  11.286 -0.1347  0.6771 -0.2799
  392MOL0     C52841  11.094   7.163  11.317 -0.0940 -0.9239  0.0813
  392MOL0     C52842  10.995   7.230  11.395  0.0672 -0.1862 -0.1264
  392MOL0     C52843  10.998   7.363  11.425  0.7736 -0.0459 -0.5355
  392MOL0     O52844  10.889   7.412  11.507 -0.7709  0.2371  0.6946
  392MOL0     C52845  10.892   7.551  11.544  0.3293  0.1544  0.2434
  392MOL0     C52846  10.752   7.598  11.584  0.3868  0.2036  0.2175
  392MOL0     C52847  10.679   7.492  11.677  0.1809  0.0134 -0.1226
  392MOL0     C52848  10.584   7.577  11.769  0.6997 -0.1677  0.3890
  392MOL0     C52849  10.461   7.592  11.685 -0.6132 -0.4955 -0.0236
  392MOL0     C52850  10.363   7.608  11.618  0.1786  0.0800 -0.1082
  392MOL0     C52851  11.108   7.441  11.386  0.0843  0.8177 -0.0356
  392MOL0     C52852  11.215   7.379  11.318  0.1731  0.9108 -0.7913
  392MOL0     H52853  11.580   7.096  11.127 -0.3425  0.0472 -0.0776
  392MOL0     H52854  11.731   6.920  11.077  0.8484 -0.6187  0.6712
  392MOL0     H52855  11.673   6.544  11.195 -0.4825  1.2991  0.4145
  392MOL0     H52856  11.593   6.486  11.033 -3.2172  4.4527 -0.6393
  392MOL0     H52857  11.790   6.360  11.075 -0.0663 -0.2254  0.9976
  392MOL0     H52858  11.803   6.460  10.930  0.6013 -0.2115 -0.0225
  392MOL0     H52859  11.945   6.617  11.034  2.2621 -0.1851  0.3806
  392MOL0     H52860  11.899   6.557  11.195 -0.2502  1.1808  0.4869
  392MOL0     H52861  12.024   6.375  10.972 -3.9521  0.2372 -0.3246
  392MOL0     H52862  12.129   6.497  11.057 -0.5312 -0.5891 -1.6500
  392MOL0     H52863  12.083   6.363  11.269  1.0213 -1.8602  0.6951
  392MOL0     H52864  12.004   6.232  11.176 -1.5889  1.6867 -1.0345
  392MOL0     H52865  12.216   6.192  11.064  0.8030 -1.4263  1.0355
  392MOL0     H52866  12.287   6.334  11.140  1.2718 -0.6198 -1.4690
  392MOL0     H52867  12.283   6.268  11.351 -1.0289  0.2771 -0.0457
  392MOL0     H52868  12.166   6.134  11.333  2.0559 -4.2780  0.9153
  392MOL0     H52869  12.374   6.037  11.360 -0.1917  2.9930  1.6631
  392MOL0     H52870  12.457   6.148  11.248 -1.2671  3.3549  1.4352
  392MOL0     H52871  12.148   5.914  11.184  0.0332 -2.3377  0.3426
  392MOL0     H52872  12.281   5.671  10.902 -0.2990  1.7731 -0.0318
  392MOL0     H52873  12.140   5.661  11.016  0.4922 -1.9604 -0.6794
  392MOL0     H52874  11.996   5.762  10.904  0.4302 -0.8492  0.4788
  392MOL0     H52875  12.070   5.670  10.781  0.8724  1.1185 -1.8564
  392MOL0     H52876  12.219   5.865  10.712  1.5553 -1.9152  3.3163
  392MOL0     H52877  12.122   5.963  10.830 -1.0779  1.0687  0.0532
  392MOL0     H52878  11.997   5.998  10.642  0.8275 -0.8965 -1.4926
  392MOL0     H52879  11.917   5.840  10.687 -2.6888  2.8233 -1.5907
  392MOL0     H52880  11.793   5.795  10.475  2.6376 -1.1710  0.9485
  392MOL0     H52881  11.576   5.894  10.268  3.5765  2.0142 -1.1929
  392MOL0     H52882  11.609   5.751  10.171 -1.8053  2.1761 -1.7488
  392MOL0     H52883  11.605   5.742  10.355  2.1275 -1.0469  0.1720
  392MOL0     H52884  11.395   5.981  10.031 -2.4039 -3.2415 -3.1091
  392MOL0     H52885  11.251   6.118   9.896  1.0083  4.6404 -1.2115
  392MOL0     H52886  11.359   6.115   9.509 -0.9736 -1.7125  0.0166
  392MOL0     H52887  11.208   6.083   9.586  3.6674 -3.1722 -0.8091
  392MOL0     H52888  11.281   6.330   9.418 -0.7182  0.5580  0.0671
  392MOL0     H52889  11.185   6.190   9.361  2.0887  0.0835 -0.1992
  392MOL0     H52890  11.095   6.348   9.604 -1.0496 -1.9632  1.9557
  392MOL0     H52891  11.010   6.235   9.490  0.9171 -0.9138 -1.2736
  392MOL0     H52892  10.981   6.508   9.474 -1.0930  0.7609 -1.3309
  392MOL0     H52893  11.093   6.472   9.340 -1.8415  5.3800  0.2727
  392MOL0     H52894  10.924   6.297   9.267  0.9850 -0.3339  1.6800
  392MOL0     H52895  10.889   6.478   9.251 -2.9031 -0.0416  1.3892
  392MOL0     H52896  10.711   6.321   9.348 -0.7321  0.5026 -1.8922
  392MOL0     H52897  10.779   6.367   9.505 -2.6860 -1.8239 -0.5471
  392MOL0     H52898  10.665   6.564   9.307  1.8624 -0.3005 -0.9812
  392MOL0     H52899  10.754   6.615   9.439  0.7733 -0.6744 -2.4411
  392MOL0     H52900  10.510   6.432   9.479 -1.5467  0.7726 -0.3901
  392MOL0     H52901  10.491   6.599   9.470  0.0625 -0.5584  1.1876
  392MOL0     H52902  11.583   6.236   9.665 -2.0691  2.1000  0.1468
  392MOL0     H52903  11.734   6.097   9.807  0.0362 -2.3552  2.4015
  392MOL0     H52904  12.049   5.933  10.093  1.9114  1.0809  1.4142
  392MOL0     H52905  12.159   5.905  10.323  0.0874  0.9620 -1.4830
  392MOL0     H52906  11.422   6.626  11.058 -0.3843 -0.8944 -0.5812
  392MOL0     H52907  11.252   6.812  11.111  1.0038  0.3035 -5.4147
  392MOL0     H52908  11.086   7.061  11.281  1.2437 -1.3311  0.8630
  392MOL0     H52909  10.897   7.192  11.420 -0.2962  0.4792 -0.5041
  392MOL0     H52910  10.965   7.569  11.623 -0.3076  0.6881  0.7273
  392MOL0     H52911  10.928   7.597  11.452  1.9744 -3.1478 -0.9321
  392MOL0     H52912  10.699   7.605  11.489  2.8302 -0.5970 -1.2918
  392MOL0     H52913  10.777   7.693  11.632  2.7783 -1.1241  1.8561
  392MOL0     H52914  10.754   7.435  11.732 -0.5260 -1.8843 -1.0299
  392MOL0     H52915  10.626   7.418  11.616  2.7477 -1.3705 -0.8202
  392MOL0     H52916  10.610   7.681  11.791 -2.4509  0.8139 -0.0759
  392MOL0     H52917  10.560   7.511  11.852  1.3139 -1.3046 -0.3026
  392MOL0     H52918  10.268   7.622  11.570  0.0478 -0.5593 -0.0565
  392MOL0     H52919  11.119   7.548  11.399 -1.3222  1.0468 -0.6008
  392MOL0     H52920  11.305   7.427  11.282  3.0485 -2.5194  1.2150
  393MOL0     O52921   0.919   9.299  10.033 -0.0112  0.0338 -0.4878
  393MOL0     C52922   0.947   9.178  10.044  0.2536  0.2042  0.1933
  393MOL0     O52923   1.010   9.102   9.936  0.6433 -0.2249  0.6642
  393MOL0     C52924   1.033   9.176   9.820 -1.0700  0.2748  1.2168
  393MOL0     C52925   0.937   9.179   9.713  0.4834  0.2408 -0.0036
  393MOL0     C52926   0.959   9.255   9.597  0.5860 -0.0105 -0.2678
  393MOL0     C52927   1.093   9.303   9.586  0.2156 -0.1075  1.6711
  393MOL0     O52928   1.124   9.376   9.473  0.4966  0.3950 -0.5632
  393MOL0     C52929   1.045   9.368   9.356 -0.1559  0.9059 -0.0690
  393MOL0     C52930   1.121   9.420   9.237 -0.3787 -0.3783  0.5157
  393MOL0     C52931   1.063   9.366   9.098  0.6714  0.1162  0.3531
  393MOL0     C52932   0.960   9.459   9.024  0.1067  0.7415 -0.1706
  393MOL0     C52933   0.889   9.381   8.914  0.8215  0.1939  0.3939
  393MOL0     C52934   0.827   9.477   8.803  0.6368 -0.8037 -0.3596
  393MOL0     C52935   0.760   9.424   8.677 -0.5921  0.7036  0.4153
  393MOL0     C52936   0.608   9.377   8.687  0.5689 -0.6004  0.6550
  393MOL0     N52937   0.583   9.308   8.805 -0.3411  0.1118 -0.5250
  393MOL0     C52938   0.552   9.350   8.930  0.0656 -1.1915 -0.1023
  393MOL0     C52939   0.570   9.244   9.012  0.1957 -0.6895  0.1224
  393MOL0     C52940   0.547   9.240   9.161 -0.2172  0.7841  0.5281
  393MOL0     C52941   0.583   9.105   9.233 -0.4896  0.0490 -0.3186
  393MOL0     C52942   0.552   9.094   9.380  0.3660  0.1706 -0.2932
  393MOL0     C52943   0.611   8.960   9.431  0.6292 -0.4509  0.1020
  393MOL0     O52944   0.750   8.981   9.448  0.4269  0.5223 -0.2789
  393MOL0     C52945   0.820   8.883   9.517 -0.1098 -0.9948  0.3095
  393MOL0     C52946   0.941   8.916   9.554 -0.0643 -0.3047  0.4222
  393MOL0     C52947   1.030   8.831   9.612  0.0729 -0.6182 -0.8862
  393MOL0     C52948   1.173   8.880   9.607  1.0388  0.0786 -1.3148
  393MOL0     C52949   0.990   8.708   9.668  0.5976  0.1517  0.2636
  393MOL0     C52950   1.067   8.622   9.760 -0.5795 -0.0103  0.1594
  393MOL0     O52951   1.192   8.660   9.781  0.3538 -0.0404 -0.2994
  393MOL0     C52952   1.266   8.605   9.883 -0.3312  0.8311  0.9757
  393MOL0     C52953   1.384   8.542   9.848  0.4323 -0.1243  0.0984
  393MOL0     C52954   1.468   8.495   9.947 -0.0246  0.1128 -0.6260
  393MOL0     C52955   1.449   8.527  10.081  0.3338 -0.2091 -1.0263
  393MOL0     O52956   1.538   8.479  10.176  0.4215 -0.1892  0.1379
  393MOL0     C52957   1.610   8.579  10.254  0.3979  1.1483  0.5680
  393MOL0     C52958   1.721   8.508  10.333  0.1404 -0.1851  0.3981
  393MOL0     C52959   1.764   8.587  10.460 -0.3312  0.2733  0.2155
  393MOL0     C52960   1.702   8.529  10.593 -0.0909  0.4749  0.3965
  393MOL0     C52961   1.563   8.580  10.619 -0.8148  0.2034 -0.3776
  393MOL0     C52962   1.499   8.537  10.764 -0.3919 -0.2423  0.0668
  393MOL0     C52963   1.472   8.379  10.753 -0.1667 -0.2117  0.3194
  393MOL0     C52964   1.400   8.331  10.883 -0.0883  0.0894  0.8725
  393MOL0    Cl52965   1.230   8.387  10.881 -0.1909  0.0270 -0.1280
  393MOL0     C52966   1.338   8.607  10.117 -1.1598  0.7394 -0.2524
  393MOL0     C52967   1.250   8.646  10.015  0.7056 -0.0899 -0.0210
  393MOL0     O52968   1.015   8.519   9.804 -0.0825  0.0322 -0.3362
  393MOL0     C52969   0.859   8.681   9.635  0.4931  0.8283 -0.3311
  393MOL0     C52970   0.780   8.753   9.544 -0.6949  0.3920 -0.8029
  393MOL0     N52971   0.605   9.136   8.928 -0.3315 -0.0935 -0.4512
  393MOL0     N52972   0.598   9.175   8.805  0.1578  0.5137  0.3733
  393MOL0     C52973   1.192   9.291   9.679  0.5696  0.3312  0.2510
  393MOL0     C52974   1.160   9.231   9.795 -0.0626 -0.0376  0.1642
  393MOL0     C52975   0.916   9.101  10.176 -0.7424 -0.8696 -0.2673
  393MOL0     C52976   0.894   9.162  10.298  0.7418 -0.8321 -0.7217
  393MOL0     C52977   0.828   9.101  10.403 -0.2244  1.3514  0.0430
  393MOL0     C52978   0.792   8.965  10.392  0.4478  0.3131  1.2450
  393MOL0     O52979   0.706   8.904  10.480 -0.2679  1.1214 -0.5714
  393MOL0     C52980   0.743   8.767  10.518 -0.3718 -0.6900 -0.6229
  393MOL0     C52981   0.666   8.750  10.654 -0.4155 -0.9679  0.3293
  393MOL0     C52982   0.738   8.634  10.722 -0.1904  0.1762 -0.4204
  393MOL0     C52983   0.689   8.612  10.867  0.0581 -0.4598  0.7196
  393MOL0     C52984   0.768   8.510  10.933 -0.2041  0.0168 -1.0611
  393MOL0     C52985   0.833   8.410  10.971  0.4630  0.3714 -0.4233
  393MOL0     C52986   0.818   8.895  10.270 -0.4898  0.8092 -0.4535
  393MOL0     C52987   0.883   8.967  10.168 -0.2316 -0.5091  1.0108
  393MOL0     H52988   0.850   9.117   9.729 -0.2668  1.1555 -0.4580
  393MOL0     H52989   0.880   9.255   9.522  2.3271  2.5766 -2.2907
  393MOL0     H52990   1.026   9.263   9.331 -1.6851  1.7835 -3.1241
  393MOL0     H52991   0.956   9.431   9.362 -2.3873 -1.9857 -0.6509
  393MOL0     H52992   1.127   9.529   9.237  7.5720 -0.2173  2.3339
  393MOL0     H52993   1.227   9.395   9.247  0.3909  1.7247 -1.6181
  393MOL0     H52994   1.147   9.329   9.038  0.0814 -2.1087  0.8005
  393MOL0     H52995   1.002   9.277   9.118  1.9375 -1.2082 -1.3869
  393MOL0     H52996   0.885   9.493   9.097  1.9164  0.9062  1.7210
  393MOL0     H52997   1.008   9.545   8.978 -1.7359  1.4976 -0.7909
  393MOL0     H52998   0.968   9.315   8.876 -0.9697 -0.8113 -1.8728
  393MOL0     H52999   0.814   9.310   8.950 -0.0127  0.2197 -1.2099
  393MOL0     H53000   0.743   9.530   8.848 -0.7866 -2.8380 -0.4404
  393MOL0     H53001   0.892   9.555   8.761  0.4322 -0.2058  0.4227
  393MOL0     H53002   0.762   9.500   8.598 -3.8643  3.1887  2.4549
  393MOL0     H53003   0.809   9.329   8.653 -2.5851  0.2643 -2.6078
  393MOL0     H53004   0.575   9.326   8.595 -1.3712 -0.2662  1.1359
  393MOL0     H53005   0.553   9.470   8.676  0.3883 -0.5994  1.5527
  393MOL0     H53006   0.516   9.446   8.964 -1.0112 -1.4285 -0.5335
  393MOL0     H53007   0.592   9.323   9.216  4.2923 -1.5078  0.7231
  393MOL0     H53008   0.440   9.248   9.186 -0.7210 -0.5556 -0.9870
  393MOL0     H53009   0.691   9.083   9.231 -0.3653  0.2540  1.8226
  393MOL0     H53010   0.522   9.027   9.186 -1.3142 -0.0483  0.8771
  393MOL0     H53011   0.443   9.088   9.386  0.3691  0.1141 -0.2978
  393MOL0     H53012   0.599   9.178   9.432 -1.9761  2.0288 -0.9770
  393MOL0     H53013   0.590   8.867   9.378  1.1176 -1.1097  1.0372
  393MOL0     H53014   0.572   8.938   9.531  3.9495 -1.9778  1.2138
  393MOL0     H53015   0.972   9.014   9.519  1.6446 -0.8621  0.2736
  393MOL0     H53016   1.220   8.893   9.705  1.0644 -1.0691 -1.1649
  393MOL0     H53017   1.220   8.806   9.542  1.1367 -1.2395  0.2137
  393MOL0     H53018   1.183   8.977   9.557 -1.2297  1.2004  0.2327
  393MOL0     H53019   1.401   8.516   9.744 -1.2302 -2.5399  0.3448
  393MOL0     H53020   1.550   8.435   9.909  1.6221  1.3955  0.7321
  393MOL0     H53021   1.657   8.647  10.183 -0.3686  0.6513 -0.4421
  393MOL0     H53022   1.539   8.635  10.316 -0.1006  0.9056  0.2205
  393MOL0     H53023   1.680   8.415  10.372 -3.2827  2.2980  3.4340
  393MOL0     H53024   1.803   8.493  10.263  1.0477 -1.8095  1.7605
  393MOL0     H53025   1.733   8.692  10.463 -0.0042  0.4664 -1.8368
  393MOL0     H53026   1.872   8.572  10.471 -0.4725 -2.6745 -1.4427
  393MOL0     H53027   1.697   8.420  10.589 -1.7116  0.4328  2.0644
  393MOL0     H53028   1.762   8.570  10.674 -2.1328 -0.5447  2.5352
  393MOL0     H53029   1.484   8.551  10.549  0.3045  2.2997 -2.6622
  393MOL0     H53030   1.559   8.689  10.616 -1.6322  0.1692 -1.8995
  393MOL0     H53031   1.573   8.555  10.843 -2.0026  0.0757  1.5546
  393MOL0     H53032   1.403   8.586  10.779 -0.8631 -0.3511 -2.2835
  393MOL0     H53033   1.556   8.312  10.734 -1.1185 -0.6409 -2.9133
  393MOL0     H53034   1.412   8.352  10.666 -0.6083 -2.7389  1.3383
  393MOL0     H53035   1.464   8.365  10.965  2.7230 -3.2957  0.3206
  393MOL0     H53036   1.404   8.222  10.885  2.9847  0.0646 -0.7187
  393MOL0     H53037   1.314   8.631  10.220 -3.3119 -0.0559 -0.5183
  393MOL0     H53038   1.169   8.712  10.044 -0.0451  0.8070 -3.6484
  393MOL0     H53039   0.813   8.592   9.677  3.0137 -1.5973 -2.3763
  393MOL0     H53040   0.683   8.719   9.509 -1.2486  0.0262  0.9593
  393MOL0     H53041   1.285   9.348   9.675  0.4321  0.4734 -3.0540
  393MOL0     H53042   1.219   9.217   9.886  1.3528 -1.0555 -0.8583
  393MOL0     H53043   0.912   9.267  10.315  2.2013 -1.1610 -0.0393
  393MOL0     H53044   0.798   9.161  10.489  0.7124  1.6452  0.1820
  393MOL0     H53045   0.716   8.696  10.439  2.4703 -3.0486  0.3697
  393MOL0     H53046   0.850   8.769  10.540 -0.7370 -2.0315  1.6573
  393MOL0     H53047   0.560   8.730  10.639 -0.7730  1.4106 -0.7814
  393MOL0     H53048   0.677   8.843  10.711  3.7219 -0.7696 -0.4162
  393MOL0     H53049   0.847   8.642  10.716  0.0783  0.0395  2.5666
  393MOL0     H53050   0.707   8.540  10.675  2.7274 -1.0707 -0.1203
  393MOL0     H53051   0.585   8.576  10.876 -0.7361  1.4278 -0.3591
  393MOL0     H53052   0.703   8.709  10.916  0.2943  1.3066 -2.5726
  393MOL0     H53053   0.909   8.337  10.993  0.6916  0.8208  0.3125
  393MOL0     H53054   0.780   8.794  10.258 -3.4347  1.7366  0.2200
  393MOL0     H53055   0.896   8.937  10.064  0.3570 -0.0442  0.9453
  394MOL0     O53056   5.218  10.653   3.379  0.3202 -0.6186 -0.0526
  394MOL0     C53057   5.331  10.698   3.391  1.8249  0.7604  0.3413
  394MOL0     O53058   5.377  10.806   3.322  0.2926 -0.4419 -0.0758
  394MOL0     C53059   5.292  10.872   3.237 -0.9830  0.4888  0.9618
  394MOL0     C53060   5.249  10.998   3.257  0.3716 -0.6990 -0.4866
  394MOL0     C53061   5.163  11.057   3.167  0.0653  0.8094  0.5446
  394MOL0     C53062   5.126  10.988   3.049  1.1252  0.4203 -0.2749
  394MOL0     O53063   5.049  11.042   2.958  0.7369 -0.7849  0.0472
  394MOL0     C53064   4.962  11.147   3.011 -0.0675  0.3911 -0.6202
  394MOL0     C53065   4.843  11.171   2.912 -0.1044 -0.2712 -0.5638
  394MOL0     C53066   4.885  11.239   2.784  0.1762 -0.7098  0.7013
  394MOL0     C53067   4.768  11.277   2.703  0.0731  0.0127 -0.5949
  394MOL0     C53068   4.805  11.342   2.569  0.0144  0.0553 -0.7037
  394MOL0     C53069   4.672  11.399   2.506 -0.6703  0.0461 -0.5700
  394MOL0     C53070   4.701  11.475   2.380 -0.1397  0.1842  0.4378
  394MOL0     C53071   4.726  11.384   2.265  0.2684  0.1087  1.0286
  394MOL0     N53072   4.745  11.473   2.150 -0.0946  0.8312  0.5637
  394MOL0     C53073   4.638  11.534   2.090 -0.6021  0.0915  0.5515
  394MOL0     C53074   4.697  11.611   1.988  0.3565  0.5937 -0.0690
  394MOL0     C53075   4.627  11.682   1.877  0.5700  0.1266 -0.2466
  394MOL0     C53076   4.527  11.790   1.922  0.4816 -0.1494 -0.8269
  394MOL0     C53077   4.569  11.896   2.025 -0.4196  0.3847  0.1244
  394MOL0     C53078   4.690  11.987   1.979  0.0885  0.2046 -0.3298
  394MOL0     O53079   4.632  12.069   1.880  0.5311  0.1218 -0.1570
  394MOL0     C53080   4.712  12.162   1.815  0.2777  0.1993  1.1683
  394MOL0     C53081   4.852  12.175   1.824 -0.5532 -0.1618 -0.7969
  394MOL0     C53082   4.933  12.282   1.776 -0.4685 -0.1309  0.3386
  394MOL0     C53083   5.076  12.281   1.817 -0.3300  0.4216 -1.0428
  394MOL0     C53084   4.864  12.367   1.683 -0.8397  0.0775 -0.6409
  394MOL0     C53085   4.937  12.474   1.605 -0.8843  0.6892  0.1298
  394MOL0     O53086   4.891  12.518   1.481 -0.1966  0.4935 -1.4944
  394MOL0     C53087   4.949  12.623   1.422  0.2128 -0.3856  1.2057
  394MOL0     C53088   4.867  12.734   1.389  0.2096 -0.5940  0.4575
  394MOL0     C53089   4.902  12.831   1.292 -0.2583  0.7430 -0.6426
  394MOL0     C53090   5.031  12.828   1.237  0.4123 -0.3696 -0.8763
  394MOL0     O53091   5.067  12.914   1.139 -0.3071  0.6373  0.3364
  394MOL0     C53092   5.009  13.053   1.138  0.1029 -0.1410 -0.2132
  394MOL0     C53093   5.112  13.144   1.056 -0.1252 -0.0439 -0.1310
  394MOL0     C53094   5.270  13.119   1.080  0.8559  0.7035 -0.4564
  394MOL0     C53095   5.299  13.162   1.225  0.3580 -0.2930  0.6525
  394MOL0     C53096   5.404  13.273   1.208  0.3174  0.3634 -0.4242
  394MOL0     C53097   5.419  13.341   1.350  0.1976 -0.0773 -0.4684
  394MOL0     C53098   5.306  13.442   1.384 -0.7565 -0.8656 -0.4964
  394MOL0     C53099   5.340  13.514   1.523  0.5624 -0.4154 -0.1101
  394MOL0    Cl53100   5.371  13.676   1.499  0.2429 -0.0929  0.6353
  394MOL0     C53101   5.119  12.727   1.285  0.6368 -0.4295 -0.2781
  394MOL0     C53102   5.076  12.618   1.371  0.0072 -0.5900 -0.4150
  394MOL0     O53103   5.048  12.503   1.648  0.0301  0.3632  0.3046
  394MOL0     C53104   4.727  12.353   1.664 -0.1868  0.4236 -0.7055
  394MOL0     C53105   4.649  12.261   1.729  1.0422 -0.1640 -0.2763
  394MOL0     N53106   4.833  11.597   1.998 -0.3838  0.0799 -1.0733
  394MOL0     N53107   4.861  11.515   2.092  0.8941 -0.1977 -0.5011
  394MOL0     C53108   5.161  10.858   3.033 -1.0003 -0.1042 -0.1551
  394MOL0     C53109   5.255  10.808   3.117  0.0159 -0.2408 -0.0751
  394MOL0     C53110   5.422  10.614   3.477 -0.5813 -0.1485  0.0234
  394MOL0     C53111   5.557  10.646   3.489  0.4506 -0.5778  0.5428
  394MOL0     C53112   5.647  10.586   3.574  0.7307  0.2815  0.7491
  394MOL0     C53113   5.596  10.474   3.642 -1.1736 -0.6015 -0.2207
  394MOL0     O53114   5.692  10.421   3.727  0.5133 -0.3096  0.2005
  394MOL0     C53115   5.657  10.302   3.800 -0.6853  0.2210 -0.3399
  394MOL0     C53116   5.782  10.244   3.875  0.6564 -0.3557  0.7092
  394MOL0     C53117   5.838  10.341   3.973 -0.3353 -0.5179  0.7807
  394MOL0     C53118   5.947  10.285   4.059 -0.2143  0.3221 -1.2837
  394MOL0     C53119   6.082  10.302   3.995  0.6607  0.7614 -0.0992
  394MOL0     C53120   6.192  10.302   3.949  0.0981  0.1854 -0.0072
  394MOL0     C53121   5.466  10.421   3.620  0.3926  0.8251  0.6482
  394MOL0     C53122   5.381  10.498   3.537 -0.7895 -0.1050 -0.3013
  394MOL0     H53123   5.286  11.053   3.344  1.5625  1.3214 -2.1733
  394MOL0     H53124   5.119  11.154   3.188 -2.6991  0.1951 -1.7323
  394MOL0     H53125   4.922  11.111   3.107 -0.8072 -2.6527 -1.9490
  394MOL0     H53126   5.017  11.238   3.033  1.7061 -0.2685 -2.0913
  394MOL0     H53127   4.789  11.077   2.894 -0.4898 -1.1482  4.0478
  394MOL0     H53128   4.771  11.234   2.963 -2.1671 -3.0839  0.2351
  394MOL0     H53129   4.942  11.329   2.808  1.5678 -1.7511  1.4494
  394MOL0     H53130   4.951  11.168   2.732 -0.1533 -1.1689  0.9024
  394MOL0     H53131   4.703  11.193   2.672  1.5951  0.1031 -4.6586
  394MOL0     H53132   4.714  11.351   2.762  2.1122  0.3735  0.9015
  394MOL0     H53133   4.872  11.426   2.593 -1.8491  2.4479 -3.2156
  394MOL0     H53134   4.854  11.267   2.507  0.3489  0.5812 -1.0784
  394MOL0     H53135   4.602  11.317   2.489  2.5638 -2.8636 -1.0305
  394MOL0     H53136   4.623  11.469   2.574 -0.0657  0.1197 -0.2049
  394MOL0     H53137   4.617  11.541   2.356 -0.1178 -0.1237 -0.5470
  394MOL0     H53138   4.789  11.536   2.401  0.0786  0.6618 -1.6413
  394MOL0     H53139   4.634  11.326   2.258  0.3834 -0.1341  1.4650
  394MOL0     H53140   4.809  11.313   2.271  0.3256  0.1439  0.6823
  394MOL0     H53141   4.533  11.510   2.105 -0.7950  0.1469 -0.6017
  394MOL0     H53142   4.692  11.731   1.803 -1.4028 -0.2137 -2.3137
  394MOL0     H53143   4.564  11.611   1.824 -2.4633  3.0468 -0.8684
  394MOL0     H53144   4.435  11.741   1.956 -0.9270  2.3727 -0.7751
  394MOL0     H53145   4.485  11.842   1.836 -1.6403  1.5203  1.0783
  394MOL0     H53146   4.602  11.840   2.113  1.4705  1.3741  0.0906
  394MOL0     H53147   4.487  11.966   2.048 -0.4150  1.2886 -2.2722
  394MOL0     H53148   4.763  11.916   1.937  0.1130  1.4323 -2.5127
  394MOL0     H53149   4.724  12.047   2.063 -0.2826 -1.3150  0.9662
  394MOL0     H53150   4.917  12.112   1.885 -0.6862  3.3462  3.4331
  394MOL0     H53151   5.098  12.223   1.908 -1.3139  0.4292 -0.7931
  394MOL0     H53152   5.129  12.233   1.734 -0.4733 -1.8758  0.0911
  394MOL0     H53153   5.112  12.383   1.835 -1.3677  1.2137 -3.2041
  394MOL0     H53154   4.768  12.724   1.431 -0.4842 -0.9372 -1.1793
  394MOL0     H53155   4.826  12.901   1.257 -0.5077  1.0216  0.4339
  394MOL0     H53156   4.910  13.069   1.095  0.8581  2.6324 -1.1553
  394MOL0     H53157   5.016  13.092   1.240  2.8657  0.8509 -0.6844
  394MOL0     H53158   5.093  13.131   0.949  0.4589 -2.2354 -0.0171
  394MOL0     H53159   5.090  13.250   1.073 -1.3398  0.0333 -1.9106
  394MOL0     H53160   5.333  13.176   1.010 -1.5967  2.2304 -1.5776
  394MOL0     H53161   5.281  13.011   1.067  0.6826  0.9539 -3.4804
  394MOL0     H53162   5.211  13.197   1.280  1.6035  2.7408  0.9508
  394MOL0     H53163   5.355  13.087   1.281  1.6294 -0.6721 -1.0465
  394MOL0     H53164   5.387  13.346   1.127  3.8044  2.3892  0.4407
  394MOL0     H53165   5.495  13.222   1.176  0.2382 -0.4685  0.6501
  394MOL0     H53166   5.426  13.264   1.427  1.0509  2.7974  2.5051
  394MOL0     H53167   5.513  13.394   1.335 -2.1019  4.9431  0.8398
  394MOL0     H53168   5.213  13.384   1.397 -0.1374 -1.7442  0.1653
  394MOL0     H53169   5.287  13.515   1.305  1.0002  1.2116  0.8995
  394MOL0     H53170   5.427  13.472   1.573  0.5545  0.4992  0.6891
  394MOL0     H53171   5.256  13.505   1.593 -0.9590 -0.1799 -1.8268
  394MOL0     H53172   5.209  12.712   1.227  0.3220  0.6843 -1.1058
  394MOL0     H53173   5.152  12.545   1.396  3.3539  2.1677 -1.7193
  394MOL0     H53174   4.681  12.415   1.588  2.3543  1.0692 -1.8317
  394MOL0     H53175   4.541  12.266   1.721  0.9045  0.6273  1.4913
  394MOL0     H53176   5.121  10.802   2.949 -1.8227  0.8476 -0.4221
  394MOL0     H53177   5.277  10.702   3.106 -0.9101 -0.3671 -0.7896
  394MOL0     H53178   5.595  10.723   3.422  1.4805 -2.2998 -0.9457
  394MOL0     H53179   5.751  10.613   3.588  0.4993  1.2467  0.6735
  394MOL0     H53180   5.580  10.326   3.874  2.1890  1.2559  2.5720
  394MOL0     H53181   5.629  10.223   3.730  1.8320 -1.1139  0.0309
  394MOL0     H53182   5.853  10.211   3.798  3.5224  2.7991  1.7531
  394MOL0     H53183   5.741  10.153   3.919  0.0777 -2.0268 -2.8934
  394MOL0     H53184   5.757  10.371   4.041 -0.5785  0.7799 -0.0354
  394MOL0     H53185   5.857  10.432   3.915  1.1003  0.1578  2.2372
  394MOL0     H53186   5.929  10.179   4.073 -3.0545  0.9325  0.4837
  394MOL0     H53187   5.954  10.330   4.159  2.3047 -1.0427 -0.7657
  394MOL0     H53188   6.297  10.298   3.924  0.0849 -0.7587  0.0662
  394MOL0     H53189   5.426  10.339   3.678  3.4001 -1.2019  0.0712
  394MOL0     H53190   5.281  10.456   3.532 -2.2063  2.6986  1.5611
  395MOL0     O53191   1.690   0.856   0.862  0.1843  0.2711 -0.0793
  395MOL0     C53192   1.811   0.841   0.834  0.6847 -0.0954 -0.1586
  395MOL0     O53193   1.918   0.887   0.914  0.3624 -0.6269 -0.3630
  395MOL0     C53194   1.885   0.930   1.044  0.7647 -0.3100  0.7574
  395MOL0     C53195   1.855   1.061   1.087 -0.1947 -0.1927 -0.8049
  395MOL0     C53196   1.809   1.085   1.220 -0.2541 -0.1822 -0.1169
  395MOL0     C53197   1.805   0.986   1.313 -1.0680  0.1648 -0.5536
  395MOL0     O53198   1.770   1.026   1.447  0.0603 -0.1660  0.2372
  395MOL0     C53199   1.726   0.922   1.535 -0.3731  0.6650 -0.0605
  395MOL0     C53200   1.839   0.852   1.614 -0.0765  0.4285  0.1148
  395MOL0     C53201   1.786   0.740   1.707  0.2440 -0.6858 -0.2972
  395MOL0     C53202   1.899   0.679   1.802  0.0613  0.2114  0.9093
  395MOL0     C53203   1.849   0.561   1.894 -0.3692  0.2213 -0.2273
  395MOL0     C53204   1.738   0.607   1.978  0.5240 -0.3889 -1.3721
  395MOL0     C53205   1.705   0.507   2.097  0.2691  0.3047  0.3568
  395MOL0     C53206   1.620   0.393   2.043  0.7995 -0.6662 -0.4757
  395MOL0     N53207   1.538   0.327   2.144 -0.2046  0.0675 -0.1962
  395MOL0     C53208   1.441   0.387   2.221 -1.6056  0.3785  0.2374
  395MOL0     C53209   1.399   0.288   2.293  0.7106  0.5263 -0.3686
  395MOL0     C53210   1.267   0.282   2.377 -0.6052  0.2932  0.0293
  395MOL0     C53211   1.234   0.135   2.415 -0.2454 -0.2866  0.8950
  395MOL0     C53212   1.182   0.049   2.297 -0.1352  0.3726  0.8776
  395MOL0     C53213   1.206  -0.102   2.313 -0.1395  0.0371 -0.1217
  395MOL0     O53214   1.147  -0.151   2.435  0.7549  0.1808 -0.4281
  395MOL0     C53215   1.224  -0.240   2.513 -1.4479  0.7060 -0.0508
  395MOL0     C53216   1.190  -0.375   2.522  0.4121 -0.7481 -0.9915
  395MOL0     C53217   1.272  -0.472   2.575  0.0325 -0.8514  0.0991
  395MOL0     C53218   1.229  -0.620   2.562 -0.3534  0.4751 -0.1776
  395MOL0     C53219   1.398  -0.423   2.626 -0.5399 -0.0949 -0.5579
  395MOL0     C53220   1.499  -0.506   2.699 -0.2155 -0.5123  0.9548
  395MOL0     O53221   1.619  -0.448   2.731 -0.5915  0.1298  0.3996
  395MOL0     C53222   1.729  -0.518   2.772 -0.2846  0.1553 -0.7641
  395MOL0     C53223   1.742  -0.657   2.753 -0.1455 -0.0725  0.8955
  395MOL0     C53224   1.856  -0.722   2.783 -0.3420  0.6304 -0.1976
  395MOL0     C53225   1.954  -0.656   2.853  0.3077 -0.2220  0.4211
  395MOL0     O53226   2.075  -0.711   2.883 -0.5645 -0.3873 -0.5510
  395MOL0     C53227   2.101  -0.837   2.952 -0.2174 -0.0718  0.6031
  395MOL0     C53228   2.239  -0.888   2.923  1.0908 -1.1698  0.0324
  395MOL0     C53229   2.266  -1.030   2.979  1.1850  0.7866  0.1014
  395MOL0     C53230   2.416  -1.056   3.001 -0.1833 -0.2724  1.2675
  395MOL0     C53231   2.451  -1.048   3.151  0.8223 -0.3480  0.0552
  395MOL0     C53232   2.407  -1.159   3.243  0.6468 -1.0074 -0.2282
  395MOL0     C53233   2.467  -1.144   3.376 -0.2647 -0.4975 -0.2457
  395MOL0     C53234   2.453  -1.264   3.470  0.7610  0.1172  0.2491
  395MOL0    Cl53235   2.559  -1.404   3.401 -0.1343 -0.7918  0.6731
  395MOL0     C53236   1.941  -0.522   2.880  0.5058  0.3676 -0.9417
  395MOL0     C53237   1.831  -0.449   2.839  0.1158 -0.0454 -0.1521
  395MOL0     O53238   1.451  -0.607   2.751 -0.8145  0.0738 -0.1071
  395MOL0     C53239   1.429  -0.290   2.610  0.0257 -0.4503  0.7412
  395MOL0     C53240   1.346  -0.199   2.563 -0.2978  0.4081  0.3781
  395MOL0     N53241   1.486   0.182   2.277  0.1397  0.2557 -0.0565
  395MOL0     N53242   1.565   0.205   2.184 -0.0171 -0.1496 -0.0684
  395MOL0     C53243   1.823   0.861   1.264  0.0634  0.3125 -0.3979
  395MOL0     C53244   1.863   0.832   1.142 -0.4372 -0.0610  0.5232
  395MOL0     C53245   1.857   0.785   0.704  0.4805  1.0421  0.1866
  395MOL0     C53246   1.986   0.806   0.658 -0.0713 -0.9206  0.2307
  395MOL0     C53247   2.014   0.754   0.539 -0.5009 -0.5086 -0.2558
  395MOL0     C53248   1.928   0.675   0.461  0.3256  0.4057  0.2598
  395MOL0     O53249   1.957   0.625   0.337  0.1642  0.0477  0.0853
  395MOL0     C53250   2.094   0.609   0.295 -0.0528 -0.2551  0.4578
  395MOL0     C53251   2.089   0.520   0.171  0.6091 -0.1614  1.1038
  395MOL0     C53252   2.038   0.596   0.048  0.0072  0.1532 -0.1552
  395MOL0     C53253   2.123   0.598  -0.078 -0.6746  0.0546  0.0801
  395MOL0     C53254   2.103   0.712  -0.168 -0.2872  0.7725 -0.4107
  395MOL0     C53255   2.104   0.817  -0.229 -0.2162 -0.6448 -0.7223
  395MOL0     C53256   1.799   0.655   0.510  0.7064  0.3518  0.6515
  395MOL0     C53257   1.768   0.709   0.628 -0.1667  0.4285 -0.4666
  395MOL0     H53258   1.874   1.150   1.027  2.6127 -0.0818  0.1249
  395MOL0     H53259   1.781   1.181   1.264 -0.4418 -0.5081  0.4931
  395MOL0     H53260   1.662   0.971   1.610  0.9418  1.5247  0.5312
  395MOL0     H53261   1.658   0.854   1.483  0.1503  0.8311 -0.9826
  395MOL0     H53262   1.911   0.817   1.540  0.1249 -0.7549  0.8309
  395MOL0     H53263   1.904   0.921   1.668  2.5294 -0.1657 -2.0303
  395MOL0     H53264   1.706   0.783   1.768 -0.3803 -0.7880 -1.0313
  395MOL0     H53265   1.743   0.662   1.644 -1.3336  1.2532 -1.7717
  395MOL0     H53266   1.984   0.643   1.743 -0.4581 -0.8029  0.7702
  395MOL0     H53267   1.929   0.770   1.857 -1.0651  1.7292 -0.8767
  395MOL0     H53268   1.810   0.492   1.819 -1.9393  0.5783  0.2273
  395MOL0     H53269   1.932   0.514   1.949 -0.1213 -1.6512 -2.0871
  395MOL0     H53270   1.756   0.711   2.007  2.1185 -0.3898 -2.2417
  395MOL0     H53271   1.651   0.620   1.913  0.3847  0.5347 -1.0157
  395MOL0     H53272   1.780   0.463   2.164  0.4026 -1.1001 -0.6721
  395MOL0     H53273   1.635   0.562   2.159  0.3836  0.6429  0.1884
  395MOL0     H53274   1.688   0.315   2.006  1.5377 -1.2706  1.9807
  395MOL0     H53275   1.567   0.419   1.951  0.7880 -2.3380 -0.9895
  395MOL0     H53276   1.392   0.484   2.213  0.3900  1.4474  0.4535
  395MOL0     H53277   1.291   0.344   2.464  2.1044 -0.6866  0.1090
  395MOL0     H53278   1.186   0.333   2.325 -0.0817  2.6625  1.3982
  395MOL0     H53279   1.154   0.143   2.490 -1.3464 -0.8804 -0.1847
  395MOL0     H53280   1.317   0.085   2.466  1.6416  2.9677  1.2625
  395MOL0     H53281   1.227   0.077   2.201  5.4612 -1.8149  2.4300
  395MOL0     H53282   1.073   0.048   2.296 -0.1375 -0.3757 -0.4395
  395MOL0     H53283   1.315  -0.105   2.312 -0.1372 -0.4222  0.7381
  395MOL0     H53284   1.169  -0.150   2.221  2.4081 -0.0250 -1.1888
  395MOL0     H53285   1.094  -0.396   2.475  0.4377 -0.1362 -1.3313
  395MOL0     H53286   1.181  -0.625   2.464 -2.0231  0.8607  0.5928
  395MOL0     H53287   1.318  -0.684   2.561  0.6947  1.8174  1.7069
  395MOL0     H53288   1.162  -0.659   2.639  0.3925  1.2006  0.8710
  395MOL0     H53289   1.668  -0.720   2.706  1.0928 -3.4183  3.0318
  395MOL0     H53290   1.874  -0.825   2.753 -0.9754 -0.3257  2.4132
  395MOL0     H53291   2.079  -0.824   3.058  4.2711  0.7220  1.6358
  395MOL0     H53292   2.030  -0.909   2.909 -2.9620  2.3323  0.8284
  395MOL0     H53293   2.270  -0.873   2.819  1.3410  2.5193  0.4850
  395MOL0     H53294   2.303  -0.823   2.984  0.4068 -0.9111  0.4753
  395MOL0     H53295   2.227  -1.105   2.909 -0.8783 -0.0051  1.9596
  395MOL0     H53296   2.208  -1.033   3.072  0.1976 -0.1203 -0.5136
  395MOL0     H53297   2.449  -1.156   2.972 -3.4794 -0.9758 -0.5831
  395MOL0     H53298   2.450  -0.964   2.951 -4.7482  1.1823  0.3769
  395MOL0     H53299   2.414  -0.952   3.188 -1.3110 -0.7827 -0.8088
  395MOL0     H53300   2.561  -1.047   3.149  0.8166  0.2461 -1.5713
  395MOL0     H53301   2.299  -1.155   3.257  1.0059 -0.9055  3.5080
  395MOL0     H53302   2.440  -1.253   3.196 -0.2710 -0.0263 -3.0806
  395MOL0     H53303   2.418  -1.061   3.428  0.5141 -0.4065  0.3641
  395MOL0     H53304   2.573  -1.116   3.378  0.4137 -2.8422  1.6670
  395MOL0     H53305   2.349  -1.288   3.491  0.4625 -1.3193 -2.4852
  395MOL0     H53306   2.487  -1.230   3.568 -2.0587 -2.9254  2.5211
  395MOL0     H53307   2.006  -0.465   2.945 -1.4694 -1.7385  3.3012
  395MOL0     H53308   1.819  -0.348   2.878 -0.6722 -1.5575  4.0268
  395MOL0     H53309   1.526  -0.252   2.642 -1.1835  2.5203  1.1723
  395MOL0     H53310   1.393  -0.102   2.551  0.7472 -0.0465  0.7427
  395MOL0     H53311   1.790   0.775   1.323  0.6392  0.0164 -0.4997
  395MOL0     H53312   1.869   0.728   1.110 -3.3568 -0.3109  0.5685
  395MOL0     H53313   2.060   0.854   0.721 -2.8805 -0.5966  3.6006
  395MOL0     H53314   2.113   0.773   0.498  0.2002  1.9881  2.3216
  395MOL0     H53315   2.129   0.709   0.268  0.3368  0.2987  2.8187
  395MOL0     H53316   2.158   0.564   0.372 -1.7684 -0.3068  1.9245
  395MOL0     H53317   2.014   0.441   0.183 -1.4728  1.6851  0.6965
  395MOL0     H53318   2.187   0.474   0.151  1.9190  2.9452 -0.1689
  395MOL0     H53319   2.011   0.695   0.085 -2.1534 -1.1568  2.0478
  395MOL0     H53320   1.938   0.562   0.021  0.2440 -0.0140 -0.8557
  395MOL0     H53321   2.110   0.509  -0.140  0.8715  0.2478 -0.5751
  395MOL0     H53322   2.230   0.603  -0.052 -1.4110 -0.7592  3.7992
  395MOL0     H53323   2.106   0.896  -0.301  1.2674 -2.8961 -3.3431
  395MOL0     H53324   1.746   0.603   0.431  2.1693 -0.1677 -0.0343
  395MOL0     H53325   1.675   0.681   0.676  0.5998  0.6972  1.2525
  396MOL0     O53326   3.537   3.159   8.209  0.2323  0.1147  0.6334
  396MOL0     C53327   3.582   3.211   8.103  0.4500  0.6644 -0.7443
  396MOL0     O53328   3.704   3.191   8.065 -0.1305  0.2672  0.0819
  396MOL0     C53329   3.805   3.132   8.142 -0.2895  0.6602 -0.7238
  396MOL0     C53330   3.893   3.206   8.218 -0.4065 -0.0874 -0.4275
  396MOL0     C53331   4.000   3.138   8.272 -0.8479 -0.2791 -1.0021
  396MOL0     C53332   4.021   3.008   8.242 -0.3305 -0.4982 -0.4401
  396MOL0     O53333   4.132   2.940   8.282  0.6998  0.4357 -0.2308
  396MOL0     C53334   4.253   3.005   8.327 -0.4022  0.2946  0.3679
  396MOL0     C53335   4.323   3.089   8.231  0.5689 -0.2113  0.2514
  396MOL0     C53336   4.469   3.105   8.270 -0.8211 -0.4784  0.3405
  396MOL0     C53337   4.572   2.995   8.227  2.0318 -0.0003  0.0160
  396MOL0     C53338   4.720   3.024   8.238 -0.3217  0.0466 -0.0452
  396MOL0     C53339   4.779   3.036   8.389  0.4330 -0.4405 -0.0024
  396MOL0     C53340   4.729   2.938   8.490 -0.3280 -0.9467 -0.3249
  396MOL0     C53341   4.753   2.798   8.450  0.3332  1.0831 -0.3312
  396MOL0     N53342   4.900   2.760   8.458  0.4714 -1.1101 -0.6294
  396MOL0     C53343   4.978   2.768   8.573 -0.0835  0.8879  0.6209
  396MOL0     C53344   5.101   2.718   8.528 -1.2339 -0.7480 -0.5967
  396MOL0     C53345   5.249   2.725   8.584  0.3158 -0.3175 -0.2034
  396MOL0     C53346   5.252   2.675   8.720  0.8514  0.4449 -0.6155
  396MOL0     C53347   5.226   2.526   8.729  0.8377 -0.2155 -1.1760
  396MOL0     C53348   5.303   2.455   8.838  0.6970 -0.5217 -1.1026
  396MOL0     O53349   5.254   2.501   8.957  0.1306 -0.4070 -0.0941
  396MOL0     C53350   5.300   2.448   9.074  0.8945 -0.6518  0.5277
  396MOL0     C53351   5.238   2.498   9.192 -0.8287 -0.1954  0.7611
  396MOL0     C53352   5.285   2.482   9.318 -0.1274 -0.1516  0.2304
  396MOL0     C53353   5.204   2.552   9.435  0.8274  0.4771 -0.1095
  396MOL0     C53354   5.397   2.399   9.336 -0.4126  0.2838  1.4984
  396MOL0     C53355   5.449   2.365   9.464  0.2899  0.2611 -0.4749
  396MOL0     O53356   5.578   2.317   9.468 -0.6848 -0.2774 -0.5754
  396MOL0     C53357   5.654   2.317   9.584  0.0859 -0.1341  1.3828
  396MOL0     C53358   5.729   2.434   9.629  0.3408 -1.2367  0.4019
  396MOL0     C53359   5.797   2.423   9.746  0.3115  1.4839 -0.7301
  396MOL0     C53360   5.793   2.305   9.821  0.9460  0.2537 -0.0564
  396MOL0     O53361   5.856   2.290   9.943 -0.1064 -0.9129 -0.2189
  396MOL0     C53362   5.996   2.326   9.927 -0.3923 -0.0562  0.1393
  396MOL0     C53363   6.077   2.202   9.879 -0.4065  0.0462 -0.1347
  396MOL0     C53364   6.128   2.112   9.995 -0.0084  0.4836 -0.6051
  396MOL0     C53365   6.197   1.987   9.943 -0.6891  0.6051  0.5430
  396MOL0     C53366   6.317   1.943  10.036  0.3857  0.8804 -0.2048
  396MOL0     C53367   6.396   1.826   9.981  0.3366 -0.6420 -0.0383
  396MOL0     C53368   6.536   1.831  10.055 -0.6337  0.9891 -0.6008
  396MOL0     C53369   6.636   1.733  10.001  0.3823 -0.4701  0.5194
  396MOL0    Cl53370   6.782   1.714  10.082  0.1515 -0.1569 -0.2667
  396MOL0     C53371   5.737   2.186   9.773  0.4655  0.6942 -0.7670
  396MOL0     C53372   5.665   2.200   9.651  0.9555  0.3572  0.8236
  396MOL0     O53373   5.378   2.368   9.565  0.6768  0.0632  0.2258
  396MOL0     C53374   5.458   2.343   9.216 -0.0825  0.2726  0.4710
  396MOL0     C53375   5.412   2.364   9.087 -0.0322  0.3593 -0.3101
  396MOL0     N53376   5.088   2.689   8.394 -0.6001 -0.2222 -0.4027
  396MOL0     N53377   4.970   2.714   8.353 -0.2316  0.0686  0.7333
  396MOL0     C53378   3.924   2.932   8.177  0.3843 -0.1382 -0.1499
  396MOL0     C53379   3.809   2.991   8.133 -0.1554 -0.2529  0.0414
  396MOL0     C53380   3.477   3.281   8.019 -0.7417  0.9746 -1.0185
  396MOL0     C53381   3.342   3.267   8.048  0.2694 -0.2437  0.2960
  396MOL0     C53382   3.244   3.344   7.976  0.4532 -0.9150  0.1719
  396MOL0     C53383   3.281   3.427   7.866 -0.5560  0.6266  0.9561
  396MOL0     O53384   3.191   3.499   7.785 -0.1150 -0.8180  0.3941
  396MOL0     C53385   3.056   3.460   7.768  0.1590  0.8707 -0.2905
  396MOL0     C53386   2.984   3.591   7.728  0.6046  0.6616 -0.2845
  396MOL0     C53387   2.833   3.562   7.720  0.1832 -0.0205  0.6278
  396MOL0     C53388   2.752   3.689   7.693 -1.2369 -0.3266 -0.4268
  396MOL0     C53389   2.651   3.656   7.593 -0.5905  0.2308  0.5261
  396MOL0     C53390   2.575   3.636   7.502 -0.2127 -0.2951  0.1591
  396MOL0     C53391   3.418   3.429   7.836  0.2029 -0.7785 -0.1183
  396MOL0     C53392   3.514   3.364   7.913 -0.7446  0.9663 -0.1553
  396MOL0     H53393   3.879   3.313   8.230  0.5193  0.4054 -3.0433
  396MOL0     H53394   4.075   3.188   8.332 -0.3238 -1.2976 -0.7772
  396MOL0     H53395   4.248   3.062   8.421  0.4994 -2.4833  2.2289
  396MOL0     H53396   4.319   2.919   8.340 -0.3781  0.5627  2.4852
  396MOL0     H53397   4.311   3.034   8.137  2.4725  1.8144 -1.2857
  396MOL0     H53398   4.287   3.191   8.223  1.7338  0.3134  1.2561
  396MOL0     H53399   4.526   3.183   8.218 -0.4453 -0.1647  1.1939
  396MOL0     H53400   4.477   3.124   8.378 -1.7250 -2.0824  0.7155
  396MOL0     H53401   4.545   2.903   8.281 -1.0997  1.6367  1.5437
  396MOL0     H53402   4.552   2.990   8.120  3.4936  2.5296 -0.4549
  396MOL0     H53403   4.774   2.943   8.187  1.9562 -0.9828  3.5866
  396MOL0     H53404   4.744   3.116   8.185  0.6819  0.9034  1.7901
  396MOL0     H53405   4.888   3.023   8.382  0.4060 -0.7026  0.0662
  396MOL0     H53406   4.763   3.136   8.431 -0.0863 -0.2982 -0.5163
  396MOL0     H53407   4.767   2.955   8.591  0.6733 -2.1330 -0.4760
  396MOL0     H53408   4.621   2.954   8.500 -0.4649 -0.1383 -2.5532
  396MOL0     H53409   4.725   2.797   8.344  0.3139 -0.1089 -0.3249
  396MOL0     H53410   4.690   2.728   8.505  3.0276 -1.5954 -0.3951
  396MOL0     H53411   4.959   2.794   8.676  1.1616 -2.6650  1.8923
  396MOL0     H53412   5.304   2.655   8.522  0.1019  0.1009 -0.8733
  396MOL0     H53413   5.290   2.827   8.583 -0.2579 -0.0311  1.4986
  396MOL0     H53414   5.178   2.735   8.774  0.5089  0.5169 -1.1667
  396MOL0     H53415   5.345   2.700   8.772  0.5589  1.8381 -0.7282
  396MOL0     H53416   5.252   2.482   8.633  0.1907 -1.7446 -0.6710
  396MOL0     H53417   5.120   2.508   8.748  0.4890  0.4173 -2.4100
  396MOL0     H53418   5.408   2.487   8.839  0.6688 -0.3916  0.2599
  396MOL0     H53419   5.292   2.347   8.827 -2.2809 -0.4180  0.0273
  396MOL0     H53420   5.148   2.552   9.163 -0.5282 -1.2482 -2.6047
  396MOL0     H53421   5.273   2.581   9.515  0.2236 -0.2032  0.6721
  396MOL0     H53422   5.146   2.637   9.397 -0.7977 -0.9587 -0.9399
  396MOL0     H53423   5.128   2.477   9.458 -1.0273  0.7806 -4.2262
  396MOL0     H53424   5.721   2.529   9.578  3.5523 -0.5941  0.9110
  396MOL0     H53425   5.840   2.518   9.774  0.2219  1.8356 -1.7432
  396MOL0     H53426   6.014   2.411   9.861  2.7934 -0.1403  0.7465
  396MOL0     H53427   6.038   2.365  10.020  2.4602 -1.9765 -0.2206
  396MOL0     H53428   6.020   2.141   9.808 -2.4858 -0.1455  1.6366
  396MOL0     H53429   6.167   2.236   9.826 -2.1269 -0.5387 -3.8044
  396MOL0     H53430   6.031   2.089  10.040  0.7120 -2.4517 -0.3313
  396MOL0     H53431   6.189   2.160  10.073  1.9880  2.1291 -3.0124
  396MOL0     H53432   6.137   1.896   9.954  0.1770  0.2864  3.2857
  396MOL0     H53433   6.237   2.003   9.842  0.7536 -0.8857  0.8220
  396MOL0     H53434   6.273   1.926  10.135 -3.1314 -0.7412 -1.8683
  396MOL0     H53435   6.382   2.030  10.033  1.9494 -0.2739 -0.8756
  396MOL0     H53436   6.341   1.732   9.995  0.5261 -0.5065  1.7998
  396MOL0     H53437   6.418   1.832   9.874 -1.1648  4.0275 -0.2805
  396MOL0     H53438   6.525   1.809  10.162  3.6303  2.8762  0.4582
  396MOL0     H53439   6.576   1.931  10.039 -0.5138  0.7935 -1.5976
  396MOL0     H53440   6.652   1.766   9.898 -2.1054 -0.9192 -0.0842
  396MOL0     H53441   6.594   1.632  10.010  0.1614 -0.3862  0.4231
  396MOL0     H53442   5.746   2.096   9.832  1.5248  1.2364 -0.0762
  396MOL0     H53443   5.617   2.111   9.612 -0.0928  0.3495  2.0567
  396MOL0     H53444   5.547   2.282   9.219 -0.8513 -0.8625  0.7453
  396MOL0     H53445   5.477   2.328   9.008  1.5284 -0.0155  1.0745
  396MOL0     H53446   3.953   2.829   8.160  0.1400 -0.2306 -0.0028
  396MOL0     H53447   3.728   2.949   8.074 -0.3005  0.4743 -0.2915
  396MOL0     H53448   3.306   3.218   8.138 -2.4969  1.2574  0.1135
  396MOL0     H53449   3.138   3.351   7.999 -0.3757  2.1911 -3.3705
  396MOL0     H53450   3.051   3.385   7.688 -1.4177  2.0907 -1.4186
  396MOL0     H53451   3.009   3.421   7.858  1.5660  1.5677  0.7786
  396MOL0     H53452   3.024   3.635   7.635  5.1770  3.5368  2.6272
  396MOL0     H53453   2.999   3.660   7.811 -0.7563 -0.3937  0.8903
  396MOL0     H53454   2.797   3.520   7.815  1.5019  0.0978  1.2173
  396MOL0     H53455   2.815   3.490   7.640 -0.1639 -1.7299  2.1564
  396MOL0     H53456   2.811   3.759   7.633 -0.8234 -0.3728 -0.0744
  396MOL0     H53457   2.704   3.727   7.783 -0.7849 -1.9184  0.5150
  396MOL0     H53458   2.509   3.618   7.420 -0.9851 -0.4314  0.8050
  396MOL0     H53459   3.442   3.485   7.746  2.6039  1.0373  1.5189
  396MOL0     H53460   3.620   3.366   7.891 -0.4710  0.1006  0.9806
  397MOL0     O53461   9.590  11.514  10.037 -0.8373  0.0766  0.9417
  397MOL0     C53462   9.624  11.423  10.102 -0.1775 -0.2249  0.4359
  397MOL0     O53463   9.541  11.315  10.146 -1.0971 -0.3084 -0.0382
  397MOL0     C53464   9.438  11.291  10.063 -0.1049  0.4364  0.1567
  397MOL0     C53465   9.323  11.373  10.062 -0.5188 -0.5288  0.4679
  397MOL0     C53466   9.211  11.334   9.991  0.9559 -0.1719  1.0073
  397MOL0     C53467   9.213  11.219   9.910  0.2450 -0.3702  0.4247
  397MOL0     O53468   9.101  11.197   9.835  0.8491  0.5304  0.1519
  397MOL0     C53469   8.969  11.200   9.896 -0.0310  0.1669 -0.1895
  397MOL0     C53470   8.866  11.146   9.804 -0.1792 -0.4224  1.3740
  397MOL0     C53471   8.851  10.996   9.794  0.0378  0.6152  1.2212
  397MOL0     C53472   8.977  10.915   9.776 -1.3810 -0.7138 -0.4735
  397MOL0     C53473   9.022  10.923   9.626  0.5704  0.8929 -0.4269
  397MOL0     C53474   8.949  10.813   9.547  0.0244  0.0439 -0.9076
  397MOL0     C53475   8.988  10.830   9.398  0.1344  0.2118 -0.9633
  397MOL0     C53476   8.944  10.721   9.312  0.9191  0.0295  0.3232
  397MOL0     N53477   8.798  10.700   9.313 -0.0308  0.2034 -0.4048
  397MOL0     C53478   8.709  10.780   9.250  0.1906 -0.1482  0.7845
  397MOL0     C53479   8.590  10.753   9.309  0.6787 -0.2736 -0.9749
  397MOL0     C53480   8.452  10.806   9.288 -0.1815 -0.6749  0.0977
  397MOL0     C53481   8.430  10.950   9.346  0.6278 -0.1967  0.6937
  397MOL0     C53482   8.288  10.972   9.385  1.1973  0.3815 -0.0275
  397MOL0     C53483   8.248  10.905   9.516 -0.4219  0.6786  0.2960
  397MOL0     O53484   8.101  10.919   9.519 -1.3277  0.7842 -0.1112
  397MOL0     C53485   8.036  10.895   9.632 -0.0379 -0.0952 -0.1943
  397MOL0     C53486   8.066  10.786   9.712 -0.0560 -0.5126 -0.4269
  397MOL0     C53487   7.998  10.758   9.831  0.1713 -0.2728  0.6541
  397MOL0     C53488   8.045  10.628   9.901  0.8633  0.3994 -0.3111
  397MOL0     C53489   7.892  10.838   9.868  1.1785  0.0166 -0.0860
  397MOL0     C53490   7.823  10.827  10.001 -0.8011 -1.2920  0.3567
  397MOL0     O53491   7.741  10.940  10.036  0.6816 -0.0021  0.4742
  397MOL0     C53492   7.683  10.940  10.165  0.3548  0.9126 -0.0136
  397MOL0     C53493   7.584  10.850  10.211 -0.0985  0.2821  0.2174
  397MOL0     C53494   7.523  10.871  10.338 -1.7118 -0.4128  1.4719
  397MOL0     C53495   7.555  10.993  10.411 -0.3605  0.8805  0.3338
  397MOL0     O53496   7.483  11.012  10.530  0.3261 -0.1937 -0.4966
  397MOL0     C53497   7.535  11.095  10.635  0.8749  0.2000 -0.6693
  397MOL0     C53498   7.457  11.050  10.754  0.0692  0.0513 -0.4579
  397MOL0     C53499   7.435  10.902  10.792 -1.9506  0.2479 -0.2058
  397MOL0     C53500   7.308  10.855  10.848  0.5756 -0.2438 -0.9444
  397MOL0     C53501   7.276  10.707  10.863  0.1871  0.1369  0.7227
  397MOL0     C53502   7.390  10.628  10.911  0.5353 -0.3693  0.1866
  397MOL0     C53503   7.440  10.671  11.056  0.3484 -0.3581 -0.1525
  397MOL0     C53504   7.338  10.653  11.168  0.4609 -0.0098 -1.2091
  397MOL0    Cl53505   7.288  10.472  11.183 -0.2103 -0.0109 -0.1648
  397MOL0     C53506   7.656  11.071  10.360 -1.6782 -0.1877 -0.2075
  397MOL0     C53507   7.728  11.042  10.243 -0.1767  0.0130  0.6725
  397MOL0     O53508   7.810  10.713  10.050 -0.8238 -0.6640  0.0883
  397MOL0     C53509   7.847  10.935   9.779  0.6942  1.0710 -0.8126
  397MOL0     C53510   7.920  10.962   9.667  0.2531  0.8420 -0.4024
  397MOL0     N53511   8.612  10.656   9.404  0.5749  0.3572  1.1843
  397MOL0     N53512   8.737  10.621   9.401  1.0980 -0.1835 -0.4252
  397MOL0     C53513   9.332  11.136   9.902  0.5625 -0.2139  0.5950
  397MOL0     C53514   9.443  11.167   9.983 -0.7120 -0.8497 -0.1522
  397MOL0     C53515   9.766  11.433  10.151  0.1708  0.8043  0.0501
  397MOL0     C53516   9.800  11.359  10.266 -0.2677  0.0040  0.2322
  397MOL0     C53517   9.927  11.386  10.324  0.1163 -0.2264 -0.1947
  397MOL0     C53518  10.021  11.473  10.263  0.2617 -0.4083 -0.5291
  397MOL0     O53519  10.139  11.495  10.331 -0.3064  0.4290 -0.7183
  397MOL0     C53520  10.244  11.582  10.287  0.4996  0.3368  0.6312
  397MOL0     C53521  10.331  11.517  10.181  0.5872  0.4590 -0.4265
  397MOL0     C53522  10.431  11.616  10.129  0.2297 -0.1642  0.4663
  397MOL0     C53523  10.474  11.576   9.989  0.0291  0.2231  0.0774
  397MOL0     C53524  10.596  11.668   9.978  0.4838  0.2261  0.1212
  397MOL0     C53525  10.698  11.736   9.967 -0.0884 -0.3584  0.6075
  397MOL0     C53526   9.987  11.530  10.149  1.1042 -0.6830  0.2986
  397MOL0     C53527   9.864  11.514  10.083  0.7359  0.6718  0.3431
  397MOL0     H53528   9.311  11.462  10.123 -0.1779  0.4555 -0.8573
  397MOL0     H53529   9.130  11.403  10.009  0.9492  1.1774 -3.2816
  397MOL0     H53530   8.969  11.137   9.986 -2.1624  1.2704  0.6405
  397MOL0     H53531   8.945  11.305   9.915 -0.7870 -0.1532  0.6895
  397MOL0     H53532   8.764  11.182   9.822 -0.2537  1.7880 -2.3250
  397MOL0     H53533   8.889  11.190   9.706  0.3317 -0.1648  1.6039
  397MOL0     H53534   8.787  10.962   9.876 -1.3051 -2.3412 -0.8793
  397MOL0     H53535   8.782  10.976   9.712  0.9118  3.1545 -0.2597
  397MOL0     H53536   9.053  10.955   9.844  2.0114  1.3547 -4.9715
  397MOL0     H53537   8.958  10.815   9.816  2.8389 -1.1121  1.0857
  397MOL0     H53538   9.001  11.021   9.583  1.2952  0.2644 -2.3493
  397MOL0     H53539   9.127  10.892   9.630  0.2563 -0.0733  0.9549
  397MOL0     H53540   8.990  10.722   9.593 -1.5935 -0.0775  0.3761
  397MOL0     H53541   8.847  10.839   9.575  0.6320  0.5120  0.9708
  397MOL0     H53542   8.939  10.919   9.356 -1.7931 -0.1923  0.3321
  397MOL0     H53543   9.097  10.837   9.386  0.2617  0.6280  0.3106
  397MOL0     H53544   8.986  10.629   9.353 -1.4368 -1.0873  0.3815
  397MOL0     H53545   8.984  10.724   9.210  0.3436  1.9874  0.1156
  397MOL0     H53546   8.742  10.848   9.172 -4.4411 -0.9857 -2.3129
  397MOL0     H53547   8.435  10.821   9.181  1.5370 -3.0017 -0.5840
  397MOL0     H53548   8.372  10.738   9.319 -1.0230  1.0454  1.9608
  397MOL0     H53549   8.457  11.027   9.273  4.9090 -1.7571  0.4023
  397MOL0     H53550   8.481  10.962   9.442 -1.9570 -0.2014  2.1554
  397MOL0     H53551   8.219  10.947   9.305  0.8701  0.1446  0.3242
  397MOL0     H53552   8.283  11.081   9.397  0.7215  0.8360 -3.4326
  397MOL0     H53553   8.302  10.945   9.602  0.2524  0.3415  0.0321
  397MOL0     H53554   8.271  10.798   9.508 -0.5805  0.5996  0.8346
  397MOL0     H53555   8.146  10.732   9.663 -0.7395  1.5086 -4.1888
  397MOL0     H53556   7.960  10.560   9.904 -0.3119  1.8086 -0.1044
  397MOL0     H53557   8.135  10.597   9.847  1.0460  4.8051 -3.0095
  397MOL0     H53558   8.058  10.653  10.007  2.4344  1.6089 -0.7504
  397MOL0     H53559   7.560  10.755  10.164 -4.1973  1.2631  0.0009
  397MOL0     H53560   7.461  10.794  10.382 -2.0526  0.3760  2.3892
  397MOL0     H53561   7.644  11.087  10.638  1.0700  2.3162 -0.2403
  397MOL0     H53562   7.518  11.200  10.611  0.4190  0.0961 -0.8093
  397MOL0     H53563   7.500  11.096  10.843  3.1174 -1.4313 -1.0548
  397MOL0     H53564   7.356  11.088  10.735  0.6142  0.7966 -2.0477
  397MOL0     H53565   7.515  10.870  10.858 -3.1624 -0.6958  0.8591
  397MOL0     H53566   7.448  10.850  10.697  1.7741 -0.5633  0.6211
  397MOL0     H53567   7.291  10.896  10.948 -0.4657  0.1018 -1.2465
  397MOL0     H53568   7.232  10.886  10.775  0.8665 -0.3779 -1.3050
  397MOL0     H53569   7.258  10.671  10.761  0.0995 -1.4454  1.2799
  397MOL0     H53570   7.195  10.694  10.935  1.7814  1.1249  2.7901
  397MOL0     H53571   7.345  10.528  10.915 -0.4112  0.0766  1.0124
  397MOL0     H53572   7.472  10.634  10.839 -0.8161  0.6656 -1.3210
  397MOL0     H53573   7.492  10.766  11.070  3.4507 -1.7818 -1.1413
  397MOL0     H53574   7.508  10.593  11.090  0.5387 -0.4308 -0.6930
  397MOL0     H53575   7.253  10.720  11.152  0.5984  0.6832  0.6921
  397MOL0     H53576   7.379  10.686  11.263 -1.1759  2.5654 -1.3035
  397MOL0     H53577   7.693  11.153  10.420  0.9221 -2.3358  1.3516
  397MOL0     H53578   7.793  11.121  10.208 -1.0768  0.6533  0.3830
  397MOL0     H53579   7.747  10.974   9.791 -0.1565 -0.5858 -2.0869
  397MOL0     H53580   7.877  11.036   9.600 -1.2927 -1.4736 -2.1229
  397MOL0     H53581   9.323  11.049   9.837 -2.6261 -0.9510  1.7967
  397MOL0     H53582   9.528  11.102   9.997  0.0639 -0.1279 -1.3916
  397MOL0     H53583   9.743  11.288  10.324  0.3802  0.5981  1.6430
  397MOL0     H53584   9.947  11.331  10.415 -0.2343  0.9405  0.6083
  397MOL0     H53585  10.205  11.675  10.245  0.7132 -0.4072 -1.3065
  397MOL0     H53586  10.314  11.609  10.367  1.8828 -0.9779 -0.0780
  397MOL0     H53587  10.272  11.485  10.094  1.9825  4.5903 -3.2260
  397MOL0     H53588  10.382  11.438  10.236  1.4750  0.3224 -1.4138
  397MOL0     H53589  10.520  11.603  10.192  2.7837  1.3121 -2.5411
  397MOL0     H53590  10.405  11.722  10.141  1.9119  0.3312  0.0460
  397MOL0     H53591  10.395  11.587   9.914  0.1335  1.3306  0.1146
  397MOL0     H53592  10.501  11.470   9.979 -1.8439 -0.5332  2.1262
  397MOL0     H53593  10.769  11.816   9.955  1.1251 -1.4444  0.4261
  397MOL0     H53594  10.057  11.593  10.094 -1.2954  1.6307 -0.3030
  397MOL0     H53595   9.828  11.582  10.006 -3.9063  0.6988  2.2164
  398MOL0     O53596  10.711  10.993  11.193  0.1574  0.3954 -0.8203
  398MOL0     C53597  10.649  10.980  11.303  0.9270  0.2717  0.1734
  398MOL0     O53598  10.521  11.006  11.326 -0.3921  0.0898  0.5315
  398MOL0     C53599  10.437  11.066  11.235 -0.2678  0.8497  0.7032
  398MOL0     C53600  10.457  11.194  11.190 -1.5680  0.8415  0.4677
  398MOL0     C53601  10.364  11.254  11.106  0.7285  0.3056  0.7859
  398MOL0     C53602  10.239  11.192  11.082 -0.6012 -0.8495 -0.1917
  398MOL0     O53603  10.144  11.264  11.009  0.6716 -0.3386 -0.2609
  398MOL0     C53604  10.178  11.285  10.874 -1.1588 -0.3577  0.4667
  398MOL0     C53605  10.170  11.151  10.806 -0.1130  0.8558  0.5558
  398MOL0     C53606  10.171  11.169  10.654  0.5213  1.1186  0.1079
  398MOL0     C53607  10.315  11.201  10.602  0.0263  0.4585 -0.3986
  398MOL0     C53608  10.328  11.201  10.452 -0.4461 -0.6379  0.4678
  398MOL0     C53609  10.360  11.060  10.403  0.2492  0.4756  0.3611
  398MOL0     C53610  10.423  11.047  10.257  0.1450 -0.1673  0.7682
  398MOL0     C53611  10.334  11.115  10.156 -0.7050 -0.0720  0.3501
  398MOL0     N53612  10.189  11.083  10.141 -0.2545 -0.2976  0.2903
  398MOL0     C53613  10.125  11.054  10.021  0.6392 -0.2654  0.2744
  398MOL0     C53614   9.991  11.045  10.048 -0.9094  0.5260 -1.2219
  398MOL0     C53615   9.875  11.014   9.956 -0.5805  1.0135 -0.3379
  398MOL0     C53616   9.879  10.871   9.902  0.7800  0.5755 -0.6260
  398MOL0     C53617   9.813  10.770   9.993 -0.0805 -0.3385 -0.4407
  398MOL0     C53618   9.851  10.635   9.933  0.7132  0.1480 -0.6038
  398MOL0     O53619   9.786  10.600   9.817 -0.2545  0.1461  1.0676
  398MOL0     C53620   9.652  10.563   9.820 -0.0184  0.5543 -0.3887
  398MOL0     C53621   9.562  10.611   9.739 -0.1660  0.3893 -0.9995
  398MOL0     C53622   9.426  10.565   9.735  0.0076 -0.1900  0.6312
  398MOL0     C53623   9.342  10.643   9.640  0.5877 -0.4810 -0.8242
  398MOL0     C53624   9.380  10.471   9.829  0.1593  0.7426  0.2655
  398MOL0     C53625   9.235  10.434   9.838  0.3081  1.1460  0.2738
  398MOL0     O53626   9.210  10.342   9.930  0.3986 -1.0574  0.5810
  398MOL0     C53627   9.090  10.275   9.933 -0.3159 -1.0033 -0.4189
  398MOL0     C53628   9.012  10.228   9.826 -0.1453  0.1664 -0.1311
  398MOL0     C53629   8.882  10.168   9.846  0.8076  0.0275  0.4794
  398MOL0     C53630   8.828  10.153   9.973 -0.1339 -0.2770 -0.3553
  398MOL0     O53631   8.720  10.075   9.991 -1.3440 -0.5100  0.7962
  398MOL0     C53632   8.623  10.144  10.070 -0.3768 -0.1231 -0.1279
  398MOL0     C53633   8.494  10.065  10.052 -1.0306 -0.8875 -0.3333
  398MOL0     C53634   8.497   9.936  10.139  0.7918 -0.1895 -0.2277
  398MOL0     C53635   8.397   9.834  10.074  0.4495 -0.9998  0.1960
  398MOL0     C53636   8.362   9.725  10.169 -0.3064 -0.7128  0.2521
  398MOL0     C53637   8.313   9.607  10.082  0.6436 -0.8032 -0.4124
  398MOL0     C53638   8.179   9.644   9.992 -0.2036 -0.3350 -0.9107
  398MOL0     C53639   8.104   9.524   9.945 -0.3720  0.0853 -0.7194
  398MOL0    Cl53640   7.970   9.570   9.838  0.0868  0.3239 -0.5589
  398MOL0     C53641   8.909  10.197  10.082  0.1377  0.1560  0.2223
  398MOL0     C53642   9.037  10.244  10.057 -0.2828  0.0170  0.7360
  398MOL0     O53643   9.143  10.485   9.768 -0.8537  0.5619  0.3620
  398MOL0     C53644   9.479  10.415   9.916  0.1604 -0.0770  0.3814
  398MOL0     C53645   9.614  10.460   9.904  0.2826 -0.1494  0.3699
  398MOL0     N53646   9.983  11.078  10.187  0.2070  1.0789 -0.5031
  398MOL0     N53647  10.100  11.081  10.237  0.2295  0.1593 -0.2129
  398MOL0     C53648  10.219  11.063  11.117  0.2122 -0.4498  0.0506
  398MOL0     C53649  10.320  10.995  11.196  0.2218 -0.5627  0.1312
  398MOL0     C53650  10.726  10.929  11.417  0.2059  0.2326 -0.1448
  398MOL0     C53651  10.861  10.966  11.436  0.0227 -0.2659 -0.5247
  398MOL0     C53652  10.927  10.928  11.554 -0.8453  0.9895 -0.3690
  398MOL0     C53653  10.858  10.863  11.660  0.3016  0.5270  0.4842
  398MOL0     O53654  10.929  10.824  11.770 -0.3002 -0.9528 -0.4601
  398MOL0     C53655  10.914  10.929  11.868  0.3352 -0.0765 -0.1674
  398MOL0     C53656  10.970  10.887  12.006 -0.8372  0.2682 -0.0424
  398MOL0     C53657  10.918  10.757  12.059  0.1330 -0.6338 -0.2602
  398MOL0     C53658  11.012  10.712  12.172 -0.2814  0.5227  1.0926
  398MOL0     C53659  10.944  10.618  12.267 -0.9337 -1.0954  0.3867
  398MOL0     C53660  10.885  10.548  12.334  0.0345 -0.2648 -0.6564
  398MOL0     C53661  10.724  10.822  11.637  0.5954  0.1907 -0.6601
  398MOL0     C53662  10.660  10.854  11.517  0.6131 -0.0137  0.3257
  398MOL0     H53663  10.531  11.255  11.242 -2.4251  2.6402 -0.3433
  398MOL0     H53664  10.369  11.363  11.099  1.8853  0.4021  2.4698
  398MOL0     H53665  10.101  11.348  10.828 -0.7969 -1.2531 -1.4739
  398MOL0     H53666  10.277  11.325  10.854 -0.1221 -2.3062  1.3828
  398MOL0     H53667  10.260  11.093  10.831  0.1954  0.0268 -2.1045
  398MOL0     H53668  10.080  11.096  10.836  0.6663 -1.4404 -0.9599
  398MOL0     H53669  10.130  11.072  10.624  1.8860 -0.1440  2.1276
  398MOL0     H53670  10.093  11.240  10.624 -2.5630 -2.6027 -1.5575
  398MOL0     H53671  10.336  11.301  10.642 -2.1970  0.2487  1.4906
  398MOL0     H53672  10.379  11.133  10.659  1.0005  2.5217  1.0870
  398MOL0     H53673  10.246  11.241  10.392  0.9713  0.7707 -0.6280
  398MOL0     H53674  10.417  11.260  10.427  0.0716 -2.4655 -2.6151
  398MOL0     H53675  10.445  11.021  10.459  0.3642  0.5916  0.2678
  398MOL0     H53676  10.272  10.996  10.402  1.5769 -1.4785 -1.9571
  398MOL0     H53677  10.525  11.086  10.252  0.4411 -0.8384  1.5135
  398MOL0     H53678  10.446  10.943  10.235  2.5066  0.2399  1.1008
  398MOL0     H53679  10.381  11.102  10.058  2.6654 -4.7642  2.2245
  398MOL0     H53680  10.339  11.220  10.185 -1.6975  0.2998 -0.7386
  398MOL0     H53681  10.174  11.059   9.925  0.0978  1.1246  0.0435
  398MOL0     H53682   9.786  11.049  10.009 -0.5949 -1.1952  1.2474
  398MOL0     H53683   9.890  11.074   9.865 -1.7497 -2.1956 -2.8406
  398MOL0     H53684   9.980  10.830   9.891  0.3509 -1.1769  1.2794
  398MOL0     H53685   9.826  10.868   9.807  0.9736 -4.0622 -0.8092
  398MOL0     H53686   9.705  10.790   9.990  0.3256  2.0366 -1.1431
  398MOL0     H53687   9.845  10.790  10.096  2.6139 -3.7242 -0.4742
  398MOL0     H53688   9.830  10.563  10.012  1.5377 -1.8440 -2.1089
  398MOL0     H53689   9.960  10.629   9.935  0.6530 -2.1885  2.5870
  398MOL0     H53690   9.587  10.689   9.667 -0.4950 -1.0714 -2.7925
  398MOL0     H53691   9.290  10.576   9.572  1.6537 -2.4628  0.2084
  398MOL0     H53692   9.259  10.697   9.686 -0.5779 -1.5039 -1.6626
  398MOL0     H53693   9.409  10.713   9.590 -0.0227 -1.1763 -2.6719
  398MOL0     H53694   9.049  10.250   9.727  1.7401 -1.3479  0.1857
  398MOL0     H53695   8.820  10.146   9.759 -3.6768  1.3741  2.9833
  398MOL0     H53696   8.655  10.136  10.174  0.2439  2.2011 -0.0786
  398MOL0     H53697   8.624  10.249  10.038  1.7861 -0.1074 -0.1523
  398MOL0     H53698   8.410  10.127  10.084 -0.5578 -1.8009  3.0467
  398MOL0     H53699   8.465  10.050   9.948  1.6725  0.3103 -1.3569
  398MOL0     H53700   8.463   9.969  10.237 -1.3943  3.3417 -1.9828
  398MOL0     H53701   8.591   9.885  10.162 -0.5113 -2.6795  0.0042
  398MOL0     H53702   8.302   9.880  10.045 -0.6474 -2.7908  0.8390
  398MOL0     H53703   8.448   9.795   9.985 -0.3453 -3.2250  0.6623
  398MOL0     H53704   8.278   9.760  10.231 -0.4092 -0.8591  0.1936
  398MOL0     H53705   8.448   9.696  10.230 -1.0117  0.9293  2.1680
  398MOL0     H53706   8.391   9.570  10.016  0.2961 -0.5022 -0.9975
  398MOL0     H53707   8.292   9.525  10.152 -0.5989  1.5765  2.2103
  398MOL0     H53708   8.200   9.712   9.909  1.8851  0.0699 -0.1037
  398MOL0     H53709   8.117   9.705  10.058  1.2813 -0.4277  0.6221
  398MOL0     H53710   8.051   9.475  10.028 -0.0226  2.2867  0.8768
  398MOL0     H53711   8.172   9.448   9.905  0.0693  0.4153 -0.5989
  398MOL0     H53712   8.869  10.174  10.181  2.0163  3.6041  1.9496
  398MOL0     H53713   9.091  10.253  10.151  1.4906 -1.8447 -0.0481
  398MOL0     H53714   9.454  10.345   9.995 -0.0533  1.8884  2.1564
  398MOL0     H53715   9.686  10.408   9.966 -1.0165 -2.5778 -0.0364
  398MOL0     H53716  10.123  11.018  11.094 -1.1826  0.8797  2.8478
  398MOL0     H53717  10.316  10.891  11.224  2.5306 -0.7204  0.0771
  398MOL0     H53718  10.906  11.030  11.360  0.2964  0.9572  0.6373
  398MOL0     H53719  11.026  10.968  11.577 -0.2482 -1.2185  1.1624
  398MOL0     H53720  10.950  11.025  11.829  0.2039 -0.6058 -1.6151
  398MOL0     H53721  10.806  10.939  11.877  0.3076 -0.6366  0.1478
  398MOL0     H53722  10.974  10.967  12.081  0.4162  1.6346 -1.4998
  398MOL0     H53723  11.077  10.873  11.990 -1.3385 -1.3197 -2.5787
  398MOL0     H53724  10.916  10.689  11.973  0.1913 -0.2861 -0.5407
  398MOL0     H53725  10.816  10.772  12.095  0.4633 -1.0367  0.9001
  398MOL0     H53726  11.041  10.800  12.230 -1.1106  1.1456  0.5806
  398MOL0     H53727  11.096  10.660  12.125 -3.1849 -1.2784 -2.6455
  398MOL0     H53728  10.830  10.485  12.400 -2.1350 -0.9059 -2.9443
  398MOL0     H53729  10.677  10.755  11.708  0.6631 -1.6022 -2.2315
  398MOL0     H53730  10.559  10.815  11.514 -0.1280  1.6922  1.3148
  399MOL0     O53731   5.856   7.566   1.497  0.2766 -0.0929 -0.0884
  399MOL0     C53732   5.968   7.598   1.463  0.9149 -0.6719  0.2189
  399MOL0     O53733   6.057   7.672   1.546  0.8467  1.5111  0.5344
  399MOL0     C53734   6.008   7.736   1.656 -0.3282  0.2304 -1.4837
  399MOL0     C53735   5.961   7.656   1.758  0.2779  0.4189  0.1765
  399MOL0     C53736   5.891   7.711   1.864  0.1345  0.1019  0.2555
  399MOL0     C53737   5.860   7.852   1.881 -0.3416  0.0075  0.5483
  399MOL0     O53738   5.798   7.892   1.993  0.3799  0.3756 -0.0383
  399MOL0     C53739   5.794   8.026   2.041 -0.5272  0.1080  0.9225
  399MOL0     C53740   5.663   8.052   2.114 -0.4466 -0.5437 -0.4741
  399MOL0     C53741   5.645   7.971   2.234  0.8608 -0.2311  0.0200
  399MOL0     C53742   5.515   7.981   2.316  0.3806 -0.1051  0.6236
  399MOL0     C53743   5.502   7.878   2.433  0.4525  0.5414 -0.4701
  399MOL0     C53744   5.386   7.907   2.530  0.2487 -0.3512 -0.0245
  399MOL0     C53745   5.419   7.857   2.670  0.4498  1.0604  0.7959
  399MOL0     C53746   5.463   7.710   2.663  0.7999  0.6940  0.1067
  399MOL0     N53747   5.451   7.657   2.798 -0.0677 -0.1172 -0.0262
  399MOL0     C53748   5.548   7.597   2.878  0.2907  0.4920 -0.0557
  399MOL0     C53749   5.475   7.550   2.987 -0.3232  0.6155 -0.1796
  399MOL0     C53750   5.528   7.442   3.075  0.0336  1.2652  0.7705
  399MOL0     C53751   5.573   7.510   3.210 -1.1824  0.0262 -0.4255
  399MOL0     C53752   5.652   7.410   3.300 -1.0722 -0.0702 -0.0742
  399MOL0     C53753   5.751   7.464   3.422  0.8865  0.3311  0.0220
  399MOL0     O53754   5.713   7.598   3.459 -0.1275  0.2830  0.1299
  399MOL0     C53755   5.819   7.639   3.535  0.3418  0.2697  0.7947
  399MOL0     C53756   5.936   7.688   3.477  0.5283  0.1702  0.5375
  399MOL0     C53757   6.029   7.745   3.563 -0.1037 -0.5136 -0.3646
  399MOL0     C53758   6.147   7.811   3.502 -0.2870 -0.1824  0.8142
  399MOL0     C53759   6.021   7.729   3.706  0.0268  0.8431  0.0479
  399MOL0     C53760   6.128   7.780   3.799  0.6307  0.1632  0.0370
  399MOL0     O53761   6.255   7.773   3.762  0.0945  0.1786  0.4352
  399MOL0     C53762   6.337   7.855   3.836 -0.2217 -0.4087 -0.0463
  399MOL0     C53763   6.384   7.811   3.963 -1.0554 -0.6014  0.6519
  399MOL0     C53764   6.469   7.899   4.036  0.6204 -0.7456 -1.3118
  399MOL0     C53765   6.496   8.025   3.994 -0.6756  0.2772 -0.1358
  399MOL0     O53766   6.571   8.100   4.092 -0.0383  0.5741  0.4601
  399MOL0     C53767   6.613   8.228   4.056  0.2115 -0.8686  0.5394
  399MOL0     C53768   6.693   8.292   4.167  0.3403 -0.5277 -0.2290
  399MOL0     C53769   6.593   8.322   4.292 -0.7381 -1.4690 -0.1537
  399MOL0     C53770   6.667   8.378   4.421  0.6141  0.0579 -0.1198
  399MOL0     C53771   6.575   8.402   4.537 -0.6482 -0.2635  0.0221
  399MOL0     C53772   6.635   8.498   4.636  0.5549  0.7101  0.1532
  399MOL0     C53773   6.733   8.439   4.738  0.2545  0.3290 -0.5717
  399MOL0     C53774   6.797   8.561   4.811 -0.7138  0.5628  0.2931
  399MOL0    Cl53775   6.889   8.661   4.698 -0.8099  0.4446  0.1325
  399MOL0     C53776   6.461   8.065   3.862  0.0199 -0.2098 -0.0460
  399MOL0     C53777   6.382   7.976   3.786 -0.4132 -0.3760 -0.5333
  399MOL0     O53778   6.084   7.824   3.901 -0.2974 -0.5844  0.2481
  399MOL0     C53779   5.901   7.677   3.757 -1.3251 -0.0747  0.2459
  399MOL0     C53780   5.802   7.635   3.674 -0.1868  0.2165  0.3423
  399MOL0     N53781   5.350   7.589   2.976 -0.7337 -0.4775 -0.4101
  399MOL0     N53782   5.333   7.648   2.859 -0.2753  0.8989 -0.5628
  399MOL0     C53783   5.896   7.929   1.763  0.2146 -0.0076 -0.0476
  399MOL0     C53784   5.977   7.872   1.662  0.2555  0.5943  0.3670
  399MOL0     C53785   6.022   7.586   1.326  0.2162  0.7130  0.6023
  399MOL0     C53786   5.935   7.520   1.232  0.2424 -0.2720 -0.6018
  399MOL0     C53787   5.983   7.484   1.110 -0.2238  0.6803 -0.0268
  399MOL0     C53788   6.111   7.523   1.069  0.6409  0.3301 -0.2183
  399MOL0     O53789   6.170   7.470   0.953  0.0000  0.0899 -0.7512
  399MOL0     C53790   6.094   7.394   0.864  0.1596  0.1785 -0.0400
  399MOL0     C53791   6.170   7.381   0.726 -0.0159  0.1174 -0.0873
  399MOL0     C53792   6.182   7.527   0.673 -0.1209  0.1569 -0.4229
  399MOL0     C53793   6.230   7.525   0.531  0.5471  0.4129  0.6944
  399MOL0     C53794   6.205   7.648   0.460  0.1123 -0.4518  0.4733
  399MOL0     C53795   6.165   7.755   0.404 -0.3262  0.2825 -0.3231
  399MOL0     C53796   6.193   7.596   1.153  0.5151  0.0560 -0.5903
  399MOL0     C53797   6.155   7.622   1.288  0.2806  0.6000 -0.0573
  399MOL0     H53798   5.961   7.549   1.744 -3.9105  0.3615 -0.7975
  399MOL0     H53799   5.861   7.645   1.945  0.7064 -2.3311 -1.3890
  399MOL0     H53800   5.879   8.038   2.109  0.3316 -0.4797 -0.0289
  399MOL0     H53801   5.817   8.088   1.954 -0.1462 -4.4383 -2.5757
  399MOL0     H53802   5.677   8.154   2.152  3.2252 -1.1690  0.1782
  399MOL0     H53803   5.587   8.043   2.036  0.7166  0.9386 -1.8700
  399MOL0     H53804   5.637   7.866   2.208  0.6212 -0.1784 -0.1230
  399MOL0     H53805   5.734   7.975   2.298  1.3116 -2.4213 -0.4164
  399MOL0     H53806   5.525   8.081   2.359 -1.6643 -0.8202  2.9533
  399MOL0     H53807   5.425   7.980   2.254  0.8924  1.0669 -0.1778
  399MOL0     H53808   5.490   7.780   2.388 -4.2329  0.1026  1.2371
  399MOL0     H53809   5.597   7.880   2.488  2.3455 -1.7521 -3.3584
  399MOL0     H53810   5.355   8.012   2.540 -3.4720 -1.5402  3.4240
  399MOL0     H53811   5.290   7.860   2.507  1.8762 -3.1580 -1.6266
  399MOL0     H53812   5.497   7.922   2.710  2.3804 -1.6927  1.8619
  399MOL0     H53813   5.323   7.870   2.720 -0.2947 -2.2868  0.4974
  399MOL0     H53814   5.568   7.699   2.634  0.2683 -1.6915 -1.1216
  399MOL0     H53815   5.399   7.641   2.607 -0.8269  0.9575  1.5517
  399MOL0     H53816   5.656   7.583   2.873  0.3496  0.5364  0.9773
  399MOL0     H53817   5.444   7.374   3.091 -0.4324  1.6991  0.2079
  399MOL0     H53818   5.611   7.385   3.034 -0.5629  0.5706  0.5058
  399MOL0     H53819   5.489   7.548   3.269  0.8630  0.0999  2.6345
  399MOL0     H53820   5.644   7.588   3.180 -0.4924  1.2689  3.8310
  399MOL0     H53821   5.712   7.347   3.235  1.3223  1.7003  0.2796
  399MOL0     H53822   5.583   7.348   3.359  0.9668 -1.0221  1.4700
  399MOL0     H53823   5.854   7.458   3.387  0.2040 -2.0715 -1.8979
  399MOL0     H53824   5.736   7.407   3.514 -1.1011 -0.6029 -0.8224
  399MOL0     H53825   5.939   7.694   3.369 -1.1039  0.5689  0.4880
  399MOL0     H53826   6.128   7.838   3.398 -0.2728 -0.9134  0.6150
  399MOL0     H53827   6.175   7.907   3.547 -1.0528  0.8124 -0.7546
  399MOL0     H53828   6.232   7.744   3.490  1.4959  1.9475  0.8347
  399MOL0     H53829   6.351   7.717   4.004 -1.8304 -1.1042 -1.0183
  399MOL0     H53830   6.496   7.876   4.139 -2.2548 -0.4565 -0.3956
  399MOL0     H53831   6.658   8.221   3.956 -2.3088  1.8360 -0.9500
  399MOL0     H53832   6.524   8.291   4.055  0.2701 -0.7831  0.6985
  399MOL0     H53833   6.772   8.226   4.204  0.4980 -0.4782 -0.4761
  399MOL0     H53834   6.729   8.391   4.140 -3.8722  1.6923  1.3621
  399MOL0     H53835   6.546   8.232   4.330  1.3718 -1.2757  3.3215
  399MOL0     H53836   6.517   8.394   4.259  1.6797  0.7036 -1.4168
  399MOL0     H53837   6.750   8.309   4.436 -0.5138 -1.6190 -1.3326
  399MOL0     H53838   6.710   8.477   4.399 -5.0350  3.5974  2.3213
  399MOL0     H53839   6.552   8.305   4.582 -0.1669  0.7859  2.8004
  399MOL0     H53840   6.480   8.444   4.504 -0.3529 -0.9593 -1.7710
  399MOL0     H53841   6.669   8.591   4.591 -0.7395  0.6013 -1.1088
  399MOL0     H53842   6.552   8.530   4.700 -0.2732 -1.9113  0.5469
  399MOL0     H53843   6.805   8.374   4.687 -1.0666 -1.8984  0.2754
  399MOL0     H53844   6.689   8.361   4.799  0.7165 -1.0989 -1.9924
  399MOL0     H53845   6.859   8.526   4.895 -2.6064  1.2746  2.0835
  399MOL0     H53846   6.718   8.621   4.859 -0.1320  2.9806 -1.5389
  399MOL0     H53847   6.490   8.160   3.817 -0.8514 -0.6669 -1.6553
  399MOL0     H53848   6.351   8.006   3.687  1.1048 -0.4652 -1.0594
  399MOL0     H53849   5.895   7.656   3.864  0.5683 -1.4593  0.1231
  399MOL0     H53850   5.711   7.593   3.717 -0.3110  1.2931  1.1657
  399MOL0     H53851   5.882   8.036   1.750  0.6227 -0.2532 -3.1626
  399MOL0     H53852   5.997   7.931   1.574 -0.0639 -0.1741 -0.2381
  399MOL0     H53853   5.832   7.497   1.258 -0.1294  1.2388 -0.6600
  399MOL0     H53854   5.914   7.432   1.044  0.7766 -1.7433  0.7229
  399MOL0     H53855   6.077   7.293   0.905  0.3675  0.4606  0.7659
  399MOL0     H53856   5.998   7.441   0.840  2.5384  4.0897 -3.2500
  399MOL0     H53857   6.107   7.321   0.660 -1.3557 -1.2122  2.2823
  399MOL0     H53858   6.266   7.334   0.748  0.3864  1.8505  2.2078
  399MOL0     H53859   6.260   7.571   0.735 -1.6468 -1.5217  2.9236
  399MOL0     H53860   6.087   7.581   0.679  0.3309  1.3486 -2.8116
  399MOL0     H53861   6.179   7.445   0.476 -0.4478  1.7361 -0.3683
  399MOL0     H53862   6.338   7.507   0.530  0.3132 -1.4446  2.5706
  399MOL0     H53863   6.146   7.843   0.347  0.1558  3.2902  3.7295
  399MOL0     H53864   6.289   7.625   1.113 -0.3812  1.3003 -1.9311
  399MOL0     H53865   6.224   7.648   1.368  0.6897 -1.8917  0.4898
  400MOL0     O53866   8.880   7.724   7.909 -0.1665 -0.0182 -0.3408
  400MOL0     C53867   8.931   7.621   7.863  0.4777  0.2176 -0.2453
  400MOL0     O53868   8.953   7.606   7.725 -0.2791  0.0051  0.8497
  400MOL0     C53869   8.916   7.702   7.632  0.3972 -0.4133 -0.9179
  400MOL0     C53870   9.007   7.738   7.538 -0.5264 -0.0777 -0.2445
  400MOL0     C53871   8.985   7.853   7.457  0.7073  0.8553 -0.0907
  400MOL0     C53872   8.857   7.921   7.470 -0.7079 -0.4492 -0.4753
  400MOL0     O53873   8.821   8.022   7.382  0.6314  0.1159 -0.3427
  400MOL0     C53874   8.911   8.091   7.290 -0.6833 -0.4852 -0.7859
  400MOL0     C53875   8.854   8.178   7.179 -0.4189 -0.0794 -0.1665
  400MOL0     C53876   8.944   8.299   7.155 -0.4262 -0.5564 -0.6595
  400MOL0     C53877   8.886   8.403   7.051  0.0979  0.2709 -0.1385
  400MOL0     C53878   8.955   8.539   7.033  0.9330 -0.2785  0.1291
  400MOL0     C53879   8.873   8.607   6.924 -0.3672 -0.0143 -0.4529
  400MOL0     C53880   8.944   8.735   6.885 -0.6148 -0.7240  1.1228
  400MOL0     C53881   8.949   8.829   7.001  0.1538  0.4576 -1.0624
  400MOL0     N53882   8.964   8.974   6.966 -1.1322  0.1932  0.9259
  400MOL0     C53883   8.855   9.058   6.962 -0.0589 -0.8407 -0.7835
  400MOL0     C53884   8.895   9.169   6.898  0.1845 -0.4433  0.0281
  400MOL0     C53885   8.813   9.284   6.877 -0.2346  0.5425  0.4446
  400MOL0     C53886   8.835   9.351   6.744  0.2553  0.0838 -0.2572
  400MOL0     C53887   8.803   9.251   6.622 -0.2116  0.0883 -0.6714
  400MOL0     C53888   8.786   9.331   6.498 -0.5102  0.2485 -0.2227
  400MOL0     O53889   8.681   9.421   6.514 -0.2979 -0.3364 -0.4704
  400MOL0     C53890   8.666   9.541   6.452 -0.3726  0.6729  0.0286
  400MOL0     C53891   8.554   9.619   6.493  0.6636  0.4557 -0.1856
  400MOL0     C53892   8.528   9.744   6.440  0.3764  0.1532  0.0830
  400MOL0     C53893   8.411   9.824   6.501  0.5816  0.3793 -0.4683
  400MOL0     C53894   8.612   9.787   6.336 -0.3206  0.4489  0.1402
  400MOL0     C53895   8.591   9.920   6.288  1.1681 -0.5837  0.2708
  400MOL0     O53896   8.699   9.972   6.219  0.6176  0.4483 -0.2793
  400MOL0     C53897   8.677  10.073   6.130 -0.1546  0.1275 -0.7935
  400MOL0     C53898   8.795  10.121   6.082  0.3284  0.4847 -0.3201
  400MOL0     C53899   8.799  10.202   5.963 -0.0046  0.4776  0.9884
  400MOL0     C53900   8.681  10.251   5.909  0.0777 -0.1511  0.2686
  400MOL0     O53901   8.667  10.338   5.813  0.1672 -0.2022  0.8900
  400MOL0     C53902   8.788  10.381   5.755 -0.4043 -0.0420  0.8866
  400MOL0     C53903   8.748  10.464   5.636  0.6227 -0.8143  0.1702
  400MOL0     C53904   8.866  10.528   5.558  0.2792  0.1932  0.7403
  400MOL0     C53905   8.953  10.612   5.652  0.5219 -0.1805  0.2368
  400MOL0     C53906   9.039  10.703   5.560  0.4455 -0.2837 -0.1763
  400MOL0     C53907   9.133  10.790   5.646  0.2707 -0.0014 -0.8592
  400MOL0     C53908   9.184  10.913   5.556  1.1260  0.1135 -0.3643
  400MOL0     C53909   9.324  10.962   5.604 -0.7046  0.4050  0.7109
  400MOL0    Cl53910   9.320  10.997   5.779  0.2938  0.3379  0.3062
  400MOL0     C53911   8.559  10.213   5.968  0.1119 -0.4554  0.3292
  400MOL0     C53912   8.560  10.119   6.071 -0.3652  0.1249  0.7085
  400MOL0     O53913   8.485   9.974   6.294 -0.2150 -0.4802  0.3951
  400MOL0     C53914   8.727   9.710   6.286  0.0969  0.5745 -0.6772
  400MOL0     C53915   8.749   9.583   6.351  0.1328 -0.4905  0.3582
  400MOL0     N53916   9.034   9.144   6.861  0.7793  0.0649  0.0067
  400MOL0     N53917   9.068   9.031   6.901  0.6695 -0.1358 -0.5411
  400MOL0     C53918   8.772   7.878   7.572 -0.3580 -0.5058 -0.7523
  400MOL0     C53919   8.798   7.770   7.648  0.5830  0.4139 -0.2386
  400MOL0     C53920   8.959   7.511   7.957 -0.6598 -0.3697 -0.7066
  400MOL0     C53921   9.010   7.397   7.919 -0.3099 -0.7919  0.4828
  400MOL0     C53922   9.075   7.318   8.017 -0.2304 -0.5481  0.1685
  400MOL0     C53923   9.066   7.338   8.151 -0.0172  0.1199 -0.7731
  400MOL0     O53924   9.110   7.243   8.239  0.6167 -0.0475 -0.8737
  400MOL0     C53925   9.064   7.106   8.213 -0.8800 -0.7847  0.2631
  400MOL0     C53926   9.087   7.007   8.327  1.0198  1.0646  1.2234
  400MOL0     C53927   8.955   6.919   8.352 -0.1171  0.3950  0.0238
  400MOL0     C53928   8.863   6.982   8.466  0.7570  0.3085  0.3988
  400MOL0     C53929   8.785   6.885   8.533  0.9576  0.2631 -0.1548
  400MOL0     C53930   8.722   6.788   8.575 -1.0471 -0.6826  0.0561
  400MOL0     C53931   9.021   7.460   8.185 -0.4228  0.4826 -0.3124
  400MOL0     C53932   8.963   7.547   8.097  0.8573  0.6919 -0.2511
  400MOL0     H53933   9.106   7.696   7.520  0.6160  2.3572 -0.0457
  400MOL0     H53934   9.055   7.870   7.376  1.0980 -3.7503 -0.9435
  400MOL0     H53935   8.964   8.154   7.362 -1.3100  1.1734 -1.7163
  400MOL0     H53936   8.975   8.014   7.246  0.4239 -1.3364  2.0624
  400MOL0     H53937   8.846   8.116   7.089 -1.3426  0.1352 -0.2403
  400MOL0     H53938   8.754   8.205   7.212 -0.4283 -1.2139  0.8000
  400MOL0     H53939   8.948   8.338   7.257 -1.0418 -1.1841 -0.3821
  400MOL0     H53940   9.042   8.278   7.113 -1.2738 -1.5516 -2.2474
  400MOL0     H53941   8.892   8.346   6.958 -0.2178 -1.3392  0.7845
  400MOL0     H53942   8.783   8.426   7.078 -0.2929 -0.5700 -0.8753
  400MOL0     H53943   8.960   8.603   7.122 -4.0946 -1.2693  1.4238
  400MOL0     H53944   9.053   8.514   6.992  0.9162 -0.9938  0.5074
  400MOL0     H53945   8.865   8.543   6.836  1.2187  0.7087 -1.1735
  400MOL0     H53946   8.773   8.622   6.965 -0.1152 -2.0324  1.0037
  400MOL0     H53947   9.046   8.718   6.851 -1.6949 -2.9257 -1.4338
  400MOL0     H53948   8.881   8.780   6.807  0.9423  0.0363  0.2619
  400MOL0     H53949   9.037   8.805   7.060  0.7037  0.0874 -2.0112
  400MOL0     H53950   8.871   8.819   7.077  0.5416  0.0220 -0.7150
  400MOL0     H53951   8.762   9.033   7.012  0.7793  0.2251  1.4192
  400MOL0     H53952   8.713   9.244   6.895 -0.0187 -1.3215 -1.9828
  400MOL0     H53953   8.839   9.357   6.955  1.4975  1.6347 -1.0723
  400MOL0     H53954   8.936   9.392   6.747 -0.7006  2.5833  2.6967
  400MOL0     H53955   8.762   9.432   6.741  2.4330  2.2056  0.9424
  400MOL0     H53956   8.709   9.196   6.631  1.5448 -2.8361  1.5765
  400MOL0     H53957   8.890   9.186   6.616  0.5440  0.9056  0.7939
  400MOL0     H53958   8.750   9.258   6.424  0.5184 -1.7370  1.1500
  400MOL0     H53959   8.888   9.370   6.488  0.0669 -1.0120  0.4660
  400MOL0     H53960   8.490   9.562   6.559 -0.6260  1.4607 -0.5282
  400MOL0     H53961   8.446   9.920   6.542  0.0861  0.2714  0.2336
  400MOL0     H53962   8.332   9.846   6.428  0.4737 -1.1312 -0.8265
  400MOL0     H53963   8.362   9.765   6.579 -2.8610 -0.1158 -2.7744
  400MOL0     H53964   8.885  10.074   6.118 -0.1335  0.5335  0.9450
  400MOL0     H53965   8.900  10.211   5.924  1.0814  1.3021  3.7661
  400MOL0     H53966   8.838  10.435   5.836 -0.1295  3.6736 -1.5549
  400MOL0     H53967   8.834  10.285   5.729 -1.4354 -0.6377  1.1637
  400MOL0     H53968   8.691  10.392   5.577 -4.1127  0.1016  3.0490
  400MOL0     H53969   8.670  10.535   5.665 -2.6933 -2.7789 -3.1465
  400MOL0     H53970   8.812  10.590   5.487 -1.4935 -1.0487  0.9297
  400MOL0     H53971   8.921  10.443   5.516 -2.0502 -0.1878 -1.8079
  400MOL0     H53972   8.879  10.674   5.704 -2.9442 -2.1735 -1.9519
  400MOL0     H53973   9.027  10.556   5.709  1.4082  0.9001  0.1922
  400MOL0     H53974   8.971  10.763   5.499  3.3831  3.2844 -0.2801
  400MOL0     H53975   9.104  10.653   5.488 -1.2221  0.1111 -2.0358
  400MOL0     H53976   9.076  10.841   5.725  0.0043 -2.1851  0.4382
  400MOL0     H53977   9.212  10.738   5.700 -0.5713 -0.8803 -0.4473
  400MOL0     H53978   9.114  10.996   5.568 -2.0790 -2.6266  1.9551
  400MOL0     H53979   9.178  10.875   5.454 -3.3408  2.6891 -1.3505
  400MOL0     H53980   9.353  11.048   5.542  1.8563  1.4835  3.1566
  400MOL0     H53981   9.406  10.891   5.584 -1.1104  0.6018 -1.9695
  400MOL0     H53982   8.471  10.254   5.921  0.1730 -0.2868  0.3592
  400MOL0     H53983   8.460  10.079   6.090 -1.1235  1.9147  0.7132
  400MOL0     H53984   8.797   9.743   6.209  3.4372 -0.3152  1.7132
  400MOL0     H53985   8.830   9.522   6.314 -0.4616  0.4944 -2.8521
  400MOL0     H53986   8.676   7.927   7.577  0.1202  0.5952 -1.7791
  400MOL0     H53987   8.733   7.740   7.730  1.2094  0.7147  0.3823
  400MOL0     H53988   9.036   7.397   7.813  2.6515  2.6962  1.0064
  400MOL0     H53989   9.137   7.243   7.969  0.2554  0.0449 -0.1378
  400MOL0     H53990   8.957   7.112   8.187 -0.3329 -1.0703 -2.3480
  400MOL0     H53991   9.110   7.070   8.121  1.5070  1.4085  0.4761
  400MOL0     H53992   9.102   7.062   8.421  0.1037  0.3728  1.7868
  400MOL0     H53993   9.177   6.946   8.320 -1.8089 -3.9898  3.7549
  400MOL0     H53994   8.990   6.818   8.375  2.1718  0.9304 -0.8224
  400MOL0     H53995   8.900   6.917   8.257 -0.3645  0.5107  0.1643
  400MOL0     H53996   8.785   7.039   8.415 -1.5555 -3.0201 -0.1025
  400MOL0     H53997   8.909   7.050   8.539  2.6148 -0.4168 -0.0389
  400MOL0     H53998   8.666   6.709   8.622 -2.0420  0.1795  0.3598
  400MOL0     H53999   9.024   7.487   8.290  0.2211 -0.8346  0.0197
  400MOL0     H54000   8.921   7.639   8.137 -0.7664 -0.7793  1.6992
  401MOL0     O54001   5.614   3.046  10.019  0.1062 -0.1972 -0.7239
  401MOL0     C54002   5.614   3.163   9.995 -0.1484 -1.0575  0.4597
  401MOL0     O54003   5.585   3.261  10.090 -0.5666 -0.6664 -0.5797
  401MOL0     C54004   5.550   3.224  10.222 -0.1228  0.1893  0.5944
  401MOL0     C54005   5.652   3.208  10.316 -1.4220 -0.4089  0.4240
  401MOL0     C54006   5.621   3.160  10.442  0.7142 -0.5049  0.4746
  401MOL0     C54007   5.482   3.140  10.475  0.1568  0.0448  0.2539
  401MOL0     O54008   5.468   3.079  10.596  1.1034 -0.4787  0.1146
  401MOL0     C54009   5.338   3.026  10.639 -0.1720 -0.4179  0.7850
  401MOL0     C54010   5.372   2.994  10.780  0.1177 -0.1844 -0.7848
  401MOL0     C54011   5.352   3.115  10.873 -1.3934  0.3373  0.4432
  401MOL0     C54012   5.380   3.071  11.015  1.0966 -0.1899 -0.6162
  401MOL0     C54013   5.389   3.178  11.120 -0.4415  0.2166  0.5739
  401MOL0     C54014   5.259   3.249  11.157  0.6528 -1.1196  0.1632
  401MOL0     C54015   5.160   3.157  11.233  0.3883  0.6765 -0.9216
  401MOL0     C54016   5.072   3.249  11.322  0.0743  0.1458 -0.5633
  401MOL0     N54017   4.945   3.183  11.370 -0.9244  0.4577 -1.0979
  401MOL0     C54018   4.939   3.114  11.488  0.0505 -0.1759 -0.1085
  401MOL0     C54019   4.809   3.100  11.516 -0.2796  0.7775  0.1660
  401MOL0     C54020   4.769   3.054  11.655  0.1324 -0.5287  1.1404
  401MOL0     C54021   4.750   3.174  11.754  0.2504 -0.5362 -0.4007
  401MOL0     C54022   4.626   3.263  11.714  0.5363 -0.7095 -0.7723
  401MOL0     C54023   4.631   3.401  11.776  0.2574 -0.0274  0.3441
  401MOL0     O54024   4.551   3.492  11.699  0.5159  0.1237  0.2026
  401MOL0     C54025   4.579   3.531  11.574  0.1112 -1.2642  0.3695
  401MOL0     C54026   4.703   3.525  11.501 -0.3757 -0.3363 -0.9638
  401MOL0     C54027   4.729   3.582  11.372 -0.2748  0.0194  0.7064
  401MOL0     C54028   4.868   3.557  11.318 -0.3149  0.0306 -0.2033
  401MOL0     C54029   4.621   3.642  11.309  0.3944  1.4474 -0.3691
  401MOL0     C54030   4.641   3.698  11.169 -0.3589 -0.5106  0.3089
  401MOL0     O54031   4.521   3.714  11.103 -0.2914  0.8209 -0.2235
  401MOL0     C54032   4.527   3.787  10.987  0.6779 -0.0532 -0.4925
  401MOL0     C54033   4.568   3.920  10.986  1.0846  0.7048 -0.6586
  401MOL0     C54034   4.566   3.992  10.871 -0.5892  1.2557  0.4824
  401MOL0     C54035   4.507   3.933  10.752 -0.0843 -0.0140 -0.2676
  401MOL0     O54036   4.520   3.994  10.634  0.7030  0.3959  0.1183
  401MOL0     C54037   4.416   3.987  10.533 -0.4280 -0.9756  0.0574
  401MOL0     C54038   4.450   4.065  10.411  1.2681  0.2915  0.0333
  401MOL0     C54039   4.517   4.204  10.441  0.6027 -1.0114 -0.8651
  401MOL0     C54040   4.636   4.240  10.350  0.5055 -0.3552 -0.6721
  401MOL0     C54041   4.667   4.392  10.331 -0.4568  0.1345 -0.8420
  401MOL0     C54042   4.821   4.409  10.329 -0.3607 -0.9054  0.4742
  401MOL0     C54043   4.846   4.559  10.360  0.9496  0.1497  0.4943
  401MOL0     C54044   4.807   4.655  10.240 -0.1093 -0.2854  0.4902
  401MOL0    Cl54045   4.866   4.823  10.251 -0.5406 -0.0866 -0.1963
  401MOL0     C54046   4.473   3.794  10.753 -0.5334 -1.0458 -0.1509
  401MOL0     C54047   4.482   3.727  10.875 -0.0105  0.3065 -0.1084
  401MOL0     O54048   4.744   3.758  11.137  0.8836  0.1251 -0.8495
  401MOL0     C54049   4.498   3.651  11.372 -0.0546  0.0806  0.6870
  401MOL0     C54050   4.475   3.605  11.505 -0.0713  0.0088  0.1893
  401MOL0     N54051   4.735   3.166  11.415  0.0285  0.0054 -0.0447
  401MOL0     N54052   4.815   3.218  11.336 -0.7929  0.7620 -0.0554
  401MOL0     C54053   5.381   3.168  10.383  0.3899  0.4540 -0.6997
  401MOL0     C54054   5.417   3.204  10.260  0.0555 -0.4246  0.8118
  401MOL0     C54055   5.638   3.188   9.851 -0.5740  0.1414  0.4527
  401MOL0     C54056   5.636   3.089   9.753  0.6436  0.8429  0.8336
  401MOL0     C54057   5.629   3.127   9.619 -0.1796 -0.3209 -0.0600
  401MOL0     C54058   5.644   3.254   9.570 -0.5713 -1.1408 -0.2435
  401MOL0     O54059   5.633   3.307   9.436  0.4403  0.0185  0.0747
  401MOL0     C54060   5.609   3.223   9.326 -0.2799  0.4166 -0.7664
  401MOL0     C54061   5.743   3.173   9.260  0.6664 -0.1458 -0.6671
  401MOL0     C54062   5.706   3.076   9.147 -1.2026  0.9975  0.3619
  401MOL0     C54063   5.805   3.102   9.037 -0.6861 -0.8519 -0.4939
  401MOL0     C54064   5.943   3.060   9.072 -0.0876  0.9118  0.5513
  401MOL0     C54065   6.051   3.012   9.092 -0.3383 -0.0492 -0.3929
  401MOL0     C54066   5.668   3.357   9.672 -0.0349 -0.7275 -0.5037
  401MOL0     C54067   5.668   3.319   9.806 -0.3735 -0.1809 -1.0904
  401MOL0     H54068   5.760   3.212  10.301 -1.4628 -0.4546  0.1126
  401MOL0     H54069   5.696   3.137  10.516  0.5884  0.8781  1.0697
  401MOL0     H54070   5.249   3.090  10.631  1.2423  1.4285 -2.0398
  401MOL0     H54071   5.304   2.935  10.589 -0.0715 -0.1959  0.2997
  401MOL0     H54072   5.300   2.921  10.817  0.9550 -0.6415 -0.0528
  401MOL0     H54073   5.474   2.955  10.776  0.2297  0.0839 -0.5256
  401MOL0     H54074   5.431   3.186  10.846 -1.4457  0.1177 -0.3143
  401MOL0     H54075   5.253   3.150  10.844 -1.7430 -2.7585 -2.8179
  401MOL0     H54076   5.309   2.994  11.050  1.5605  1.0578  3.5483
  401MOL0     H54077   5.473   3.015  11.000  0.9745 -0.5090 -0.2131
  401MOL0     H54078   5.427   3.131  11.212 -1.0321 -1.1095  0.1680
  401MOL0     H54079   5.453   3.255  11.077 -0.0092 -0.5466 -0.1764
  401MOL0     H54080   5.275   3.330  11.229  0.2803 -1.7904  1.0138
  401MOL0     H54081   5.216   3.305  11.074 -0.9578 -1.6815  0.5902
  401MOL0     H54082   5.102   3.092  11.167  2.3196 -1.7603 -0.3948
  401MOL0     H54083   5.219   3.102  11.307  0.0456 -0.2127 -1.2950
  401MOL0     H54084   5.054   3.342  11.266 -1.8892  0.6820  0.8269
  401MOL0     H54085   5.145   3.270  11.401  0.7195 -1.4841 -0.6997
  401MOL0     H54086   5.023   3.091  11.553 -0.2953 -1.0563  0.0421
  401MOL0     H54087   4.669   3.010  11.646 -0.5158  0.9345  0.8261
  401MOL0     H54088   4.834   2.975  11.693  3.0236  0.8980 -0.4986
  401MOL0     H54089   4.835   3.242  11.739 -1.8122  2.9459  2.1392
  401MOL0     H54090   4.737   3.136  11.855 -1.5054 -1.2875 -0.8736
  401MOL0     H54091   4.541   3.207  11.754  0.0474  0.8727  0.4790
  401MOL0     H54092   4.618   3.282  11.606 -1.4863  1.7895 -0.2751
  401MOL0     H54093   4.734   3.440  11.775  0.1893  0.1752  0.9621
  401MOL0     H54094   4.604   3.396  11.882 -1.9441 -0.4532 -0.1997
  401MOL0     H54095   4.771   3.473  11.567 -1.2559  1.1383  1.1985
  401MOL0     H54096   4.918   3.650  11.290 -0.0537  1.0303  3.1953
  401MOL0     H54097   4.934   3.510  11.392  1.1651  1.9064 -0.2424
  401MOL0     H54098   4.871   3.488  11.232 -0.0086 -0.6852  0.3705
  401MOL0     H54099   4.599   3.969  11.078 -3.1607 -0.8020  1.8907
  401MOL0     H54100   4.601   4.094  10.864  0.5904  0.7639 -2.2883
  401MOL0     H54101   4.403   3.882  10.506  0.6322 -1.3749  1.0169
  401MOL0     H54102   4.321   4.022  10.574  0.9315  0.9943  1.6992
  401MOL0     H54103   4.516   4.001  10.352  3.8377  1.9192  0.9607
  401MOL0     H54104   4.366   4.084  10.343  0.6444 -0.4820  0.5803
  401MOL0     H54105   4.542   4.224  10.546 -1.7959 -0.8127 -0.2587
  401MOL0     H54106   4.432   4.273  10.435  0.7886 -0.6666  0.1678
  401MOL0     H54107   4.726   4.187  10.381  2.4651  2.3589 -1.4425
  401MOL0     H54108   4.602   4.203  10.253 -2.5117 -0.5806  0.3616
  401MOL0     H54109   4.626   4.458  10.408  0.4369 -0.3225  0.0531
  401MOL0     H54110   4.627   4.421  10.233 -0.8955 -1.0797 -1.0355
  401MOL0     H54111   4.860   4.355  10.416 -1.9808 -2.6076  0.2025
  401MOL0     H54112   4.864   4.373  10.235  0.1192 -1.7744  1.0105
  401MOL0     H54113   4.954   4.574  10.351  0.5300  3.8603 -0.0317
  401MOL0     H54114   4.810   4.587  10.459 -3.4142 -0.2128 -0.7723
  401MOL0     H54115   4.699   4.655  10.223  0.3253  1.5287 -3.2062
  401MOL0     H54116   4.848   4.615  10.147 -1.3428  1.3931 -0.8428
  401MOL0     H54117   4.441   3.757  10.656 -1.9194  0.1256 -0.1700
  401MOL0     H54118   4.463   3.621  10.883 -2.0201  0.5572 -1.0034
  401MOL0     H54119   4.417   3.708  11.327 -1.0267 -1.9867 -0.3121
  401MOL0     H54120   4.378   3.622  11.549 -0.3394 -0.3476 -0.2428
  401MOL0     H54121   5.276   3.162  10.411 -0.3469  4.0141 -2.2170
  401MOL0     H54122   5.340   3.229  10.187  1.0681 -1.0831 -0.5227
  401MOL0     H54123   5.617   2.983   9.760  0.3425  0.7894 -0.4518
  401MOL0     H54124   5.621   3.047   9.547  0.0702 -0.6410  0.2643
  401MOL0     H54125   5.539   3.144   9.354 -0.0953 -0.9382 -3.7812
  401MOL0     H54126   5.549   3.266   9.245 -1.9123 -0.1599  0.0843
  401MOL0     H54127   5.817   3.137   9.332  2.0483 -0.2324 -2.0820
  401MOL0     H54128   5.783   3.267   9.221 -0.4488  0.3691 -0.6204
  401MOL0     H54129   5.605   3.100   9.113 -1.3688 -1.4745 -1.0988
  401MOL0     H54130   5.703   2.974   9.185 -1.7825  0.1766 -1.7269
  401MOL0     H54131   5.787   3.208   9.016 -4.6897 -1.4162 -0.7299
  401MOL0     H54132   5.772   3.048   8.947  4.2775 -0.1747 -3.0693
  401MOL0     H54133   6.147   2.979   9.128 -2.2456 -0.5765  5.2029
  401MOL0     H54134   5.678   3.463   9.648 -4.5506  0.7193  2.6784
  401MOL0     H54135   5.670   3.390   9.888 -0.2613  0.0056 -1.2535
  402MOL0     O54136   3.957   2.648   2.934  0.5392  0.0077 -0.0667
  402MOL0     C54137   4.009   2.558   2.872  0.1625  0.3927 -0.7379
  402MOL0     O54138   4.133   2.561   2.806  0.2152  0.0683 -0.4537
  402MOL0     C54139   4.208   2.662   2.853 -0.5696 -0.0122 -0.0159
  402MOL0     C54140   4.314   2.628   2.933  0.1921  0.6630 -0.7717
  402MOL0     C54141   4.407   2.722   2.971 -0.0544 -0.2902  0.0585
  402MOL0     C54142   4.395   2.852   2.930  0.4472 -0.5897 -0.2406
  402MOL0     O54143   4.501   2.924   2.967  0.4809 -0.2837  0.5611
  402MOL0     C54144   4.489   3.069   2.954 -0.1901  0.3234  0.0348
  402MOL0     C54145   4.614   3.125   3.025  1.2292 -0.8987  0.2677
  402MOL0     C54146   4.587   3.146   3.172 -0.5306  0.1603 -0.2776
  402MOL0     C54147   4.709   3.209   3.250  0.0530  0.6441 -0.0718
  402MOL0     C54148   4.693   3.255   3.393 -0.0013  0.1739 -1.3450
  402MOL0     C54149   4.639   3.157   3.502  0.7782  0.4158  1.0274
  402MOL0     C54150   4.728   3.032   3.525 -0.1892  0.0795  0.2182
  402MOL0     C54151   4.654   2.942   3.625 -0.4070 -0.7217 -0.8331
  402MOL0     N54152   4.635   3.010   3.751 -0.2135 -0.6542 -0.4215
  402MOL0     C54153   4.734   3.031   3.849 -0.3290  0.4466 -0.1556
  402MOL0     C54154   4.671   3.067   3.967 -1.0866 -0.6660 -0.2360
  402MOL0     C54155   4.733   3.097   4.101 -0.8337  0.9234 -1.1300
  402MOL0     C54156   4.689   3.224   4.166 -0.2137 -0.5021  0.5710
  402MOL0     C54157   4.561   3.196   4.253  0.2263  0.6635  0.5282
  402MOL0     C54158   4.497   3.316   4.312  0.2310  0.0145 -0.6507
  402MOL0     O54159   4.444   3.416   4.230  0.1674 -0.7478 -0.4668
  402MOL0     C54160   4.309   3.411   4.213  0.4671  0.1864  1.1014
  402MOL0     C54161   4.242   3.493   4.292 -0.0674  0.1250 -0.2128
  402MOL0     C54162   4.103   3.481   4.305 -0.1980  0.2029 -0.0188
  402MOL0     C54163   4.041   3.568   4.412  0.4112  0.1460  0.4644
  402MOL0     C54164   4.031   3.385   4.228  0.7764  1.6158  0.2316
  402MOL0     C54165   3.880   3.342   4.244 -0.7202 -0.4721  0.1916
  402MOL0     O54166   3.797   3.427   4.307  0.0918 -0.0193 -0.0403
  402MOL0     C54167   3.666   3.401   4.330 -0.0526 -0.7608  0.8670
  402MOL0     C54168   3.604   3.363   4.455 -0.6611  0.5928  0.5413
  402MOL0     C54169   3.471   3.368   4.478  0.5121 -0.2166 -0.3196
  402MOL0     C54170   3.392   3.399   4.369 -0.4139 -0.1123  0.0311
  402MOL0     O54171   3.259   3.420   4.373 -0.0456  0.1920 -0.5667
  402MOL0     C54172   3.187   3.317   4.435 -0.3061  0.1365  0.0994
  402MOL0     C54173   3.095   3.265   4.329  0.2309 -0.0002  0.0137
  402MOL0     C54174   3.006   3.146   4.364  0.9771  0.5007 -0.3401
  402MOL0     C54175   2.918   3.153   4.489  0.3833  0.2923  0.8609
  402MOL0     C54176   2.824   3.031   4.500 -0.0251  0.0422  0.3134
  402MOL0     C54177   2.720   3.014   4.392  0.6029  0.8243 -0.3267
  402MOL0     C54178   2.693   2.863   4.353 -0.9893 -0.6862 -0.1489
  402MOL0     C54179   2.667   2.774   4.478  0.4498  0.3873  0.4270
  402MOL0    Cl54180   2.731   2.621   4.436  0.5285  0.0756  0.2825
  402MOL0     C54181   3.441   3.452   4.251 -0.5564 -0.4808  0.7099
  402MOL0     C54182   3.581   3.435   4.223  0.3103  0.5045  1.3722
  402MOL0     O54183   3.837   3.241   4.185  0.2206  0.5975 -0.4717
  402MOL0     C54184   4.100   3.303   4.141 -0.3363 -0.3162  0.2178
  402MOL0     C54185   4.240   3.322   4.127 -0.7364 -1.2324 -0.7324
  402MOL0     N54186   4.536   3.068   3.931 -0.1961  0.1964 -0.3118
  402MOL0     N54187   4.518   3.044   3.810 -0.4689  0.4452 -0.0520
  402MOL0     C54188   4.291   2.892   2.854  0.4808 -0.5702  0.3248
  402MOL0     C54189   4.202   2.795   2.813 -0.9075 -0.4295  0.3929
  402MOL0     C54190   3.929   2.434   2.854  0.6206 -0.8906 -0.8774
  402MOL0     C54191   3.933   2.352   2.741  0.3020 -0.1829  0.0434
  402MOL0     C54192   3.847   2.236   2.735  0.4340  0.2157  0.0570
  402MOL0     C54193   3.764   2.200   2.851 -0.5882  0.6005 -0.4006
  402MOL0     O54194   3.680   2.099   2.834  0.6448  0.4715  0.2182
  402MOL0     C54195   3.601   2.049   2.947 -0.2809 -0.1496 -0.4634
  402MOL0     C54196   3.508   1.939   2.903 -0.6803  0.0565  0.1424
  402MOL0     C54197   3.429   1.900   3.032 -0.0049 -0.6971  0.3636
  402MOL0     C54198   3.361   1.758   3.009  0.4880 -0.5575  0.1020
  402MOL0     C54199   3.451   1.646   2.995 -0.2261  0.0011  0.4845
  402MOL0     C54200   3.521   1.549   2.980  0.0188 -0.5344 -0.0258
  402MOL0     C54201   3.784   2.274   2.974  1.3067 -0.1364  0.6806
  402MOL0     C54202   3.859   2.393   2.960 -0.5489  0.4163  0.0156
  402MOL0     H54203   4.332   2.522   2.944 -1.8397  0.2428 -1.0824
  402MOL0     H54204   4.486   2.676   3.030 -0.8759 -1.2444  0.4514
  402MOL0     H54205   4.482   3.088   2.846  0.7247 -1.4238 -0.3639
  402MOL0     H54206   4.391   3.092   2.998 -0.7454 -1.5711 -0.1352
  402MOL0     H54207   4.704   3.064   3.017  0.6271 -1.8536  0.6463
  402MOL0     H54208   4.635   3.219   2.972 -1.9598 -1.1615 -1.7042
  402MOL0     H54209   4.494   3.198   3.195 -0.8563 -0.9687  1.1361
  402MOL0     H54210   4.576   3.047   3.219  0.0786 -0.8416 -2.1528
  402MOL0     H54211   4.796   3.144   3.236  0.7806  1.6219 -0.1728
  402MOL0     H54212   4.717   3.300   3.189  0.9413  0.0973 -0.7928
  402MOL0     H54213   4.788   3.295   3.430 -0.3013 -0.8156  0.6806
  402MOL0     H54214   4.634   3.347   3.385 -0.1260  0.6130  2.5843
  402MOL0     H54215   4.621   3.212   3.594  1.5520  1.6854  0.4387
  402MOL0     H54216   4.539   3.123   3.472  0.0808  1.3489  2.2262
  402MOL0     H54217   4.759   2.977   3.436 -1.9861 -0.1778 -0.3051
  402MOL0     H54218   4.818   3.060   3.580 -0.8829 -0.5387  1.7129
  402MOL0     H54219   4.723   2.861   3.648  2.1779  1.2308 -1.2771
  402MOL0     H54220   4.552   2.906   3.605 -1.7725  1.6954  1.2511
  402MOL0     H54221   4.841   3.024   3.834 -0.3283 -1.6847  0.5283
  402MOL0     H54222   4.713   3.011   4.166  1.0533  0.0301 -1.6493
  402MOL0     H54223   4.842   3.097   4.085 -0.5324  2.9363  0.4965
  402MOL0     H54224   4.677   3.303   4.092 -1.7855 -2.1726 -1.0774
  402MOL0     H54225   4.770   3.254   4.233  0.9582  0.0371 -1.0445
  402MOL0     H54226   4.592   3.135   4.338  1.0074  1.2435  0.6599
  402MOL0     H54227   4.483   3.142   4.198 -1.2091  1.0341  2.1019
  402MOL0     H54228   4.572   3.368   4.372 -1.4053 -0.1259  1.6166
  402MOL0     H54229   4.418   3.275   4.374  0.5484 -0.2194 -0.4000
  402MOL0     H54230   4.285   3.566   4.360 -1.0123  1.3755 -0.9191
  402MOL0     H54231   4.099   3.659   4.429  0.1227  0.8601 -2.0140
  402MOL0     H54232   3.942   3.611   4.393 -2.2996 -3.9940  3.3516
  402MOL0     H54233   4.036   3.519   4.510  0.8349 -0.6140  0.1148
  402MOL0     H54234   3.676   3.345   4.534  0.8831  0.0407 -0.9230
  402MOL0     H54235   3.429   3.345   4.576  0.8116  4.5649  1.1963
  402MOL0     H54236   3.240   3.229   4.471 -0.2740 -0.0854 -0.4867
  402MOL0     H54237   3.137   3.354   4.525  0.6569  1.5560  0.0706
  402MOL0     H54238   3.031   3.353   4.315 -1.0217 -0.9514 -0.3898
  402MOL0     H54239   3.162   3.234   4.248  0.5754 -0.9900  0.6615
  402MOL0     H54240   3.069   3.057   4.362  1.0886  0.4976 -4.3631
  402MOL0     H54241   2.941   3.134   4.277  0.8488  2.4420 -0.5629
  402MOL0     H54242   2.988   3.146   4.573  1.7621  0.3187 -0.2589
  402MOL0     H54243   2.856   3.243   4.487 -1.3950 -0.8529  1.4098
  402MOL0     H54244   2.775   3.026   4.597 -0.2949 -1.3446  0.1295
  402MOL0     H54245   2.900   2.952   4.494  0.5552  0.2258  3.6048
  402MOL0     H54246   2.630   3.066   4.427  0.5899  1.3516 -1.1054
  402MOL0     H54247   2.736   3.077   4.304  0.7059  2.9453  1.1338
  402MOL0     H54248   2.781   2.830   4.297 -1.1105  1.0232 -1.4316
  402MOL0     H54249   2.607   2.874   4.286 -0.5803 -0.4131 -0.6410
  402MOL0     H54250   2.559   2.767   4.485  0.5179 -0.7553  0.5045
  402MOL0     H54251   2.722   2.821   4.560 -1.9201  3.8877  0.2266
  402MOL0     H54252   3.373   3.489   4.175  0.7391 -0.8827 -0.7065
  402MOL0     H54253   3.613   3.473   4.126 -0.5921  0.8259  1.1969
  402MOL0     H54254   4.057   3.217   4.092  3.4259 -1.3059 -1.7804
  402MOL0     H54255   4.294   3.261   4.054  0.5688  0.1982 -1.0198
  402MOL0     H54256   4.300   2.982   2.795  2.6789 -1.7357 -1.2570
  402MOL0     H54257   4.124   2.824   2.743  1.7043  1.0157 -2.1431
  402MOL0     H54258   3.987   2.381   2.651 -2.3406  1.6169 -1.0818
  402MOL0     H54259   3.845   2.166   2.652 -0.7264  2.0125 -1.5250
  402MOL0     H54260   3.666   2.005   3.023 -1.5290 -0.5121  0.4282
  402MOL0     H54261   3.542   2.132   2.987  1.1319  0.3440  0.7018
  402MOL0     H54262   3.575   1.865   2.858 -0.3907 -0.9592  2.1477
  402MOL0     H54263   3.432   1.967   2.830 -1.3843 -1.3460  0.2945
  402MOL0     H54264   3.349   1.972   3.050  0.4020  0.2088 -1.2416
  402MOL0     H54265   3.491   1.911   3.121 -0.7495 -2.7053  1.1944
  402MOL0     H54266   3.306   1.759   2.915  3.0976  0.8889 -1.5158
  402MOL0     H54267   3.289   1.737   3.088 -0.5465  2.2695  0.0096
  402MOL0     H54268   3.569   1.453   2.967  0.8164  0.0040 -1.2377
  402MOL0     H54269   3.728   2.251   3.064 -0.2506 -2.1639 -0.7104
  402MOL0     H54270   3.859   2.450   3.052  1.3784  0.5148  0.0018
  403MOL0     O54271  11.004   3.526   8.270  0.0682  0.2954 -0.5416
  403MOL0     C54272  10.953   3.419   8.237 -0.3154  0.4761  0.4971
  403MOL0     O54273  10.828   3.386   8.256  0.8589 -0.0922 -0.2848
  403MOL0     C54274  10.745   3.459   8.337 -0.1864  0.8894  0.1563
  403MOL0     C54275  10.631   3.384   8.366 -0.0350  0.5102 -0.8300
  403MOL0     C54276  10.543   3.431   8.468  0.1917  0.7694 -1.0147
  403MOL0     C54277  10.558   3.555   8.532  0.0477  0.1546  0.2200
  403MOL0     O54278  10.477   3.573   8.652 -0.4365 -0.3095  0.2566
  403MOL0     C54279  10.498   3.682   8.737 -0.5572 -0.3127  0.9846
  403MOL0     C54280  10.432   3.814   8.684  0.1030  0.5804 -0.6331
  403MOL0     C54281  10.428   3.940   8.783  0.4467 -0.4700  1.2392
  403MOL0     C54282  10.333   3.910   8.898  0.4364  0.0279 -0.7549
  403MOL0     C54283  10.305   4.031   8.990  0.1617  0.3408 -0.3809
  403MOL0     C54284  10.260   4.160   8.918  0.4332 -0.0364 -0.1478
  403MOL0     C54285  10.265   4.282   9.014 -0.2860  0.3472 -0.1716
  403MOL0     C54286  10.402   4.328   9.065  0.2482  0.0267 -0.3859
  403MOL0     N54287  10.399   4.414   9.180 -0.2665  0.6590 -0.5173
  403MOL0     C54288  10.300   4.460   9.259 -0.1031 -0.4874  1.0010
  403MOL0     C54289  10.360   4.551   9.340  0.5935  0.4622  0.0986
  403MOL0     C54290  10.285   4.639   9.441  0.8704  0.0111 -0.1465
  403MOL0     C54291  10.274   4.779   9.364 -0.7403 -0.1131  0.2040
  403MOL0     C54292  10.397   4.866   9.385  0.4963  0.0788  0.1572
  403MOL0     C54293  10.403   4.934   9.521  0.2392 -0.4565  0.1707
  403MOL0     O54294  10.289   4.995   9.566  0.1284 -0.2242  0.5955
  403MOL0     C54295  10.237   5.103   9.497 -0.0821  0.6764  0.9429
  403MOL0     C54296  10.299   5.173   9.391  0.1384 -0.7402  0.0288
  403MOL0     C54297  10.219   5.280   9.334 -0.0913 -0.3155  0.8623
  403MOL0     C54298  10.295   5.350   9.222 -0.0101  1.1846  0.6504
  403MOL0     C54299  10.082   5.317   9.370 -0.4834  0.2346  0.2889
  403MOL0     C54300  10.010   5.421   9.296 -0.4155 -0.2545 -0.6118
  403MOL0     O54301   9.945   5.513   9.366  0.0303 -0.4930  0.5655
  403MOL0     C54302   9.896   5.620   9.298  0.5533  0.3776  0.1785
  403MOL0     C54303   9.970   5.723   9.245 -0.1685 -0.7439 -0.3106
  403MOL0     C54304   9.910   5.828   9.180 -0.2656 -0.9555 -1.0106
  403MOL0     C54305   9.779   5.829   9.157 -0.7463  0.1830  0.6376
  403MOL0     O54306   9.724   5.938   9.095 -0.4479  0.2543  0.2553
  403MOL0     C54307   9.594   5.931   9.040 -0.3729 -0.1437  0.8052
  403MOL0     C54308   9.572   6.048   8.944 -0.2976  0.5515 -0.0032
  403MOL0     C54309   9.446   6.014   8.864 -0.2752  0.2113 -0.4256
  403MOL0     C54310   9.406   6.114   8.760  0.2258  0.0785  0.0649
  403MOL0     C54311   9.291   6.055   8.677  0.2605 -0.0557 -0.3824
  403MOL0     C54312   9.270   6.121   8.547 -0.1201 -0.6125  0.3055
  403MOL0     C54313   9.166   6.068   8.439  0.2333  0.4128 -1.0098
  403MOL0     C54314   9.232   5.945   8.371 -0.1631  0.0855 -0.1837
  403MOL0    Cl54315   9.380   5.982   8.267  0.0128 -0.0291 -0.3484
  403MOL0     C54316   9.695   5.731   9.213 -0.0320 -0.5008  0.7693
  403MOL0     C54317   9.760   5.626   9.281 -0.3448  0.1240 -0.1002
  403MOL0     O54318  10.004   5.404   9.175 -0.7404  0.4841  0.8006
  403MOL0     C54319  10.036   5.263   9.487 -0.1413  0.0856  0.0607
  403MOL0     C54320  10.121   5.163   9.542  1.5416  0.1097 -0.3590
  403MOL0     N54321  10.488   4.564   9.304  0.0353  0.5504 -0.1008
  403MOL0     N54322  10.513   4.466   9.218  0.4719 -0.6149 -0.8236
  403MOL0     C54323  10.675   3.628   8.501 -0.2005  0.1951  0.3569
  403MOL0     C54324  10.764   3.580   8.405  0.2789  0.6442  0.4451
  403MOL0     C54325  11.026   3.334   8.135 -0.4094 -1.0496  0.4766
  403MOL0     C54326  11.165   3.347   8.126 -0.6170 -0.1498 -1.0295
  403MOL0     C54327  11.230   3.249   8.054 -0.3795 -0.6107  0.4736
  403MOL0     C54328  11.168   3.143   7.973  0.1733 -0.4086  0.2119
  403MOL0     O54329  11.226   3.054   7.887  0.2892 -0.1044 -0.0409
  403MOL0     C54330  11.362   3.027   7.887  0.1690 -0.2824  0.8223
  403MOL0     C54331  11.412   2.938   8.017 -0.4203 -0.0064 -1.1043
  403MOL0     C54332  11.392   2.789   7.994 -0.1952 -0.9990  0.0338
  403MOL0     C54333  11.379   2.677   8.103 -1.0420  0.3118 -0.0130
  403MOL0     C54334  11.512   2.654   8.174 -0.0390 -0.5047  1.0833
  403MOL0     C54335  11.615   2.645   8.241  0.6174  0.4850 -1.1153
  403MOL0     C54336  11.030   3.144   7.983 -0.2632  0.0458  0.3262
  403MOL0     C54337  10.956   3.238   8.056  0.4235 -0.6246  0.0206
  403MOL0     H54338  10.619   3.285   8.323  1.8498 -0.3771  0.5253
  403MOL0     H54339  10.452   3.372   8.480  0.5015  0.0223 -2.2402
  403MOL0     H54340  10.460   3.657   8.836  2.0136 -2.6581  1.5064
  403MOL0     H54341  10.604   3.706   8.745 -0.0927 -1.5771 -0.6787
  403MOL0     H54342  10.488   3.846   8.596 -0.0528  1.8676 -0.2899
  403MOL0     H54343  10.332   3.781   8.655  0.4975  0.8944 -2.4260
  403MOL0     H54344  10.523   3.943   8.836 -1.2168 -3.7719  4.9951
  403MOL0     H54345  10.403   4.029   8.725  1.0935 -0.0907  1.5433
  403MOL0     H54346  10.238   3.879   8.855 -0.4883  0.3928  0.9367
  403MOL0     H54347  10.367   3.833   8.967  2.9799  1.0980 -0.6845
  403MOL0     H54348  10.228   3.990   9.056 -1.4384 -2.1790 -3.4788
  403MOL0     H54349  10.395   4.050   9.048 -1.9406  0.2207  3.2475
  403MOL0     H54350  10.327   4.189   8.837  1.7062  2.5612  1.6908
  403MOL0     H54351  10.158   4.159   8.880  0.9363  0.4625 -1.5673
  403MOL0     H54352  10.224   4.362   8.953  2.1576  0.9184 -1.1696
  403MOL0     H54353  10.207   4.253   9.103  1.6440  0.7926  1.3036
  403MOL0     H54354  10.451   4.371   8.978 -2.2694  1.6153 -1.1056
  403MOL0     H54355  10.464   4.243   9.098  0.0034  0.5084  1.4293
  403MOL0     H54356  10.195   4.433   9.261 -0.0790 -0.5615  1.8151
  403MOL0     H54357  10.189   4.590   9.462  1.5258 -0.6481  1.5230
  403MOL0     H54358  10.331   4.642   9.541 -0.3236 -0.2998  0.4332
  403MOL0     H54359  10.183   4.829   9.398 -0.7519  0.5462 -0.7677
  403MOL0     H54360  10.280   4.764   9.256  1.0209 -1.1543  0.4148
  403MOL0     H54361  10.403   4.931   9.298 -1.4435 -0.9432 -0.7992
  403MOL0     H54362  10.482   4.799   9.368 -0.8317 -1.2883 -1.5055
  403MOL0     H54363  10.494   4.995   9.521  0.2724 -0.5038  0.5938
  403MOL0     H54364  10.418   4.855   9.596 -3.0171 -2.4166 -1.0331
  403MOL0     H54365  10.398   5.148   9.353  0.1536  1.4779 -1.5705
  403MOL0     H54366  10.227   5.417   9.169  0.5602  0.7091 -0.7101
  403MOL0     H54367  10.383   5.405   9.255  0.0844  0.5582  1.5039
  403MOL0     H54368  10.322   5.282   9.141  0.7397  3.3304 -0.9531
  403MOL0     H54369  10.077   5.737   9.247 -0.2428 -0.2205  1.2361
  403MOL0     H54370   9.972   5.907   9.139  0.9847  0.9391  3.7866
  403MOL0     H54371   9.581   5.833   8.995 -0.6830  0.4895 -0.5344
  403MOL0     H54372   9.510   5.947   9.109 -2.4947  0.1346 -1.6537
  403MOL0     H54373   9.553   6.139   9.003  0.2080  1.6353 -1.4457
  403MOL0     H54374   9.655   6.068   8.875  0.8882  0.6289  1.3954
  403MOL0     H54375   9.369   6.000   8.940 -0.3636  2.2806 -0.0578
  403MOL0     H54376   9.461   5.923   8.807  0.3726 -0.7537  1.1971
  403MOL0     H54377   9.370   6.206   8.806  0.4113 -1.3259  3.3090
  403MOL0     H54378   9.493   6.134   8.697 -1.0127 -1.9334 -2.4766
  403MOL0     H54379   9.195   6.070   8.727 -0.0428 -0.0899 -0.9483
  403MOL0     H54380   9.305   5.947   8.665  1.5898 -0.0260  0.6930
  403MOL0     H54381   9.231   6.219   8.574  1.1982 -0.0762  0.2926
  403MOL0     H54382   9.368   6.139   8.503  0.1545  2.6907  1.9865
  403MOL0     H54383   9.141   6.145   8.366 -0.4337  2.5329  1.3080
  403MOL0     H54384   9.071   6.040   8.484  0.0873 -2.3834 -2.8488
  403MOL0     H54385   9.153   5.897   8.313 -0.8836 -0.5097  1.2566
  403MOL0     H54386   9.242   5.869   8.448  0.8625  2.4866  2.1989
  403MOL0     H54387   9.586   5.735   9.210 -0.0526 -1.1367  0.7309
  403MOL0     H54388   9.694   5.556   9.331 -2.0021  0.7081 -1.3951
  403MOL0     H54389   9.949   5.311   9.530 -1.4349 -0.9925 -1.2475
  403MOL0     H54390  10.075   5.110   9.624 -0.0067 -1.9869 -2.4612
  403MOL0     H54391  10.708   3.720   8.550 -2.2176  1.1836 -0.0250
  403MOL0     H54392  10.853   3.640   8.389 -0.3424  1.8329  1.2006
  403MOL0     H54393  11.226   3.415   8.185 -0.2908  0.9985 -2.6038
  403MOL0     H54394  11.338   3.252   8.061 -0.2783 -0.8792 -0.7543
  403MOL0     H54395  11.399   2.975   7.798 -1.9742  0.6933 -0.7293
  403MOL0     H54396  11.418   3.121   7.899 -3.2791  1.6657  3.5811
  403MOL0     H54397  11.351   2.968   8.103  0.4054 -1.7685  0.1474
  403MOL0     H54398  11.518   2.957   8.037 -0.6113  0.9883 -0.9759
  403MOL0     H54399  11.476   2.748   7.937 -1.7127  0.4514 -3.5919
  403MOL0     H54400  11.301   2.772   7.935  0.5190 -2.7656 -0.6083
  403MOL0     H54401  11.356   2.575   8.071 -1.2726  0.7329 -1.2335
  403MOL0     H54402  11.302   2.707   8.175 -3.2619 -1.4390 -1.5099
  403MOL0     H54403  11.702   2.634   8.303  1.1518 -1.6648 -2.1604
  403MOL0     H54404  10.972   3.077   7.920 -0.3733  1.4486 -1.1276
  403MOL0     H54405  10.848   3.239   8.060  0.4450  0.5667  0.6877
  404MOL0     O54406   2.043   9.368   8.917 -0.4607  0.1785 -0.9093
  404MOL0     C54407   2.079   9.341   8.800 -0.9348  0.0433 -0.3545
  404MOL0     O54408   2.097   9.218   8.742  1.2222  0.5853  0.5688
  404MOL0     C54409   2.077   9.120   8.829  0.0119 -0.3907  0.1154
  404MOL0     C54410   2.178   9.047   8.895 -0.2687 -0.0293 -0.3504
  404MOL0     C54411   2.146   8.953   8.992 -0.1967  0.0280 -0.0519
  404MOL0     C54412   2.009   8.916   9.011  0.9984 -1.0219 -0.0815
  404MOL0     O54413   1.955   8.829   9.092 -0.0799 -0.1778  0.7324
  404MOL0     C54414   2.042   8.734   9.148  0.0382 -0.5881  0.0623
  404MOL0     C54415   2.094   8.633   9.041 -0.4468  0.0085 -0.8826
  404MOL0     C54416   2.013   8.499   9.056 -0.7536 -0.6611  0.3583
  404MOL0     C54417   2.064   8.413   9.181  0.6393 -0.0787  0.0055
  404MOL0     C54418   1.972   8.298   9.218 -0.3151  0.2602 -0.3015
  404MOL0     C54419   1.919   8.219   9.098 -1.1875  0.1882  0.3824
  404MOL0     C54420   1.850   8.086   9.146 -0.8667 -0.9862  0.4484
  404MOL0     C54421   1.959   7.978   9.126 -0.5032  0.1833  0.0594
  404MOL0     N54422   1.915   7.859   9.200 -0.0204 -0.1198 -0.1554
  404MOL0     C54423   1.821   7.768   9.173 -0.2511  0.1906 -0.3113
  404MOL0     C54424   1.833   7.666   9.261 -0.1131  0.5334 -0.1618
  404MOL0     C54425   1.750   7.542   9.257  0.7998  0.1476  0.0865
  404MOL0     C54426   1.791   7.426   9.168 -0.6752  1.0667  1.6599
  404MOL0     C54427   1.940   7.413   9.166  0.5269  0.2253 -0.3740
  404MOL0     C54428   1.985   7.296   9.078  0.0078  0.3505 -0.6646
  404MOL0     O54429   2.080   7.228   9.157  0.1083 -0.1229  0.3241
  404MOL0     C54430   2.036   7.132   9.247  0.2665  0.4441  0.3253
  404MOL0     C54431   1.924   7.045   9.241  0.1540  0.2055 -0.3212
  404MOL0     C54432   1.886   6.955   9.344  0.0973  0.4500  0.4142
  404MOL0     C54433   1.759   6.871   9.322  0.5346  0.2558 -0.1399
  404MOL0     C54434   1.955   6.974   9.462 -0.7409  0.8999  0.7785
  404MOL0     C54435   1.927   6.895   9.580  0.6509 -0.9798  0.4740
  404MOL0     O54436   2.028   6.888   9.659 -0.3569 -1.1813  0.6529
  404MOL0     C54437   2.009   6.833   9.792  0.1857 -0.1352  0.9326
  404MOL0     C54438   1.968   6.694   9.807 -0.4250  1.0287 -0.5562
  404MOL0     C54439   1.937   6.634   9.927  0.0172 -0.1905 -0.0786
  404MOL0     C54440   1.943   6.712  10.043  0.4654 -0.3476 -0.4136
  404MOL0     O54441   1.892   6.669  10.163 -0.9155  0.5429 -0.1459
  404MOL0     C54442   1.983   6.575  10.234  1.1036  0.3635 -0.0107
  404MOL0     C54443   1.946   6.433  10.214  0.5923  0.1851 -0.2420
  404MOL0     C54444   1.832   6.392  10.298 -0.1412 -0.4919  0.2047
  404MOL0     C54445   1.873   6.320  10.421  1.5399 -0.8057 -0.3771
  404MOL0     C54446   1.874   6.406  10.547 -0.3327  0.0111 -0.1824
  404MOL0     C54447   1.949   6.317  10.647  1.0175 -0.1492 -0.3577
  404MOL0     C54448   1.956   6.375  10.786  0.3761  0.5307  0.3748
  404MOL0     C54449   1.825   6.341  10.874 -1.1187 -0.1285 -0.1509
  404MOL0    Cl54450   1.678   6.416  10.815  0.0050  0.3886 -0.5077
  404MOL0     C54451   1.982   6.844  10.035 -0.4052  1.0183 -0.8726
  404MOL0     C54452   2.010   6.904   9.913 -0.0668 -0.3284  0.9515
  404MOL0     O54453   1.808   6.861   9.601 -0.0628 -0.3149  0.2659
  404MOL0     C54454   2.077   7.045   9.462  0.4620  0.2693  0.3358
  404MOL0     C54455   2.121   7.125   9.358 -0.5940 -0.0516 -0.3488
  404MOL0     N54456   1.928   7.706   9.356  0.1429  0.8806 -0.0392
  404MOL0     N54457   1.974   7.815   9.314  0.9066  0.3125  0.0274
  404MOL0     C54458   1.906   8.984   8.938 -0.9791 -0.3338 -0.6491
  404MOL0     C54459   1.944   9.085   8.854  1.8915  0.3754  0.9302
  404MOL0     C54460   2.143   9.449   8.728 -0.4692  0.1616 -0.3925
  404MOL0     C54461   2.167   9.565   8.804 -1.0364  0.0767 -0.9704
  404MOL0     C54462   2.261   9.658   8.766  0.5376  0.5623 -0.7417
  404MOL0     C54463   2.330   9.638   8.652 -0.3642 -0.9245  0.5737
  404MOL0     O54464   2.417   9.734   8.604 -0.2119 -1.0656  0.7366
  404MOL0     C54465   2.541   9.741   8.657  0.5749 -0.0195  1.2822
  404MOL0     C54466   2.595   9.872   8.688 -0.1780 -0.9133 -0.1554
  404MOL0     C54467   2.488   9.968   8.757  1.1880  0.2810  0.4181
  404MOL0     C54468   2.532  10.114   8.726 -1.1369 -0.3394 -0.9088
  404MOL0     C54469   2.445  10.212   8.791 -0.4080  0.5236 -0.0715
  404MOL0     C54470   2.380  10.289   8.860  0.5160  0.2633 -0.3536
  404MOL0     C54471   2.294   9.523   8.568 -0.5267 -0.4017  0.0087
  404MOL0     C54472   2.203   9.431   8.602  0.2860  0.2756 -0.5667
  404MOL0     H54473   2.280   9.066   8.862 -0.8133  0.0763 -2.0879
  404MOL0     H54474   2.226   8.902   9.044 -0.9729 -0.5894  0.5584
  404MOL0     H54475   2.133   8.777   9.190 -0.5034  0.9660 -0.2683
  404MOL0     H54476   1.981   8.690   9.227 -3.4353 -0.2981 -2.2255
  404MOL0     H54477   2.096   8.665   8.937 -0.9651  0.7911 -0.6638
  404MOL0     H54478   2.200   8.631   9.069 -0.2990  2.4713 -1.0214
  404MOL0     H54479   1.908   8.524   9.072 -0.5904  1.0634 -0.9820
  404MOL0     H54480   2.017   8.449   8.959  0.6277  0.2231 -0.0641
  404MOL0     H54481   2.166   8.377   9.170  1.1303  0.8988  1.2552
  404MOL0     H54482   2.060   8.483   9.265  1.6788  0.7112 -0.5876
  404MOL0     H54483   2.033   8.233   9.282  1.9660 -1.7275 -4.1421
  404MOL0     H54484   1.891   8.338   9.280 -0.2653 -1.2917  0.8172
  404MOL0     H54485   1.844   8.278   9.044 -2.8428 -2.6371 -0.6374
  404MOL0     H54486   2.006   8.193   9.038  0.3512 -2.4559  3.4293
  404MOL0     H54487   1.812   8.095   9.248 -0.9411  1.3634  0.2856
  404MOL0     H54488   1.765   8.057   9.083 -0.9643 -0.2718  0.2373
  404MOL0     H54489   2.046   8.012   9.183 -1.1239  0.7342  0.7118
  404MOL0     H54490   1.991   7.962   9.023  0.8662  0.7369  0.3853
  404MOL0     H54491   1.762   7.773   9.082 -3.0984  1.1409  1.4818
  404MOL0     H54492   1.759   7.518   9.364 -0.6315 -0.9463  0.0005
  404MOL0     H54493   1.646   7.561   9.230  1.7243  2.6129 -2.1309
  404MOL0     H54494   1.752   7.425   9.066  2.7510 -0.3415  0.2132
  404MOL0     H54495   1.729   7.341   9.200 -1.5536  0.1770 -1.9372
  404MOL0     H54496   1.966   7.391   9.270  5.4486 -2.1095 -1.7902
  404MOL0     H54497   1.994   7.505   9.143  2.3872 -0.4622  0.9494
  404MOL0     H54498   2.031   7.324   8.983 -1.4357 -0.1036 -1.5198
  404MOL0     H54499   1.904   7.227   9.052 -0.0073  0.4894 -0.9832
  404MOL0     H54500   1.862   7.041   9.152 -2.9197 -0.0787  1.6785
  404MOL0     H54501   1.675   6.925   9.366 -0.7499 -0.9335 -1.0445
  404MOL0     H54502   1.724   6.866   9.218  1.0730 -0.7728 -0.2810
  404MOL0     H54503   1.772   6.771   9.364  3.7033  1.1913  1.4594
  404MOL0     H54504   1.940   6.645   9.714  0.3789  3.8489 -2.4122
  404MOL0     H54505   1.902   6.531   9.928  2.3900 -1.0664 -1.2278
  404MOL0     H54506   2.087   6.592  10.206  0.6195 -0.0832 -2.2635
  404MOL0     H54507   1.962   6.601  10.338 -0.3341  0.6503 -0.3510
  404MOL0     H54508   1.917   6.425  10.109 -0.5540  0.4993  0.0376
  404MOL0     H54509   2.033   6.366  10.225 -2.1714 -3.4724  1.4186
  404MOL0     H54510   1.766   6.322  10.246  0.6752 -0.8757 -0.3202
  404MOL0     H54511   1.767   6.478  10.320  1.3069  0.8796 -0.6640
  404MOL0     H54512   1.797   6.246  10.448  1.0611 -0.2044 -0.0683
  404MOL0     H54513   1.967   6.266  10.402  1.4129 -0.9110 -0.7167
  404MOL0     H54514   1.771   6.413  10.584 -0.2320 -2.0392  0.6064
  404MOL0     H54515   1.917   6.506  10.541  2.3313 -1.0695 -0.3549
  404MOL0     H54516   1.895   6.222  10.655 -1.2582  0.8788 -2.1500
  404MOL0     H54517   2.046   6.293  10.603  1.0634  0.0975 -0.3946
  404MOL0     H54518   1.969   6.484  10.783 -1.5138  0.7764 -0.5137
  404MOL0     H54519   2.042   6.331  10.837  0.4389 -1.1997 -1.1243
  404MOL0     H54520   1.834   6.355  10.982  1.6492  0.8770 -0.4354
  404MOL0     H54521   1.803   6.235  10.861 -0.1726 -0.7480  2.6544
  404MOL0     H54522   1.986   6.902  10.127 -0.1497 -0.5938  0.1684
  404MOL0     H54523   2.029   7.011   9.910  1.6851 -0.6175 -0.3739
  404MOL0     H54524   2.142   7.056   9.549  0.2969  3.1547  0.1824
  404MOL0     H54525   2.208   7.190   9.361 -2.0192  1.9552  0.0398
  404MOL0     H54526   1.800   8.962   8.948 -0.9371  0.2755  1.5187
  404MOL0     H54527   1.865   9.130   8.794  2.5538  2.7495  1.7421
  404MOL0     H54528   2.123   9.580   8.902  0.0167 -3.2535  0.1260
  404MOL0     H54529   2.289   9.745   8.825  3.4344 -0.4753 -0.3908
  404MOL0     H54530   2.553   9.689   8.752 -0.4252  0.6524  1.7898
  404MOL0     H54531   2.615   9.686   8.597  0.5899  1.3437 -0.0034
  404MOL0     H54532   2.641   9.921   8.601 -0.0185  2.1696  1.5006
  404MOL0     H54533   2.671   9.862   8.766 -3.2772 -0.5829  3.1546
  404MOL0     H54534   2.465   9.953   8.863 -1.6909 -0.4744 -0.2373
  404MOL0     H54535   2.400   9.951   8.695  2.2062  1.1738 -1.3342
  404MOL0     H54536   2.532  10.142   8.620  3.6272  1.5806 -0.6584
  404MOL0     H54537   2.628  10.139   8.772 -1.3052 -0.3631 -0.5441
  404MOL0     H54538   2.320  10.367   8.902 -0.2034  0.9541 -2.5048
  404MOL0     H54539   2.345   9.512   8.472 -0.3446  3.1782 -0.4714
  404MOL0     H54540   2.192   9.343   8.539  1.2622  0.5121 -1.0950
  405MOL0     O54541  10.696   8.952   9.353  0.1558 -0.1990 -0.1105
  405MOL0     C54542  10.627   8.967   9.257  0.3377 -0.7507 -0.7047
  405MOL0     O54543  10.570   9.083   9.216 -0.0588  0.1044 -0.0551
  405MOL0     C54544  10.567   9.185   9.310  0.0959  0.7945 -0.8525
  405MOL0     C54545  10.670   9.281   9.326  1.0763  0.2249 -0.5459
  405MOL0     C54546  10.647   9.380   9.423 -0.6160  0.0088  0.3094
  405MOL0     C54547  10.532   9.374   9.504 -0.2882  0.0302  0.2797
  405MOL0     O54548  10.537   9.461   9.613  1.0443 -0.2157 -0.2513
  405MOL0     C54549  10.446   9.573   9.599  0.4799  0.2988 -0.9522
  405MOL0     C54550  10.413   9.608   9.737  0.6949 -0.0573 -1.0004
  405MOL0     C54551  10.315   9.717   9.753 -0.2776 -0.7750  0.3121
  405MOL0     C54552  10.272   9.742   9.894  0.4454  0.3817 -0.6838
  405MOL0     C54553  10.382   9.816   9.969 -0.7556 -0.2802 -0.3867
  405MOL0     C54554  10.366   9.805  10.132 -0.0902  0.5213  0.2979
  405MOL0     C54555  10.247   9.876  10.179 -0.0326 -0.2128  0.4571
  405MOL0     C54556  10.252   9.886  10.331 -0.9571  0.4724 -0.8821
  405MOL0     N54557  10.114   9.874  10.383  0.2639  0.5038 -0.4127
  405MOL0     C54558  10.052   9.924  10.498 -0.0287  0.7600 -0.3862
  405MOL0     C54559   9.928   9.886  10.512 -0.0401  0.3004 -0.5890
  405MOL0     C54560   9.815   9.881  10.621 -0.8508  0.1558  0.3107
  405MOL0     C54561   9.756  10.020  10.646  0.3109 -0.2101 -1.1152
  405MOL0     C54562   9.701  10.023  10.795  0.6714 -0.1723  0.8350
  405MOL0     C54563   9.821  10.010  10.891  0.1681  0.4367 -0.2986
  405MOL0     O54564   9.915  10.118  10.869  0.1807  0.0905 -0.0862
  405MOL0     C54565   9.887  10.240  10.921 -1.0230  0.0510 -0.5437
  405MOL0     C54566   9.802  10.263  11.032 -1.6498 -0.1600 -0.5923
  405MOL0     C54567   9.786  10.385  11.091 -0.2895 -0.6087 -0.0880
  405MOL0     C54568   9.702  10.390  11.219  0.3046 -0.4212 -0.2634
  405MOL0     C54569   9.862  10.495  11.035  0.2978  1.2568  0.0254
  405MOL0     C54570   9.831  10.631  11.071  0.3261 -0.3306  0.3307
  405MOL0     O54571   9.932  10.708  11.122 -0.5557 -0.2316 -0.1396
  405MOL0     C54572   9.898  10.839  11.116 -0.8317  0.8146  0.6980
  405MOL0     C54573   9.868  10.926  11.224 -0.1338  0.3955  0.5814
  405MOL0     C54574   9.811  11.051  11.212  1.2813 -0.4186  0.2955
  405MOL0     C54575   9.782  11.106  11.087  0.2781 -0.0301 -0.0003
  405MOL0     O54576   9.733  11.226  11.050  0.2499  0.0749  0.3077
  405MOL0     C54577   9.678  11.306  11.155 -0.4898 -1.5561 -0.0026
  405MOL0     C54578   9.788  11.384  11.222 -0.2396  0.2001  0.2817
  405MOL0     C54579   9.867  11.448  11.115  0.0034 -0.5387  0.8810
  405MOL0     C54580   9.985  11.523  11.174 -0.2979  1.0320 -0.4764
  405MOL0     C54581  10.070  11.610  11.076 -0.3346 -0.1608 -0.5419
  405MOL0     C54582  10.203  11.653  11.141 -0.3934  0.1010 -1.6470
  405MOL0     C54583  10.280  11.729  11.041 -0.3138 -0.1902  0.0806
  405MOL0     C54584  10.428  11.784  11.066  0.0696 -0.1167  0.1128
  405MOL0    Cl54585  10.541  11.647  11.024  0.2348  0.5037  0.5329
  405MOL0     C54586   9.823  11.030  10.975  0.3502  0.4110 -1.0473
  405MOL0     C54587   9.879  10.894  10.986  0.6131 -0.9913  0.2852
  405MOL0     O54588   9.711  10.666  11.064 -0.8716 -0.5755 -0.1577
  405MOL0     C54589   9.934  10.478  10.917  0.3815  0.1368  0.7919
  405MOL0     C54590   9.953  10.351  10.865 -0.9144  0.0624  0.9927
  405MOL0     N54591   9.910   9.808  10.399  1.0121 -0.3947 -0.3006
  405MOL0     N54592  10.009   9.808  10.317  0.6144 -0.0504  0.0485
  405MOL0     C54593  10.430   9.282   9.489  0.9126  0.7002  0.0817
  405MOL0     C54594  10.450   9.189   9.390  0.1337  0.5830  0.9301
  405MOL0     C54595  10.603   8.855   9.172 -0.2018  0.3728  0.4101
  405MOL0     C54596  10.586   8.730   9.239 -1.0863  0.9078  0.5642
  405MOL0     C54597  10.569   8.612   9.171  0.8722  0.5101  0.4723
  405MOL0     C54598  10.532   8.614   9.036 -0.4228 -0.7199 -0.2415
  405MOL0     O54599  10.471   8.510   8.971 -0.2299 -0.1017 -0.2790
  405MOL0     C54600  10.373   8.447   9.054  0.5389 -0.0033 -0.2006
  405MOL0     C54601  10.414   8.315   9.121 -0.7741 -0.4365 -0.0368
  405MOL0     C54602  10.286   8.252   9.174 -0.0085 -0.5970  0.3395
  405MOL0     C54603  10.304   8.116   9.250 -0.7790 -1.2692 -0.1928
  405MOL0     C54604  10.341   8.011   9.153  0.6497  0.3276  0.1949
  405MOL0     C54605  10.364   7.913   9.084 -0.7473 -0.9199 -0.3403
  405MOL0     C54606  10.536   8.741   8.972  0.1105 -0.2932 -0.3384
  405MOL0     C54607  10.571   8.863   9.034 -0.6186  0.2149 -0.4387
  405MOL0     H54608  10.756   9.281   9.260 -0.3825 -1.5322 -2.5974
  405MOL0     H54609  10.707   9.468   9.441  0.6792 -0.6252 -0.7312
  405MOL0     H54610  10.498   9.658   9.552  2.4999  0.1323  0.7953
  405MOL0     H54611  10.349   9.553   9.554  0.5075  1.2919 -1.4770
  405MOL0     H54612  10.376   9.511   9.769 -0.3963 -0.2401 -2.7036
  405MOL0     H54613  10.510   9.629   9.785  0.8381 -2.6479 -0.0107
  405MOL0     H54614  10.361   9.814   9.733  1.9884 -1.1549  2.9823
  405MOL0     H54615  10.230   9.688   9.691 -0.3797 -0.7854  0.4579
  405MOL0     H54616  10.183   9.806   9.892 -1.5968 -2.1295  2.0744
  405MOL0     H54617  10.249   9.644   9.936 -2.1230 -0.1527 -3.0165
  405MOL0     H54618  10.482   9.776   9.954 -0.1338  1.6558 -1.8204
  405MOL0     H54619  10.384   9.924   9.951 -0.5161  0.4879  3.4537
  405MOL0     H54620  10.352   9.702  10.167  1.4328  0.8652  2.0817
  405MOL0     H54621  10.455   9.838  10.187 -2.4189  1.6923  3.7526
  405MOL0     H54622  10.241   9.970  10.124  1.9719  0.0907  0.6603
  405MOL0     H54623  10.158   9.829  10.137  0.8811 -1.9231  0.3317
  405MOL0     H54624  10.307   9.979  10.348 -0.4976  0.0613 -0.0398
  405MOL0     H54625  10.303   9.797  10.370 -2.6677 -0.4392 -0.6037
  405MOL0     H54626  10.110   9.952  10.586 -2.2454  3.4393  0.3764
  405MOL0     H54627   9.733   9.821  10.581 -0.0994  0.6634 -2.2124
  405MOL0     H54628   9.861   9.828  10.704 -0.4759 -0.1771 -0.1010
  405MOL0     H54629   9.664  10.019  10.587  0.4943  1.8169 -1.4834
  405MOL0     H54630   9.808  10.109  10.610  0.1473 -0.1505 -1.2090
  405MOL0     H54631   9.638   9.937  10.819  2.3833 -1.3810  1.2561
  405MOL0     H54632   9.651  10.119  10.813  2.9086  1.1093  0.5877
  405MOL0     H54633   9.877   9.916  10.885  2.6789  1.2662  4.8026
  405MOL0     H54634   9.788  10.014  10.995  1.2155  1.4667  0.0195
  405MOL0     H54635   9.748  10.183  11.082  0.9624  1.1566  5.1382
  405MOL0     H54636   9.718  10.483  11.275 -1.5967  1.0463 -2.0221
  405MOL0     H54637   9.595  10.389  11.200 -0.3632  1.1781  2.7628
  405MOL0     H54638   9.719  10.302  11.281  0.5582  0.5858  1.1615
  405MOL0     H54639   9.877  10.884  11.324  0.8327  0.7995  0.6686
  405MOL0     H54640   9.782  11.114  11.296 -0.1030  0.5914 -0.8946
  405MOL0     H54641   9.615  11.382  11.108 -1.2889 -2.7979 -1.0074
  405MOL0     H54642   9.615  11.261  11.232  0.3457  1.3979  2.5727
  405MOL0     H54643   9.735  11.460  11.280 -2.9335 -1.6625  0.4608
  405MOL0     H54644   9.859  11.329  11.283  3.1538  1.5148 -2.1774
  405MOL0     H54645   9.807  11.522  11.061  0.3555  1.3516  2.9308
  405MOL0     H54646   9.904  11.382  11.037 -0.0495  0.2689  0.1565
  405MOL0     H54647   9.941  11.589  11.249 -1.3029  1.2496 -1.2389
  405MOL0     H54648  10.053  11.457  11.229 -1.1670 -0.9603 -1.6606
  405MOL0     H54649  10.023  11.704  11.047  1.3049  0.5486 -0.9827
  405MOL0     H54650  10.087  11.559  10.980  1.2696  0.8083 -0.7957
  405MOL0     H54651  10.189  11.724  11.223 -0.4509 -1.5775 -0.1463
  405MOL0     H54652  10.260  11.561  11.157  0.3213  0.3797 -2.5523
  405MOL0     H54653  10.232  11.823  11.010  0.1128  0.1410  0.4164
  405MOL0     H54654  10.275  11.671  10.948  3.1499 -2.5108  1.1747
  405MOL0     H54655  10.445  11.822  11.167  1.1696  3.7383 -1.3402
  405MOL0     H54656  10.446  11.861  10.990 -1.0127  0.2212  0.1916
  405MOL0     H54657   9.817  11.070  10.874  0.5486  0.9361 -0.8502
  405MOL0     H54658   9.910  10.836  10.899 -0.6580 -3.4897  1.3856
  405MOL0     H54659   9.990  10.561  10.876 -1.0120  1.2522  1.0865
  405MOL0     H54660  10.016  10.325  10.781 -0.5627  0.2902  1.1830
  405MOL0     H54661  10.352   9.294   9.563 -0.9617  3.4186 -2.0863
  405MOL0     H54662  10.371   9.118   9.367  1.4234 -0.6786  0.2081
  405MOL0     H54663  10.595   8.726   9.347 -1.9496 -0.3126  0.6122
  405MOL0     H54664  10.576   8.515   9.219 -2.5860 -1.8110 -3.0990
  405MOL0     H54665  10.336   8.519   9.128  1.3585  0.4681 -0.2351
  405MOL0     H54666  10.290   8.420   8.989  0.3349 -1.0533  0.4649
  405MOL0     H54667  10.481   8.336   9.205  0.7984 -1.2190 -1.0360
  405MOL0     H54668  10.474   8.265   9.044  2.8451  1.2300  1.4371
  405MOL0     H54669  10.214   8.229   9.094 -0.1603 -1.8431  0.8056
  405MOL0     H54670  10.243   8.313   9.254  3.0342 -1.7023  3.0125
  405MOL0     H54671  10.219   8.079   9.308 -0.6368 -0.0306  0.8447
  405MOL0     H54672  10.385   8.142   9.318  0.8861  0.5720 -2.7054
  405MOL0     H54673  10.397   7.828   9.028  0.4683 -1.3498  0.9718
  405MOL0     H54674  10.508   8.761   8.870  4.5751 -0.8779 -1.8817
  405MOL0     H54675  10.589   8.958   8.985 -0.8049  2.8353  4.0253
  406MOL0     O54676   4.766   3.890   7.187 -0.3003  0.1922 -0.1671
  406MOL0     C54677   4.733   4.003   7.165 -0.0771  0.1877 -0.0773
  406MOL0     O54678   4.824   4.108   7.149  0.5633 -0.0623  0.4326
  406MOL0     C54679   4.950   4.108   7.203  0.9613 -0.1369  0.1479
  406MOL0     C54680   5.023   4.003   7.255 -0.4275  0.1297  1.0404
  406MOL0     C54681   5.143   4.036   7.318  0.2274  0.4748 -0.4128
  406MOL0     C54682   5.193   4.166   7.330 -0.0270 -0.8559 -0.1668
  406MOL0     O54683   5.317   4.154   7.393 -0.1176  0.5770  0.8940
  406MOL0     C54684   5.387   4.270   7.430  0.4146  0.5649  0.0446
  406MOL0     C54685   5.320   4.325   7.544 -0.5282  0.5283 -0.2296
  406MOL0     C54686   5.425   4.372   7.650 -0.3330  0.6058  0.7478
  406MOL0     C54687   5.502   4.258   7.728 -0.3455  0.1839  0.3153
  406MOL0     C54688   5.560   4.324   7.855  1.8495  0.1129  0.3600
  406MOL0     C54689   5.656   4.441   7.827  0.6023 -0.8854 -0.6601
  406MOL0     C54690   5.724   4.481   7.958  0.3092 -0.0414 -0.8690
  406MOL0     C54691   5.858   4.409   7.988  0.5972  0.6898  0.2863
  406MOL0     N54692   5.953   4.421   7.873  1.8435  0.2421 -0.4912
  406MOL0     C54693   5.991   4.544   7.822  0.4130 -0.0945  0.4340
  406MOL0     C54694   6.032   4.520   7.697  0.3544  0.4835 -1.1828
  406MOL0     C54695   6.070   4.626   7.591  0.3818  0.1425  0.6167
  406MOL0     C54696   6.215   4.661   7.634  0.1443 -0.2123  0.2790
  406MOL0     C54697   6.255   4.803   7.585  0.9154  0.6197  1.1530
  406MOL0     C54698   6.401   4.834   7.593 -0.4428  0.6080  0.0939
  406MOL0     O54699   6.451   4.827   7.735 -0.0975 -0.2028 -0.9822
  406MOL0     C54700   6.577   4.878   7.772  0.2778  0.6333 -0.0682
  406MOL0     C54701   6.605   4.908   7.903  0.5463  1.0745 -0.0038
  406MOL0     C54702   6.731   4.956   7.948 -0.3010  0.4987 -0.4122
  406MOL0     C54703   6.748   4.982   8.103 -0.0601  0.2439  0.4782
  406MOL0     C54704   6.826   4.988   7.852  0.2745 -0.2797  0.1454
  406MOL0     C54705   6.957   5.026   7.894 -0.4870  0.5821 -0.2305
  406MOL0     O54706   7.060   4.958   7.835  0.6310  0.2174 -0.5715
  406MOL0     C54707   7.191   4.975   7.851  0.7496 -0.4552  0.0223
  406MOL0     C54708   7.283   4.873   7.840 -0.2837  0.9059 -1.0278
  406MOL0     C54709   7.419   4.895   7.828 -0.1645  0.8944 -0.4010
  406MOL0     C54710   7.470   5.030   7.840  0.6750  0.4309  0.4878
  406MOL0     O54711   7.599   5.041   7.795  0.6959 -0.2157 -0.2904
  406MOL0     C54712   7.687   5.122   7.873  1.0083 -0.3966  0.7096
  406MOL0     C54713   7.833   5.083   7.854 -0.5189 -0.0778 -0.3365
  406MOL0     C54714   7.913   5.180   7.946  0.6200  0.9616  0.0705
  406MOL0     C54715   8.059   5.185   7.914 -0.3607  0.3446  0.5126
  406MOL0     C54716   8.157   5.243   8.020  0.4672  0.8229 -0.4267
  406MOL0     C54717   8.290   5.208   7.971  0.2680  1.1622  0.1806
  406MOL0     C54718   8.395   5.247   8.074 -0.1480  0.1937 -0.4636
  406MOL0     C54719   8.538   5.281   8.026  0.4005  1.0578 -0.0267
  406MOL0    Cl54720   8.569   5.454   7.987  0.4415 -0.3161  0.3592
  406MOL0     C54721   7.379   5.134   7.843 -0.8485 -0.0071  0.0148
  406MOL0     C54722   7.244   5.114   7.863 -0.9300  0.9163  0.1709
  406MOL0     O54723   6.974   5.101   7.987 -0.3316  0.1297 -0.3005
  406MOL0     C54724   6.797   4.948   7.721 -0.2440 -0.8735 -0.4336
  406MOL0     C54725   6.674   4.901   7.679  0.0812  1.2358  0.2429
  406MOL0     N54726   6.041   4.388   7.677 -0.5486 -0.5351  0.2514
  406MOL0     N54727   5.984   4.329   7.777  0.3012 -0.4976  0.4022
  406MOL0     C54728   5.114   4.271   7.295 -0.1239  0.5053 -0.6557
  406MOL0     C54729   4.996   4.238   7.230 -0.2012 -0.2280 -0.1436
  406MOL0     C54730   4.594   4.024   7.137 -0.8250  0.8225  0.1703
  406MOL0     C54731   4.547   4.156   7.114 -0.5804  0.1011  0.2732
  406MOL0     C54732   4.411   4.186   7.102 -0.3890 -1.0946 -0.7577
  406MOL0     C54733   4.314   4.081   7.108  0.6589  0.2252  0.8626
  406MOL0     O54734   4.181   4.104   7.105 -0.9574 -0.3261  0.3684
  406MOL0     C54735   4.112   4.038   6.998  0.0160 -0.5171  0.9774
  406MOL0     C54736   4.181   4.050   6.853 -0.1761 -1.1012 -0.8982
  406MOL0     C54737   4.086   4.007   6.737 -0.1276 -0.1974  0.3310
  406MOL0     C54738   3.995   4.115   6.671  0.0497 -0.2683 -1.0669
  406MOL0     C54739   3.889   4.053   6.595  0.1026  0.8791  0.2203
  406MOL0     C54740   3.801   4.006   6.524  0.1395 -0.3877  0.2223
  406MOL0     C54741   4.361   3.946   7.123 -0.4385 -0.7296  0.4481
  406MOL0     C54742   4.501   3.917   7.130  0.4159 -0.4247  0.1814
  406MOL0     H54743   4.994   3.899   7.251  0.2083 -0.0376 -2.7928
  406MOL0     H54744   5.206   3.957   7.358 -0.7719  0.8252  2.0773
  406MOL0     H54745   5.486   4.231   7.458  1.0039  1.5792 -0.5808
  406MOL0     H54746   5.404   4.347   7.354  1.0727 -0.4937 -0.9357
  406MOL0     H54747   5.261   4.411   7.511 -0.6898  0.2698 -0.6240
  406MOL0     H54748   5.252   4.257   7.596  1.3122 -0.4065  1.0854
  406MOL0     H54749   5.492   4.446   7.605  0.7483 -0.4661  0.5501
  406MOL0     H54750   5.364   4.425   7.724 -0.4910  0.9641  0.3648
  406MOL0     H54751   5.441   4.171   7.754 -0.3792  1.0914  3.7096
  406MOL0     H54752   5.588   4.227   7.669 -1.2990 -0.5380 -0.7547
  406MOL0     H54753   5.476   4.341   7.923  2.0162 -4.0364  1.8878
  406MOL0     H54754   5.615   4.249   7.912 -0.5735 -1.3204  0.9629
  406MOL0     H54755   5.726   4.421   7.745 -0.1462 -1.8417 -1.0898
  406MOL0     H54756   5.606   4.532   7.794  1.7952 -0.0530 -0.2699
  406MOL0     H54757   5.753   4.586   7.944  2.2807 -0.6728 -1.8457
  406MOL0     H54758   5.655   4.463   8.042  1.1381  0.7366  0.0046
  406MOL0     H54759   5.842   4.300   7.992 -1.7999  0.9743 -0.0228
  406MOL0     H54760   5.900   4.440   8.083 -0.8393  0.0154  1.1904
  406MOL0     H54761   5.994   4.644   7.863  6.4420  0.5175 -0.4805
  406MOL0     H54762   6.043   4.590   7.492 -1.9348  1.6171  0.6400
  406MOL0     H54763   6.011   4.717   7.602  0.4733  0.8477 -3.3106
  406MOL0     H54764   6.290   4.594   7.590  0.6091 -1.5842  2.9310
  406MOL0     H54765   6.234   4.660   7.742 -1.0459  1.5338  0.5443
  406MOL0     H54766   6.198   4.878   7.640 -0.7221 -0.6948  1.3453
  406MOL0     H54767   6.214   4.804   7.483  1.0148  0.3872  1.1086
  406MOL0     H54768   6.419   4.927   7.539  4.5036 -0.5404 -0.7113
  406MOL0     H54769   6.453   4.755   7.537  0.6210  1.0018  0.5000
  406MOL0     H54770   6.521   4.900   7.971  0.8781  1.2502  0.4324
  406MOL0     H54771   6.663   4.940   8.158  0.1092 -0.0618  0.5104
  406MOL0     H54772   6.829   4.926   8.150 -0.4084 -2.6103 -2.0534
  406MOL0     H54773   6.749   5.086   8.136  0.7034 -0.1692  1.8243
  406MOL0     H54774   7.243   4.773   7.827 -1.3702  1.1706  0.0749
  406MOL0     H54775   7.492   4.814   7.825 -4.6202 -3.8755  2.5290
  406MOL0     H54776   7.682   5.226   7.838  0.5654 -0.8652 -0.6713
  406MOL0     H54777   7.667   5.124   7.980  1.6331 -0.7159  0.8372
  406MOL0     H54778   7.842   4.981   7.894  0.5574 -0.8600 -2.4490
  406MOL0     H54779   7.847   5.091   7.746  3.6762 -1.9537 -0.1116
  406MOL0     H54780   7.899   5.149   8.050 -1.5193 -0.7396 -0.6498
  406MOL0     H54781   7.871   5.281   7.941  0.1395  0.7019 -1.6894
  406MOL0     H54782   8.096   5.082   7.915  2.3125  1.2174  2.1143
  406MOL0     H54783   8.072   5.229   7.815 -0.0754  0.7599  0.7313
  406MOL0     H54784   8.143   5.187   8.113 -0.3528 -1.6448 -1.9621
  406MOL0     H54785   8.141   5.348   8.048 -1.8667 -0.0181  1.8158
  406MOL0     H54786   8.305   5.102   7.948  0.6777  0.6816  2.4420
  406MOL0     H54787   8.303   5.261   7.876 -0.0633  2.2451  0.7324
  406MOL0     H54788   8.396   5.160   8.140  1.6015  0.3207 -0.2797
  406MOL0     H54789   8.369   5.339   8.129  3.7174  0.6732  0.8559
  406MOL0     H54790   8.567   5.218   7.941  1.5396 -0.4433  1.4097
  406MOL0     H54791   8.604   5.267   8.112  1.5122  2.0620 -0.6809
  406MOL0     H54792   7.416   5.234   7.824  1.1171 -1.1583 -2.9972
  406MOL0     H54793   7.184   5.204   7.872  0.2073  1.5387  2.3557
  406MOL0     H54794   6.873   4.973   7.648 -0.7248  0.2880 -0.5573
  406MOL0     H54795   6.659   4.884   7.573  0.0001 -1.9687  0.6687
  406MOL0     H54796   5.136   4.378   7.300 -2.6509  1.2050 -2.6234
  406MOL0     H54797   4.938   4.327   7.209 -2.6696 -1.3317  1.5237
  406MOL0     H54798   4.612   4.243   7.119  2.2058 -1.8287 -0.1812
  406MOL0     H54799   4.370   4.286   7.096 -0.0493 -0.9292 -0.3394
  406MOL0     H54800   4.094   3.932   7.020  0.3804 -0.6229  0.7838
  406MOL0     H54801   4.017   4.088   6.981  0.0543 -0.4614  0.9276
  406MOL0     H54802   4.274   3.992   6.845 -0.1946 -1.4846  1.1840
  406MOL0     H54803   4.211   4.155   6.844 -0.8374 -0.8840 -0.5910
  406MOL0     H54804   4.020   3.931   6.778 -4.7934  1.0258 -3.9890
  406MOL0     H54805   4.148   3.969   6.655 -0.3060  1.3183 -0.5573
  406MOL0     H54806   4.055   4.175   6.603  0.0530 -0.4739 -1.2455
  406MOL0     H54807   3.944   4.163   6.755 -0.7469 -1.8943 -0.5769
  406MOL0     H54808   3.729   3.948   6.469 -0.2382 -1.1142  1.4523
  406MOL0     H54809   4.284   3.871   7.142 -1.4659  0.9679  3.8307
  406MOL0     H54810   4.540   3.818   7.153  1.3023 -0.0244  0.4590
  407MOL0     O54811   4.810  11.031   4.062 -1.0430  0.5297  0.2158
  407MOL0     C54812   4.744  10.932   4.048  0.2005  1.1539  0.1418
  407MOL0     O54813   4.764  10.809   4.118  0.5495 -0.1696 -0.1702
  407MOL0     C54814   4.848  10.815   4.225  0.4288 -0.2121  0.6125
  407MOL0     C54815   4.984  10.773   4.220 -1.1093  1.2342 -0.2988
  407MOL0     C54816   5.062  10.779   4.330  0.0284  0.2863  0.4638
  407MOL0     C54817   5.010  10.823   4.445  0.3750  0.1997 -1.0786
  407MOL0     O54818   5.108  10.821   4.550  0.8954 -0.3081 -0.6925
  407MOL0     C54819   5.064  10.789   4.684 -0.2620  0.1204  0.0062
  407MOL0     C54820   5.085  10.643   4.725  0.1964  0.6112 -0.2320
  407MOL0     C54821   5.081  10.633   4.880 -0.3157 -0.3366 -0.0222
  407MOL0     C54822   5.212  10.574   4.942  1.2396  0.4297 -0.8566
  407MOL0     C54823   5.233  10.600   5.084 -0.5576  0.6784 -0.7601
  407MOL0     C54824   5.369  10.554   5.140  0.1826  0.2557  0.1237
  407MOL0     C54825   5.370  10.563   5.295 -1.0914  0.6884 -0.3541
  407MOL0     C54826   5.506  10.576   5.364  0.3929 -1.8058  0.1375
  407MOL0     N54827   5.584  10.454   5.366  0.5424  0.6173 -0.7618
  407MOL0     C54828   5.659  10.420   5.475  0.0962 -0.1960 -0.0045
  407MOL0     C54829   5.737  10.316   5.424 -0.8808 -1.3325  0.3519
  407MOL0     C54830   5.825  10.232   5.508  0.0281  0.5023 -0.1618
  407MOL0     C54831   5.963  10.207   5.439 -0.3069 -0.2812 -0.3433
  407MOL0     C54832   6.050  10.335   5.437 -0.0636 -0.0931 -0.1660
  407MOL0     C54833   6.153  10.331   5.544  0.3445 -0.0948 -0.2858
  407MOL0     O54834   6.264  10.246   5.521  0.0902  0.6397  0.6669
  407MOL0     C54835   6.331  10.265   5.407  0.5387 -0.4736  0.1151
  407MOL0     C54836   6.311  10.172   5.304  1.1386  0.6166  0.0081
  407MOL0     C54837   6.372  10.186   5.175 -0.9140 -0.4777 -0.3303
  407MOL0     C54838   6.352  10.082   5.071  0.3538 -0.5897 -0.4681
  407MOL0     C54839   6.458  10.300   5.152  0.0074  0.2617 -0.5999
  407MOL0     C54840   6.497  10.346   5.020 -0.7874 -0.1190  0.5582
  407MOL0     O54841   6.420  10.312   4.909  0.4816  0.8383 -0.1154
  407MOL0     C54842   6.481  10.344   4.792 -0.7576 -0.3207 -0.2760
  407MOL0     C54843   6.538  10.239   4.717  0.0771  0.2474  1.6012
  407MOL0     C54844   6.616  10.273   4.602 -0.3488  0.4505 -0.2233
  407MOL0     C54845   6.638  10.403   4.556 -0.4884  0.2231 -1.2574
  407MOL0     O54846   6.698  10.443   4.439  0.1983  0.3433 -0.0239
  407MOL0     C54847   6.761  10.349   4.357 -0.2823 -0.7047  0.0021
  407MOL0     C54848   6.771  10.412   4.215 -1.2049 -1.0222  0.0701
  407MOL0     C54849   6.637  10.423   4.149  0.1395 -1.0369  0.2326
  407MOL0     C54850   6.635  10.481   4.008 -0.4201 -0.2402  0.0733
  407MOL0     C54851   6.579  10.633   4.004 -0.5343 -0.8404  0.9580
  407MOL0     C54852   6.579  10.697   3.861 -0.1050 -0.0204  0.6869
  407MOL0     C54853   6.552  10.851   3.847  0.0382  0.2620  1.1405
  407MOL0     C54854   6.594  10.910   3.717 -0.4952  0.0054  0.0690
  407MOL0    Cl54855   6.510  10.833   3.582  0.2618 -0.2454  0.1277
  407MOL0     C54856   6.589  10.513   4.643 -0.1419 -0.2250  0.2207
  407MOL0     C54857   6.507  10.482   4.751  0.8164  0.4859 -0.2140
  407MOL0     O54858   6.605  10.406   5.014 -0.1898 -0.1443 -0.1374
  407MOL0     C54859   6.491  10.381   5.264  0.0548 -0.1276 -0.3648
  407MOL0     C54860   6.422  10.365   5.395 -1.0352  0.3202 -0.7625
  407MOL0     N54861   5.693  10.281   5.299 -0.0979 -0.1200  0.0665
  407MOL0     N54862   5.606  10.363   5.262  0.7263  0.1419  0.6790
  407MOL0     C54863   4.877  10.865   4.462 -0.6293 -0.1625  0.7500
  407MOL0     C54864   4.800  10.857   4.345 -0.0572 -0.1574  0.5148
  407MOL0     C54865   4.640  10.914   3.938  0.3713 -0.0027 -0.1985
  407MOL0     C54866   4.570  10.797   3.916 -0.0661  0.0715  0.4638
  407MOL0     C54867   4.456  10.789   3.838 -0.0133 -0.7223 -0.2416
  407MOL0     C54868   4.410  10.909   3.776  0.1149 -1.0223 -0.3399
  407MOL0     O54869   4.306  10.909   3.685 -0.4911  0.1523 -0.1131
  407MOL0     C54870   4.295  10.795   3.594  0.3967 -0.4156 -0.3947
  407MOL0     C54871   4.271  10.847   3.453  0.3791  0.5912 -0.4387
  407MOL0     C54872   4.397  10.897   3.393 -0.3495  0.1059 -0.8055
  407MOL0     C54873   4.366  10.994   3.284  0.7179  0.6836  0.0666
  407MOL0     C54874   4.481  11.011   3.202 -0.7931 -0.3483 -0.5888
  407MOL0     C54875   4.573  11.013   3.133  0.4541 -0.4903  0.0688
  407MOL0     C54876   4.490  11.022   3.772  0.4353 -0.4079  0.1027
  407MOL0     C54877   4.594  11.029   3.869 -0.1335 -0.1284  0.3419
  407MOL0     H54878   5.016  10.748   4.119  0.7970  0.6738  0.3956
  407MOL0     H54879   5.162  10.737   4.338 -0.2371 -0.4799 -0.1257
  407MOL0     H54880   5.121  10.857   4.748  1.6083 -0.0763 -1.3723
  407MOL0     H54881   4.961  10.818   4.708 -0.1645 -0.7026  1.5854
  407MOL0     H54882   5.001  10.582   4.690  0.1334 -0.1415  1.1880
  407MOL0     H54883   5.181  10.613   4.681  0.0208 -0.6655  0.2002
  407MOL0     H54884   5.071  10.733   4.922  1.7189  0.7435 -1.9209
  407MOL0     H54885   5.005  10.559   4.907 -0.5948 -0.3962 -0.9740
  407MOL0     H54886   5.205  10.467   4.919 -1.9790  0.6485 -1.3878
  407MOL0     H54887   5.294  10.627   4.893  0.2533  2.5184 -0.3690
  407MOL0     H54888   5.225  10.707   5.107  0.4946  0.9548 -1.6457
  407MOL0     H54889   5.149  10.550   5.133 -0.8932  0.2315 -1.7780
  407MOL0     H54890   5.398  10.451   5.115  3.1585  1.4557 -2.1444
  407MOL0     H54891   5.437  10.629   5.096 -0.7846  1.0726 -0.0169
  407MOL0     H54892   5.307  10.640   5.339  0.7523 -0.7659  5.8585
  407MOL0     H54893   5.342  10.464   5.334  2.8945  0.6871  3.3093
  407MOL0     H54894   5.499  10.619   5.464 -2.7173 -1.6381 -0.0568
  407MOL0     H54895   5.571  10.644   5.309 -1.7528  0.4786  0.2549
  407MOL0     H54896   5.661  10.457   5.577  1.8476 -1.7793  0.5843
  407MOL0     H54897   5.846  10.276   5.606  3.6687 -2.0244  0.3970
  407MOL0     H54898   5.777  10.137   5.532  2.5660 -0.6186  0.8156
  407MOL0     H54899   5.947  10.177   5.335 -4.5240  2.6418 -0.7883
  407MOL0     H54900   6.015  10.119   5.478  1.0118  0.6626  0.1210
  407MOL0     H54901   5.987  10.424   5.431 -1.9856 -1.4737 -3.4856
  407MOL0     H54902   6.096  10.346   5.339 -1.1796  1.3319 -0.5668
  407MOL0     H54903   6.103  10.299   5.636  1.6436 -3.1329 -0.5179
  407MOL0     H54904   6.179  10.437   5.553  3.0216 -0.6848 -0.4357
  407MOL0     H54905   6.251  10.082   5.317  1.4762  0.3803 -0.0321
  407MOL0     H54906   6.264  10.105   5.011 -0.0876 -1.1799 -0.0616
  407MOL0     H54907   6.430  10.048   5.003 -1.2852  1.3937 -3.5697
  407MOL0     H54908   6.322   9.992   5.126 -4.9087 -1.4158 -3.9831
  407MOL0     H54909   6.514  10.140   4.753  1.8236 -1.2042 -0.9198
  407MOL0     H54910   6.661  10.192   4.546 -0.3030 -1.1410  1.9619
  407MOL0     H54911   6.856  10.331   4.408 -0.3155  0.7706  0.6473
  407MOL0     H54912   6.720  10.247   4.353  0.1165 -0.8199 -2.4199
  407MOL0     H54913   6.809  10.514   4.225 -1.1030 -1.1553  1.2229
  407MOL0     H54914   6.827  10.350   4.144  1.3436  1.6757 -0.4661
  407MOL0     H54915   6.560  10.477   4.205 -0.8388  0.0862 -2.0904
  407MOL0     H54916   6.595  10.323   4.132  1.2222 -1.7299  1.4209
  407MOL0     H54917   6.733  10.470   3.961  0.2399 -3.9591  1.9079
  407MOL0     H54918   6.584  10.422   3.931  1.9965 -1.2235 -0.8942
  407MOL0     H54919   6.647  10.691   4.067 -0.2871 -1.9392  1.7216
  407MOL0     H54920   6.481  10.633   4.054  1.1030  0.2851  4.5191
  407MOL0     H54921   6.678  10.692   3.815 -1.3312  2.5397 -2.7575
  407MOL0     H54922   6.517  10.634   3.796  0.9889 -1.4797  1.0156
  407MOL0     H54923   6.599  10.910   3.927  0.2705  1.6247  0.0487
  407MOL0     H54924   6.444  10.863   3.863  0.1790 -0.3491  2.7212
  407MOL0     H54925   6.702  10.898   3.702 -0.5979  0.8334 -1.4202
  407MOL0     H54926   6.575  11.017   3.720  5.0456  1.3055  3.1408
  407MOL0     H54927   6.606  10.612   4.602 -1.7524  1.2876  2.9241
  407MOL0     H54928   6.459  10.555   4.815 -1.6980 -0.3306 -1.0549
  407MOL0     H54929   6.572  10.453   5.253 -0.0643  0.2406  0.9595
  407MOL0     H54930   6.445  10.427   5.481  1.4030  0.3652 -1.3764
  407MOL0     H54931   4.833  10.897   4.556  0.5111 -3.1835  2.4451
  407MOL0     H54932   4.695  10.869   4.366 -0.1321 -0.5571  0.3789
  407MOL0     H54933   4.579  10.702   3.968  0.8355 -0.0448  0.1267
  407MOL0     H54934   4.394  10.700   3.841  0.2505 -1.0240 -2.2195
  407MOL0     H54935   4.379  10.725   3.593 -0.7491 -1.9774 -3.5305
  407MOL0     H54936   4.202  10.744   3.618  0.5992 -0.4867  0.2417
  407MOL0     H54937   4.199  10.930   3.460 -3.3343 -2.3599 -0.0781
  407MOL0     H54938   4.207  10.778   3.397 -1.4733  0.9175  1.1555
  407MOL0     H54939   4.452  10.810   3.354 -0.2068  0.6311 -1.8306
  407MOL0     H54940   4.461  10.950   3.464 -0.6170 -0.4429 -0.1476
  407MOL0     H54941   4.323  11.090   3.314  1.1324  1.5177 -1.8725
  407MOL0     H54942   4.290  10.946   3.222  0.5000  0.3830  0.5517
  407MOL0     H54943   4.653  11.002   3.063  0.2501 -1.0949 -0.0749
  407MOL0     H54944   4.475  11.110   3.710  2.2157 -0.0200  0.1826
  407MOL0     H54945   4.641  11.123   3.895 -0.0413  0.0050 -0.2939
  408MOL0     O54946   5.396   7.396   7.891  0.4194 -0.3356 -0.4344
  408MOL0     C54947   5.325   7.378   7.991 -0.7420 -1.0525 -0.0833
  408MOL0     O54948   5.364   7.413   8.120  0.2483 -0.1503 -0.3585
  408MOL0     C54949   5.495   7.444   8.149  1.1250 -0.4504 -0.1480
  408MOL0     C54950   5.553   7.556   8.100 -0.2157  0.0928  0.6726
  408MOL0     C54951   5.676   7.613   8.130 -0.2664 -0.8222 -0.4160
  408MOL0     C54952   5.734   7.545   8.239 -0.4526 -0.5584 -0.0430
  408MOL0     O54953   5.841   7.609   8.302 -0.3606  1.4410  0.7919
  408MOL0     C54954   5.976   7.543   8.272  0.8616  0.5303 -0.4270
  408MOL0     C54955   6.026   7.585   8.135 -0.5424 -0.3675 -0.1167
  408MOL0     C54956   6.176   7.581   8.144  0.3819 -0.5047  0.6077
  408MOL0     C54957   6.237   7.642   8.021 -1.4038 -0.5293 -0.2434
  408MOL0     C54958   6.386   7.701   8.039 -0.0205  0.1300 -0.1651
  408MOL0     C54959   6.496   7.601   8.066 -0.4661  0.1878 -0.5738
  408MOL0     C54960   6.506   7.559   8.210 -0.1172  0.4994  0.8333
  408MOL0     C54961   6.563   7.419   8.228 -0.0996  0.0150  0.4574
  408MOL0     N54962   6.712   7.426   8.238 -0.4614  0.2977 -0.9446
  408MOL0     C54963   6.797   7.410   8.132  0.0503 -0.6429 -0.2100
  408MOL0     C54964   6.920   7.430   8.188 -0.2260 -0.8556 -0.3275
  408MOL0     C54965   7.055   7.416   8.133  0.3581  0.5414 -0.8947
  408MOL0     C54966   7.133   7.546   8.159 -0.4675  0.4209 -0.2024
  408MOL0     C54967   7.225   7.527   8.278 -0.5347 -0.0320  0.4821
  408MOL0     C54968   7.260   7.663   8.360 -0.0794  0.2886  0.0395
  408MOL0     O54969   7.245   7.780   8.277  0.1017 -0.4566 -0.1188
  408MOL0     C54970   7.290   7.901   8.317  0.2799 -0.1753 -0.2359
  408MOL0     C54971   7.229   8.016   8.261  0.4804 -0.8530  0.4103
  408MOL0     C54972   7.267   8.146   8.283 -0.5597 -1.2689  0.1206
  408MOL0     C54973   7.183   8.254   8.210 -0.3566  0.8035 -0.4134
  408MOL0     C54974   7.387   8.165   8.361 -0.4318  0.0390 -0.7207
  408MOL0     C54975   7.455   8.299   8.378  0.3599 -0.1916 -0.5325
  408MOL0     O54976   7.550   8.312   8.472  0.2077 -0.3007 -0.5807
  408MOL0     C54977   7.603   8.435   8.514  0.6758  0.4195  0.7242
  408MOL0     C54978   7.612   8.463   8.651 -0.2194  0.2809  0.2517
  408MOL0     C54979   7.672   8.589   8.697  1.2071  0.7202 -0.3669
  408MOL0     C54980   7.728   8.679   8.603  0.6817 -0.8337  0.8943
  408MOL0     O54981   7.792   8.796   8.626  0.5739  0.5171  0.6550
  408MOL0     C54982   7.736   8.881   8.731  0.3636 -0.3338  0.2422
  408MOL0     C54983   7.834   8.980   8.784  0.3605  0.1385  0.2997
  408MOL0     C54984   7.859   8.996   8.935  0.4921  0.8999  0.2546
  408MOL0     C54985   7.997   9.043   8.969 -0.8209 -0.1225 -0.1640
  408MOL0     C54986   8.006   9.091   9.112  0.6303  0.3568 -0.2801
  408MOL0     C54987   7.955   9.002   9.231  0.7903 -0.4920  0.0434
  408MOL0     C54988   7.999   9.068   9.357 -0.6721 -0.3226 -0.0292
  408MOL0     C54989   8.039   8.964   9.465 -0.6379 -0.6089 -0.3622
  408MOL0    Cl54990   7.908   8.842   9.469 -0.0979 -0.0447 -0.1923
  408MOL0     C54991   7.722   8.639   8.472 -0.3390 -0.2834  0.1074
  408MOL0     C54992   7.655   8.524   8.423 -0.7668 -0.1969  0.1188
  408MOL0     O54993   7.417   8.389   8.302  0.1712  0.6397 -0.1533
  408MOL0     C54994   7.458   8.052   8.409  0.6238  0.2789 -0.2543
  408MOL0     C54995   7.410   7.921   8.388  0.3975  0.2470 -0.1226
  408MOL0     N54996   6.905   7.469   8.321 -0.1058 -0.8444 -0.1116
  408MOL0     N54997   6.778   7.452   8.351 -0.0714 -0.1639  0.3459
  408MOL0     C54998   5.684   7.428   8.293  1.1112  0.0835  0.2055
  408MOL0     C54999   5.562   7.374   8.243 -0.3744 -0.3301 -0.3076
  408MOL0     C55000   5.188   7.330   7.980 -0.4089 -0.2676  1.3072
  408MOL0     C55001   5.136   7.316   7.853 -0.2047 -0.1521 -0.2757
  408MOL0     C55002   5.012   7.275   7.832  0.1833  1.2874  0.4316
  408MOL0     C55003   4.914   7.264   7.931  0.2518 -0.3377 -0.1058
  408MOL0     O55004   4.782   7.239   7.913 -0.2841  0.1017  0.6964
  408MOL0     C55005   4.738   7.164   7.797 -1.5025  0.4098  0.9979
  408MOL0     C55006   4.783   7.015   7.800  0.1972 -0.2688 -0.3022
  408MOL0     C55007   4.723   6.933   7.923  0.6932 -0.7743  0.1819
  408MOL0     C55008   4.690   6.789   7.894 -0.2457  0.8825 -0.2802
  408MOL0     C55009   4.616   6.764   7.772 -0.3312 -0.4828 -0.2068
  408MOL0     C55010   4.524   6.745   7.690  1.3617  0.5519 -0.1885
  408MOL0     C55011   4.959   7.286   8.062  0.4202 -0.2756 -0.1036
  408MOL0     C55012   5.093   7.312   8.084 -0.5435 -0.6641 -1.1362
  408MOL0     H55013   5.501   7.612   8.024 -1.2157 -1.4560  0.1710
  408MOL0     H55014   5.708   7.705   8.082 -0.8311 -1.0442 -1.2338
  408MOL0     H55015   6.031   7.570   8.363 -2.1430  1.1126  1.3655
  408MOL0     H55016   5.972   7.434   8.279  0.2035  0.4828 -1.3961
  408MOL0     H55017   5.984   7.527   8.052  3.3658 -3.0097 -0.4884
  408MOL0     H55018   5.988   7.688   8.129 -1.5131 -0.6217  1.3135
  408MOL0     H55019   6.199   7.647   8.228 -0.8769  0.7361  0.0212
  408MOL0     H55020   6.221   7.483   8.164  0.2137 -0.2242  2.5905
  408MOL0     H55021   6.237   7.564   7.944 -2.3428  1.0944 -1.9888
  408MOL0     H55022   6.187   7.733   7.986 -2.6731 -1.6369 -1.4539
  408MOL0     H55023   6.398   7.757   7.945  2.8054 -3.8377 -2.4443
  408MOL0     H55024   6.384   7.770   8.124 -1.7107  0.1000 -0.1429
  408MOL0     H55025   6.499   7.521   7.991  0.5747 -1.1259  0.7963
  408MOL0     H55026   6.597   7.643   8.060  0.1938 -1.5173 -3.4251
  408MOL0     H55027   6.562   7.633   8.267  1.7434 -0.9201  0.9506
  408MOL0     H55028   6.402   7.567   8.242  0.2451  0.8025  1.9626
  408MOL0     H55029   6.531   7.355   8.145 -1.3621  4.1988 -2.6506
  408MOL0     H55030   6.531   7.374   8.322  1.8380  0.7842  1.5382
  408MOL0     H55031   6.772   7.379   8.032  1.3634  0.0469 -0.7745
  408MOL0     H55032   7.105   7.322   8.159  3.9009  1.5293 -3.3626
  408MOL0     H55033   7.046   7.399   8.026  0.3885  1.6373 -1.0894
  408MOL0     H55034   7.066   7.629   8.181  1.0587  1.1535  1.9816
  408MOL0     H55035   7.175   7.590   8.068 -2.8530  0.5157 -1.3320
  408MOL0     H55036   7.312   7.469   8.246 -1.0277  0.8252 -2.8106
  408MOL0     H55037   7.175   7.464   8.351 -1.1386 -0.7511 -0.5284
  408MOL0     H55038   7.360   7.647   8.402  1.5057  3.5428 -2.0701
  408MOL0     H55039   7.191   7.676   8.444 -3.7507 -0.7112 -2.5845
  408MOL0     H55040   7.138   7.995   8.205  0.6180  0.4812 -0.3702
  408MOL0     H55041   7.089   8.212   8.173 -1.9917  2.0000  2.1032
  408MOL0     H55042   7.174   8.336   8.282 -0.4321 -1.3373  2.1810
  408MOL0     H55043   7.237   8.293   8.123  0.9131  0.3361  0.1502
  408MOL0     H55044   7.563   8.392   8.717 -1.6921 -1.4256 -2.5255
  408MOL0     H55045   7.670   8.620   8.801  2.9671 -1.0492  0.2607
  408MOL0     H55046   7.659   8.930   8.672  1.4837 -0.0006 -0.9733
  408MOL0     H55047   7.689   8.831   8.816 -0.1716 -1.8862 -0.9347
  408MOL0     H55048   7.927   8.940   8.742 -1.3621 -0.8785 -2.8625
  408MOL0     H55049   7.810   9.077   8.740 -2.3121  0.0581  1.3776
  408MOL0     H55050   7.840   8.900   8.982  0.8660  0.8665  0.3482
  408MOL0     H55051   7.785   9.072   8.961  0.9356  1.9379 -1.3068
  408MOL0     H55052   8.080   8.974   8.951 -0.1044  0.5103  0.6134
  408MOL0     H55053   8.026   9.128   8.906  1.4318 -1.0952 -0.5334
  408MOL0     H55054   7.956   9.188   9.115  0.1048  0.2561 -2.8522
  408MOL0     H55055   8.113   9.105   9.132  0.7618 -0.0038 -0.7077
  408MOL0     H55056   7.846   8.993   9.225  0.8798 -1.7699  0.1372
  408MOL0     H55057   8.003   8.905   9.217 -1.7983 -1.5961 -1.8660
  408MOL0     H55058   7.921   9.139   9.388 -3.1919 -1.9287 -2.2062
  408MOL0     H55059   8.087   9.131   9.340  0.5618 -1.7624  0.8120
  408MOL0     H55060   8.048   9.011   9.563 -1.2626  3.3067 -1.9790
  408MOL0     H55061   8.128   8.913   9.427  0.0215  1.5334 -1.9374
  408MOL0     H55062   7.753   8.715   8.400 -2.0745  2.5647  2.1515
  408MOL0     H55063   7.650   8.502   8.317 -0.0248 -1.1010  0.2561
  408MOL0     H55064   7.547   8.084   8.461  0.6228  1.1827 -0.7839
  408MOL0     H55065   7.479   7.841   8.413 -0.7464 -1.9313 -3.3346
  408MOL0     H55066   5.741   7.371   8.366  1.9174 -1.5920 -1.6257
  408MOL0     H55067   5.515   7.286   8.285  0.4696  0.1300  1.7340
  408MOL0     H55068   5.197   7.311   7.763 -0.2909 -0.9255 -0.3018
  408MOL0     H55069   4.987   7.252   7.729  1.3103 -0.6994  0.5502
  408MOL0     H55070   4.629   7.154   7.789 -1.2540 -2.2621 -0.1462
  408MOL0     H55071   4.782   7.219   7.714 -0.2522 -0.5816  0.9777
  408MOL0     H55072   4.893   7.014   7.800  0.2010 -0.0987 -0.8495
  408MOL0     H55073   4.751   6.964   7.709 -2.7552 -2.2580  1.6662
  408MOL0     H55074   4.624   6.976   7.940 -0.1047 -2.7782  0.9585
  408MOL0     H55075   4.781   6.950   8.014  1.4510  0.7427 -0.5427
  408MOL0     H55076   4.637   6.754   7.983 -0.8064  2.9911  0.2619
  408MOL0     H55077   4.782   6.730   7.902 -1.8208 -1.6461  0.4581
  408MOL0     H55078   4.440   6.754   7.624  0.8873 -0.5647  0.2451
  408MOL0     H55079   4.881   7.288   8.137  0.6612 -0.4866  0.1578
  408MOL0     H55080   5.125   7.339   8.184  1.7454 -1.7166 -1.5123
  409MOL0     O55081   6.593   8.607   2.319  0.8342  0.1942  0.6063
  409MOL0     C55082   6.497   8.543   2.283  0.0233  0.1618 -0.3269
  409MOL0     O55083   6.442   8.450   2.358 -0.7878 -0.0461  0.4336
  409MOL0     C55084   6.473   8.447   2.494 -0.2146 -0.4736 -0.6264
  409MOL0     C55085   6.518   8.333   2.557 -0.2073  0.1339 -0.2821
  409MOL0     C55086   6.510   8.320   2.698  0.3687  0.6712 -0.1410
  409MOL0     C55087   6.466   8.425   2.780  0.6451  0.2742 -0.3719
  409MOL0     O55088   6.471   8.408   2.919  0.1423 -0.1645  0.5460
  409MOL0     C55089   6.602   8.447   2.961  0.3361  0.5412 -0.2079
  409MOL0     C55090   6.611   8.580   3.038  0.7310  0.5064  0.7998
  409MOL0     C55091   6.515   8.586   3.157  0.2154 -0.6137 -0.2659
  409MOL0     C55092   6.568   8.693   3.250  0.1894  0.5310 -0.5368
  409MOL0     C55093   6.465   8.695   3.373 -0.5179  0.3677  0.0040
  409MOL0     C55094   6.513   8.811   3.458 -0.4388  0.0460 -0.3688
  409MOL0     C55095   6.415   8.842   3.577 -0.0147 -0.0850 -0.5361
  409MOL0     C55096   6.444   8.983   3.641  0.3121  0.4331 -0.6969
  409MOL0     N55097   6.573   8.989   3.712  0.4752  0.0303 -0.4081
  409MOL0     C55098   6.630   9.101   3.771  0.4263  0.1017  0.1476
  409MOL0     C55099   6.736   9.066   3.843 -0.3062  0.6827  0.1438
  409MOL0     C55100   6.836   9.146   3.929 -0.1298  0.0083  0.1598
  409MOL0     C55101   6.829   9.105   4.082  1.4837 -0.1247  0.0922
  409MOL0     C55102   6.935   9.183   4.164  0.7374 -0.4363  0.2900
  409MOL0     C55103   6.897   9.340   4.177 -0.2488  0.9172  0.0324
  409MOL0     O55104   7.021   9.410   4.209 -0.3493 -0.3026 -0.3956
  409MOL0     C55105   7.013   9.558   4.223  0.3093  1.1542  0.8423
  409MOL0     C55106   6.892   9.632   4.245 -1.0199 -0.2220  0.6069
  409MOL0     C55107   6.897   9.767   4.278  0.6315 -0.8722 -1.1959
  409MOL0     C55108   6.755   9.835   4.284  0.1306 -0.1444 -0.1464
  409MOL0     C55109   7.020   9.840   4.278  0.2442  0.5352 -0.4519
  409MOL0     C55110   7.047   9.979   4.307 -0.1041 -0.1852 -0.3915
  409MOL0     O55111   7.141  10.036   4.230 -0.5071 -0.4964  0.5081
  409MOL0     C55112   7.193  10.167   4.257  0.1540  0.5440 -0.6717
  409MOL0     C55113   7.134  10.284   4.211  0.8060  0.6183 -0.9299
  409MOL0     C55114   7.192  10.409   4.226 -0.2708 -0.2611 -0.6003
  409MOL0     C55115   7.325  10.413   4.254 -0.2137 -0.0524 -0.0009
  409MOL0     O55116   7.397  10.529   4.237  0.6358 -0.5240 -0.1119
  409MOL0     C55117   7.355  10.612   4.120 -0.1581  0.1739  0.5990
  409MOL0     C55118   7.396  10.536   3.998  0.7348 -0.1569  0.3972
  409MOL0     C55119   7.445  10.607   3.878  0.0985 -0.2693  0.1833
  409MOL0     C55120   7.605  10.620   3.884  0.0195 -1.5060 -0.7813
  409MOL0     C55121   7.651  10.647   3.743 -0.4530 -0.7910  0.1010
  409MOL0     C55122   7.800  10.670   3.725 -0.4099 -0.0346 -0.0563
  409MOL0     C55123   7.894  10.618   3.843  0.2520 -0.1089 -1.0429
  409MOL0     C55124   8.044  10.661   3.806  0.0933 -0.5191  1.3691
  409MOL0    Cl55125   8.092  10.544   3.672  0.7837 -0.2594 -0.6220
  409MOL0     C55126   7.393  10.301   4.306 -0.0607 -0.5684 -0.3673
  409MOL0     C55127   7.322  10.181   4.308  1.1527  0.3903 -0.9182
  409MOL0     O55128   6.964  10.040   4.378 -0.0681  0.1733  0.2277
  409MOL0     C55129   7.132   9.767   4.240 -0.2972 -0.7962  0.7386
  409MOL0     C55130   7.133   9.629   4.221  0.1386  0.7745 -0.2300
  409MOL0     N55131   6.750   8.924   3.825 -0.7423 -0.8431  0.7892
  409MOL0     N55132   6.647   8.881   3.752 -1.5747  0.4384 -0.1058
  409MOL0     C55133   6.420   8.547   2.715  0.2864  0.6554  0.2143
  409MOL0     C55134   6.421   8.555   2.577 -0.3247  0.0973 -0.8768
  409MOL0     C55135   6.450   8.548   2.143 -0.2112 -0.2638 -0.2058
  409MOL0     C55136   6.498   8.651   2.062 -0.5496 -0.5166  0.4962
  409MOL0     C55137   6.455   8.659   1.935  0.3634 -0.5628  0.1655
  409MOL0     C55138   6.373   8.557   1.874 -0.1222 -0.0850 -0.9054
  409MOL0     O55139   6.332   8.584   1.746  0.0899 -0.0681  0.4161
  409MOL0     C55140   6.249   8.479   1.681 -0.9446 -0.6782 -0.7653
  409MOL0     C55141   6.223   8.526   1.539  0.5971 -0.3611 -0.3543
  409MOL0     C55142   6.091   8.602   1.531 -0.5967  1.6263 -0.1581
  409MOL0     C55143   6.069   8.666   1.388  0.9591 -0.5368  0.7630
  409MOL0     C55144   5.979   8.778   1.411  0.3535 -0.9643 -0.7658
  409MOL0     C55145   5.917   8.884   1.408 -0.8494 -0.0152  0.2210
  409MOL0     C55146   6.325   8.458   1.955 -0.0955 -0.0617 -0.8175
  409MOL0     C55147   6.357   8.455   2.095 -0.2563  0.1651 -0.5225
  409MOL0     H55148   6.567   8.249   2.507  1.0044  1.5305 -1.5609
  409MOL0     H55149   6.539   8.229   2.749 -2.7727  1.2648  3.1164
  409MOL0     H55150   6.642   8.378   3.036  4.0785  2.9782  0.2870
  409MOL0     H55151   6.681   8.433   2.888 -1.1294 -2.2923 -1.4158
  409MOL0     H55152   6.716   8.588   3.068  0.4527  2.3739  1.4020
  409MOL0     H55153   6.596   8.651   2.957  2.4384  0.8135  0.7024
  409MOL0     H55154   6.416   8.614   3.120  0.5137  2.6135  1.0695
  409MOL0     H55155   6.512   8.489   3.208  0.6613  0.7977  2.6909
  409MOL0     H55156   6.670   8.667   3.281  0.1649  1.9626  0.8620
  409MOL0     H55157   6.564   8.789   3.199 -1.2598  0.5657 -0.3930
  409MOL0     H55158   6.363   8.713   3.336 -0.2511  0.3545 -0.7538
  409MOL0     H55159   6.485   8.607   3.435  2.3460  0.6442 -0.3889
  409MOL0     H55160   6.617   8.794   3.487 -0.1897  1.9155 -0.0255
  409MOL0     H55161   6.517   8.896   3.390  1.0663 -1.7277 -2.6518
  409MOL0     H55162   6.311   8.833   3.547 -0.0098 -1.3664 -0.1932
  409MOL0     H55163   6.424   8.764   3.652  0.1358  1.0501  0.6739
  409MOL0     H55164   6.366   9.005   3.714  0.6140 -1.7405  0.3640
  409MOL0     H55165   6.438   9.057   3.561  1.1402 -0.3264 -1.4807
  409MOL0     H55166   6.616   9.206   3.748 -2.4029 -0.7171 -2.5654
  409MOL0     H55167   6.937   9.140   3.887  0.3174 -0.1736  1.2421
  409MOL0     H55168   6.799   9.248   3.914 -0.8155  0.0598  2.0246
  409MOL0     H55169   6.851   8.999   4.091  2.8770 -0.0193 -1.4827
  409MOL0     H55170   6.724   9.099   4.113  0.7986 -4.0864 -2.2912
  409MOL0     H55171   7.034   9.161   4.123 -0.3135 -2.2422 -1.4427
  409MOL0     H55172   6.942   9.149   4.268  0.9094 -1.2576  0.0159
  409MOL0     H55173   6.812   9.363   4.241 -0.8818  0.9274 -0.7928
  409MOL0     H55174   6.863   9.363   4.076 -2.2589  0.2695  0.5174
  409MOL0     H55175   6.798   9.578   4.245 -2.6334  2.3191  2.6571
  409MOL0     H55176   6.722   9.839   4.180  0.2678 -0.4677 -0.2007
  409MOL0     H55177   6.691   9.762   4.334  0.6177 -0.0357  0.6629
  409MOL0     H55178   6.753   9.935   4.329 -0.1700 -0.0675 -0.3308
  409MOL0     H55179   7.030  10.279   4.180  0.0555  2.3257  1.0324
  409MOL0     H55180   7.131  10.493   4.195  0.4182 -0.9608 -4.3843
  409MOL0     H55181   7.250  10.636   4.103 -0.6443 -2.2658 -0.2669
  409MOL0     H55182   7.409  10.707   4.124  2.3291 -1.1909  1.8257
  409MOL0     H55183   7.478  10.466   4.017 -0.0423 -2.2350 -3.0855
  409MOL0     H55184   7.308  10.482   3.962 -0.1680  3.0483 -2.8134
  409MOL0     H55185   7.394  10.703   3.865  2.3735  0.7713 -1.7624
  409MOL0     H55186   7.423  10.549   3.787  4.0410 -1.6066 -0.0992
  409MOL0     H55187   7.633  10.703   3.950 -0.2950 -1.6152 -0.5041
  409MOL0     H55188   7.652  10.533   3.931 -1.4160 -2.2432 -0.6341
  409MOL0     H55189   7.596  10.727   3.691 -1.2672 -0.9310  0.7209
  409MOL0     H55190   7.632  10.558   3.682  2.1365 -1.8526  0.7190
  409MOL0     H55191   7.828  10.634   3.626  0.6491 -2.3597  1.0200
  409MOL0     H55192   7.811  10.778   3.737  0.2582 -0.2264  1.2204
  409MOL0     H55193   7.882  10.512   3.865 -2.5811  0.6043  1.4047
  409MOL0     H55194   7.873  10.663   3.941 -0.2937 -1.0408 -0.7278
  409MOL0     H55195   8.114  10.668   3.889  3.8659  1.5700 -1.6877
  409MOL0     H55196   8.039  10.761   3.763  1.4083 -0.0552  2.2534
  409MOL0     H55197   7.491  10.300   4.353 -0.8529 -1.8463  1.3613
  409MOL0     H55198   7.383  10.098   4.342  1.8850 -1.0998 -5.2824
  409MOL0     H55199   7.228   9.814   4.221 -0.4571 -0.5970  0.4132
  409MOL0     H55200   7.225   9.572   4.226  0.6287  1.0952 -3.2426
  409MOL0     H55201   6.401   8.641   2.766  1.9778 -0.4805  3.1608
  409MOL0     H55202   6.387   8.648   2.533 -2.4920  0.8092  2.0015
  409MOL0     H55203   6.560   8.732   2.100 -3.5282  2.5951 -0.6473
  409MOL0     H55204   6.478   8.752   1.883  0.7282 -1.6523 -1.7092
  409MOL0     H55205   6.309   8.387   1.683 -0.5627 -0.4735  3.0719
  409MOL0     H55206   6.151   8.462   1.725 -1.7684  2.3267 -1.2016
  409MOL0     H55207   6.204   8.430   1.491 -0.6765 -1.7908  2.7452
  409MOL0     H55208   6.311   8.573   1.495  2.0863 -1.7729  0.9587
  409MOL0     H55209   6.111   8.680   1.604 -0.2474  0.8009  0.6506
  409MOL0     H55210   6.003   8.541   1.553 -1.0411  1.3655 -2.3542
  409MOL0     H55211   6.025   8.590   1.323 -0.2926 -0.1982  1.1829
  409MOL0     H55212   6.162   8.702   1.343  2.4825 -4.0442  0.7470
  409MOL0     H55213   5.855   8.972   1.410  0.2961  0.8976 -2.0179
  409MOL0     H55214   6.253   8.385   1.918 -0.8294  0.5774 -0.6879
  409MOL0     H55215   6.316   8.377   2.159  2.3266 -0.8035  0.0476
  410MOL0     O55216   4.230   0.815   1.146  0.6250 -0.4984 -0.6020
  410MOL0     C55217   4.265   0.931   1.181  0.5022  0.5429  0.2338
  410MOL0     O55218   4.222   1.007   1.279 -0.1664  0.3849 -0.7883
  410MOL0     C55219   4.119   0.947   1.359 -0.3467 -1.2231 -0.6903
  410MOL0     C55220   4.015   1.040   1.378  0.0030 -0.4836  0.1795
  410MOL0     C55221   3.901   1.011   1.461 -0.5081 -0.5556  0.3507
  410MOL0     C55222   3.903   0.900   1.540  0.9756  0.9729 -0.3568
  410MOL0     O55223   3.808   0.868   1.644 -1.0135  0.2562  0.9112
  410MOL0     C55224   3.667   0.893   1.630 -0.7033  0.6207  1.6802
  410MOL0     C55225   3.597   0.821   1.507  0.1789 -0.5266  0.3497
  410MOL0     C55226   3.633   0.674   1.510  0.0567 -0.8650  0.0862
  410MOL0     C55227   3.547   0.612   1.396  0.3190  0.4988 -0.0274
  410MOL0     C55228   3.579   0.470   1.402  0.3020  0.0363  0.6211
  410MOL0     C55229   3.535   0.400   1.529 -0.8211 -0.0472  0.0930
  410MOL0     C55230   3.378   0.405   1.567  0.6426  0.1407 -0.0251
  410MOL0     C55231   3.328   0.312   1.676 -0.2066  0.7502 -0.2625
  410MOL0     N55232   3.388   0.336   1.810  0.5362 -0.1683  0.3429
  410MOL0     C55233   3.468   0.246   1.870  0.7189 -0.3623  0.5575
  410MOL0     C55234   3.484   0.296   1.995  0.2790 -0.3205  0.5928
  410MOL0     C55235   3.561   0.227   2.101  1.0764 -0.0021  0.4841
  410MOL0     C55236   3.498   0.099   2.150  0.2591 -0.7552 -0.7388
  410MOL0     C55237   3.374   0.117   2.232 -0.1509  0.0000 -0.2153
  410MOL0     C55238   3.251   0.172   2.167  0.9510  1.1623  0.0240
  410MOL0     O55239   3.129   0.132   2.234 -0.4035  0.3574  0.8323
  410MOL0     C55240   3.011   0.159   2.169  0.7435 -0.4087  0.7033
  410MOL0     C55241   2.999   0.219   2.038  0.4483 -0.1251 -0.3022
  410MOL0     C55242   2.881   0.246   1.975  0.6665  0.6905 -0.8758
  410MOL0     C55243   2.898   0.311   1.838 -0.0932  0.0588 -0.1966
  410MOL0     C55244   2.758   0.220   2.041 -0.1078 -0.3916  0.2369
  410MOL0     C55245   2.629   0.261   1.994  0.2369 -0.4437  0.0212
  410MOL0     O55246   2.534   0.171   2.021 -0.0694  0.4108  0.7346
  410MOL0     C55247   2.405   0.174   1.962 -0.2159  0.4066  0.7034
  410MOL0     C55248   2.314   0.277   1.989  0.1024 -1.3912  0.7395
  410MOL0     C55249   2.189   0.272   1.927  0.2107  0.1920 -0.5107
  410MOL0     C55250   2.145   0.173   1.838 -0.3306  0.7301  0.6625
  410MOL0     O55251   2.023   0.168   1.782 -0.0078 -0.2884 -0.1575
  410MOL0     C55252   1.917   0.138   1.870 -0.3348 -0.8496  0.1567
  410MOL0     C55253   1.894  -0.009   1.856  1.3052  0.8140  0.2907
  410MOL0     C55254   1.744  -0.052   1.882 -0.4784 -0.1831  0.3031
  410MOL0     C55255   1.733  -0.207   1.877 -0.3520 -0.2794  0.3677
  410MOL0     C55256   1.718  -0.248   1.732  0.0520  0.8127 -0.7475
  410MOL0     C55257   1.709  -0.407   1.733  0.5929 -0.4808 -0.5005
  410MOL0     C55258   1.678  -0.451   1.593  0.0443  0.1799  0.2053
  410MOL0     C55259   1.619  -0.593   1.597  0.7252 -0.4454 -0.6234
  410MOL0    Cl55260   1.566  -0.651   1.442 -0.4020 -0.1206  0.3358
  410MOL0     C55261   2.238   0.066   1.812  0.5506 -0.0342 -0.2645
  410MOL0     C55262   2.366   0.077   1.872  0.5550  0.1050  0.1981
  410MOL0     O55263   2.606   0.371   1.937  0.2711  0.2523  0.4449
  410MOL0     C55264   2.768   0.174   2.170  0.4079 -0.9174 -0.5363
  410MOL0     C55265   2.886   0.137   2.233 -0.5105 -0.1952 -0.6089
  410MOL0     N55266   3.397   0.402   2.013 -0.7323  0.1871  0.2462
  410MOL0     N55267   3.331   0.423   1.903  0.1277  0.2615  0.0469
  410MOL0     C55268   4.008   0.807   1.516 -0.5952  0.4286 -0.6018
  410MOL0     C55269   4.116   0.824   1.426  0.1356  0.1935  0.2976
  410MOL0     C55270   4.368   0.984   1.098 -0.3351 -0.4148  0.7260
  410MOL0     C55271   4.451   1.092   1.143  0.1570 -0.6969  0.6651
  410MOL0     C55272   4.547   1.153   1.072 -0.8573 -0.6809  1.3075
  410MOL0     C55273   4.575   1.106   0.945 -0.7946  0.2821 -0.1972
  410MOL0     O55274   4.691   1.147   0.888 -0.2210  0.3089 -0.8399
  410MOL0     C55275   4.794   1.050   0.862 -0.3985  0.1537  0.6352
  410MOL0     C55276   4.893   1.122   0.771 -0.6057  0.7449  0.2219
  410MOL0     C55277   4.940   1.254   0.828  0.0195  0.3313 -0.1299
  410MOL0     C55278   5.090   1.272   0.786  0.0667  0.5808 -0.4079
  410MOL0     C55279   5.178   1.208   0.881 -0.6863  0.5832 -0.4123
  410MOL0     C55280   5.260   1.169   0.957 -0.7030  0.1057 -0.0507
  410MOL0     C55281   4.494   1.001   0.893  0.2405  0.7143 -0.0121
  410MOL0     C55282   4.386   0.945   0.964  0.3558 -0.3568 -0.3315
  410MOL0     H55283   4.027   1.134   1.325  3.0640  0.0062  1.5073
  410MOL0     H55284   3.819   1.080   1.477 -0.4355 -1.2216  4.7786
  410MOL0     H55285   3.616   0.861   1.721 -2.1562 -0.9150  0.4051
  410MOL0     H55286   3.653   1.002   1.625  3.9670  1.3657  0.6601
  410MOL0     H55287   3.488   0.829   1.517 -0.0231 -1.9849 -0.3878
  410MOL0     H55288   3.619   0.861   1.407 -4.5760 -3.3826 -2.1855
  410MOL0     H55289   3.742   0.672   1.497  0.0694 -1.2158  0.2307
  410MOL0     H55290   3.612   0.627   1.606 -0.8832 -1.5285 -0.4234
  410MOL0     H55291   3.442   0.635   1.414  0.0431 -2.8477  4.0102
  410MOL0     H55292   3.572   0.647   1.295 -1.1981  0.7251 -0.3523
  410MOL0     H55293   3.528   0.422   1.317  1.0654  2.6199 -1.4237
  410MOL0     H55294   3.688   0.465   1.390  0.6857  3.0932  2.0442
  410MOL0     H55295   3.562   0.300   1.496 -0.9733  0.0177 -0.2327
  410MOL0     H55296   3.597   0.426   1.616 -1.1746  1.1483  0.0035
  410MOL0     H55297   3.349   0.511   1.574 -3.5129 -0.8712  0.5163
  410MOL0     H55298   3.321   0.379   1.478 -3.0858  2.2494  1.5070
  410MOL0     H55299   3.370   0.219   1.634 -1.0219  0.7563 -1.1325
  410MOL0     H55300   3.221   0.291   1.678  0.1500 -1.3458 -0.4098
  410MOL0     H55301   3.511   0.154   1.833 -1.7278 -1.0658 -0.7392
  410MOL0     H55302   3.662   0.211   2.061  1.4775 -2.2338  2.2232
  410MOL0     H55303   3.571   0.304   2.178  0.9744 -0.5598  1.0609
  410MOL0     H55304   3.570   0.040   2.207 -2.1011 -2.8375  0.3183
  410MOL0     H55305   3.463   0.050   2.058 -1.7010  0.3420 -0.6425
  410MOL0     H55306   3.406   0.178   2.317 -4.5169  0.3207  1.4743
  410MOL0     H55307   3.346   0.021   2.277 -0.8456  0.2632 -0.0701
  410MOL0     H55308   3.249   0.126   2.068 -3.6929 -1.7807  1.1982
  410MOL0     H55309   3.257   0.280   2.152 -2.0729  1.1655 -1.9536
  410MOL0     H55310   3.085   0.257   1.983  0.9236  3.0843  2.3703
  410MOL0     H55311   2.902   0.419   1.855 -5.3348  0.8413 -2.1414
  410MOL0     H55312   2.989   0.267   1.796 -0.9306 -4.0223  1.7053
  410MOL0     H55313   2.807   0.299   1.779  1.8035 -0.9585 -3.1454
  410MOL0     H55314   2.336   0.360   2.056  0.3903 -0.1607 -0.8154
  410MOL0     H55315   2.123   0.355   1.949 -0.7632 -0.8439  0.6520
  410MOL0     H55316   1.931   0.160   1.976 -0.9443  0.4043 -0.0002
  410MOL0     H55317   1.828   0.197   1.843 -0.2034 -1.1804 -1.0579
  410MOL0     H55318   1.929  -0.044   1.759 -0.5908 -1.2742  0.2501
  410MOL0     H55319   1.951  -0.062   1.933 -0.5807  0.7323  1.7141
  410MOL0     H55320   1.682  -0.003   1.806  0.4620 -3.6319 -2.9800
  410MOL0     H55321   1.715  -0.018   1.982 -0.7569 -0.3184  0.2668
  410MOL0     H55322   1.824  -0.247   1.923 -1.1217  1.1646  3.3979
  410MOL0     H55323   1.645  -0.238   1.935 -0.9928 -0.1026 -0.4969
  410MOL0     H55324   1.811  -0.212   1.687  1.6523  0.0183  1.6817
  410MOL0     H55325   1.623  -0.205   1.700  0.0966  1.1767 -0.4019
  410MOL0     H55326   1.804  -0.443   1.773  1.3607 -0.8909 -2.5624
  410MOL0     H55327   1.629  -0.444   1.798 -1.3993 -1.6754 -3.3938
  410MOL0     H55328   1.771  -0.443   1.536 -1.5754 -1.8436 -3.0177
  410MOL0     H55329   1.612  -0.377   1.547  2.6157  3.1095  0.8577
  410MOL0     H55330   1.531  -0.601   1.662 -0.5661  1.2309 -2.0903
  410MOL0     H55331   1.690  -0.670   1.629 -0.7958 -1.9612 -0.7327
  410MOL0     H55332   2.228  -0.017   1.744  2.1281  0.3088 -0.9622
  410MOL0     H55333   2.450   0.011   1.855  3.2755  2.9842  1.4394
  410MOL0     H55334   2.671   0.151   2.212 -0.0042 -0.9021 -1.4603
  410MOL0     H55335   2.882   0.102   2.336  0.6553  0.6660 -0.2586
  410MOL0     H55336   4.018   0.719   1.579  2.7402  1.0024 -0.1604
  410MOL0     H55337   4.192   0.748   1.407 -0.6704 -0.2995 -1.1656
  410MOL0     H55338   4.429   1.129   1.242  0.5917 -1.9069  1.2398
  410MOL0     H55339   4.603   1.240   1.106 -2.1219  0.5566  0.3584
  410MOL0     H55340   4.840   1.015   0.955 -1.8107 -0.1423  1.2545
  410MOL0     H55341   4.751   0.965   0.809  2.8691 -2.0581  1.2648
  410MOL0     H55342   4.845   1.128   0.673 -0.6763  0.1479  0.2138
  410MOL0     H55343   4.971   1.047   0.760  0.7528  2.0210  0.8862
  410MOL0     H55344   4.927   1.262   0.936  0.2220 -1.1488  0.0232
  410MOL0     H55345   4.880   1.339   0.792 -0.3961  0.9804  1.9282
  410MOL0     H55346   5.100   1.380   0.775 -1.0130  1.1321  2.9648
  410MOL0     H55347   5.113   1.228   0.688  2.2186 -2.0076  1.1286
  410MOL0     H55348   5.322   1.121   1.031  1.1361  0.4303 -1.3217
  410MOL0     H55349   4.490   0.973   0.789 -0.2907 -1.6447  0.5742
  410MOL0     H55350   4.324   0.867   0.923 -0.3331  0.6502 -1.2462
  411MOL0     O55351   7.368   7.951  10.071  0.0281 -0.4259  0.2231
  411MOL0     C55352   7.361   8.074  10.071  0.1655 -0.7849 -0.0051
  411MOL0     O55353   7.245   8.142  10.102  0.0667 -0.2265 -0.1625
  411MOL0     C55354   7.135   8.069  10.137  0.5439  0.1010  0.0990
  411MOL0     C55355   7.120   7.994  10.257  0.3422 -0.6881 -0.2649
  411MOL0     C55356   6.999   7.924  10.296  0.2059 -0.1377 -0.0416
  411MOL0     C55357   6.904   7.918  10.204  0.3607 -0.3575  0.2344
  411MOL0     O55358   6.793   7.849  10.239  0.1936  0.0220 -0.0348
  411MOL0     C55359   6.671   7.924  10.234 -0.3604 -0.0619  0.3794
  411MOL0     C55360   6.560   7.828  10.281 -0.3182 -0.2353 -0.3598
  411MOL0     C55361   6.464   7.804  10.162  0.3289  0.0984 -0.2031
  411MOL0     C55362   6.547   7.699  10.084 -0.4893  0.5005  0.2241
  411MOL0     C55363   6.506   7.658   9.940  0.6694  0.0436 -0.3289
  411MOL0     C55364   6.475   7.768   9.838  0.3792  0.0369 -0.1469
  411MOL0     C55365   6.593   7.840   9.788 -0.3368  0.8333 -0.1791
  411MOL0     C55366   6.705   7.750   9.720  0.4933  0.4097 -0.6514
  411MOL0     N55367   6.665   7.704   9.587  0.2938 -0.5536  0.2443
  411MOL0     C55368   6.586   7.598   9.550  0.0560  1.0019  0.5572
  411MOL0     C55369   6.570   7.605   9.416  0.0425  0.1202 -0.4088
  411MOL0     C55370   6.486   7.521   9.320  0.2010  0.2495 -0.0435
  411MOL0     C55371   6.433   7.390   9.392 -0.7906 -0.7082  1.4947
  411MOL0     C55372   6.313   7.418   9.473  0.1353  0.9801  0.9150
  411MOL0     C55373   6.189   7.424   9.386  0.7019  0.0700  0.1686
  411MOL0     O55374   6.083   7.468   9.472  0.2474  0.6190  0.2807
  411MOL0     C55375   5.989   7.560   9.431  0.1694  0.2157 -0.2498
  411MOL0     C55376   5.949   7.577   9.301 -0.4691  0.4828 -0.4603
  411MOL0     C55377   5.843   7.672   9.283 -0.1744  0.4576 -0.3188
  411MOL0     C55378   5.791   7.681   9.139  0.2099 -0.4375 -0.0590
  411MOL0     C55379   5.779   7.744   9.386  0.1864 -0.7469 -0.4836
  411MOL0     C55380   5.673   7.836   9.355  1.5159  0.3071  0.5501
  411MOL0     O55381   5.698   7.967   9.389  0.1705 -0.2393 -0.2173
  411MOL0     C55382   5.595   8.058   9.371 -0.0704 -0.6388 -0.6843
  411MOL0     C55383   5.572   8.134   9.253 -0.2799  0.8289  0.1474
  411MOL0     C55384   5.468   8.228   9.251  0.4838 -0.0894  1.1445
  411MOL0     C55385   5.379   8.251   9.352  0.2681 -0.1427 -1.6497
  411MOL0     O55386   5.276   8.339   9.320 -0.2405 -0.2416 -0.8741
  411MOL0     C55387   5.159   8.361   9.409 -0.1898 -0.6542 -0.3390
  411MOL0     C55388   5.031   8.354   9.318  0.6995 -1.3043  0.1006
  411MOL0     C55389   5.017   8.211   9.255  0.1550 -0.7354 -0.2334
  411MOL0     C55390   4.960   8.097   9.353  0.2391 -0.7362  0.1899
  411MOL0     C55391   4.935   7.965   9.273  0.3343 -0.2061 -0.1283
  411MOL0     C55392   5.059   7.903   9.227 -0.6931 -0.9582 -0.2817
  411MOL0     C55393   5.022   7.810   9.106  0.2687 -0.3947 -1.2006
  411MOL0     C55394   5.149   7.770   9.024  0.4905 -1.0068  0.5584
  411MOL0    Cl55395   5.113   7.630   8.918 -0.3626  0.2396 -0.1546
  411MOL0     C55396   5.393   8.169   9.469  0.4181  0.1842 -0.0781
  411MOL0     C55397   5.496   8.077   9.477  0.4937  0.8190  0.3244
  411MOL0     O55398   5.571   7.799   9.295  0.7360  0.0013 -0.7207
  411MOL0     C55399   5.835   7.730   9.514  0.6368  0.0616 -0.9307
  411MOL0     C55400   5.936   7.641   9.530  0.4160 -0.0681  0.2204
  411MOL0     N55401   6.646   7.711   9.373  0.3655 -0.1128  0.4323
  411MOL0     N55402   6.705   7.766   9.474 -0.6038  0.4685  0.2364
  411MOL0     C55403   6.914   7.987  10.081  0.5134  1.4127 -0.2623
  411MOL0     C55404   7.025   8.065  10.055 -0.4783  0.0160  0.6505
  411MOL0     C55405   7.486   8.141  10.027  0.2658  0.2023 -0.4558
  411MOL0     C55406   7.488   8.281  10.011 -1.0787 -0.6841 -0.0968
  411MOL0     C55407   7.588   8.346   9.949 -0.6208  0.1934 -0.1502
  411MOL0     C55408   7.695   8.270   9.915 -0.4247  0.6416  0.6590
  411MOL0     O55409   7.814   8.314   9.850  0.6280  0.0981  0.0471
  411MOL0     C55410   7.821   8.454   9.843 -0.8746  0.5672  0.0300
  411MOL0     C55411   7.950   8.487   9.777  0.6144  0.4398  0.0242
  411MOL0     C55412   8.083   8.462   9.856 -1.1712 -0.0807 -0.7905
  411MOL0     C55413   8.168   8.588   9.871  0.1314  0.1404  0.3638
  411MOL0     C55414   8.231   8.632   9.740  0.2426  0.5354 -0.5709
  411MOL0     C55415   8.253   8.669   9.629 -0.3132 -1.0447  0.0130
  411MOL0     C55416   7.704   8.127   9.930  0.8161 -1.1366 -0.7136
  411MOL0     C55417   7.600   8.065   9.993  0.0868  0.0224  0.3346
  411MOL0     H55418   7.206   7.993  10.322  0.4569 -7.1885  0.1088
  411MOL0     H55419   7.003   7.881  10.396  5.4596  1.7260  0.8638
  411MOL0     H55420   6.677   8.002  10.311 -1.2836 -2.8594  3.5379
  411MOL0     H55421   6.649   7.964  10.135 -1.7454 -1.5162  0.0588
  411MOL0     H55422   6.582   7.727  10.315 -0.1913  0.0778  0.5239
  411MOL0     H55423   6.506   7.871  10.366  1.1952  0.3009  0.3568
  411MOL0     H55424   6.368   7.758  10.190  0.4495 -1.3010 -1.9241
  411MOL0     H55425   6.447   7.888  10.094 -0.0418  1.3787  1.4145
  411MOL0     H55426   6.650   7.732  10.067  0.3456 -1.6871  0.6840
  411MOL0     H55427   6.551   7.608  10.144  0.5149 -1.7741 -2.9935
  411MOL0     H55428   6.579   7.599   9.885 -0.0556  0.4108 -1.7408
  411MOL0     H55429   6.411   7.603   9.942 -1.7548  3.8513 -0.4010
  411MOL0     H55430   6.428   7.715   9.755  2.8105 -2.6837  0.0894
  411MOL0     H55431   6.409   7.848   9.874 -3.0721 -1.9103 -1.6190
  411MOL0     H55432   6.572   7.920   9.717  0.7296  1.9822  0.7420
  411MOL0     H55433   6.634   7.894   9.875  0.3867 -3.5268  2.4982
  411MOL0     H55434   6.739   7.660   9.771 -0.4005 -1.1908 -2.7075
  411MOL0     H55435   6.795   7.809   9.702  0.4213  0.5216 -0.6515
  411MOL0     H55436   6.539   7.526   9.616 -1.9467 -0.7630 -2.5093
  411MOL0     H55437   6.403   7.584   9.286 -0.8061  0.0950  1.9675
  411MOL0     H55438   6.546   7.493   9.233  0.5336 -0.0385  0.2750
  411MOL0     H55439   6.512   7.359   9.461 -1.9194 -4.9059  1.2016
  411MOL0     H55440   6.420   7.311   9.317  1.6848  0.4856 -0.3326
  411MOL0     H55441   6.340   7.514   9.520  0.2632  1.9930 -1.1269
  411MOL0     H55442   6.296   7.344   9.551 -2.5537  1.7310  1.1503
  411MOL0     H55443   6.170   7.331   9.333  1.8744 -0.6106  0.8873
  411MOL0     H55444   6.206   7.492   9.302  0.0418 -0.4887 -0.4257
  411MOL0     H55445   5.988   7.527   9.214  1.2728  0.9105  0.0239
  411MOL0     H55446   5.880   7.677   9.075  0.4062 -1.2086  0.2510
  411MOL0     H55447   5.731   7.591   9.125  0.8379 -1.0189  0.8700
  411MOL0     H55448   5.744   7.776   9.113  1.2699  0.3353  0.7452
  411MOL0     H55449   5.642   8.134   9.170  1.5394  2.1690  1.5899
  411MOL0     H55450   5.443   8.276   9.157 -0.0024 -1.1026  0.7469
  411MOL0     H55451   5.162   8.306   9.503  2.6684  1.4481  0.9793
  411MOL0     H55452   5.185   8.463   9.440  1.4340 -1.3577  0.7395
  411MOL0     H55453   4.937   8.382   9.366  0.9311  0.7889 -0.5736
  411MOL0     H55454   5.043   8.428   9.239 -1.3140 -1.8226 -0.7483
  411MOL0     H55455   5.116   8.181   9.220  0.7380 -0.1741  0.8851
  411MOL0     H55456   4.961   8.233   9.164  0.2539 -3.4204 -1.0461
  411MOL0     H55457   5.033   8.074   9.432  0.3610 -0.5488  0.1310
  411MOL0     H55458   4.865   8.130   9.395  1.1697  0.2934  1.5525
  411MOL0     H55459   4.872   8.015   9.199  1.6347  1.2743 -0.2971
  411MOL0     H55460   4.872   7.897   9.331 -1.5802  0.7432 -0.9853
  411MOL0     H55461   5.140   7.973   9.206  0.5375 -2.4322 -0.6461
  411MOL0     H55462   5.104   7.843   9.307 -0.9082 -0.7135  0.0250
  411MOL0     H55463   4.962   7.864   9.032  2.8727  2.7140 -1.2325
  411MOL0     H55464   4.966   7.723   9.143  1.6378 -0.4857  0.8552
  411MOL0     H55465   5.228   7.734   9.090  1.4816 -0.8258 -0.5058
  411MOL0     H55466   5.187   7.852   8.962 -0.3827 -0.4767  0.7065
  411MOL0     H55467   5.324   8.161   9.552  1.1700  1.8780  0.7724
  411MOL0     H55468   5.502   8.010   9.562 -0.2096 -3.4166 -2.6521
  411MOL0     H55469   5.798   7.787   9.599 -0.1562  1.5005 -2.1946
  411MOL0     H55470   5.982   7.625   9.627 -1.3258  0.6409  1.2120
  411MOL0     H55471   6.837   7.982  10.005  0.5199  0.3294 -0.2255
  411MOL0     H55472   7.015   8.131   9.969 -1.1702 -1.3183 -0.3175
  411MOL0     H55473   7.405   8.338  10.053  0.0533 -0.1365  1.4702
  411MOL0     H55474   7.593   8.455   9.949  2.1956  0.1442  0.6894
  411MOL0     H55475   7.751   8.494   9.768 -1.8692 -1.7417 -0.3534
  411MOL0     H55476   7.812   8.506   9.939 -3.7033 -0.2591  0.3056
  411MOL0     H55477   7.951   8.592   9.745  2.8086  0.0550 -1.3191
  411MOL0     H55478   7.953   8.427   9.686 -3.3456 -1.2945  0.8347
  411MOL0     H55479   8.132   8.383   9.799 -2.9647  0.2509 -2.9114
  411MOL0     H55480   8.064   8.422   9.956  3.4066 -0.9747 -0.0355
  411MOL0     H55481   8.247   8.558   9.941  0.8985 -1.7767 -1.2367
  411MOL0     H55482   8.103   8.668   9.909  2.3747  3.4764 -2.1935
  411MOL0     H55483   8.268   8.702   9.528  1.2722 -0.3930  0.4228
  411MOL0     H55484   7.795   8.069   9.918  1.0291 -1.3916  1.6904
  411MOL0     H55485   7.611   7.961  10.021 -0.9799 -0.5834 -1.3371
  412MOL0     O55486   6.280   8.745   9.724  0.0639  0.7770  1.0298
  412MOL0     C55487   6.303   8.829   9.812  0.2750  0.4390 -0.8040
  412MOL0     O55488   6.430   8.865   9.862 -0.6816  0.0699 -0.2166
  412MOL0     C55489   6.544   8.834   9.786 -0.3102 -0.0038 -0.7356
  412MOL0     C55490   6.572   8.735   9.681  0.0950  0.4587 -0.0571
  412MOL0     C55491   6.690   8.739   9.606  0.2228  0.2909  0.7219
  412MOL0     C55492   6.795   8.823   9.649  0.2660 -0.2855  0.6964
  412MOL0     O55493   6.921   8.811   9.596 -0.6639 -0.6211 -0.3625
  412MOL0     C55494   7.019   8.749   9.687  0.6309  0.5765 -0.3516
  412MOL0     C55495   7.147   8.704   9.623  0.4768  0.6653  1.4401
  412MOL0     C55496   7.205   8.814   9.541  0.2728  0.1655  0.2486
  412MOL0     C55497   7.346   8.771   9.476 -0.4159  0.6784 -0.9875
  412MOL0     C55498   7.373   8.870   9.362  0.1517 -0.3028 -0.3913
  412MOL0     C55499   7.502   8.830   9.284  0.3506 -0.8694 -0.8420
  412MOL0     C55500   7.481   8.840   9.128 -0.1006  0.5924 -0.1837
  412MOL0     C55501   7.452   8.980   9.086 -0.1750 -0.2092 -0.5803
  412MOL0     N55502   7.410   8.996   8.949  0.3777 -0.6901 -0.3528
  412MOL0     C55503   7.313   8.928   8.880  0.4663  0.4532  0.1034
  412MOL0     C55504   7.319   8.976   8.754  0.3896 -0.5938  0.1821
  412MOL0     C55505   7.239   8.940   8.629  0.9424  0.0168 -0.7775
  412MOL0     C55506   7.276   8.814   8.542 -0.2933 -0.7852  0.2997
  412MOL0     C55507   7.384   8.857   8.440  0.4308 -0.2948 -0.7464
  412MOL0     C55508   7.380   8.756   8.323 -0.6085 -1.0105 -0.4588
  412MOL0     O55509   7.495   8.778   8.239  0.2317  0.8958 -0.0305
  412MOL0     C55510   7.508   8.888   8.153 -0.0348  0.1514  0.0472
  412MOL0     C55511   7.406   8.984   8.130 -0.1823  0.6966 -0.3050
  412MOL0     C55512   7.429   9.097   8.045  0.1080  0.6266 -0.3667
  412MOL0     C55513   7.318   9.192   8.043  1.0407  0.7172  0.1499
  412MOL0     C55514   7.550   9.113   7.981 -0.3169 -0.6519 -0.2462
  412MOL0     C55515   7.572   9.224   7.881 -0.0541 -0.1633 -0.4780
  412MOL0     O55516   7.697   9.295   7.885  0.2553 -0.0600  0.1481
  412MOL0     C55517   7.704   9.390   7.781 -1.0726  0.5610 -0.5158
  412MOL0     C55518   7.605   9.486   7.756  0.0775  0.1191 -0.6218
  412MOL0     C55519   7.626   9.585   7.664  0.4607 -0.1656 -0.0599
  412MOL0     C55520   7.734   9.585   7.577  1.7376  0.3378  0.9188
  412MOL0     O55521   7.754   9.690   7.489  0.1630  0.3731 -0.3130
  412MOL0     C55522   7.816   9.651   7.361  0.4513  0.3447 -0.4693
  412MOL0     C55523   7.741   9.723   7.241  0.8351  0.2150 -0.3370
  412MOL0     C55524   7.794   9.718   7.100  0.0356 -0.5406 -0.5123
  412MOL0     C55525   7.789   9.575   7.039 -0.6037 -0.0779 -1.2783
  412MOL0     C55526   7.924   9.531   6.973  0.3298  0.4027  1.1032
  412MOL0     C55527   7.934   9.545   6.819  0.6130  0.3179 -0.5453
  412MOL0     C55528   7.959   9.686   6.760 -0.7094 -0.0993 -0.0296
  412MOL0     C55529   8.109   9.724   6.739  0.0843  0.4393  0.1595
  412MOL0    Cl55530   8.193   9.721   6.902  0.2809  0.3491  0.1872
  412MOL0     C55531   7.828   9.485   7.600 -0.5103 -0.9253 -0.4215
  412MOL0     C55532   7.819   9.386   7.701  0.0891  1.0674  0.3800
  412MOL0     O55533   7.479   9.233   7.798 -0.1470 -0.0020 -0.2249
  412MOL0     C55534   7.642   9.008   7.992 -0.2270  0.5124  0.4622
  412MOL0     C55535   7.622   8.905   8.081 -1.0218 -0.6751  1.2630
  412MOL0     N55536   7.427   9.064   8.744 -0.6016 -0.6087 -0.2319
  412MOL0     N55537   7.473   9.081   8.873  0.3656  0.6682 -0.0045
  412MOL0     C55538   6.774   8.900   9.758  0.1823 -0.6086 -0.4513
  412MOL0     C55539   6.649   8.912   9.825  0.5991 -0.5292 -0.5154
  412MOL0     C55540   6.176   8.881   9.869  0.3304  0.2568  0.3111
  412MOL0     C55541   6.179   8.972   9.973  0.3811 -0.4839  0.3119
  412MOL0     C55542   6.061   9.024  10.024  0.0611 -0.7139  0.2653
  412MOL0     C55543   5.939   8.989   9.982 -0.0143 -0.5365  0.2453
  412MOL0     O55544   5.833   9.054  10.042 -0.3641  0.1727  0.2657
  412MOL0     C55545   5.713   8.988  10.042  0.2510  0.2947  0.0924
  412MOL0     C55546   5.629   9.027  10.167  0.4707 -0.4309 -0.3665
  412MOL0     C55547   5.559   9.157  10.167  0.4259  0.3516  0.0551
  412MOL0     C55548   5.457   9.174  10.060  0.6309 -0.2308 -0.9245
  412MOL0     C55549   5.340   9.094  10.084  0.2299 -0.2900  0.3741
  412MOL0     C55550   5.238   9.025  10.071  0.6310 -0.3276 -0.1301
  412MOL0     C55551   5.927   8.897   9.878 -0.8867 -0.2630  0.1788
  412MOL0     C55552   6.049   8.838   9.814  0.9372 -0.1299 -0.8902
  412MOL0     H55553   6.503   8.657   9.649  0.4754 -0.1807  0.6323
  412MOL0     H55554   6.719   8.679   9.521 -0.3584 -0.3660  0.9753
  412MOL0     H55555   7.029   8.810   9.777  0.0288 -0.9998  0.8094
  412MOL0     H55556   6.970   8.656   9.718 -0.8634  1.6540  0.7002
  412MOL0     H55557   7.217   8.661   9.696  0.8592  1.2305  1.4145
  412MOL0     H55558   7.125   8.613   9.567  0.2510  0.3398  2.0476
  412MOL0     H55559   7.131   8.844   9.466  0.2482  4.5203  1.7139
  412MOL0     H55560   7.216   8.904   9.603 -0.2328  1.3766 -1.3562
  412MOL0     H55561   7.427   8.799   9.545 -1.3347 -1.9537  1.3451
  412MOL0     H55562   7.348   8.663   9.459 -0.3045  0.5199 -0.0451
  412MOL0     H55563   7.284   8.857   9.300  1.7432 -2.8980 -2.2925
  412MOL0     H55564   7.366   8.977   9.386 -0.1461 -0.2182 -0.8405
  412MOL0     H55565   7.578   8.898   9.322  0.8516 -0.2657 -2.8441
  412MOL0     H55566   7.524   8.725   9.302 -0.6708 -1.2652 -1.7746
  412MOL0     H55567   7.569   8.806   9.074 -0.0195 -0.0110  0.3076
  412MOL0     H55568   7.396   8.781   9.092  1.5583 -1.0013 -1.6783
  412MOL0     H55569   7.547   9.033   9.100 -0.2439 -0.4323  0.8912
  412MOL0     H55570   7.384   9.034   9.152 -2.6870 -1.1477 -2.2342
  412MOL0     H55571   7.245   8.851   8.915  1.5060 -0.6249 -0.2082
  412MOL0     H55572   7.136   8.931   8.665  1.7382  4.5029  3.8189
  412MOL0     H55573   7.245   9.031   8.568  2.4765 -0.4829 -1.4187
  412MOL0     H55574   7.186   8.786   8.487 -1.1030  0.8418  0.7246
  412MOL0     H55575   7.307   8.734   8.610 -0.4727  1.5930  3.4182
  412MOL0     H55576   7.485   8.866   8.482  0.9243 -0.8954 -1.7545
  412MOL0     H55577   7.360   8.957   8.403 -1.4479 -0.6178 -0.4804
  412MOL0     H55578   7.283   8.761   8.271  0.5686 -1.4159 -2.8485
  412MOL0     H55579   7.404   8.660   8.370  4.3337  0.7778  1.2772
  412MOL0     H55580   7.309   8.973   8.177  1.2109  2.5542  3.3573
  412MOL0     H55581   7.259   9.179   7.952  0.3118  2.5350  0.3036
  412MOL0     H55582   7.258   9.186   8.134  0.0657 -0.6345 -0.5521
  412MOL0     H55583   7.349   9.297   8.053 -2.0887  1.5817  2.1135
  412MOL0     H55584   7.515   9.472   7.815 -0.2551  1.7265 -0.7065
  412MOL0     H55585   7.552   9.665   7.667 -0.1552 -0.7486  1.9376
  412MOL0     H55586   7.921   9.679   7.367  0.9180 -1.0607 -1.6387
  412MOL0     H55587   7.815   9.545   7.337 -0.3063  0.8605 -3.0560
  412MOL0     H55588   7.640   9.681   7.236 -0.1075  1.8642  2.6510
  412MOL0     H55589   7.747   9.829   7.265  4.1904  0.4272 -1.6183
  412MOL0     H55590   7.895   9.760   7.101 -0.3464  0.3996  0.7668
  412MOL0     H55591   7.745   9.798   7.044  2.2651  0.5921 -0.9547
  412MOL0     H55592   7.771   9.492   7.107 -1.4283 -1.0900 -2.6638
  412MOL0     H55593   7.711   9.572   6.962 -0.7878  0.9898 -1.1502
  412MOL0     H55594   7.918   9.423   6.993  0.8804 -0.1185 -1.2929
  412MOL0     H55595   8.007   9.571   7.032 -1.5303  3.9481  1.5652
  412MOL0     H55596   8.010   9.482   6.772 -1.0430 -0.8279 -1.7691
  412MOL0     H55597   7.844   9.501   6.775 -0.0160 -0.5586  1.5081
  412MOL0     H55598   7.912   9.766   6.818  0.9290  2.1593 -1.6739
  412MOL0     H55599   7.898   9.694   6.670  1.5717  0.6620 -1.6063
  412MOL0     H55600   8.106   9.820   6.687 -0.2254  0.5174  0.3171
  412MOL0     H55601   8.162   9.658   6.669  3.4701  1.7226  1.3348
  412MOL0     H55602   7.925   9.492   7.552 -0.5743  1.0367 -0.3686
  412MOL0     H55603   7.896   9.311   7.719  0.5116  1.3126 -0.3574
  412MOL0     H55604   7.720   8.997   7.918 -1.0636 -3.1756 -0.0418
  412MOL0     H55605   7.698   8.829   8.098 -0.2531 -0.1162  0.3907
  412MOL0     H55606   6.858   8.952   9.803  0.1370 -1.8553  1.1860
  412MOL0     H55607   6.651   8.975   9.914  2.5008 -0.8311 -0.2985
  412MOL0     H55608   6.281   9.001   9.995 -0.2248  1.5198  0.7180
  412MOL0     H55609   6.073   9.098  10.103  1.8644 -1.1421  0.4418
  412MOL0     H55610   5.658   9.018   9.952 -1.0635 -2.1180  0.0114
  412MOL0     H55611   5.737   8.882  10.035  3.1302  0.9627 -4.4292
  412MOL0     H55612   5.700   9.035  10.250  1.3319  4.1687 -1.2504
  412MOL0     H55613   5.555   8.949  10.186  0.8584 -0.7993 -0.3831
  412MOL0     H55614   5.639   9.230  10.148  1.3274 -0.4427  0.6817
  412MOL0     H55615   5.510   9.171  10.264 -3.4800 -0.3398 -1.6672
  412MOL0     H55616   5.492   9.158   9.958 -1.8844 -2.1679 -1.5853
  412MOL0     H55617   5.416   9.275  10.061 -0.2286 -0.4355  3.6057
  412MOL0     H55618   5.152   8.965  10.050  2.0030 -2.3990 -0.2091
  412MOL0     H55619   5.835   8.865   9.831 -0.5282 -1.0718 -0.0012
  412MOL0     H55620   6.025   8.776   9.729 -1.4856 -0.5350  0.0155
  413MOL0     O55621   9.597   3.851   4.792 -0.0532 -0.3273 -0.1606
  413MOL0     C55622   9.681   3.859   4.886 -0.5620 -0.2799  0.6816
  413MOL0     O55623   9.704   3.969   4.966  0.6151  0.5467 -0.5479
  413MOL0     C55624   9.615   4.072   4.975  0.3312  0.0662 -0.1373
  413MOL0     C55625   9.475   4.070   4.952  0.7421 -0.7084  1.0193
  413MOL0     C55626   9.405   4.190   4.961  0.2168 -0.7156  0.5230
  413MOL0     C55627   9.461   4.306   5.007  0.9862 -0.8638 -0.3441
  413MOL0     O55628   9.396   4.430   4.995 -0.0719  0.6646  0.2745
  413MOL0     C55629   9.262   4.430   4.955  0.5519 -0.3414 -0.0216
  413MOL0     C55630   9.211   4.571   4.966  0.4695  0.1094 -0.0460
  413MOL0     C55631   9.214   4.634   5.108  0.3508 -1.0802 -0.5710
  413MOL0     C55632   9.178   4.789   5.118 -0.5982  0.3087 -0.0811
  413MOL0     C55633   9.066   4.827   5.215 -0.5760 -0.3460  0.1064
  413MOL0     C55634   9.112   4.797   5.360  1.7164  0.9579 -0.3465
  413MOL0     C55635   9.022   4.888   5.454  0.4707 -0.6958 -0.1984
  413MOL0     C55636   9.054   4.847   5.597  0.4381  0.0452  0.0027
  413MOL0     N55637   9.139   4.950   5.663 -0.7501 -0.7663  0.4774
  413MOL0     C55638   9.209   4.918   5.774  0.3456 -0.2460  0.1977
  413MOL0     C55639   9.290   5.034   5.786 -0.5055  0.4245 -0.6314
  413MOL0     C55640   9.402   5.047   5.887 -0.9078  0.6026 -0.3541
  413MOL0     C55641   9.487   5.179   5.869  0.0755  0.1180  0.5722
  413MOL0     C55642   9.591   5.190   5.986 -0.2922  0.5949  0.4295
  413MOL0     C55643   9.674   5.316   5.985 -0.5521  0.2165 -0.0893
  413MOL0     O55644   9.757   5.338   5.862  0.0114 -0.0352  0.1173
  413MOL0     C55645   9.790   5.463   5.831 -0.5018  0.5712 -0.2897
  413MOL0     C55646   9.749   5.515   5.712  0.2653  0.0834 -0.4970
  413MOL0     C55647   9.775   5.643   5.665  0.4526  0.5156 -0.1592
  413MOL0     C55648   9.713   5.673   5.535 -0.2804  0.8649 -0.2104
  413MOL0     C55649   9.849   5.735   5.752 -0.4244 -0.2173  0.7083
  413MOL0     C55650   9.866   5.880   5.727  0.8668 -0.7571 -0.3474
  413MOL0     O55651   9.926   5.958   5.819 -0.0815  0.6542 -0.4631
  413MOL0     C55652   9.956   6.090   5.783  0.3065  0.1797  1.0860
  413MOL0     C55653  10.086   6.130   5.780 -0.2882  0.3232 -0.2152
  413MOL0     C55654  10.118   6.263   5.763 -1.1205 -0.5995  0.1460
  413MOL0     C55655  10.022   6.363   5.732 -0.2909 -0.7747  0.3619
  413MOL0     O55656  10.043   6.501   5.709 -0.9061 -0.1797 -0.3313
  413MOL0     C55657  10.177   6.547   5.698 -0.9245 -0.8182  0.0314
  413MOL0     C55658  10.182   6.704   5.663 -0.1929  1.0035  0.1314
  413MOL0     C55659  10.317   6.777   5.680 -0.0476  0.0545  0.0434
  413MOL0     C55660  10.344   6.829   5.819  0.0876  0.3170  0.3401
  413MOL0     C55661  10.481   6.904   5.834  0.1160  0.4027  0.3086
  413MOL0     C55662  10.520   6.939   5.966 -0.0043 -0.3692 -0.2823
  413MOL0     C55663  10.450   7.048   6.038 -0.4036  0.1788 -0.0835
  413MOL0     C55664  10.420   7.026   6.180 -1.1607 -0.4288 -0.0038
  413MOL0    Cl55665  10.302   6.906   6.209  0.4054  0.0828 -0.2507
  413MOL0     C55666   9.892   6.322   5.734  0.1265 -0.3990  0.2735
  413MOL0     C55667   9.860   6.183   5.748  0.3935  0.5500 -0.1868
  413MOL0     O55668   9.824   5.916   5.623 -0.1341 -0.5721 -0.2108
  413MOL0     C55669   9.887   5.687   5.886  0.2652  0.6891 -0.6114
  413MOL0     C55670   9.857   5.549   5.924  0.0015 -0.1692  0.1807
  413MOL0     N55671   9.271   5.125   5.684  0.4665  0.4571  0.0616
  413MOL0     N55672   9.189   5.068   5.607  0.8962 -0.4457 -0.5496
  413MOL0     C55673   9.597   4.305   5.052  1.0457  0.0735 -0.5950
  413MOL0     C55674   9.672   4.189   5.030  1.0312 -0.8248 -0.2167
  413MOL0     C55675   9.732   3.727   4.922  0.3487 -0.4670 -0.0032
  413MOL0     C55676   9.832   3.704   5.022 -0.7868 -0.0445  0.9937
  413MOL0     C55677   9.901   3.585   5.035 -0.9315 -0.9209  0.4071
  413MOL0     C55678   9.876   3.473   4.953 -0.3136 -0.0632  0.3173
  413MOL0     O55679   9.958   3.365   4.962  0.1485  0.3346  0.5673
  413MOL0     C55680   9.924   3.240   4.890 -0.3356 -0.1342 -0.3093
  413MOL0     C55681  10.020   3.230   4.776  0.5800 -0.4461 -0.5269
  413MOL0     C55682   9.997   3.103   4.701  0.5058  0.8883 -0.4775
  413MOL0     C55683  10.119   3.018   4.664  0.5700  0.5856 -1.2794
  413MOL0     C55684  10.194   2.951   4.773 -0.2201 -0.2693 -0.2805
  413MOL0     C55685  10.259   2.879   4.854  0.8445  0.7707 -0.2147
  413MOL0     C55686   9.770   3.490   4.859  0.0178 -0.3958 -0.1547
  413MOL0     C55687   9.702   3.610   4.844  0.0556  0.7298  0.2462
  413MOL0     H55688   9.429   3.980   4.913 -0.4406  0.9601 -1.7374
  413MOL0     H55689   9.301   4.199   4.933 -0.1760 -1.2965  1.7803
  413MOL0     H55690   9.239   4.381   4.860 -2.5314  2.2354 -0.7699
  413MOL0     H55691   9.202   4.384   5.034  0.8586 -3.8109 -1.5829
  413MOL0     H55692   9.271   4.639   4.905  1.7816  2.2640  3.3587
  413MOL0     H55693   9.106   4.579   4.935  0.1600 -0.6154  0.7669
  413MOL0     H55694   9.121   4.597   5.153 -1.0463  2.1617 -0.5258
  413MOL0     H55695   9.300   4.611   5.171 -1.7661 -0.0688  2.9859
  413MOL0     H55696   9.270   4.845   5.137  0.1657 -1.1301  0.6401
  413MOL0     H55697   9.153   4.829   5.019  0.7273  2.1742  0.2887
  413MOL0     H55698   9.046   4.934   5.211  1.3226  0.2216  2.7088
  413MOL0     H55699   8.974   4.770   5.201  0.2634 -1.7120  0.0168
  413MOL0     H55700   9.100   4.689   5.371 -2.1669  0.7309 -4.2203
  413MOL0     H55701   9.217   4.821   5.382  2.1220 -0.3599 -0.7930
  413MOL0     H55702   9.040   4.993   5.431 -0.9265 -0.7988 -1.9505
  413MOL0     H55703   8.916   4.861   5.447  0.9975 -4.4500  2.9059
  413MOL0     H55704   9.106   4.752   5.588  0.0988 -0.0512 -1.0887
  413MOL0     H55705   8.963   4.837   5.657 -0.4274 -2.2586 -1.5781
  413MOL0     H55706   9.206   4.833   5.841  0.7143 -1.1107 -0.8553
  413MOL0     H55707   9.352   5.058   5.984  0.3552  2.8040  0.1189
  413MOL0     H55708   9.470   4.962   5.880 -2.1211 -0.4076 -0.1720
  413MOL0     H55709   9.409   5.256   5.863 -0.4173 -0.4740 -2.6674
  413MOL0     H55710   9.537   5.169   5.772 -0.7018 -3.6598  0.4038
  413MOL0     H55711   9.657   5.103   5.981 -1.0268  0.0895 -1.1076
  413MOL0     H55712   9.535   5.191   6.079 -2.3959  3.0575 -0.7333
  413MOL0     H55713   9.737   5.307   6.074 -0.2432  0.6236 -0.2624
  413MOL0     H55714   9.602   5.398   5.991 -2.4569 -1.1453 -2.6185
  413MOL0     H55715   9.683   5.447   5.658 -1.4032  0.5986  0.8260
  413MOL0     H55716   9.661   5.584   5.498  3.1429 -0.8634 -1.3599
  413MOL0     H55717   9.627   5.739   5.543 -1.4532 -0.5344 -0.7809
  413MOL0     H55718   9.788   5.718   5.469  0.2631  1.7381  0.9738
  413MOL0     H55719  10.161   6.052   5.777  1.5148  2.0039 -1.4350
  413MOL0     H55720  10.222   6.293   5.761 -1.8336  2.1063 -1.1923
  413MOL0     H55721  10.231   6.530   5.792  3.5097  3.1052 -1.4058
  413MOL0     H55722  10.217   6.493   5.611 -1.6647 -0.2581 -0.6698
  413MOL0     H55723  10.147   6.728   5.562  0.5136  4.3361  0.5420
  413MOL0     H55724  10.105   6.752   5.724  0.1270  1.3692  0.2551
  413MOL0     H55725  10.316   6.860   5.609 -0.9851  0.1048  0.0971
  413MOL0     H55726  10.408   6.729   5.643  1.0717  1.2759  1.1343
  413MOL0     H55727  10.266   6.902   5.844 -1.4780 -1.6722  1.5270
  413MOL0     H55728  10.354   6.750   5.894  0.7134 -0.8224 -0.9148
  413MOL0     H55729  10.492   6.985   5.760  0.5169 -0.0422 -0.1250
  413MOL0     H55730  10.562   6.835   5.811  3.0109  3.2658  1.0998
  413MOL0     H55731  10.501   6.852   6.029 -2.7289  0.1154 -0.3161
  413MOL0     H55732  10.629   6.948   5.974 -0.2297  2.3621  1.1599
  413MOL0     H55733  10.358   7.076   5.984  1.9089 -0.3534 -4.7887
  413MOL0     H55734  10.521   7.130   6.027  0.1491 -0.2319  0.4270
  413MOL0     H55735  10.401   7.125   6.223 -1.2539 -0.9086  1.0873
  413MOL0     H55736  10.507   6.979   6.227 -2.6142 -2.2701  0.9914
  413MOL0     H55737   9.812   6.395   5.728 -0.3908 -0.9336  0.5495
  413MOL0     H55738   9.761   6.138   5.745  1.8176 -2.8981  0.3271
  413MOL0     H55739   9.922   5.750   5.966  0.2749 -0.8834  0.6867
  413MOL0     H55740   9.877   5.505   6.021 -0.3465 -1.2271 -0.2181
  413MOL0     H55741   9.632   4.397   5.099 -0.1951  0.6978 -0.8611
  413MOL0     H55742   9.779   4.191   5.049  0.9234 -3.4887  1.0385
  413MOL0     H55743   9.869   3.790   5.077 -0.5222 -0.4272  1.4159
  413MOL0     H55744   9.986   3.578   5.102 -1.0313 -0.9434  0.5323
  413MOL0     H55745   9.928   3.158   4.961  0.6619  1.1783  1.2249
  413MOL0     H55746   9.818   3.243   4.863 -0.5693 -2.8612  0.0496
  413MOL0     H55747  10.123   3.227   4.812  0.3714 -0.1434  0.1111
  413MOL0     H55748  10.016   3.319   4.713  1.6775  0.9911  1.3455
  413MOL0     H55749   9.952   3.142   4.609 -0.0255  3.2636  0.7110
  413MOL0     H55750   9.927   3.041   4.756  0.0897 -0.0345 -1.9856
  413MOL0     H55751  10.191   3.071   4.601 -1.0813 -0.1397 -3.9535
  413MOL0     H55752  10.073   2.933   4.613  0.9984 -0.5179  0.1105
  413MOL0     H55753  10.311   2.815   4.922  0.7110 -2.3376 -2.7739
  413MOL0     H55754   9.756   3.428   4.772  0.8914  1.0297 -1.3578
  413MOL0     H55755   9.632   3.618   4.762 -0.0345  3.0140  0.4665
  414MOL0     O55756  10.887   0.733   5.043 -1.1396  0.4579  0.3523
  414MOL0     C55757  10.896   0.630   5.115 -0.2218 -0.8054  0.0036
  414MOL0     O55758  10.882   0.498   5.065 -0.1634 -0.2573  0.3265
  414MOL0     C55759  10.857   0.477   4.934  1.1562  0.0921  0.8479
  414MOL0     C55760  10.913   0.374   4.859  0.3229 -0.5476  0.2036
  414MOL0     C55761  10.875   0.350   4.728 -0.2286  0.5684 -0.0240
  414MOL0     C55762  10.781   0.432   4.665  0.5687 -0.0909 -0.1414
  414MOL0     O55763  10.741   0.398   4.536  0.5416 -0.3134 -0.3763
  414MOL0     C55764  10.807   0.286   4.469 -0.5973 -0.5350 -0.6057
  414MOL0     C55765  10.733   0.274   4.330 -0.6635  0.7092 -0.1359
  414MOL0     C55766  10.774   0.140   4.257  0.7720  0.2409  0.3164
  414MOL0     C55767  10.686   0.111   4.133  0.4030  0.0050  0.4838
  414MOL0     C55768  10.750   0.006   4.045 -0.8291  0.2167 -0.5440
  414MOL0     C55769  10.770  -0.130   4.120  0.1436  0.1954  0.2759
  414MOL0     C55770  10.646  -0.210   4.158 -0.8383 -0.5269  1.2595
  414MOL0     C55771  10.672  -0.336   4.228  0.4508  0.6651 -0.3519
  414MOL0     N55772  10.725  -0.322   4.368 -0.2216  0.1248 -0.0345
  414MOL0     C55773  10.649  -0.307   4.483 -0.0486 -0.0975  0.9531
  414MOL0     C55774  10.730  -0.265   4.586 -0.7916  0.3399 -0.6039
  414MOL0     C55775  10.706  -0.223   4.720 -1.0493  0.3529  0.1404
  414MOL0     C55776  10.797  -0.095   4.748  0.1304  0.2190 -0.6059
  414MOL0     C55777  10.761  -0.022   4.871 -0.1925 -0.7385  0.1399
  414MOL0     C55778  10.721  -0.099   4.992 -0.5322 -0.4382 -0.6253
  414MOL0     O55779  10.713  -0.011   5.105 -0.3279 -0.1807  0.6445
  414MOL0     C55780  10.824  -0.001   5.189 -0.5125  0.3784 -0.8153
  414MOL0     C55781  10.951  -0.058   5.179 -1.4021 -0.5591 -0.1347
  414MOL0     C55782  11.048  -0.045   5.277 -0.1710  0.4458  1.0488
  414MOL0     C55783  11.194  -0.092   5.245 -0.2391  0.5366 -0.2847
  414MOL0     C55784  11.019   0.028   5.394  0.1345  0.3283  0.1773
  414MOL0     C55785  11.118   0.047   5.503  0.1530 -0.7748 -0.6806
  414MOL0     O55786  11.098   0.153   5.586  0.6532 -1.0155 -0.2200
  414MOL0     C55787  11.194   0.195   5.677  0.8445 -0.8337 -0.1350
  414MOL0     C55788  11.243   0.332   5.674 -1.1334  0.5054 -0.7971
  414MOL0     C55789  11.349   0.359   5.772  0.9494 -0.9951  0.9864
  414MOL0     C55790  11.381   0.280   5.882 -0.3949  1.0106  0.9963
  414MOL0     O55791  11.472   0.324   5.975 -0.5105  0.1533 -0.0937
  414MOL0     C55792  11.493   0.256   6.104 -0.5246  0.2470  0.0659
  414MOL0     C55793  11.612   0.325   6.170  0.5300 -0.7005 -0.3687
  414MOL0     C55794  11.597   0.477   6.182  0.5693 -0.4240 -0.4872
  414MOL0     C55795  11.707   0.559   6.254  0.6180 -0.0934  0.4819
  414MOL0     C55796  11.825   0.587   6.164  0.0883  0.7986 -0.4997
  414MOL0     C55797  11.913   0.698   6.225 -0.1359 -0.2907  0.0145
  414MOL0     C55798  12.038   0.643   6.292 -0.4480  0.1216 -0.1609
  414MOL0     C55799  12.127   0.731   6.383 -0.3493  1.1047  0.7062
  414MOL0    Cl55800  12.162   0.891   6.329  0.5125 -0.4682  0.0878
  414MOL0     C55801  11.330   0.153   5.886  0.4828  0.4984  0.6446
  414MOL0     C55802  11.233   0.112   5.786  0.1939 -1.1500  0.5660
  414MOL0     O55803  11.213  -0.028   5.514  0.5631 -0.1852  0.3371
  414MOL0     C55804  10.896   0.089   5.411  0.4270 -0.6531 -0.3909
  414MOL0     C55805  10.806   0.080   5.303 -0.0805  0.3807  0.5263
  414MOL0     N55806  10.860  -0.271   4.541 -0.0661 -0.8975  0.4648
  414MOL0     N55807  10.860  -0.301   4.413  0.6983  0.2145 -0.8194
  414MOL0     C55808  10.735   0.546   4.727 -1.5087  0.0500  0.2048
  414MOL0     C55809  10.768   0.556   4.859  0.6224  0.3163 -0.2423
  414MOL0     C55810  10.916   0.651   5.261 -0.0798  0.5517  0.2943
  414MOL0     C55811  10.940   0.784   5.305  0.2109  0.2378 -0.7843
  414MOL0     C55812  10.968   0.813   5.439 -1.0941 -0.9980 -0.7427
  414MOL0     C55813  10.980   0.705   5.527 -0.3748  0.6291 -1.0277
  414MOL0     O55814  11.028   0.712   5.663  0.0439 -0.2807  0.0556
  414MOL0     C55815  11.071   0.840   5.710  0.1126  0.1258 -0.4134
  414MOL0     C55816  11.096   0.826   5.854  0.9196 -0.2595 -0.2369
  414MOL0     C55817  11.155   0.953   5.921  0.9493 -0.1003  0.7967
  414MOL0     C55818  11.048   1.039   5.993  0.3546 -0.0007  0.3946
  414MOL0     C55819  11.067   1.184   5.998 -0.6574 -0.0644  0.5136
  414MOL0     C55820  11.078   1.303   6.006  0.6691 -0.3062  0.5198
  414MOL0     C55821  10.948   0.576   5.486  0.0528 -0.0217  0.2897
  414MOL0     C55822  10.921   0.546   5.356 -1.1059  0.1799  0.1235
  414MOL0     H55823  10.992   0.314   4.901 -0.2620 -0.9752  0.7050
  414MOL0     H55824  10.930   0.269   4.682 -0.6814  0.8368 -1.0703
  414MOL0     H55825  10.911   0.312   4.452 -0.2538 -0.5551  1.2706
  414MOL0     H55826  10.787   0.201   4.534 -0.5953  0.2638  0.4722
  414MOL0     H55827  10.624   0.280   4.334 -0.8041 -1.6331  1.3881
  414MOL0     H55828  10.772   0.359   4.274  2.0920 -0.4414 -0.1322
  414MOL0     H55829  10.879   0.149   4.226  0.8476 -1.4672 -0.0031
  414MOL0     H55830  10.758   0.056   4.324  0.8706  0.1664  0.2466
  414MOL0     H55831  10.586   0.076   4.160  0.5245 -0.7368  0.0172
  414MOL0     H55832  10.673   0.202   4.074  2.7479  3.1445  4.2819
  414MOL0     H55833  10.704  -0.017   3.949 -0.4350  0.5822 -0.8263
  414MOL0     H55834  10.851   0.033   4.014 -0.9860  2.2553  0.5304
  414MOL0     H55835  10.809  -0.189   4.037 -1.0778 -0.0004 -0.1816
  414MOL0     H55836  10.838  -0.131   4.206 -0.8531 -2.3539  1.1442
  414MOL0     H55837  10.591  -0.150   4.231 -1.3145  0.9545 -0.2376
  414MOL0     H55838  10.581  -0.217   4.070  2.1978  1.4175 -1.3539
  414MOL0     H55839  10.755  -0.384   4.174  4.3231  2.4352  3.3650
  414MOL0     H55840  10.574  -0.382   4.241  1.0333 -0.1632  1.4982
  414MOL0     H55841  10.542  -0.326   4.486  0.1574 -1.5547  0.1350
  414MOL0     H55842  10.600  -0.197   4.730 -1.1725 -0.8874  3.2624
  414MOL0     H55843  10.725  -0.304   4.790  0.9622  1.3140  0.7907
  414MOL0     H55844  10.798  -0.029   4.660 -2.5829  0.7172 -0.3593
  414MOL0     H55845  10.902  -0.121   4.764 -0.2735 -0.4334  1.2336
  414MOL0     H55846  10.681   0.049   4.850 -0.1752 -0.9791 -0.8020
  414MOL0     H55847  10.845   0.045   4.890 -0.2559 -0.7380  0.4343
  414MOL0     H55848  10.791  -0.181   5.008 -1.0216 -0.8716 -0.6628
  414MOL0     H55849  10.620  -0.141   4.983 -0.2665 -1.4519  0.8696
  414MOL0     H55850  10.984  -0.110   5.090  0.3621  1.0893 -0.5229
  414MOL0     H55851  11.219  -0.185   5.297  0.3611  1.0672  0.4035
  414MOL0     H55852  11.207  -0.112   5.139 -1.0086 -1.4278 -0.0625
  414MOL0     H55853  11.273  -0.021   5.270  0.8972  0.2749 -2.8358
  414MOL0     H55854  11.216   0.395   5.589  0.0970  0.0054 -1.5925
  414MOL0     H55855  11.384   0.461   5.783 -1.5995 -0.0336  0.9249
  414MOL0     H55856  11.401   0.262   6.163 -0.3334 -0.5656  0.4615
  414MOL0     H55857  11.528   0.153   6.096 -2.9861 -1.0446  3.5541
  414MOL0     H55858  11.619   0.289   6.273 -0.7301  1.3193  0.4977
  414MOL0     H55859  11.707   0.311   6.117  0.5033 -1.7626 -0.1490
  414MOL0     H55860  11.502   0.491   6.235 -0.0764  2.5232 -2.1379
  414MOL0     H55861  11.576   0.519   6.083 -1.3854 -1.7778 -0.7068
  414MOL0     H55862  11.657   0.651   6.288  0.8229  0.4641 -0.6701
  414MOL0     H55863  11.738   0.487   6.330  1.9338 -0.6032 -0.5158
  414MOL0     H55864  11.770   0.640   6.086 -1.5491  1.0359  0.7678
  414MOL0     H55865  11.883   0.500   6.131  0.6301  1.1376 -0.4475
  414MOL0     H55866  11.932   0.781   6.156  2.7049 -0.3357  0.6214
  414MOL0     H55867  11.848   0.746   6.299 -0.9034 -0.1425 -0.7319
  414MOL0     H55868  12.101   0.600   6.213 -1.1735  1.2138 -1.3768
  414MOL0     H55869  12.006   0.559   6.354 -0.2075 -1.0590 -1.5540
  414MOL0     H55870  12.225   0.682   6.386 -2.3452 -3.9027 -2.4084
  414MOL0     H55871  12.092   0.730   6.486  0.2477  1.2905  0.9197
  414MOL0     H55872  11.364   0.080   5.959 -2.4867 -2.3445 -0.5338
  414MOL0     H55873  11.193   0.012   5.804 -1.0725 -0.5245  1.3869
  414MOL0     H55874  10.863   0.149   5.496  0.8810 -0.3714 -0.4080
  414MOL0     H55875  10.712   0.129   5.326  1.3147  2.1810  2.7979
  414MOL0     H55876  10.665   0.611   4.676 -0.0523  3.9600  2.7479
  414MOL0     H55877  10.729   0.643   4.911  1.4144  1.1562 -1.0206
  414MOL0     H55878  10.917   0.862   5.233  0.7972 -0.5907 -1.8901
  414MOL0     H55879  10.991   0.913   5.472 -1.5941 -1.1843  0.1952
  414MOL0     H55880  11.163   0.859   5.654  3.5198 -0.7665  4.3761
  414MOL0     H55881  10.987   0.909   5.692  0.0178 -0.4023 -2.2416
  414MOL0     H55882  11.145   0.729   5.857  2.1199  0.3244 -0.4000
  414MOL0     H55883  11.002   0.811   5.908  0.4487  1.5003 -0.4887
  414MOL0     H55884  11.211   1.012   5.848 -2.1262  1.4727 -0.4436
  414MOL0     H55885  11.227   0.927   6.000 -1.2765  0.0961  3.0125
  414MOL0     H55886  11.042   0.999   6.094  1.4395  0.5095  0.6750
  414MOL0     H55887  10.957   1.026   5.933  0.7070 -0.2903 -0.0775
  414MOL0     H55888  11.088   1.410   6.007 -0.3316 -0.1635 -1.0573
  414MOL0     H55889  10.950   0.493   5.557  0.2892  1.1603  1.7199
  414MOL0     H55890  10.898   0.440   5.345 -0.2328  0.0030 -0.0431
  415MOL0     O55891   1.120   3.818   9.329 -0.3927 -0.4494  0.1828
  415MOL0     C55892   1.126   3.871   9.440  0.6680 -0.1590  0.0496
  415MOL0     O55893   1.195   3.981   9.476  0.7178 -0.2060 -1.1441
  415MOL0     C55894   1.282   4.044   9.399 -0.0806 -0.1541  0.9359
  415MOL0     C55895   1.288   4.066   9.258  1.0663 -0.0673 -0.0318
  415MOL0     C55896   1.371   4.153   9.203 -1.2080 -0.0128  0.1971
  415MOL0     C55897   1.456   4.234   9.292  0.4325 -0.5298  0.6459
  415MOL0     O55898   1.542   4.330   9.244 -0.1523 -0.3780 -0.5419
  415MOL0     C55899   1.646   4.298   9.146 -0.1644 -0.7097 -0.8504
  415MOL0     C55900   1.738   4.417   9.134 -0.3484 -0.3724 -0.0311
  415MOL0     C55901   1.674   4.550   9.073  0.8649 -0.4034 -0.7688
  415MOL0     C55902   1.616   4.531   8.930  0.6835  0.6708  0.3000
  415MOL0     C55903   1.526   4.658   8.889 -0.4003  0.0055  0.4059
  415MOL0     C55904   1.620   4.768   8.834 -0.3009 -0.1842 -0.1037
  415MOL0     C55905   1.565   4.911   8.817 -0.2733  0.2143  0.3910
  415MOL0     C55906   1.598   5.002   8.934 -0.3342 -0.0115 -0.5490
  415MOL0     N55907   1.744   5.028   8.952 -0.1370  0.6604  0.5903
  415MOL0     C55908   1.809   5.068   8.841  0.9667 -0.7453  0.5851
  415MOL0     C55909   1.942   5.059   8.866  0.0513 -2.2490 -1.4133
  415MOL0     C55910   2.053   5.116   8.780  0.6776  0.4700  0.1632
  415MOL0     C55911   2.055   5.029   8.646 -0.3247 -1.0276 -0.1010
  415MOL0     C55912   1.965   5.069   8.525  0.0073 -0.4060  0.6623
  415MOL0     C55913   2.001   4.979   8.403 -1.4105 -0.5296 -1.0980
  415MOL0     O55914   1.970   4.838   8.424  0.5001 -0.5033 -0.3561
  415MOL0     C55915   2.057   4.740   8.386 -0.0879  0.7403  0.4375
  415MOL0     C55916   2.072   4.634   8.483  0.0788 -0.2723  0.0503
  415MOL0     C55917   2.175   4.538   8.479 -1.2778 -0.7540 -0.1120
  415MOL0     C55918   2.160   4.423   8.579 -0.0411 -0.8237  0.3017
  415MOL0     C55919   2.274   4.552   8.380 -0.4543  0.6371 -0.2815
  415MOL0     C55920   2.391   4.455   8.361 -0.0684  0.3873 -0.0046
  415MOL0     O55921   2.412   4.382   8.480 -0.6039  0.0266  0.1953
  415MOL0     C55922   2.489   4.271   8.452 -0.0533  0.8310 -0.2811
  415MOL0     C55923   2.449   4.140   8.503 -0.2389 -0.3426  0.3292
  415MOL0     C55924   2.529   4.021   8.491 -0.4949 -0.2013  0.6453
  415MOL0     C55925   2.654   4.031   8.429  1.5624 -0.6274  0.4313
  415MOL0     O55926   2.738   3.917   8.426 -0.1279 -0.1536 -0.0986
  415MOL0     C55927   2.759   3.846   8.302 -0.6172 -0.6371 -0.5303
  415MOL0     C55928   2.667   3.725   8.289  0.6247  0.0807 -0.1670
  415MOL0     C55929   2.688   3.653   8.153 -0.4709  0.1387  0.0632
  415MOL0     C55930   2.543   3.593   8.102 -0.9844 -0.9634 -0.5054
  415MOL0     C55931   2.528   3.532   7.961  0.3672  0.0461  0.4381
  415MOL0     C55932   2.385   3.477   7.945 -0.6843  0.2050 -0.4125
  415MOL0     C55933   2.373   3.398   7.812 -0.3727 -0.7862 -0.3781
  415MOL0     C55934   2.453   3.280   7.791  0.2534 -0.4949  0.5040
  415MOL0    Cl55935   2.458   3.179   7.946  0.3725  0.1712  0.0091
  415MOL0     C55936   2.697   4.153   8.377  0.2348  0.0648  0.2135
  415MOL0     C55937   2.615   4.268   8.396 -0.8593 -0.4984  0.0851
  415MOL0     O55938   2.449   4.442   8.252  0.5491 -0.7837 -0.0616
  415MOL0     C55939   2.258   4.655   8.282 -0.1373  0.3769 -0.4413
  415MOL0     C55940   2.160   4.749   8.291 -0.5664 -0.7005  0.1678
  415MOL0     N55941   1.956   5.017   8.992  0.1813 -0.7091 -0.1978
  415MOL0     N55942   1.838   4.994   9.044  0.0851 -0.0745  0.0857
  415MOL0     C55943   1.456   4.215   9.426 -0.4472  0.3175 -0.0263
  415MOL0     C55944   1.362   4.130   9.477  0.2633 -0.5456 -0.8040
  415MOL0     C55945   1.044   3.815   9.542  0.2838  0.4370  0.2567
  415MOL0     C55946   0.915   3.755   9.496 -0.6174 -0.4322 -0.0046
  415MOL0     C55947   0.826   3.713   9.592 -0.1213  0.6062  0.4967
  415MOL0     C55948   0.858   3.722   9.728  0.8672  0.7000  0.4139
  415MOL0     O55949   0.771   3.682   9.828 -0.3732  0.0312 -0.0615
  415MOL0     C55950   0.630   3.672   9.796 -0.8297  0.2921  0.8265
  415MOL0     C55951   0.595   3.536   9.740  0.1808  0.2289  0.1421
  415MOL0     C55952   0.453   3.495   9.709  0.4933 -0.2217  0.4173
  415MOL0     C55953   0.446   3.344   9.696 -0.1999 -0.0309 -0.2789
  415MOL0     C55954   0.522   3.283   9.592 -0.7251  0.0464 -1.0311
  415MOL0     C55955   0.575   3.248   9.489  0.1251  1.1753 -1.1746
  415MOL0     C55956   0.981   3.764   9.762  0.4648  0.2552  0.2819
  415MOL0     C55957   1.075   3.813   9.674  0.3607 -0.4004  0.4720
  415MOL0     H55958   1.229   4.010   9.185  0.2576  2.0267 -1.0558
  415MOL0     H55959   1.376   4.172   9.096  1.5803 -0.4564  0.1727
  415MOL0     H55960   1.697   4.206   9.175 -1.3486 -1.4302 -1.0018
  415MOL0     H55961   1.611   4.273   9.046  1.9921  0.9436 -2.0899
  415MOL0     H55962   1.784   4.434   9.232  1.2631  1.5002 -1.0310
  415MOL0     H55963   1.819   4.392   9.065 -0.6280  0.8587 -0.8465
  415MOL0     H55964   1.600   4.592   9.143  0.2785 -0.9247 -1.0762
  415MOL0     H55965   1.751   4.628   9.067  1.4306 -0.9517 -0.6865
  415MOL0     H55966   1.699   4.521   8.859  1.3145  0.7116  1.0315
  415MOL0     H55967   1.566   4.435   8.911  0.9117  0.5585  0.2707
  415MOL0     H55968   1.452   4.623   8.817  0.6887 -2.6612  0.4790
  415MOL0     H55969   1.477   4.695   8.980 -0.0242 -1.9902  1.4698
  415MOL0     H55970   1.709   4.771   8.898 -0.3445  1.0756 -0.0779
  415MOL0     H55971   1.658   4.723   8.742  1.1193 -3.4565  1.9006
  415MOL0     H55972   1.596   4.946   8.718 -0.7972 -0.1198  0.1062
  415MOL0     H55973   1.456   4.903   8.814 -0.6584 -0.5497  5.6587
  415MOL0     H55974   1.553   4.946   9.017 -1.8914  2.3344  0.2853
  415MOL0     H55975   1.540   5.093   8.918 -0.2980  0.4448  1.6957
  415MOL0     H55976   1.779   5.106   8.744  1.6037 -1.8181 -0.0504
  415MOL0     H55977   2.049   5.225   8.785  0.9381  0.4402  3.0416
  415MOL0     H55978   2.151   5.084   8.817  0.7580  1.7212  1.1186
  415MOL0     H55979   2.030   4.925   8.667 -1.6676 -1.0147 -1.4893
  415MOL0     H55980   2.160   5.028   8.613 -1.7978 -1.8670 -5.7730
  415MOL0     H55981   1.976   5.176   8.505 -2.4571 -0.5771 -2.4922
  415MOL0     H55982   1.859   5.043   8.536 -0.2439  0.1294 -0.3983
  415MOL0     H55983   2.093   5.016   8.357 -1.3248  2.9051  1.5009
  415MOL0     H55984   1.933   4.992   8.319 -3.0170  0.3699  0.2806
  415MOL0     H55985   1.996   4.635   8.560  1.2349  2.6466  1.2803
  415MOL0     H55986   2.197   4.332   8.530  2.5031  1.5691 -2.6309
  415MOL0     H55987   2.225   4.435   8.665  1.1738 -2.5304 -0.3181
  415MOL0     H55988   2.058   4.401   8.612  0.4852 -1.2267  1.6945
  415MOL0     H55989   2.351   4.156   8.547 -0.2214  1.8763 -0.3040
  415MOL0     H55990   2.500   3.929   8.541  1.7822 -0.6784  1.1749
  415MOL0     H55991   2.732   3.913   8.221  0.4185  0.3040 -0.1236
  415MOL0     H55992   2.858   3.805   8.280 -0.3123  0.0341 -0.4273
  415MOL0     H55993   2.690   3.660   8.374  0.8684  0.7267  0.2699
  415MOL0     H55994   2.565   3.763   8.289  1.2286  1.9217 -2.6756
  415MOL0     H55995   2.756   3.569   8.167  0.5705  0.8195 -0.7979
  415MOL0     H55996   2.719   3.711   8.065 -0.4419 -1.3022 -0.9156
  415MOL0     H55997   2.518   3.515   8.175 -2.7532 -0.7844 -0.8798
  415MOL0     H55998   2.462   3.667   8.105  0.8138  1.1184 -1.0725
  415MOL0     H55999   2.592   3.444   7.945  2.1601  1.0450  1.7469
  415MOL0     H56000   2.555   3.602   7.881  2.1031 -2.9529 -1.8220
  415MOL0     H56001   2.358   3.408   8.026  1.3184 -1.3167 -0.9786
  415MOL0     H56002   2.320   3.565   7.936 -0.3765  0.4468 -0.2948
  415MOL0     H56003   2.395   3.453   7.721 -1.1521 -1.6470 -1.1093
  415MOL0     H56004   2.271   3.357   7.810 -0.0635 -1.6056  0.1550
  415MOL0     H56005   2.556   3.298   7.758  0.4239 -1.0587  0.7199
  415MOL0     H56006   2.413   3.217   7.711  1.0337 -1.1291  0.5969
  415MOL0     H56007   2.797   4.168   8.338  0.4975 -2.3189 -0.1664
  415MOL0     H56008   2.661   4.359   8.358 -1.6383 -1.2260 -2.8204
  415MOL0     H56009   2.334   4.660   8.204  1.9658  0.2444  1.5015
  415MOL0     H56010   2.148   4.829   8.219 -0.9136  1.8686  2.9082
  415MOL0     H56011   1.530   4.267   9.486 -0.6636  2.3404 -1.4140
  415MOL0     H56012   1.363   4.111   9.584 -0.0091  0.3154 -0.6417
  415MOL0     H56013   0.902   3.743   9.389 -0.9355  1.3306 -0.1872
  415MOL0     H56014   0.732   3.681   9.547 -1.3169  2.3177  1.6506
  415MOL0     H56015   0.564   3.695   9.880  0.4369 -1.5592  2.4054
  415MOL0     H56016   0.611   3.738   9.710  3.1139 -1.2604 -1.5500
  415MOL0     H56017   0.625   3.468   9.820 -2.2007 -0.4269  0.5326
  415MOL0     H56018   0.661   3.517   9.654  1.9785 -0.7807  1.6562
  415MOL0     H56019   0.427   3.539   9.612  0.2845  1.1462  1.0638
  415MOL0     H56020   0.391   3.537   9.789  2.6834 -0.6005  2.4325
  415MOL0     H56021   0.341   3.320   9.675 -0.9503  2.0839  0.7973
  415MOL0     H56022   0.467   3.301   9.794 -1.3412  0.5803  0.2468
  415MOL0     H56023   0.624   3.201   9.407  1.3780  0.1657  0.1213
  415MOL0     H56024   1.007   3.766   9.867  0.7925 -2.1034  0.2981
  415MOL0     H56025   1.170   3.850   9.712 -0.4308  1.5528  0.6516
  416MOL0     O56026   9.160   6.851   1.131 -0.2709 -0.1615 -0.5472
  416MOL0     C56027   9.260   6.793   1.176 -0.4203  1.4241  0.8099
  416MOL0     O56028   9.310   6.668   1.121 -0.0754 -0.4355  0.5620
  416MOL0     C56029   9.272   6.614   1.000  0.9323  0.0208  0.1729
  416MOL0     C56030   9.190   6.672   0.904 -0.7475  0.2630  0.0046
  416MOL0     C56031   9.168   6.627   0.773  0.2733  0.8497 -0.5277
  416MOL0     C56032   9.217   6.495   0.739 -0.2493 -0.5822  0.3707
  416MOL0     O56033   9.213   6.435   0.616  0.6519 -0.2359  0.6634
  416MOL0     C56034   9.178   6.517   0.498  0.7262  0.3440  0.2132
  416MOL0     C56035   9.311   6.548   0.420 -0.1373  0.6148  0.1830
  416MOL0     C56036   9.297   6.603   0.278 -0.3880 -0.6228 -0.0280
  416MOL0     C56037   9.196   6.724   0.260 -0.5099  0.3181 -0.2767
  416MOL0     C56038   9.207   6.790   0.123  0.1013 -0.7046  0.2372
  416MOL0     C56039   9.117   6.924   0.134  0.0261  0.1521 -0.7531
  416MOL0     C56040   9.109   6.989  -0.006 -0.4388 -0.2591  1.1000
  416MOL0     C56041   9.044   6.910  -0.122  0.4489  0.1965 -0.6397
  416MOL0     N56042   8.902   6.923  -0.095  0.5120  1.2477 -0.4408
  416MOL0     C56043   8.819   7.015  -0.147 -0.2313  0.0624  0.4439
  416MOL0     C56044   8.700   6.998  -0.083 -0.2041  0.7351  0.1710
  416MOL0     C56045   8.581   7.091  -0.090 -0.7306 -0.0258  0.2668
  416MOL0     C56046   8.611   7.241  -0.118 -1.1688  0.9569 -0.5212
  416MOL0     C56047   8.512   7.343  -0.071  0.1984 -0.0736  0.3442
  416MOL0     C56048   8.555   7.488  -0.100 -0.3312 -0.2243 -0.5181
  416MOL0     O56049   8.566   7.526  -0.231 -0.1992 -0.1398  0.2208
  416MOL0     C56050   8.557   7.660  -0.245 -0.0407 -0.2490 -0.3805
  416MOL0     C56051   8.524   7.700  -0.379  0.0919 -0.7025  0.2957
  416MOL0     C56052   8.500   7.833  -0.419 -0.9033  0.8586 -0.0972
  416MOL0     C56053   8.457   7.839  -0.560 -0.1020 -0.6091  1.1236
  416MOL0     C56054   8.515   7.941  -0.324 -0.3574 -0.8364 -0.2297
  416MOL0     C56055   8.510   8.083  -0.361  1.1320  0.2673 -1.2993
  416MOL0     O56056   8.503   8.121  -0.489  0.0874  0.5726  0.0548
  416MOL0     C56057   8.521   8.251  -0.515  0.3573 -0.3941  0.6201
  416MOL0     C56058   8.651   8.301  -0.563  0.5311 -0.1274 -0.1972
  416MOL0     C56059   8.666   8.426  -0.604  0.4288 -0.3633 -0.4796
  416MOL0     C56060   8.568   8.517  -0.580 -0.0718 -1.2560 -0.8605
  416MOL0     O56061   8.608   8.647  -0.590 -0.4042  0.4438 -0.3655
  416MOL0     C56062   8.516   8.752  -0.603  0.9162  0.5455  0.2745
  416MOL0     C56063   8.584   8.884  -0.585 -0.2974  0.4625  0.0579
  416MOL0     C56064   8.729   8.895  -0.627  0.0823  0.3548 -0.8469
  416MOL0     C56065   8.759   8.905  -0.774 -0.5658  0.1155  0.3672
  416MOL0     C56066   8.918   8.906  -0.793  0.0670  0.3384  0.9238
  416MOL0     C56067   8.957   8.895  -0.944  0.1401  0.5046 -0.5498
  416MOL0     C56068   9.116   8.902  -0.969  0.7831 -0.8211  0.5593
  416MOL0     C56069   9.146   8.854  -1.115 -0.0121  0.1256 -0.5590
  416MOL0    Cl56070   9.053   8.929  -1.228  0.2764 -0.0394 -0.1688
  416MOL0     C56071   8.443   8.466  -0.553 -0.1293  0.5925  1.1267
  416MOL0     C56072   8.415   8.339  -0.512 -0.2483  0.0150 -0.6136
  416MOL0     O56073   8.532   8.160  -0.268  1.2465  0.5448 -0.1994
  416MOL0     C56074   8.542   7.896  -0.192  0.7968 -0.2382 -0.4157
  416MOL0     C56075   8.567   7.763  -0.152 -0.5658 -0.2107  0.6176
  416MOL0     N56076   8.719   6.898   0.009  0.6478 -0.6260 -0.3898
  416MOL0     N56077   8.834   6.841  -0.009  0.7517  0.2120 -0.1943
  416MOL0     C56078   9.309   6.444   0.834  0.2083 -0.4046 -0.2231
  416MOL0     C56079   9.336   6.493   0.965 -0.0016  0.0813  0.4408
  416MOL0     C56080   9.322   6.825   1.310 -1.4997 -0.5529 -0.8026
  416MOL0     C56081   9.278   6.940   1.381 -1.0459 -0.2591  0.1283
  416MOL0     C56082   9.343   6.982   1.492  0.5872 -0.1812  0.0129
  416MOL0     C56083   9.448   6.917   1.559  1.1462 -0.5339  0.4179
  416MOL0     O56084   9.510   6.981   1.668 -0.0479  0.6462  0.4062
  416MOL0     C56085   9.624   6.916   1.718 -0.2156  0.0061  0.7726
  416MOL0     C56086   9.593   6.796   1.804  0.8667 -0.0114  0.4957
  416MOL0     C56087   9.525   6.818   1.940 -0.4404  0.5423  0.7710
  416MOL0     C56088   9.575   6.939   2.019 -0.4648 -0.7315 -0.5194
  416MOL0     C56089   9.530   6.936   2.152  0.5210  0.3968 -1.1202
  416MOL0     C56090   9.475   6.949   2.264  0.6303  0.3196  1.0119
  416MOL0     C56091   9.494   6.802   1.490 -1.0783  0.2217  0.2639
  416MOL0     C56092   9.442   6.765   1.359  0.5736  0.3340 -0.1548
  416MOL0     H56093   9.131   6.763   0.917 -3.1967 -0.3448 -4.5209
  416MOL0     H56094   9.106   6.681   0.701  0.1807  0.2214 -0.9238
  416MOL0     H56095   9.119   6.457   0.428 -0.2022  0.8032  0.5844
  416MOL0     H56096   9.116   6.607   0.504 -1.0474 -0.8118  0.1056
  416MOL0     H56097   9.374   6.619   0.475  1.7697 -3.0212  3.1774
  416MOL0     H56098   9.370   6.456   0.415  0.4278  0.8819  1.4056
  416MOL0     H56099   9.394   6.642   0.246 -1.4236  1.4871 -0.7666
  416MOL0     H56100   9.261   6.522   0.213  1.4417 -0.2291 -1.6441
  416MOL0     H56101   9.094   6.688   0.278  0.0314 -0.0578  2.5103
  416MOL0     H56102   9.225   6.792   0.340  0.1925 -0.3731  0.0687
  416MOL0     H56103   9.314   6.802   0.104 -0.0663 -0.4009 -0.5711
  416MOL0     H56104   9.164   6.729   0.044 -1.1309 -0.5773  0.7827
  416MOL0     H56105   9.022   6.899   0.182  1.0108  0.2697  1.3748
  416MOL0     H56106   9.161   7.004   0.194 -1.3257  1.0512 -0.9294
  416MOL0     H56107   9.054   7.083   0.004 -1.0927 -0.6498  1.2866
  416MOL0     H56108   9.212   7.007  -0.036 -0.7130  2.1291  1.4261
  416MOL0     H56109   9.077   6.806  -0.130 -0.9315 -0.4634  1.4614
  416MOL0     H56110   9.054   6.962  -0.218 -0.3591  1.5039 -0.0490
  416MOL0     H56111   8.843   7.096  -0.215 -0.5659  0.4471  0.7739
  416MOL0     H56112   8.530   7.053  -0.179 -0.6171  2.5732 -1.0159
  416MOL0     H56113   8.513   7.070  -0.007 -2.3985 -2.6637 -1.5808
  416MOL0     H56114   8.616   7.258  -0.226  0.4001  0.0340 -0.6142
  416MOL0     H56115   8.706   7.279  -0.082  0.0681 -0.5290 -2.0642
  416MOL0     H56116   8.501   7.335   0.038 -1.0794 -2.2338  0.1159
  416MOL0     H56117   8.424   7.307  -0.125 -0.2371  0.3430  0.7714
  416MOL0     H56118   8.651   7.497  -0.048 -1.3857  3.2853  1.1017
  416MOL0     H56119   8.481   7.552  -0.052  1.4011  0.6718  1.0726
  416MOL0     H56120   8.501   7.613  -0.440 -3.4928  0.3310 -0.0901
  416MOL0     H56121   8.361   7.890  -0.566  1.1331  1.6850 -3.0653
  416MOL0     H56122   8.530   7.895  -0.619 -2.1101 -1.8977 -2.9694
  416MOL0     H56123   8.444   7.745  -0.614  4.3429  1.2119 -4.0168
  416MOL0     H56124   8.733   8.232  -0.580  1.1903  0.8539 -1.1153
  416MOL0     H56125   8.759   8.463  -0.644 -1.2557  2.5043 -2.1036
  416MOL0     H56126   8.485   8.750  -0.707  4.4661  0.0997 -0.9167
  416MOL0     H56127   8.423   8.733  -0.549  2.1678 -0.8065  2.1345
  416MOL0     H56128   8.524   8.960  -0.634 -0.3303 -0.6217 -1.6664
  416MOL0     H56129   8.588   8.886  -0.476  1.3566 -0.3827  0.0534
  416MOL0     H56130   8.786   8.809  -0.591  2.4810  0.7020 -3.5159
  416MOL0     H56131   8.764   8.986  -0.578  1.5197  0.2863 -1.7158
  416MOL0     H56132   8.704   8.821  -0.817  0.1954 -0.9201  1.3990
  416MOL0     H56133   8.714   8.987  -0.831  2.1738  1.5036  0.0201
  416MOL0     H56134   8.953   8.814  -0.746  2.5930 -0.0744 -1.5473
  416MOL0     H56135   8.963   8.994  -0.745  0.3925  0.7485 -0.1167
  416MOL0     H56136   8.928   8.794  -0.977 -0.3817  0.0279  1.2857
  416MOL0     H56137   8.913   8.961  -1.020  0.7703  1.7367  0.1369
  416MOL0     H56138   9.178   8.850  -0.895  2.8279  0.4638 -0.1487
  416MOL0     H56139   9.142   9.008  -0.964  0.9225 -0.8301  0.0647
  416MOL0     H56140   9.117   8.749  -1.101 -3.5872  1.0399 -0.0715
  416MOL0     H56141   9.250   8.862  -1.147 -0.2797  0.5436 -1.3209
  416MOL0     H56142   8.355   8.529  -0.540 -0.1325  0.8696 -0.1412
  416MOL0     H56143   8.322   8.317  -0.461  0.1127  2.7447  1.4502
  416MOL0     H56144   8.554   7.968  -0.112  2.7506 -1.2681  0.2762
  416MOL0     H56145   8.592   7.738  -0.049 -0.1775 -4.0661 -0.2488
  416MOL0     H56146   9.356   6.349   0.812 -0.5267 -0.8023 -0.1234
  416MOL0     H56147   9.413   6.446   1.027  2.1570  0.1369 -2.0129
  416MOL0     H56148   9.205   7.000   1.328 -0.0335  0.2172 -0.7581
  416MOL0     H56149   9.310   7.067   1.551  0.4044 -1.8329  2.3861
  416MOL0     H56150   9.692   6.891   1.635 -1.3613  1.0157 -0.5251
  416MOL0     H56151   9.688   6.993   1.764 -0.1135  1.3298 -1.4213
  416MOL0     H56152   9.689   6.750   1.828 -0.5475 -1.3275  4.4221
  416MOL0     H56153   9.533   6.725   1.746  0.9346  0.0666  0.3296
  416MOL0     H56154   9.542   6.729   2.001  0.4495  1.3878  1.8005
  416MOL0     H56155   9.418   6.838   1.932 -0.3080  1.2972  0.8536
  416MOL0     H56156   9.530   7.026   1.970  1.4117 -0.2631 -1.5333
  416MOL0     H56157   9.684   6.952   2.011 -0.2596 -0.8934  1.5898
  416MOL0     H56158   9.411   6.954   2.349 -0.2316  1.4250  0.3214
  416MOL0     H56159   9.590   6.755   1.508 -1.1539 -0.1753 -0.3532
  416MOL0     H56160   9.475   6.674   1.311  1.3822 -1.4346  3.4216
  417MOL0     O56161   0.823   6.566   7.329 -0.7746  0.2386 -0.2662
  417MOL0     C56162   0.860   6.453   7.287 -0.5163 -0.1123 -0.1104
  417MOL0     O56163   0.919   6.415   7.167 -0.5158  0.8001 -0.0414
  417MOL0     C56164   0.951   6.525   7.092 -0.3749  0.0235 -1.1788
  417MOL0     C56165   0.908   6.537   6.963 -0.6245  0.3308  0.5746
  417MOL0     C56166   0.946   6.638   6.883  0.1592 -0.4723  0.4279
  417MOL0     C56167   1.044   6.730   6.927  0.3270  0.1694 -0.2958
  417MOL0     O56168   1.090   6.836   6.849 -0.2274  0.4126 -0.2327
  417MOL0     C56169   1.011   6.951   6.850  0.2945  0.8861  0.0794
  417MOL0     C56170   0.925   6.944   6.733 -0.7796  0.2341 -0.3952
  417MOL0     C56171   0.871   7.079   6.706  0.6585 -0.2365  0.2819
  417MOL0     C56172   0.752   7.071   6.619  0.5581  0.3474  0.1716
  417MOL0     C56173   0.701   7.212   6.601 -0.2287  0.3893 -0.5693
  417MOL0     C56174   0.598   7.230   6.490  0.8684 -0.8848 -0.0523
  417MOL0     C56175   0.455   7.191   6.530  0.4045  0.6574 -0.8059
  417MOL0     C56176   0.367   7.183   6.401 -0.7699  0.2059 -0.2253
  417MOL0     N56177   0.228   7.169   6.437 -0.1960  0.1152  0.1284
  417MOL0     C56178   0.128   7.251   6.404 -0.2557  0.1135  0.4158
  417MOL0     C56179   0.010   7.175   6.423  0.5317 -0.0329  0.8628
  417MOL0     C56180  -0.138   7.227   6.412 -0.3585 -0.7845  0.2722
  417MOL0     C56181  -0.176   7.312   6.284 -0.3441  0.9058 -0.5220
  417MOL0     C56182  -0.121   7.255   6.149 -0.0746 -0.1092  0.2466
  417MOL0     C56183  -0.158   7.116   6.121 -0.4352 -1.0679 -0.7736
  417MOL0     O56184  -0.107   7.079   6.000  0.1655  0.5596 -0.4535
  417MOL0     C56185   0.030   7.069   5.984  0.4271 -0.7225  0.5038
  417MOL0     C56186   0.086   7.097   5.865 -0.1528  0.1630 -0.0226
  417MOL0     C56187   0.221   7.092   5.831 -0.5075 -0.5502  0.2888
  417MOL0     C56188   0.269   7.096   5.684 -0.7037  0.3481 -1.6301
  417MOL0     C56189   0.316   7.066   5.935  0.5500  0.8085 -0.3490
  417MOL0     C56190   0.460   7.073   5.916 -0.5584 -0.0862  0.5699
  417MOL0     O56191   0.541   6.982   5.974  0.6603 -0.0292 -0.2029
  417MOL0     C56192   0.649   7.022   6.041  0.3026  0.4073 -0.1742
  417MOL0     C56193   0.691   6.921   6.134 -0.1670  0.6459  0.8003
  417MOL0     C56194   0.786   6.949   6.233  0.0323 -0.3288  0.0348
  417MOL0     C56195   0.836   7.077   6.246 -0.2506 -0.6905 -0.4616
  417MOL0     O56196   0.923   7.101   6.353 -0.7934 -0.2869  0.2391
  417MOL0     C56197   1.018   7.205   6.327  0.3416 -0.4453 -0.4329
  417MOL0     C56198   1.123   7.204   6.443 -0.9063  0.7412  0.9514
  417MOL0     C56199   1.225   7.327   6.427  0.3503 -0.3516  0.8409
  417MOL0     C56200   1.297   7.345   6.290 -0.1946  0.4266 -0.4349
  417MOL0     C56201   1.348   7.479   6.264 -0.2674 -0.7584 -0.7799
  417MOL0     C56202   1.459   7.513   6.366  0.0119 -0.0879  0.0219
  417MOL0     C56203   1.591   7.445   6.337  0.3896  0.0129 -0.1337
  417MOL0     C56204   1.709   7.501   6.405 -0.8590  0.2598 -0.3054
  417MOL0    Cl56205   1.751   7.667   6.356  0.0020  0.2789 -0.1422
  417MOL0     C56206   0.795   7.178   6.148 -0.0991 -0.0972 -0.1398
  417MOL0     C56207   0.694   7.156   6.056 -0.6107 -0.1242  0.0699
  417MOL0     O56208   0.508   7.163   5.838 -0.5494  0.1647  0.6320
  417MOL0     C56209   0.260   7.024   6.057 -0.5855  0.1056 -0.1352
  417MOL0     C56210   0.116   7.030   6.079 -0.5635 -0.2896 -1.1358
  417MOL0     N56211   0.045   7.049   6.462 -0.2169 -0.9540 -0.4844
  417MOL0     N56212   0.171   7.049   6.468 -0.4525  0.7292  0.2094
  417MOL0     C56213   1.084   6.725   7.061 -0.3890  0.5793  0.2558
  417MOL0     C56214   1.040   6.622   7.138  0.1168 -0.4665 -0.1056
  417MOL0     C56215   0.850   6.333   7.375 -0.4980 -0.0033 -1.1185
  417MOL0     C56216   0.898   6.201   7.331  0.6110 -0.0209  0.2225
  417MOL0     C56217   0.865   6.090   7.401 -0.5836  0.1348 -0.2498
  417MOL0     C56218   0.795   6.112   7.522 -0.4473  0.6411  0.1675
  417MOL0     O56219   0.755   6.001   7.598  0.4195  0.3591 -0.1515
  417MOL0     C56220   0.788   5.865   7.556 -0.1585  0.8159 -0.5350
  417MOL0     C56221   0.724   5.757   7.654  0.1911  0.3821  0.1956
  417MOL0     C56222   0.735   5.610   7.613  0.4110 -0.4187  0.3210
  417MOL0     C56223   0.876   5.560   7.619 -0.1736 -0.0242  0.0650
  417MOL0     C56224   0.886   5.435   7.545  0.6480 -0.1112  0.1180
  417MOL0     C56225   0.905   5.343   7.459  0.8067  0.3192  1.4608
  417MOL0     C56226   0.770   6.236   7.574 -0.0494 -0.2595 -0.9682
  417MOL0     C56227   0.795   6.344   7.501 -1.2839 -0.3140 -0.1355
  417MOL0     H56228   0.840   6.461   6.924 -1.9203  1.0605  1.3453
  417MOL0     H56229   0.918   6.649   6.779  3.4487  1.0141 -0.4502
  417MOL0     H56230   0.944   6.968   6.935  2.0339  1.2613  1.4410
  417MOL0     H56231   1.074   7.040   6.847  0.5592  0.7475  1.0797
  417MOL0     H56232   0.981   6.915   6.643 -1.9670 -1.2008 -0.7176
  417MOL0     H56233   0.846   6.873   6.758  0.0990 -0.7282 -0.3008
  417MOL0     H56234   0.832   7.113   6.802  3.7515  2.5277  0.7160
  417MOL0     H56235   0.944   7.150   6.666  0.7340  0.2020  1.1714
  417MOL0     H56236   0.757   7.028   6.518 -0.6855  0.2580  0.1206
  417MOL0     H56237   0.679   7.018   6.681 -0.0180 -0.3680 -1.0741
  417MOL0     H56238   0.653   7.254   6.690  0.5195  0.6940 -0.3025
  417MOL0     H56239   0.778   7.282   6.569  0.7294  0.1303  1.0742
  417MOL0     H56240   0.586   7.337   6.471  0.3257 -1.0887 -0.9166
  417MOL0     H56241   0.624   7.165   6.407  1.4638 -0.3853 -0.2628
  417MOL0     H56242   0.461   7.102   6.593  0.9734  0.5797 -0.9579
  417MOL0     H56243   0.417   7.274   6.590  0.8757  0.1230  0.2652
  417MOL0     H56244   0.403   7.101   6.339  0.6784  0.8033 -0.2131
  417MOL0     H56245   0.358   7.270   6.335 -3.7019  0.4859  0.4339
  417MOL0     H56246   0.144   7.349   6.361 -2.2788  1.0347  1.6040
  417MOL0     H56247  -0.196   7.134   6.409 -0.8528 -0.4490 -0.8607
  417MOL0     H56248  -0.157   7.284   6.504 -1.4931 -0.9270  0.1392
  417MOL0     H56249  -0.133   7.412   6.299  2.3644 -0.4780  2.0114
  417MOL0     H56250  -0.285   7.324   6.281 -0.2423  1.8378 -1.0398
  417MOL0     H56251  -0.013   7.271   6.147 -0.1790  0.5640 -1.0866
  417MOL0     H56252  -0.164   7.304   6.061 -0.9879 -3.3491 -1.2908
  417MOL0     H56253  -0.266   7.111   6.132 -0.3431  0.2665  1.2400
  417MOL0     H56254  -0.125   7.051   6.202  2.0733 -1.3724 -1.9444
  417MOL0     H56255   0.025   7.128   5.780  2.1959  1.6428 -1.2822
  417MOL0     H56256   0.332   7.183   5.662 -0.7594  0.4828 -1.2765
  417MOL0     H56257   0.332   7.008   5.672 -2.2031 -1.1784  0.7858
  417MOL0     H56258   0.183   7.100   5.616  0.9683  1.5449 -3.7834
  417MOL0     H56259   0.646   6.822   6.140 -0.6762  0.8817  0.9798
  417MOL0     H56260   0.818   6.865   6.294  0.4740 -1.2708 -1.4472
  417MOL0     H56261   1.067   7.170   6.236  1.4067 -5.0852  1.6315
  417MOL0     H56262   0.972   7.304   6.330  1.9183  0.3007  2.2653
  417MOL0     H56263   1.068   7.225   6.535  0.2575  0.4199  1.7415
  417MOL0     H56264   1.185   7.114   6.438 -0.4781  0.9853 -4.7485
  417MOL0     H56265   1.292   7.316   6.513  1.2976  1.8937  0.4666
  417MOL0     H56266   1.162   7.415   6.437  0.9704  0.1907  0.1284
  417MOL0     H56267   1.373   7.267   6.298 -3.4907 -3.1102 -0.4941
  417MOL0     H56268   1.225   7.313   6.214 -0.9887 -0.9579  0.8400
  417MOL0     H56269   1.259   7.541   6.272 -0.9160 -0.9878 -4.5231
  417MOL0     H56270   1.392   7.481   6.164  0.2618  1.3294 -0.5579
  417MOL0     H56271   1.478   7.618   6.343  0.0175 -0.7232 -3.4932
  417MOL0     H56272   1.425   7.499   6.469 -4.3452 -1.1967 -1.3409
  417MOL0     H56273   1.616   7.426   6.232 -0.6675 -0.3329 -0.3341
  417MOL0     H56274   1.600   7.344   6.377  0.0136 -0.4528 -1.1608
  417MOL0     H56275   1.798   7.440   6.394 -2.1164 -2.2155  2.1230
  417MOL0     H56276   1.696   7.486   6.513 -2.7194  2.3053 -0.1587
  417MOL0     H56277   0.813   7.284   6.165  4.8268 -0.8189  0.4872
  417MOL0     H56278   0.662   7.246   6.004 -0.6981  0.4194  1.0289
  417MOL0     H56279   0.331   6.987   6.130 -0.4442 -0.5183 -0.5752
  417MOL0     H56280   0.083   6.979   6.169 -1.2194 -1.8630 -2.2240
  417MOL0     H56281   1.156   6.803   7.085  0.1196  0.8334 -1.9293
  417MOL0     H56282   1.079   6.613   7.239 -0.5191  0.9348  0.2841
  417MOL0     H56283   0.954   6.183   7.240  0.2949  2.0205 -0.4115
  417MOL0     H56284   0.894   5.992   7.363 -2.3883 -0.9467  0.9913
  417MOL0     H56285   0.740   5.840   7.461  0.4383 -1.2248 -0.3406
  417MOL0     H56286   0.896   5.858   7.546 -0.1607 -0.5432  0.1952
  417MOL0     H56287   0.616   5.772   7.660 -0.3518 -0.1212 -4.4602
  417MOL0     H56288   0.767   5.771   7.754  4.3406 -3.6520 -0.6998
  417MOL0     H56289   0.695   5.595   7.512 -2.0847  0.3299  1.1189
  417MOL0     H56290   0.670   5.546   7.674  0.4302 -0.5320  0.2242
  417MOL0     H56291   0.910   5.549   7.722  3.1187 -5.1184 -1.1847
  417MOL0     H56292   0.942   5.637   7.577  0.1612  1.1565  2.5874
  417MOL0     H56293   0.924   5.274   7.379  0.1037  0.1385  1.4372
  417MOL0     H56294   0.729   6.247   7.674  2.5325  0.8666  0.0583
  417MOL0     H56295   0.794   6.448   7.532  0.5619 -0.1706 -0.4415
  418MOL0     O56296   8.969   0.915   2.786 -1.3016 -0.8607 -0.1769
  418MOL0     C56297   9.005   0.811   2.833 -0.3402  0.5322 -1.4214
  418MOL0     O56298   8.928   0.697   2.855  0.8479 -0.5624  0.3854
  418MOL0     C56299   8.805   0.716   2.804 -0.0895 -0.0484  0.2951
  418MOL0     C56300   8.769   0.651   2.686  0.5237 -0.2397  0.3787
  418MOL0     C56301   8.639   0.663   2.643  0.6317  0.3540  0.3780
  418MOL0     C56302   8.539   0.737   2.710 -0.2556 -0.3927  0.2126
  418MOL0     O56303   8.408   0.756   2.667  0.3277  0.1645 -0.3910
  418MOL0     C56304   8.360   0.704   2.541 -1.2024  0.7016 -0.6448
  418MOL0     C56305   8.234   0.773   2.519 -0.3032  0.0412 -0.1175
  418MOL0     C56306   8.203   0.765   2.367 -0.2848  0.0611  0.3196
  418MOL0     C56307   8.077   0.832   2.309  0.3178 -0.1125 -1.1016
  418MOL0     C56308   8.049   0.773   2.172  0.0757  0.0343  0.1225
  418MOL0     C56309   7.974   0.873   2.087  0.2851 -0.2337 -0.2282
  418MOL0     C56310   7.893   0.823   1.958 -0.0124 -0.1580  0.8639
  418MOL0     C56311   7.811   0.696   1.979  0.3512  0.5769  0.0367
  418MOL0     N56312   7.734   0.642   1.863 -0.8182  0.3226  0.0388
  418MOL0     C56313   7.788   0.631   1.741  0.5311  0.6196 -0.2991
  418MOL0     C56314   7.679   0.597   1.666  0.3305  0.6096 -0.5307
  418MOL0     C56315   7.674   0.571   1.513  0.8591 -0.4699  0.1018
  418MOL0     C56316   7.806   0.517   1.460 -0.0694  1.2697 -0.5119
  418MOL0     C56317   7.783   0.447   1.322 -0.3310  0.4809  0.0340
  418MOL0     C56318   7.928   0.411   1.271  0.0766  0.2132  0.6476
  418MOL0     O56319   7.987   0.534   1.228 -1.2783 -0.1744  0.3447
  418MOL0     C56320   8.006   0.548   1.092  0.3452 -0.2360  0.3155
  418MOL0     C56321   8.137   0.558   1.040  1.5222 -0.7726  0.9445
  418MOL0     C56322   8.166   0.560   0.902 -0.2324  0.0459 -0.2157
  418MOL0     C56323   8.308   0.576   0.860  0.1080  1.1163 -0.0580
  418MOL0     C56324   8.052   0.557   0.821  0.3256  0.1197 -0.4026
  418MOL0     C56325   8.064   0.577   0.673  0.7569  0.9374  0.1752
  418MOL0     O56326   8.135   0.683   0.630  0.1275  0.1102  0.1210
  418MOL0     C56327   8.139   0.712   0.492 -0.5147 -0.0430  0.4364
  418MOL0     C56328   8.050   0.808   0.441  0.5657 -0.6058  0.3664
  418MOL0     C56329   8.060   0.846   0.309 -0.0801  0.0208  0.7383
  418MOL0     C56330   8.140   0.777   0.219  0.0749 -0.0828 -0.0625
  418MOL0     O56331   8.143   0.829   0.095  0.8529 -0.0579  0.4799
  418MOL0     C56332   8.208   0.774  -0.023  0.8335 -0.5172  0.2256
  418MOL0     C56333   8.338   0.861  -0.052  0.1521  0.7472  0.1873
  418MOL0     C56334   8.371   0.843  -0.204 -0.4490 -0.7573  0.0116
  418MOL0     C56335   8.281   0.955  -0.284 -0.1530 -0.1458 -0.8049
  418MOL0     C56336   8.361   0.985  -0.427  1.0783 -0.2906 -0.9362
  418MOL0     C56337   8.334   0.867  -0.533 -0.3244 -0.3805 -0.6671
  418MOL0     C56338   8.406   0.889  -0.671  0.0211  0.0189 -0.0051
  418MOL0     C56339   8.356   0.784  -0.766 -0.7781 -0.3730  0.4211
  418MOL0    Cl56340   8.453   0.639  -0.715  0.3952 -0.6066 -0.0868
  418MOL0     C56341   8.228   0.677   0.274  0.0368 -0.0967 -0.5037
  418MOL0     C56342   8.236   0.644   0.413  0.5883  0.3297  0.7872
  418MOL0     O56343   7.994   0.505   0.606 -0.8353  1.1296  0.0864
  418MOL0     C56344   7.922   0.529   0.875 -0.3896 -0.3517  0.3946
  418MOL0     C56345   7.894   0.535   1.005 -0.0932  1.1804 -0.8626
  418MOL0     N56346   7.568   0.589   1.750 -0.6212 -0.2210  0.4861
  418MOL0     N56347   7.605   0.620   1.870 -0.1834  0.0397 -0.3057
  418MOL0     C56348   8.580   0.815   2.824  0.7597  0.0757  0.3668
  418MOL0     C56349   8.709   0.805   2.866 -0.9359  1.1594  0.4537
  418MOL0     C56350   9.147   0.810   2.869  0.2718  0.9381 -0.3257
  418MOL0     C56351   9.210   0.684   2.869 -0.7107 -0.3543  0.2373
  418MOL0     C56352   9.345   0.662   2.908  0.3603 -0.6026  0.0076
  418MOL0     C56353   9.413   0.775   2.961 -0.4762 -0.8455  0.0370
  418MOL0     O56354   9.546   0.777   3.007  0.2585  0.5194 -0.3396
  418MOL0     C56355   9.641   0.747   2.906  0.3340 -1.0225 -0.7268
  418MOL0     C56356   9.785   0.761   2.958 -0.7113  0.1293  0.1340
  418MOL0     C56357   9.845   0.901   2.941  0.1968 -0.2050 -0.4127
  418MOL0     C56358   9.939   0.957   3.049 -0.0147  0.8317 -0.0663
  418MOL0     C56359   9.892   0.956   3.190 -1.3583 -0.9550  0.1618
  418MOL0     C56360   9.846   0.946   3.296 -0.3488 -1.0838  0.1906
  418MOL0     C56361   9.347   0.899   2.958 -0.4484  0.4602 -1.1009
  418MOL0     C56362   9.216   0.918   2.917 -0.4873 -0.8147 -0.7975
  418MOL0     H56363   8.842   0.584   2.642  2.4137  0.7932  1.8325
  418MOL0     H56364   8.605   0.600   2.562 -0.4454  0.9554  0.3405
  418MOL0     H56365   8.440   0.725   2.469  3.0245 -1.0938  3.0719
  418MOL0     H56366   8.341   0.596   2.543 -4.2139  1.1504  0.9199
  418MOL0     H56367   8.160   0.724   2.582  2.8815 -1.1012  3.1094
  418MOL0     H56368   8.253   0.879   2.537  1.1139 -0.2481  0.2219
  418MOL0     H56369   8.294   0.800   2.318 -1.1180  0.0882 -1.2832
  418MOL0     H56370   8.206   0.657   2.345  0.6764 -0.0276  0.8466
  418MOL0     H56371   7.993   0.812   2.377  0.4476 -2.2572 -1.5028
  418MOL0     H56372   8.088   0.941   2.302 -0.1092  0.0433  0.3344
  418MOL0     H56373   8.142   0.751   2.118 -0.1871  0.2379 -0.4202
  418MOL0     H56374   7.999   0.676   2.182  3.8804 -2.3358 -1.4668
  418MOL0     H56375   7.890   0.919   2.139 -3.1652 -2.0596 -3.6069
  418MOL0     H56376   8.051   0.946   2.065  1.7215 -2.2206 -2.2494
  418MOL0     H56377   7.848   0.908   1.907  1.4961  0.7029  0.9088
  418MOL0     H56378   7.975   0.797   1.891  0.4809  1.8328  0.6474
  418MOL0     H56379   7.736   0.708   2.057  3.2736 -2.1843  3.6341
  418MOL0     H56380   7.878   0.614   2.007 -1.8358 -0.9830  1.0027
  418MOL0     H56381   7.889   0.638   1.702  0.9545 -3.3195 -0.3679
  418MOL0     H56382   7.595   0.498   1.495  2.8443 -2.8553  0.5192
  418MOL0     H56383   7.657   0.664   1.457  2.6933 -2.0353 -3.3305
  418MOL0     H56384   7.845   0.436   1.523 -0.1947  1.5441 -0.0777
  418MOL0     H56385   7.873   0.603   1.452 -0.2220  1.2188 -3.3183
  418MOL0     H56386   7.728   0.516   1.257  0.0061 -1.7790 -2.8609
  418MOL0     H56387   7.720   0.358   1.335 -2.6624  1.7978 -1.5197
  418MOL0     H56388   7.914   0.342   1.187  0.1444  2.8909 -1.6730
  418MOL0     H56389   7.983   0.366   1.355  1.9294  1.6791  0.2930
  418MOL0     H56390   8.214   0.570   1.115  2.5309 -1.8617  0.1283
  418MOL0     H56391   8.324   0.681   0.833 -0.0473  1.2301  0.2954
  418MOL0     H56392   8.361   0.546   0.950 -0.6745  1.5117  0.5439
  418MOL0     H56393   8.346   0.504   0.787 -1.4285  0.2405 -0.0508
  418MOL0     H56394   7.989   0.856   0.516 -0.0889 -2.2229  0.8982
  418MOL0     H56395   8.005   0.933   0.273 -2.7366 -2.4193 -1.5674
  418MOL0     H56396   8.222   0.666  -0.016  1.8128 -0.3122  3.5845
  418MOL0     H56397   8.133   0.786  -0.101  1.8604 -1.8746 -1.0322
  418MOL0     H56398   8.329   0.966  -0.022 -0.5302  0.4028  1.2639
  418MOL0     H56399   8.414   0.819   0.014  1.9706  1.8671 -1.1109
  418MOL0     H56400   8.350   0.742  -0.239  1.1483 -1.2180  0.2831
  418MOL0     H56401   8.478   0.841  -0.229 -0.5360  0.3270 -0.5234
  418MOL0     H56402   8.178   0.927  -0.308 -0.9725  1.1844  0.9300
  418MOL0     H56403   8.280   1.054  -0.237  1.0480 -0.0333 -0.9744
  418MOL0     H56404   8.465   1.003  -0.399  0.2188  3.4354  0.3446
  418MOL0     H56405   8.321   1.074  -0.476 -3.0981 -1.5116 -0.2115
  418MOL0     H56406   8.356   0.776  -0.476 -0.2457  1.7252  2.9885
  418MOL0     H56407   8.227   0.869  -0.555 -1.3719  0.0027  3.5399
  418MOL0     H56408   8.515   0.898  -0.676 -0.1311  1.5632 -2.3298
  418MOL0     H56409   8.380   0.992  -0.698  0.6308  0.6489  1.6785
  418MOL0     H56410   8.379   0.817  -0.867 -1.7471  2.3717  1.0302
  418MOL0     H56411   8.250   0.756  -0.763 -0.6130 -1.0899 -0.1076
  418MOL0     H56412   8.301   0.621   0.217  0.3861 -1.7169  1.4221
  418MOL0     H56413   8.294   0.566   0.461  0.8776 -0.7944 -1.2471
  418MOL0     H56414   7.838   0.521   0.807  0.8395 -0.3687 -1.1863
  418MOL0     H56415   7.800   0.505   1.050  1.0913 -1.9261 -0.2649
  418MOL0     H56416   8.520   0.884   2.882 -0.5602  0.0977 -0.9736
  418MOL0     H56417   8.735   0.855   2.958  1.0801 -0.3256  0.7434
  418MOL0     H56418   9.162   0.591   2.844  1.9331 -1.5356 -0.7901
  418MOL0     H56419   9.385   0.563   2.925 -0.6585 -0.5197  3.9816
  418MOL0     H56420   9.610   0.647   2.873  0.3069 -1.6228  0.9747
  418MOL0     H56421   9.624   0.813   2.821 -3.3918 -0.7288  0.0678
  418MOL0     H56422   9.855   0.698   2.903  0.8922  0.5125  1.6473
  418MOL0     H56423   9.786   0.734   3.064 -2.5013  0.5053  0.2783
  418MOL0     H56424   9.769   0.977   2.921 -0.5569 -1.2426 -1.6016
  418MOL0     H56425   9.892   0.902   2.843 -2.4391  1.7022 -1.8078
  418MOL0     H56426   9.972   1.056   3.013 -1.5297  0.7466 -1.8441
  418MOL0     H56427  10.027   0.893   3.044  0.9266  2.0535  0.1741
  418MOL0     H56428   9.801   0.952   3.393  0.1778  1.8146  0.3311
  418MOL0     H56429   9.421   0.972   2.987 -0.9024  0.1142  1.0904
  418MOL0     H56430   9.175   1.018   2.931 -2.0459 -1.7579  2.2747
  419MOL0     O56431   1.013   6.261   9.024 -0.2511  0.3415 -0.0013
  419MOL0     C56432   1.129   6.286   9.059 -0.1217  0.1487  0.0014
  419MOL0     O56433   1.231   6.199   9.061  0.4568 -0.1311 -0.1861
  419MOL0     C56434   1.212   6.092   8.989  0.3386 -0.2625  0.8577
  419MOL0     C56435   1.135   5.985   9.044  0.2043 -1.0837 -0.4394
  419MOL0     C56436   1.097   5.871   8.963  0.2725 -0.1133  0.2790
  419MOL0     C56437   1.136   5.866   8.826  0.2540  0.1079  0.0651
  419MOL0     O56438   1.122   5.748   8.754 -0.6889  0.0851 -0.4422
  419MOL0     C56439   1.144   5.759   8.613 -0.4325 -0.1987 -0.1450
  419MOL0     C56440   1.076   5.636   8.556 -1.1544  0.2906  0.3990
  419MOL0     C56441   1.118   5.602   8.410 -0.5485  0.5856  0.0290
  419MOL0     C56442   1.219   5.479   8.415 -0.4075 -0.9113 -0.0935
  419MOL0     C56443   1.148   5.349   8.447 -0.1297 -0.6867  0.9411
  419MOL0     C56444   1.233   5.242   8.510  0.1491 -0.1162 -0.1534
  419MOL0     C56445   1.330   5.176   8.415  0.3913  0.1693  0.4758
  419MOL0     C56446   1.449   5.101   8.477 -0.6855  0.7260 -1.0009
  419MOL0     N56447   1.547   5.195   8.541 -1.0406  0.4033  1.1266
  419MOL0     C56448   1.658   5.253   8.475  0.9031  0.6085  0.2946
  419MOL0     C56449   1.711   5.340   8.566 -1.1110 -0.5254 -0.8677
  419MOL0     C56450   1.819   5.445   8.536  0.9562  0.0348  0.5498
  419MOL0     C56451   1.763   5.593   8.529 -0.2862 -0.6119 -0.4551
  419MOL0     C56452   1.817   5.653   8.404 -0.2300  1.2835 -1.0345
  419MOL0     C56453   1.781   5.802   8.401 -0.0110  0.3657 -0.1036
  419MOL0     O56454   1.640   5.820   8.389  0.0500  0.0465 -0.4567
  419MOL0     C56455   1.593   5.932   8.336 -0.1522  0.3246  0.7617
  419MOL0     C56456   1.453   5.944   8.327  0.2845  0.2087  0.4056
  419MOL0     C56457   1.384   6.061   8.280 -0.0906  0.5887 -0.2468
  419MOL0     C56458   1.229   6.058   8.283  0.2161 -0.4179 -0.0422
  419MOL0     C56459   1.461   6.175   8.239 -0.7637 -0.6764 -1.0501
  419MOL0     C56460   1.416   6.313   8.215  1.3432 -0.3993  0.6573
  419MOL0     O56461   1.476   6.391   8.129 -0.8808  1.0383 -0.7987
  419MOL0     C56462   1.431   6.513   8.108  0.5042 -0.1324  0.0056
  419MOL0     C56463   1.477   6.622   8.179 -0.5394 -0.4159 -0.0485
  419MOL0     C56464   1.457   6.762   8.140  0.5396 -0.0066  0.1481
  419MOL0     C56465   1.372   6.783   8.027 -0.7963 -0.3823  0.5882
  419MOL0     O56466   1.328   6.902   7.992  0.0567 -0.5588 -0.4163
  419MOL0     C56467   1.199   6.924   8.038  0.0020  0.1509 -1.1771
  419MOL0     C56468   1.166   7.068   8.006  0.6572 -0.1503 -0.6934
  419MOL0     C56469   1.183   7.105   7.860 -0.5547  0.7187  0.5985
  419MOL0     C56470   1.050   7.116   7.776 -0.5770  0.9163  0.4736
  419MOL0     C56471   1.057   7.044   7.638  0.2374  0.0708 -0.9971
  419MOL0     C56472   1.058   6.888   7.672  0.1149  0.3107 -0.3273
  419MOL0     C56473   1.015   6.802   7.553 -0.3307  0.1886 -0.5474
  419MOL0     C56474   1.119   6.806   7.436  0.7777 -0.2803 -0.4975
  419MOL0    Cl56475   1.256   6.693   7.481  0.3587  0.0768 -0.1375
  419MOL0     C56476   1.326   6.673   7.958 -0.3243 -0.1699  0.2860
  419MOL0     C56477   1.354   6.541   7.994  0.0448 -0.5857  0.8037
  419MOL0     O56478   1.327   6.360   8.286 -0.7250  0.2398 -0.0439
  419MOL0     C56479   1.607   6.152   8.230  0.5971 -0.1698 -0.0126
  419MOL0     C56480   1.668   6.035   8.277  0.3280  0.3791  0.1104
  419MOL0     N56481   1.623   5.342   8.675 -0.2500 -0.1769 -0.3255
  419MOL0     N56482   1.539   5.254   8.664  0.9043 -0.7102 -0.2035
  419MOL0     C56483   1.199   5.977   8.782 -0.5712 -0.2697  0.8599
  419MOL0     C56484   1.243   6.086   8.858  0.6982  0.8304  0.6036
  419MOL0     C56485   1.175   6.418   9.105  0.8989 -0.0905 -0.3250
  419MOL0     C56486   1.088   6.492   9.187  0.3798 -0.6330 -0.9596
  419MOL0     C56487   1.122   6.624   9.216  0.4972  0.2547 -0.1543
  419MOL0     C56488   1.233   6.687   9.164  0.1070  0.2496  0.4589
  419MOL0     O56489   1.268   6.819   9.182 -0.0371  0.0475  0.4475
  419MOL0     C56490   1.259   6.864   9.317 -0.2031 -0.3783  0.0817
  419MOL0     C56491   1.391   6.931   9.352  0.6454 -0.3006 -0.4177
  419MOL0     C56492   1.387   6.981   9.500  0.9041  0.6426  0.5607
  419MOL0     C56493   1.501   7.059   9.553 -0.8954  0.0981  0.6414
  419MOL0     C56494   1.506   7.188   9.476  0.1402 -0.0417 -0.7851
  419MOL0     C56495   1.513   7.294   9.424  0.8243 -0.3229 -0.1966
  419MOL0     C56496   1.328   6.607   9.101  0.4412 -0.4512  0.4290
  419MOL0     C56497   1.300   6.470   9.071 -0.4964 -0.3809 -0.2770
  419MOL0     H56498   1.107   5.991   9.148 -2.5409 -0.8045 -1.0917
  419MOL0     H56499   1.046   5.793   9.019 -2.8672  1.8986  0.4559
  419MOL0     H56500   1.101   5.851   8.572  0.6761 -0.7549 -2.7587
  419MOL0     H56501   1.252   5.762   8.593 -0.2899  0.6929  0.6525
  419MOL0     H56502   1.118   5.556   8.618 -0.3640  1.1415  0.9924
  419MOL0     H56503   0.968   5.640   8.573 -1.4220 -1.5339 -0.5719
  419MOL0     H56504   1.039   5.576   8.339  0.4325 -0.4801 -0.7191
  419MOL0     H56505   1.166   5.688   8.363 -0.0245 -0.2545 -1.0209
  419MOL0     H56506   1.259   5.469   8.314 -1.7302 -0.8353 -0.6345
  419MOL0     H56507   1.305   5.508   8.477 -0.1477 -0.6399 -0.5808
  419MOL0     H56508   1.068   5.361   8.521 -0.3805 -0.0993  0.5793
  419MOL0     H56509   1.100   5.303   8.360  0.0107 -0.2164  0.6124
  419MOL0     H56510   1.287   5.288   8.593  0.3600 -1.1553  0.2922
  419MOL0     H56511   1.167   5.162   8.544  0.9894 -1.4791 -1.6270
  419MOL0     H56512   1.278   5.100   8.355 -2.0533  2.5236 -0.5883
  419MOL0     H56513   1.371   5.252   8.348 -0.3311  0.6961  0.6152
  419MOL0     H56514   1.492   5.031   8.405  0.1249  0.3565 -0.1798
  419MOL0     H56515   1.415   5.043   8.563 -1.1266  0.9910 -0.9925
  419MOL0     H56516   1.679   5.242   8.369 -3.3826  0.2659 -0.7026
  419MOL0     H56517   1.905   5.437   8.603  2.7719 -2.3980 -1.8537
  419MOL0     H56518   1.853   5.418   8.436 -3.7568  2.8220 -2.1588
  419MOL0     H56519   1.793   5.652   8.616  5.6011  1.2411 -3.2129
  419MOL0     H56520   1.655   5.584   8.540 -0.1356 -0.3306  1.6326
  419MOL0     H56521   1.775   5.613   8.311  1.1376  0.7118 -1.4377
  419MOL0     H56522   1.924   5.631   8.404 -0.4156 -0.9570  3.6412
  419MOL0     H56523   1.831   5.843   8.313  0.0069 -0.9419 -0.7280
  419MOL0     H56524   1.818   5.851   8.491 -0.8500  1.6736 -0.4448
  419MOL0     H56525   1.382   5.868   8.361  0.4813  0.7657  2.1922
  419MOL0     H56526   1.192   6.151   8.328  1.3477  1.5574 -2.9729
  419MOL0     H56527   1.190   6.056   8.181  1.6730  0.7773 -0.6555
  419MOL0     H56528   1.183   5.984   8.350 -2.2575  0.1666 -0.9978
  419MOL0     H56529   1.545   6.602   8.261  0.4520 -0.1676 -0.7901
  419MOL0     H56530   1.511   6.842   8.190  1.6543 -1.9987  2.2809
  419MOL0     H56531   1.136   6.873   7.965  0.8852  1.1579 -2.7011
  419MOL0     H56532   1.182   6.887   8.140  2.4275 -0.0186 -0.7736
  419MOL0     H56533   1.065   7.093   8.040  1.9201  3.6859  0.7680
  419MOL0     H56534   1.228   7.137   8.064  1.4276 -1.5263  0.1813
  419MOL0     H56535   1.243   7.028   7.811 -2.7448  0.4111 -1.8315
  419MOL0     H56536   1.239   7.199   7.863  0.0639  0.4340  5.3193
  419MOL0     H56537   0.973   7.071   7.840  0.7391 -1.9883  0.1679
  419MOL0     H56538   1.015   7.217   7.753  4.5181  2.3150 -2.8997
  419MOL0     H56539   1.147   7.087   7.594  0.9466 -2.1965 -1.9321
  419MOL0     H56540   0.964   7.072   7.589  1.1031  0.2037 -2.6318
  419MOL0     H56541   1.156   6.861   7.711 -0.4500  0.8571  1.5672
  419MOL0     H56542   0.987   6.879   7.754  0.9139 -0.1140  0.3287
  419MOL0     H56543   0.918   6.844   7.525 -1.2957 -2.3846 -1.3848
  419MOL0     H56544   0.986   6.699   7.574  4.3982 -0.7915  2.4310
  419MOL0     H56545   1.168   6.903   7.446  1.5297 -0.7802  1.0574
  419MOL0     H56546   1.071   6.777   7.343 -0.1859 -1.3172  0.2987
  419MOL0     H56547   1.255   6.692   7.879  0.5155 -3.8901 -1.5841
  419MOL0     H56548   1.322   6.456   7.936  1.7799 -1.7588  1.4854
  419MOL0     H56549   1.671   6.231   8.194  1.5149 -1.9834 -2.6355
  419MOL0     H56550   1.776   6.029   8.280  0.2630 -0.6615  2.0508
  419MOL0     H56551   1.225   5.993   8.678 -0.0400  1.9120  1.2788
  419MOL0     H56552   1.297   6.165   8.806  2.2423  0.4726  1.6330
  419MOL0     H56553   0.991   6.448   9.212  2.3639 -4.2288  1.2213
  419MOL0     H56554   1.056   6.688   9.273  0.1483 -0.5775  0.4006
  419MOL0     H56555   1.181   6.940   9.313  1.3544  1.2393 -1.9725
  419MOL0     H56556   1.244   6.783   9.389  0.2253 -0.6887 -0.1680
  419MOL0     H56557   1.405   7.018   9.288  1.7157  1.6865  2.3384
  419MOL0     H56558   1.465   6.852   9.340 -0.5589 -1.3325 -1.4325
  419MOL0     H56559   1.365   6.890   9.557  0.5040  1.1510  1.2315
  419MOL0     H56560   1.290   7.031   9.510 -0.8486 -2.1367 -1.0043
  419MOL0     H56561   1.591   7.001   9.534  0.3268  1.3147  2.3818
  419MOL0     H56562   1.485   7.082   9.659  2.1711  1.9499  0.8118
  419MOL0     H56563   1.525   7.386   9.371  1.5532  0.7114  1.6487
  419MOL0     H56564   1.422   6.650   9.071  2.2178 -2.7194  2.3330
  419MOL0     H56565   1.369   6.422   9.003  3.0655  1.7603  1.5538
  420MOL0     O56566   5.870   0.396   5.550  0.5432  0.2682 -0.1691
  420MOL0     C56567   5.755   0.393   5.548  0.9365 -0.0988  0.5220
  420MOL0     O56568   5.682   0.291   5.504 -0.2433  1.8068  0.0817
  420MOL0     C56569   5.725   0.172   5.449  0.4835  0.7553 -0.4576
  420MOL0     C56570   5.670   0.116   5.334 -0.1673 -1.1362 -0.1153
  420MOL0     C56571   5.708  -0.003   5.276  0.0631  0.3251 -0.4681
  420MOL0     C56572   5.810  -0.074   5.344  0.4401  0.6368 -0.1157
  420MOL0     O56573   5.829  -0.206   5.300 -0.3526 -0.5075 -0.2979
  420MOL0     C56574   5.904  -0.227   5.176  0.0162 -0.5364  0.0276
  420MOL0     C56575   6.060  -0.193   5.181  0.6433 -1.3957 -0.2411
  420MOL0     C56576   6.145  -0.248   5.077 -1.0682 -0.4055 -0.0196
  420MOL0     C56577   6.294  -0.226   5.111  0.5567 -0.4207  0.4572
  420MOL0     C56578   6.380  -0.267   4.988  0.0065 -0.1513 -0.3258
  420MOL0     C56579   6.379  -0.165   4.869 -0.8043 -0.5883 -0.1059
  420MOL0     C56580   6.489  -0.204   4.765 -0.2523 -0.3442  0.1863
  420MOL0     C56581   6.638  -0.169   4.798 -0.2873  0.8291  0.9180
  420MOL0     N56582   6.721  -0.174   4.680 -1.2559 -0.1360  0.1567
  420MOL0     C56583   6.758  -0.296   4.632 -0.0468 -0.6777 -0.3876
  420MOL0     C56584   6.819  -0.264   4.511 -0.7828 -0.5827 -0.1556
  420MOL0     C56585   6.876  -0.369   4.417  0.9994 -0.4910 -1.0842
  420MOL0     C56586   7.032  -0.349   4.406 -1.2448 -0.3112 -0.8858
  420MOL0     C56587   7.088  -0.419   4.285 -0.2761 -0.1936  0.3012
  420MOL0     C56588   7.244  -0.445   4.274 -0.5364 -0.4118 -0.6388
  420MOL0     O56589   7.267  -0.507   4.152  0.5679 -0.2723 -0.2105
  420MOL0     C56590   7.348  -0.447   4.068  0.4331  0.2563 -0.3609
  420MOL0     C56591   7.479  -0.491   4.028 -0.3560 -0.2034  0.7212
  420MOL0     C56592   7.547  -0.429   3.914 -0.2191  0.2153 -0.6446
  420MOL0     C56593   7.684  -0.498   3.866 -0.2206 -0.5383  0.3365
  420MOL0     C56594   7.493  -0.317   3.849 -0.5200  0.1927  0.6173
  420MOL0     C56595   7.552  -0.255   3.726 -0.7794  0.1267  1.0785
  420MOL0     O56596   7.473  -0.173   3.658 -0.3150 -0.6265 -0.1816
  420MOL0     C56597   7.510  -0.123   3.541 -0.3753 -0.0556 -0.2144
  420MOL0     C56598   7.484  -0.189   3.418 -0.2809  1.0625  0.1105
  420MOL0     C56599   7.514  -0.129   3.293  0.1758  1.2753  0.2112
  420MOL0     C56600   7.581  -0.003   3.287 -0.3227  0.2996  1.1183
  420MOL0     O56601   7.591   0.049   3.155  0.2242 -0.4769 -0.1352
  420MOL0     C56602   7.464   0.102   3.100  0.6932  0.0075  0.0236
  420MOL0     C56603   7.504   0.197   2.991 -0.3672 -0.3583  0.0229
  420MOL0     C56604   7.402   0.290   2.931  0.0131 -0.6867 -0.9622
  420MOL0     C56605   7.286   0.245   2.838  0.8047  0.5536 -0.6996
  420MOL0     C56606   7.180   0.353   2.814 -0.1598  0.0293 -0.5038
  420MOL0     C56607   7.226   0.491   2.781  0.5882  0.8449  0.3190
  420MOL0     C56608   7.108   0.576   2.724 -0.6436  0.3440  0.5393
  420MOL0     C56609   7.159   0.707   2.663 -0.1634 -0.9173 -0.2141
  420MOL0    Cl56610   7.259   0.673   2.521 -0.0511 -0.6735 -0.1960
  420MOL0     C56611   7.599   0.070   3.405 -0.2253 -0.8443 -0.7359
  420MOL0     C56612   7.566   0.010   3.527  0.1360 -0.6116 -0.0140
  420MOL0     O56613   7.663  -0.281   3.685  0.4533 -0.0219  0.4345
  420MOL0     C56614   7.360  -0.282   3.876 -0.0332 -0.5363 -0.5702
  420MOL0     C56615   7.294  -0.341   3.990 -0.6698 -0.9556 -0.6826
  420MOL0     N56616   6.813  -0.132   4.476 -0.3000 -0.5046  0.3069
  420MOL0     N56617   6.754  -0.078   4.580  0.2808 -0.8067 -0.3421
  420MOL0     C56618   5.872  -0.025   5.460 -0.3564 -0.3139  0.1452
  420MOL0     C56619   5.821   0.089   5.519  1.0970 -0.6919  0.0689
  420MOL0     C56620   5.682   0.513   5.592 -0.2535  0.8057 -0.0580
  420MOL0     C56621   5.545   0.503   5.620 -0.8590  0.5052 -1.7793
  420MOL0     C56622   5.472   0.614   5.673  0.0241 -0.0461 -0.7675
  420MOL0     C56623   5.530   0.734   5.701  0.1971  0.4251  0.3824
  420MOL0     O56624   5.467   0.849   5.740 -0.5475 -0.1752 -0.4730
  420MOL0     C56625   5.326   0.834   5.779  0.1879  0.4188  0.5687
  420MOL0     C56626   5.268   0.962   5.852  0.4934 -0.0485  0.2318
  420MOL0     C56627   5.120   0.945   5.899 -0.5993 -0.4241  0.6359
  420MOL0     C56628   5.020   0.942   5.777 -0.8672 -0.2898 -0.5574
  420MOL0     C56629   4.879   0.944   5.832 -0.3627 -0.1110  0.4334
  420MOL0     C56630   4.759   0.947   5.854 -0.0514  0.7285 -0.2377
  420MOL0     C56631   5.669   0.738   5.692  0.6607  0.0460 -0.1275
  420MOL0     C56632   5.744   0.633   5.628 -0.1823  0.2061  0.2899
  420MOL0     H56633   5.594   0.172   5.282  0.7901 -0.9523 -1.3462
  420MOL0     H56634   5.661  -0.033   5.184  0.7155  1.1390 -1.0875
  420MOL0     H56635   5.900  -0.329   5.137 -0.1773 -0.1420 -1.0043
  420MOL0     H56636   5.851  -0.181   5.093  0.6245  1.7665  0.8278
  420MOL0     H56637   6.073  -0.084   5.184  0.1055 -1.3438  1.0247
  420MOL0     H56638   6.101  -0.238   5.271  3.2530  3.4282  1.3635
  420MOL0     H56639   6.135  -0.357   5.079 -1.3631 -0.4433 -1.8253
  420MOL0     H56640   6.122  -0.203   4.980  0.2106  0.3942  0.0258
  420MOL0     H56641   6.329  -0.125   5.136  4.2122 -1.4319  0.0198
  420MOL0     H56642   6.322  -0.299   5.187 -0.0353 -2.0392 -0.8379
  420MOL0     H56643   6.487  -0.286   5.004  0.3787 -0.6977 -2.9720
  420MOL0     H56644   6.339  -0.362   4.950 -2.9270  0.6336  0.6146
  420MOL0     H56645   6.282  -0.166   4.818  0.8733  1.0335 -3.6877
  420MOL0     H56646   6.388  -0.062   4.905 -4.4277 -0.5219  1.0972
  420MOL0     H56647   6.481  -0.310   4.738  4.1451 -0.6549 -0.6004
  420MOL0     H56648   6.470  -0.145   4.675  0.2031  0.6442  0.7244
  420MOL0     H56649   6.686  -0.226   4.878  0.0973  0.6524  0.5627
  420MOL0     H56650   6.639  -0.067   4.837 -1.1718  0.8893  0.8049
  420MOL0     H56651   6.746  -0.392   4.680  1.0462 -2.6148 -3.6526
  420MOL0     H56652   6.854  -0.461   4.471  1.3538  1.2511  2.2824
  420MOL0     H56653   6.828  -0.360   4.319 -3.3604  2.5120  0.9991
  420MOL0     H56654   7.078  -0.394   4.495 -0.3035 -1.1668 -1.7729
  420MOL0     H56655   7.059  -0.243   4.409  1.4852 -0.8939  2.8907
  420MOL0     H56656   7.062  -0.365   4.194  1.6118 -1.8256 -1.2837
  420MOL0     H56657   7.024  -0.507   4.271 -1.6653  0.6495  1.0900
  420MOL0     H56658   7.274  -0.503   4.362 -2.3885 -0.1232  0.2495
  420MOL0     H56659   7.295  -0.348   4.275 -1.2228  0.0326  2.5621
  420MOL0     H56660   7.523  -0.572   4.085 -1.1761  0.0084  1.6769
  420MOL0     H56661   7.707  -0.590   3.920  3.5124 -0.1793 -0.3139
  420MOL0     H56662   7.673  -0.522   3.760 -0.4797  2.1399 -0.3059
  420MOL0     H56663   7.764  -0.433   3.902  0.1866 -1.1743  0.6123
  420MOL0     H56664   7.461  -0.292   3.443 -0.6420  1.3698  1.1046
  420MOL0     H56665   7.482  -0.176   3.201  0.7733  3.3803 -1.1545
  420MOL0     H56666   7.393   0.026   3.066 -2.0204  2.0265  0.8004
  420MOL0     H56667   7.419   0.164   3.178  2.4769  3.1616 -1.2896
  420MOL0     H56668   7.583   0.253   3.043 -0.3609 -2.0300  1.9320
  420MOL0     H56669   7.557   0.133   2.921  1.0083 -1.6905  2.1701
  420MOL0     H56670   7.460   0.366   2.878  1.3297 -0.7902  0.2833
  420MOL0     H56671   7.356   0.338   3.017  4.0312 -1.6460  2.0365
  420MOL0     H56672   7.330   0.213   2.743 -0.3368  0.8087 -1.3334
  420MOL0     H56673   7.253   0.145   2.867  3.6935 -1.0577 -2.4127
  420MOL0     H56674   7.115   0.359   2.902 -2.8651  0.3237 -2.4023
  420MOL0     H56675   7.118   0.316   2.732  0.4293 -0.8218 -0.5785
  420MOL0     H56676   7.273   0.542   2.865  1.2364  3.5770 -1.5741
  420MOL0     H56677   7.307   0.485   2.707  0.7888  1.3084  0.4987
  420MOL0     H56678   7.050   0.595   2.815 -1.5678 -0.0045  0.0399
  420MOL0     H56679   7.047   0.512   2.660  0.8348  0.9596 -1.5860
  420MOL0     H56680   7.219   0.767   2.732 -1.7537  2.0386 -1.2406
  420MOL0     H56681   7.085   0.776   2.621  2.5802  1.6222 -1.2269
  420MOL0     H56682   7.623   0.175   3.401  2.1516 -1.0050  3.6339
  420MOL0     H56683   7.583   0.075   3.613  3.2491 -1.8667  0.4460
  420MOL0     H56684   7.308  -0.208   3.817 -3.5925 -2.1670  0.2417
  420MOL0     H56685   7.193  -0.315   4.019  0.6693  1.6428  2.2426
  420MOL0     H56686   5.951  -0.085   5.504  1.1220  2.6752  1.8157
  420MOL0     H56687   5.868   0.121   5.611  1.1193  0.0484 -0.1913
  420MOL0     H56688   5.490   0.410   5.606 -0.2281 -0.7389  2.5439
  420MOL0     H56689   5.364   0.605   5.685 -0.3066  3.1627 -0.5778
  420MOL0     H56690   5.267   0.828   5.687  0.3383  0.3084  0.4806
  420MOL0     H56691   5.313   0.748   5.845 -2.1278  0.1454 -0.1496
  420MOL0     H56692   5.283   1.057   5.800 -0.1483  0.3980  0.8361
  420MOL0     H56693   5.321   0.959   5.948 -2.8786 -2.2876  2.2247
  420MOL0     H56694   5.094   1.032   5.960  1.4996  0.5694  0.1898
  420MOL0     H56695   5.116   0.859   5.967 -1.9524  1.2818  2.8223
  420MOL0     H56696   5.024   0.847   5.724 -2.0876 -0.0969 -1.0154
  420MOL0     H56697   5.027   1.033   5.716  1.4310  0.9132  1.3012
  420MOL0     H56698   4.658   0.926   5.883 -0.0090 -0.4607 -0.8939
  420MOL0     H56699   5.732   0.823   5.714  0.6379  0.1358 -0.4178
  420MOL0     H56700   5.849   0.653   5.608  0.0317  0.8907  1.9155
  421MOL0     O56701  10.311   9.445   0.703 -0.2251  0.1832  0.1636
  421MOL0     C56702  10.214   9.401   0.769  0.9622  1.5108  1.1806
  421MOL0     O56703  10.105   9.335   0.712  0.6111 -0.2303 -1.1337
  421MOL0     C56704  10.098   9.367   0.580  0.5439 -0.1500 -1.1603
  421MOL0     C56705  10.025   9.484   0.544  0.8260 -0.1711  0.0187
  421MOL0     C56706  10.012   9.516   0.406 -0.4080 -0.6874 -0.0305
  421MOL0     C56707  10.071   9.441   0.311  0.4715 -0.4126 -0.2856
  421MOL0     O56708  10.049   9.473   0.183  0.1167 -0.4620  0.3175
  421MOL0     C56709  10.151   9.473   0.085  0.1195  0.8405 -0.2613
  421MOL0     C56710  10.084   9.465  -0.058  0.3352 -0.9331  0.0625
  421MOL0     C56711   9.994   9.341  -0.075 -1.6156 -0.1193  0.3382
  421MOL0     C56712  10.056   9.209  -0.113 -0.7377  0.2535 -0.3174
  421MOL0     C56713   9.950   9.104  -0.164  0.7638  0.4377  0.8604
  421MOL0     C56714  10.016   8.962  -0.176 -0.6797  1.1424  0.2365
  421MOL0     C56715   9.932   8.856  -0.252 -0.1757 -0.3645  0.5226
  421MOL0     C56716   9.811   8.812  -0.171  0.5915  0.4460 -0.4245
  421MOL0     N56717   9.716   8.703  -0.216 -0.0486  0.3783  0.6237
  421MOL0     C56718   9.629   8.722  -0.325 -0.3318  0.3125  0.9974
  421MOL0     C56719   9.555   8.606  -0.336 -1.5643 -0.8891 -0.5778
  421MOL0     C56720   9.460   8.577  -0.443 -0.1403  0.3805 -0.0091
  421MOL0     C56721   9.518   8.545  -0.578  0.2434 -0.0349  0.3965
  421MOL0     C56722   9.416   8.501  -0.678  0.3105  0.4488  0.0886
  421MOL0     C56723   9.315   8.616  -0.700  0.0302  1.8166 -0.5327
  421MOL0     O56724   9.185   8.573  -0.677  0.3236 -0.4290  0.0863
  421MOL0     C56725   9.127   8.470  -0.751  0.6641 -0.1780 -0.7742
  421MOL0     C56726   9.162   8.441  -0.884  1.0188  0.2914 -1.0659
  421MOL0     C56727   9.097   8.332  -0.946  0.1442  0.7390 -0.5558
  421MOL0     C56728   9.128   8.323  -1.088 -0.4057 -0.2905  0.1579
  421MOL0     C56729   9.016   8.240  -0.863 -0.2142 -0.3439  0.3452
  421MOL0     C56730   8.971   8.115  -0.917 -0.8499  1.0170 -0.2756
  421MOL0     O56731   8.855   8.056  -0.868  0.0605  0.1625 -0.3729
  421MOL0     C56732   8.769   7.995  -0.953  0.0774  0.5104  0.5874
  421MOL0     C56733   8.761   7.985  -1.097 -0.5828 -0.2206  0.1664
  421MOL0     C56734   8.653   7.927  -1.160  0.3085  0.7002 -0.4415
  421MOL0     C56735   8.560   7.859  -1.083 -0.3090  0.3102  0.0927
  421MOL0     O56736   8.469   7.773  -1.145  0.5553 -0.0354  0.0098
  421MOL0     C56737   8.399   7.684  -1.066 -0.4780 -0.5355  0.8766
  421MOL0     C56738   8.312   7.594  -1.155  0.0729 -0.8125 -0.5842
  421MOL0     C56739   8.170   7.627  -1.192  0.0878  0.1461  0.2213
  421MOL0     C56740   8.113   7.512  -1.284  0.1724  0.6537  0.3227
  421MOL0     C56741   7.981   7.559  -1.332 -0.7467  0.2858  1.4186
  421MOL0     C56742   7.879   7.606  -1.227  1.0414 -0.5489 -1.0472
  421MOL0     C56743   7.730   7.606  -1.270 -0.1286  0.2738 -0.2835
  421MOL0     C56744   7.680   7.463  -1.303 -0.2465  0.0839  0.5064
  421MOL0    Cl56745   7.733   7.360  -1.163 -0.2700  0.1439  0.2686
  421MOL0     C56746   8.558   7.878  -0.945  0.4963  0.3007 -0.0756
  421MOL0     C56747   8.657   7.949  -0.886  0.2148 -0.5168 -0.1962
  421MOL0     O56748   9.040   8.063  -1.005  0.5038  0.2980 -0.0119
  421MOL0     C56749   8.989   8.272  -0.734  0.0907  0.3544 -0.5088
  421MOL0     C56750   9.041   8.382  -0.676 -0.5872  0.6695 -1.1043
  421MOL0     N56751   9.593   8.519  -0.230 -0.7050  0.9768  0.0212
  421MOL0     N56752   9.685   8.576  -0.167 -0.8488 -0.0897  0.4759
  421MOL0     C56753  10.119   9.315   0.343  0.2931  0.8093 -0.7791
  421MOL0     C56754  10.138   9.278   0.480  1.3178 -0.2295 -0.6801
  421MOL0     C56755  10.207   9.419   0.918  0.0460 -0.1383  0.9488
  421MOL0     C56756  10.127   9.331   0.988  0.2105  0.6496  0.4343
  421MOL0     C56757  10.124   9.331   1.128 -0.6429  0.0750 -0.4764
  421MOL0     C56758  10.212   9.426   1.192 -0.0634  0.4807 -0.5597
  421MOL0     O56759  10.218   9.422   1.327 -0.5858  0.2425 -0.3003
  421MOL0     C56760  10.333   9.452   1.399 -0.2231  0.0981 -0.1864
  421MOL0     C56761  10.456   9.382   1.347  0.6720  0.5436 -0.2890
  421MOL0     C56762  10.436   9.225   1.374  0.0583 -0.7578 -0.6364
  421MOL0     C56763  10.561   9.142   1.335  0.3259 -0.1325 -0.0832
  421MOL0     C56764  10.521   8.998   1.344 -0.4444  0.7446 -0.2138
  421MOL0     C56765  10.499   8.880   1.341 -0.0386 -0.6090  0.4095
  421MOL0     C56766  10.287   9.516   1.118 -0.3469 -0.5207 -0.4215
  421MOL0     C56767  10.287   9.508   0.979  0.0389 -0.8701  0.0876
  421MOL0     H56768   9.963   9.528   0.622 -0.4347 -0.2206 -0.9231
  421MOL0     H56769   9.942   9.588   0.363  0.0031 -0.3337 -0.1245
  421MOL0     H56770  10.214   9.563   0.080  4.7852 -1.9905  1.0496
  421MOL0     H56771  10.224   9.394   0.107  0.4796  1.9440  3.0776
  421MOL0     H56772  10.022   9.555  -0.057  2.1710  0.4114 -1.3167
  421MOL0     H56773  10.166   9.468  -0.131  2.3569  1.5902  2.1939
  421MOL0     H56774   9.926   9.322   0.007 -0.0930 -0.8738  1.4776
  421MOL0     H56775   9.917   9.378  -0.144 -2.6056 -1.4425  0.7205
  421MOL0     H56776  10.130   9.236  -0.189  0.4144  1.4264  1.1758
  421MOL0     H56777  10.106   9.176  -0.021 -1.6332 -0.5093 -0.0869
  421MOL0     H56778   9.876   9.100  -0.083  1.0464  0.5774  1.1310
  421MOL0     H56779   9.915   9.142  -0.260 -4.1423  1.3784  2.7068
  421MOL0     H56780  10.115   8.964  -0.223  0.0914 -2.2773  1.3892
  421MOL0     H56781  10.045   8.940  -0.073  0.9912  0.1725 -0.3935
  421MOL0     H56782   9.894   8.898  -0.345  0.3341 -2.0262 -0.4624
  421MOL0     H56783   9.999   8.775  -0.280  1.8220  2.3619 -3.5562
  421MOL0     H56784   9.746   8.895  -0.145 -1.4051 -1.0527 -0.3960
  421MOL0     H56785   9.850   8.762  -0.081  0.2058  0.2149 -0.3835
  421MOL0     H56786   9.610   8.805  -0.392  1.1484  0.2600  0.4791
  421MOL0     H56787   9.390   8.498  -0.416 -0.3646  1.4461  2.8281
  421MOL0     H56788   9.399   8.668  -0.448  1.1960  1.3092 -5.3346
  421MOL0     H56789   9.587   8.461  -0.563  0.3044  0.2427  1.7671
  421MOL0     H56790   9.554   8.638  -0.624 -2.0963  0.6124 -0.2655
  421MOL0     H56791   9.366   8.425  -0.618 -1.4933  0.6213 -1.0989
  421MOL0     H56792   9.457   8.450  -0.765 -0.3881  1.1046 -0.6491
  421MOL0     H56793   9.326   8.660  -0.799 -0.5102  0.9179 -0.9969
  421MOL0     H56794   9.337   8.698  -0.630  0.6810  0.8434  0.4380
  421MOL0     H56795   9.221   8.502  -0.952  1.0185  3.9758  1.9042
  421MOL0     H56796   9.037   8.281  -1.132 -1.0027 -1.5704  2.4710
  421MOL0     H56797   9.164   8.413  -1.139 -0.8380  0.5417  1.2712
  421MOL0     H56798   9.206   8.246  -1.093  1.3683  1.1114  3.2030
  421MOL0     H56799   8.828   8.039  -1.164 -2.2538 -0.8751 -2.1622
  421MOL0     H56800   8.642   7.914  -1.268  0.1446  1.7069 -0.5482
  421MOL0     H56801   8.480   7.625  -1.023 -1.5969 -2.6002  0.2559
  421MOL0     H56802   8.331   7.719  -0.988 -2.0272 -1.7003  0.1060
  421MOL0     H56803   8.361   7.575  -1.251  2.1143  2.2011 -0.2773
  421MOL0     H56804   8.317   7.502  -1.096  4.1583 -0.1643  0.3841
  421MOL0     H56805   8.165   7.727  -1.237  3.7516  0.1637 -0.4641
  421MOL0     H56806   8.117   7.619  -1.097  1.7699  0.6189  1.2433
  421MOL0     H56807   8.179   7.497  -1.370  2.1689  1.0574  1.7363
  421MOL0     H56808   8.092   7.425  -1.222 -4.1145  1.2624  0.0304
  421MOL0     H56809   7.933   7.483  -1.394 -0.8263  0.8349  0.8010
  421MOL0     H56810   7.998   7.644  -1.398  0.0772 -1.0467 -0.1553
  421MOL0     H56811   7.889   7.551  -1.133 -0.5603  1.4190  0.3631
  421MOL0     H56812   7.905   7.706  -1.191  1.9747 -0.5622 -1.6242
  421MOL0     H56813   7.728   7.661  -1.365  0.9248  1.1126  0.1578
  421MOL0     H56814   7.665   7.653  -1.195 -1.6781 -0.1463 -1.3203
  421MOL0     H56815   7.719   7.415  -1.394 -0.8347 -1.5516  1.0740
  421MOL0     H56816   7.573   7.462  -1.325  0.1809  2.0346 -2.2330
  421MOL0     H56817   8.474   7.846  -0.884  3.8816 -2.6760  3.6079
  421MOL0     H56818   8.637   7.975  -0.783 -1.1247  0.2435 -0.6324
  421MOL0     H56819   8.944   8.191  -0.678  2.7935  0.0616  1.4899
  421MOL0     H56820   9.031   8.408  -0.571 -2.2370  0.7758 -1.2687
  421MOL0     H56821  10.144   9.242   0.266  0.2509 -0.5860  0.4683
  421MOL0     H56822  10.190   9.185   0.501  2.9331  0.3303 -2.0244
  421MOL0     H56823  10.066   9.258   0.936  2.1751 -0.5266 -0.3284
  421MOL0     H56824  10.063   9.262   1.184  0.7211  0.4723  1.6081
  421MOL0     H56825  10.360   9.558   1.397  2.9086 -0.5689  0.3407
  421MOL0     H56826  10.316   9.423   1.503 -2.6464  0.8147 -0.3410
  421MOL0     H56827  10.542   9.421   1.401  1.9110 -1.3418 -0.7720
  421MOL0     H56828  10.485   9.400   1.242  1.9465 -0.8536 -0.2101
  421MOL0     H56829  10.354   9.187   1.312 -1.3188  1.6229 -0.4102
  421MOL0     H56830  10.402   9.207   1.476 -4.7593 -0.4507 -1.9304
  421MOL0     H56831  10.641   9.163   1.407  0.4796 -1.1484  0.0502
  421MOL0     H56832  10.595   9.153   1.232  1.4125  2.0643  0.4301
  421MOL0     H56833  10.485   8.774   1.333  0.4739 -0.5482 -3.0302
  421MOL0     H56834  10.354   9.584   1.171  1.3133 -0.7764 -2.0852
  421MOL0     H56835  10.338   9.580   0.915  0.8592 -1.5553 -0.0543
  422MOL0     O56836   6.075  10.045   1.012 -0.3495  0.3499  0.1849
  422MOL0     C56837   6.181  10.113   1.011  0.6967 -0.6344 -0.1012
  422MOL0     O56838   6.290  10.096   1.081  0.0546  0.4721  0.6551
  422MOL0     C56839   6.325   9.973   1.139  0.3462  0.1247  0.2003
  422MOL0     C56840   6.246   9.892   1.212  0.3333  0.3371  0.0330
  422MOL0     C56841   6.284   9.768   1.262  0.1714 -0.1695  0.2236
  422MOL0     C56842   6.409   9.725   1.225 -0.2266  0.4555  0.4289
  422MOL0     O56843   6.439   9.590   1.254  0.0333  0.4221  0.2113
  422MOL0     C56844   6.504   9.513   1.156 -0.1225  1.1944 -0.6040
  422MOL0     C56845   6.449   9.373   1.177 -0.8786  0.4749  1.3648
  422MOL0     C56846   6.514   9.314   1.296  0.2729  0.3290  0.1318
  422MOL0     C56847   6.436   9.190   1.345  0.6027 -0.0024 -0.4601
  422MOL0     C56848   6.513   9.102   1.442 -0.0787 -0.0247 -0.0669
  422MOL0     C56849   6.442   8.968   1.475  1.3956  0.2350  0.2488
  422MOL0     C56850   6.506   8.866   1.564 -0.0569 -0.3386  0.0177
  422MOL0     C56851   6.621   8.800   1.495 -0.1895 -0.0957  0.2602
  422MOL0     N56852   6.704   8.721   1.583  0.7955 -0.4005  0.1543
  422MOL0     C56853   6.672   8.589   1.632 -0.0332 -0.5033  0.7529
  422MOL0     C56854   6.787   8.542   1.688  1.0253 -0.3762  0.0698
  422MOL0     C56855   6.793   8.420   1.769 -0.4816  0.1703 -0.5054
  422MOL0     C56856   6.767   8.458   1.924  1.0106 -0.1625 -0.6473
  422MOL0     C56857   6.892   8.478   2.014  0.2045 -0.3716 -0.1856
  422MOL0     C56858   6.860   8.492   2.164 -0.1043  0.0456  0.2810
  422MOL0     O56859   6.982   8.457   2.232  0.5607  0.7301 -0.8368
  422MOL0     C56860   6.983   8.464   2.370 -0.1832 -0.1623 -0.0197
  422MOL0     C56861   7.111   8.470   2.429  0.1198 -0.0143 -0.3923
  422MOL0     C56862   7.118   8.460   2.570  0.4465  0.1266  0.0798
  422MOL0     C56863   7.257   8.499   2.623  0.5296  0.2975  0.6092
  422MOL0     C56864   6.999   8.443   2.658  0.0317  0.2891  0.3072
  422MOL0     C56865   7.025   8.411   2.804  0.5932 -0.1255  0.0591
  422MOL0     O56866   7.127   8.331   2.831  0.2687 -0.2276 -0.1674
  422MOL0     C56867   7.159   8.325   2.965 -0.3413 -0.6137  1.1997
  422MOL0     C56868   7.127   8.220   3.044 -0.1251 -0.2776 -0.0769
  422MOL0     C56869   7.178   8.200   3.173  0.4527 -0.2333  0.6294
  422MOL0     C56870   7.256   8.298   3.231 -0.7072  1.1315 -0.2965
  422MOL0     O56871   7.299   8.306   3.359  0.1241 -0.1523 -0.1733
  422MOL0     C56872   7.254   8.202   3.442 -0.3023  0.3632  0.3961
  422MOL0     C56873   7.276   8.232   3.587  0.2617 -1.0456 -0.1945
  422MOL0     C56874   7.254   8.104   3.660  0.2478  0.1511  0.4855
  422MOL0     C56875   7.292   8.115   3.810  0.4956  0.0835  0.5805
  422MOL0     C56876   7.355   7.998   3.885  0.2975  0.1916  0.3256
  422MOL0     C56877   7.335   8.010   4.038 -0.1195 -0.3667 -0.3722
  422MOL0     C56878   7.421   7.912   4.112  0.1191 -0.0720 -0.0877
  422MOL0     C56879   7.437   7.953   4.263  0.1368  0.0332  0.0705
  422MOL0    Cl56880   7.305   7.918   4.372 -0.4160 -0.0750 -0.0648
  422MOL0     C56881   7.284   8.404   3.155 -0.3344  1.4757  0.7122
  422MOL0     C56882   7.244   8.418   3.025 -0.3996 -0.8626 -0.3869
  422MOL0     O56883   6.937   8.445   2.886  0.3692  0.4330 -0.7095
  422MOL0     C56884   6.871   8.450   2.589 -0.1107 -0.5067  0.0113
  422MOL0     C56885   6.873   8.460   2.452 -0.8248  0.0291 -0.2095
  422MOL0     N56886   6.879   8.649   1.688  0.3679  0.3631  0.1631
  422MOL0     N56887   6.826   8.752   1.626  0.4623 -0.5783  0.0515
  422MOL0     C56888   6.497   9.803   1.146  0.2033  0.3367 -0.6496
  422MOL0     C56889   6.456   9.934   1.116 -0.0042  0.4438 -0.0840
  422MOL0     C56890   6.177  10.223   0.912  0.7838 -0.3056 -0.3563
  422MOL0     C56891   6.099  10.209   0.796  0.4787  0.6315 -0.3276
  422MOL0     C56892   6.101  10.300   0.693 -0.0021  0.3612  0.1799
  422MOL0     C56893   6.191  10.406   0.698 -0.0503  0.1166  0.4839
  422MOL0     O56894   6.190  10.490   0.588 -0.5686 -0.0634 -0.7737
  422MOL0     C56895   6.285  10.601   0.587  0.4755 -0.7946 -0.4642
  422MOL0     C56896   6.247  10.682   0.463 -0.0047 -0.1765  1.1563
  422MOL0     C56897   6.296  10.820   0.454 -0.5962  0.4770  0.2761
  422MOL0     C56898   6.447  10.837   0.430 -1.3083 -0.2217  0.4126
  422MOL0     C56899   6.486  10.789   0.301 -0.4001 -0.4563 -0.6600
  422MOL0     C56900   6.527  10.749   0.199 -0.5433 -0.1727  0.0338
  422MOL0     C56901   6.261  10.435   0.822 -0.5720 -0.5453  0.7871
  422MOL0     C56902   6.251  10.335   0.921  0.6327  0.0596 -0.2441
  422MOL0     H56903   6.141   9.919   1.219 -0.0999 -1.3031  0.2185
  422MOL0     H56904   6.211   9.709   1.316  0.6374  0.1927  1.2762
  422MOL0     H56905   6.475   9.550   1.057 -0.8437  0.8854 -0.5165
  422MOL0     H56906   6.613   9.503   1.157 -0.0943  0.6725  2.6078
  422MOL0     H56907   6.342   9.361   1.194 -1.0729  2.1937  1.5211
  422MOL0     H56908   6.484   9.325   1.085 -1.7972 -0.3035  1.4171
  422MOL0     H56909   6.616   9.291   1.263 -0.7785 -0.7248 -2.6085
  422MOL0     H56910   6.510   9.380   1.384 -2.0516  3.3627 -2.0318
  422MOL0     H56911   6.338   9.218   1.383  1.3473  0.4127  1.2269
  422MOL0     H56912   6.407   9.125   1.262 -4.2945 -1.1207  1.7458
  422MOL0     H56913   6.601   9.071   1.385  0.6913  2.5306 -0.3908
  422MOL0     H56914   6.529   9.156   1.535 -3.2242 -1.2933  1.3774
  422MOL0     H56915   6.344   8.992   1.518 -2.6388  0.7471 -7.4083
  422MOL0     H56916   6.396   8.920   1.389  0.1582 -0.6281  1.3470
  422MOL0     H56917   6.542   8.910   1.657  0.0847 -2.8257  1.2116
  422MOL0     H56918   6.432   8.785   1.570  1.8373 -2.0677  1.4695
  422MOL0     H56919   6.689   8.876   1.457  0.4465  0.0390  1.6173
  422MOL0     H56920   6.595   8.744   1.405  2.7779 -0.9439 -0.1555
  422MOL0     H56921   6.577   8.538   1.626 -0.1883 -0.2752  1.2347
  422MOL0     H56922   6.713   8.352   1.738 -2.9982  1.5085  2.4544
  422MOL0     H56923   6.881   8.356   1.760 -1.2345 -1.5398  2.7190
  422MOL0     H56924   6.712   8.374   1.967  1.1775 -0.0823 -0.2768
  422MOL0     H56925   6.694   8.538   1.939  1.6809 -0.0553  3.0168
  422MOL0     H56926   6.936   8.569   1.972 -4.0956  2.5837  0.9915
  422MOL0     H56927   6.958   8.392   1.999 -1.4372 -1.3696 -2.1484
  422MOL0     H56928   6.775   8.427   2.187  0.3016 -0.1471  1.2749
  422MOL0     H56929   6.828   8.596   2.175 -4.0989 -1.1987  2.9575
  422MOL0     H56930   7.196   8.482   2.363 -1.2834 -0.0933 -2.2900
  422MOL0     H56931   7.319   8.409   2.613  1.1967  0.8491 -0.4405
  422MOL0     H56932   7.301   8.574   2.556  1.3525 -1.9099 -1.4561
  422MOL0     H56933   7.245   8.543   2.723 -0.9427 -1.9241  1.4719
  422MOL0     H56934   7.052   8.151   3.008 -0.3680  0.5525 -1.1992
  422MOL0     H56935   7.143   8.109   3.220 -0.2303 -0.6248 -0.6045
  422MOL0     H56936   7.151   8.178   3.417 -0.0642 -0.0382 -0.2446
  422MOL0     H56937   7.296   8.107   3.408 -2.8053  0.0820 -2.3664
  422MOL0     H56938   7.377   8.272   3.603  0.8955 -1.7411 -2.2148
  422MOL0     H56939   7.201   8.303   3.623  0.5770 -1.1660  0.7435
  422MOL0     H56940   7.324   8.030   3.621  0.2577 -0.0757  0.9252
  422MOL0     H56941   7.150   8.069   3.660  0.7415 -1.4025  0.9045
  422MOL0     H56942   7.358   8.201   3.825 -0.8974  1.1555  0.7307
  422MOL0     H56943   7.198   8.152   3.851 -0.0721  1.4652 -1.7949
  422MOL0     H56944   7.461   7.988   3.858  0.5624 -1.2156  1.7244
  422MOL0     H56945   7.328   7.901   3.842 -0.1817  0.5471 -0.1948
  422MOL0     H56946   7.353   8.115   4.062 -1.0162 -0.2483 -0.1710
  422MOL0     H56947   7.229   7.999   4.064 -0.9937  2.2977 -2.3419
  422MOL0     H56948   7.524   7.902   4.075  0.6295 -0.8011  1.4663
  422MOL0     H56949   7.374   7.815   4.094  2.0361 -1.3931  1.5033
  422MOL0     H56950   7.479   8.053   4.276  3.7354 -1.4072  0.9474
  422MOL0     H56951   7.526   7.896   4.292 -1.5699 -0.8239  4.2728
  422MOL0     H56952   7.357   8.469   3.203 -0.5681  1.6573  0.8256
  422MOL0     H56953   7.302   8.480   2.957  0.0743 -1.6972 -0.7548
  422MOL0     H56954   6.774   8.443   2.637  0.5630 -0.8125  1.3553
  422MOL0     H56955   6.779   8.451   2.398  0.2769  0.3360 -2.2757
  422MOL0     H56956   6.593   9.767   1.113  0.5781 -2.4293  2.8692
  422MOL0     H56957   6.514   9.988   1.042 -1.5524 -1.9786 -3.3220
  422MOL0     H56958   6.035  10.122   0.789 -1.8668  2.1664  1.0205
  422MOL0     H56959   6.051  10.284   0.599  2.3225  1.1362 -1.2757
  422MOL0     H56960   6.271  10.668   0.672  2.0383  2.7714 -2.7562
  422MOL0     H56961   6.389  10.569   0.598  1.2587  1.6412 -0.2040
  422MOL0     H56962   6.138  10.689   0.466  0.0603  1.2589  0.9277
  422MOL0     H56963   6.275  10.632   0.370 -3.5540  1.1716 -0.8365
  422MOL0     H56964   6.269  10.865   0.551  0.6865  1.6312  0.1322
  422MOL0     H56965   6.249  10.880   0.376  3.9482  0.5225 -2.7996
  422MOL0     H56966   6.492  10.792   0.519 -2.8610  0.5553  1.6489
  422MOL0     H56967   6.479  10.942   0.437 -0.5197 -0.4437  0.1915
  422MOL0     H56968   6.570  10.710   0.109 -0.3024  2.4595 -1.0954
  422MOL0     H56969   6.319  10.523   0.846 -2.0136  0.3647  1.0982
  422MOL0     H56970   6.310  10.361   1.009  2.4149 -0.1666 -1.3302
  423MOL0     O56971   1.076   3.339   0.217 -0.2264 -0.4041 -0.6466
  423MOL0     C56972   1.041   3.390   0.319  0.8572  0.2061 -0.0807
  423MOL0     O56973   0.999   3.320   0.426 -0.7851 -0.1441  1.2041
  423MOL0     C56974   0.991   3.186   0.424  0.4289  0.6261 -0.7927
  423MOL0     C56975   1.035   3.122   0.540  0.3353  0.2991 -0.6582
  423MOL0     C56976   1.049   2.978   0.551 -0.3399 -0.4912 -0.8321
  423MOL0     C56977   1.013   2.911   0.434 -0.2893  0.5087 -0.2300
  423MOL0     O56978   1.021   2.772   0.438 -0.6749  0.2683 -0.2657
  423MOL0     C56979   1.095   2.712   0.330 -0.5026 -0.5483  0.2461
  423MOL0     C56980   1.176   2.594   0.383  0.1459  0.3072 -0.2938
  423MOL0     C56981   1.242   2.510   0.272  1.0158  0.7080  0.5839
  423MOL0     C56982   1.359   2.424   0.333 -0.1646  0.3613 -0.2601
  423MOL0     C56983   1.413   2.315   0.236 -0.2823  0.2064 -0.3827
  423MOL0     C56984   1.343   2.177   0.274  0.0277  0.2898  0.9056
  423MOL0     C56985   1.430   2.078   0.358 -0.8817  0.2408  0.0026
  423MOL0     C56986   1.523   1.971   0.282 -0.9189  0.4257 -0.3871
  423MOL0     N56987   1.622   2.044   0.206 -0.0015  0.9759 -0.1273
  423MOL0     C56988   1.618   2.031   0.073 -0.4134  0.0900  0.1499
  423MOL0     C56989   1.742   2.071   0.033 -0.4024 -0.2836 -0.1683
  423MOL0     C56990   1.794   2.080  -0.108  0.4716 -0.5338 -0.2101
  423MOL0     C56991   1.758   1.963  -0.207 -1.1607  0.3350 -0.5144
  423MOL0     C56992   1.834   1.836  -0.181 -0.3299  0.3303  0.1340
  423MOL0     C56993   1.787   1.722  -0.279 -0.6083 -0.3056  0.9607
  423MOL0     O56994   1.833   1.596  -0.225  1.1195 -0.7027 -0.1587
  423MOL0     C56995   1.812   1.490  -0.305  0.9688 -0.2289  0.3944
  423MOL0     C56996   1.744   1.486  -0.432  0.8311  0.4372  0.5882
  423MOL0     C56997   1.742   1.366  -0.510  0.2222  0.1463  0.1810
  423MOL0     C56998   1.687   1.376  -0.647 -0.1864 -0.4556  0.6387
  423MOL0     C56999   1.811   1.247  -0.465  0.2709 -1.0198 -0.4354
  423MOL0     C57000   1.817   1.109  -0.535  0.8766  0.8736 -0.2521
  423MOL0     O57001   1.734   1.083  -0.637 -0.1768  0.3392 -0.0334
  423MOL0     C57002   1.728   0.957  -0.696 -0.9636  1.2482 -0.0878
  423MOL0     C57003   1.842   0.901  -0.764 -0.2647  0.1172  0.2125
  423MOL0     C57004   1.828   0.777  -0.828  0.9246  0.0944  0.9847
  423MOL0     C57005   1.704   0.706  -0.832 -0.3174 -0.4990  0.4388
  423MOL0     O57006   1.683   0.594  -0.895  0.6724  0.0680 -0.6823
  423MOL0     C57007   1.765   0.542  -0.995 -0.1639 -0.1400 -0.7405
  423MOL0     C57008   1.694   0.409  -1.021 -0.6500 -0.5518  0.4546
  423MOL0     C57009   1.775   0.337  -1.118 -0.3746 -0.4452  0.0768
  423MOL0     C57010   1.756   0.377  -1.262 -0.0162  0.3689  0.0922
  423MOL0     C57011   1.855   0.291  -1.351  0.5545  0.3853  0.1308
  423MOL0     C57012   1.829   0.340  -1.488  0.9006 -0.2870 -0.1356
  423MOL0     C57013   1.889   0.268  -1.606 -0.1511  0.0174 -0.1764
  423MOL0     C57014   1.833   0.130  -1.603  0.1343 -0.5805 -0.4668
  423MOL0    Cl57015   1.657   0.130  -1.631 -0.5887  0.9496  0.0256
  423MOL0     C57016   1.596   0.766  -0.766  0.5094 -0.5239  0.2088
  423MOL0     C57017   1.612   0.891  -0.699 -0.3633 -0.1047  0.2020
  423MOL0     O57018   1.892   1.027  -0.480 -0.1755 -0.0382 -0.5447
  423MOL0     C57019   1.857   1.256  -0.337 -0.8015 -0.1206  0.5275
  423MOL0     C57020   1.859   1.372  -0.258  0.1181 -0.7497  0.8814
  423MOL0     N57021   1.819   2.103   0.150  0.1399  0.1483 -0.0511
  423MOL0     N57022   1.743   2.090   0.255 -0.8064 -0.6166  0.1505
  423MOL0     C57023   0.949   2.975   0.320 -0.3583 -0.2813 -0.1955
  423MOL0     C57024   0.934   3.111   0.324  0.0217  0.6699 -0.0817
  423MOL0     C57025   1.039   3.529   0.337 -0.1155 -0.4461  0.3644
  423MOL0     C57026   0.991   3.602   0.448  0.7506 -0.1593  0.1387
  423MOL0     C57027   0.967   3.742   0.451 -0.0769  0.5305  0.1107
  423MOL0     C57028   1.027   3.811   0.352  0.6478 -0.5265  0.4556
  423MOL0     O57029   1.004   3.947   0.354  0.5096 -0.5205 -0.5460
  423MOL0     C57030   0.884   4.000   0.287  0.4720 -0.0513 -0.4649
  423MOL0     C57031   0.832   4.131   0.345 -0.3004 -0.6015  0.0234
  423MOL0     C57032   0.676   4.111   0.366  0.1946 -0.3950 -1.3404
  423MOL0     C57033   0.596   4.239   0.406 -0.4740 -0.6744 -0.5730
  423MOL0     C57034   0.451   4.212   0.415  0.0679  0.8341 -0.3596
  423MOL0     C57035   0.336   4.184   0.428  0.1646  0.0203 -0.1735
  423MOL0     C57036   1.094   3.754   0.249  0.0346  0.1714 -0.3147
  423MOL0     C57037   1.106   3.612   0.244  0.0708 -0.0842  0.3414
  423MOL0     H57038   1.066   3.184   0.624 -0.1555  2.3514 -1.9187
  423MOL0     H57039   1.083   2.928   0.641 -1.9882  0.4546  0.3659
  423MOL0     H57040   1.029   2.665   0.257 -0.2210 -2.7028  1.3034
  423MOL0     H57041   1.159   2.781   0.273 -2.2405 -1.1460 -2.6256
  423MOL0     H57042   1.259   2.639   0.438 -0.1957  0.6748 -0.0717
  423MOL0     H57043   1.121   2.537   0.459  0.4508  0.3769 -0.0177
  423MOL0     H57044   1.161   2.446   0.238 -0.5765  4.4921 -3.7330
  423MOL0     H57045   1.277   2.563   0.182 -1.1235 -1.6147 -1.7743
  423MOL0     H57046   1.446   2.488   0.353 -0.4651  0.8037 -0.3541
  423MOL0     H57047   1.322   2.383   0.428 -0.2718  1.5412  0.2299
  423MOL0     H57048   1.387   2.349   0.136  3.0481  0.6990 -1.1985
  423MOL0     H57049   1.521   2.307   0.252 -0.6250  0.5076  2.8772
  423MOL0     H57050   1.252   2.200   0.329 -2.3117 -1.3449 -1.9589
  423MOL0     H57051   1.302   2.129   0.185  3.1571  1.1545 -1.1876
  423MOL0     H57052   1.500   2.138   0.416  0.3785 -0.5937 -0.6003
  423MOL0     H57053   1.372   2.017   0.428 -1.1347  0.2399 -0.2038
  423MOL0     H57054   1.465   1.905   0.217 -3.6646 -1.0101  3.1966
  423MOL0     H57055   1.568   1.904   0.357 -1.8574  0.3208  0.0902
  423MOL0     H57056   1.548   1.987   0.004  0.9510 -0.2752 -1.0543
  423MOL0     H57057   1.731   2.156  -0.155  1.5621  0.1100 -0.6469
  423MOL0     H57058   1.900   2.098  -0.127  0.1878  0.7443 -0.6189
  423MOL0     H57059   1.771   2.007  -0.306  0.7019  0.3510 -0.2891
  423MOL0     H57060   1.652   1.938  -0.196 -0.5738 -2.0604  0.3521
  423MOL0     H57061   1.826   1.809  -0.075  1.1582  3.6733  1.2180
  423MOL0     H57062   1.941   1.856  -0.192 -0.3951  0.8038  0.3214
  423MOL0     H57063   1.831   1.735  -0.379  4.1669  1.2871  2.9801
  423MOL0     H57064   1.678   1.717  -0.285 -0.6075 -1.3621  1.5710
  423MOL0     H57065   1.704   1.574  -0.482 -0.1057 -0.5841 -0.5393
  423MOL0     H57066   1.755   1.360  -0.732  0.4450 -1.2889  1.2782
  423MOL0     H57067   1.595   1.319  -0.665 -1.6555  2.5040 -2.1878
  423MOL0     H57068   1.656   1.479  -0.663  0.4314 -0.6891 -2.7377
  423MOL0     H57069   1.933   0.959  -0.765 -1.1146  1.5045  1.1747
  423MOL0     H57070   1.916   0.738  -0.878 -1.0530 -0.6735 -2.1528
  423MOL0     H57071   1.767   0.604  -1.085 -1.0008 -0.9735 -1.3500
  423MOL0     H57072   1.863   0.528  -0.948 -1.6706  0.8757  3.1081
  423MOL0     H57073   1.678   0.350  -0.930  2.1525  0.8895  2.0289
  423MOL0     H57074   1.597   0.422  -1.070  0.9535 -0.5806 -2.9568
  423MOL0     H57075   1.770   0.228  -1.107  1.3562 -0.3404  2.8798
  423MOL0     H57076   1.882   0.356  -1.104  0.1523 -3.2595  0.5623
  423MOL0     H57077   1.650   0.359  -1.280 -0.1281 -1.2124  1.9140
  423MOL0     H57078   1.786   0.481  -1.271 -0.4028  0.4306 -0.5247
  423MOL0     H57079   1.826   0.186  -1.344 -3.0322  1.0682 -1.6917
  423MOL0     H57080   1.961   0.311  -1.338 -0.2208  5.0097  1.1929
  423MOL0     H57081   1.724   0.364  -1.503  0.0782 -3.4853 -0.1211
  423MOL0     H57082   1.875   0.440  -1.498  0.5851 -0.2285 -1.1823
  423MOL0     H57083   1.998   0.270  -1.597 -0.3096  2.7637  3.7390
  423MOL0     H57084   1.858   0.320  -1.697  2.4774 -2.3009 -2.6005
  423MOL0     H57085   1.850   0.065  -1.517 -1.5209 -2.8521 -1.7242
  423MOL0     H57086   1.881   0.081  -1.688 -0.8366 -1.0649 -0.7604
  423MOL0     H57087   1.502   0.714  -0.762  1.2169 -2.0066 -1.1500
  423MOL0     H57088   1.531   0.933  -0.640  1.3793  1.7205  1.3983
  423MOL0     H57089   1.895   1.169  -0.283  1.8765  0.6578 -0.0007
  423MOL0     H57090   1.922   1.382  -0.171  2.7170  0.3811 -1.0012
  423MOL0     H57091   0.920   2.904   0.243 -2.7476 -1.8178  1.9184
  423MOL0     H57092   0.898   3.168   0.239  1.9226  2.3224  0.1660
  423MOL0     H57093   0.957   3.538   0.529 -1.0619 -2.0947 -2.0151
  423MOL0     H57094   0.905   3.789   0.526 -1.0178  1.3337 -1.1337
  423MOL0     H57095   0.915   4.014   0.183  0.3773 -1.0545 -0.6384
  423MOL0     H57096   0.803   3.927   0.286 -1.1550  1.6761 -0.1031
  423MOL0     H57097   0.852   4.210   0.271 -2.1368 -1.6799 -1.7339
  423MOL0     H57098   0.872   4.153   0.444  0.4523  0.0248 -0.4057
  423MOL0     H57099   0.662   4.037   0.446 -1.3733  1.2699  0.0073
  423MOL0     H57100   0.639   4.066   0.273  2.4110 -1.3541 -1.8218
  423MOL0     H57101   0.608   4.316   0.330 -0.1758  1.7824  1.8382
  423MOL0     H57102   0.641   4.283   0.496 -1.0404  1.3660 -1.2395
  423MOL0     H57103   0.234   4.163   0.455  0.4073  1.3821  2.0943
  423MOL0     H57104   1.135   3.809   0.166  2.1891 -2.3077 -1.0395
  423MOL0     H57105   1.170   3.583   0.161  1.1641  2.3847  0.2019
  424MOL0     O57106   4.090   9.863   7.590  0.1376  0.0324  0.5762
  424MOL0     C57107   4.048   9.796   7.499 -0.3558 -0.2961 -0.9357
  424MOL0     O57108   4.120   9.710   7.422 -0.1652  0.0269  0.4280
  424MOL0     C57109   4.256   9.692   7.423  0.2470  0.0571  0.5822
  424MOL0     C57110   4.357   9.763   7.492 -1.1394 -0.5116 -0.4346
  424MOL0     C57111   4.495   9.731   7.474  0.5025 -0.0546  0.3532
  424MOL0     C57112   4.543   9.637   7.378  0.6559 -0.3531  0.0508
  424MOL0     O57113   4.673   9.605   7.350  1.0622  0.1779 -0.4323
  424MOL0     C57114   4.745   9.546   7.460  0.5470 -0.5151  0.5443
  424MOL0     C57115   4.850   9.440   7.431  0.1141  0.0746  0.1132
  424MOL0     C57116   4.986   9.515   7.389 -0.7595  1.0539  0.2004
  424MOL0     C57117   5.111   9.423   7.381  0.3763 -0.2084 -0.5151
  424MOL0     C57118   5.155   9.344   7.505 -0.5349  0.5109  0.5901
  424MOL0     C57119   5.278   9.272   7.515 -0.5884 -0.0025 -0.2435
  424MOL0     C57120   5.401   9.358   7.535 -0.9296  1.1044  0.0970
  424MOL0     C57121   5.532   9.282   7.542 -0.7446  0.8044 -0.8423
  424MOL0     N57122   5.535   9.171   7.646  0.5155 -0.4893  0.8889
  424MOL0     C57123   5.590   9.049   7.618  0.4492  0.1735 -0.9769
  424MOL0     C57124   5.541   8.977   7.719  0.6733  0.7440  1.0889
  424MOL0     C57125   5.545   8.826   7.711  1.1137 -0.9683  0.4258
  424MOL0     C57126   5.660   8.771   7.792 -0.6171  0.6334 -1.9783
  424MOL0     C57127   5.653   8.780   7.938  1.4402  0.5389  0.2692
  424MOL0     C57128   5.745   8.881   7.999  0.2260  0.6488  0.5249
  424MOL0     O57129   5.881   8.833   7.986  0.3909  0.2264 -0.6494
  424MOL0     C57130   5.951   8.770   8.089 -1.0973 -0.0748 -0.2080
  424MOL0     C57131   6.073   8.724   8.057 -0.3031 -0.3461  0.2259
  424MOL0     C57132   6.149   8.647   8.145  1.1316 -0.4085  0.4625
  424MOL0     C57133   6.280   8.589   8.102  0.8445  0.2311  0.0613
  424MOL0     C57134   6.091   8.611   8.270 -0.1552 -0.2149  0.6871
  424MOL0     C57135   6.155   8.531   8.374  0.2077 -1.3728  1.0675
  424MOL0     O57136   6.074   8.435   8.429  0.4783 -0.3250 -0.1645
  424MOL0     C57137   6.124   8.365   8.526  0.9287 -0.6290  0.1478
  424MOL0     C57138   6.038   8.358   8.631  0.1970  0.1429  0.3511
  424MOL0     C57139   6.068   8.284   8.745 -0.4771  0.3109  0.9776
  424MOL0     C57140   6.198   8.222   8.741 -0.3317 -0.2285  0.2141
  424MOL0     O57141   6.221   8.165   8.858  0.7021  0.8340 -0.3135
  424MOL0     C57142   6.162   8.036   8.880 -0.2972  0.5206 -0.4623
  424MOL0     C57143   6.218   7.998   9.019 -0.3321  0.0056  0.9800
  424MOL0     C57144   6.140   7.879   9.079  0.4469 -0.9015 -0.8128
  424MOL0     C57145   6.187   7.805   9.204 -0.2572 -0.2080 -0.3343
  424MOL0     C57146   6.138   7.882   9.326 -0.5812 -0.1371 -0.2267
  424MOL0     C57147   6.229   7.859   9.451  0.6350 -0.6199 -0.0943
  424MOL0     C57148   6.171   7.951   9.560 -0.8443 -0.8184  0.5542
  424MOL0     C57149   6.210   7.895   9.696  0.1225  0.4549 -1.2398
  424MOL0    Cl57150   6.104   7.929   9.836 -0.4242 -0.1540  0.1729
  424MOL0     C57151   6.286   8.223   8.634 -1.1142 -0.4368  0.1356
  424MOL0     C57152   6.247   8.302   8.526  0.1833 -0.3087 -0.4886
  424MOL0     O57153   6.268   8.562   8.412  0.0671  0.6528  0.0725
  424MOL0     C57154   5.967   8.662   8.305 -0.2758 -0.9739 -0.1974
  424MOL0     C57155   5.893   8.739   8.214  0.1008 -0.5489 -0.0255
  424MOL0     N57156   5.478   9.055   7.808  0.0865 -0.2143  0.0113
  424MOL0     N57157   5.488   9.174   7.771 -0.2310  0.1803  0.4826
  424MOL0     C57158   4.440   9.564   7.320  0.7327  0.8737 -0.9533
  424MOL0     C57159   4.300   9.595   7.327  0.3238  0.3151  0.1204
  424MOL0     C57160   3.903   9.787   7.481  0.7149 -0.1381  0.0310
  424MOL0     C57161   3.819   9.855   7.566 -0.3594 -0.4281 -0.1166
  424MOL0     C57162   3.679   9.855   7.565  0.3535  0.1944  0.0472
  424MOL0     C57163   3.611   9.783   7.460 -0.3343 -0.2345 -0.5029
  424MOL0     O57164   3.481   9.808   7.441 -0.5637 -0.5829 -0.3702
  424MOL0     C57165   3.401   9.731   7.357 -0.2361 -0.4710  0.1860
  424MOL0     C57166   3.263   9.758   7.430 -0.7365  0.7478  1.3801
  424MOL0     C57167   3.268   9.705   7.577 -0.3170 -0.8105 -0.2358
  424MOL0     C57168   3.146   9.741   7.653 -0.0756  0.0135  0.4782
  424MOL0     C57169   3.159   9.682   7.784 -0.3166  0.3736 -0.6002
  424MOL0     C57170   3.171   9.607   7.880  0.5429 -0.0280  0.9335
  424MOL0     C57171   3.695   9.711   7.367 -0.6275 -0.3058 -0.4641
  424MOL0     C57172   3.835   9.715   7.382  0.0630 -0.4280  0.1352
  424MOL0     H57173   4.322   9.843   7.556 -1.0952 -1.7511  1.1883
  424MOL0     H57174   4.583   9.776   7.518  2.0339  0.1718 -2.6894
  424MOL0     H57175   4.791   9.624   7.520  0.4584 -1.0908  1.3707
  424MOL0     H57176   4.667   9.499   7.520 -0.8743  0.3939 -0.5257
  424MOL0     H57177   4.862   9.378   7.521 -1.1230 -1.6112 -0.8419
  424MOL0     H57178   4.816   9.376   7.349 -2.5134 -0.0336  1.1854
  424MOL0     H57179   4.962   9.558   7.291 -0.8005  2.4522  0.8058
  424MOL0     H57180   5.017   9.592   7.460 -1.6796  0.3241  1.4519
  424MOL0     H57181   5.098   9.349   7.302  2.9149  0.5315 -1.7317
  424MOL0     H57182   5.194   9.491   7.358 -0.6577  0.9547 -0.8841
  424MOL0     H57183   5.143   9.413   7.589  0.1616  2.1645 -0.6115
  424MOL0     H57184   5.079   9.267   7.523  3.6779 -4.5981 -0.9719
  424MOL0     H57185   5.265   9.208   7.604  1.8248  0.3934  0.4839
  424MOL0     H57186   5.293   9.208   7.428 -0.3566 -2.3981  1.4605
  424MOL0     H57187   5.406   9.431   7.454 -0.8955  0.8530 -0.1281
  424MOL0     H57188   5.391   9.426   7.621 -0.8801 -1.0865  1.9216
  424MOL0     H57189   5.606   9.353   7.581 -1.6141  0.8478  0.8183
  424MOL0     H57190   5.568   9.242   7.446 -1.1557 -1.7989  0.0158
  424MOL0     H57191   5.640   9.015   7.528  0.4364 -0.4368 -0.7603
  424MOL0     H57192   5.455   8.770   7.738 -0.4280  1.3613  0.4308
  424MOL0     H57193   5.563   8.802   7.606  0.4847  0.0388  0.0762
  424MOL0     H57194   5.756   8.809   7.756  0.0079  2.4083  1.2110
  424MOL0     H57195   5.658   8.662   7.779  0.0178  0.4080 -0.4615
  424MOL0     H57196   5.682   8.683   7.980  1.5301  0.4276 -0.0498
  424MOL0     H57197   5.550   8.796   7.969  1.5667  0.7527  0.5945
  424MOL0     H57198   5.721   8.884   8.105  2.7293 -3.6520  1.4463
  424MOL0     H57199   5.735   8.976   7.945 -2.6980 -0.4796 -1.1682
  424MOL0     H57200   6.117   8.745   7.960 -0.3152 -0.6983  0.1436
  424MOL0     H57201   6.280   8.485   8.135 -1.0723 -0.3013 -1.4380
  424MOL0     H57202   6.275   8.575   7.993 -1.6613  1.8533 -0.1134
  424MOL0     H57203   6.367   8.644   8.139  1.8209 -2.0691  1.4126
  424MOL0     H57204   5.951   8.423   8.626  0.2095  0.1695  0.4687
  424MOL0     H57205   5.999   8.275   8.828  0.2161  0.0899  1.5447
  424MOL0     H57206   6.053   8.046   8.892 -0.3673  0.5618 -1.0942
  424MOL0     H57207   6.201   7.978   8.797  0.1493  1.9482 -1.2848
  424MOL0     H57208   6.321   7.964   9.007  0.5744  2.6090  0.6885
  424MOL0     H57209   6.211   8.083   9.088 -1.2139  0.2830  0.5615
  424MOL0     H57210   6.134   7.808   8.995 -1.9943  0.2054 -1.6467
  424MOL0     H57211   6.036   7.909   9.094  1.2399  1.7822 -0.0696
  424MOL0     H57212   6.162   7.699   9.197 -1.7090  0.1760 -1.8796
  424MOL0     H57213   6.294   7.823   9.207 -0.4510  1.4415 -1.5912
  424MOL0     H57214   6.033   7.860   9.349 -0.3541 -2.9775 -1.4820
  424MOL0     H57215   6.144   7.989   9.307  1.6681  0.0405  1.1946
  424MOL0     H57216   6.216   7.754   9.481  0.7807 -0.8218 -0.7096
  424MOL0     H57217   6.333   7.882   9.426  0.5595  1.5014  1.2728
  424MOL0     H57218   6.063   7.966   9.551 -0.3526  2.3646 -2.2753
  424MOL0     H57219   6.215   8.051   9.553 -0.2101 -0.8977  2.7961
  424MOL0     H57220   6.305   7.938   9.728  1.0048 -1.0892 -1.6871
  424MOL0     H57221   6.219   7.787   9.680 -1.9004 -0.7812  3.9333
  424MOL0     H57222   6.378   8.165   8.625 -0.6462  0.6155 -3.6446
  424MOL0     H57223   6.315   8.303   8.442 -0.9340  0.5028 -1.4185
  424MOL0     H57224   5.942   8.656   8.411 -0.4588 -2.2592 -0.2913
  424MOL0     H57225   5.799   8.772   8.258  0.9610  0.3799  1.2111
  424MOL0     H57226   4.473   9.496   7.242 -0.7661 -1.7256  0.5408
  424MOL0     H57227   4.219   9.541   7.279 -1.5611  3.3676 -0.4016
  424MOL0     H57228   3.863   9.915   7.645 -1.0380 -1.0181  0.7416
  424MOL0     H57229   3.613   9.911   7.631  1.1853  1.6223 -0.3008
  424MOL0     H57230   3.411   9.768   7.255 -1.2254 -0.7845 -0.0373
  424MOL0     H57231   3.431   9.626   7.368  2.0122  0.3437  4.0831
  424MOL0     H57232   3.206   9.687   7.369  2.6935  0.2685 -1.6082
  424MOL0     H57233   3.236   9.863   7.422 -0.5811  0.7640  1.0667
  424MOL0     H57234   3.348   9.746   7.640 -2.4630 -0.9345  2.7867
  424MOL0     H57235   3.294   9.599   7.572 -2.9177 -1.5276 -0.0993
  424MOL0     H57236   3.054   9.707   7.605 -0.6711  2.1857 -0.0359
  424MOL0     H57237   3.151   9.850   7.652  0.0862  0.0034  0.1089
  424MOL0     H57238   3.187   9.541   7.964  1.3800  0.3014  1.0359
  424MOL0     H57239   3.653   9.660   7.281 -0.0792 -2.8445  0.6885
  424MOL0     H57240   3.896   9.670   7.305  0.2946  2.3380 -1.4142
  425MOL0     O57241  10.546  10.590   9.747 -0.1634  1.4515  0.1044
  425MOL0     C57242  10.524  10.536   9.642 -0.5629  0.4045 -0.1975
  425MOL0     O57243  10.614  10.494   9.549 -0.3414 -0.1537 -0.1508
  425MOL0     C57244  10.750  10.538   9.567 -0.3376  0.4235  0.5980
  425MOL0     C57245  10.776  10.676   9.569 -0.6382 -0.6565  0.4250
  425MOL0     C57246  10.915  10.730   9.582  0.9740  0.4336  0.1803
  425MOL0     C57247  11.018  10.638   9.597 -0.1081 -0.7098  0.0752
  425MOL0     O57248  11.148  10.677   9.617 -0.0950 -0.2230 -0.0005
  425MOL0     C57249  11.171  10.793   9.693 -0.7053  0.3433  0.0746
  425MOL0     C57250  11.301  10.771   9.748 -0.5254  0.3951  0.8648
  425MOL0     C57251  11.418  10.763   9.642  0.1400 -0.2186 -0.2485
  425MOL0     C57252  11.477  10.900   9.610  0.4614 -0.7654 -0.0974
  425MOL0     C57253  11.526  10.885   9.461  0.0235  0.3555  0.3083
  425MOL0     C57254  11.564  11.015   9.403 -0.8817 -0.8162 -0.0995
  425MOL0     C57255  11.632  11.004   9.269  0.0315  0.6903 -0.7874
  425MOL0     C57256  11.627  11.143   9.213  0.4962 -0.6752  0.6184
  425MOL0     N57257  11.685  11.121   9.078  0.3765  0.6022 -0.6006
  425MOL0     C57258  11.625  11.118   8.958  0.2953 -0.4837  0.4286
  425MOL0     C57259  11.716  11.077   8.865 -0.5006  0.1483  0.7247
  425MOL0     C57260  11.683  11.065   8.715 -0.4665 -0.6070 -0.2369
  425MOL0     C57261  11.709  11.187   8.628 -0.7520  0.4386  0.3923
  425MOL0     C57262  11.690  11.157   8.479  0.4982  0.1143  0.3398
  425MOL0     C57263  11.684  11.284   8.397  0.2193 -0.9156 -0.6421
  425MOL0     O57264  11.812  11.357   8.426  0.2429 -0.1242  0.5704
  425MOL0     C57265  11.843  11.468   8.359  0.3614  0.6423  0.7333
  425MOL0     C57266  11.765  11.523   8.262  0.7068 -0.0422 -0.6461
  425MOL0     C57267  11.811  11.635   8.188  0.3409  0.9851 -0.7341
  425MOL0     C57268  11.716  11.701   8.092 -0.1029 -0.0464  0.7928
  425MOL0     C57269  11.944  11.691   8.214  0.3129  1.0276  0.8559
  425MOL0     C57270  12.016  11.789   8.129 -0.5953 -0.5177 -0.2025
  425MOL0     O57271  12.145  11.791   8.112 -0.2894 -0.4619  0.8790
  425MOL0     C57272  12.219  11.899   8.061  0.0998  0.9673 -0.3752
  425MOL0     C57273  12.353  11.863   8.018  0.3652  0.0895 -0.5015
  425MOL0     C57274  12.446  11.960   8.002  0.1475 -1.2876  0.2093
  425MOL0     C57275  12.409  12.093   8.014  0.4723 -0.1505  0.4940
  425MOL0     O57276  12.490  12.201   7.978 -0.3058  0.3126  0.0583
  425MOL0     C57277  12.500  12.302   8.074 -0.2689 -0.5211 -0.8622
  425MOL0     C57278  12.624  12.391   8.085 -0.2240  0.8290  1.2925
  425MOL0     C57279  12.597  12.523   8.164  0.2487  0.6006 -0.2394
  425MOL0     C57280  12.726  12.607   8.162 -0.3545  0.2308  0.2391
  425MOL0     C57281  12.834  12.559   8.254  0.9979  0.5083 -0.0024
  425MOL0     C57282  12.953  12.654   8.251  0.3607 -0.6620 -0.2732
  425MOL0     C57283  13.040  12.617   8.360  0.6165 -0.1858 -0.4745
  425MOL0     C57284  13.176  12.677   8.346  0.2809  0.4971 -0.9902
  425MOL0    Cl57285  13.284  12.614   8.483 -0.0917  0.4369  0.0760
  425MOL0     C57286  12.271  12.129   8.041 -0.2302  0.6665  0.2232
  425MOL0     C57287  12.173  12.031   8.060  0.3175 -0.0619  0.2718
  425MOL0     O57288  11.937  11.858   8.065 -0.0207 -0.9560  0.3037
  425MOL0     C57289  12.011  11.635   8.322 -0.6617  0.6187  0.1655
  425MOL0     C57290  11.961  11.533   8.395  0.8228  0.7868  0.9568
  425MOL0     N57291  11.833  11.041   8.928  0.0644  0.1931  0.3526
  425MOL0     N57292  11.804  11.056   9.062 -0.6450 -0.2348  1.1152
  425MOL0     C57293  10.988  10.500   9.614  0.8115 -0.2676  0.1477
  425MOL0     C57294  10.855  10.450   9.603  0.1286 -0.1051 -0.7212
  425MOL0     C57295  10.382  10.516   9.598 -0.0083  0.5459 -0.3743
  425MOL0     C57296  10.267  10.482   9.677 -0.5152 -1.3225 -0.0607
  425MOL0     C57297  10.136  10.486   9.625 -0.7395 -0.1726  0.6282
  425MOL0     C57298  10.119  10.513   9.490  0.4929  0.8300  0.0014
  425MOL0     O57299  10.001  10.524   9.423  0.3781  0.3528  0.0528
  425MOL0     C57300   9.880  10.499   9.482 -0.4257 -0.1495  0.2576
  425MOL0     C57301   9.849  10.350   9.506  0.4541  0.1807 -0.1306
  425MOL0     C57302   9.891  10.261   9.391  0.6457  0.2971  0.2766
  425MOL0     C57303   9.809  10.127   9.378 -0.1508 -0.0576 -1.1127
  425MOL0     C57304   9.783  10.078   9.247  0.9950  0.2154 -0.1664
  425MOL0     C57305   9.786  10.045   9.127 -0.5495 -1.0736  0.5459
  425MOL0     C57306  10.225  10.545   9.411  0.2387  0.6237 -0.5410
  425MOL0     C57307  10.353  10.551   9.467  0.3098 -0.6313 -0.7968
  425MOL0     H57308  10.694  10.747   9.563  1.5020  1.8491 -2.5008
  425MOL0     H57309  10.922  10.838   9.590  2.3127  0.7448 -3.4826
  425MOL0     H57310  11.168  10.877   9.622  2.6494 -1.1656 -2.1236
  425MOL0     H57311  11.095  10.803   9.770  0.3469  0.7845  1.0891
  425MOL0     H57312  11.326  10.856   9.812 -3.0107  0.4182  1.9176
  425MOL0     H57313  11.296  10.678   9.806 -0.5370 -1.6909 -2.2510
  425MOL0     H57314  11.502  10.699   9.673 -0.7834 -3.8184 -4.2473
  425MOL0     H57315  11.384  10.709   9.554  2.9728 -0.1478 -1.4983
  425MOL0     H57316  11.401  10.979   9.608  2.1064  0.8947 -1.7750
  425MOL0     H57317  11.559  10.932   9.674  0.9671  0.1524 -1.1592
  425MOL0     H57318  11.618  10.827   9.460 -0.2824 -0.1678  1.0724
  425MOL0     H57319  11.445  10.834   9.408 -4.7870  3.3391  3.8823
  425MOL0     H57320  11.477  11.082   9.401  0.5127  1.0461 -1.0947
  425MOL0     H57321  11.627  11.072   9.472 -2.7958  0.8386  0.4107
  425MOL0     H57322  11.733  10.971   9.296  0.8139  3.2471 -0.3516
  425MOL0     H57323  11.583  10.933   9.201  1.1355 -0.6826 -0.1981
  425MOL0     H57324  11.679  11.216   9.275 -0.8494  0.4273  0.5109
  425MOL0     H57325  11.530  11.194   9.214  1.3123  0.9757  3.1176
  425MOL0     H57326  11.518  11.129   8.944  0.0996 -1.1789  1.3091
  425MOL0     H57327  11.746  10.987   8.671 -0.5900  0.2530 -1.9968
  425MOL0     H57328  11.578  11.036   8.704 -1.1490 -0.4649  4.1508
  425MOL0     H57329  11.813  11.220   8.634 -0.2450 -1.1184  0.3894
  425MOL0     H57330  11.638  11.268   8.651 -1.5239 -0.4348  1.1763
  425MOL0     H57331  11.594  11.109   8.461  1.7569 -1.7017 -2.1156
  425MOL0     H57332  11.766  11.089   8.439  2.5974  1.3955  1.9591
  425MOL0     H57333  11.598  11.342   8.432  0.6248 -1.1407  0.8024
  425MOL0     H57334  11.672  11.259   8.292  2.6897 -4.4277 -0.2596
  425MOL0     H57335  11.678  11.470   8.225  0.1261 -1.6063  2.6089
  425MOL0     H57336  11.685  11.801   8.123  1.9960  2.0465 -3.2082
  425MOL0     H57337  11.765  11.716   7.996 -1.9179 -0.0360 -0.1807
  425MOL0     H57338  11.630  11.637   8.070 -0.9501  2.1095 -2.8930
  425MOL0     H57339  12.382  11.760   7.998  0.3200 -0.1071  0.3900
  425MOL0     H57340  12.553  11.949   7.987  0.4711 -0.4273  1.6409
  425MOL0     H57341  12.413  12.368   8.064 -3.2198 -3.9719 -0.2310
  425MOL0     H57342  12.475  12.257   8.171 -1.6465  0.5653 -0.6912
  425MOL0     H57343  12.694  12.323   8.136 -2.9399 -2.3772  1.0938
  425MOL0     H57344  12.675  12.423   7.993 -1.3712  0.7185  0.6075
  425MOL0     H57345  12.575  12.505   8.270  0.8987 -0.0062 -0.1981
  425MOL0     H57346  12.518  12.584   8.120 -0.2996  1.0147  1.2488
  425MOL0     H57347  12.771  12.616   8.063 -2.4638  2.2464 -0.6341
  425MOL0     H57348  12.696  12.704   8.202  2.3712  0.7556  1.1886
  425MOL0     H57349  12.854  12.454   8.229  0.6506  0.4678 -0.1186
  425MOL0     H57350  12.798  12.559   8.358  0.2214  4.0339 -0.1478
  425MOL0     H57351  13.008  12.649   8.156  1.6440 -1.9812  0.4875
  425MOL0     H57352  12.928  12.758   8.274 -2.2296 -1.5721  1.3514
  425MOL0     H57353  13.038  12.508   8.362 -1.3656 -0.2158 -1.1633
  425MOL0     H57354  12.991  12.650   8.452 -0.6972 -3.7986  0.2573
  425MOL0     H57355  13.168  12.786   8.344 -0.6886  0.4546 -0.1078
  425MOL0     H57356  13.210  12.636   8.250  0.9800 -0.8665 -0.1995
  425MOL0     H57357  12.238  12.232   8.038  1.9518  1.4551 -4.3335
  425MOL0     H57358  12.068  12.057   8.076 -0.1691 -0.9994 -1.1905
  425MOL0     H57359  12.113  11.669   8.340 -0.7959  0.5336  1.0963
  425MOL0     H57360  12.023  11.500   8.478  1.6167 -1.0478 -0.3043
  425MOL0     H57361  11.065  10.425   9.622 -1.3631 -2.6929 -0.2837
  425MOL0     H57362  10.835  10.345   9.618  2.9462 -0.6193 -0.0222
  425MOL0     H57363  10.300  10.460   9.778  4.0235  1.9287 -0.5378
  425MOL0     H57364  10.051  10.461   9.687  1.1771  3.4819  5.4582
  425MOL0     H57365   9.861  10.553   9.575  0.0496  1.1717 -0.3956
  425MOL0     H57366   9.814  10.536   9.403  1.6249 -1.7178 -2.3664
  425MOL0     H57367   9.743  10.331   9.524  0.9913 -1.5177  1.4826
  425MOL0     H57368   9.897  10.322   9.600  1.0935 -2.1785 -1.0950
  425MOL0     H57369   9.998  10.238   9.397 -0.1100 -3.6853  4.5516
  425MOL0     H57370   9.874  10.315   9.298 -3.7032 -4.7217 -2.3312
  425MOL0     H57371   9.716  10.140   9.433 -0.5587 -1.4599 -1.4322
  425MOL0     H57372   9.874  10.059   9.432  0.8352  0.1846 -1.9548
  425MOL0     H57373   9.776  10.024   9.022  1.2940 -3.0887  0.7149
  425MOL0     H57374  10.201  10.567   9.308 -1.0567 -1.9247 -0.8673
  425MOL0     H57375  10.433  10.583   9.401  1.4564 -1.4169  0.1696
  426MOL0     O57376   1.206   0.800  10.096 -0.4307 -0.1454  0.2268
  426MOL0     C57377   1.163   0.846   9.995  0.0358 -0.7106 -0.4668
  426MOL0     O57378   1.033   0.829   9.954  1.0082  0.5072  0.2394
  426MOL0     C57379   0.934   0.768  10.036  0.5273 -0.2745  1.0847
  426MOL0     C57380   0.955   0.706  10.161  0.6726 -0.2946 -0.2706
  426MOL0     C57381   0.839   0.671  10.236 -1.3476  0.0988 -0.3190
  426MOL0     C57382   0.710   0.671  10.186 -0.0349  0.0263  0.2229
  426MOL0     O57383   0.604   0.628  10.264 -0.9820 -0.8101  0.0220
  426MOL0     C57384   0.491   0.555  10.203  0.8416  0.0480  0.5899
  426MOL0     C57385   0.428   0.461  10.300 -0.6367  0.5226 -0.8936
  426MOL0     C57386   0.336   0.353  10.233 -0.0611  0.3466  0.4994
  426MOL0     C57387   0.306   0.235  10.329  0.5132  0.0287  0.1325
  426MOL0     C57388   0.238   0.132  10.232  0.5685  1.7178 -0.3669
  426MOL0     C57389   0.156   0.027  10.309 -0.4502 -0.2678 -0.3692
  426MOL0     C57390   0.255  -0.084  10.369 -0.9932  0.5214 -0.0751
  426MOL0     C57391   0.167  -0.210  10.411  0.4965 -0.3314  0.4505
  426MOL0     N57392   0.249  -0.318  10.471 -0.3604 -0.3146 -0.4560
  426MOL0     C57393   0.359  -0.317  10.550 -0.7981 -0.9040  0.3578
  426MOL0     C57394   0.364  -0.420  10.629  0.7921  1.0190  0.2016
  426MOL0     C57395   0.467  -0.453  10.738  0.2105  0.1271 -0.2291
  426MOL0     C57396   0.552  -0.574  10.708  0.8226 -0.1892 -0.2198
  426MOL0     C57397   0.499  -0.691  10.792 -0.0077 -0.0087  0.4573
  426MOL0     C57398   0.575  -0.821  10.758  0.0813 -0.0451  0.5128
  426MOL0     O57399   0.709  -0.797  10.809  0.0614  0.6543 -0.1860
  426MOL0     C57400   0.775  -0.913  10.844 -0.0100  0.0939 -0.1511
  426MOL0     C57401   0.735  -0.990  10.957 -0.3674 -0.0294  0.0424
  426MOL0     C57402   0.807  -1.092  11.012  0.8058 -0.1592  0.7519
  426MOL0     C57403   0.753  -1.168  11.134 -0.1740  0.1696 -0.0632
  426MOL0     C57404   0.933  -1.129  10.948 -0.0027  0.2092  0.4830
  426MOL0     C57405   1.024  -1.232  10.996  0.3982 -0.9617  0.0689
  426MOL0     O57406   1.133  -1.263  10.926  0.2032  0.6564 -0.0931
  426MOL0     C57407   1.230  -1.355  10.981 -0.3667 -0.8997 -0.7398
  426MOL0     C57408   1.360  -1.337  10.927  0.7219 -0.1995 -0.1817
  426MOL0     C57409   1.467  -1.422  10.959  0.0997 -0.6251 -1.1651
  426MOL0     C57410   1.454  -1.525  11.056  1.0508 -0.0585  0.1287
  426MOL0     O57411   1.565  -1.597  11.087  0.3830  0.3137 -0.3772
  426MOL0     C57412   1.522  -1.731  11.136 -0.2003 -1.2929 -0.2325
  426MOL0     C57413   1.644  -1.828  11.120 -0.1597  0.8418 -0.0566
  426MOL0     C57414   1.652  -1.969  11.174 -0.3054  0.5892 -0.0276
  426MOL0     C57415   1.596  -1.987  11.309  0.1911  0.0179  0.0394
  426MOL0     C57416   1.629  -2.121  11.384  0.4785 -1.6910 -0.0172
  426MOL0     C57417   1.599  -2.244  11.310  0.2059 -0.2070 -0.0887
  426MOL0     C57418   1.451  -2.275  11.331  0.4279  1.1874 -0.5476
  426MOL0     C57419   1.410  -2.400  11.243  0.4992 -0.0266 -0.5314
  426MOL0    Cl57420   1.236  -2.459  11.272 -0.6447  0.0328  0.0887
  426MOL0     C57421   1.322  -1.535  11.112  0.0143 -0.7607  0.4366
  426MOL0     C57422   1.204  -1.460  11.070 -0.5025  0.5022  0.1141
  426MOL0     O57423   1.010  -1.260  11.116  0.8765 -0.4983 -0.1321
  426MOL0     C57424   0.972  -1.053  10.830 -0.8325  0.0062 -1.1433
  426MOL0     C57425   0.898  -0.949  10.785  0.1390 -0.8788 -0.5291
  426MOL0     N57426   0.254  -0.507  10.588 -0.7891 -0.2886  0.4125
  426MOL0     N57427   0.194  -0.436  10.493 -1.2620  0.0644 -1.2502
  426MOL0     C57428   0.701   0.707  10.053  0.9210 -1.0464  0.1703
  426MOL0     C57429   0.808   0.769   9.981  0.1960 -0.3974 -0.1048
  426MOL0     C57430   1.243   0.936   9.918 -0.1172 -0.6122 -0.2371
  426MOL0     C57431   1.367   1.003   9.968 -0.4213 -0.0672 -0.4601
  426MOL0     C57432   1.439   1.098   9.890 -0.7448 -0.0568  0.4660
  426MOL0     C57433   1.395   1.126   9.765 -0.1475  0.4362  0.7169
  426MOL0     O57434   1.471   1.227   9.704 -0.0771  0.1310  0.2862
  426MOL0     C57435   1.432   1.283   9.579  0.3377 -0.1680 -0.2861
  426MOL0     C57436   1.494   1.204   9.463 -0.3609  0.0629 -0.5283
  426MOL0     C57437   1.510   1.292   9.337  0.2635  0.8971 -0.4135
  426MOL0     C57438   1.376   1.350   9.283 -1.7283 -0.5146 -0.5274
  426MOL0     C57439   1.411   1.407   9.154  0.2047 -0.5205 -0.6871
  426MOL0     C57440   1.448   1.467   9.061 -1.0470 -0.2754 -0.1090
  426MOL0     C57441   1.276   1.070   9.721  0.2842 -0.3600  0.4713
  426MOL0     C57442   1.200   0.974   9.791 -0.0444 -0.0811 -0.3959
  426MOL0     H57443   1.054   0.704  10.207  1.1463  0.9088 -1.1918
  426MOL0     H57444   0.852   0.653  10.342 -1.7564  2.2803  0.1470
  426MOL0     H57445   0.419   0.622  10.154  1.5579  2.1592  2.2473
  426MOL0     H57446   0.545   0.497  10.128  1.5202  0.0868  1.0397
  426MOL0     H57447   0.503   0.404  10.356 -4.5717 -2.3252  2.0646
  426MOL0     H57448   0.382   0.519  10.381  2.6726 -2.4156  3.6217
  426MOL0     H57449   0.245   0.402  10.197  0.8728  0.0852 -2.4805
  426MOL0     H57450   0.382   0.321  10.139  0.1790  0.9018  0.4236
  426MOL0     H57451   0.393   0.195  10.382  1.8332  1.7820 -0.6093
  426MOL0     H57452   0.234   0.273  10.402  0.2486  4.2809 -2.0325
  426MOL0     H57453   0.154   0.171  10.173 -0.3000 -0.1933 -0.4586
  426MOL0     H57454   0.304   0.084  10.159 -1.1481  2.3274 -2.4060
  426MOL0     H57455   0.100   0.084  10.383 -1.1200 -1.1840 -0.1444
  426MOL0     H57456   0.087  -0.026  10.243 -0.7481 -0.0920 -0.1968
  426MOL0     H57457   0.325  -0.129  10.298  1.0594 -2.4240  3.4345
  426MOL0     H57458   0.320  -0.053  10.451  2.4916 -2.1150 -1.5634
  426MOL0     H57459   0.108  -0.244  10.326  1.3329  0.5927 -0.5276
  426MOL0     H57460   0.094  -0.169  10.482  3.0741  1.7870  2.1011
  426MOL0     H57461   0.428  -0.234  10.563  0.3804 -1.6177 -1.0190
  426MOL0     H57462   0.528  -0.363  10.750  1.9671 -0.8287 -1.5570
  426MOL0     H57463   0.422  -0.463  10.837 -2.4626  0.5106 -1.3036
  426MOL0     H57464   0.658  -0.558  10.727  0.8167  0.4548 -0.6791
  426MOL0     H57465   0.556  -0.589  10.600  0.2647 -0.0074 -0.2699
  426MOL0     H57466   0.390  -0.698  10.793  0.0839 -2.1080  0.8371
  426MOL0     H57467   0.512  -0.673  10.899 -0.0470 -1.1941  0.6824
  426MOL0     H57468   0.567  -0.836  10.650 -0.2632 -4.4159  0.9797
  426MOL0     H57469   0.540  -0.912  10.806  1.2104 -1.5724 -1.3998
  426MOL0     H57470   0.639  -0.967  11.003 -0.1103  0.1763  0.4848
  426MOL0     H57471   0.650  -1.147  11.164  0.0688  2.6714 -0.7743
  426MOL0     H57472   0.766  -1.276  11.121  0.2323  0.3869 -1.7708
  426MOL0     H57473   0.813  -1.143  11.222  0.9637 -3.3209  0.3405
  426MOL0     H57474   1.381  -1.257  10.856 -0.7977 -0.0712 -0.5182
  426MOL0     H57475   1.568  -1.414  10.921  1.2529  2.9702  2.0158
  426MOL0     H57476   1.489  -1.717  11.239 -4.3827 -1.4815 -1.3812
  426MOL0     H57477   1.433  -1.763  11.081 -0.4649 -0.3834 -0.3528
  426MOL0     H57478   1.670  -1.826  11.014  2.9482  1.5106  0.6186
  426MOL0     H57479   1.729  -1.775  11.166 -0.6310  1.7154 -0.1635
  426MOL0     H57480   1.746  -2.021  11.154 -0.2304  0.9169 -0.5336
  426MOL0     H57481   1.584  -2.027  11.111  1.8941 -2.0768 -0.1352
  426MOL0     H57482   1.650  -1.910  11.365  1.2282  0.0584 -0.9787
  426MOL0     H57483   1.488  -1.974  11.308  0.2104  0.4546  1.2164
  426MOL0     H57484   1.585  -2.102  11.482 -0.8780  2.4177 -1.2421
  426MOL0     H57485   1.739  -2.113  11.386  0.7021  0.4068 -4.9997
  426MOL0     H57486   1.625  -2.229  11.205  0.2268  2.5037  0.2325
  426MOL0     H57487   1.663  -2.323  11.349  1.2055  0.3188 -0.6396
  426MOL0     H57488   1.388  -2.191  11.300 -0.6415  0.6279  0.0367
  426MOL0     H57489   1.415  -2.299  11.431 -2.0567 -1.0096 -1.8205
  426MOL0     H57490   1.479  -2.482  11.265  1.5110  1.0260  0.3850
  426MOL0     H57491   1.419  -2.363  11.141 -0.6685  1.4196 -0.1573
  426MOL0     H57492   1.302  -1.605  11.193  3.4749 -0.8849  1.3249
  426MOL0     H57493   1.105  -1.486  11.106  1.5111 -4.2377  3.2966
  426MOL0     H57494   1.068  -1.068  10.781  0.9010  1.8888  1.3900
  426MOL0     H57495   0.946  -0.891  10.708 -0.4384  0.5546  0.1519
  426MOL0     H57496   0.599   0.730  10.024  1.3112  0.5719 -0.0231
  426MOL0     H57497   0.798   0.822   9.887 -1.2265 -2.0163 -0.9068
  426MOL0     H57498   1.411   0.983  10.066 -0.9260  0.8556 -0.0216
  426MOL0     H57499   1.536   1.137   9.922 -0.5499  1.1212 -1.4241
  426MOL0     H57500   1.325   1.301   9.561  0.6245 -1.3436 -4.3288
  426MOL0     H57501   1.487   1.377   9.575 -0.1105  0.0691 -2.6234
  426MOL0     H57502   1.428   1.121   9.436 -1.2272  1.2778 -2.3914
  426MOL0     H57503   1.594   1.167   9.488  0.0323  2.1863  1.3716
  426MOL0     H57504   1.551   1.232   9.255  2.2037  2.3420 -0.5750
  426MOL0     H57505   1.575   1.376   9.361 -0.5587  0.9456  1.8430
  426MOL0     H57506   1.339   1.438   9.338  5.0118  2.5004  0.2323
  426MOL0     H57507   1.296   1.275   9.286 -1.1617 -1.2114 -2.0542
  426MOL0     H57508   1.487   1.535   8.988 -1.2472 -0.7948 -0.7135
  426MOL0     H57509   1.236   1.108   9.627  3.9368  0.0654 -1.0896
  426MOL0     H57510   1.113   0.919   9.754  0.9840 -0.5675 -2.2203
  427MOL0     O57511   5.091   1.870   8.149  0.1498  0.3399 -0.7165
  427MOL0     C57512   5.128   1.942   8.060 -0.9689 -2.2286  0.1555
  427MOL0     O57513   5.254   1.949   8.003  0.5480  0.1993 -0.4118
  427MOL0     C57514   5.336   1.850   8.062  0.1589  0.2332  0.6479
  427MOL0     C57515   5.456   1.892   8.121 -0.7296 -0.0355 -0.1047
  427MOL0     C57516   5.549   1.797   8.174  0.7320  0.2372 -0.5716
  427MOL0     C57517   5.520   1.654   8.183  0.0556  0.1710  0.0645
  427MOL0     O57518   5.614   1.560   8.223  0.2721  0.6648  0.0056
  427MOL0     C57519   5.648   1.449   8.132 -0.1126 -0.5099  0.0382
  427MOL0     C57520   5.777   1.394   8.173 -0.0423  1.4664 -0.9273
  427MOL0     C57521   5.792   1.247   8.126  0.5598  0.3715 -0.0738
  427MOL0     C57522   5.795   1.248   7.970 -0.4621  0.6482 -0.0066
  427MOL0     C57523   5.846   1.107   7.931 -0.5443 -0.2101  0.2999
  427MOL0     C57524   5.846   1.081   7.780 -0.1254  0.2252  0.3616
  427MOL0     C57525   5.971   1.021   7.703  0.8733  0.4196  0.1269
  427MOL0     C57526   6.074   1.126   7.663 -0.2656 -0.2958 -0.4732
  427MOL0     N57527   6.027   1.199   7.542  0.2324 -0.3629  0.9421
  427MOL0     C57528   6.032   1.173   7.408 -0.2534 -0.8246  0.2132
  427MOL0     C57529   5.990   1.277   7.331  0.3344  0.5965  0.1302
  427MOL0     C57530   5.969   1.306   7.183  0.1088 -0.2530 -0.8908
  427MOL0     C57531   6.068   1.246   7.093 -0.7982  0.1098 -0.1327
  427MOL0     C57532   6.007   1.219   6.955 -0.2603 -0.1855  0.4685
  427MOL0     C57533   6.096   1.116   6.884 -0.2116  0.5354 -0.8703
  427MOL0     O57534   6.051   1.127   6.745 -0.0163 -0.5000  0.2718
  427MOL0     C57535   6.137   1.099   6.641 -0.0277  0.0901  0.5490
  427MOL0     C57536   6.278   1.109   6.644 -0.4947 -0.2210  0.5359
  427MOL0     C57537   6.362   1.063   6.533  0.0281 -0.1724 -1.1559
  427MOL0     C57538   6.511   1.081   6.552 -0.3065  0.4621 -0.2057
  427MOL0     C57539   6.307   0.997   6.424  0.4910  1.0014 -0.1647
  427MOL0     C57540   6.383   0.955   6.310 -0.9583  0.1475 -0.3177
  427MOL0     O57541   6.379   1.020   6.188  0.1568  0.2873  0.0037
  427MOL0     C57542   6.482   0.993   6.094  0.2936 -0.2291 -0.5913
  427MOL0     C57543   6.461   1.028   5.963  0.9165 -0.0010 -0.1223
  427MOL0     C57544   6.559   1.023   5.869 -1.1672  0.0669 -0.1843
  427MOL0     C57545   6.682   0.976   5.894 -0.2212  1.5169 -0.8844
  427MOL0     O57546   6.761   0.944   5.785 -0.4286 -0.3232 -0.0589
  427MOL0     C57547   6.901   0.958   5.798 -0.3937  0.4362  0.1738
  427MOL0     C57548   6.963   0.977   5.657  0.1644  0.2612 -0.6304
  427MOL0     C57549   6.914   0.878   5.554 -0.5622  0.8698 -0.1630
  427MOL0     C57550   6.963   0.730   5.578  0.1194 -0.2360 -0.6661
  427MOL0     C57551   6.901   0.639   5.464 -0.7583 -0.3475  1.2243
  427MOL0     C57552   6.750   0.602   5.496 -0.6644  0.1261 -0.0406
  427MOL0     C57553   6.704   0.464   5.462  0.6440  0.1157  0.3301
  427MOL0     C57554   6.559   0.441   5.487  0.5605  0.4531 -0.0056
  427MOL0    Cl57555   6.555   0.440   5.661  0.2837 -0.4708  0.4158
  427MOL0     C57556   6.710   0.944   6.027  0.2465  0.4925  1.0086
  427MOL0     C57557   6.617   0.952   6.129 -0.8105  0.1808 -0.1217
  427MOL0     O57558   6.460   0.862   6.345 -0.1569 -0.2109  0.7028
  427MOL0     C57559   6.165   0.979   6.420 -0.2139 -0.5982  0.3421
  427MOL0     C57560   6.088   1.038   6.519  0.4931 -0.4210  0.4609
  427MOL0     N57561   5.959   1.370   7.424 -0.4266 -0.1585  0.2234
  427MOL0     N57562   5.979   1.319   7.545  1.3730  0.2640  0.0695
  427MOL0     C57563   5.395   1.623   8.135  0.6973 -0.0123  0.8847
  427MOL0     C57564   5.312   1.713   8.068  0.2410  0.3718  0.2204
  427MOL0     C57565   5.021   2.032   8.004  0.7638  0.7047 -0.2018
  427MOL0     C57566   5.030   2.103   7.886  0.2998  0.1318 -1.4760
  427MOL0     C57567   4.914   2.166   7.829 -0.0819 -0.5470  0.2117
  427MOL0     C57568   4.791   2.182   7.903  0.1260  0.6317  0.9957
  427MOL0     O57569   4.694   2.255   7.858 -0.2576 -0.1827  0.5395
  427MOL0     C57570   4.698   2.393   7.889 -0.4136 -0.4983 -0.1158
  427MOL0     C57571   4.558   2.433   7.905 -0.2986 -0.3003  0.2372
  427MOL0     C57572   4.483   2.362   8.029 -1.1072 -1.0436 -0.1188
  427MOL0     C57573   4.386   2.243   7.977 -0.0727  0.3799  0.0061
  427MOL0     C57574   4.306   2.173   8.091  0.7461  0.1773  0.7237
  427MOL0     C57575   4.251   2.126   8.182  0.8778  0.7149  0.1087
  427MOL0     C57576   4.788   2.128   8.027 -1.2037  0.2198 -1.1175
  427MOL0     C57577   4.895   2.046   8.068 -0.0276  1.0784 -0.7696
  427MOL0     H57578   5.474   1.998   8.108 -4.0754  0.7372  0.5494
  427MOL0     H57579   5.648   1.821   8.212 -0.0636  3.1306 -0.0545
  427MOL0     H57580   5.575   1.368   8.143  0.2694 -0.8256  0.2925
  427MOL0     H57581   5.639   1.477   8.027 -3.4671  0.3044  0.4192
  427MOL0     H57582   5.861   1.446   8.126  1.9191 -1.0957 -0.4985
  427MOL0     H57583   5.781   1.407   8.281 -0.9528  0.9780 -0.8296
  427MOL0     H57584   5.881   1.196   8.165  0.2016 -1.6173 -1.6675
  427MOL0     H57585   5.706   1.184   8.152 -1.0984  1.3638 -2.7100
  427MOL0     H57586   5.698   1.263   7.922 -0.1069  0.8459 -0.6877
  427MOL0     H57587   5.860   1.327   7.930 -0.6271  1.2492  0.8673
  427MOL0     H57588   5.951   1.109   7.963 -0.1842 -2.5718 -0.4959
  427MOL0     H57589   5.795   1.030   7.990  0.9190 -1.2494  0.2804
  427MOL0     H57590   5.760   1.015   7.768 -0.4300  0.8449 -1.0566
  427MOL0     H57591   5.818   1.173   7.728 -1.3109 -0.5107 -0.3518
  427MOL0     H57592   6.014   0.942   7.765 -0.1799 -2.5641 -2.6469
  427MOL0     H57593   5.934   0.968   7.615  3.3310 -2.1857  0.4926
  427MOL0     H57594   6.169   1.078   7.639  0.7056  2.3331 -2.3273
  427MOL0     H57595   6.092   1.186   7.753  2.7207 -1.0397 -0.4752
  427MOL0     H57596   6.069   1.086   7.354  0.1222  0.7871 -2.2968
  427MOL0     H57597   5.870   1.265   7.159 -0.2970  1.1836 -1.7893
  427MOL0     H57598   5.972   1.412   7.159 -1.2247  0.6050  2.2241
  427MOL0     H57599   6.102   1.155   7.143 -0.9259 -0.9475 -1.8985
  427MOL0     H57600   6.145   1.323   7.083  0.3928 -0.3614  3.5806
  427MOL0     H57601   5.987   1.311   6.899  1.1182  1.7178  2.8825
  427MOL0     H57602   5.911   1.167   6.962 -1.6087  1.5808 -2.7911
  427MOL0     H57603   6.082   1.022   6.938 -0.7282  0.8516 -0.4314
  427MOL0     H57604   6.199   1.149   6.899  0.4031 -1.5499 -0.1291
  427MOL0     H57605   6.334   1.159   6.722  1.9030 -3.4743  1.1073
  427MOL0     H57606   6.532   1.165   6.486  0.3720  1.7672  1.5815
  427MOL0     H57607   6.529   1.127   6.650 -2.1402  1.1294 -0.1415
  427MOL0     H57608   6.572   0.994   6.524 -1.8807 -0.3956 -1.1010
  427MOL0     H57609   6.362   1.055   5.927  0.3966 -2.6440 -0.8870
  427MOL0     H57610   6.523   1.045   5.769 -0.1001 -0.2635 -0.6512
  427MOL0     H57611   6.918   1.052   5.849 -0.4266  2.1672 -2.7486
  427MOL0     H57612   6.952   0.874   5.846  0.3826  0.9255  0.2135
  427MOL0     H57613   6.932   1.074   5.618 -0.7593 -0.0235 -0.6386
  427MOL0     H57614   7.072   0.967   5.668 -0.0195  0.1097  1.3128
  427MOL0     H57615   6.955   0.900   5.455 -3.4579  1.4085 -1.3472
  427MOL0     H57616   6.807   0.882   5.533 -0.6336 -1.2462 -0.4506
  427MOL0     H57617   7.072   0.720   5.579  0.1182 -0.8181  1.9308
  427MOL0     H57618   6.954   0.692   5.680 -4.0507  0.7835 -0.4634
  427MOL0     H57619   6.963   0.549   5.456  2.8715  2.1864 -3.2695
  427MOL0     H57620   6.911   0.686   5.366  0.9443 -4.2368 -0.7003
  427MOL0     H57621   6.742   0.608   5.605 -0.3310 -3.0982  0.2437
  427MOL0     H57622   6.684   0.681   5.459 -0.3756  0.5603  0.3616
  427MOL0     H57623   6.758   0.388   5.520 -1.1397 -1.2085  0.3276
  427MOL0     H57624   6.719   0.445   5.356 -4.6608  1.3786 -0.9534
  427MOL0     H57625   6.520   0.342   5.460 -0.6929  0.8326  0.3333
  427MOL0     H57626   6.497   0.517   5.439  0.3645  0.5901  0.4598
  427MOL0     H57627   6.810   0.918   6.059 -1.1031 -3.8571  2.4387
  427MOL0     H57628   6.652   0.922   6.227  1.2660  0.7282 -0.6651
  427MOL0     H57629   6.124   0.921   6.339  1.6553 -0.6672 -0.6053
  427MOL0     H57630   5.980   1.025   6.525  0.2495  1.2504  0.1117
  427MOL0     H57631   5.365   1.519   8.135  0.9058 -0.1965  4.3719
  427MOL0     H57632   5.233   1.677   8.002  2.2905 -1.4128 -1.4052
  427MOL0     H57633   5.119   2.099   7.823  1.4398 -1.4282  0.1115
  427MOL0     H57634   4.918   2.215   7.733 -1.4306 -0.9319 -0.0654
  427MOL0     H57635   4.748   2.413   7.984  0.3033 -4.3033  0.4539
  427MOL0     H57636   4.747   2.452   7.811 -1.2133  0.9010  0.4151
  427MOL0     H57637   4.503   2.409   7.814 -0.8590 -0.8465  0.7060
  427MOL0     H57638   4.554   2.540   7.929  1.8352 -0.7274  3.0031
  427MOL0     H57639   4.424   2.439   8.081 -0.7209 -2.3881  2.4349
  427MOL0     H57640   4.561   2.317   8.091 -1.5006 -1.6827 -0.0800
  427MOL0     H57641   4.446   2.175   7.917  0.2384 -0.3153  1.0765
  427MOL0     H57642   4.311   2.278   7.906 -1.3334 -0.7607  0.7341
  427MOL0     H57643   4.211   2.084   8.272 -1.0085  1.9599 -0.0917
  427MOL0     H57644   4.700   2.125   8.091  0.3948 -3.0528  1.2082
  427MOL0     H57645   4.888   1.987   8.159 -1.2122 -1.7001 -2.5287
  428MOL0     O57646   6.049   9.983   0.325  1.1529  0.1962 -0.1278
  428MOL0     C57647   5.988  10.079   0.281 -0.6477 -0.5334  0.4722
  428MOL0     O57648   6.048  10.183   0.222 -0.0593 -0.5203 -0.1190
  428MOL0     C57649   6.189  10.195   0.242  0.5837 -0.2088 -0.4946
  428MOL0     C57650   6.270  10.117   0.160  0.5151  0.2339 -0.5497
  428MOL0     C57651   6.411  10.144   0.151  0.0487 -0.2663 -0.4930
  428MOL0     C57652   6.474  10.245   0.238 -1.0382 -0.8036  0.0470
  428MOL0     O57653   6.617  10.254   0.234 -0.4815 -0.0722  0.3267
  428MOL0     C57654   6.677  10.367   0.291  0.2458  0.2140 -0.4151
  428MOL0     C57655   6.807  10.402   0.217  1.6309 -0.0561  0.7259
  428MOL0     C57656   6.907  10.290   0.227  0.1319  1.4769  0.7979
  428MOL0     C57657   7.033  10.327   0.154  0.2579 -0.9215  0.5423
  428MOL0     C57658   7.129  10.206   0.109  0.9961 -0.3652  0.3117
  428MOL0     C57659   7.256  10.189   0.178 -0.1232 -0.0231 -0.1838
  428MOL0     C57660   7.242  10.131   0.329  0.4533 -0.3657  0.6894
  428MOL0     C57661   7.128  10.025   0.355 -0.1812 -0.9083 -0.0869
  428MOL0     N57662   7.168   9.894   0.303  0.0102 -0.3769 -0.2072
  428MOL0     C57663   7.200   9.848   0.173 -0.0234  0.6152  0.2365
  428MOL0     C57664   7.230   9.714   0.187  0.4589  0.6070 -0.2679
  428MOL0     C57665   7.251   9.601   0.087 -0.8014 -0.0416 -0.5327
  428MOL0     C57666   7.127   9.502   0.059  0.4419 -0.6916 -1.0384
  428MOL0     C57667   7.122   9.378   0.143 -1.0862  0.4517  0.1840
  428MOL0     C57668   7.068   9.406   0.282 -0.4026 -1.2563  1.0949
  428MOL0     O57669   7.008   9.279   0.323 -0.9132 -0.2402 -0.6586
  428MOL0     C57670   6.887   9.284   0.380 -0.4451 -0.6870  0.5214
  428MOL0     C57671   6.783   9.370   0.355  0.0616  0.5284  0.2840
  428MOL0     C57672   6.673   9.390   0.438  0.3136  0.3972 -0.0843
  428MOL0     C57673   6.577   9.495   0.381 -0.4815  0.1555 -0.6801
  428MOL0     C57674   6.668   9.330   0.564  0.9171 -0.9240  0.1689
  428MOL0     C57675   6.572   9.357   0.674 -0.0324  0.1483 -0.2804
  428MOL0     O57676   6.493   9.478   0.672  0.2692  0.0310  0.0582
  428MOL0     C57677   6.388   9.480   0.760 -0.0860 -0.5552  0.0385
  428MOL0     C57678   6.370   9.588   0.841 -0.3858 -0.2802  0.4967
  428MOL0     C57679   6.253   9.606   0.914  0.4684 -0.5118  0.4540
  428MOL0     C57680   6.160   9.500   0.918  0.6140 -0.2917  0.2050
  428MOL0     O57681   6.046   9.529   0.998 -0.7863 -0.4025  0.6919
  428MOL0     C57682   5.969   9.413   1.038  0.2697  0.4480 -0.2679
  428MOL0     C57683   5.893   9.441   1.180 -0.0971 -0.9177  1.2102
  428MOL0     C57684   5.988   9.418   1.297  0.1172 -1.3939 -0.6512
  428MOL0     C57685   5.920   9.375   1.426  0.4075 -1.0995 -0.1273
  428MOL0     C57686   6.008   9.362   1.547  0.2105 -0.3976 -0.1741
  428MOL0     C57687   6.004   9.497   1.616 -0.0270  0.2404 -0.2096
  428MOL0     C57688   6.098   9.484   1.737 -0.3730  0.0397 -0.8291
  428MOL0     C57689   6.081   9.601   1.829 -0.9930 -0.0301  0.7908
  428MOL0    Cl57690   6.189   9.591   1.965 -0.0068  0.3152  0.2867
  428MOL0     C57691   6.168   9.389   0.831  0.7056 -0.6071 -0.1412
  428MOL0     C57692   6.282   9.382   0.752 -0.0373  0.2589  0.5304
  428MOL0     O57693   6.552   9.267   0.757  0.4153  0.2575  0.5141
  428MOL0     C57694   6.765   9.230   0.589  0.3241  0.4194  0.6504
  428MOL0     C57695   6.868   9.212   0.498  0.0922  0.7971  0.7303
  428MOL0     N57696   7.224   9.683   0.324  0.2932 -0.2055 -0.9311
  428MOL0     N57697   7.167   9.785   0.387 -0.4485  0.2035  0.1896
  428MOL0     C57698   6.384  10.318   0.319  0.3432 -1.1502  0.9296
  428MOL0     C57699   6.246  10.300   0.311 -0.6865  0.1422  0.5569
  428MOL0     C57700   5.837  10.082   0.285  0.1615  0.0357  1.0241
  428MOL0     C57701   5.762  10.129   0.173  0.0786  0.2018 -0.2921
  428MOL0     C57702   5.622  10.142   0.173  0.0084 -0.0997  0.2732
  428MOL0     C57703   5.554  10.144   0.296 -0.5629  0.0893  0.0183
  428MOL0     O57704   5.418  10.142   0.312 -0.0648  0.4539 -1.0338
  428MOL0     C57705   5.347  10.235   0.235 -0.0625  0.0764 -0.7219
  428MOL0     C57706   5.226  10.302   0.310  0.2384  0.8086  1.3583
  428MOL0     C57707   5.278  10.392   0.423  0.3481 -0.2993  0.1494
  428MOL0     C57708   5.366  10.317   0.521 -0.1285  0.2049 -0.9209
  428MOL0     C57709   5.345  10.365   0.655 -0.1051  0.0165  0.7769
  428MOL0     C57710   5.314  10.411   0.762  0.5541 -0.1842 -0.3500
  428MOL0     C57711   5.626  10.092   0.401  0.3678  0.1169  0.0217
  428MOL0     C57712   5.766  10.069   0.402 -0.4043 -1.1267 -0.1116
  428MOL0     H57713   6.233  10.035   0.098  2.3528 -1.8056  0.8685
  428MOL0     H57714   6.479  10.090   0.085  1.1615  1.0255 -0.4599
  428MOL0     H57715   6.608  10.452   0.292 -1.4053 -1.0562 -1.2417
  428MOL0     H57716   6.689  10.356   0.399 -0.1722  0.3417 -0.3544
  428MOL0     H57717   6.782  10.410   0.110  0.4506 -2.5127  0.7371
  428MOL0     H57718   6.840  10.498   0.255 -3.0034  1.7999  0.7516
  428MOL0     H57719   6.935  10.265   0.330  0.8248 -1.7486 -0.0550
  428MOL0     H57720   6.871  10.198   0.180  0.8787  0.8888  1.3462
  428MOL0     H57721   7.003  10.375   0.060  1.3710  0.8989  1.0647
  428MOL0     H57722   7.081  10.412   0.203  3.0552 -2.3229  0.4061
  428MOL0     H57723   7.071  10.114   0.114 -0.4648  0.4699 -0.5260
  428MOL0     H57724   7.146  10.225   0.003 -0.9971 -2.3462 -0.4488
  428MOL0     H57725   7.325  10.126   0.121  0.1572 -1.8390  1.9940
  428MOL0     H57726   7.315  10.281   0.185  1.9077 -1.3592  1.8253
  428MOL0     H57727   7.333  10.079   0.360  0.0606 -1.6864 -0.2961
  428MOL0     H57728   7.238  10.211   0.404  1.6105 -1.7221  2.2612
  428MOL0     H57729   7.033  10.062   0.314 -0.0418 -1.0858 -0.5736
  428MOL0     H57730   7.102  10.019   0.461 -1.9476 -1.3518 -0.5021
  428MOL0     H57731   7.196   9.905   0.080  2.6569 -1.5523 -1.3227
  428MOL0     H57732   7.282   9.651  -0.006 -2.2141  4.8804  1.3493
  428MOL0     H57733   7.334   9.540   0.125  2.5676  2.7509 -2.6554
  428MOL0     H57734   7.122   9.484  -0.048 -1.4987 -0.5173 -1.0097
  428MOL0     H57735   7.034   9.558   0.073  1.2930  0.1139  2.3187
  428MOL0     H57736   7.225   9.339   0.146 -0.8358  0.8179 -2.0992
  428MOL0     H57737   7.066   9.298   0.095 -2.8139  2.1404 -0.7299
  428MOL0     H57738   7.003   9.492   0.266  1.6786  0.1399 -0.4236
  428MOL0     H57739   7.135   9.430   0.365 -2.6000  0.1084  2.5616
  428MOL0     H57740   6.798   9.426   0.263 -3.5780  0.8601 -0.2257
  428MOL0     H57741   6.470   9.488   0.404 -0.1887 -0.3447  0.5835
  428MOL0     H57742   6.613   9.586   0.430  3.0285 -2.1254  1.4766
  428MOL0     H57743   6.574   9.506   0.272  0.4120  1.8004 -0.5621
  428MOL0     H57744   6.448   9.664   0.839 -1.1254  0.4702 -1.2978
  428MOL0     H57745   6.235   9.690   0.980 -0.9770  0.8771 -1.5847
  428MOL0     H57746   5.908   9.386   0.952  1.3794  3.1955 -2.0719
  428MOL0     H57747   6.032   9.326   1.057 -1.0804 -0.4462  0.2671
  428MOL0     H57748   5.872   9.548   1.173 -0.5019 -0.8952  2.4710
  428MOL0     H57749   5.803   9.379   1.175 -1.0923  0.5520 -1.2177
  428MOL0     H57750   6.026   9.519   1.315  0.3561 -1.6319  0.2097
  428MOL0     H57751   6.074   9.353   1.280  0.9745 -0.5062  0.2100
  428MOL0     H57752   5.840   9.444   1.452  3.0477  1.6730  1.3500
  428MOL0     H57753   5.869   9.281   1.404 -0.5560 -1.0339  1.6537
  428MOL0     H57754   6.114   9.344   1.525  0.7084  0.4239  1.3721
  428MOL0     H57755   5.975   9.285   1.618  0.2513  1.8806  2.4720
  428MOL0     H57756   6.035   9.579   1.550 -3.0810  0.6832 -1.2429
  428MOL0     H57757   5.901   9.507   1.650  0.4309 -2.9983  2.5843
  428MOL0     H57758   6.203   9.472   1.708 -0.3781 -0.5695 -0.6087
  428MOL0     H57759   6.067   9.392   1.787 -0.4608  0.6704  0.3048
  428MOL0     H57760   5.977   9.592   1.863 -0.9572 -1.2795  0.6081
  428MOL0     H57761   6.083   9.694   1.770 -0.0425 -0.5921 -0.0937
  428MOL0     H57762   6.077   9.332   0.820  0.1022  0.4848 -0.8466
  428MOL0     H57763   6.271   9.329   0.658  0.8490  0.4322  0.3218
  428MOL0     H57764   6.770   9.162   0.674 -0.3720 -1.5379 -0.8052
  428MOL0     H57765   6.928   9.122   0.507 -1.8314 -0.7526 -0.7981
  428MOL0     H57766   6.423  10.398   0.382  3.2870 -2.1385  0.5229
  428MOL0     H57767   6.184  10.371   0.365  0.2299  0.6529  0.9398
  428MOL0     H57768   5.808  10.141   0.076  5.1412 -1.8347  1.5210
  428MOL0     H57769   5.569  10.160   0.080  1.1006  0.4026 -0.2739
  428MOL0     H57770   5.420  10.308   0.200  1.5297 -0.0854  1.9620
  428MOL0     H57771   5.301  10.176   0.155  1.9359 -3.1965  0.3387
  428MOL0     H57772   5.154  10.224   0.334  0.0698 -0.5424 -2.7907
  428MOL0     H57773   5.167  10.361   0.239 -0.2287  0.3247  1.3355
  428MOL0     H57774   5.192  10.442   0.467  0.6910  2.0370 -1.6705
  428MOL0     H57775   5.339  10.466   0.370 -1.0731 -0.8354 -2.3892
  428MOL0     H57776   5.472  10.329   0.494 -0.6021 -1.9360 -4.3660
  428MOL0     H57777   5.345  10.210   0.530  0.6437  0.0629 -0.7242
  428MOL0     H57778   5.289  10.449   0.859  0.3828  0.1481 -0.5223
  428MOL0     H57779   5.567  10.080   0.492  0.1638  2.9179  0.3620
  428MOL0     H57780   5.821  10.048   0.493 -1.0745  1.4459  0.9966
  429MOL0     O57781   6.315   2.660   5.289  0.0712  0.9846  0.1090
  429MOL0     C57782   6.258   2.619   5.391 -0.3695 -0.2565 -0.2954
  429MOL0     O57783   6.146   2.679   5.446  0.4056  0.1000  0.2921
  429MOL0     C57784   6.061   2.742   5.361 -0.6261  0.1798 -0.0151
  429MOL0     C57785   6.005   2.667   5.254 -0.4783 -0.8380  0.4495
  429MOL0     C57786   5.892   2.721   5.173  0.6431 -0.6350 -0.5171
  429MOL0     C57787   5.846   2.848   5.194 -1.0437 -0.5994 -0.6725
  429MOL0     O57788   5.765   2.908   5.110 -0.1099 -0.6367 -0.3774
  429MOL0     C57789   5.759   3.054   5.112  0.1773 -0.2063 -0.6716
  429MOL0     C57790   5.677   3.083   4.982 -0.9699  0.0420 -1.2320
  429MOL0     C57791   5.521   3.032   4.978 -0.3407  0.5694  0.0492
  429MOL0     C57792   5.470   3.017   4.831  0.1686 -0.8857  0.1769
  429MOL0     C57793   5.327   2.981   4.820 -0.5329  0.0542 -0.3440
  429MOL0     C57794   5.296   2.848   4.868 -0.3436  0.2418  0.6661
  429MOL0     C57795   5.149   2.820   4.845  0.2061 -0.4309  0.7221
  429MOL0     C57796   5.093   2.704   4.932 -0.5051 -0.1079  0.6136
  429MOL0     N57797   4.945   2.695   4.927 -0.0634 -0.2093 -0.2523
  429MOL0     C57798   4.863   2.601   4.871  0.3849  0.6841  0.3045
  429MOL0     C57799   4.732   2.643   4.879  0.2759  0.3101 -0.0036
  429MOL0     C57800   4.607   2.563   4.840 -0.6088  0.2148 -0.4670
  429MOL0     C57801   4.501   2.650   4.757  0.0901  0.8101 -0.0596
  429MOL0     C57802   4.558   2.695   4.619  0.7474  0.5561  0.5258
  429MOL0     C57803   4.458   2.706   4.506  0.3103  1.2003 -1.0633
  429MOL0     O57804   4.527   2.719   4.383 -0.0697  0.4903 -0.0494
  429MOL0     C57805   4.455   2.737   4.272  0.3494 -0.5924  0.5409
  429MOL0     C57806   4.420   2.630   4.192  1.0663  0.6623  0.7837
  429MOL0     C57807   4.314   2.643   4.098 -0.2564  0.9549  0.0966
  429MOL0     C57808   4.265   2.512   4.038  0.4660 -0.0352  0.3097
  429MOL0     C57809   4.273   2.773   4.059 -0.5309  1.5722 -0.3377
  429MOL0     C57810   4.185   2.794   3.949 -0.0797 -0.2122 -0.0431
  429MOL0     O57811   4.151   2.922   3.914  0.0581  0.1144 -0.5482
  429MOL0     C57812   4.050   2.940   3.822 -0.6539 -0.0103  0.2518
  429MOL0     C57813   3.921   2.979   3.872 -1.1709  0.7982  0.4269
  429MOL0     C57814   3.820   3.009   3.780 -0.8950 -0.6315 -0.1724
  429MOL0     C57815   3.834   2.990   3.640 -0.1336  0.1561 -0.5319
  429MOL0     O57816   3.736   3.009   3.553 -0.0562 -0.9065  0.0929
  429MOL0     C57817   3.721   3.145   3.502  0.1220 -0.5492 -0.7108
  429MOL0     C57818   3.613   3.150   3.396 -0.2562  0.4725  1.0075
  429MOL0     C57819   3.557   3.285   3.361  0.4144 -0.1614 -0.1198
  429MOL0     C57820   3.613   3.340   3.224 -0.0404 -0.3459  0.1571
  429MOL0     C57821   3.519   3.442   3.156 -0.5624  0.5913  0.9685
  429MOL0     C57822   3.595   3.486   3.029  0.4364  0.2024  0.6173
  429MOL0     C57823   3.502   3.571   2.938  0.0605  0.0176  0.3651
  429MOL0     C57824   3.584   3.644   2.828  0.2372 -0.7646 -0.4047
  429MOL0    Cl57825   3.666   3.523   2.723  0.5082 -0.0817 -0.1549
  429MOL0     C57826   3.955   2.947   3.592 -0.3056  0.1898  0.4922
  429MOL0     C57827   4.058   2.918   3.674 -0.9689  0.4188 -1.1588
  429MOL0     O57828   4.135   2.696   3.893  0.3840 -0.5691 -0.7551
  429MOL0     C57829   4.333   2.888   4.122 -0.1333  0.0041  0.5073
  429MOL0     C57830   4.417   2.866   4.228 -0.5353  0.1909  0.3975
  429MOL0     N57831   4.746   2.762   4.956 -0.0280 -0.6737 -0.8411
  429MOL0     N57832   4.866   2.799   4.976 -0.2908  0.0464 -0.3942
  429MOL0     C57833   5.910   2.915   5.306  0.3006 -0.1916 -0.1879
  429MOL0     C57834   6.009   2.862   5.388  0.5008  0.9114 -0.0663
  429MOL0     C57835   6.336   2.521   5.476  0.1746 -0.3167 -0.3812
  429MOL0     C57836   6.444   2.449   5.419  0.4194 -0.3134 -0.6491
  429MOL0     C57837   6.527   2.367   5.493  0.8600  0.2204 -0.3290
  429MOL0     C57838   6.490   2.336   5.628  0.0122 -0.1620  0.5931
  429MOL0     O57839   6.566   2.260   5.722  0.1501 -0.4404 -0.0681
  429MOL0     C57840   6.689   2.201   5.687  0.1542  0.2960  0.3717
  429MOL0     C57841   6.661   2.080   5.591  0.4933  0.2057  0.5189
  429MOL0     C57842   6.542   1.977   5.634 -0.1561 -0.2437 -0.8102
  429MOL0     C57843   6.569   1.903   5.767 -0.9880  0.2440 -0.1586
  429MOL0     C57844   6.706   1.853   5.762  0.6695 -0.2779  0.3298
  429MOL0     C57845   6.817   1.806   5.785  0.6948 -1.2131 -0.4998
  429MOL0     C57846   6.371   2.384   5.681  1.2742 -0.7772  0.3254
  429MOL0     C57847   6.302   2.485   5.611 -0.2664  0.7118 -0.1805
  429MOL0     H57848   6.053   2.577   5.216  0.8534  0.3498 -0.8241
  429MOL0     H57849   5.846   2.673   5.087 -3.5513  3.5136 -1.0102
  429MOL0     H57850   5.702   3.082   5.201  2.8741  1.7522  0.5772
  429MOL0     H57851   5.854   3.108   5.111 -1.1550  2.2632 -1.1683
  429MOL0     H57852   5.678   3.192   4.968 -1.2185 -0.0641 -2.1485
  429MOL0     H57853   5.740   3.047   4.900 -0.2916  3.3216 -2.3055
  429MOL0     H57854   5.524   2.932   5.022 -0.2077  1.8886  3.3055
  429MOL0     H57855   5.461   3.097   5.042  1.6913  1.1139  1.4946
  429MOL0     H57856   5.501   3.105   4.775 -3.5436  0.2076 -0.4337
  429MOL0     H57857   5.530   2.934   4.793 -0.8554 -0.5378 -2.4344
  429MOL0     H57858   5.278   3.051   4.889 -0.9551 -0.0800 -0.5110
  429MOL0     H57859   5.283   3.005   4.723 -1.1846  5.9144  1.0176
  429MOL0     H57860   5.358   2.774   4.815 -0.7611 -2.2928  3.4842
  429MOL0     H57861   5.319   2.837   4.974  1.4154  0.0166  0.2977
  429MOL0     H57862   5.086   2.910   4.847  0.8481  0.0384  3.0102
  429MOL0     H57863   5.133   2.787   4.743 -0.4914  3.0914 -0.4504
  429MOL0     H57864   5.127   2.706   5.036 -0.4838  0.0369  0.6050
  429MOL0     H57865   5.130   2.614   4.882 -0.8347  0.4361 -0.6449
  429MOL0     H57866   4.906   2.511   4.828  0.6391  1.3987 -0.9875
  429MOL0     H57867   4.638   2.487   4.767  1.2752 -0.9297  1.4175
  429MOL0     H57868   4.561   2.522   4.930  1.8570  0.5002  1.0236
  429MOL0     H57869   4.479   2.740   4.815  2.7782  0.7836  1.1938
  429MOL0     H57870   4.406   2.599   4.741  0.8625 -0.0364 -2.1668
  429MOL0     H57871   4.643   2.638   4.580  1.2859 -0.1033  2.5389
  429MOL0     H57872   4.604   2.794   4.631  1.6386  0.4560 -1.5799
  429MOL0     H57873   4.377   2.778   4.519 -1.0175 -0.2713 -0.8772
  429MOL0     H57874   4.396   2.616   4.500 -2.6997  3.1301 -0.8167
  429MOL0     H57875   4.445   2.535   4.239  0.9256  0.8843  1.3130
  429MOL0     H57876   4.297   2.429   4.102 -2.5967 -2.1486 -0.6463
  429MOL0     H57877   4.156   2.501   4.039  0.3205  1.2846  0.0553
  429MOL0     H57878   4.294   2.488   3.936 -1.7722  1.2789 -0.7015
  429MOL0     H57879   3.921   2.991   3.980 -1.3756  0.1176  0.5117
  429MOL0     H57880   3.726   3.048   3.818 -1.5430  1.9549 -3.8445
  429MOL0     H57881   3.695   3.207   3.589  0.3086 -0.6270 -0.5976
  429MOL0     H57882   3.817   3.185   3.467  1.7915 -2.1100  1.7836
  429MOL0     H57883   3.642   3.098   3.304 -1.2017 -1.7036  1.8663
  429MOL0     H57884   3.528   3.090   3.429  0.4492 -3.9372 -3.7094
  429MOL0     H57885   3.601   3.345   3.440  0.2786  1.5574 -1.2960
  429MOL0     H57886   3.448   3.287   3.354  0.4123  2.4404 -0.2947
  429MOL0     H57887   3.717   3.372   3.230 -0.4669  1.1633 -0.2260
  429MOL0     H57888   3.607   3.251   3.160  0.1891 -0.0226 -0.3103
  429MOL0     H57889   3.505   3.533   3.216  2.8159  2.1727 -0.3670
  429MOL0     H57890   3.418   3.402   3.145  0.1665 -1.0916  0.0274
  429MOL0     H57891   3.686   3.534   3.065  1.3179 -3.3226  3.7511
  429MOL0     H57892   3.629   3.394   2.981  0.7996  0.9942 -0.6825
  429MOL0     H57893   3.448   3.646   2.996  0.3490  0.9700 -0.5661
  429MOL0     H57894   3.431   3.505   2.888 -1.0575  2.3848 -1.3836
  429MOL0     H57895   3.657   3.709   2.877  0.2273 -2.5662  2.1930
  429MOL0     H57896   3.524   3.713   2.767 -0.0998  0.7473  1.5462
  429MOL0     H57897   3.972   2.938   3.485  0.3706  2.5552  0.3567
  429MOL0     H57898   4.156   2.893   3.633 -0.9756 -2.9537  0.5453
  429MOL0     H57899   4.308   2.984   4.078  1.5034 -0.0166 -0.5738
  429MOL0     H57900   4.460   2.949   4.283 -2.3167  1.5102 -0.1200
  429MOL0     H57901   5.871   3.015   5.322  0.0065  0.3102 -3.4082
  429MOL0     H57902   6.050   2.932   5.460  0.6291  1.9346 -1.1076
  429MOL0     H57903   6.458   2.465   5.312 -3.0248  1.5666 -0.9712
  429MOL0     H57904   6.615   2.339   5.436  0.5751  1.4831 -1.4509
  429MOL0     H57905   6.758   2.269   5.637  2.2574 -2.6974 -1.0944
  429MOL0     H57906   6.750   2.171   5.773  1.2824  0.9021 -0.1993
  429MOL0     H57907   6.755   2.026   5.574  2.3720  3.1642  0.6899
  429MOL0     H57908   6.634   2.124   5.495 -0.4152  0.2634  0.7999
  429MOL0     H57909   6.513   1.909   5.553 -0.4499 -1.2945  0.1537
  429MOL0     H57910   6.451   2.037   5.645  0.2256  0.7156 -2.5095
  429MOL0     H57911   6.496   1.824   5.787 -0.6523  0.5359  2.6993
  429MOL0     H57912   6.563   1.973   5.851 -1.3178  1.0401 -0.8422
  429MOL0     H57913   6.915   1.765   5.802  1.8624  1.0282 -1.3937
  429MOL0     H57914   6.339   2.352   5.779  2.8895  2.4082  2.0313
  429MOL0     H57915   6.208   2.510   5.658  0.5177  0.5439  1.5694
  430MOL0     O57916   2.384   0.036   4.954 -0.4758 -0.1488  0.6216
  430MOL0     C57917   2.467  -0.034   5.020 -0.4520 -1.0222  0.1939
  430MOL0     O57918   2.559   0.013   5.105 -0.7590 -0.2645 -0.8267
  430MOL0     C57919   2.608   0.139   5.102  0.4882  0.4864  0.3791
  430MOL0     C57920   2.596   0.228   4.993 -0.2270  0.5986 -0.0427
  430MOL0     C57921   2.668   0.343   4.982 -0.3284 -0.5553  0.3752
  430MOL0     C57922   2.746   0.388   5.087 -0.0018  1.2114  0.4700
  430MOL0     O57923   2.813   0.504   5.089 -0.6198  1.4533 -0.2331
  430MOL0     C57924   2.804   0.596   4.982  0.7208  0.0996 -0.4230
  430MOL0     C57925   2.916   0.706   5.012  0.2401  0.0394 -0.0991
  430MOL0     C57926   2.853   0.808   5.104  0.8563 -0.4647  0.1710
  430MOL0     C57927   2.958   0.870   5.198 -0.0438 -0.0845 -0.6082
  430MOL0     C57928   2.885   0.967   5.299  0.1907  0.2893 -0.1941
  430MOL0     C57929   2.983   1.072   5.348 -0.2639  0.7657 -0.1775
  430MOL0     C57930   2.919   1.173   5.441 -0.1803  1.2501 -0.2375
  430MOL0     C57931   3.026   1.261   5.497  0.3786  0.1169  0.1055
  430MOL0     N57932   2.971   1.332   5.619  0.0304 -0.1271 -0.1201
  430MOL0     C57933   3.012   1.456   5.654 -0.5577  0.0196 -0.5984
  430MOL0     C57934   2.921   1.516   5.737  0.4952  0.4628 -0.3348
  430MOL0     C57935   2.914   1.663   5.782  0.3979 -0.2765  0.2413
  430MOL0     C57936   2.950   1.703   5.924 -0.2687  0.2250  0.2202
  430MOL0     C57937   2.861   1.628   6.028 -0.8980 -0.6092  0.2694
  430MOL0     C57938   2.950   1.558   6.131  1.0765  0.3758  0.1846
  430MOL0     O57939   2.868   1.522   6.243  0.1728 -0.2882 -0.5185
  430MOL0     C57940   2.832   1.622   6.334 -0.1479 -0.1129  0.0750
  430MOL0     C57941   2.931   1.695   6.402 -0.4656 -0.4298  0.5155
  430MOL0     C57942   2.905   1.797   6.498 -0.2300  0.7268 -0.1043
  430MOL0     C57943   3.030   1.886   6.556  0.1273  0.8577 -0.2026
  430MOL0     C57944   2.765   1.823   6.533 -0.8985  0.9663 -0.4870
  430MOL0     C57945   2.727   1.935   6.622  0.1275  0.2393  0.3562
  430MOL0     O57946   2.600   1.994   6.595 -0.2378  0.6887  0.2271
  430MOL0     C57947   2.551   2.088   6.676  0.3288 -0.2382 -0.6980
  430MOL0     C57948   2.514   2.064   6.804  0.1491  0.0264  0.0765
  430MOL0     C57949   2.477   2.165   6.884  0.3381 -0.8906 -0.1408
  430MOL0     C57950   2.504   2.302   6.850  0.3081 -0.1027  0.1308
  430MOL0     O57951   2.497   2.414   6.932  0.2182 -0.6098 -0.5651
  430MOL0     C57952   2.436   2.387   7.059 -0.0977  0.5301  0.4083
  430MOL0     C57953   2.419   2.517   7.132 -0.3175  1.0031  0.0261
  430MOL0     C57954   2.561   2.583   7.150  0.2279  0.1849  0.0632
  430MOL0     C57955   2.655   2.474   7.193 -0.5568  0.0378  0.3979
  430MOL0     C57956   2.791   2.544   7.239  0.4694  0.4423  0.0336
  430MOL0     C57957   2.871   2.465   7.330  0.7494 -0.0245  0.1920
  430MOL0     C57958   3.003   2.527   7.367 -0.9724  0.4755  0.2245
  430MOL0     C57959   3.118   2.497   7.268  1.0516 -0.1075 -0.9942
  430MOL0    Cl57960   3.219   2.345   7.312  0.0747  0.3798  0.0900
  430MOL0     C57961   2.542   2.325   6.719  1.1520 -0.9703  0.9576
  430MOL0     C57962   2.560   2.221   6.635  0.5818  0.1639 -0.1312
  430MOL0     O57963   2.799   1.959   6.722  0.9221  0.6876  0.4974
  430MOL0     C57964   2.663   1.744   6.463 -0.2185  0.5647  0.1647
  430MOL0     C57965   2.703   1.652   6.362  0.1768  0.4221 -0.1943
  430MOL0     N57966   2.825   1.414   5.768  0.4727  0.2042  0.3679
  430MOL0     N57967   2.855   1.309   5.683  0.1182 -1.0100 -0.3815
  430MOL0     C57968   2.758   0.305   5.203  0.0429  0.4439  0.2643
  430MOL0     C57969   2.695   0.184   5.208  0.3898  0.3723 -0.3970
  430MOL0     C57970   2.423  -0.176   5.027  0.6202 -0.3521 -0.1108
  430MOL0     C57971   2.286  -0.207   5.019  0.6290  0.1208  1.0936
  430MOL0     C57972   2.235  -0.333   5.050 -0.1775 -0.4218  0.5416
  430MOL0     C57973   2.330  -0.429   5.084  1.1381  1.1022 -0.7314
  430MOL0     O57974   2.306  -0.559   5.111  0.3019 -0.4979 -0.6022
  430MOL0     C57975   2.183  -0.610   5.045 -0.5123 -0.3245 -0.0851
  430MOL0     C57976   2.072  -0.589   5.149 -0.0285 -0.1429 -0.3317
  430MOL0     C57977   1.930  -0.625   5.103 -0.7046  1.3103 -0.6017
  430MOL0     C57978   1.834  -0.521   5.147  0.3111  0.4847  0.4935
  430MOL0     C57979   1.821  -0.410   5.062 -0.6293 -0.8386  0.8245
  430MOL0     C57980   1.829  -0.305   5.003  0.8960 -0.4511  0.6372
  430MOL0     C57981   2.467  -0.414   5.076  0.7292 -0.3179 -0.9442
  430MOL0     C57982   2.509  -0.279   5.056 -0.7072  0.3504  0.7237
  430MOL0     H57983   2.537   0.196   4.908 -0.0671 -1.6166  0.6076
  430MOL0     H57984   2.669   0.404   4.892  3.1397  2.5910  2.2154
  430MOL0     H57985   2.836   0.541   4.893 -2.0061  2.7228 -3.2957
  430MOL0     H57986   2.705   0.639   4.967  0.9433  1.6106  1.8258
  430MOL0     H57987   2.998   0.665   5.072  1.2925  0.9427 -0.8951
  430MOL0     H57988   2.945   0.758   4.921 -3.0184  4.0477  0.8099
  430MOL0     H57989   2.803   0.882   5.042 -0.8744 -0.3698  1.6027
  430MOL0     H57990   2.776   0.747   5.153  0.7396 -0.0316  0.5334
  430MOL0     H57991   3.007   0.803   5.269  0.8100  3.0737  2.0841
  430MOL0     H57992   3.028   0.929   5.138 -0.1597 -0.2061 -0.8633
  430MOL0     H57993   2.802   1.023   5.257  0.5628  0.7415 -0.3414
  430MOL0     H57994   2.848   0.923   5.392 -1.7158  1.9442 -0.1014
  430MOL0     H57995   3.062   1.027   5.409  0.4562  3.4354  1.0545
  430MOL0     H57996   3.025   1.125   5.262 -1.3697 -0.4637 -1.5317
  430MOL0     H57997   2.841   1.230   5.389 -1.2854 -0.6525 -0.7916
  430MOL0     H57998   2.873   1.113   5.521 -0.3757 -2.2508 -2.7249
  430MOL0     H57999   3.061   1.336   5.425  5.2859 -2.0808 -0.1523
  430MOL0     H58000   3.117   1.203   5.517 -0.5225 -2.3090 -2.1668
  430MOL0     H58001   3.092   1.510   5.605 -1.5494  0.1232 -2.1564
  430MOL0     H58002   2.979   1.720   5.716 -1.4676  3.3212  1.2097
  430MOL0     H58003   2.810   1.690   5.758  0.1561 -0.0943  1.4002
  430MOL0     H58004   2.946   1.809   5.952 -0.7522  0.5419 -0.9760
  430MOL0     H58005   3.056   1.676   5.931 -0.0137  1.5600  2.8216
  430MOL0     H58006   2.792   1.560   5.977  1.7761 -1.5168 -2.4880
  430MOL0     H58007   2.795   1.697   6.081  1.4402  0.4460  1.9699
  430MOL0     H58008   3.027   1.632   6.156  2.2172  0.0061 -1.9491
  430MOL0     H58009   2.984   1.465   6.085  0.7076  0.0144  0.6280
  430MOL0     H58010   3.035   1.664   6.391 -0.9050 -1.1473 -2.6997
  430MOL0     H58011   3.039   1.896   6.665  0.8494  1.9943 -0.3416
  430MOL0     H58012   3.126   1.854   6.516 -0.3803  0.3123 -0.9988
  430MOL0     H58013   3.024   1.988   6.517  1.6183  0.4360 -1.6425
  430MOL0     H58014   2.508   1.964   6.845 -5.2459  0.1701  0.3392
  430MOL0     H58015   2.436   2.156   6.984 -0.5658  3.3877  0.0648
  430MOL0     H58016   2.341   2.340   7.033  1.8074 -3.3291 -0.3121
  430MOL0     H58017   2.484   2.306   7.114  0.1935  0.4249  0.0040
  430MOL0     H58018   2.350   2.584   7.080  2.8698  3.6279 -1.1275
  430MOL0     H58019   2.372   2.499   7.229 -1.4752 -1.1392 -0.8760
  430MOL0     H58020   2.555   2.667   7.220 -1.1445  3.5334 -3.7373
  430MOL0     H58021   2.580   2.629   7.053 -1.9239 -1.7650 -1.3786
  430MOL0     H58022   2.616   2.426   7.283  2.2323 -1.6245  0.8414
  430MOL0     H58023   2.676   2.400   7.115 -0.7315 -0.0850  0.4674
  430MOL0     H58024   2.770   2.634   7.298 -3.2301 -1.1695  1.4399
  430MOL0     H58025   2.860   2.575   7.160  2.3092 -1.9132  0.6064
  430MOL0     H58026   2.806   2.452   7.417 -0.8462 -1.2491 -1.1132
  430MOL0     H58027   2.888   2.369   7.280  2.8429  0.3160  0.1552
  430MOL0     H58028   3.040   2.493   7.464  0.2984  1.9627  0.2872
  430MOL0     H58029   2.991   2.635   7.383  1.7898  0.6687  1.5425
  430MOL0     H58030   3.185   2.582   7.253 -0.0222  0.7627 -1.0179
  430MOL0     H58031   3.068   2.475   7.174 -0.2108  1.8681 -0.8452
  430MOL0     H58032   2.561   2.428   6.688  0.2793 -1.2756 -0.7448
  430MOL0     H58033   2.594   2.251   6.537 -2.1272  1.0733 -0.8517
  430MOL0     H58034   2.555   1.752   6.470 -0.5681 -1.9004 -1.1748
  430MOL0     H58035   2.621   1.596   6.317 -1.6675  1.2916  1.9024
  430MOL0     H58036   2.819   0.337   5.287 -1.3831  0.4729  1.3027
  430MOL0     H58037   2.702   0.115   5.291  1.2104 -0.6068 -1.2599
  430MOL0     H58038   2.211  -0.139   4.979  0.7440 -0.3954 -0.0278
  430MOL0     H58039   2.129  -0.346   5.030 -0.0828 -0.2274 -0.1149
  430MOL0     H58040   2.150  -0.556   4.955 -2.7240 -2.0586 -0.4152
  430MOL0     H58041   2.183  -0.717   5.025 -3.2322 -1.1399  3.3433
  430MOL0     H58042   2.066  -0.483   5.175  0.3343 -0.3260  0.5333
  430MOL0     H58043   2.099  -0.645   5.239 -1.4568  0.0705  0.2587
  430MOL0     H58044   1.913  -0.722   5.150  3.3657 -1.0864 -3.4225
  430MOL0     H58045   1.934  -0.630   4.994  1.3707  0.6141 -0.5423
  430MOL0     H58046   1.866  -0.496   5.249  4.4135 -0.6164 -0.3332
  430MOL0     H58047   1.735  -0.564   5.161  0.9589 -0.5054  2.3638
  430MOL0     H58048   1.819  -0.204   4.968 -0.4842 -0.7287  0.1821
  430MOL0     H58049   2.540  -0.494   5.079  1.7759  0.5970 -1.3378
  430MOL0     H58050   2.617  -0.265   5.048 -0.3485 -1.2784  2.0390
  431MOL0     O58051   7.929   2.948   7.840 -0.3641 -0.0404 -1.5831
  431MOL0     C58052   8.041   2.996   7.829 -0.2073 -0.3796  0.0834
  431MOL0     O58053   8.158   2.924   7.823 -0.0990 -0.3331 -0.9370
  431MOL0     C58054   8.158   2.789   7.836  0.2495  1.2716 -0.4067
  431MOL0     C58055   8.083   2.718   7.942  0.0059  0.6852  0.1765
  431MOL0     C58056   8.111   2.582   7.957 -0.7736  0.6445  1.0336
  431MOL0     C58057   8.200   2.500   7.877  0.4080 -1.3396 -0.2151
  431MOL0     O58058   8.231   2.370   7.901 -0.4499 -0.5019  0.0766
  431MOL0     C58059   8.248   2.331   8.036  0.3021 -0.6546  0.3912
  431MOL0     C58060   8.332   2.216   8.069 -0.2744 -0.0640  0.8025
  431MOL0     C58061   8.286   2.083   7.987 -0.5225  0.1565 -0.6295
  431MOL0     C58062   8.361   1.946   8.030 -0.8608 -0.0329  0.2033
  431MOL0     C58063   8.503   1.929   7.951 -0.2652  0.4712  0.3336
  431MOL0     C58064   8.625   1.986   8.024  0.6515 -0.0710 -0.6713
  431MOL0     C58065   8.672   1.886   8.132  0.5218  0.0557 -0.5972
  431MOL0     C58066   8.752   1.774   8.080 -0.6165  0.2638 -0.3420
  431MOL0     N58067   8.852   1.726   8.170 -0.3891  0.2332  0.1048
  431MOL0     C58068   8.971   1.791   8.190 -0.3859 -0.2967  0.8234
  431MOL0     C58069   9.032   1.714   8.275 -0.7346  0.0337 -0.4136
  431MOL0     C58070   9.171   1.749   8.326  1.0039 -0.1460  0.4028
  431MOL0     C58071   9.288   1.698   8.236 -0.4972 -0.5182  0.0286
  431MOL0     C58072   9.290   1.546   8.226 -0.1871  0.1855 -0.0011
  431MOL0     C58073   9.401   1.519   8.121 -0.5152  0.2254 -0.7334
  431MOL0     O58074   9.404   1.377   8.085 -0.0255  0.2536  0.1163
  431MOL0     C58075   9.427   1.273   8.170  0.2868  0.9720  0.1576
  431MOL0     C58076   9.374   1.159   8.121  1.2751  0.6851 -1.4435
  431MOL0     C58077   9.361   1.045   8.207  0.4946  0.4116  0.5684
  431MOL0     C58078   9.268   0.937   8.160  0.0613  0.0869  0.5772
  431MOL0     C58079   9.436   1.046   8.329 -0.5944  0.4879  1.1207
  431MOL0     C58080   9.427   0.932   8.423 -0.6765 -0.0545 -1.1837
  431MOL0     O58081   9.404   0.799   8.382  0.3112  0.1811 -0.3691
  431MOL0     C58082   9.407   0.700   8.472  0.0709  0.4563 -0.9172
  431MOL0     C58083   9.294   0.644   8.529 -0.3788 -1.5810  0.4902
  431MOL0     C58084   9.291   0.561   8.632 -0.2296  0.1162 -0.6122
  431MOL0     C58085   9.411   0.510   8.686 -0.2491 -1.0044 -0.3084
  431MOL0     O58086   9.413   0.401   8.761 -0.1773 -0.1942 -0.2913
  431MOL0     C58087   9.521   0.306   8.760  0.5121  1.1839  0.5764
  431MOL0     C58088   9.508   0.197   8.864 -1.1678 -0.5681  0.4943
  431MOL0     C58089   9.362   0.148   8.883  0.1147  1.1436 -0.4365
  431MOL0     C58090   9.348   0.018   8.982 -0.0053 -0.0046  0.0847
  431MOL0     C58091   9.212  -0.027   8.990  0.2804 -0.1381 -0.2317
  431MOL0     C58092   9.188  -0.124   9.108  0.5818  0.8387 -0.2931
  431MOL0     C58093   9.051  -0.192   9.109 -0.3881  0.4182 -0.4463
  431MOL0     C58094   9.027  -0.268   9.237 -0.1029 -0.4557 -0.2456
  431MOL0    Cl58095   9.169  -0.362   9.285 -0.2979 -0.0601 -0.5297
  431MOL0     C58096   9.530   0.573   8.632  0.0726  0.4198  0.6973
  431MOL0     C58097   9.522   0.666   8.529 -0.3408 -1.0926  0.0934
  431MOL0     O58098   9.437   0.962   8.541 -0.2009  0.5067 -0.0863
  431MOL0     C58099   9.498   1.163   8.371 -0.2771 -0.3662  0.4236
  431MOL0     C58100   9.489   1.284   8.294 -0.6179  0.0772  0.1513
  431MOL0     N58101   8.963   1.602   8.313 -0.3492 -0.4638 -0.2779
  431MOL0     N58102   8.850   1.613   8.252 -0.1305  0.7615 -0.0990
  431MOL0     C58103   8.257   2.573   7.772  1.0027 -0.3430  1.3569
  431MOL0     C58104   8.235   2.710   7.746 -0.0408  0.6464  0.0663
  431MOL0     C58105   8.041   3.139   7.802  0.0076  0.4761  0.4652
  431MOL0     C58106   8.158   3.214   7.777  0.8716  1.1162  0.3500
  431MOL0     C58107   8.165   3.347   7.740 -0.8652 -0.4879  0.0175
  431MOL0     C58108   8.048   3.415   7.713 -0.2560  0.2138  0.3683
  431MOL0     O58109   8.070   3.548   7.675  0.3314  0.3442 -0.2767
  431MOL0     C58110   7.951   3.625   7.649  0.6540  0.5628 -0.7094
  431MOL0     C58111   7.986   3.751   7.579 -0.3379  0.4978  0.6985
  431MOL0     C58112   7.875   3.849   7.598 -0.5271  0.1125  0.0099
  431MOL0     C58113   7.902   3.987   7.540  0.8013  0.4028  0.7263
  431MOL0     C58114   8.018   4.052   7.602 -0.7274  0.4433 -0.0704
  431MOL0     C58115   8.111   4.115   7.654 -0.2493  1.1997  0.5784
  431MOL0     C58116   7.925   3.352   7.742 -0.0751 -0.6766  0.2590
  431MOL0     C58117   7.923   3.215   7.782 -0.3247 -1.0096  0.8863
  431MOL0     H58118   8.019   2.766   8.015 -0.7688  1.0744 -0.7475
  431MOL0     H58119   8.072   2.529   8.043  0.5050 -0.6649  0.8556
  431MOL0     H58120   8.278   2.420   8.092 -0.4023 -0.6844  0.8239
  431MOL0     H58121   8.150   2.297   8.070  0.9307 -1.2255  1.6921
  431MOL0     H58122   8.430   2.238   8.027 -1.3700 -0.4594 -2.2660
  431MOL0     H58123   8.340   2.203   8.177 -0.8705 -1.0970  0.7408
  431MOL0     H58124   8.177   2.070   7.987 -0.3999 -0.9649  0.2897
  431MOL0     H58125   8.314   2.114   7.886 -0.0396  2.3309  0.1211
  431MOL0     H58126   8.369   1.943   8.139 -3.6869  3.1053  0.6730
  431MOL0     H58127   8.307   1.857   7.996  1.8659 -0.6171 -3.1518
  431MOL0     H58128   8.514   1.821   7.944  0.3923  0.5176  0.5586
  431MOL0     H58129   8.495   1.971   7.850 -2.3569  0.2171  0.3352
  431MOL0     H58130   8.713   2.015   7.964 -0.1413  3.0701 -0.5119
  431MOL0     H58131   8.576   2.069   8.076 -1.3368 -0.4899 -1.7874
  431MOL0     H58132   8.730   1.943   8.206  0.1892  0.2408 -0.4797
  431MOL0     H58133   8.588   1.833   8.178  1.3833 -1.2700 -0.4777
  431MOL0     H58134   8.797   1.800   7.984  6.0698 -5.8100  0.3355
  431MOL0     H58135   8.687   1.693   8.045 -2.2583  2.7852 -3.6963
  431MOL0     H58136   9.005   1.885   8.149 -0.0705 -0.3519  0.9575
  431MOL0     H58137   9.179   1.858   8.335  1.9617 -0.1553 -0.1811
  431MOL0     H58138   9.180   1.705   8.426 -0.6329  2.0235  1.5831
  431MOL0     H58139   9.378   1.724   8.292  0.9755 -1.6532 -1.7021
  431MOL0     H58140   9.294   1.752   8.141  0.0075 -0.0502  0.3137
  431MOL0     H58141   9.195   1.510   8.184  0.7689 -0.9435 -1.2951
  431MOL0     H58142   9.308   1.494   8.321  0.4236  0.0590 -0.1830
  431MOL0     H58143   9.504   1.538   8.155  0.5200 -3.9928 -0.8964
  431MOL0     H58144   9.396   1.569   8.024 -1.4981  0.0951 -0.7532
  431MOL0     H58145   9.319   1.155   8.027  2.0987  2.3713 -2.0457
  431MOL0     H58146   9.226   0.969   8.064  1.5032  2.0851  0.5582
  431MOL0     H58147   9.316   0.839   8.146 -1.8284 -1.2569  2.7724
  431MOL0     H58148   9.198   0.922   8.243  1.7867 -1.9847  1.7559
  431MOL0     H58149   9.196   0.671   8.491  0.6774  2.2616  0.0538
  431MOL0     H58150   9.196   0.518   8.662 -0.5874  0.9952 -0.4535
  431MOL0     H58151   9.516   0.262   8.659  2.4455 -0.2587  1.0422
  431MOL0     H58152   9.612   0.364   8.774  0.2860  2.0747 -1.3326
  431MOL0     H58153   9.565   0.111   8.828 -3.1163 -2.0284  0.7626
  431MOL0     H58154   9.550   0.228   8.960  2.0010 -1.2581 -0.5412
  431MOL0     H58155   9.314   0.144   8.785 -2.9279  3.1646  0.7871
  431MOL0     H58156   9.317   0.232   8.938  0.5168  0.4381  1.0070
  431MOL0     H58157   9.413  -0.062   8.945 -1.6803  0.1632 -3.7223
  431MOL0     H58158   9.388   0.040   9.082  1.3978 -3.1309  0.3165
  431MOL0     H58159   9.180  -0.062   8.891  0.8598 -0.5063 -0.2965
  431MOL0     H58160   9.165   0.068   9.018  2.4761  1.3177 -1.1860
  431MOL0     H58161   9.263  -0.203   9.102 -0.8622 -0.8264  1.9518
  431MOL0     H58162   9.205  -0.078   9.206  2.1852 -0.6496  0.1803
  431MOL0     H58163   9.039  -0.264   9.027 -0.4048 -0.5337  0.3726
  431MOL0     H58164   8.972  -0.118   9.094 -0.6481  0.3978  0.7533
  431MOL0     H58165   8.938  -0.322   9.204 -0.5058  0.2140 -0.2521
  431MOL0     H58166   8.993  -0.213   9.325  1.8405 -1.8446  1.4850
  431MOL0     H58167   9.632   0.547   8.658  0.1980  0.9620  0.7639
  431MOL0     H58168   9.611   0.708   8.483 -1.2305  0.3492 -0.3695
  431MOL0     H58169   9.551   1.163   8.465  1.2914  0.1329 -0.4151
  431MOL0     H58170   9.534   1.378   8.325  2.6933 -1.6917  1.1567
  431MOL0     H58171   8.324   2.520   7.704  3.0176  4.4073 -0.8052
  431MOL0     H58172   8.294   2.758   7.668 -1.3920 -1.1061 -2.1458
  431MOL0     H58173   8.249   3.155   7.783  0.1174 -0.4308 -2.0744
  431MOL0     H58174   8.265   3.383   7.719 -1.4995  1.5911  0.3750
  431MOL0     H58175   7.882   3.580   7.578 -0.9943  0.4148  0.9222
  431MOL0     H58176   7.905   3.641   7.746  0.7956 -2.2462 -0.0985
  431MOL0     H58177   8.011   3.726   7.475 -0.1923 -1.1433  1.1002
  431MOL0     H58178   8.073   3.779   7.638 -0.6917 -1.3742  2.2191
  431MOL0     H58179   7.859   3.866   7.705 -2.1737  2.6017 -0.5459
  431MOL0     H58180   7.785   3.814   7.545  0.1898  0.7675 -1.7073
  431MOL0     H58181   7.812   4.049   7.533 -4.5969 -6.4469 -3.7363
  431MOL0     H58182   7.934   3.969   7.436  0.3985 -0.8146  0.7989
  431MOL0     H58183   8.199   4.163   7.690 -0.4242  2.4941 -0.6193
  431MOL0     H58184   7.830   3.404   7.744 -1.1838 -2.5600 -0.1291
  431MOL0     H58185   7.824   3.170   7.787 -1.8687  2.1104  0.2602
  432MOL0     O58186   6.057   2.703   7.861  0.5510 -0.2169 -0.8636
  432MOL0     C58187   6.096   2.626   7.951 -0.6539  0.0052 -0.8249
  432MOL0     O58188   6.108   2.491   7.942 -0.2845  0.3556  1.0034
  432MOL0     C58189   6.022   2.433   7.852 -0.3612 -0.4848  0.6054
  432MOL0     C58190   6.074   2.380   7.737  0.4136  0.6894  0.2690
  432MOL0     C58191   5.991   2.322   7.642  0.4221  0.1469  0.4789
  432MOL0     C58192   5.850   2.319   7.653 -0.0269 -0.1715 -0.1015
  432MOL0     O58193   5.764   2.261   7.564 -0.5953 -0.4987 -0.2737
  432MOL0     C58194   5.754   2.332   7.446  0.1149  0.6507 -0.0641
  432MOL0     C58195   5.688   2.245   7.342 -0.5603 -0.6364 -0.2399
  432MOL0     C58196   5.692   2.309   7.203  0.1462  0.4627 -0.9385
  432MOL0     C58197   5.688   2.208   7.085  0.4525 -0.3282  0.3244
  432MOL0     C58198   5.705   2.273   6.948  0.5635 -0.0407 -0.0189
  432MOL0     C58199   5.702   2.173   6.829 -0.2222 -0.1416 -0.0499
  432MOL0     C58200   5.749   2.245   6.706  0.2632 -0.1531  0.6850
  432MOL0     C58201   5.678   2.377   6.665  0.0303  1.5738  0.4596
  432MOL0     N58202   5.539   2.348   6.626  0.0589 -0.2077 -0.3559
  432MOL0     C58203   5.499   2.284   6.514  0.2026  0.0285  0.0204
  432MOL0     C58204   5.362   2.285   6.514 -0.0699 -0.4456  0.0015
  432MOL0     C58205   5.268   2.246   6.406  0.7832 -0.8379 -0.3308
  432MOL0     C58206   5.175   2.137   6.444  0.0620 -0.3668 -0.9304
  432MOL0     C58207   5.059   2.116   6.345 -0.0214  0.5766  0.4783
  432MOL0     C58208   5.026   1.964   6.349  0.0431  1.2028 -0.3672
  432MOL0     O58209   5.122   1.874   6.297 -0.0546 -0.0549  0.1846
  432MOL0     C58210   5.089   1.738   6.294 -0.1925 -0.0665  0.6014
  432MOL0     C58211   4.961   1.689   6.289  0.4889  0.0678 -0.5088
  432MOL0     C58212   4.936   1.554   6.278 -0.3282 -0.2124 -0.8250
  432MOL0     C58213   4.800   1.496   6.253 -0.3086 -0.5024 -0.5071
  432MOL0     C58214   5.055   1.468   6.255  0.4459 -0.3155 -0.4680
  432MOL0     C58215   5.059   1.320   6.250 -0.0531 -0.3016 -0.1525
  432MOL0     O58216   4.955   1.253   6.312  0.2883  0.1079 -0.4837
  432MOL0     C58217   4.927   1.251   6.445  0.1585 -0.6264 -0.3319
  432MOL0     C58218   5.020   1.265   6.550  0.6923  0.6445 -0.7161
  432MOL0     C58219   4.978   1.245   6.686 -0.1918  0.2092 -0.3315
  432MOL0     C58220   4.851   1.198   6.709  0.9558  0.5127 -1.0274
  432MOL0     O58221   4.802   1.164   6.839 -0.6198 -0.2811  1.0718
  432MOL0     C58222   4.883   1.216   6.947 -0.3115  0.2570 -1.0972
  432MOL0     C58223   4.819   1.171   7.078 -0.0594 -0.9071  0.3180
  432MOL0     C58224   4.688   1.250   7.092  0.5126 -0.1132 -0.1492
  432MOL0     C58225   4.587   1.176   7.173  0.7308  1.4277 -0.6565
  432MOL0     C58226   4.447   1.246   7.191 -0.5183 -0.1104  0.4295
  432MOL0     C58227   4.448   1.379   7.272  0.4373  0.6552  0.6353
  432MOL0     C58228   4.318   1.454   7.264  0.8046  0.1141  0.1395
  432MOL0     C58229   4.243   1.473   7.393  0.9689 -0.3132 -0.9685
  432MOL0    Cl58230   4.331   1.554   7.521 -0.6543  0.3301  0.2234
  432MOL0     C58231   4.766   1.171   6.603  0.0088 -0.6019  1.0135
  432MOL0     C58232   4.803   1.193   6.469 -0.0972 -0.4907 -0.6069
  432MOL0     O58233   5.147   1.268   6.177 -0.1167 -0.7013 -0.1613
  432MOL0     C58234   5.180   1.525   6.260  0.4771  0.1340  0.8469
  432MOL0     C58235   5.195   1.656   6.287 -0.0829  0.8705  1.1135
  432MOL0     N58236   5.324   2.342   6.640  1.6362 -0.3619 -0.0216
  432MOL0     N58237   5.431   2.387   6.699 -0.1069  0.9083 -0.5365
  432MOL0     C58238   5.797   2.371   7.777  0.5312  0.1954  0.2570
  432MOL0     C58239   5.882   2.423   7.873  0.3153 -0.5472 -0.9919
  432MOL0     C58240   6.182   2.696   8.055  0.5282  1.0722 -0.5836
  432MOL0     C58241   6.264   2.616   8.130 -0.3007  0.0459  0.1608
  432MOL0     C58242   6.368   2.668   8.217  0.6377  0.2333 -1.0621
  432MOL0     C58243   6.385   2.805   8.221  0.8720  0.0036 -0.0487
  432MOL0     O58244   6.477   2.871   8.301 -0.4956  0.0452 -0.1193
  432MOL0     C58245   6.581   2.801   8.374  0.1161  0.3383 -0.0188
  432MOL0     C58246   6.524   2.792   8.520  0.3329  1.2887 -0.6870
  432MOL0     C58247   6.515   2.928   8.586  1.1077  0.0218  0.4610
  432MOL0     C58248   6.469   2.920   8.729 -0.7231  0.8811 -0.5611
  432MOL0     C58249   6.582   2.879   8.811  0.3201  0.9508 -0.2987
  432MOL0     C58250   6.664   2.813   8.870 -0.3761 -0.4413 -0.5525
  432MOL0     C58251   6.296   2.888   8.140 -0.1082  0.9027  0.0641
  432MOL0     C58252   6.193   2.837   8.062  0.7929  1.0469 -0.1999
  432MOL0     H58253   6.180   2.390   7.718  0.6141  3.0940  2.1979
  432MOL0     H58254   6.037   2.270   7.560 -1.9621 -1.7620  0.2402
  432MOL0     H58255   5.701   2.427   7.443  1.4680  1.4192 -1.1182
  432MOL0     H58256   5.851   2.365   7.407 -0.0387  0.3827 -0.6949
  432MOL0     H58257   5.750   2.156   7.332  1.5818  0.8382 -0.7683
  432MOL0     H58258   5.586   2.215   7.368 -0.3863 -2.8141 -1.8063
  432MOL0     H58259   5.605   2.376   7.207 -3.3948 -3.6713 -1.6918
  432MOL0     H58260   5.792   2.351   7.189  0.3480 -0.3029 -1.8517
  432MOL0     H58261   5.771   2.138   7.102 -0.0315 -0.7371  1.0540
  432MOL0     H58262   5.596   2.151   7.104 -0.8084  0.9854 -1.4593
  432MOL0     H58263   5.631   2.351   6.929 -1.4710 -2.1970 -1.5804
  432MOL0     H58264   5.804   2.319   6.950  1.0396 -0.7806 -2.6583
  432MOL0     H58265   5.774   2.096   6.858  0.4891  0.2473 -0.7617
  432MOL0     H58266   5.603   2.128   6.818 -1.6319  1.8538  2.9817
  432MOL0     H58267   5.851   2.275   6.729  0.2180  0.9645 -0.4515
  432MOL0     H58268   5.749   2.170   6.626 -3.5853 -0.6485  0.9248
  432MOL0     H58269   5.731   2.408   6.574  0.5819 -0.1205  0.1865
  432MOL0     H58270   5.675   2.460   6.737  2.1022 -0.1444  2.6487
  432MOL0     H58271   5.558   2.247   6.431 -0.8474  2.6034 -2.0570
  432MOL0     H58272   5.214   2.339   6.385 -1.3317 -1.1346  3.0520
  432MOL0     H58273   5.325   2.220   6.316 -1.2870  1.9907 -2.6829
  432MOL0     H58274   5.130   2.181   6.534  0.4761  2.2299 -1.9053
  432MOL0     H58275   5.220   2.040   6.468 -0.7399 -0.4948  0.1105
  432MOL0     H58276   5.079   2.153   6.244  0.6148  1.2586  0.8421
  432MOL0     H58277   4.966   2.169   6.365 -1.5765 -0.7357 -2.6592
  432MOL0     H58278   4.928   1.950   6.303 -0.8616 -1.9936  2.1625
  432MOL0     H58279   5.015   1.944   6.456  0.9377  1.8978 -0.1347
  432MOL0     H58280   4.876   1.755   6.284  1.0550  0.7956 -0.7905
  432MOL0     H58281   4.797   1.401   6.198  2.7091 -1.5176  0.8431
  432MOL0     H58282   4.749   1.464   6.344 -2.8198 -2.0556 -2.3303
  432MOL0     H58283   4.737   1.573   6.207  0.8230  0.9438  0.2737
  432MOL0     H58284   5.119   1.309   6.534  0.6268  0.8274 -0.6230
  432MOL0     H58285   5.052   1.253   6.765  0.4410 -2.2990 -0.6079
  432MOL0     H58286   4.985   1.179   6.945 -0.5957 -0.8369  1.2867
  432MOL0     H58287   4.890   1.323   6.925  0.9821  0.2664 -0.6760
  432MOL0     H58288   4.800   1.063   7.078  3.5584 -1.6734 -0.1157
  432MOL0     H58289   4.882   1.193   7.164 -0.0729 -0.0367  0.1204
  432MOL0     H58290   4.641   1.258   6.994 -1.2712  0.8764  0.7491
  432MOL0     H58291   4.711   1.351   7.126  0.3295  0.2856 -1.1916
  432MOL0     H58292   4.575   1.081   7.119  0.7572  0.3524  1.1479
  432MOL0     H58293   4.621   1.149   7.273  0.3814 -0.3031 -0.9673
  432MOL0     H58294   4.374   1.176   7.231  0.1566 -1.1060 -0.0427
  432MOL0     H58295   4.432   1.272   7.086  0.7645  2.3763  0.7824
  432MOL0     H58296   4.469   1.356   7.376 -1.6418  1.5601  1.3093
  432MOL0     H58297   4.531   1.442   7.239  1.9610 -0.8476  1.4711
  432MOL0     H58298   4.257   1.412   7.184  0.4089 -0.7999  0.8903
  432MOL0     H58299   4.351   1.556   7.244 -1.0325  0.9646  1.2207
  432MOL0     H58300   4.203   1.375   7.419 -0.4830  0.6638  0.6993
  432MOL0     H58301   4.144   1.519   7.386  1.1456  0.0322 -1.2562
  432MOL0     H58302   4.660   1.153   6.622 -1.1427  3.5576 -0.4529
  432MOL0     H58303   4.723   1.168   6.399 -0.6668 -0.1044 -0.1048
  432MOL0     H58304   5.270   1.469   6.238  1.0622  1.6978 -0.9894
  432MOL0     H58305   5.296   1.697   6.290  0.5026 -0.4262  0.1128
  432MOL0     H58306   5.689   2.372   7.785  0.1307  0.5738 -3.6043
  432MOL0     H58307   5.840   2.458   7.967 -0.4727 -1.6865 -0.9050
  432MOL0     H58308   6.238   2.511   8.133 -3.3432  0.7139  2.1072
  432MOL0     H58309   6.427   2.610   8.287  1.5937  2.2268 -0.1406
  432MOL0     H58310   6.608   2.700   8.340 -0.5456 -0.5901  2.0945
  432MOL0     H58311   6.679   2.848   8.369  0.9147 -1.2192  0.5520
  432MOL0     H58312   6.578   2.720   8.582 -3.0099 -0.7031  0.1985
  432MOL0     H58313   6.423   2.755   8.501  1.0399 -0.8831 -0.5316
  432MOL0     H58314   6.436   2.976   8.528  0.7634 -1.5504 -0.4262
  432MOL0     H58315   6.608   2.983   8.569  0.4835  0.4703 -1.9054
  432MOL0     H58316   6.392   2.842   8.732  2.3098 -2.4459 -1.6575
  432MOL0     H58317   6.431   3.013   8.770 -0.6886  0.2588  0.9463
  432MOL0     H58318   6.731   2.748   8.922  0.2219  3.0886  3.6799
  432MOL0     H58319   6.306   2.995   8.151 -0.9585  0.8933  1.0515
  432MOL0     H58320   6.124   2.903   8.011  0.2974  1.4365  0.9418
  433MOL0     O58321   2.159   5.758  10.483  0.3558 -0.0565 -0.1561
  433MOL0     C58322   2.132   5.832  10.391  1.0785 -0.0178 -0.3031
  433MOL0     O58323   2.207   5.861  10.283  0.2066  0.3300 -0.1855
  433MOL0     C58324   2.340   5.800  10.279  0.4097  0.4067  1.6493
  433MOL0     C58325   2.433   5.836  10.369 -0.0548 -1.1400 -0.2527
  433MOL0     C58326   2.560   5.778  10.366 -0.3894 -0.4028  0.3049
  433MOL0     C58327   2.598   5.690  10.265 -0.3032 -0.5541  0.2876
  433MOL0     O58328   2.730   5.650  10.243 -1.1421  0.7154  0.1841
  433MOL0     C58329   2.786   5.608  10.114 -0.8106  0.0594  0.0557
  433MOL0     C58330   2.781   5.727  10.016  0.4599 -0.0045  0.0181
  433MOL0     C58331   2.836   5.689   9.873  0.1429  1.1260  0.9987
  433MOL0     C58332   2.887   5.805   9.782  0.6468 -0.6098 -0.6832
  433MOL0     C58333   2.984   5.761   9.672  0.3897  0.6749 -0.1304
  433MOL0     C58334   3.052   5.860   9.575 -0.4020 -0.4860  0.0831
  433MOL0     C58335   2.940   5.937   9.499  1.2770  0.2034  0.3280
  433MOL0     C58336   2.980   6.034   9.402 -0.4932  0.1919  0.8442
  433MOL0     N58337   2.859   6.114   9.364  0.1605 -0.2056  0.1051
  433MOL0     C58338   2.772   6.084   9.267  0.0675 -0.3276  0.0280
  433MOL0     C58339   2.687   6.192   9.253  0.3607  0.9419  0.1353
  433MOL0     C58340   2.550   6.194   9.185  0.8738 -0.9306 -0.7236
  433MOL0     C58341   2.477   6.322   9.149 -0.4895 -0.8248  0.3739
  433MOL0     C58342   2.563   6.458   9.112 -0.4403 -0.4528 -0.2140
  433MOL0     C58343   2.648   6.424   8.984 -0.4608 -0.0419 -0.1396
  433MOL0     O58344   2.758   6.526   8.973  0.2523  0.6313 -0.4289
  433MOL0     C58345   2.854   6.516   8.871 -0.3348 -0.5458 -1.0202
  433MOL0     C58346   2.829   6.437   8.759 -0.1311  0.7659 -0.5151
  433MOL0     C58347   2.913   6.437   8.648 -0.0898 -0.7168  0.4115
  433MOL0     C58348   2.861   6.353   8.532  0.5584  0.8326  0.0813
  433MOL0     C58349   3.026   6.524   8.642 -0.5371  0.8059  0.0921
  433MOL0     C58350   3.110   6.556   8.527 -0.3314 -0.5736  0.4812
  433MOL0     O58351   3.192   6.661   8.546 -0.4227  0.6463 -0.2880
  433MOL0     C58352   3.224   6.754   8.444 -0.7591  0.5098 -0.0827
  433MOL0     C58353   3.141   6.774   8.326 -0.5775  0.6923  0.2771
  433MOL0     C58354   3.181   6.864   8.221  0.3015 -0.9459 -0.5184
  433MOL0     C58355   3.308   6.920   8.235  0.1060 -0.2615  0.0616
  433MOL0     O58356   3.367   7.010   8.146  0.2188  0.0529 -0.2394
  433MOL0     C58357   3.338   6.982   7.999 -1.0009 -0.2371  0.3042
  433MOL0     C58358   3.462   7.028   7.909  0.0403 -0.4895  0.4353
  433MOL0     C58359   3.510   7.166   7.921 -0.9400  0.2399  0.2806
  433MOL0     C58360   3.622   7.199   7.813 -0.3080 -0.0248 -0.5651
  433MOL0     C58361   3.671   7.341   7.818  0.5231  0.1462 -1.7758
  433MOL0     C58362   3.789   7.363   7.728 -0.0239 -0.3393 -0.0078
  433MOL0     C58363   3.863   7.499   7.740 -0.1810  0.8882  0.3665
  433MOL0     C58364   3.962   7.511   7.620  0.1906 -0.0703 -0.0898
  433MOL0    Cl58365   3.895   7.533   7.447  0.7220  0.6474  0.0033
  433MOL0     C58366   3.386   6.904   8.349  0.3811 -0.7369  0.2220
  433MOL0     C58367   3.344   6.821   8.451 -0.0757  0.2739 -0.4384
  433MOL0     O58368   3.096   6.501   8.424 -1.0864 -0.9866  0.5994
  433MOL0     C58369   3.060   6.582   8.770 -0.1951 -0.2588 -0.7338
  433MOL0     C58370   2.974   6.583   8.879 -0.2182  0.4914 -0.1256
  433MOL0     N58371   2.732   6.294   9.340  1.0836  0.0496  0.6015
  433MOL0     N58372   2.828   6.245   9.406 -0.0199 -0.4430 -0.4311
  433MOL0     C58373   2.497   5.648  10.178  0.0154  0.5921  0.2498
  433MOL0     C58374   2.369   5.703  10.182 -0.8104 -0.1236 -0.0339
  433MOL0     C58375   1.990   5.883  10.407  0.1314  0.7206  0.3253
  433MOL0     C58376   1.929   5.948  10.302 -0.0871  0.5896  0.0583
  433MOL0     C58377   1.800   6.001  10.316 -0.4158  0.1455  0.2835
  433MOL0     C58378   1.725   5.985  10.430 -0.3795 -0.5135  0.0195
  433MOL0     O58379   1.594   6.022  10.424  0.1700  0.3119  0.2131
  433MOL0     C58380   1.509   6.035  10.542  0.3063  0.9946 -0.1535
  433MOL0     C58381   1.378   6.102  10.499 -0.4490  0.2337  0.1941
  433MOL0     C58382   1.417   6.215  10.400  0.3050 -0.3299  0.0258
  433MOL0     C58383   1.317   6.328  10.384  0.5078 -0.7469 -0.4193
  433MOL0     C58384   1.202   6.285  10.305  0.0144  1.0758 -0.0698
  433MOL0     C58385   1.100   6.254  10.247  0.1544  0.1224 -0.0189
  433MOL0     C58386   1.781   5.923  10.536 -0.5343 -0.2885 -0.2252
  433MOL0     C58387   1.914   5.883  10.526 -0.0925  0.2905 -0.7920
  433MOL0     H58388   2.390   5.892  10.452 -3.3606 -3.4030 -0.2703
  433MOL0     H58389   2.630   5.806  10.445  0.3550 -1.2686 -0.0277
  433MOL0     H58390   2.885   5.573  10.146 -1.4360 -1.6809  0.1819
  433MOL0     H58391   2.740   5.520  10.068  1.3513 -0.2101 -1.7958
  433MOL0     H58392   2.682   5.764   9.986  0.1381 -2.8365 -3.0657
  433MOL0     H58393   2.843   5.808  10.055  2.8037 -1.5829 -0.1994
  433MOL0     H58394   2.914   5.612   9.880  1.3305  1.6450 -3.4773
  433MOL0     H58395   2.760   5.643   9.808  1.5885 -0.2610  0.2093
  433MOL0     H58396   2.803   5.861   9.740  0.1019 -1.5781 -0.9157
  433MOL0     H58397   2.940   5.866   9.856  0.4043 -2.4056  1.0574
  433MOL0     H58398   3.060   5.700   9.722  0.0631 -0.6851 -1.2127
  433MOL0     H58399   2.923   5.696   9.608  0.6628 -0.3293  0.6137
  433MOL0     H58400   3.123   5.929   9.622  0.4524 -1.8116  0.8028
  433MOL0     H58401   3.116   5.798   9.511  2.0375  2.9640 -1.1534
  433MOL0     H58402   2.872   5.868   9.448 -0.8158  0.5854  2.4719
  433MOL0     H58403   2.876   5.985   9.573  0.9494 -0.2882  0.3716
  433MOL0     H58404   3.009   5.986   9.308 -1.0237  0.1145  0.7115
  433MOL0     H58405   3.051   6.107   9.439 -0.4269  0.7230 -0.2890
  433MOL0     H58406   2.767   5.986   9.220  0.7551 -1.2377  1.7732
  433MOL0     H58407   2.582   6.142   9.094  1.1178 -2.0812 -0.0057
  433MOL0     H58408   2.477   6.138   9.245 -0.3188  0.0495 -1.2128
  433MOL0     H58409   2.416   6.338   9.239 -2.7701 -2.5012 -0.7808
  433MOL0     H58410   2.403   6.297   9.073  0.4845 -0.2536 -0.8073
  433MOL0     H58411   2.632   6.477   9.194  1.0020 -1.1862 -1.2085
  433MOL0     H58412   2.487   6.533   9.092 -1.3884 -1.4418 -0.4439
  433MOL0     H58413   2.574   6.438   8.904 -2.2460  3.1344  1.8748
  433MOL0     H58414   2.689   6.322   8.983 -0.4035 -0.0179 -0.3937
  433MOL0     H58415   2.746   6.367   8.768  1.1985 -1.0352 -1.6019
  433MOL0     H58416   2.797   6.402   8.457 -1.0131 -0.6615  0.3884
  433MOL0     H58417   2.946   6.314   8.476 -1.4346 -1.3298 -1.6513
  433MOL0     H58418   2.811   6.262   8.565 -0.5916  0.9287 -1.2727
  433MOL0     H58419   3.048   6.719   8.318 -0.4038  0.4338 -0.0003
  433MOL0     H58420   3.105   6.889   8.148 -0.5044  1.3040  0.9893
  433MOL0     H58421   3.313   6.877   7.983  0.6504 -0.4674 -0.9891
  433MOL0     H58422   3.258   7.050   7.966  1.6708  1.1447 -4.1364
  433MOL0     H58423   3.544   6.960   7.937  0.0026 -1.1525 -0.9988
  433MOL0     H58424   3.432   7.002   7.807  2.7943 -1.1439 -0.3041
  433MOL0     H58425   3.564   7.176   8.016  2.0656 -4.3463 -0.6459
  433MOL0     H58426   3.431   7.241   7.910 -1.8574 -0.1712  3.2468
  433MOL0     H58427   3.701   7.124   7.826  0.9790  1.3980 -0.0338
  433MOL0     H58428   3.576   7.177   7.717  0.0616  0.3824 -0.8377
  433MOL0     H58429   3.701   7.370   7.919  1.3728  0.7394 -2.1906
  433MOL0     H58430   3.590   7.411   7.795  0.3754  1.3391  1.7611
  433MOL0     H58431   3.862   7.283   7.749 -4.3307 -4.3581  1.3274
  433MOL0     H58432   3.754   7.334   7.629  1.2329 -1.8773 -0.0456
  433MOL0     H58433   3.915   7.507   7.835 -0.2292  1.3401  0.3564
  433MOL0     H58434   3.785   7.574   7.725  0.8044  1.9467  0.4508
  433MOL0     H58435   4.031   7.426   7.622 -0.6477 -0.7594  1.5219
  433MOL0     H58436   4.016   7.603   7.643  0.6491 -0.7066  1.4928
  433MOL0     H58437   3.481   6.956   8.351 -0.5322  1.3516 -2.7355
  433MOL0     H58438   3.409   6.814   8.538 -2.1755  0.2859  1.2199
  433MOL0     H58439   3.158   6.625   8.786 -0.0760 -1.2402  1.4771
  433MOL0     H58440   2.992   6.644   8.967 -2.9793 -0.1770  0.9942
  433MOL0     H58441   2.515   5.570  10.104  0.7170 -0.0021  1.0247
  433MOL0     H58442   2.295   5.666  10.111 -0.9855  0.2595 -0.0502
  433MOL0     H58443   1.998   5.971  10.221 -0.2850  0.9498 -0.0158
  433MOL0     H58444   1.745   6.059  10.243 -1.8552  1.1335  2.0872
  433MOL0     H58445   1.473   5.941  10.585  2.2572  0.4249  0.3180
  433MOL0     H58446   1.554   6.092  10.624  0.1028  3.0295 -1.3678
  433MOL0     H58447   1.332   6.136  10.592 -2.3189 -1.7280  0.0584
  433MOL0     H58448   1.311   6.030  10.452 -2.1382  1.2661  0.9191
  433MOL0     H58449   1.442   6.162  10.307 -1.2700 -0.0515 -0.5750
  433MOL0     H58450   1.503   6.262  10.449 -0.5946  2.3951 -0.8093
  433MOL0     H58451   1.356   6.423  10.347 -2.2708  0.7273  0.1205
  433MOL0     H58452   1.284   6.359  10.483  2.7042 -2.1349  0.8150
  433MOL0     H58453   1.003   6.249  10.202  0.3956  1.3994 -0.7424
  433MOL0     H58454   1.738   5.909  10.635  1.0212  0.7172  0.6376
  433MOL0     H58455   1.959   5.849  10.618  0.7934 -1.1693 -1.7327
  434MOL0     O58456   4.502   8.169  10.639 -0.5017 -0.6316 -0.5054
  434MOL0     C58457   4.398   8.120  10.694 -0.9360  1.0126  0.6342
  434MOL0     O58458   4.280   8.184  10.723  0.6181  0.6284  0.7804
  434MOL0     C58459   4.268   8.317  10.687 -0.1114  0.8774  0.5904
  434MOL0     C58460   4.305   8.381  10.560 -0.1526 -0.5124  0.0978
  434MOL0     C58461   4.291   8.519  10.558  0.4602  0.7162  0.2930
  434MOL0     C58462   4.213   8.589  10.650 -0.7287  0.8367  0.2543
  434MOL0     O58463   4.187   8.722  10.625 -0.0573  0.6934  0.6194
  434MOL0     C58464   4.061   8.741  10.554  0.7379  0.9165 -0.7821
  434MOL0     C58465   3.993   8.881  10.550  0.1927  0.7174 -0.6491
  434MOL0     C58466   4.073   9.007  10.534 -0.5163 -0.3192 -0.5173
  434MOL0     C58467   4.146   9.040  10.665  0.6421  0.6807  0.4374
  434MOL0     C58468   4.059   9.078  10.780  0.4078  0.7666 -0.4076
  434MOL0     C58469   4.146   9.104  10.906 -0.0919  0.4893  0.5280
  434MOL0     C58470   4.199   8.978  10.984 -0.0372 -0.4327  0.2781
  434MOL0     C58471   4.095   8.873  11.025 -0.9331  0.7742  0.4652
  434MOL0     N58472   4.147   8.761  11.113  0.7888  0.0229  0.3486
  434MOL0     C58473   4.256   8.685  11.070 -0.1892 -0.5163 -0.4133
  434MOL0     C58474   4.296   8.620  11.181  0.2538 -0.2238  0.9831
  434MOL0     C58475   4.402   8.525  11.179  0.0788  0.7932 -0.0054
  434MOL0     C58476   4.368   8.413  11.263 -0.0469  1.8208 -0.1114
  434MOL0     C58477   4.504   8.335  11.298  0.3019  0.1514 -0.3884
  434MOL0     C58478   4.476   8.193  11.344  0.8917  0.8426 -0.0866
  434MOL0     O58479   4.365   8.188  11.434  0.0226  1.0008 -0.3572
  434MOL0     C58480   4.241   8.132  11.409 -0.1212 -0.3325 -0.0547
  434MOL0     C58481   4.205   8.048  11.306  0.1820 -0.0835  0.7617
  434MOL0     C58482   4.070   7.994  11.292 -0.0998 -1.3393 -0.0983
  434MOL0     C58483   4.057   7.926  11.158 -0.4303 -0.9721  1.1289
  434MOL0     C58484   3.968   8.027  11.382  0.5965  0.4543  0.1287
  434MOL0     C58485   3.830   7.959  11.389 -0.4877  0.0371  0.1202
  434MOL0     O58486   3.808   7.847  11.325 -0.4864 -0.1680 -0.3075
  434MOL0     C58487   3.704   7.770  11.347  1.4110 -0.1172 -0.5310
  434MOL0     C58488   3.655   7.739  11.476 -1.2343 -0.5320 -0.0943
  434MOL0     C58489   3.526   7.673  11.494 -0.5025 -0.2863 -0.1042
  434MOL0     C58490   3.461   7.617  11.378 -0.2624  0.0179  0.4714
  434MOL0     O58491   3.348   7.536  11.397  0.6362 -0.5160 -0.6026
  434MOL0     C58492   3.222   7.576  11.339  0.4955 -0.2370 -0.2366
  434MOL0     C58493   3.098   7.547  11.433 -1.0095 -0.0015  0.5471
  434MOL0     C58494   2.961   7.595  11.384  0.2925 -0.1343 -0.3409
  434MOL0     C58495   2.931   7.567  11.238 -0.3414 -0.4613  0.7346
  434MOL0     C58496   2.795   7.619  11.211 -0.8330 -0.3706 -1.2333
  434MOL0     C58497   2.751   7.609  11.068  0.2259 -1.0231  0.6024
  434MOL0     C58498   2.621   7.682  11.045  0.3281  0.3022 -0.4269
  434MOL0     C58499   2.597   7.718  10.898 -0.1219 -0.3684 -0.5578
  434MOL0    Cl58500   2.441   7.796  10.869  0.0565 -0.1280 -0.2091
  434MOL0     C58501   3.511   7.646  11.249 -0.1445  0.3807  0.0107
  434MOL0     C58502   3.624   7.726  11.237 -1.3567 -1.1472  0.2097
  434MOL0     O58503   3.744   8.024  11.453  0.3208 -0.3806 -0.2980
  434MOL0     C58504   4.010   8.106  11.492 -0.5351  0.4869  0.5504
  434MOL0     C58505   4.143   8.155  11.504 -0.1710 -0.3181  0.1179
  434MOL0     N58506   4.212   8.656  11.287 -0.4298  0.2611  0.4595
  434MOL0     N58507   4.129   8.748  11.246 -0.0825 -0.1284 -0.6521
  434MOL0     C58508   4.157   8.520  10.761  0.2463 -0.0288  0.2493
  434MOL0     C58509   4.195   8.383  10.784  0.0579 -0.3577  0.1372
  434MOL0     C58510   4.417   7.968  10.739 -0.2456 -0.3561 -0.9391
  434MOL0     C58511   4.532   7.884  10.725  0.2152 -0.5341 -0.5179
  434MOL0     C58512   4.535   7.752  10.788 -0.8226 -0.3557 -0.2992
  434MOL0     C58513   4.422   7.707  10.859 -0.6232 -0.0075  0.4427
  434MOL0     O58514   4.443   7.587  10.922 -0.4065  0.0284  0.5900
  434MOL0     C58515   4.329   7.516  10.967 -0.0768  0.5610 -0.0404
  434MOL0     C58516   4.321   7.557  11.120  1.3695  0.2717  0.4948
  434MOL0     C58517   4.181   7.528  11.183  0.3494  0.2511  0.2117
  434MOL0     C58518   4.165   7.564  11.325  0.1656  0.3185  0.5879
  434MOL0     C58519   4.028   7.549  11.373  0.5833  0.4224 -0.4330
  434MOL0     C58520   3.919   7.523  11.427 -0.0007 -0.5057 -0.0587
  434MOL0     C58521   4.305   7.776  10.854 -0.4873  0.5023  0.0113
  434MOL0     C58522   4.299   7.905  10.793 -1.0211 -0.0920 -0.1678
  434MOL0     H58523   4.344   8.319  10.480  1.3588  1.8433 -1.1145
  434MOL0     H58524   4.328   8.563  10.466 -0.5786 -3.4535 -2.4112
  434MOL0     H58525   4.082   8.705  10.453 -1.9599 -0.6834 -0.8924
  434MOL0     H58526   3.986   8.680  10.605 -0.3587  1.7923 -1.2883
  434MOL0     H58527   3.921   8.854  10.472 -0.3789 -1.3249  0.4922
  434MOL0     H58528   3.934   8.886  10.642  1.2767  0.4560  0.0759
  434MOL0     H58529   4.147   8.983  10.458 -1.3817  1.7932 -2.1232
  434MOL0     H58530   4.024   9.101  10.507  0.9555  0.8439  0.6937
  434MOL0     H58531   4.220   8.961  10.678  0.4437  0.0889 -1.6583
  434MOL0     H58532   4.209   9.126  10.645  2.0188 -0.0018  1.6634
  434MOL0     H58533   4.009   9.173  10.762  0.0481  0.3484 -1.7325
  434MOL0     H58534   3.984   9.001  10.801 -0.0345  1.7021  1.7029
  434MOL0     H58535   4.237   9.160  10.883 -0.4951  0.0766 -2.3855
  434MOL0     H58536   4.094   9.175  10.971 -0.9372  0.7201 -0.3705
  434MOL0     H58537   4.275   8.929  10.923 -0.4909 -1.3820  0.4636
  434MOL0     H58538   4.249   8.998  11.079 -0.1654 -1.3257  0.5430
  434MOL0     H58539   4.037   8.833  10.941 -0.9672  0.5277  0.6027
  434MOL0     H58540   4.022   8.930  11.083  0.2745  2.4060  0.4400
  434MOL0     H58541   4.296   8.684  10.969 -1.9928  0.5927 -1.1812
  434MOL0     H58542   4.410   8.482  11.079 -0.1832 -1.0212  0.7061
  434MOL0     H58543   4.491   8.586  11.199 -1.3984  2.4566  1.8365
  434MOL0     H58544   4.288   8.349  11.224  0.7877 -1.6353  3.2249
  434MOL0     H58545   4.327   8.439  11.361  0.9019  1.0071  0.5066
  434MOL0     H58546   4.544   8.379  11.389  0.6851 -2.4888  0.8229
  434MOL0     H58547   4.581   8.328  11.221  2.5549  1.3815  1.6052
  434MOL0     H58548   4.562   8.154  11.399  0.3134 -1.5632 -0.7678
  434MOL0     H58549   4.468   8.136  11.250  2.9407  1.0772 -0.4367
  434MOL0     H58550   4.281   8.024  11.232  0.1798  1.1845  0.3205
  434MOL0     H58551   3.951   7.929  11.132  0.1407  0.0267 -1.2875
  434MOL0     H58552   4.112   7.974  11.077 -1.0963  0.5376  1.5225
  434MOL0     H58553   4.087   7.821  11.168 -1.4869 -1.1847  2.5492
  434MOL0     H58554   3.693   7.801  11.557 -2.8056  1.4968 -0.8119
  434MOL0     H58555   3.490   7.659  11.596  1.0864 -3.6521  0.1298
  434MOL0     H58556   3.234   7.684  11.335  2.3898 -0.4111 -4.0307
  434MOL0     H58557   3.206   7.520  11.246  0.1053  1.0982 -1.0019
  434MOL0     H58558   3.097   7.442  11.464 -0.3953 -1.0115 -2.5339
  434MOL0     H58559   3.122   7.610  11.520  3.3938  2.2183 -1.9442
  434MOL0     H58560   2.956   7.704  11.385  2.0809  0.0144 -1.5966
  434MOL0     H58561   2.877   7.557  11.442  1.3705  0.4509  1.6937
  434MOL0     H58562   2.998   7.614  11.166 -2.2680 -0.9138 -1.4807
  434MOL0     H58563   2.928   7.460  11.216 -1.5604 -0.0009 -1.8037
  434MOL0     H58564   2.802   7.724  11.239  4.6563 -1.0395  1.0823
  434MOL0     H58565   2.726   7.575  11.284  0.5865 -1.6468 -0.6075
  434MOL0     H58566   2.830   7.636  10.997 -1.6410  0.8287 -0.8808
  434MOL0     H58567   2.724   7.505  11.046 -2.7018  0.0937 -1.8385
  434MOL0     H58568   2.620   7.773  11.106 -0.0398 -1.0458  1.6534
  434MOL0     H58569   2.533   7.628  11.080  1.4780 -0.2687  1.7905
  434MOL0     H58570   2.592   7.629  10.834 -0.1816 -0.0914 -0.9438
  434MOL0     H58571   2.679   7.780  10.862  0.3068  0.0500  1.0423
  434MOL0     H58572   3.442   7.612  11.172  0.3691  0.4103 -0.4661
  434MOL0     H58573   3.651   7.765  11.139 -0.8969  1.3073  1.2417
  434MOL0     H58574   3.943   8.152  11.564 -0.7650  0.2109  0.5136
  434MOL0     H58575   4.174   8.219  11.586  1.6311 -1.5127  0.4338
  434MOL0     H58576   4.100   8.583  10.829  0.6924  2.6854 -1.7374
  434MOL0     H58577   4.145   8.327  10.863  0.6075  0.6082  1.2090
  434MOL0     H58578   4.625   7.922  10.683  0.5135 -0.5786  0.0925
  434MOL0     H58579   4.620   7.684  10.786 -0.1943  0.4314 -1.3585
  434MOL0     H58580   4.234   7.535  10.916 -0.9880 -0.7319  1.1017
  434MOL0     H58581   4.350   7.409  10.956  1.7071  1.0122 -1.5745
  434MOL0     H58582   4.335   7.666  11.127  0.3147  0.5730 -1.2059
  434MOL0     H58583   4.399   7.509  11.179  2.8728  2.8661  0.7906
  434MOL0     H58584   4.160   7.422  11.166  2.4628  0.3561 -4.4184
  434MOL0     H58585   4.123   7.595  11.119 -1.5308 -0.2288  1.3337
  434MOL0     H58586   4.197   7.667  11.343  0.0128  0.5357 -0.3286
  434MOL0     H58587   4.220   7.490  11.384  1.4148  1.8856  1.4603
  434MOL0     H58588   3.827   7.503  11.479 -0.5151  0.3945 -0.6126
  434MOL0     H58589   4.218   7.745  10.911 -1.8203 -1.5605 -2.9037
  434MOL0     H58590   4.209   7.966  10.793 -1.6013 -0.9362  0.0489
  435MOL0     O58591   0.623  10.946   0.420  1.0303 -0.3366  0.3275
  435MOL0     C58592   0.577  10.911   0.528  0.5016 -0.9102 -0.2062
  435MOL0     O58593   0.659  10.894   0.640 -0.1813 -0.0321  0.2486
  435MOL0     C58594   0.783  10.955   0.644  0.3275  0.7488  0.1050
  435MOL0     C58595   0.799  11.077   0.707  0.0183 -0.5532 -0.4358
  435MOL0     C58596   0.925  11.142   0.723 -0.7154  0.5424 -0.3213
  435MOL0     C58597   1.027  11.075   0.656 -0.0923 -0.3457  0.6298
  435MOL0     O58598   1.150  11.134   0.639 -0.1902 -0.0382  0.8404
  435MOL0     C58599   1.192  11.244   0.727  1.0342  0.2053  0.2960
  435MOL0     C58600   1.329  11.308   0.703 -0.9037  0.0997 -0.4988
  435MOL0     C58601   1.431  11.202   0.678  0.4979  0.0673  0.9456
  435MOL0     C58602   1.572  11.252   0.686 -0.6238  0.4549  0.5907
  435MOL0     C58603   1.631  11.220   0.825 -0.9542  0.6538  0.0648
  435MOL0     C58604   1.748  11.318   0.850 -0.0083  0.2070  0.0581
  435MOL0     C58605   1.803  11.292   0.984  0.5677  0.7925 -1.0190
  435MOL0     C58606   1.916  11.386   1.025  0.0997 -0.0703 -0.8314
  435MOL0     N58607   2.030  11.385   0.933 -0.5856 -0.2720 -0.0815
  435MOL0     C58608   2.134  11.298   0.942 -0.3478  0.3661 -0.4226
  435MOL0     C58609   2.217  11.339   0.845  0.5844 -0.0939  0.3277
  435MOL0     C58610   2.326  11.254   0.789  0.0321  0.1195  1.0245
  435MOL0     C58611   2.456  11.335   0.755  0.2160 -0.1856  0.1670
  435MOL0     C58612   2.511  11.402   0.891  0.1989  0.0287  0.1631
  435MOL0     C58613   2.652  11.457   0.868  1.1671  0.6151 -0.1496
  435MOL0     O58614   2.695  11.489   1.002  0.0994  0.3169 -0.5800
  435MOL0     C58615   2.810  11.555   1.027 -0.8606 -0.3233  0.2360
  435MOL0     C58616   2.827  11.612   1.154 -0.0324  1.0994 -0.3381
  435MOL0     C58617   2.948  11.673   1.188  0.3547 -0.9588 -0.2422
  435MOL0     C58618   2.952  11.754   1.314 -1.4934  0.5341 -0.3207
  435MOL0     C58619   3.052  11.673   1.095  0.6361  0.0283 -0.5270
  435MOL0     C58620   3.175  11.753   1.112 -0.0781 -0.0950  0.9490
  435MOL0     O58621   3.243  11.783   0.999 -0.0622  0.7035  0.0691
  435MOL0     C58622   3.375  11.827   1.013  0.4196  0.0913 -0.4913
  435MOL0     C58623   3.413  11.965   1.028  0.1267 -0.5492  0.1080
  435MOL0     C58624   3.543  12.005   1.019  0.2615 -0.9530  0.1693
  435MOL0     C58625   3.645  11.919   1.006 -0.6512 -0.5377 -0.1374
  435MOL0     O58626   3.780  11.950   1.006  0.2430 -0.0084  0.2209
  435MOL0     C58627   3.827  12.085   1.050  0.1526 -0.5395  0.2514
  435MOL0     C58628   3.968  12.116   1.012 -0.8710  1.0506  0.1275
  435MOL0     C58629   4.083  12.029   1.081 -0.1942 -0.0399  0.4789
  435MOL0     C58630   4.111  11.914   0.988  0.1383 -0.6502  0.4619
  435MOL0     C58631   4.203  11.813   1.060  0.0101 -0.3966 -0.0975
  435MOL0     C58632   4.282  11.724   0.965  0.5333 -0.5085 -0.3732
  435MOL0     C58633   4.197  11.637   0.867  0.9342 -0.2384  0.6385
  435MOL0     C58634   4.281  11.557   0.751  0.3375 -0.1037 -0.6656
  435MOL0    Cl58635   4.316  11.673   0.619  0.2451  0.0944 -0.5502
  435MOL0     C58636   3.614  11.792   1.015  0.5979  0.6044 -0.4417
  435MOL0     C58637   3.482  11.741   0.999 -0.5786 -0.2806 -0.9847
  435MOL0     O58638   3.216  11.779   1.226 -0.2306 -0.6124  0.1874
  435MOL0     C58639   3.028  11.615   0.971  0.8538 -0.2169 -0.0845
  435MOL0     C58640   2.917  11.550   0.944  0.2287  0.8464 -0.0576
  435MOL0     N58641   2.160  11.451   0.780  0.0584 -0.3373  0.4110
  435MOL0     N58642   2.044  11.478   0.832  0.2082  0.1450  0.7741
  435MOL0     C58643   1.016  10.959   0.581  0.0990 -0.1930 -1.3904
  435MOL0     C58644   0.893  10.894   0.584  0.5157 -0.1293  0.5463
  435MOL0     C58645   0.437  10.870   0.544  0.8204  0.7860 -0.3915
  435MOL0     C58646   0.389  10.841   0.678  0.4278 -0.5174  0.0027
  435MOL0     C58647   0.250  10.832   0.698  0.1404 -0.9227  0.1799
  435MOL0     C58648   0.162  10.833   0.591  0.8362  0.4290  0.2243
  435MOL0     O58649   0.029  10.796   0.617  0.4366  0.2941  0.3124
  435MOL0     C58650  -0.018  10.750   0.742 -0.6654  0.1718  0.4915
  435MOL0     C58651  -0.066  10.874   0.825 -0.1124 -0.0136 -0.6120
  435MOL0     C58652  -0.197  10.928   0.762  0.3203  0.8274  0.0000
  435MOL0     C58653  -0.276  11.017   0.856 -1.0515 -0.6041  0.1745
  435MOL0     C58654  -0.375  11.111   0.790  0.1323  0.3928 -0.4678
  435MOL0     C58655  -0.460  11.171   0.728  0.6298 -0.3387  0.9507
  435MOL0     C58656   0.210  10.855   0.461  1.3362 -0.0954  0.1991
  435MOL0     C58657   0.346  10.874   0.440 -0.3526 -0.2945 -0.3774
  435MOL0     H58658   0.707  11.127   0.738  0.5929 -0.4185  1.1216
  435MOL0     H58659   0.933  11.239   0.771 -0.9672  1.0785 -1.3361
  435MOL0     H58660   1.122  11.325   0.706  1.1430  0.0877 -0.5452
  435MOL0     H58661   1.172  11.221   0.833  2.0131 -0.5932  0.3290
  435MOL0     H58662   1.320  11.382   0.623  0.9094  1.0984  0.1435
  435MOL0     H58663   1.372  11.361   0.789  1.4431  0.3518 -1.7346
  435MOL0     H58664   1.426  11.111   0.740  3.1961  0.4659  1.8848
  435MOL0     H58665   1.411  11.174   0.574  0.1180  2.9836  0.1524
  435MOL0     H58666   1.623  11.205   0.602 -3.5846  1.4375 -1.9709
  435MOL0     H58667   1.559  11.359   0.672 -0.4089  0.4893  0.6734
  435MOL0     H58668   1.558  11.230   0.906  1.8637  1.6474  2.6997
  435MOL0     H58669   1.676  11.121   0.814  0.3768  1.3379 -0.9476
  435MOL0     H58670   1.831  11.307   0.779  0.4361 -0.8806  0.7270
  435MOL0     H58671   1.710  11.420   0.839  3.1993  1.4842 -0.2415
  435MOL0     H58672   1.727  11.303   1.062  2.0189  1.1416  0.3921
  435MOL0     H58673   1.851  11.194   0.993  0.7665  0.9810  0.3058
  435MOL0     H58674   1.944  11.357   1.126 -1.4123 -0.1003 -0.3938
  435MOL0     H58675   1.876  11.487   1.014  0.6490  0.0999 -1.3127
  435MOL0     H58676   2.135  11.204   0.997  0.7567  0.6204  0.0267
  435MOL0     H58677   2.341  11.175   0.863 -1.3302  0.6200  1.8676
  435MOL0     H58678   2.289  11.206   0.697 -0.4541 -0.0295  1.2935
  435MOL0     H58679   2.434  11.409   0.677 -1.4080 -1.1657 -0.3538
  435MOL0     H58680   2.530  11.267   0.713 -0.5480 -2.7487  2.6434
  435MOL0     H58681   2.504  11.310   0.950  2.2629 -2.2496 -2.7937
  435MOL0     H58682   2.446  11.481   0.929  2.8021  1.6823  1.5219
  435MOL0     H58683   2.644  11.529   0.786 -0.8770 -0.2665 -0.7929
  435MOL0     H58684   2.714  11.380   0.822  0.9614 -0.4241  1.2426
  435MOL0     H58685   2.751  11.593   1.228  2.7329 -1.8075  2.0501
  435MOL0     H58686   3.038  11.720   1.373 -0.9489  1.7646 -0.3784
  435MOL0     H58687   2.970  11.857   1.281  0.5706  1.1277  2.2729
  435MOL0     H58688   2.853  11.749   1.359 -2.3312  0.8274 -2.0724
  435MOL0     H58689   3.341  12.045   1.042 -0.7895 -1.7495  3.0921
  435MOL0     H58690   3.556  12.112   1.017 -1.3578 -0.7379 -1.5202
  435MOL0     H58691   3.769  12.152   0.986  1.1767 -2.0996 -2.4906
  435MOL0     H58692   3.815  12.101   1.157 -4.9439 -1.6707  0.1141
  435MOL0     H58693   3.984  12.115   0.903  2.3790  2.0061  0.4797
  435MOL0     H58694   3.980  12.221   1.040 -2.2546  0.3216  4.0615
  435MOL0     H58695   4.038  11.990   1.173 -3.9522  0.2850 -1.0415
  435MOL0     H58696   4.169  12.091   1.107 -0.3894 -0.4541  2.2756
  435MOL0     H58697   4.019  11.870   0.948  0.2684 -0.0152 -0.5799
  435MOL0     H58698   4.158  11.939   0.892  1.7749 -1.9034  0.8821
  435MOL0     H58699   4.159  11.747   1.136 -1.0602  0.5415  0.1273
  435MOL0     H58700   4.279  11.869   1.115 -0.4479 -0.4523  0.6175
  435MOL0     H58701   4.339  11.793   0.903 -2.6392  1.7319 -1.0155
  435MOL0     H58702   4.353  11.666   1.026 -1.5936 -0.0101  2.8174
  435MOL0     H58703   4.128  11.707   0.818 -3.0247 -2.3633  2.6277
  435MOL0     H58704   4.137  11.559   0.915  1.5200 -0.9579  0.2349
  435MOL0     H58705   4.204  11.489   0.713  0.8303  0.1814 -2.2270
  435MOL0     H58706   4.374  11.508   0.779  3.2291  4.4747 -1.2382
  435MOL0     H58707   3.686  11.712   1.015  0.3924  0.3097  2.4447
  435MOL0     H58708   3.466  11.635   0.982  2.7881 -1.0879  0.0836
  435MOL0     H58709   3.096  11.603   0.887 -0.2762  4.3121 -1.9353
  435MOL0     H58710   2.905  11.519   0.840  2.2941  2.0812 -0.7253
  435MOL0     H58711   1.103  10.925   0.526  1.3158 -1.8042  1.3611
  435MOL0     H58712   0.878  10.798   0.535 -0.4989 -0.1016  0.7817
  435MOL0     H58713   0.458  10.842   0.762  1.4357  1.2852 -0.7844
  435MOL0     H58714   0.228  10.814   0.803  0.4067 -2.6518 -0.0252
  435MOL0     H58715  -0.101  10.680   0.728  0.4096 -0.6615 -2.5684
  435MOL0     H58716   0.055  10.693   0.799  0.0884  1.2412  0.6218
  435MOL0     H58717   0.003  10.959   0.825 -2.9692  2.4736 -0.2474
  435MOL0     H58718  -0.086  10.832   0.924  0.2667 -1.5506 -1.1578
  435MOL0     H58719  -0.262  10.846   0.732  0.0348  0.4421  1.5968
  435MOL0     H58720  -0.178  10.983   0.669 -0.5962  1.3258  0.0997
  435MOL0     H58721  -0.203  11.085   0.902 -0.9187 -1.4602  1.2894
  435MOL0     H58722  -0.319  10.964   0.942 -1.2266 -0.2161  0.3280
  435MOL0     H58723  -0.523  11.229   0.664  2.7461  0.7959 -0.2156
  435MOL0     H58724   0.142  10.859   0.377  1.4659 -1.8681 -0.0274
  435MOL0     H58725   0.382  10.885   0.338 -0.1785 -0.1667 -0.3015
  436MOL0     O58726  10.089  10.300   7.305 -0.2262 -0.2472  0.4105
  436MOL0     C58727  10.028  10.300   7.410 -0.2194  0.1483  0.2052
  436MOL0     O58728   9.920  10.228   7.426  0.1551 -0.7342  0.4951
  436MOL0     C58729   9.852  10.182   7.315  0.1779 -0.1753  0.4246
  436MOL0     C58730   9.908  10.084   7.222  0.1455  0.2222 -0.0303
  436MOL0     C58731   9.840  10.036   7.108 -0.1275 -0.7247 -0.3833
  436MOL0     C58732   9.711  10.082   7.086 -0.1221  0.1896 -0.9652
  436MOL0     O58733   9.649  10.043   6.976 -0.3207  0.3971 -0.3319
  436MOL0     C58734   9.504  10.030   6.989 -0.3188  0.3107  0.0294
  436MOL0     C58735   9.456   9.917   6.901  0.2327  0.9110 -0.8322
  436MOL0     C58736   9.312   9.885   6.923  0.1914 -1.3708 -0.0723
  436MOL0     C58737   9.258   9.798   6.810 -0.5004  0.4165 -0.1352
  436MOL0     C58738   9.125   9.722   6.827  0.6975  0.7106  0.6585
  436MOL0     C58739   8.995   9.796   6.885  0.2549  0.1288  0.1403
  436MOL0     C58740   8.935   9.915   6.814 -0.9099 -0.3258  0.4805
  436MOL0     C58741   8.861   9.879   6.679 -0.5131  0.2619 -0.6061
  436MOL0     N58742   8.801   9.999   6.622 -0.1423  0.5784 -0.2545
  436MOL0     C58743   8.690  10.068   6.671 -0.0420  0.4141 -0.3886
  436MOL0     C58744   8.661  10.161   6.574  0.6300  0.3614 -0.3184
  436MOL0     C58745   8.555  10.259   6.578  1.0681 -0.7275  0.4014
  436MOL0     C58746   8.588  10.365   6.677  0.8360 -1.5576 -0.4744
  436MOL0     C58747   8.488  10.490   6.672 -0.2827  0.1299  0.1031
  436MOL0     C58748   8.541  10.612   6.591  0.1966  0.2425 -0.0210
  436MOL0     O58749   8.517  10.584   6.458 -0.0010 -0.1460 -0.6583
  436MOL0     C58750   8.621  10.598   6.375  0.2294  0.4185 -0.2078
  436MOL0     C58751   8.668  10.719   6.335  0.7260 -0.7590  0.4575
  436MOL0     C58752   8.776  10.729   6.246 -0.2777 -0.3376  0.4391
  436MOL0     C58753   8.820  10.871   6.209  0.7032 -0.3018  0.0656
  436MOL0     C58754   8.845  10.610   6.200  0.0797 -0.6219 -0.0370
  436MOL0     C58755   8.968  10.611   6.132  0.1278 -0.5065 -0.9465
  436MOL0     O58756   9.062  10.686   6.189 -0.3781  0.1165  0.2779
  436MOL0     C58757   9.187  10.662   6.149 -0.1029  0.4455 -0.7660
  436MOL0     C58758   9.271  10.595   6.237 -0.0595 -0.7572  0.2362
  436MOL0     C58759   9.408  10.586   6.202 -0.7444 -0.1678  0.3907
  436MOL0     C58760   9.452  10.634   6.074 -0.1887  0.1741 -0.0776
  436MOL0     O58761   9.585  10.608   6.046  0.4131 -0.4008 -0.3604
  436MOL0     C58762   9.601  10.547   5.912 -0.8619 -0.4848 -0.1159
  436MOL0     C58763   9.718  10.600   5.829 -0.3523  0.4644 -0.4214
  436MOL0     C58764   9.670  10.740   5.773  0.8004  0.6753 -0.7063
  436MOL0     C58765   9.789  10.821   5.702 -0.2311 -0.6108  0.2247
  436MOL0     C58766   9.796  10.966   5.733  0.3094  0.4991  0.2054
  436MOL0     C58767   9.682  11.048   5.662  0.2182  1.0251  0.1538
  436MOL0     C58768   9.708  11.196   5.688  0.5890 -1.2629  0.9149
  436MOL0     C58769   9.587  11.276   5.631  0.3136 -0.8361  0.1516
  436MOL0    Cl58770   9.556  11.253   5.461 -0.3885  0.0508 -0.3423
  436MOL0     C58771   9.372  10.704   5.990  0.5342 -0.6659  0.1120
  436MOL0     C58772   9.238  10.716   6.033  0.4167  0.3668  0.1631
  436MOL0     O58773   8.980  10.560   6.023  0.7381 -0.6498 -0.1627
  436MOL0     C58774   8.784  10.487   6.230 -0.2417  0.6248 -1.2135
  436MOL0     C58775   8.670  10.482   6.313  0.4358  0.0280 -0.2425
  436MOL0     N58776   8.756  10.132   6.478  0.2761  0.6739  0.0124
  436MOL0     N58777   8.836  10.041   6.505 -0.3825  1.0353  0.4236
  436MOL0     C58778   9.651  10.171   7.181 -1.2982 -0.0841  0.9357
  436MOL0     C58779   9.717  10.217   7.293  0.1943 -0.0986 -0.2266
  436MOL0     C58780  10.085  10.372   7.531  1.2823 -0.0589  1.1578
  436MOL0     C58781  10.006  10.378   7.648  0.1371  0.6539 -0.9532
  436MOL0     C58782  10.052  10.472   7.746  0.0410 -1.2444  0.0155
  436MOL0     C58783  10.169  10.545   7.739 -0.1084  0.4651 -0.2274
  436MOL0     O58784  10.212  10.619   7.855  1.0502  0.0684  0.1947
  436MOL0     C58785  10.348  10.672   7.857  0.0637  0.2896  0.1663
  436MOL0     C58786  10.416  10.617   7.984 -0.2323 -0.5053  0.3945
  436MOL0     C58787  10.459  10.469   7.977 -0.5452  0.3406 -0.3352
  436MOL0     C58788  10.539  10.402   8.091  0.0899 -0.0130  0.0116
  436MOL0     C58789  10.461  10.403   8.223  0.0523 -0.1660 -0.3364
  436MOL0     C58790  10.381  10.411   8.310 -0.7276 -0.4225 -0.1315
  436MOL0     C58791  10.241  10.534   7.621  0.2791 -0.4600  0.2898
  436MOL0     C58792  10.202  10.452   7.508  0.5841 -0.0280 -0.4346
  436MOL0     H58793   9.999  10.028   7.237 -0.3875 -1.7258 -3.1617
  436MOL0     H58794   9.879   9.958   7.043 -3.9827 -0.4446 -3.4279
  436MOL0     H58795   9.481   9.989   7.087 -0.6284 -0.2090 -0.2589
  436MOL0     H58796   9.447  10.123   6.982  0.5223  1.0442  2.1662
  436MOL0     H58797   9.460   9.953   6.798 -1.5950 -0.0158 -1.2686
  436MOL0     H58798   9.516   9.825   6.898  0.1451  0.8833 -1.9035
  436MOL0     H58799   9.274   9.837   7.014  0.3582 -0.1330  0.6670
  436MOL0     H58800   9.260   9.980   6.905 -1.8450 -2.9473 -3.4675
  436MOL0     H58801   9.252   9.870   6.728  3.8608 -0.5482 -1.5317
  436MOL0     H58802   9.328   9.719   6.782 -0.8104 -0.1717  0.7292
  436MOL0     H58803   9.086   9.690   6.729 -2.2374 -0.9727  2.2142
  436MOL0     H58804   9.141   9.629   6.882  2.1925  1.2422  1.1630
  436MOL0     H58805   8.912   9.728   6.904  1.7076 -1.6117  0.5425
  436MOL0     H58806   9.028   9.837   6.981  1.7523  2.3824 -1.2455
  436MOL0     H58807   8.863   9.966   6.879 -3.9252 -3.1756 -0.3699
  436MOL0     H58808   9.013   9.987   6.790  0.0112 -2.1720 -2.6205
  436MOL0     H58809   8.770   9.820   6.694 -0.1097 -0.3054 -0.3679
  436MOL0     H58810   8.920   9.826   6.603  0.9490 -1.1586  1.3963
  436MOL0     H58811   8.638  10.061   6.766 -4.2901  0.3386 -2.4857
  436MOL0     H58812   8.542  10.301   6.478  0.1702 -2.3842 -0.2019
  436MOL0     H58813   8.464  10.201   6.596  0.7999 -1.0656 -1.8402
  436MOL0     H58814   8.682  10.416   6.655 -1.4869  4.0890  0.8958
  436MOL0     H58815   8.589  10.317   6.776 -1.5737 -0.7244  0.0315
  436MOL0     H58816   8.463  10.514   6.776  0.3225  0.9335  0.0673
  436MOL0     H58817   8.398  10.469   6.614  1.7376 -0.7327 -2.9506
  436MOL0     H58818   8.644  10.632   6.621  0.1997 -2.9228  2.6902
  436MOL0     H58819   8.488  10.697   6.634 -4.2921 -3.6980  3.3368
  436MOL0     H58820   8.612  10.805   6.373  1.2952  1.5879 -3.4482
  436MOL0     H58821   8.873  10.860   6.114 -0.6056  0.8483 -0.8242
  436MOL0     H58822   8.734  10.937   6.196  0.1451  0.0233  4.1818
  436MOL0     H58823   8.899  10.908   6.274  2.6762 -0.3356 -2.1773
  436MOL0     H58824   9.251  10.565   6.340  0.5088 -0.3096  0.4829
  436MOL0     H58825   9.486  10.529   6.250 -0.0223 -1.0609 -1.7072
  436MOL0     H58826   9.635  10.444   5.923  4.5882  1.1719  1.4860
  436MOL0     H58827   9.505  10.544   5.860 -0.6627 -2.4187 -0.4293
  436MOL0     H58828   9.806  10.610   5.892 -0.9353  3.3827  0.0538
  436MOL0     H58829   9.742  10.530   5.748 -1.3777 -3.5550  2.4655
  436MOL0     H58830   9.620  10.794   5.854  1.4948 -0.9142  0.8486
  436MOL0     H58831   9.601  10.721   5.690 -0.8660 -2.0099  1.1419
  436MOL0     H58832   9.887  10.778   5.723  0.8736  0.1135 -2.9616
  436MOL0     H58833   9.780  10.812   5.594  0.6735  1.9660 -0.1268
  436MOL0     H58834   9.898  10.996   5.707  0.7311 -0.5328  0.6172
  436MOL0     H58835   9.780  10.986   5.839 -2.0216  2.3641 -0.4053
  436MOL0     H58836   9.667  11.025   5.556 -3.5758 -1.7377  1.0896
  436MOL0     H58837   9.593  11.006   5.709  1.2420 -3.3354 -1.3777
  436MOL0     H58838   9.798  11.226   5.634  0.2361 -0.1504  0.9036
  436MOL0     H58839   9.728  11.212   5.795 -1.7325  1.5230  1.0774
  436MOL0     H58840   9.614  11.382   5.642 -5.7027  1.1814 -1.0377
  436MOL0     H58841   9.495  11.270   5.689  0.9711  1.3395  1.5667
  436MOL0     H58842   9.403  10.732   5.890 -1.7734 -0.5652 -0.6221
  436MOL0     H58843   9.162  10.763   5.972 -1.3767  0.1917  2.1390
  436MOL0     H58844   8.831  10.393   6.203 -0.1923 -0.2238  1.5147
  436MOL0     H58845   8.640  10.378   6.318 -0.3468 -0.2193 -5.2833
  436MOL0     H58846   9.551  10.206   7.156 -0.4411 -0.0204 -3.2123
  436MOL0     H58847   9.656  10.272   7.364 -0.0352  1.7960 -1.7956
  436MOL0     H58848   9.906  10.337   7.660 -0.5714  2.8246  1.6084
  436MOL0     H58849   9.990  10.484   7.834  1.3029 -2.0622  1.0537
  436MOL0     H58850  10.411  10.639   7.773  1.0489  1.9763  0.2143
  436MOL0     H58851  10.336  10.780   7.845  0.8449  0.2142 -1.6994
  436MOL0     H58852  10.347  10.618   8.070 -0.6521 -1.8486  0.0874
  436MOL0     H58853  10.508  10.675   7.994 -1.0083  1.4388 -2.4542
  436MOL0     H58854  10.511  10.442   7.885  3.2472 -0.8374  1.9391
  436MOL0     H58855  10.371  10.406   7.958  0.0125 -0.3219 -0.7602
  436MOL0     H58856  10.633  10.454   8.111  0.9852 -1.3665 -0.5448
  436MOL0     H58857  10.570  10.299   8.072 -1.5496 -0.3684 -0.9190
  436MOL0     H58858  10.312  10.417   8.392  0.5450 -0.5710  0.9855
  436MOL0     H58859  10.324  10.600   7.598  1.7251 -3.1154 -2.8134
  436MOL0     H58860  10.253  10.473   7.415 -1.2242  0.6561 -1.3250
  437MOL0     O58861   8.641   4.446   4.893 -0.1967 -0.2284 -0.0231
  437MOL0     C58862   8.684   4.333   4.877 -0.1608  0.2492 -0.6726
  437MOL0     O58863   8.631   4.220   4.928 -0.4215 -1.4361  0.1485
  437MOL0     C58864   8.523   4.232   5.010  0.4538  0.1817 -0.7022
  437MOL0     C58865   8.411   4.164   4.963  0.3028 -0.6859  0.2983
  437MOL0     C58866   8.296   4.180   5.035  0.4958 -1.2610  0.9082
  437MOL0     C58867   8.282   4.238   5.159  0.4918 -0.4963 -0.6760
  437MOL0     O58868   8.156   4.241   5.218 -0.5290  0.5908  0.9070
  437MOL0     C58869   8.110   4.329   5.313  0.1883  0.3242  0.4360
  437MOL0     C58870   7.972   4.358   5.279  0.5479  0.8013 -0.3000
  437MOL0     C58871   7.863   4.256   5.326  0.7457  0.4998  0.0221
  437MOL0     C58872   7.730   4.271   5.256  0.5497 -0.0818  0.3891
  437MOL0     C58873   7.635   4.386   5.288 -0.4287  0.6113  0.3480
  437MOL0     C58874   7.586   4.392   5.429 -0.4340 -1.1825  0.2088
  437MOL0     C58875   7.545   4.530   5.484  0.1081 -0.4164 -0.3741
  437MOL0     C58876   7.665   4.612   5.529 -0.2476  0.2463 -1.2203
  437MOL0     N58877   7.738   4.537   5.642 -0.8012 -0.0398  0.0562
  437MOL0     C58878   7.859   4.469   5.640 -0.0392 -0.2179 -0.1614
  437MOL0     C58879   7.874   4.435   5.766 -1.1046 -0.8058  0.7028
  437MOL0     C58880   7.983   4.343   5.807 -0.3769 -0.9821  0.1045
  437MOL0     C58881   7.920   4.199   5.830 -0.8459 -0.2115 -0.8457
  437MOL0     C58882   8.015   4.091   5.884  0.2095  0.1495  0.3864
  437MOL0     C58883   8.126   4.029   5.796 -0.1548  0.4432 -0.4199
  437MOL0     O58884   8.047   3.951   5.712  0.4865  0.4312  0.0281
  437MOL0     C58885   8.080   3.929   5.576  0.0616 -0.2031  0.2007
  437MOL0     C58886   7.996   3.850   5.502  0.3546  0.4006  0.0152
  437MOL0     C58887   8.014   3.820   5.366  1.3845 -0.1313 -1.3414
  437MOL0     C58888   7.913   3.732   5.302 -0.6929  0.2466  0.5846
  437MOL0     C58889   8.131   3.867   5.301 -0.6702  0.0503  0.5049
  437MOL0     C58890   8.150   3.854   5.152  1.1230  0.3875 -0.8621
  437MOL0     O58891   8.276   3.831   5.111  0.1398 -0.4326  0.5600
  437MOL0     C58892   8.306   3.820   4.981 -0.4974 -0.8756 -0.5245
  437MOL0     C58893   8.224   3.770   4.880  0.4417 -0.7417 -0.5514
  437MOL0     C58894   8.274   3.756   4.754 -1.1774  0.4661 -0.5409
  437MOL0     C58895   8.412   3.763   4.730 -0.3086  0.7710  0.4031
  437MOL0     O58896   8.446   3.780   4.600  0.0971  0.5113 -0.5411
  437MOL0     C58897   8.508   3.678   4.528 -0.1812 -0.3113 -0.6580
  437MOL0     C58898   8.556   3.725   4.399 -0.8651 -0.8555  0.2959
  437MOL0     C58899   8.657   3.847   4.417  0.5913  0.2955 -0.4398
  437MOL0     C58900   8.691   3.908   4.277  0.0042 -0.2931 -0.2330
  437MOL0     C58901   8.812   4.002   4.291  0.9067  1.0597  0.0204
  437MOL0     C58902   8.766   4.128   4.364 -1.2966  0.8345  0.2681
  437MOL0     C58903   8.856   4.255   4.344  0.6276 -0.5097  0.1735
  437MOL0     C58904   8.870   4.308   4.202 -0.6607 -0.1013 -0.5865
  437MOL0    Cl58905   8.958   4.458   4.202 -0.2150  0.0375  0.2420
  437MOL0     C58906   8.507   3.807   4.825  0.1791  0.6828  0.3485
  437MOL0     C58907   8.447   3.830   4.955 -0.3091  0.1326 -0.4807
  437MOL0     O58908   8.055   3.886   5.080 -0.7199 -0.0901 -0.0952
  437MOL0     C58909   8.209   3.955   5.374 -1.5430  0.4656 -0.1626
  437MOL0     C58910   8.189   3.985   5.508 -0.1023  0.2102 -0.6525
  437MOL0     N58911   7.772   4.481   5.847 -0.0163  0.0591  0.2326
  437MOL0     N58912   7.697   4.551   5.769  1.0551 -0.0187  0.5484
  437MOL0     C58913   8.403   4.284   5.214 -0.9242  0.2344  0.4430
  437MOL0     C58914   8.521   4.296   5.130 -0.4208  0.1976 -0.4308
  437MOL0     C58915   8.813   4.308   4.792  0.5594 -0.4240  1.7153
  437MOL0     C58916   8.864   4.179   4.766  0.1082 -0.0830 -0.3784
  437MOL0     C58917   8.978   4.163   4.695  0.0246 -0.1092  0.0929
  437MOL0     C58918   9.047   4.279   4.637  0.4622  0.4320  0.0177
  437MOL0     O58919   9.172   4.296   4.572 -0.6331 -0.1013 -0.3867
  437MOL0     C58920   9.256   4.182   4.564  0.1323  0.3132 -0.3789
  437MOL0     C58921   9.395   4.233   4.530 -0.7892 -0.4231  0.2433
  437MOL0     C58922   9.404   4.275   4.381 -0.3212 -0.9929  0.2557
  437MOL0     C58923   9.430   4.146   4.296 -0.6346  0.6741  0.5449
  437MOL0     C58924   9.570   4.094   4.320  0.5716  0.5022 -1.0754
  437MOL0     C58925   9.681   4.060   4.372 -0.1970  0.0653  0.4392
  437MOL0     C58926   8.993   4.404   4.660 -0.6166 -0.6147  0.0486
  437MOL0     C58927   8.874   4.419   4.729  0.9926 -0.4806 -0.3867
  437MOL0     H58928   8.397   4.121   4.865 -2.4790  0.4447  0.1260
  437MOL0     H58929   8.198   4.158   4.992  1.5642 -1.3258 -1.6795
  437MOL0     H58930   8.123   4.283   5.412 -0.7310  0.4991  0.6484
  437MOL0     H58931   8.166   4.422   5.301  0.3153 -0.0800 -2.9320
  437MOL0     H58932   7.945   4.446   5.339 -0.5625 -0.2065  0.7460
  437MOL0     H58933   7.950   4.389   5.177 -3.4036  2.9962  0.9857
  437MOL0     H58934   7.896   4.156   5.296  2.1717  1.9131 -3.8280
  437MOL0     H58935   7.850   4.273   5.433 -0.7179 -1.4698  0.2115
  437MOL0     H58936   7.747   4.272   5.148  1.3251  1.1232  0.4925
  437MOL0     H58937   7.679   4.184   5.298  3.0530 -2.4408 -1.1542
  437MOL0     H58938   7.694   4.474   5.260  0.3564 -0.2017 -0.6514
  437MOL0     H58939   7.545   4.375   5.227  0.9769 -0.0287 -1.7224
  437MOL0     H58940   7.493   4.334   5.423 -1.9399  1.0489  0.7779
  437MOL0     H58941   7.640   4.342   5.510 -0.0649  0.6430  1.1363
  437MOL0     H58942   7.491   4.578   5.402  0.0492 -0.7234 -0.5171
  437MOL0     H58943   7.476   4.519   5.568 -0.8262 -0.9507 -1.1991
  437MOL0     H58944   7.623   4.708   5.561  0.0392 -0.6092  2.1062
  437MOL0     H58945   7.722   4.626   5.437  2.3163  2.3989  0.5710
  437MOL0     H58946   7.906   4.458   5.543  0.2543 -1.1303  0.0714
  437MOL0     H58947   8.066   4.321   5.739 -0.1942  0.3092 -0.1215
  437MOL0     H58948   8.025   4.390   5.896  2.1595  1.1155 -2.0342
  437MOL0     H58949   7.874   4.172   5.734 -1.4254 -0.5806 -0.4731
  437MOL0     H58950   7.840   4.204   5.904  0.8746  3.3340  1.0051
  437MOL0     H58951   7.950   4.011   5.919 -0.5863  0.8746  0.5924
  437MOL0     H58952   8.059   4.134   5.975 -1.4483 -0.8404  1.7036
  437MOL0     H58953   8.179   3.965   5.867  1.0556 -0.5110 -2.1084
  437MOL0     H58954   8.197   4.106   5.763  0.2823  0.6781  0.9945
  437MOL0     H58955   7.914   3.794   5.546  2.8238 -2.4223  1.4288
  437MOL0     H58956   7.820   3.790   5.294  0.5031  2.2036  0.3182
  437MOL0     H58957   7.940   3.692   5.204 -0.8307  2.8707 -0.6065
  437MOL0     H58958   7.900   3.637   5.354  0.1907  0.0261  0.4113
  437MOL0     H58959   8.119   3.760   4.904 -0.5898  0.7559 -3.9174
  437MOL0     H58960   8.209   3.735   4.670 -0.1431  0.4880 -1.3670
  437MOL0     H58961   8.601   3.647   4.578  1.3812  2.9211 -1.3054
  437MOL0     H58962   8.440   3.593   4.519 -0.5101 -0.1113 -0.1031
  437MOL0     H58963   8.598   3.638   4.349 -3.5947 -0.8173 -2.4121
  437MOL0     H58964   8.476   3.755   4.330 -1.3509  0.9812  1.5604
  437MOL0     H58965   8.740   3.812   4.480  0.1827  0.3850  0.1639
  437MOL0     H58966   8.603   3.923   4.474  0.9378 -1.0706  1.8753
  437MOL0     H58967   8.719   3.825   4.211 -0.4241  0.8687 -1.9701
  437MOL0     H58968   8.608   3.962   4.231  1.2126  0.6075 -1.4664
  437MOL0     H58969   8.853   4.020   4.191  1.4122  3.4518  0.6036
  437MOL0     H58970   8.892   3.964   4.355  1.0529  0.9586 -0.2206
  437MOL0     H58971   8.669   4.163   4.328 -1.4807 -0.4035 -0.4696
  437MOL0     H58972   8.755   4.106   4.471  2.0589  1.4350  0.8330
  437MOL0     H58973   8.958   4.227   4.368  0.5900 -2.4134 -1.5543
  437MOL0     H58974   8.830   4.330   4.419  1.0414 -0.8095  0.6247
  437MOL0     H58975   8.771   4.328   4.160 -0.5815 -1.2569 -1.3676
  437MOL0     H58976   8.927   4.236   4.143 -0.2105 -0.5282  0.3647
  437MOL0     H58977   8.608   3.814   4.787  0.1310 -3.1018 -0.8994
  437MOL0     H58978   8.513   3.867   5.032  0.3037 -0.2539 -0.8181
  437MOL0     H58979   8.292   4.004   5.325 -1.3818  2.2664  1.7442
  437MOL0     H58980   8.257   4.047   5.565 -0.6697 -2.1522  2.8946
  437MOL0     H58981   8.406   4.335   5.310  4.0375  0.9844  0.1964
  437MOL0     H58982   8.605   4.351   5.171 -1.4604  1.6451 -0.1305
  437MOL0     H58983   8.812   4.091   4.806  1.4878 -2.2092 -2.9523
  437MOL0     H58984   9.018   4.066   4.665  0.8929 -0.2201  1.5375
  437MOL0     H58985   9.253   4.134   4.662  0.4460 -0.6583 -0.8286
  437MOL0     H58986   9.217   4.111   4.490  0.5261 -0.2062 -0.1006
  437MOL0     H58987   9.473   4.162   4.555  1.2057  1.4668 -0.3025
  437MOL0     H58988   9.429   4.314   4.596  4.0917 -3.0952  1.4485
  437MOL0     H58989   9.468   4.362   4.365 -4.0016  1.5886 -2.0138
  437MOL0     H58990   9.316   4.333   4.352  2.6809  4.1130  0.3619
  437MOL0     H58991   9.421   4.174   4.190 -2.5732 -0.2717  0.4123
  437MOL0     H58992   9.356   4.067   4.309 -1.6413  1.3201 -0.9721
  437MOL0     H58993   9.771   4.029   4.421 -0.8626 -1.1607  0.9388
  437MOL0     H58994   9.029   4.491   4.605 -2.1711 -1.5347 -2.6454
  437MOL0     H58995   8.824   4.515   4.740 -1.1618 -1.5401 -0.2841
  438MOL0     O58996   2.333   5.515   7.202 -0.4114 -0.5024  0.6318
  438MOL0     C58997   2.357   5.514   7.077 -0.0509 -0.7563  0.5841
  438MOL0     O58998   2.449   5.441   7.013  0.5502  0.2530 -0.2644
  438MOL0     C58999   2.491   5.330   7.067  0.2099 -0.2040 -0.3829
  438MOL0     C59000   2.583   5.326   7.175 -1.2128  0.0367  0.2897
  438MOL0     C59001   2.625   5.210   7.224  0.5405 -0.7492  0.0908
  438MOL0     C59002   2.576   5.087   7.172 -0.7955  0.4748 -0.3969
  438MOL0     O59003   2.615   4.958   7.216 -0.1623 -0.8179  0.0729
  438MOL0     C59004   2.679   4.936   7.347  0.8028 -0.9558 -0.3019
  438MOL0     C59005   2.736   4.791   7.368 -0.0168  0.3413  0.5504
  438MOL0     C59006   2.636   4.689   7.328  0.3603  0.4534  0.6356
  438MOL0     C59007   2.503   4.689   7.411 -0.1789  0.3648 -0.8246
  438MOL0     C59008   2.423   4.554   7.393 -0.5961 -0.3538  0.3117
  438MOL0     C59009   2.385   4.521   7.246 -0.7716 -0.0633 -0.2458
  438MOL0     C59010   2.330   4.378   7.229  0.4263  0.8098  0.4868
  438MOL0     C59011   2.204   4.353   7.307  0.6883 -0.6366  0.2667
  438MOL0     N59012   2.082   4.418   7.250  0.4232  0.4520  0.7779
  438MOL0     C59013   2.036   4.543   7.269  0.1734  0.1900  0.0460
  438MOL0     C59014   1.906   4.531   7.216 -0.5309 -1.0347 -0.3103
  438MOL0     C59015   1.804   4.641   7.228 -0.0144 -0.3490 -0.1559
  438MOL0     C59016   1.705   4.649   7.351 -0.4908  0.3632 -0.0211
  438MOL0     C59017   1.612   4.535   7.326 -0.1213  0.0938 -0.2707
  438MOL0     C59018   1.482   4.552   7.409 -0.2624 -0.9320 -0.5571
  438MOL0     O59019   1.414   4.665   7.375  0.6490 -0.5607 -0.0553
  438MOL0     C59020   1.302   4.697   7.453  0.4420  0.9494 -0.0476
  438MOL0     C59021   1.233   4.815   7.415 -0.7582 -0.3363 -1.2079
  438MOL0     C59022   1.114   4.853   7.476 -0.9827  0.0985 -0.0595
  438MOL0     C59023   1.060   4.985   7.421 -0.8382  0.3774  0.7885
  438MOL0     C59024   1.066   4.778   7.585 -0.4364  0.1687  0.5887
  438MOL0     C59025   0.953   4.825   7.667 -0.5182 -0.2911 -1.3092
  438MOL0     O59026   0.909   4.725   7.747 -0.4053  0.0778 -0.7067
  438MOL0     C59027   0.795   4.744   7.807 -0.0590  0.1577 -0.0953
  438MOL0     C59028   0.794   4.726   7.941  0.5854 -0.8811 -0.4433
  438MOL0     C59029   0.665   4.723   7.999 -0.3263  0.1759 -0.2541
  438MOL0     C59030   0.547   4.768   7.935 -0.0988  1.0514  1.2343
  438MOL0     O59031   0.439   4.782   8.012 -0.1614 -0.1342 -0.5637
  438MOL0     C59032   0.402   4.920   8.036 -0.1435 -0.4686  0.2983
  438MOL0     C59033   0.287   4.911   8.132  1.0226 -0.2859  0.2645
  438MOL0     C59034   0.273   5.049   8.195 -0.6661 -0.1247  0.3735
  438MOL0     C59035   0.193   5.139   8.111  0.0483  0.0407 -0.2339
  438MOL0     C59036   0.204   5.278   8.170 -0.9014 -0.8353  0.2419
  438MOL0     C59037   0.137   5.365   8.078  0.6272 -0.3047  0.2551
  438MOL0     C59038   0.206   5.409   7.954  0.7082 -0.4721  0.2661
  438MOL0     C59039   0.123   5.526   7.892  0.0433  0.0551  1.1956
  438MOL0    Cl59040  -0.036   5.477   7.828 -0.1658 -0.4216  0.4804
  438MOL0     C59041   0.552   4.780   7.798 -0.1793 -0.2584  0.4151
  438MOL0     C59042   0.677   4.761   7.730 -0.5789  0.1816  0.6136
  438MOL0     O59043   0.917   4.941   7.678 -0.0516  0.8566 -0.3689
  438MOL0     C59044   1.136   4.664   7.626 -0.0499 -0.1308  0.1354
  438MOL0     C59045   1.250   4.620   7.563  0.1757 -0.2914  1.0628
  438MOL0     N59046   1.884   4.409   7.161 -1.4436 -0.2035 -0.3134
  438MOL0     N59047   1.995   4.351   7.168  0.5939  0.1973 -0.5574
  438MOL0     C59048   2.483   5.099   7.067 -0.1569 -0.5062 -0.1428
  438MOL0     C59049   2.434   5.218   7.022 -1.0382  0.2328  0.2116
  438MOL0     C59050   2.268   5.612   6.999 -0.3826  0.7886 -0.4087
  438MOL0     C59051   2.318   5.661   6.873  0.4518  0.0554 -0.4685
  438MOL0     C59052   2.246   5.762   6.813  0.2397 -0.4199  0.1921
  438MOL0     C59053   2.124   5.802   6.854 -1.2163  0.3980  0.0515
  438MOL0     O59054   2.062   5.894   6.782 -0.6763  1.2771 -0.4875
  438MOL0     C59055   1.928   5.944   6.822  1.1321  0.5938  0.6770
  438MOL0     C59056   1.881   6.048   6.718  0.5388  0.0807  0.3938
  438MOL0     C59057   1.902   6.010   6.569  0.2248 -0.2767 -0.6529
  438MOL0     C59058   1.850   5.877   6.515 -0.2747 -0.1253  0.3961
  438MOL0     C59059   1.909   5.859   6.383 -0.4312  0.1174 -0.3431
  438MOL0     C59060   1.946   5.839   6.269  0.3696  1.3590 -0.8453
  438MOL0     C59061   2.075   5.740   6.971  0.5053  0.0318  0.3796
  438MOL0     C59062   2.148   5.641   7.044 -0.4233 -0.8250 -1.1083
  438MOL0     H59063   2.620   5.419   7.217 -0.9329  1.2353 -2.4151
  438MOL0     H59064   2.699   5.205   7.304  0.3873 -1.1565  0.2122
  438MOL0     H59065   2.772   4.994   7.350  0.7611 -0.9230  0.3104
  438MOL0     H59066   2.610   4.962   7.427 -1.8752 -1.8833 -2.1417
  438MOL0     H59067   2.821   4.778   7.300  0.7705  1.7780  1.2250
  438MOL0     H59068   2.752   4.771   7.474  0.4939 -2.0636  0.0841
  438MOL0     H59069   2.594   4.705   7.228 -2.5608  0.4714  1.7762
  438MOL0     H59070   2.687   4.593   7.326  0.1282  0.0635 -5.2415
  438MOL0     H59071   2.521   4.717   7.515 -2.0076  1.4909 -0.7585
  438MOL0     H59072   2.431   4.767   7.384 -0.6124  0.9299  1.6656
  438MOL0     H59073   2.484   4.469   7.427 -0.6279 -0.3047  0.4896
  438MOL0     H59074   2.341   4.553   7.465 -0.5897 -2.6968  0.3709
  438MOL0     H59075   2.328   4.609   7.213 -0.9726 -0.2578 -0.4196
  438MOL0     H59076   2.481   4.515   7.194 -0.1646  2.9366  0.3327
  438MOL0     H59077   2.315   4.365   7.122  1.1253 -1.8577  0.6250
  438MOL0     H59078   2.407   4.308   7.264  0.1021  0.5347  0.6532
  438MOL0     H59079   2.224   4.387   7.408 -1.4074 -1.1292  0.9032
  438MOL0     H59080   2.185   4.245   7.316  0.6547 -0.8628 -1.8225
  438MOL0     H59081   2.085   4.633   7.305  1.2426 -0.5358  0.4700
  438MOL0     H59082   1.875   4.725   7.229 -1.4768  0.9386  0.0680
  438MOL0     H59083   1.746   4.644   7.135 -2.0463 -1.6103  0.9801
  438MOL0     H59084   1.651   4.744   7.354  0.5191  0.9305  1.6862
  438MOL0     H59085   1.752   4.636   7.449 -2.7945  1.2297  1.2735
  438MOL0     H59086   1.658   4.441   7.358 -2.1672 -0.0562  2.7021
  438MOL0     H59087   1.577   4.531   7.223 -0.6835  1.7573 -0.1867
  438MOL0     H59088   1.502   4.552   7.516 -3.6651  1.5773  0.2123
  438MOL0     H59089   1.419   4.465   7.391 -4.2632  1.2243  1.7602
  438MOL0     H59090   1.280   4.867   7.332  0.0359  0.0345 -0.5443
  438MOL0     H59091   1.129   5.069   7.428  3.1376 -2.2451 -2.3385
  438MOL0     H59092   1.039   4.972   7.315 -2.1868  3.5771  0.5661
  438MOL0     H59093   0.960   5.011   7.456 -0.3032  3.6237  0.1989
  438MOL0     H59094   0.884   4.700   7.996  0.1648 -1.8766 -0.1909
  438MOL0     H59095   0.665   4.736   8.107  0.8988  1.6817 -0.4043
  438MOL0     H59096   0.486   4.978   8.076 -1.1486  2.1670 -1.1755
  438MOL0     H59097   0.375   4.967   7.942  0.3911 -0.6903  0.0306
  438MOL0     H59098   0.202   4.878   8.072  1.7982 -0.7158 -0.6267
  438MOL0     H59099   0.293   4.836   8.212  2.3997 -1.4725 -0.8934
  438MOL0     H59100   0.371   5.095   8.213  0.8302 -1.2335 -3.7319
  438MOL0     H59101   0.233   5.037   8.296 -0.0965  3.6811  1.2151
  438MOL0     H59102   0.233   5.138   8.009 -1.1502 -2.1490 -0.7341
  438MOL0     H59103   0.093   5.095   8.102 -0.0750  0.4897 -1.2298
  438MOL0     H59104   0.312   5.297   8.177 -0.8817 -0.8654  0.0413
  438MOL0     H59105   0.154   5.273   8.267 -4.2572  2.7477 -1.0652
  438MOL0     H59106   0.045   5.327   8.033 -0.3517  0.3743  1.6120
  438MOL0     H59107   0.119   5.454   8.139  2.9555  0.0894  0.4556
  438MOL0     H59108   0.201   5.332   7.877  0.0816  1.1800 -1.4212
  438MOL0     H59109   0.309   5.443   7.969 -0.3626  2.5391  1.5408
  438MOL0     H59110   0.170   5.569   7.803  0.1640  1.4903  1.9189
  438MOL0     H59111   0.111   5.613   7.957 -2.2817  1.4453 -0.8835
  438MOL0     H59112   0.463   4.815   7.745 -0.2128  0.7382  1.0912
  438MOL0     H59113   0.686   4.768   7.622 -2.0319  0.2008  0.4745
  438MOL0     H59114   1.103   4.607   7.713 -1.4417 -2.2704 -1.6767
  438MOL0     H59115   1.292   4.523   7.586  0.1158 -0.9587 -1.3531
  438MOL0     H59116   2.457   5.011   7.008 -0.9112  0.0656 -0.6775
  438MOL0     H59117   2.355   5.215   6.947 -1.8226  2.2274  0.8702
  438MOL0     H59118   2.412   5.633   6.828  0.4623 -0.1000 -0.3505
  438MOL0     H59119   2.291   5.805   6.724  1.7057  0.5598  1.3396
  438MOL0     H59120   1.861   5.858   6.820  0.9693  0.6231  2.8183
  438MOL0     H59121   1.933   5.990   6.921  0.0667 -1.2310  1.6399
  438MOL0     H59122   1.944   6.136   6.736  0.5207 -0.0135  0.9526
  438MOL0     H59123   1.779   6.074   6.748  0.5429 -0.2555  0.7132
  438MOL0     H59124   2.011   6.016   6.573  0.2008  0.2861 -0.7481
  438MOL0     H59125   1.861   6.091   6.509 -0.6431 -1.1133 -1.2142
  438MOL0     H59126   1.740   5.882   6.511 -0.4039 -1.9791  0.6207
  438MOL0     H59127   1.889   5.793   6.574 -0.1008 -0.9294 -0.8410
  438MOL0     H59128   1.981   5.830   6.168  1.0377  1.6165 -0.6473
  438MOL0     H59129   1.977   5.761   7.013  0.7754 -0.7220  1.4336
  438MOL0     H59130   2.109   5.603   7.137  0.4371  0.5324 -0.1532
  439MOL0     O59131  11.278   7.755   2.248 -0.1313  0.7578  0.1131
  439MOL0     C59132  11.196   7.658   2.242  0.0179 -0.1994 -0.8050
  439MOL0     O59133  11.081   7.643   2.165 -0.1467 -0.4124  0.4233
  439MOL0     C59134  11.033   7.737   2.090 -0.7089 -1.1173  0.1643
  439MOL0     C59135  11.044   7.883   2.116  0.3115  0.6888 -0.2117
  439MOL0     C59136  11.002   7.983   2.027  0.4290  0.4177  0.0955
  439MOL0     C59137  10.937   7.948   1.908  0.8939 -0.3475 -0.3454
  439MOL0     O59138  10.900   8.038   1.815 -0.2043  0.3858  0.1958
  439MOL0     C59139  10.968   8.165   1.823 -0.5586 -0.8676  0.1234
  439MOL0     C59140  10.929   8.282   1.722 -0.6608 -0.8941 -0.4801
  439MOL0     C59141  10.978   8.427   1.758  0.6021 -1.2307 -0.1526
  439MOL0     C59142  10.883   8.546   1.731 -1.1454 -0.2702  0.3249
  439MOL0     C59143  10.954   8.678   1.746  0.5929 -0.2352 -0.8760
  439MOL0     C59144  10.864   8.801   1.739  1.0076  0.4381  0.3141
  439MOL0     C59145  10.934   8.933   1.761 -0.6295 -0.2815  0.7117
  439MOL0     C59146  10.829   9.044   1.732 -0.1425 -0.5434  0.0385
  439MOL0     N59147  10.898   9.173   1.726 -0.1905 -0.3166 -0.2863
  439MOL0     C59148  10.858   9.288   1.790 -0.0514  0.1176 -0.1640
  439MOL0     C59149  10.945   9.378   1.740 -0.3637  0.1816 -0.1917
  439MOL0     C59150  10.942   9.522   1.776 -0.3004  0.1295 -0.3444
  439MOL0     C59151  10.929   9.615   1.656  0.2141  0.0370  1.1690
  439MOL0     C59152  10.800   9.590   1.570  1.0253  0.3912  0.0447
  439MOL0     C59153  10.665   9.621   1.634 -0.5100  0.1300 -0.3329
  439MOL0     O59154  10.623   9.498   1.706  0.8978 -0.2732  0.2470
  439MOL0     C59155  10.494   9.506   1.760  0.1361 -0.1308 -0.4575
  439MOL0     C59156  10.401   9.400   1.771 -0.1077 -0.1585  0.1882
  439MOL0     C59157  10.267   9.419   1.819 -0.4736 -0.6856 -0.2721
  439MOL0     C59158  10.172   9.301   1.827  0.2872  0.1416 -0.3667
  439MOL0     C59159  10.224   9.553   1.864 -0.1949  0.8353  0.3745
  439MOL0     C59160  10.085   9.590   1.909  0.4115  0.0249  0.9751
  439MOL0     O59161  10.078   9.706   1.988  1.0368  0.2420  0.1804
  439MOL0     C59162   9.956   9.740   2.029 -1.5021  0.9145 -1.2595
  439MOL0     C59163   9.892   9.849   1.975 -0.6643  0.4330 -0.6488
  439MOL0     C59164   9.768   9.888   2.022  0.1515 -0.5672 -0.7416
  439MOL0     C59165   9.714   9.833   2.142 -0.3375  0.3681 -0.6447
  439MOL0     O59166   9.590   9.879   2.198  0.4317 -0.3377 -0.1517
  439MOL0     C59167   9.558   9.853   2.326  0.1621  1.4342  0.2467
  439MOL0     C59168   9.470   9.961   2.386  0.3257 -0.3900  0.1861
  439MOL0     C59169   9.412   9.914   2.524  0.4495  0.2853 -0.5314
  439MOL0     C59170   9.510   9.924   2.649  0.4209  0.6479  0.3462
  439MOL0     C59171   9.542  10.072   2.663 -0.5949  0.1797  0.9043
  439MOL0     C59172   9.600  10.099   2.808 -0.2741 -0.0653  0.1266
  439MOL0     C59173   9.535  10.058   2.935  0.1331  0.3781 -0.0251
  439MOL0     C59174   9.623  10.046   3.050 -0.1338  0.1975  0.8043
  439MOL0    Cl59175   9.553   9.978   3.189 -0.0260  0.4114  0.0466
  439MOL0     C59176   9.785   9.723   2.200 -0.4565  0.2111 -0.7088
  439MOL0     C59177   9.903   9.683   2.144 -0.6426  0.2883 -0.3856
  439MOL0     O59178   9.987   9.527   1.862 -0.0537 -0.0758 -0.6399
  439MOL0     C59179  10.320   9.649   1.860 -0.3842 -0.7599 -0.2159
  439MOL0     C59180  10.449   9.624   1.813  0.3047  0.3925 -0.2374
  439MOL0     N59181  11.036   9.325   1.651 -0.1306  0.1569 -0.5527
  439MOL0     N59182  11.013   9.196   1.641 -0.7263 -0.5796 -0.2233
  439MOL0     C59183  10.924   7.809   1.883 -0.0633 -0.1842 -0.5372
  439MOL0     C59184  10.960   7.715   1.978 -0.3154  0.1524 -0.0671
  439MOL0     C59185  11.208   7.556   2.344  0.5283 -1.2961 -0.8435
  439MOL0     C59186  11.334   7.501   2.386  0.6193 -0.6842  0.0369
  439MOL0     C59187  11.341   7.416   2.505  0.1724  0.4198 -0.3497
  439MOL0     C59188  11.227   7.378   2.576  1.2713 -0.8999 -0.4510
  439MOL0     O59189  11.232   7.306   2.697 -0.2657  0.3176  1.1708
  439MOL0     C59190  11.361   7.250   2.743 -0.1173  0.1019  0.3843
  439MOL0     C59191  11.398   7.130   2.653  0.3457 -0.3114 -0.2264
  439MOL0     C59192  11.528   7.061   2.691 -1.0358 -0.4915  0.2850
  439MOL0     C59193  11.532   6.978   2.826  0.0189 -0.3174  0.1540
  439MOL0     C59194  11.417   6.889   2.848  0.1296  0.9252 -0.3226
  439MOL0     C59195  11.319   6.814   2.840  0.2890 -0.1357  0.6788
  439MOL0     C59196  11.102   7.441   2.539  0.3872  0.7630  0.3314
  439MOL0     C59197  11.099   7.535   2.429  0.5712  0.2136  0.4425
  439MOL0     H59198  11.088   7.927   2.205  1.1899 -0.6289  0.0272
  439MOL0     H59199  11.019   8.079   2.074 -0.8781  0.1856  1.1215
  439MOL0     H59200  10.949   8.216   1.918 -0.0449 -0.0152 -0.2258
  439MOL0     H59201  11.076   8.148   1.820  0.0019  1.1251  3.6100
  439MOL0     H59202  10.982   8.246   1.634  0.8237 -3.4617  1.3234
  439MOL0     H59203  10.826   8.300   1.689 -0.1404  1.4224 -1.0104
  439MOL0     H59204  10.999   8.421   1.866  0.6815 -0.9295 -0.1510
  439MOL0     H59205  11.070   8.434   1.700  1.7213 -3.0384  1.2912
  439MOL0     H59206  10.855   8.548   1.625  1.3267 -0.2764 -0.3862
  439MOL0     H59207  10.797   8.527   1.795 -1.6901 -1.4045 -0.7218
  439MOL0     H59208  10.998   8.688   1.846 -3.7771 -1.0649  1.4061
  439MOL0     H59209  11.033   8.683   1.671  0.8912  1.0588 -0.4952
  439MOL0     H59210  10.800   8.783   1.652 -0.7426 -0.4030  1.7011
  439MOL0     H59211  10.790   8.792   1.819 -2.8575  0.0460 -2.9813
  439MOL0     H59212  10.984   8.944   1.857 -0.4567 -1.0495  0.7186
  439MOL0     H59213  11.019   8.939   1.693 -2.0597  0.4741 -1.1098
  439MOL0     H59214  10.747   9.048   1.804 -0.9499  1.0466 -0.9218
  439MOL0     H59215  10.792   9.037   1.629  1.0182  2.9009 -0.7428
  439MOL0     H59216  10.781   9.296   1.866 -0.0185 -2.8514  0.3051
  439MOL0     H59217  10.850   9.529   1.835 -1.3914 -0.4097 -1.9083
  439MOL0     H59218  11.026   9.546   1.842  0.7529 -3.3264 -0.2110
  439MOL0     H59219  11.021   9.612   1.596  0.1353 -3.7949  0.9532
  439MOL0     H59220  10.929   9.712   1.706  0.0784  0.5817  0.1335
  439MOL0     H59221  10.808   9.485   1.543 -2.0186 -0.4402  1.8803
  439MOL0     H59222  10.796   9.644   1.474 -0.1818 -0.2725 -0.3036
  439MOL0     H59223  10.594   9.662   1.562 -0.2137 -0.5683 -1.0321
  439MOL0     H59224  10.684   9.709   1.697  0.7528  0.5812 -1.3008
  439MOL0     H59225  10.435   9.305   1.732 -0.7706 -1.1700  1.9597
  439MOL0     H59226  10.234   9.211   1.832  0.0220 -0.0192  0.0691
  439MOL0     H59227  10.105   9.295   1.914 -0.4462  0.1163 -0.9183
  439MOL0     H59228  10.110   9.303   1.737 -2.5706 -2.7344  1.3176
  439MOL0     H59229   9.930   9.900   1.887  1.6663 -0.3483 -0.1746
  439MOL0     H59230   9.713   9.974   1.985 -1.3392  0.1930  2.8180
  439MOL0     H59231   9.512   9.754   2.322  1.2737  0.9518 -1.8892
  439MOL0     H59232   9.645   9.846   2.391 -1.9952 -0.4812  3.2252
  439MOL0     H59233   9.536  10.048   2.385  2.0136 -1.6251 -0.5803
  439MOL0     H59234   9.386   9.988   2.322  0.5383 -3.3951 -1.5423
  439MOL0     H59235   9.380   9.809   2.522  2.5650 -0.3951 -1.0527
  439MOL0     H59236   9.325   9.979   2.535  1.0697  0.7668  2.3382
  439MOL0     H59237   9.458   9.880   2.734  1.6301 -3.3205 -0.7684
  439MOL0     H59238   9.598   9.860   2.641  0.8403  1.0605  1.4748
  439MOL0     H59239   9.448  10.125   2.647 -0.7798 -0.6339 -0.8896
  439MOL0     H59240   9.622  10.091   2.591  0.9582 -3.9457  1.2528
  439MOL0     H59241   9.703  10.064   2.807 -0.0588  0.5385  0.5600
  439MOL0     H59242   9.610  10.208   2.803 -1.6562  0.0349 -2.4643
  439MOL0     H59243   9.479   9.965   2.920 -1.2717  0.9395  1.4290
  439MOL0     H59244   9.467  10.138   2.964 -0.4237 -0.0623 -0.0903
  439MOL0     H59245   9.670  10.141   3.077  3.3712 -1.0525 -0.3109
  439MOL0     H59246   9.709   9.991   3.011  0.9685  2.5082 -0.2533
  439MOL0     H59247   9.748   9.681   2.293 -2.6067  0.8934 -1.1942
  439MOL0     H59248   9.960   9.607   2.197  0.5061  1.1718 -0.3243
  439MOL0     H59249  10.295   9.748   1.895 -1.3830 -1.6125  1.5711
  439MOL0     H59250  10.519   9.706   1.804  0.7694 -0.1115 -1.3333
  439MOL0     H59251  10.899   7.777   1.782  0.4399 -3.4357  0.2282
  439MOL0     H59252  10.961   7.610   1.949  3.4366 -0.1227  0.5480
  439MOL0     H59253  11.428   7.506   2.331  0.4443 -0.2342 -0.2268
  439MOL0     H59254  11.435   7.374   2.538 -1.7871 -3.3359  1.0626
  439MOL0     H59255  11.441   7.325   2.745  1.3940 -1.4259 -0.1741
  439MOL0     H59256  11.351   7.218   2.847 -2.7139 -4.0056 -0.8758
  439MOL0     H59257  11.398   7.158   2.548  2.2398 -4.2293 -1.4520
  439MOL0     H59258  11.324   7.050   2.666 -1.5313  1.1679 -1.3256
  439MOL0     H59259  11.598   7.144   2.680 -4.6014  2.6762 -0.5565
  439MOL0     H59260  11.561   7.000   2.605 -0.2480  2.1106 -1.3752
  439MOL0     H59261  11.524   7.061   2.897 -1.8828  2.6932 -3.2295
  439MOL0     H59262  11.625   6.919   2.826 -0.1292 -0.5735 -0.8517
  439MOL0     H59263  11.226   6.761   2.834 -1.5336  2.6544  2.0002
  439MOL0     H59264  11.013   7.415   2.595  1.1864 -0.3790  1.1383
  439MOL0     H59265  10.996   7.560   2.407 -0.2604 -1.6642  1.9618
  440MOL0     O59266  10.673  11.116   8.098 -0.3824  0.6567 -0.0597
  440MOL0     C59267  10.694  11.000   8.058  0.2284  0.1867  0.4251
  440MOL0     O59268  10.652  10.948   7.943  0.2614  0.5070  0.0227
  440MOL0     C59269  10.568  11.027   7.869 -0.3228 -0.7999  0.9191
  440MOL0     C59270  10.604  11.061   7.738 -0.8963 -0.0190  0.4674
  440MOL0     C59271  10.526  11.143   7.663  0.3421  0.6155  0.7757
  440MOL0     C59272  10.396  11.177   7.703 -0.4703 -0.4117 -0.4911
  440MOL0     O59273  10.325  11.262   7.629 -0.4297 -0.6065  0.5425
  440MOL0     C59274  10.338  11.404   7.661  0.4817 -0.0138  0.8250
  440MOL0     C59275  10.229  11.479   7.582  0.7978  0.3449  0.8677
  440MOL0     C59276  10.081  11.450   7.622 -0.1389 -0.2332 -0.1869
  440MOL0     C59277  10.041  11.533   7.755 -0.7250  0.4574  0.2544
  440MOL0     C59278   9.917  11.489   7.820 -0.0144 -0.5852 -0.4135
  440MOL0     C59279   9.893  11.554   7.963 -1.0022  0.3760 -0.2695
  440MOL0     C59280   9.991  11.496   8.067 -0.4323  0.0833 -0.5359
  440MOL0     C59281   9.942  11.502   8.213  0.1432 -0.4800 -0.3623
  440MOL0     N59282   9.850  11.390   8.257 -0.2666 -0.3887  0.6421
  440MOL0     C59283   9.875  11.254   8.258  0.2923  0.1479 -0.2140
  440MOL0     C59284   9.756  11.198   8.307  0.3333  1.0246 -0.4187
  440MOL0     C59285   9.724  11.061   8.357 -0.0330  0.4447 -1.0546
  440MOL0     C59286   9.647  10.979   8.258 -0.8310 -0.2303  0.0929
  440MOL0     C59287   9.584  10.851   8.312 -0.0775  0.8111  0.7939
  440MOL0     C59288   9.687  10.746   8.355 -0.1444 -0.9603  0.8630
  440MOL0     O59289   9.626  10.636   8.418  0.5028 -0.4274 -0.6301
  440MOL0     C59290   9.587  10.532   8.331  0.3419  0.0492 -0.3827
  440MOL0     C59291   9.547  10.421   8.400 -0.4616  0.9181  0.5570
  440MOL0     C59292   9.478  10.308   8.343  0.0136  0.6535 -0.4012
  440MOL0     C59293   9.427  10.201   8.436  0.1788 -1.0180 -0.3069
  440MOL0     C59294   9.481  10.301   8.201 -0.0020  0.1764 -0.1278
  440MOL0     C59295   9.427  10.184   8.126 -0.2583 -0.4653  1.0218
  440MOL0     O59296   9.475  10.170   7.994  0.2911  0.3402 -0.1046
  440MOL0     C59297   9.421  10.066   7.926 -0.4758  0.4243  0.1534
  440MOL0     C59298   9.448   9.934   7.961  0.6716 -0.1228 -0.3478
  440MOL0     C59299   9.401   9.827   7.883  0.0346 -0.7870  0.4935
  440MOL0     C59300   9.328   9.857   7.771 -1.1290  0.6690  0.5668
  440MOL0     O59301   9.302   9.744   7.697 -0.5718 -0.2948 -0.6473
  440MOL0     C59302   9.175   9.736   7.633 -0.3968  0.6307 -0.3472
  440MOL0     C59303   9.072   9.661   7.725 -0.6279 -0.4638 -0.7929
  440MOL0     C59304   8.980   9.750   7.814 -0.0755  0.3946  0.5110
  440MOL0     C59305   9.013   9.753   7.963 -1.4846  0.7106  0.8684
  440MOL0     C59306   8.951   9.865   8.032 -0.9186 -0.5607  0.2195
  440MOL0     C59307   8.806   9.879   7.987 -0.6943  0.4769  0.7840
  440MOL0     C59308   8.718   9.978   8.071  0.5458 -0.3091 -0.1397
  440MOL0     C59309   8.566   9.957   8.055 -0.9552  0.2098  0.4056
  440MOL0    Cl59310   8.509   9.987   7.891  0.2871  0.3325  0.1961
  440MOL0     C59311   9.299   9.993   7.734 -0.2612 -0.5318  0.2979
  440MOL0     C59312   9.343  10.094   7.815 -0.5397 -1.0375 -0.2086
  440MOL0     O59313   9.330  10.122   8.179 -0.0905 -0.1983  0.3170
  440MOL0     C59314   9.535  10.410   8.125 -0.9093  0.9073 -0.0098
  440MOL0     C59315   9.576  10.529   8.187  0.6916  0.4602 -0.0520
  440MOL0     N59316   9.662  11.295   8.325 -0.9233  0.1065  1.1457
  440MOL0     N59317   9.723  11.409   8.300 -0.0602 -0.1376  0.3235
  440MOL0     C59318  10.361  11.137   7.825  0.7615 -0.3098 -0.4673
  440MOL0     C59319  10.443  11.068   7.911  0.2342 -0.8543  0.7762
  440MOL0     C59320  10.779  10.927   8.156  0.1403  0.8578 -0.0562
  440MOL0     C59321  10.893  10.983   8.219 -0.2499 -0.0292 -0.6152
  440MOL0     C59322  10.975  10.912   8.313 -0.0981 -1.1121  0.2581
  440MOL0     C59323  10.946  10.773   8.330 -0.5210 -0.7634  0.1320
  440MOL0     O59324  11.020  10.691   8.400 -0.4514 -0.2496  0.5368
  440MOL0     C59325  11.119  10.747   8.490  0.1641  0.7116 -0.1531
  440MOL0     C59326  11.204  10.637   8.556  0.0384  0.3135 -0.1713
  440MOL0     C59327  11.310  10.697   8.645 -0.2295 -0.0870 -0.2142
  440MOL0     C59328  11.258  10.780   8.769 -0.2073  0.5270  0.8922
  440MOL0     C59329  11.375  10.796   8.853  1.5285  0.4297  0.2420
  440MOL0     C59330  11.486  10.812   8.905  0.4404 -1.0412 -1.2776
  440MOL0     C59331  10.827  10.719   8.275  0.6526 -0.3879 -0.3160
  440MOL0     C59332  10.745  10.797   8.190 -1.1343  1.0281 -0.3544
  440MOL0     H59333  10.696  11.030   7.690 -1.8976 -0.5590 -1.2115
  440MOL0     H59334  10.556  11.183   7.567 -0.9861  1.6902  0.7891
  440MOL0     H59335  10.347  11.422   7.768 -0.8940  3.0895  0.5450
  440MOL0     H59336  10.436  11.433   7.621  0.1930 -0.9783 -0.6591
  440MOL0     H59337  10.259  11.584   7.581  1.7126  0.0926  1.2913
  440MOL0     H59338  10.236  11.439   7.480  1.5031 -2.7958  2.0139
  440MOL0     H59339  10.014  11.484   7.543  0.2720 -1.7494 -1.2157
  440MOL0     H59340  10.055  11.344   7.629 -3.6698  0.5657  1.1821
  440MOL0     H59341  10.129  11.526   7.819  0.6920  3.6589 -1.1038
  440MOL0     H59342  10.034  11.641   7.739 -1.4127  0.6797  1.9195
  440MOL0     H59343   9.830  11.526   7.766 -0.2726 -1.3804 -0.5466
  440MOL0     H59344   9.910  11.382   7.801 -0.6516  0.0167 -4.2995
  440MOL0     H59345   9.907  11.663   7.965  1.2637  0.1431  0.9587
  440MOL0     H59346   9.802  11.512   8.007 -0.2419 -2.4181 -1.1808
  440MOL0     H59347  10.017  11.398   8.027 -0.3390  1.2525 -3.5792
  440MOL0     H59348  10.091  11.541   8.067 -0.1551 -0.3824  1.9615
  440MOL0     H59349   9.886  11.595   8.227  0.6900 -0.5126  2.6750
  440MOL0     H59350  10.029  11.507   8.279  0.4399 -3.4398 -0.4281
  440MOL0     H59351   9.965  11.193   8.260  0.3241  0.1286 -1.4735
  440MOL0     H59352   9.819  11.010   8.371 -1.6824 -2.7865 -0.8299
  440MOL0     H59353   9.669  11.075   8.450  1.6226 -1.4291  0.2746
  440MOL0     H59354   9.721  10.972   8.177  0.1650  3.0824  0.5511
  440MOL0     H59355   9.562  11.039   8.223  0.0291  1.1989  0.3694
  440MOL0     H59356   9.515  10.813   8.236  1.1449 -0.1810  0.1537
  440MOL0     H59357   9.522  10.878   8.398  0.0213  1.2930  0.7193
  440MOL0     H59358   9.758  10.792   8.424 -0.5208  3.0137 -1.1253
  440MOL0     H59359   9.744  10.714   8.268  0.0549  1.3165  0.0919
  440MOL0     H59360   9.558  10.412   8.508  1.2156 -1.9355  0.2441
  440MOL0     H59361   9.477  10.105   8.419  1.0600 -0.1825 -2.9123
  440MOL0     H59362   9.432  10.240   8.538 -2.7490 -2.0069  0.3150
  440MOL0     H59363   9.322  10.187   8.411  0.5709 -1.6005 -1.7478
  440MOL0     H59364   9.503   9.916   8.053  2.1262 -0.0518 -1.1669
  440MOL0     H59365   9.401   9.726   7.923 -1.2558 -1.4798 -1.1312
  440MOL0     H59366   9.133   9.829   7.591 -2.2398 -0.7133 -1.6411
  440MOL0     H59367   9.186   9.681   7.539  0.2854  0.8639 -0.4083
  440MOL0     H59368   9.007   9.604   7.658 -1.3820  0.4669 -0.8785
  440MOL0     H59369   9.125   9.582   7.778 -2.5589 -1.8717 -0.8284
  440MOL0     H59370   8.877   9.718   7.794 -1.2577  3.0015  1.8739
  440MOL0     H59371   8.962   9.851   7.778 -4.9867  1.0347  3.7049
  440MOL0     H59372   8.976   9.660   8.008 -0.1910  0.6568  1.8939
  440MOL0     H59373   9.121   9.759   7.980 -1.3222 -0.3555  0.2994
  440MOL0     H59374   9.005   9.954   7.998  1.5366 -1.3983  1.7285
  440MOL0     H59375   8.954   9.855   8.141 -4.0417  0.4330  0.5052
  440MOL0     H59376   8.801   9.919   7.885 -1.0050  2.7390  1.6193
  440MOL0     H59377   8.750   9.786   8.001 -3.0765  2.0675  2.8858
  440MOL0     H59378   8.747  10.077   8.035 -0.8444  0.2299  0.1868
  440MOL0     H59379   8.742   9.969   8.178 -1.8418 -0.7803  0.4103
  440MOL0     H59380   8.521  10.025   8.127 -0.2079 -1.4681  2.5448
  440MOL0     H59381   8.549   9.852   8.079 -2.2134  0.6953  1.8125
  440MOL0     H59382   9.249  10.026   7.643  1.6692  2.5719  0.2218
  440MOL0     H59383   9.309  10.194   7.790  0.9111  0.2176  2.3582
  440MOL0     H59384   9.542  10.393   8.018  1.5850 -0.5031  0.3085
  440MOL0     H59385   9.601  10.609   8.118  0.6175  0.0161 -0.6033
  440MOL0     H59386  10.265  11.170   7.864  1.1612 -0.8711  1.0644
  440MOL0     H59387  10.414  11.051   8.014 -2.1220 -1.4463  0.0702
  440MOL0     H59388  10.920  11.079   8.175  0.6375 -1.3087 -3.0327
  440MOL0     H59389  11.070  10.951   8.347  0.5334 -2.6714  0.3773
  440MOL0     H59390  11.198  10.798   8.433 -0.2442 -1.4177 -2.8250
  440MOL0     H59391  11.066  10.809   8.562 -1.7555 -1.9825  0.9432
  440MOL0     H59392  11.249  10.580   8.473  0.0463  1.2421 -0.8236
  440MOL0     H59393  11.137  10.571   8.612  2.4361 -3.6565 -1.5482
  440MOL0     H59394  11.387  10.757   8.595  2.2725 -1.7026  1.4680
  440MOL0     H59395  11.367  10.613   8.686 -1.7827 -0.3360  1.5548
  440MOL0     H59396  11.174  10.730   8.819 -2.7536  2.3218 -1.3315
  440MOL0     H59397  11.223  10.879   8.740 -1.9808  1.1193  4.5313
  440MOL0     H59398  11.580  10.837   8.950 -1.1569  0.2983  1.5574
  440MOL0     H59399  10.811  10.615   8.301  0.1058 -0.1995  0.1070
  440MOL0     H59400  10.649  10.759   8.155 -1.4907  0.7568  0.8915
  441MOL0     O59401   3.650   9.824   2.945  0.1431 -0.0962  0.3373
  441MOL0     C59402   3.737   9.774   3.016  0.2248  0.8405 -0.6502
  441MOL0     O59403   3.724   9.665   3.099 -0.1269 -0.3133 -0.6549
  441MOL0     C59404   3.605   9.596   3.091  0.3343 -0.3146  1.2643
  441MOL0     C59405   3.536   9.559   3.204  0.4678 -0.2779 -0.2587
  441MOL0     C59406   3.412   9.491   3.202  0.0260  0.0495  0.3475
  441MOL0     C59407   3.360   9.460   3.070 -0.6974  0.1107 -0.3782
  441MOL0     O59408   3.250   9.387   3.060  0.1637  1.0361  0.3860
  441MOL0     C59409   3.251   9.259   3.118 -1.3200 -0.7444 -0.6782
  441MOL0     C59410   3.119   9.237   3.192  0.4352  1.0049 -1.3717
  441MOL0     C59411   3.145   9.242   3.350  0.5523  1.0394  0.9312
  441MOL0     C59412   3.150   9.101   3.417 -0.6096 -1.6086 -0.0001
  441MOL0     C59413   3.016   9.027   3.409 -0.0890  0.3263 -0.6556
  441MOL0     C59414   3.015   8.903   3.490  0.6594  0.7663  0.2043
  441MOL0     C59415   2.876   8.824   3.492 -0.9830  0.6610  0.3285
  441MOL0     C59416   2.853   8.729   3.370 -0.5137  0.3105 -0.1669
  441MOL0     N59417   2.822   8.805   3.247  0.6725 -0.3628 -0.8162
  441MOL0     C59418   2.733   8.911   3.234 -0.0442  0.7028 -0.3200
  441MOL0     C59419   2.756   8.963   3.110 -0.0151 -0.3373 -0.9776
  441MOL0     C59420   2.686   9.068   3.039  0.3886  1.2249 -0.6209
  441MOL0     C59421   2.766   9.195   2.997 -1.0920  0.4157 -0.3962
  441MOL0     C59422   2.883   9.163   2.899 -0.0885 -0.1056 -0.5147
  441MOL0     C59423   2.962   9.282   2.849  0.7872 -0.9266 -0.7175
  441MOL0     O59424   2.867   9.349   2.766 -0.3824  0.2131  0.0226
  441MOL0     C59425   2.919   9.447   2.692  0.1012 -0.0996 -0.9557
  441MOL0     C59426   3.009   9.443   2.585 -0.1751  0.8902 -0.6777
  441MOL0     C59427   3.056   9.557   2.514  0.6150 -0.5024 -0.2155
  441MOL0     C59428   3.137   9.527   2.391 -0.2711  0.3732 -1.3131
  441MOL0     C59429   3.004   9.684   2.547  1.4465  0.4262  1.1574
  441MOL0     C59430   3.052   9.811   2.489 -0.4905 -0.2468  0.0825
  441MOL0     O59431   2.994   9.930   2.525 -0.6295 -0.3551 -0.5836
  441MOL0     C59432   3.047  10.039   2.463 -0.2037 -0.0955  0.2246
  441MOL0     C59433   2.965  10.115   2.375 -0.6863  0.6866  0.4577
  441MOL0     C59434   3.001  10.240   2.333  0.1839 -0.2598  0.1591
  441MOL0     C59435   3.131  10.279   2.362 -1.4749 -0.0818  0.9500
  441MOL0     O59436   3.171  10.401   2.326 -0.4164 -0.0536 -0.0766
  441MOL0     C59437   3.079  10.512   2.347 -0.0122 -1.6069  0.3474
  441MOL0     C59438   3.159  10.640   2.303  0.3693 -0.5698  0.1993
  441MOL0     C59439   3.150  10.667   2.149 -0.2798 -0.5863  0.2423
  441MOL0     C59440   3.280  10.626   2.079 -0.1352  0.1300  0.3215
  441MOL0     C59441   3.290  10.669   1.940 -0.6908 -0.5770  0.7819
  441MOL0     C59442   3.434  10.693   1.884 -0.0031 -0.5672 -1.9036
  441MOL0     C59443   3.519  10.565   1.887  0.2784 -0.3497  0.8827
  441MOL0     C59444   3.665  10.589   1.847  0.8083 -0.5164 -0.4520
  441MOL0    Cl59445   3.675  10.680   1.691  0.3428 -0.0607 -0.0117
  441MOL0     C59446   3.227  10.205   2.432  0.0975  0.0323  0.2217
  441MOL0     C59447   3.185  10.085   2.488 -0.4314  0.3874  0.2866
  441MOL0     O59448   3.154   9.796   2.419  0.5634 -0.5581 -0.6843
  441MOL0     C59449   2.912   9.685   2.652  0.2309  0.5000 -0.6820
  441MOL0     C59450   2.869   9.577   2.724  0.0299  0.3937 -0.1042
  441MOL0     N59451   2.859   8.891   3.046 -0.2195 -0.1859 -0.2344
  441MOL0     N59452   2.890   8.796   3.131  0.7025  0.0261  0.1007
  441MOL0     C59453   3.428   9.488   2.959 -0.1637 -0.7241  0.4676
  441MOL0     C59454   3.547   9.562   2.963  1.2018 -0.6879  1.7457
  441MOL0     C59455   3.855   9.859   3.040  0.0871  0.4566 -0.6530
  441MOL0     C59456   3.871   9.972   2.953 -0.3193 -0.2685 -0.0690
  441MOL0     C59457   3.989  10.051   2.970 -0.4257  0.2154  0.1733
  441MOL0     C59458   4.083  10.027   3.072 -0.1958  0.2348  0.4109
  441MOL0     O59459   4.189  10.110   3.093 -0.7807 -0.5273  0.1921
  441MOL0     C59460   4.290  10.086   2.994 -0.8322 -0.6370  0.5279
  441MOL0     C59461   4.420  10.090   3.071 -0.5206 -1.0611  0.2237
  441MOL0     C59462   4.438   9.969   3.166  0.5704  0.2740 -0.3066
  441MOL0     C59463   4.547   9.998   3.272  0.3471  0.3035  0.1215
  441MOL0     C59464   4.680   9.964   3.216 -0.0489  0.7319  0.5635
  441MOL0     C59465   4.772   9.917   3.151 -0.0604 -0.0589 -0.2438
  441MOL0     C59466   4.063   9.906   3.147  0.8409 -0.2857  0.0298
  441MOL0     C59467   3.957   9.828   3.123  0.8572 -0.9768 -1.6629
  441MOL0     H59468   3.591   9.570   3.297  1.8578 -0.2986 -1.0586
  441MOL0     H59469   3.357   9.469   3.293  0.1802 -0.8816  0.2234
  441MOL0     H59470   3.241   9.209   3.021 -0.8431 -2.3011  0.0482
  441MOL0     H59471   3.347   9.227   3.159 -1.2986  0.1366 -0.0388
  441MOL0     H59472   3.045   9.313   3.166  0.7735  1.6076 -0.6383
  441MOL0     H59473   3.096   9.133   3.168 -0.5380  0.8455  0.0713
  441MOL0     H59474   3.238   9.294   3.370  1.2798  0.4541 -0.7163
  441MOL0     H59475   3.071   9.303   3.402 -0.5378 -0.1363  0.8155
  441MOL0     H59476   3.234   9.045   3.374  0.3767  0.0441 -0.2861
  441MOL0     H59477   3.180   9.117   3.521  2.4584 -1.9995 -0.7505
  441MOL0     H59478   2.944   9.094   3.457 -0.0182  0.7591 -1.1449
  441MOL0     H59479   2.989   9.002   3.306 -1.9050  0.7587 -0.3251
  441MOL0     H59480   3.094   8.836   3.457  1.6706  2.7937 -1.8131
  441MOL0     H59481   3.034   8.935   3.593 -0.2635  0.7446  0.3886
  441MOL0     H59482   2.874   8.754   3.576  1.9343 -0.9279 -0.7521
  441MOL0     H59483   2.791   8.890   3.507 -2.9433 -2.1078  2.4154
  441MOL0     H59484   2.787   8.642   3.379 -0.7581  0.3867 -1.1046
  441MOL0     H59485   2.939   8.663   3.354 -2.1218 -1.6116 -1.3590
  441MOL0     H59486   2.661   8.943   3.309 -1.8882  2.3623 -2.6372
  441MOL0     H59487   2.649   9.023   2.947 -0.0241  2.3320 -1.0177
  441MOL0     H59488   2.600   9.077   3.106 -1.6789 -2.7444 -2.4126
  441MOL0     H59489   2.806   9.243   3.087 -1.3506  1.0896 -0.6315
  441MOL0     H59490   2.698   9.265   2.947 -1.0998  0.5284 -0.2300
  441MOL0     H59491   2.832   9.104   2.822  0.0442  1.4355 -1.8392
  441MOL0     H59492   2.966   9.104   2.938  0.6993  1.7514  0.7268
  441MOL0     H59493   3.056   9.255   2.801  1.2059 -1.5740  0.4193
  441MOL0     H59494   2.993   9.338   2.938 -1.0096 -3.5902  1.7708
  441MOL0     H59495   3.051   9.344   2.568 -0.7413 -0.2780  3.4652
  441MOL0     H59496   3.114   9.422   2.369 -0.0262  0.1990 -0.7607
  441MOL0     H59497   3.101   9.573   2.299 -0.5081 -2.2238 -2.6371
  441MOL0     H59498   3.244   9.545   2.408 -0.4729  3.4427 -2.6691
  441MOL0     H59499   2.872  10.064   2.351  0.1717 -0.5378 -0.3714
  441MOL0     H59500   2.925  10.302   2.286 -0.9837 -1.1398  0.8556
  441MOL0     H59501   2.988  10.506   2.287  0.2450  2.7636 -0.7846
  441MOL0     H59502   3.049  10.515   2.452 -0.8738 -1.2449  0.0965
  441MOL0     H59503   3.105  10.726   2.345  1.0610 -0.2812  0.4981
  441MOL0     H59504   3.260  10.640   2.344  0.5589  1.7566 -0.1781
  441MOL0     H59505   3.114  10.768   2.123  0.4019 -0.9674 -2.4911
  441MOL0     H59506   3.075  10.597   2.112 -0.7935  1.6452 -3.4255
  441MOL0     H59507   3.357  10.683   2.132 -1.5189  2.0394  0.3822
  441MOL0     H59508   3.297  10.518   2.084  3.5816  0.4902 -1.3079
  441MOL0     H59509   3.246  10.769   1.935  2.1057  0.6834 -1.4411
  441MOL0     H59510   3.235  10.601   1.875 -3.4408  2.0301  0.1046
  441MOL0     H59511   3.423  10.726   1.780 -2.9379  0.8152 -1.2520
  441MOL0     H59512   3.477  10.766   1.953 -0.8017 -0.9834 -0.9467
  441MOL0     H59513   3.474  10.489   1.823  1.1644  1.2443 -1.8110
  441MOL0     H59514   3.520  10.531   1.990  0.9362  0.0716  1.0237
  441MOL0     H59515   3.712  10.490   1.845  1.1671 -0.4230  1.4521
  441MOL0     H59516   3.720  10.643   1.925  3.2274 -2.8025 -0.4292
  441MOL0     H59517   3.327  10.246   2.428 -0.7102  2.2420  1.1500
  441MOL0     H59518   3.258  10.035   2.552 -4.1432 -1.5261  3.4795
  441MOL0     H59519   2.871   9.783   2.676 -0.0873  0.5317 -1.3201
  441MOL0     H59520   2.799   9.586   2.807  1.1503 -0.2748  0.9407
  441MOL0     H59521   3.390   9.462   2.861 -0.2527 -0.0189  0.3088
  441MOL0     H59522   3.603   9.582   2.872 -0.6338 -4.4741 -0.4697
  441MOL0     H59523   3.803   9.996   2.872  0.6758  2.5382 -0.1816
  441MOL0     H59524   4.026  10.126   2.901  0.2345 -2.7164 -2.9996
  441MOL0     H59525   4.280   9.985   2.953 -1.6332 -0.3518 -0.0108
  441MOL0     H59526   4.285  10.166   2.919 -2.0447 -1.7269 -0.6073
  441MOL0     H59527   4.427  10.183   3.129  0.6987  0.3928 -2.0973
  441MOL0     H59528   4.507  10.087   3.006 -1.1594 -1.1397 -0.6528
  441MOL0     H59529   4.463   9.883   3.102 -4.1013 -1.1619 -0.5946
  441MOL0     H59530   4.346   9.953   3.222 -1.1579  3.2738 -2.0533
  441MOL0     H59531   4.539   9.937   3.362  1.0645  2.3195  1.6100
  441MOL0     H59532   4.549  10.101   3.306  1.7813  0.3774 -0.1066
  441MOL0     H59533   4.850   9.872   3.093 -1.0454  0.2452 -1.8715
  441MOL0     H59534   4.131   9.885   3.228  0.8173  3.2019  1.1105
  441MOL0     H59535   3.959   9.729   3.167  0.0491 -0.2311  0.1251
  442MOL0     O59536   1.794  11.114  10.982  0.1872  0.1862 -0.1010
  442MOL0     C59537   1.695  11.105  10.910 -0.7132  0.2888 -0.2829
  442MOL0     O59538   1.693  11.056  10.786 -0.4116 -1.0789 -0.1275
  442MOL0     C59539   1.808  11.018  10.719 -0.0351 -0.0212 -0.5768
  442MOL0     C59540   1.875  11.100  10.627 -0.5184 -0.8801 -0.5585
  442MOL0     C59541   1.965  11.047  10.536  0.2754  0.1805  0.7498
  442MOL0     C59542   1.983  10.916  10.519  0.1697  1.0582 -0.2798
  442MOL0     O59543   2.055  10.875  10.410  0.3378  0.0338 -0.9545
  442MOL0     C59544   2.122  10.748  10.414 -0.2114 -0.5749 -0.7751
  442MOL0     C59545   2.205  10.735  10.281 -0.0860  0.6063 -0.3300
  442MOL0     C59546   2.310  10.827  10.243 -0.5522 -0.2396 -0.0204
  442MOL0     C59547   2.335  10.842  10.100 -0.0452  0.7604  0.2230
  442MOL0     C59548   2.456  10.932  10.071 -0.2273  0.4752  0.2325
  442MOL0     C59549   2.413  11.076  10.046 -1.2134 -1.4068 -0.8570
  442MOL0     C59550   2.532  11.147   9.984  0.1910 -0.4910  1.2631
  442MOL0     C59551   2.503  11.303   9.988  0.0873 -0.2310  0.1067
  442MOL0     N59552   2.370  11.353   9.960  0.4210 -0.4309 -0.2365
  442MOL0     C59553   2.317  11.359   9.838  0.3855  0.6668  0.3641
  442MOL0     C59554   2.196  11.417   9.848  0.3128 -0.3270 -0.3161
  442MOL0     C59555   2.091  11.426   9.745  1.4289 -0.2535  1.0879
  442MOL0     C59556   2.102  11.559   9.660 -0.3938 -0.1204  0.5418
  442MOL0     C59557   2.248  11.585   9.600 -0.3000  0.0010  0.1987
  442MOL0     C59558   2.238  11.675   9.483 -0.8435 -1.0313  0.6390
  442MOL0     O59559   2.130  11.649   9.398  0.3561 -0.2364 -0.0153
  442MOL0     C59560   2.149  11.654   9.264  0.2758 -0.8186  0.5353
  442MOL0     C59561   2.091  11.764   9.199 -0.4522  0.6435 -0.7013
  442MOL0     C59562   2.114  11.786   9.063 -0.7469  0.2018  0.2203
  442MOL0     C59563   2.044  11.903   8.998  0.3464  0.8248  0.7394
  442MOL0     C59564   2.190  11.697   8.986  0.1295 -0.0625 -0.4265
  442MOL0     C59565   2.228  11.708   8.848  0.2239  0.5035  0.1182
  442MOL0     O59566   2.341  11.643   8.811 -0.8396  0.1916  0.1157
  442MOL0     C59567   2.390  11.651   8.683 -0.4396  1.0462  0.5212
  442MOL0     C59568   2.422  11.531   8.615  0.8137 -0.0079 -0.4405
  442MOL0     C59569   2.477  11.528   8.480 -0.2541 -0.1493 -0.0693
  442MOL0     C59570   2.502  11.650   8.422 -0.5176 -0.0829 -0.0371
  442MOL0     O59571   2.547  11.669   8.294  0.1827 -0.1588  0.1422
  442MOL0     C59572   2.546  11.559   8.194  0.7226  0.1023  0.5218
  442MOL0     C59573   2.636  11.588   8.081  0.6280 -0.3674  0.2041
  442MOL0     C59574   2.654  11.471   7.976  0.8304 -0.8396 -0.3898
  442MOL0     C59575   2.746  11.495   7.865  0.6912 -0.0222 -0.6907
  442MOL0     C59576   2.788  11.363   7.806  1.0201  0.1365 -0.4923
  442MOL0     C59577   2.865  11.374   7.672 -0.5297 -0.6668 -0.1272
  442MOL0     C59578   2.865  11.236   7.607  0.2774  0.5046 -0.0126
  442MOL0     C59579   2.987  11.227   7.514  0.4246 -0.3473 -0.7730
  442MOL0    Cl59580   2.993  11.353   7.385  0.0463 -0.1803 -0.3277
  442MOL0     C59581   2.471  11.772   8.483 -0.3321 -0.7029 -0.8530
  442MOL0     C59582   2.423  11.769   8.617  0.6270 -0.2277 -0.4437
  442MOL0     O59583   2.156  11.769   8.770 -0.3628  0.2948  0.1288
  442MOL0     C59584   2.261  11.603   9.055 -0.7321  0.0942 -0.7285
  442MOL0     C59585   2.237  11.592   9.196 -0.3508  0.4004  0.2548
  442MOL0     N59586   2.187  11.461   9.981 -0.5225 -0.4355 -0.1612
  442MOL0     N59587   2.291  11.413  10.047 -0.8829 -0.9883  0.1715
  442MOL0     C59588   1.912  10.824  10.606  0.6837 -0.1017 -0.9220
  442MOL0     C59589   1.830  10.880  10.716 -0.4183 -0.3582  0.1111
  442MOL0     C59590   1.556  11.136  10.969 -0.8209 -0.3554 -0.1583
  442MOL0     C59591   1.446  11.138  10.883  0.7172  1.1251 -0.7559
  442MOL0     C59592   1.319  11.162  10.942  0.3432 -0.4244  0.5823
  442MOL0     C59593   1.299  11.186  11.068 -0.1442 -0.1570  0.2297
  442MOL0     O59594   1.176  11.203  11.109  0.7929  0.0500  0.4704
  442MOL0     C59595   1.152  11.245  11.242  0.0988  0.8230 -0.6462
  442MOL0     C59596   0.999  11.246  11.269 -0.4974  0.7633 -0.3262
  442MOL0     C59597   0.970  11.255  11.419 -0.3547  0.0705 -0.3450
  442MOL0     C59598   0.822  11.268  11.442 -0.2609 -0.3090 -0.2474
  442MOL0     C59599   0.793  11.204  11.568  0.6937  0.2663  0.7248
  442MOL0     C59600   0.783  11.157  11.676  0.2818  0.8576 -0.7725
  442MOL0     C59601   1.408  11.173  11.155 -0.5648  0.9568  0.2563
  442MOL0     C59602   1.539  11.154  11.105  0.4049 -0.7069 -0.3339
  442MOL0     H59603   1.844  11.204  10.628  2.2707  0.0419  0.1378
  442MOL0     H59604   2.004  11.129  10.476  3.2330  0.8666  3.3620
  442MOL0     H59605   2.196  10.745  10.494  0.5741 -2.6807 -1.5250
  442MOL0     H59606   2.046  10.670  10.425 -2.1619  0.6458 -3.9902
  442MOL0     H59607   2.246  10.633  10.287 -1.8888 -0.2350 -1.6377
  442MOL0     H59608   2.129  10.731  10.203 -1.5153 -0.3451  1.0489
  442MOL0     H59609   2.296  10.928  10.282  1.9359 -0.4246  1.5122
  442MOL0     H59610   2.400  10.791  10.293 -0.2896  0.7119  0.2083
  442MOL0     H59611   2.339  10.742  10.054 -1.7879  0.9797 -0.4916
  442MOL0     H59612   2.246  10.883  10.052  1.4936  4.2738  0.1166
  442MOL0     H59613   2.536  10.926  10.147  2.6002  2.6151 -2.3123
  442MOL0     H59614   2.500  10.895   9.978 -4.8355  1.0222 -2.4495
  442MOL0     H59615   2.327  11.078   9.979 -2.3552 -1.3544  0.5543
  442MOL0     H59616   2.382  11.109  10.146 -1.4961 -1.8798 -0.7866
  442MOL0     H59617   2.625  11.117  10.033 -2.1011 -0.8452  5.9810
  442MOL0     H59618   2.538  11.120   9.878 -0.3256 -0.8502  1.3233
  442MOL0     H59619   2.583  11.348   9.929  1.1068 -0.8399  1.0120
  442MOL0     H59620   2.528  11.334  10.090 -1.5949 -0.2282  0.5504
  442MOL0     H59621   2.343  11.304   9.749  0.9886 -0.9250  1.4785
  442MOL0     H59622   2.102  11.350   9.667 -3.7433 -1.2407  0.9725
  442MOL0     H59623   1.995  11.399   9.790  0.2981  0.9590 -0.5114
  442MOL0     H59624   2.081  11.647   9.723  0.8685 -0.4668  1.4819
  442MOL0     H59625   2.027  11.546   9.582  3.2793 -1.6681 -3.0719
  442MOL0     H59626   2.287  11.488   9.570  0.7624  1.2147 -2.6241
  442MOL0     H59627   2.314  11.633   9.673 -1.0797 -0.3877  1.1918
  442MOL0     H59628   2.329  11.661   9.425 -0.3521 -3.1286  1.8173
  442MOL0     H59629   2.228  11.779   9.517  2.1935 -0.9181  1.4425
  442MOL0     H59630   2.026  11.827   9.258  2.7961  0.4899  3.5323
  442MOL0     H59631   2.113  11.971   8.947 -1.1792  3.3443  1.8457
  442MOL0     H59632   1.971  11.862   8.927 -0.6825 -0.5853  2.5356
  442MOL0     H59633   1.993  11.964   9.073  0.4528  1.0918  0.5972
  442MOL0     H59634   2.402  11.436   8.662  0.1865  0.2421 -0.1929
  442MOL0     H59635   2.505  11.430   8.441 -1.1848 -0.4073 -0.1351
  442MOL0     H59636   2.590  11.476   8.251  2.6420  0.8422  0.2060
  442MOL0     H59637   2.450  11.528   8.153  0.5512  1.1536  0.0829
  442MOL0     H59638   2.603  11.687   8.051 -3.0110 -1.5257 -0.1016
  442MOL0     H59639   2.732  11.606   8.130  0.8123 -0.3878 -0.1457
  442MOL0     H59640   2.556  11.450   7.930  0.2235  0.3084  0.3494
  442MOL0     H59641   2.677  11.379   8.030 -2.6251 -2.0816 -0.7738
  442MOL0     H59642   2.693  11.557   7.793  0.5406  0.3217 -0.2857
  442MOL0     H59643   2.830  11.555   7.903  2.2669 -1.6822 -1.3706
  442MOL0     H59644   2.697  11.303   7.800 -0.3773  1.8575  1.9445
  442MOL0     H59645   2.850  11.309   7.878 -1.2203 -2.2691 -0.2345
  442MOL0     H59646   2.817  11.437   7.596 -1.1115 -1.5035 -0.4668
  442MOL0     H59647   2.968  11.408   7.687 -0.4427 -1.3292  0.8737
  442MOL0     H59648   2.775  11.209   7.550 -0.0113  0.5663  0.4103
  442MOL0     H59649   2.878  11.160   7.685 -0.6495  0.1948 -0.1435
  442MOL0     H59650   2.990  11.125   7.474 -1.8491 -1.0173  0.5576
  442MOL0     H59651   3.071  11.235   7.584 -3.0351  2.1353  3.6973
  442MOL0     H59652   2.488  11.869   8.437 -2.2864  0.4004  0.5773
  442MOL0     H59653   2.401  11.858   8.676 -0.3037 -1.4465  1.1325
  442MOL0     H59654   2.341  11.539   9.018  1.5489  1.7547  0.9916
  442MOL0     H59655   2.299  11.527   9.258  0.3239  0.2489 -0.5562
  442MOL0     H59656   1.904  10.718  10.586 -0.7772  0.2174 -2.2179
  442MOL0     H59657   1.779  10.812  10.783 -0.4207 -2.0891 -1.5711
  442MOL0     H59658   1.462  11.120  10.777  1.8501  1.3415 -0.6364
  442MOL0     H59659   1.238  11.149  10.872 -0.7334  0.1021  1.7060
  442MOL0     H59660   1.203  11.184  11.316 -3.4321 -2.1243 -0.3719
  442MOL0     H59661   1.199  11.343  11.251  2.1498  0.2097 -3.3223
  442MOL0     H59662   0.959  11.150  11.235  1.5102 -0.5946  0.9405
  442MOL0     H59663   0.948  11.329  11.219  0.1330  1.3256 -0.0521
  442MOL0     H59664   1.026  11.341  11.458  0.3715  0.0227 -1.2312
  442MOL0     H59665   1.000  11.165  11.474 -0.0568  0.8175  0.7519
  442MOL0     H59666   0.759  11.238  11.358  0.9464 -0.0183 -1.2895
  442MOL0     H59667   0.793  11.373  11.450 -1.1376 -0.6343  1.1997
  442MOL0     H59668   0.778  11.126  11.778  2.2481  0.1001 -0.8698
  442MOL0     H59669   1.394  11.178  11.262 -3.1841  2.3165 -0.0500
  442MOL0     H59670   1.623  11.130  11.169 -1.9103 -3.0258  2.0456
  443MOL0     O59671   3.079  11.309   9.230  0.0637  0.1976 -0.2550
  443MOL0     C59672   3.029  11.200   9.200 -0.4856 -0.1560  0.3247
  443MOL0     O59673   3.039  11.081   9.261  0.5457 -0.0145  0.0342
  443MOL0     C59674   3.120  11.061   9.374 -0.7866 -0.6920  1.0010
  443MOL0     C59675   3.073  10.984   9.473  0.6701 -0.2380 -0.4040
  443MOL0     C59676   3.147  10.953   9.584 -0.4392  0.6092  0.6299
  443MOL0     C59677   3.276  10.988   9.595 -0.8982 -1.0048  0.4258
  443MOL0     O59678   3.345  10.966   9.706 -0.4111  0.3409 -0.7013
  443MOL0     C59679   3.486  10.991   9.714 -0.0904  0.4377  0.3613
  443MOL0     C59680   3.538  10.944   9.853 -0.4770 -0.5028  0.7200
  443MOL0     C59681   3.479  11.037   9.961 -0.1882 -0.3679 -0.1176
  443MOL0     C59682   3.578  11.061  10.084  0.7602  0.3227  0.4099
  443MOL0     C59683   3.522  10.993  10.209  0.8302 -0.3509  0.5508
  443MOL0     C59684   3.606  11.026  10.335  0.1164 -0.0903 -0.7581
  443MOL0     C59685   3.577  10.938  10.456 -0.4063 -0.1387  0.6729
  443MOL0     C59686   3.690  10.921  10.564  0.2002 -1.6442  0.4794
  443MOL0     N59687   3.663  10.829  10.670  0.4883 -0.1011  0.0789
  443MOL0     C59688   3.558  10.860  10.754 -0.1126  0.0788 -0.7609
  443MOL0     C59689   3.554  10.749  10.836 -0.2263 -0.0073 -0.4922
  443MOL0     C59690   3.458  10.723  10.940  0.3546 -0.7947  0.6029
  443MOL0     C59691   3.323  10.703  10.886 -0.1677 -0.8057  0.2970
  443MOL0     C59692   3.321  10.569  10.816 -0.1871 -0.2481 -0.2389
  443MOL0     C59693   3.179  10.543  10.751  0.4889 -0.4888 -0.3053
  443MOL0     O59694   3.180  10.634  10.642  0.8444 -0.7573  0.5922
  443MOL0     C59695   3.092  10.591  10.541  0.0275 -0.0987 -0.4331
  443MOL0     C59696   2.957  10.611  10.531  0.6585  1.1727  0.1267
  443MOL0     C59697   2.891  10.554  10.424 -0.3852 -0.1471 -0.7065
  443MOL0     C59698   2.749  10.575  10.423  0.2921  0.1292 -0.1531
  443MOL0     C59699   2.972  10.484  10.321  0.2307  0.2663  0.4821
  443MOL0     C59700   2.912  10.416  10.207 -0.2434 -0.2422 -0.0918
  443MOL0     O59701   2.816  10.498  10.148 -0.0880  0.5289 -0.3705
  443MOL0     C59702   2.749  10.485  10.031  0.2976  0.5151 -0.0414
  443MOL0     C59703   2.707  10.606   9.979  0.3990  0.5603  0.3258
  443MOL0     C59704   2.629  10.613   9.856 -0.3990 -0.0526 -0.0837
  443MOL0     C59705   2.596  10.492   9.794 -0.8978  1.1112 -0.2277
  443MOL0     O59706   2.517  10.498   9.685  0.1788 -0.7079  0.1461
  443MOL0     C59707   2.515  10.382   9.594  0.2264 -0.3051 -0.2717
  443MOL0     C59708   2.439  10.427   9.475  0.1647  0.5057  0.5145
  443MOL0     C59709   2.457  10.315   9.364  1.0468 -0.7217 -0.9909
  443MOL0     C59710   2.593  10.321   9.305 -1.0751 -1.0525  1.5201
  443MOL0     C59711   2.583  10.299   9.154 -0.0414  0.1682  0.9876
  443MOL0     C59712   2.716  10.278   9.059  0.2896  0.2276 -1.1410
  443MOL0     C59713   2.807  10.159   9.103  0.5362 -0.4223  0.6368
  443MOL0     C59714   2.934  10.186   9.014  0.6516 -0.0436 -0.1550
  443MOL0    Cl59715   2.896  10.154   8.845  0.3415 -0.4888  0.1244
  443MOL0     C59716   2.640  10.377   9.850  0.1612 -0.3654  0.2467
  443MOL0     C59717   2.712  10.361   9.968 -0.2880 -0.3861  0.3140
  443MOL0     O59718   2.970  10.312  10.160  0.7506  0.6281 -0.2286
  443MOL0     C59719   3.116  10.491  10.328 -0.1045  0.3289 -0.7921
  443MOL0     C59720   3.173  10.549  10.437 -0.1507 -0.2963 -0.5312
  443MOL0     N59721   3.660  10.666  10.806  0.1335  1.0877  0.8509
  443MOL0     N59722   3.720  10.718  10.704  0.0179 -0.1794 -0.5117
  443MOL0     C59723   3.330  11.059   9.484  0.1924 -0.7155  0.6277
  443MOL0     C59724   3.252  11.109   9.382 -0.5431  0.9551  0.2803
  443MOL0     C59725   2.930  11.200   9.097  0.6155 -0.6018  0.3416
  443MOL0     C59726   2.944  11.280   8.987 -0.5290  0.1514 -0.0044
  443MOL0     C59727   2.864  11.268   8.880  0.0680 -0.1198  0.4362
  443MOL0     C59728   2.743  11.195   8.889  0.4297 -0.0528  0.1368
  443MOL0     O59729   2.650  11.181   8.791  0.2525  0.1192 -1.3246
  443MOL0     C59730   2.680  11.220   8.656 -1.2090  0.6784  0.6330
  443MOL0     C59731   2.577  11.171   8.550  0.3265 -0.1068 -1.0114
  443MOL0     C59732   2.538  11.022   8.566  0.1598 -0.6267 -0.0711
  443MOL0     C59733   2.668  10.940   8.576  0.1871  0.5208  0.2539
  443MOL0     C59734   2.642  10.815   8.512  0.3208 -0.4210  0.5460
  443MOL0     C59735   2.622  10.716   8.445  0.6598  0.7048  0.4582
  443MOL0     C59736   2.722  11.120   8.996 -0.3121  0.2714  0.7049
  443MOL0     C59737   2.815  11.116   9.096  0.0983 -0.2415  0.6398
  443MOL0     H59738   2.974  10.941   9.463  0.0845  0.6941  1.0387
  443MOL0     H59739   3.108  10.882   9.657  3.2245 -1.0928  1.1903
  443MOL0     H59740   3.533  10.938   9.631 -1.6214  2.0324 -1.6678
  443MOL0     H59741   3.497  11.099   9.698  0.6820  0.0740 -1.9581
  443MOL0     H59742   3.511  10.840   9.871  1.0670 -0.6302  2.6654
  443MOL0     H59743   3.647  10.952   9.856 -0.4836 -0.6587  1.7203
  443MOL0     H59744   3.463  11.134   9.911  1.4838 -1.8079 -3.8112
  443MOL0     H59745   3.376  11.018   9.994  0.6242 -1.0699  2.1727
  443MOL0     H59746   3.664  10.996  10.066  1.2863  0.6076  1.7511
  443MOL0     H59747   3.607  11.165  10.096 -0.7185  0.6417  1.5928
  443MOL0     H59748   3.422  11.037  10.223  1.7819  1.7544  1.1134
  443MOL0     H59749   3.515  10.885  10.192 -0.5517  0.0742 -2.3581
  443MOL0     H59750   3.711  11.005  10.314  1.2955  3.0370  1.3142
  443MOL0     H59751   3.594  11.131  10.365  0.7334  0.1932 -1.4584
  443MOL0     H59752   3.485  10.981  10.497  0.3496  0.8285  1.4129
  443MOL0     H59753   3.557  10.837  10.421 -1.2893  0.1764  0.2404
  443MOL0     H59754   3.700  11.017  10.615  1.4549 -2.1152  1.1441
  443MOL0     H59755   3.791  10.891  10.536  0.8822 -3.6313  4.4667
  443MOL0     H59756   3.495  10.947  10.766 -1.3893 -1.0446  1.2953
  443MOL0     H59757   3.483  10.645  11.013  0.6990 -0.5441  0.7523
  443MOL0     H59758   3.463  10.815  10.999 -2.1501 -0.2845  0.1447
  443MOL0     H59759   3.296  10.777  10.811  1.9456  2.3993  2.4569
  443MOL0     H59760   3.248  10.697  10.966  0.6268  5.1868  1.9398
  443MOL0     H59761   3.343  10.498  10.897  2.9538  3.0689  2.1535
  443MOL0     H59762   3.409  10.571  10.751 -0.3728  0.0491 -0.4819
  443MOL0     H59763   3.097  10.554  10.822 -1.2175 -2.9944 -1.7666
  443MOL0     H59764   3.180  10.442  10.710 -1.9980 -0.1815 -1.3106
  443MOL0     H59765   2.895  10.650  10.611 -1.5743 -3.5708  1.0274
  443MOL0     H59766   2.702  10.496  10.363 -1.3927  3.1552 -3.1272
  443MOL0     H59767   2.712  10.568  10.526  2.4006 -1.3789  0.5748
  443MOL0     H59768   2.729  10.675  10.385  1.9180  0.1896 -0.9355
  443MOL0     H59769   2.730  10.696  10.034  0.2797  0.0661  1.1960
  443MOL0     H59770   2.590  10.708   9.818 -0.2667  0.8684  1.9585
  443MOL0     H59771   2.613  10.345   9.564 -0.5160 -1.3806 -1.5182
  443MOL0     H59772   2.462  10.301   9.646 -0.9511  0.8809  0.4547
  443MOL0     H59773   2.333  10.439   9.500  0.1990  0.5025  0.6633
  443MOL0     H59774   2.466  10.528   9.443  0.2419  0.6848  1.1179
  443MOL0     H59775   2.378  10.326   9.288 -2.1112  1.2101  2.2488
  443MOL0     H59776   2.430  10.224   9.418 -0.8593  1.0060  1.2151
  443MOL0     H59777   2.636  10.418   9.331  1.0287 -1.4976 -0.0172
  443MOL0     H59778   2.656  10.247   9.356  2.1982  0.1019 -0.5344
  443MOL0     H59779   2.519  10.382   9.124 -0.9652 -1.0326 -0.4893
  443MOL0     H59780   2.533  10.205   9.131  0.3135  0.1859  0.1083
  443MOL0     H59781   2.678  10.256   8.959  1.5796  1.7212 -1.9965
  443MOL0     H59782   2.766  10.374   9.050  1.2630 -0.2079 -0.5165
  443MOL0     H59783   2.764  10.059   9.094  1.0291 -0.5620 -0.3063
  443MOL0     H59784   2.851  10.179   9.201  3.5022 -0.7949 -0.4947
  443MOL0     H59785   3.018  10.125   9.049  1.4696  2.2108  2.1500
  443MOL0     H59786   2.966  10.289   9.032 -0.9954  0.8592 -2.0083
  443MOL0     H59787   2.604  10.283   9.808  0.8597 -0.0009 -1.2428
  443MOL0     H59788   2.747  10.261   9.993 -1.6319 -0.6530  1.2793
  443MOL0     H59789   3.165  10.445  10.243 -1.0126 -0.1618 -1.0656
  443MOL0     H59790   3.280  10.548  10.453 -0.0746  1.3917 -0.7975
  443MOL0     H59791   3.437  11.076   9.484 -0.1243  1.7434 -0.3205
  443MOL0     H59792   3.291  11.182   9.312 -0.8591 -1.2579 -2.3263
  443MOL0     H59793   3.036  11.337   8.981 -0.1604 -0.3379  0.8455
  443MOL0     H59794   2.880  11.323   8.788 -0.7765 -1.2205 -0.3905
  443MOL0     H59795   2.707  11.326   8.658  3.4397 -0.3245  1.1173
  443MOL0     H59796   2.776  11.175   8.627 -0.6595  2.4519 -0.4431
  443MOL0     H59797   2.606  11.199   8.448 -2.1295 -0.2668 -1.8378
  443MOL0     H59798   2.483  11.219   8.579  2.0008  1.0612  3.2191
  443MOL0     H59799   2.476  11.001   8.478  1.7082  1.3822 -1.7315
  443MOL0     H59800   2.468  11.009   8.650  0.9670  0.5277  0.8010
  443MOL0     H59801   2.695  10.937   8.682 -0.9643  2.0630  0.6246
  443MOL0     H59802   2.765  10.965   8.532  1.0132 -1.9470  0.4921
  443MOL0     H59803   2.588  10.641   8.377 -0.2143  0.8675  0.7009
  443MOL0     H59804   2.642  11.050   9.016 -0.4300  0.5539  1.2405
  443MOL0     H59805   2.792  11.068   9.190  2.2997  2.6989  2.9011
  444MOL0     O59806   0.002   6.615   8.206 -0.8527 -0.2414  0.7164
  444MOL0     C59807  -0.079   6.710   8.179 -0.7737  1.0017 -0.4068
  444MOL0     O59808  -0.160   6.764   8.267  0.5220 -0.3823  0.2503
  444MOL0     C59809  -0.205   6.691   8.377 -0.2178 -0.2618  0.4892
  444MOL0     C59810  -0.225   6.545   8.372 -0.4291 -0.9636  0.9624
  444MOL0     C59811  -0.289   6.478   8.482  0.3966 -0.0662  0.1992
  444MOL0     C59812  -0.324   6.545   8.595 -0.1066 -0.8022 -1.0473
  444MOL0     O59813  -0.373   6.486   8.711  0.3012  0.2194 -0.2429
  444MOL0     C59814  -0.370   6.344   8.739  0.2505  0.1209  0.2266
  444MOL0     C59815  -0.410   6.332   8.885 -0.6474  0.8070  1.1873
  444MOL0     C59816  -0.416   6.187   8.921  0.6045  0.0988 -0.2155
  444MOL0     C59817  -0.456   6.171   9.064 -0.1881  0.1494 -0.2870
  444MOL0     C59818  -0.455   6.020   9.086 -0.2588 -0.3005 -0.6219
  444MOL0     C59819  -0.319   5.944   9.099  0.2925 -0.4637  0.9676
  444MOL0     C59820  -0.344   5.806   9.159 -1.0858 -0.0581  0.0827
  444MOL0     C59821  -0.217   5.725   9.165  1.0265  1.0130 -0.1127
  444MOL0     N59822  -0.116   5.775   9.259  0.1948 -0.1557 -0.4189
  444MOL0     C59823  -0.115   5.736   9.390 -0.8394 -0.4416  0.0528
  444MOL0     C59824   0.007   5.771   9.436  0.2870  0.0881  0.4443
  444MOL0     C59825   0.065   5.766   9.581  0.8378 -0.0314 -0.3510
  444MOL0     C59826  -0.008   5.663   9.677 -0.1244  1.1185 -0.0768
  444MOL0     C59827   0.081   5.608   9.792  0.2863 -0.2076 -1.3100
  444MOL0     C59828  -0.004   5.506   9.871 -0.2042  0.2428  0.0321
  444MOL0     O59829   0.084   5.422   9.944 -1.4400 -0.7601 -0.3117
  444MOL0     C59830   0.034   5.311   9.998  1.1106 -0.2706  0.0203
  444MOL0     C59831  -0.112   5.305  10.009  0.2999 -0.2314  0.3280
  444MOL0     C59832  -0.160   5.188  10.073  0.4109  0.1489  0.4524
  444MOL0     C59833  -0.308   5.167  10.081 -0.1830  1.0700 -0.1184
  444MOL0     C59834  -0.080   5.084  10.112  0.0508 -0.5151 -0.6563
  444MOL0     C59835  -0.123   4.972  10.197  0.0387 -0.1146 -1.9753
  444MOL0     O59836  -0.076   4.851  10.172  0.8163 -0.4911 -0.2502
  444MOL0     C59837  -0.093   4.757  10.270 -0.7093  0.4996 -0.6538
  444MOL0     C59838  -0.127   4.629  10.223 -0.0033 -0.0614  0.0750
  444MOL0     C59839  -0.153   4.521  10.310 -0.6071 -0.6291 -0.1734
  444MOL0     C59840  -0.140   4.544  10.453  0.1314 -0.6421  0.4352
  444MOL0     O59841  -0.177   4.446  10.530  0.2399  0.0102  0.1185
  444MOL0     C59842  -0.082   4.382  10.604  0.3023  0.6633 -0.4054
  444MOL0     C59843  -0.097   4.409  10.755 -0.1071 -0.1426  0.0771
  444MOL0     C59844   0.022   4.345  10.817 -0.2513  0.3298  0.2389
  444MOL0     C59845   0.029   4.350  10.970 -0.3473  0.9377 -0.2096
  444MOL0     C59846   0.148   4.279  11.020  0.0979  0.4502 -0.5580
  444MOL0     C59847   0.167   4.274  11.177 -0.6276  0.1496  0.1338
  444MOL0     C59848   0.037   4.290  11.259 -0.1763  0.5032 -0.0483
  444MOL0     C59849   0.065   4.308  11.420  0.5188  0.5437  0.6780
  444MOL0    Cl59850  -0.087   4.383  11.509 -0.2632  0.6319 -0.3110
  444MOL0     C59851  -0.118   4.672  10.507 -0.4066 -0.0053 -0.4025
  444MOL0     C59852  -0.090   4.776  10.417  0.7174  0.9665 -0.2076
  444MOL0     O59853  -0.182   5.005  10.301 -0.0588 -0.7108 -0.3185
  444MOL0     C59854   0.057   5.106  10.105 -0.5878  0.4135  0.5248
  444MOL0     C59855   0.108   5.214  10.036  0.1428  0.7259 -0.6117
  444MOL0     N59856   0.068   5.837   9.336 -0.1073 -0.0198 -0.2429
  444MOL0     N59857   0.001   5.837   9.228  0.6303 -0.7034 -0.1765
  444MOL0     C59858  -0.297   6.685   8.602  0.8877 -0.0651  0.5303
  444MOL0     C59859  -0.242   6.757   8.492 -0.1495  0.0009 -0.4253
  444MOL0     C59860  -0.081   6.757   8.046 -0.6839 -0.7364 -0.0403
  444MOL0     C59861   0.014   6.715   7.959 -0.5036 -0.9820  0.7445
  444MOL0     C59862   0.026   6.766   7.831 -0.6173  0.1782 -0.6318
  444MOL0     C59863  -0.053   6.860   7.779  0.3229 -0.0498 -0.2284
  444MOL0     O59864  -0.032   6.885   7.648  0.2304  0.5893  0.2299
  444MOL0     C59865  -0.106   6.988   7.586  0.3346  0.9079  0.0319
  444MOL0     C59866  -0.015   7.044   7.480 -0.0795  0.3123 -0.7041
  444MOL0     C59867  -0.004   6.954   7.363 -0.3035  0.8945  0.1187
  444MOL0     C59868   0.086   7.008   7.254  0.3253 -1.0145 -0.4165
  444MOL0     C59869   0.231   6.994   7.267  0.5446 -0.1802  1.4189
  444MOL0     C59870   0.348   6.989   7.287 -0.2947 -0.8567  0.6792
  444MOL0     C59871  -0.154   6.917   7.866 -0.1747  0.5277 -0.3209
  444MOL0     C59872  -0.166   6.867   7.997  0.6556 -0.2019 -1.1874
  444MOL0     H59873  -0.209   6.489   8.281 -0.7385  2.0514 -1.0770
  444MOL0     H59874  -0.306   6.371   8.475  2.9800 -0.4742 -0.7754
  444MOL0     H59875  -0.440   6.281   8.684  0.5280 -1.9518  2.1326
  444MOL0     H59876  -0.265   6.319   8.721  0.0021 -1.2547  0.5999
  444MOL0     H59877  -0.328   6.378   8.940  0.9993 -1.1007  0.4450
  444MOL0     H59878  -0.508   6.381   8.890 -1.1989 -0.0356 -0.5051
  444MOL0     H59879  -0.497   6.148   8.858 -1.0908  0.0790  1.8299
  444MOL0     H59880  -0.317   6.143   8.907  0.8308 -0.5218  2.6257
  444MOL0     H59881  -0.391   6.223   9.136 -0.9275  0.8293 -0.0984
  444MOL0     H59882  -0.559   6.205   9.073 -0.4231  0.0772 -2.3606
  444MOL0     H59883  -0.505   6.008   9.182  2.5215 -2.2681  0.6981
  444MOL0     H59884  -0.518   5.962   9.018 -0.4646 -0.7393 -0.0660
  444MOL0     H59885  -0.277   5.932   8.999  0.0952 -1.2565  0.9746
  444MOL0     H59886  -0.250   5.997   9.166  1.5998 -1.8714  0.7851
  444MOL0     H59887  -0.369   5.834   9.262  1.2862  0.8243  0.4855
  444MOL0     H59888  -0.427   5.762   9.103 -1.9688 -1.2209  2.1708
  444MOL0     H59889  -0.180   5.714   9.063 -1.9438  0.4606 -1.2286
  444MOL0     H59890  -0.256   5.624   9.176  2.4858  0.0854 -2.7249
  444MOL0     H59891  -0.197   5.696   9.449 -2.6242 -1.7905 -3.0859
  444MOL0     H59892   0.172   5.744   9.581  0.6029 -1.4718  1.3318
  444MOL0     H59893   0.062   5.863   9.632  1.9241 -1.9544  3.8088
  444MOL0     H59894  -0.050   5.580   9.620  0.7389 -2.5521  4.1044
  444MOL0     H59895  -0.098   5.704   9.724 -3.5841 -3.0628 -2.3896
  444MOL0     H59896   0.117   5.689   9.857 -0.1318 -2.1448  1.5499
  444MOL0     H59897   0.172   5.564   9.749  1.1387 -0.0127  0.2081
  444MOL0     H59898  -0.049   5.431   9.805 -0.1113 -0.5970  0.9010
  444MOL0     H59899  -0.080   5.561   9.927  0.6561  0.7269  0.7411
  444MOL0     H59900  -0.176   5.388   9.981 -1.4429 -1.5440  0.2859
  444MOL0     H59901  -0.353   5.198   9.987  1.1133  0.8439 -0.8424
  444MOL0     H59902  -0.330   5.061  10.099  1.3975  0.4766 -1.4188
  444MOL0     H59903  -0.340   5.223  10.169 -0.9464  1.7965 -0.8450
  444MOL0     H59904  -0.120   4.600  10.119 -0.4862  0.7804 -0.2039
  444MOL0     H59905  -0.174   4.419  10.278  0.3777 -1.3380  1.3572
  444MOL0     H59906  -0.094   4.276  10.578  3.1183  0.9626 -3.5884
  444MOL0     H59907   0.023   4.404  10.585  0.8262 -0.4783  1.0250
  444MOL0     H59908  -0.092   4.513  10.786  0.4710  0.2831 -1.3531
  444MOL0     H59909  -0.195   4.375  10.790 -0.3307  1.3371  0.9402
  444MOL0     H59910   0.117   4.385  10.780 -1.6386  2.6720 -1.0469
  444MOL0     H59911   0.011   4.238  10.799 -2.4395  0.7109 -1.0402
  444MOL0     H59912   0.037   4.452  11.007  0.1227  1.3088 -1.3015
  444MOL0     H59913  -0.059   4.294  11.005  1.9501 -4.0031 -1.4628
  444MOL0     H59914   0.229   4.327  10.965 -0.7526 -0.3514 -2.6035
  444MOL0     H59915   0.153   4.183  10.968 -1.5088 -2.5386  4.1675
  444MOL0     H59916   0.215   4.180  11.206  1.1069  0.4227 -1.5461
  444MOL0     H59917   0.245   4.350  11.195 -1.8696  2.8045 -4.1147
  444MOL0     H59918  -0.033   4.207  11.247 -0.9197  1.2339 -0.9443
  444MOL0     H59919  -0.017   4.379  11.225 -0.5976  0.1929 -0.1899
  444MOL0     H59920   0.159   4.362  11.433  0.7487 -0.1776  2.2812
  444MOL0     H59921   0.086   4.214  11.472 -4.0016  0.5943  3.1458
  444MOL0     H59922  -0.120   4.688  10.614  1.1737  0.1285 -0.3706
  444MOL0     H59923  -0.076   4.874  10.462 -0.7212  0.1967  2.1625
  444MOL0     H59924   0.121   5.029  10.147 -3.1540 -1.0756  1.9539
  444MOL0     H59925   0.214   5.213  10.016  0.2524 -0.6893 -0.0640
  444MOL0     H59926  -0.322   6.736   8.695 -0.1455  1.9006 -0.7341
  444MOL0     H59927  -0.246   6.865   8.501 -2.9362 -0.2251  3.5285
  444MOL0     H59928   0.089   6.646   7.997  1.1897  1.0319  1.2275
  444MOL0     H59929   0.098   6.720   7.765  0.3344 -0.7101  0.9588
  444MOL0     H59930  -0.200   6.948   7.547 -0.0443 -1.2488  2.8238
  444MOL0     H59931  -0.131   7.064   7.661 -1.2048 -0.8524  1.3739
  444MOL0     H59932   0.087   7.065   7.514 -0.5236  1.1790  0.1654
  444MOL0     H59933  -0.058   7.143   7.463 -1.2187 -0.2687 -1.2910
  444MOL0     H59934  -0.108   6.932   7.338  0.1811 -4.0067  1.4213
  444MOL0     H59935   0.043   6.858   7.386  0.0675  0.7791 -1.0144
  444MOL0     H59936   0.058   7.114   7.248  0.0431 -1.1099 -0.7782
  444MOL0     H59937   0.054   6.957   7.163 -1.2028 -1.7183  0.4893
  444MOL0     H59938   0.452   7.006   7.310  0.2756 -1.0183 -1.5355
  444MOL0     H59939  -0.224   6.995   7.839 -1.4264 -0.6674 -0.6003
  444MOL0     H59940  -0.235   6.907   8.071  1.1643 -3.0648  1.0206
  445MOL0     O59941   8.242   1.930  10.238  1.0753  0.4525 -0.7674
  445MOL0     C59942   8.148   2.001  10.202 -0.7758 -0.7755  0.6298
  445MOL0     O59943   8.144   2.066  10.087 -0.5043  0.8600  0.6229
  445MOL0     C59944   8.239   2.051   9.989 -1.2025  0.8855 -0.1375
  445MOL0     C59945   8.277   2.158   9.912 -0.3237  0.0942 -0.6773
  445MOL0     C59946   8.383   2.137   9.824  0.3523  0.0064  0.3980
  445MOL0     C59947   8.418   2.012   9.785  0.0988 -0.3590  0.9632
  445MOL0     O59948   8.508   2.002   9.680  0.3626  0.0024  0.0960
  445MOL0     C59949   8.589   1.891   9.672 -0.0263  0.7874  0.3429
  445MOL0     C59950   8.668   1.886   9.543  0.2741 -0.2555 -0.3566
  445MOL0     C59951   8.583   1.846   9.424  0.0041  0.1877 -0.1808
  445MOL0     C59952   8.660   1.878   9.291 -0.5333  0.4434 -0.5517
  445MOL0     C59953   8.576   1.846   9.175 -0.2580 -0.3830 -0.6682
  445MOL0     C59954   8.619   1.896   9.049  0.5702 -0.3410  0.2295
  445MOL0     C59955   8.757   1.827   9.004  0.6042  0.7337 -0.4361
  445MOL0     C59956   8.830   1.898   8.894 -0.5628 -0.0759  0.4441
  445MOL0     N59957   8.883   2.032   8.927 -0.3677  0.7614 -0.2457
  445MOL0     C59958   8.972   2.052   9.030  0.0596 -0.5239 -0.0449
  445MOL0     C59959   8.969   2.186   9.065  0.0539  0.0417  0.7448
  445MOL0     C59960   9.069   2.250   9.162 -0.1807 -0.3681  0.5746
  445MOL0     C59961   9.220   2.236   9.116 -0.0922 -0.5172 -0.3979
  445MOL0     C59962   9.259   2.293   8.977 -0.6144 -0.7791 -0.5785
  445MOL0     C59963   9.212   2.442   8.963  0.2752  0.0687  0.5824
  445MOL0     O59964   9.244   2.533   9.071 -0.1955  0.4893  0.0300
  445MOL0     C59965   9.320   2.643   9.039 -0.2394 -0.2083 -0.1466
  445MOL0     C59966   9.440   2.627   8.978  0.0369  0.5261 -0.2178
  445MOL0     C59967   9.530   2.727   8.948 -0.3055 -0.3220 -0.5936
  445MOL0     C59968   9.661   2.688   8.894 -1.8505 -0.3261  0.3448
  445MOL0     C59969   9.488   2.860   8.983 -0.8371  0.7819  0.0460
  445MOL0     C59970   9.578   2.977   8.962  0.3532  0.5286  0.2817
  445MOL0     O59971   9.524   3.096   9.025  0.0769  0.1815  0.2946
  445MOL0     C59972   9.560   3.210   8.971 -0.9957 -0.7946  1.0096
  445MOL0     C59973   9.651   3.297   9.031  0.0048 -0.5479 -1.4800
  445MOL0     C59974   9.678   3.427   8.983  0.7398 -0.8642  1.3268
  445MOL0     C59975   9.604   3.465   8.867 -0.2801  0.1731  0.7297
  445MOL0     O59976   9.625   3.595   8.827  0.8262  0.8851  0.6738
  445MOL0     C59977   9.529   3.658   8.739  0.6378  0.1980 -0.1110
  445MOL0     C59978   9.575   3.807   8.761  0.4664  0.0624  0.8391
  445MOL0     C59979   9.507   3.914   8.676 -0.1151 -0.6406 -0.3768
  445MOL0     C59980   9.535   4.045   8.730  0.8162 -0.4934  0.2048
  445MOL0     C59981   9.426   4.142   8.670 -0.8221 -0.1190  0.6364
  445MOL0     C59982   9.487   4.229   8.556  0.1505  0.7962  0.1924
  445MOL0     C59983   9.374   4.319   8.505 -0.6701  0.9913  0.1026
  445MOL0     C59984   9.417   4.398   8.382  0.6077  0.2046 -0.0037
  445MOL0    Cl59985   9.546   4.513   8.421 -0.1509 -0.4665 -0.0253
  445MOL0     C59986   9.521   3.370   8.797 -0.0086 -0.7018  0.1651
  445MOL0     C59987   9.492   3.250   8.852  0.3780  0.1382  0.3893
  445MOL0     O59988   9.667   2.971   8.884 -0.0299  0.9542 -0.3919
  445MOL0     C59989   9.366   2.883   9.043 -0.5769 -0.7525 -0.5337
  445MOL0     C59990   9.286   2.768   9.075  0.3432  0.7143 -0.3165
  445MOL0     N59991   8.860   2.245   8.985 -1.1809 -0.1273 -0.9919
  445MOL0     N59992   8.814   2.152   8.907 -0.3767 -0.1886 -0.0501
  445MOL0     C59993   8.353   1.895   9.850 -0.1970  0.8236 -0.0372
  445MOL0     C59994   8.274   1.918   9.952 -0.3497 -1.8931 -0.5132
  445MOL0     C59995   8.028   2.018  10.293 -0.7667 -0.1277 -0.0644
  445MOL0     C59996   7.932   2.117  10.283 -0.7446  0.4683 -0.9562
  445MOL0     C59997   7.817   2.120  10.369 -1.0195 -0.2486  0.4337
  445MOL0     C59998   7.796   2.006  10.456 -0.2603  0.2147 -0.4129
  445MOL0     O59999   7.696   2.005  10.553 -1.2415  0.6958  0.1949
  445MOL0     C60000   7.709   2.098  10.657 -0.8180  0.5100  0.2546
  445MOL0     C60001   7.815   2.056  10.752  0.2959 -0.2236 -1.2655
  445MOL0     C60002   7.848   2.152  10.875 -0.6465 -0.3674 -0.1358
  445MOL0     C60003   7.738   2.206  10.957  0.4220 -0.1962 -0.3361
  445MOL0     C60004   7.659   2.306  10.885  0.1279 -1.6118  0.8652
  445MOL0     C60005   7.592   2.391  10.821 -0.4655  0.0771 -0.5622
  445MOL0     C60006   7.881   1.900  10.457  0.0716 -0.4353  0.5918
  445MOL0     C60007   7.995   1.907  10.377 -0.0287  0.3824  0.8869
  445MOL0     H60008   8.238   2.258   9.930 -2.6225 -0.1820 -3.4813
  445MOL0     H60009   8.415   2.227   9.773 -0.3778 -0.0731 -0.2177
  445MOL0     H60010   8.652   1.901   9.761 -1.8174  0.1101  1.7410
  445MOL0     H60011   8.540   1.793   9.682 -0.4338  1.2125  3.6819
  445MOL0     H60012   8.715   1.983   9.522 -2.0459  1.4019  1.5793
  445MOL0     H60013   8.748   1.811   9.552 -0.4018 -1.0995 -1.1680
  445MOL0     H60014   8.569   1.739   9.439  1.5694  0.1337  1.1688
  445MOL0     H60015   8.488   1.899   9.411 -2.0829 -3.4442 -1.0082
  445MOL0     H60016   8.691   1.983   9.291 -0.3386  0.4116 -2.1068
  445MOL0     H60017   8.746   1.811   9.295 -0.3585  0.6780 -0.3845
  445MOL0     H60018   8.564   1.738   9.173  0.5901 -0.6325  2.3720
  445MOL0     H60019   8.483   1.898   9.198  0.7054  1.1693 -0.0901
  445MOL0     H60020   8.537   1.882   8.979  0.2015 -2.0421  0.9362
  445MOL0     H60021   8.638   2.003   9.060  2.3195 -0.5109 -0.7767
  445MOL0     H60022   8.829   1.827   9.085  1.7007 -2.4452 -1.2884
  445MOL0     H60023   8.740   1.724   8.972  0.1365  0.7274 -0.1727
  445MOL0     H60024   8.770   1.909   8.803 -0.3806  2.1718  0.5593
  445MOL0     H60025   8.926   1.847   8.876 -0.7134  0.2458 -1.5311
  445MOL0     H60026   9.037   1.981   9.080  0.2036 -1.2772 -1.2653
  445MOL0     H60027   9.045   2.354   9.184  1.3387  0.1674 -0.1515
  445MOL0     H60028   9.055   2.193   9.254 -1.8081  0.5659  0.9396
  445MOL0     H60029   9.262   2.135   9.119  1.4795  0.0218  4.0163
  445MOL0     H60030   9.279   2.292   9.189 -0.5241  2.5804 -2.2808
  445MOL0     H60031   9.224   2.226   8.898  0.4517 -0.8782 -0.9732
  445MOL0     H60032   9.368   2.291   8.973 -0.6373 -1.9842 -0.8550
  445MOL0     H60033   9.104   2.455   8.962  0.4469  1.8299  0.4666
  445MOL0     H60034   9.251   2.475   8.866 -0.0799  0.8326  0.6899
  445MOL0     H60035   9.488   2.531   8.962  1.5325  1.1337  0.4368
  445MOL0     H60036   9.659   2.700   8.785  0.1241 -3.0372 -0.1033
  445MOL0     H60037   9.739   2.755   8.931 -0.5854 -1.4827 -0.1311
  445MOL0     H60038   9.687   2.584   8.917  1.8264  0.8560  2.4145
  445MOL0     H60039   9.683   3.255   9.126 -2.3841  0.2689 -0.2254
  445MOL0     H60040   9.738   3.506   9.026 -0.5685  0.9782 -0.0745
  445MOL0     H60041   9.550   3.641   8.633  0.6254  1.0315 -0.2530
  445MOL0     H60042   9.428   3.634   8.773 -0.0808  2.4343 -0.5271
  445MOL0     H60043   9.558   3.839   8.864  1.6849 -0.4849  1.2262
  445MOL0     H60044   9.677   3.813   8.724  0.0881  4.2312 -0.0061
  445MOL0     H60045   9.399   3.897   8.686 -0.7987  3.0311 -0.1540
  445MOL0     H60046   9.540   3.901   8.573 -0.3273 -2.5273 -0.2376
  445MOL0     H60047   9.518   4.060   8.837 -1.9426  2.9225 -0.5194
  445MOL0     H60048   9.634   4.080   8.699  0.7860 -0.1841  0.4569
  445MOL0     H60049   9.412   4.207   8.757  4.7005  0.7642  1.2633
  445MOL0     H60050   9.334   4.087   8.653  0.1150 -1.0642 -1.8066
  445MOL0     H60051   9.569   4.289   8.597  1.7044 -0.5659 -0.7527
  445MOL0     H60052   9.533   4.164   8.480  1.0951  1.2596  0.3574
  445MOL0     H60053   9.339   4.386   8.585 -0.2256  0.1849  0.9848
  445MOL0     H60054   9.288   4.258   8.474 -0.7134  0.3890  1.3378
  445MOL0     H60055   9.335   4.460   8.343  0.8673  0.5260 -0.0451
  445MOL0     H60056   9.449   4.324   8.308  1.0785 -0.1804  0.5731
  445MOL0     H60057   9.466   3.387   8.705 -0.1662 -0.0246  0.3792
  445MOL0     H60058   9.423   3.181   8.805  4.0779 -2.6802 -1.4222
  445MOL0     H60059   9.328   2.978   9.081  2.5758  1.6180 -2.8050
  445MOL0     H60060   9.205   2.788   9.144  0.1234 -0.8968 -0.0853
  445MOL0     H60061   8.367   1.793   9.816  1.4877  1.2867 -0.8469
  445MOL0     H60062   8.234   1.833  10.007  0.8733 -0.7112  2.4457
  445MOL0     H60063   7.937   2.205  10.219 -1.9308  1.2290 -0.0355
  445MOL0     H60064   7.743   2.198  10.361 -0.3260  0.2402 -2.6180
  445MOL0     H60065   7.727   2.201  10.626  2.1192 -0.1050 -0.3771
  445MOL0     H60066   7.609   2.091  10.701 -1.7605 -1.0922 -1.9596
  445MOL0     H60067   7.911   2.041  10.701  1.5665  0.6506  0.7426
  445MOL0     H60068   7.784   1.959  10.792 -3.0081  1.2712  0.1772
  445MOL0     H60069   7.890   2.238  10.822 -0.0052 -0.8894 -0.4895
  445MOL0     H60070   7.920   2.101  10.940 -0.5278 -0.1759 -0.1169
  445MOL0     H60071   7.764   2.250  11.054 -1.5584 -1.6153  0.9214
  445MOL0     H60072   7.675   2.124  10.993 -2.5994  1.3770 -1.6641
  445MOL0     H60073   7.534   2.468  10.774 -0.4693  2.5301  3.0229
  445MOL0     H60074   7.876   1.815  10.524  0.9428 -0.7837  0.2384
  445MOL0     H60075   8.068   1.827  10.382 -1.0735 -0.5377  2.3628
  446MOL0     O60076   2.119   2.968   8.313  0.0030  0.1534 -0.1861
  446MOL0     C60077   2.063   3.048   8.388 -0.0626 -1.3973  1.0941
  446MOL0     O60078   2.010   3.014   8.507  0.5891 -0.4219  0.2695
  446MOL0     C60079   1.947   2.890   8.525  0.5671  0.6752 -0.7937
  446MOL0     C60080   1.973   2.824   8.645  0.6620  0.0672  0.0448
  446MOL0     C60081   1.901   2.708   8.675 -0.2989 -0.7347  0.5770
  446MOL0     C60082   1.803   2.658   8.583  0.4822  0.7048 -0.2115
  446MOL0     O60083   1.763   2.531   8.609  0.2469 -0.3144  0.1075
  446MOL0     C60084   1.734   2.445   8.495 -0.2773  0.4558  0.1027
  446MOL0     C60085   1.727   2.294   8.537  0.1449  0.4190 -0.6819
  446MOL0     C60086   1.607   2.276   8.640 -0.2856  0.6820  0.5055
  446MOL0     C60087   1.572   2.132   8.665 -1.3760 -0.5190 -0.1969
  446MOL0     C60088   1.469   2.107   8.776  0.3304 -0.0075 -0.1797
  446MOL0     C60089   1.332   2.079   8.715 -0.6780 -0.8031 -0.4175
  446MOL0     C60090   1.217   2.052   8.825 -0.5792 -0.3777 -0.0062
  446MOL0     C60091   1.079   2.046   8.765 -0.0468  0.5028 -0.0810
  446MOL0     N60092   0.985   2.006   8.868  0.4575  0.1883 -0.0689
  446MOL0     C60093   0.906   1.893   8.883 -0.4132 -0.2017  0.8109
  446MOL0     C60094   0.873   1.889   9.010  0.3918  0.5808  1.1236
  446MOL0     C60095   0.785   1.796   9.083  0.5078  1.1102 -0.1981
  446MOL0     C60096   0.845   1.658   9.116 -0.3028 -0.3946  0.0705
  446MOL0     C60097   0.935   1.676   9.235  0.2792 -1.4355  0.9447
  446MOL0     C60098   1.030   1.555   9.257 -0.3470 -1.1255 -0.0519
  446MOL0     O60099   0.936   1.450   9.281  0.7183  0.1174  0.7972
  446MOL0     C60100   0.912   1.413   9.413  0.0709  0.5931  0.5899
  446MOL0     C60101   0.823   1.303   9.439 -0.5350  0.4653 -0.6478
  446MOL0     C60102   0.787   1.265   9.574  0.0322  0.2784  0.1950
  446MOL0     C60103   0.689   1.144   9.591  0.2933 -0.6737  0.3692
  446MOL0     C60104   0.837   1.340   9.679 -1.5714 -1.2554  0.1747
  446MOL0     C60105   0.803   1.326   9.828  0.6326 -0.0723 -0.4944
  446MOL0     O60106   0.731   1.212   9.863 -0.0835  0.2564  0.5700
  446MOL0     C60107   0.746   1.171   9.991 -0.0339 -0.3241 -1.3441
  446MOL0     C60108   0.867   1.125  10.046  0.5140  0.0149  1.1174
  446MOL0     C60109   0.865   1.080  10.180 -0.0432 -0.7165  0.6146
  446MOL0     C60110   0.754   1.102  10.256  0.6101  0.7088  0.2048
  446MOL0     O60111   0.748   1.073  10.388  0.3089 -0.1808  0.5472
  446MOL0     C60112   0.866   1.017  10.450 -0.2105 -0.0822 -0.8082
  446MOL0     C60113   0.827   1.009  10.597 -1.0019 -0.4392  0.8085
  446MOL0     C60114   0.731   0.896  10.619  0.0468 -0.3860  0.6960
  446MOL0     C60115   0.798   0.777  10.684 -0.5340  0.1851 -0.5169
  446MOL0     C60116   0.698   0.662  10.705  0.1644 -0.3753 -0.4790
  446MOL0     C60117   0.762   0.520  10.743 -0.1730 -0.6647 -0.8939
  446MOL0     C60118   0.749   0.486  10.896  0.4465  0.1661 -0.8270
  446MOL0     C60119   0.819   0.360  10.937  0.3867 -0.0422 -0.5110
  446MOL0    Cl60120   0.756   0.198  10.879  0.4304 -0.0505  0.2160
  446MOL0     C60121   0.632   1.142  10.197  0.0892  0.6991  0.0255
  446MOL0     C60122   0.626   1.169  10.063  1.0595  0.5563 -0.1059
  446MOL0     O60123   0.836   1.413   9.909  0.1242 -0.5428  0.3712
  446MOL0     C60124   0.928   1.450   9.655  0.6492  0.0345  0.2811
  446MOL0     C60125   0.951   1.494   9.522  0.2815  0.1522  0.0100
  446MOL0     N60126   0.918   2.000   9.071 -0.3397 -0.0640 -0.2643
  446MOL0     N60127   0.971   2.078   8.987 -0.3572  0.6318 -0.3908
  446MOL0     C60128   1.764   2.731   8.471  0.2731 -0.0784 -0.1934
  446MOL0     C60129   1.835   2.854   8.445  0.7905  0.1203 -0.0145
  446MOL0     C60130   2.051   3.198   8.353 -0.2192 -1.2432  0.6557
  446MOL0     C60131   1.966   3.287   8.418  0.2661  0.6752 -0.3512
  446MOL0     C60132   1.962   3.424   8.386  0.0441 -0.1005  0.2215
  446MOL0     C60133   2.036   3.473   8.280 -0.4855 -0.4184 -0.0081
  446MOL0     O60134   2.009   3.610   8.259  0.4989  0.5974  0.1393
  446MOL0     C60135   2.111   3.685   8.197 -0.7994 -0.1432 -0.1916
  446MOL0     C60136   2.231   3.705   8.290 -0.0217 -0.4535  0.1429
  446MOL0     C60137   2.188   3.750   8.435  0.3578  0.4539  0.1020
  446MOL0     C60138   2.123   3.891   8.414 -0.2706  0.1431 -0.8474
  446MOL0     C60139   2.124   3.958   8.545 -0.9104 -0.4083  0.6940
  446MOL0     C60140   2.143   4.015   8.649  0.2315  0.5294  0.2619
  446MOL0     C60141   2.118   3.382   8.216 -0.9219 -0.1845 -0.4584
  446MOL0     C60142   2.126   3.246   8.247 -0.4802 -0.5111  0.0482
  446MOL0     H60143   2.056   2.861   8.704  0.3687  1.3073 -0.3047
  446MOL0     H60144   1.912   2.650   8.766  1.4763 -2.9999 -0.9787
  446MOL0     H60145   1.642   2.465   8.440 -0.3710  1.6664  0.6717
  446MOL0     H60146   1.818   2.463   8.427  0.5331 -1.1692  0.6054
  446MOL0     H60147   1.729   2.234   8.446  0.9349  0.8710 -0.9736
  446MOL0     H60148   1.823   2.265   8.581  0.0900  1.6900  0.3400
  446MOL0     H60149   1.629   2.327   8.734 -4.0039 -0.5171  2.2050
  446MOL0     H60150   1.518   2.317   8.592  0.8745  0.1651 -2.3263
  446MOL0     H60151   1.539   2.078   8.576  0.2522  0.6059 -1.5254
  446MOL0     H60152   1.667   2.093   8.704  1.4296  4.9007 -0.7332
  446MOL0     H60153   1.514   2.028   8.837  4.7985 -0.7498 -3.8857
  446MOL0     H60154   1.457   2.184   8.852  1.1850 -2.3043  2.4712
  446MOL0     H60155   1.308   2.173   8.664 -0.3544 -0.7274 -0.4304
  446MOL0     H60156   1.348   1.999   8.642  2.5809 -1.6154  1.0394
  446MOL0     H60157   1.230   1.956   8.876  2.1081  0.0171  0.2012
  446MOL0     H60158   1.230   2.137   8.893 -1.0723  1.5003 -2.1250
  446MOL0     H60159   1.079   1.977   8.680  0.4455  1.2002 -0.6583
  446MOL0     H60160   1.049   2.144   8.727  1.4607  1.3610  0.8460
  446MOL0     H60161   0.875   1.826   8.803  1.9452  0.3129 -0.6120
  446MOL0     H60162   0.736   1.840   9.170 -1.6448 -0.3876 -0.5974
  446MOL0     H60163   0.703   1.767   9.017  3.2345 -1.7412 -2.6632
  446MOL0     H60164   0.899   1.620   9.029 -2.6098 -3.9346 -0.0556
  446MOL0     H60165   0.770   1.585   9.150 -0.4851  0.3133  1.2583
  446MOL0     H60166   0.874   1.702   9.321 -0.1886 -2.6027  0.9792
  446MOL0     H60167   1.001   1.761   9.213  0.2253 -0.4707  4.0150
  446MOL0     H60168   1.104   1.583   9.333 -2.2519  0.7786  1.2223
  446MOL0     H60169   1.099   1.534   9.174  2.1581  1.4641  1.1979
  446MOL0     H60170   0.778   1.248   9.356 -1.5574 -0.2136  0.3223
  446MOL0     H60171   0.641   1.125   9.494  0.3691  1.3292 -0.1059
  446MOL0     H60172   0.756   1.062   9.619  3.1615  1.6518  0.8071
  446MOL0     H60173   0.604   1.158   9.658 -1.8018  1.6595 -2.5106
  446MOL0     H60174   0.956   1.109   9.986  0.4381 -0.2628  1.0761
  446MOL0     H60175   0.961   1.048  10.220 -1.2338 -4.2053  1.0391
  446MOL0     H60176   0.899   0.920  10.411  1.4432  0.0647  0.1430
  446MOL0     H60177   0.947   1.091  10.453  0.5302 -0.8087 -2.0303
  446MOL0     H60178   0.911   0.982  10.662 -1.0798 -1.1012  0.6411
  446MOL0     H60179   0.790   1.105  10.634  2.8131 -0.3195  5.4065
  446MOL0     H60180   0.700   0.862  10.519  1.9429  0.2127 -0.1442
  446MOL0     H60181   0.645   0.922  10.682 -0.3458 -1.0790  0.4635
  446MOL0     H60182   0.884   0.740  10.627 -0.4985 -2.3625  1.0570
  446MOL0     H60183   0.839   0.807  10.780 -0.7345 -3.1660  0.7476
  446MOL0     H60184   0.634   0.653  10.617  0.4174 -0.3372 -0.6690
  446MOL0     H60185   0.633   0.694  10.786  0.1684  0.3563 -0.7551
  446MOL0     H60186   0.698   0.446  10.693 -4.4774  0.8660  1.7183
  446MOL0     H60187   0.867   0.515  10.716  0.7578  0.8064  1.9868
  446MOL0     H60188   0.641   0.488  10.913  0.1422  5.6416 -1.3961
  446MOL0     H60189   0.800   0.568  10.948 -0.1064 -1.9958  3.5861
  446MOL0     H60190   0.816   0.337  11.044  3.0405  1.9986  0.1005
  446MOL0     H60191   0.926   0.367  10.918  0.9960 -0.7013  2.2021
  446MOL0     H60192   0.531   1.142  10.237  0.8402  0.5070  2.0509
  446MOL0     H60193   0.535   1.177  10.004  0.5585  1.3004  0.7354
  446MOL0     H60194   0.972   1.506   9.737 -0.7958 -1.2915  2.0555
  446MOL0     H60195   0.998   1.591   9.511 -1.4625  0.8433 -2.2498
  446MOL0     H60196   1.689   2.698   8.400 -0.4598 -1.8700  1.3177
  446MOL0     H60197   1.802   2.912   8.359 -1.6538 -0.5302  0.4106
  446MOL0     H60198   1.905   3.252   8.501 -0.0522  2.6490  0.2920
  446MOL0     H60199   1.896   3.491   8.439  0.8301  1.9674 -1.2993
  446MOL0     H60200   2.138   3.631   8.106  1.0250 -0.7254  0.6589
  446MOL0     H60201   2.061   3.773   8.155 -4.4373 -1.8473  0.1157
  446MOL0     H60202   2.290   3.788   8.249 -0.6109 -0.0367  0.1193
  446MOL0     H60203   2.283   3.609   8.282 -1.2968 -1.0320 -2.0907
  446MOL0     H60204   2.264   3.744   8.513 -0.1458  0.6843  0.6180
  446MOL0     H60205   2.108   3.681   8.465 -0.4610  0.5042 -1.8165
  446MOL0     H60206   2.026   3.878   8.365  0.6901 -2.3073 -2.2685
  446MOL0     H60207   2.186   3.957   8.353  2.5675 -2.3305 -0.8322
  446MOL0     H60208   2.151   4.040   8.753  0.0900 -3.6196  1.4723
  446MOL0     H60209   2.184   3.419   8.138  0.3351 -1.1664  0.1020
  446MOL0     H60210   2.198   3.185   8.195 -2.9770 -2.8022 -0.9289
  447MOL0     O60211   3.187   3.021   7.454  0.3563  0.1977 -0.7039
  447MOL0     C60212   3.186   3.044   7.572  0.7690  0.4685 -0.4128
  447MOL0     O60213   3.073   3.074   7.646 -0.3614  0.3614  0.1426
  447MOL0     C60214   2.947   3.029   7.618 -0.7173  0.8138  0.1076
  447MOL0     C60215   2.852   3.092   7.688 -0.5208  0.7581  0.2622
  447MOL0     C60216   2.720   3.069   7.657  1.4982 -0.0460 -0.5063
  447MOL0     C60217   2.676   2.969   7.567  0.6670 -0.3861 -0.1176
  447MOL0     O60218   2.547   2.951   7.581  0.7776 -0.4879 -0.2047
  447MOL0     C60219   2.478   2.844   7.508 -0.0257 -1.2292 -0.4905
  447MOL0     C60220   2.347   2.840   7.557 -0.1515  0.7399  0.1346
  447MOL0     C60221   2.270   2.745   7.463 -0.1055  0.0221  0.2781
  447MOL0     C60222   2.116   2.747   7.493 -0.1949 -0.0022 -0.9820
  447MOL0     C60223   2.079   2.674   7.627 -0.3140 -0.1420 -0.7573
  447MOL0     C60224   1.929   2.632   7.625 -0.2918  0.5328  1.4092
  447MOL0     C60225   1.914   2.496   7.556 -0.9014  0.4839 -0.0091
  447MOL0     C60226   1.776   2.477   7.542 -0.6042 -0.4747  0.0232
  447MOL0     N60227   1.748   2.336   7.514 -0.8511  0.0712  0.3077
  447MOL0     C60228   1.655   2.286   7.422  0.1902 -0.5880  0.1730
  447MOL0     C60229   1.656   2.151   7.440 -0.0900 -0.7106  0.4448
  447MOL0     C60230   1.574   2.062   7.356 -0.0280 -0.5040 -0.6459
  447MOL0     C60231   1.475   1.973   7.432  0.1957  0.0488  0.7619
  447MOL0     C60232   1.548   1.858   7.509 -0.7032 -0.3949 -0.0720
  447MOL0     C60233   1.459   1.728   7.546 -0.2652  0.9827 -0.5903
  447MOL0     O60234   1.341   1.766   7.623  0.8155  0.4152 -0.0356
  447MOL0     C60235   1.281   1.670   7.699  0.0487  0.4687  0.5160
  447MOL0     C60236   1.315   1.539   7.686  0.1256 -0.2729  0.0492
  447MOL0     C60237   1.225   1.434   7.732 -0.3358 -0.3742  0.0366
  447MOL0     C60238   1.279   1.294   7.707 -0.4454  0.0335 -0.4226
  447MOL0     C60239   1.108   1.466   7.789 -1.4510  0.6299 -0.8754
  447MOL0     C60240   1.013   1.373   7.854  0.1022  1.3875 -0.2579
  447MOL0     O60241   0.886   1.409   7.884  0.2399 -1.4767 -0.3560
  447MOL0     C60242   0.809   1.319   7.959 -0.5393 -0.4711 -0.3011
  447MOL0     C60243   0.694   1.262   7.904  0.1997  0.9729  0.0923
  447MOL0     C60244   0.621   1.162   7.968  0.3158 -0.0749 -0.6037
  447MOL0     C60245   0.651   1.134   8.097 -0.6021 -0.0520  0.1648
  447MOL0     O60246   0.585   1.045   8.182 -0.5091  0.5732 -0.1475
  447MOL0     C60247   0.526   0.922   8.120 -0.5292 -0.7270  0.0425
  447MOL0     C60248   0.377   0.935   8.123 -0.2488  1.0247  0.1405
  447MOL0     C60249   0.314   0.790   8.138  0.0440 -0.3754  0.0381
  447MOL0     C60250   0.166   0.800   8.190  0.2403 -0.5756 -0.7763
  447MOL0     C60251   0.086   0.678   8.182  0.1259  0.4317 -0.5359
  447MOL0     C60252   0.071   0.626   8.033 -0.2217  0.0725 -0.0420
  447MOL0     C60253  -0.041   0.511   8.043  0.1831 -0.2069  0.7545
  447MOL0     C60254  -0.050   0.421   7.906 -1.1379  0.6340 -0.7306
  447MOL0    Cl60255  -0.106   0.257   7.920 -0.2232  0.4713 -0.0475
  447MOL0     C60256   0.756   1.196   8.160  0.1370 -0.9423 -0.0011
  447MOL0     C60257   0.840   1.285   8.090  0.1250 -0.0875 -0.3337
  447MOL0     O60258   1.053   1.256   7.858 -0.0576  0.2080  0.2168
  447MOL0     C60259   1.072   1.600   7.814 -1.1687 -0.4702  0.8161
  447MOL0     C60260   1.156   1.702   7.763 -1.0244 -0.1775 -0.5567
  447MOL0     N60261   1.740   2.123   7.545 -0.4231  1.2143  0.1873
  447MOL0     N60262   1.784   2.231   7.594  0.2052 -0.6286  0.5812
  447MOL0     C60263   2.775   2.904   7.496 -0.2384  1.3148  1.1574
  447MOL0     C60264   2.914   2.935   7.517 -0.1072  0.0981  0.3789
  447MOL0     C60265   3.312   3.043   7.635 -0.4885  0.2308  0.3435
  447MOL0     C60266   3.329   3.047   7.769  0.2117 -1.7028 -0.0998
  447MOL0     C60267   3.457   3.030   7.826  0.1051 -0.6179  0.0462
  447MOL0     C60268   3.568   3.024   7.740 -0.1698  1.2024 -0.1234
  447MOL0     O60269   3.687   2.996   7.804  0.3387  0.7265 -0.1428
  447MOL0     C60270   3.814   3.024   7.739 -0.4673  0.2653  0.0520
  447MOL0     C60271   3.926   3.015   7.835 -0.1334 -0.2546 -0.0553
  447MOL0     C60272   4.062   3.056   7.764  0.4817  0.1436 -0.0378
  447MOL0     C60273   4.161   3.101   7.876 -0.4351 -1.2432  0.6347
  447MOL0     C60274   4.287   3.151   7.817  0.2009  0.1081  0.0263
  447MOL0     C60275   4.405   3.177   7.790  0.2754 -0.7790 -0.5663
  447MOL0     C60276   3.552   3.034   7.600 -0.6937 -0.2000 -0.1510
  447MOL0     C60277   3.426   3.037   7.550  0.3919  0.1614  0.1489
  447MOL0     H60278   2.889   3.164   7.760  2.6944 -0.9849  0.5161
  447MOL0     H60279   2.650   3.118   7.723  2.0006 -1.1897  0.9322
  447MOL0     H60280   2.471   2.863   7.400  1.8927 -0.3794 -0.5128
  447MOL0     H60281   2.523   2.746   7.528  0.5594 -0.5930  1.4850
  447MOL0     H60282   2.359   2.795   7.656 -1.7826 -2.2659 -0.9221
  447MOL0     H60283   2.302   2.940   7.554  0.6093  1.2698  3.2256
  447MOL0     H60284   2.286   2.786   7.363 -0.3328 -1.3095 -0.3253
  447MOL0     H60285   2.309   2.643   7.456  0.3161  0.0990  1.3278
  447MOL0     H60286   2.086   2.851   7.505 -0.5623 -0.2727  0.6655
  447MOL0     H60287   2.054   2.705   7.413 -2.2948  0.9123  0.0897
  447MOL0     H60288   2.135   2.581   7.642 -1.1226 -1.4284 -4.4493
  447MOL0     H60289   2.100   2.733   7.717 -0.6623  0.0068 -0.7719
  447MOL0     H60290   1.884   2.619   7.724  0.0190  0.3905  1.5338
  447MOL0     H60291   1.856   2.706   7.589 -1.2484 -0.2147  1.7581
  447MOL0     H60292   1.957   2.499   7.455 -1.4267 -0.6416 -0.2753
  447MOL0     H60293   1.954   2.412   7.614 -0.2643 -1.0870 -2.5574
  447MOL0     H60294   1.727   2.540   7.467  0.4120 -1.9008 -1.9326
  447MOL0     H60295   1.723   2.497   7.636  1.1433  1.6773  0.6565
  447MOL0     H60296   1.593   2.351   7.361  2.7941  1.4660 -0.4372
  447MOL0     H60297   1.507   2.113   7.286 -0.1752 -2.9774 -2.4359
  447MOL0     H60298   1.633   2.000   7.288  1.3949  2.1555 -1.9781
  447MOL0     H60299   1.400   1.938   7.361  1.1353  1.7139 -1.1781
  447MOL0     H60300   1.437   2.041   7.509 -0.9880 -0.3247  0.5208
  447MOL0     H60301   1.602   1.900   7.594 -1.6298  1.8309 -0.5199
  447MOL0     H60302   1.618   1.822   7.433 -0.4220 -0.3967  0.1837
  447MOL0     H60303   1.526   1.659   7.598  0.1576  1.4345 -0.5408
  447MOL0     H60304   1.430   1.681   7.451 -1.3725  1.2422 -0.3990
  447MOL0     H60305   1.410   1.513   7.641  0.0755  1.2869 -1.0297
  447MOL0     H60306   1.290   1.235   7.798  2.9764 -0.3518 -0.9556
  447MOL0     H60307   1.230   1.234   7.629 -1.8119 -0.4473  0.7606
  447MOL0     H60308   1.384   1.295   7.675 -0.5856 -0.6287 -0.9161
  447MOL0     H60309   0.668   1.322   7.818 -1.1790  2.9077  1.7709
  447MOL0     H60310   0.534   1.123   7.917  1.3243 -1.3823 -1.3809
  447MOL0     H60311   0.569   0.903   8.021  0.1948  0.8020  0.0240
  447MOL0     H60312   0.573   0.842   8.178  0.3515  0.1088  0.5338
  447MOL0     H60313   0.337   1.005   8.197  0.4370  5.9839 -3.6865
  447MOL0     H60314   0.345   0.988   8.033 -1.0264  1.3524  0.5984
  447MOL0     H60315   0.368   0.723   8.205 -1.1526 -2.6304 -1.1466
  447MOL0     H60316   0.318   0.762   8.032 -1.0183  1.4962 -0.5572
  447MOL0     H60317   0.174   0.843   8.291  2.5442  2.8639 -2.2292
  447MOL0     H60318   0.114   0.865   8.119 -0.1363 -3.0135 -2.8788
  447MOL0     H60319  -0.011   0.691   8.230  0.3982  0.6652 -0.0447
  447MOL0     H60320   0.131   0.601   8.245 -4.7019 -0.8358  1.8440
  447MOL0     H60321   0.043   0.707   7.965 -0.7195  0.2931  0.4157
  447MOL0     H60322   0.161   0.578   7.994  2.4894  4.4720  0.1460
  447MOL0     H60323  -0.142   0.552   8.053 -0.5494 -0.6945 -3.1546
  447MOL0     H60324  -0.025   0.448   8.131 -1.2751  1.0426  1.9852
  447MOL0     H60325   0.052   0.399   7.873 -0.7157 -1.8778  1.8066
  447MOL0     H60326  -0.100   0.483   7.830  3.8106  1.4237 -3.7627
  447MOL0     H60327   0.775   1.166   8.263  4.1139  0.1665 -0.2579
  447MOL0     H60328   0.932   1.319   8.135 -0.2840 -0.8683  1.1628
  447MOL0     H60329   0.978   1.623   7.863 -3.7802 -4.3034 -1.7629
  447MOL0     H60330   1.128   1.803   7.790 -2.9838 -1.2031  1.5360
  447MOL0     H60331   2.744   2.816   7.440 -1.0498 -0.0622  3.6228
  447MOL0     H60332   2.997   2.879   7.476 -2.3573 -1.8801 -1.7558
  447MOL0     H60333   3.247   3.054   7.840  0.4827  1.5709  0.0462
  447MOL0     H60334   3.474   3.045   7.933 -0.5380  4.2488 -0.2776
  447MOL0     H60335   3.824   2.968   7.645  2.3696  2.4076 -1.0667
  447MOL0     H60336   3.811   3.118   7.683 -1.6901 -0.6547 -1.5319
  447MOL0     H60337   3.928   2.918   7.885 -0.1324 -0.7696 -1.0412
  447MOL0     H60338   3.904   3.097   7.904  0.4808  0.2876 -0.5012
  447MOL0     H60339   4.040   3.144   7.702 -1.2556  1.0966  1.7742
  447MOL0     H60340   4.099   2.980   7.695  0.7911 -1.7943  2.1262
  447MOL0     H60341   4.170   3.021   7.951  1.6319 -0.3506  1.4231
  447MOL0     H60342   4.118   3.190   7.925  0.1899  0.3038 -1.4913
  447MOL0     H60343   4.498   3.209   7.749  1.1778 -0.9222  1.2846
  447MOL0     H60344   3.639   3.036   7.534 -2.5683 -1.2344 -2.8233
  447MOL0     H60345   3.428   3.038   7.441 -3.4756  1.9616 -0.0496
  448MOL0     O60346   5.154   3.411   4.187 -0.7111  0.9363 -0.5241
  448MOL0     C60347   5.073   3.374   4.268  0.4654  0.2861  0.0568
  448MOL0     O60348   5.088   3.274   4.357  0.2514 -0.1091 -0.2369
  448MOL0     C60349   5.185   3.170   4.332  0.9620 -0.8526  0.6878
  448MOL0     C60350   5.211   3.115   4.203 -0.2076  0.8788  0.4746
  448MOL0     C60351   5.295   3.008   4.177  0.0443 -0.8279  0.2636
  448MOL0     C60352   5.362   2.955   4.285 -0.0972 -0.2434  0.0957
  448MOL0     O60353   5.468   2.862   4.282  0.7104 -0.8518 -0.1130
  448MOL0     C60354   5.433   2.730   4.231 -0.0548  0.7033 -0.3587
  448MOL0     C60355   5.557   2.650   4.229  0.5666 -0.0536  0.1384
  448MOL0     C60356   5.595   2.607   4.375 -0.7694  0.8453 -0.3444
  448MOL0     C60357   5.599   2.447   4.395  0.9305 -0.1355 -0.1660
  448MOL0     C60358   5.695   2.372   4.310 -0.5902 -0.0934 -0.4733
  448MOL0     C60359   5.837   2.428   4.332 -0.1446  0.0759  0.1214
  448MOL0     C60360   5.944   2.334   4.268 -0.2607  0.7221 -0.6240
  448MOL0     C60361   6.076   2.408   4.289  0.2841 -0.0207 -0.3119
  448MOL0     N60362   6.157   2.372   4.404 -0.3909  0.4321 -0.2795
  448MOL0     C60363   6.241   2.454   4.473  1.2007 -0.8066 -0.8426
  448MOL0     C60364   6.314   2.381   4.556 -0.2561  0.0444  0.3014
  448MOL0     C60365   6.404   2.438   4.661 -0.2492  0.6997  0.1319
  448MOL0     C60366   6.551   2.386   4.648  0.5263  0.3083 -0.3201
  448MOL0     C60367   6.646   2.477   4.559 -0.3264 -0.8045  0.1811
  448MOL0     C60368   6.788   2.416   4.570 -0.3212 -0.8095 -0.1313
  448MOL0     O60369   6.844   2.472   4.692 -0.3778  0.2903 -0.3444
  448MOL0     C60370   6.943   2.391   4.748  0.1089 -1.2080 -0.7649
  448MOL0     C60371   7.075   2.429   4.717  0.6234  0.1482  0.1926
  448MOL0     C60372   7.178   2.347   4.760 -0.4716  0.5044 -0.8371
  448MOL0     C60373   7.309   2.373   4.684  0.0180  0.9229  0.5537
  448MOL0     C60374   7.156   2.246   4.855  0.9046  0.0827 -0.8091
  448MOL0     C60375   7.270   2.184   4.928  1.0109 -0.5369 -0.3274
  448MOL0     O60376   7.240   2.065   4.991  0.8490  0.0492  0.0904
  448MOL0     C60377   7.344   2.002   5.050  0.0568 -0.1536  0.5932
  448MOL0     C60378   7.402   1.908   4.965 -0.7729 -0.5755 -0.3035
  448MOL0     C60379   7.518   1.848   5.009 -0.4292  0.1343  0.0403
  448MOL0     C60380   7.580   1.879   5.139  0.2782  0.4656 -0.3244
  448MOL0     O60381   7.692   1.823   5.191 -0.5183  0.9604  0.2371
  448MOL0     C60382   7.781   1.757   5.101  0.2185  0.8361 -0.3077
  448MOL0     C60383   7.909   1.708   5.178  1.0301 -0.5778 -0.8529
  448MOL0     C60384   7.891   1.668   5.322 -1.0748 -0.0685  0.2217
  448MOL0     C60385   8.023   1.636   5.395 -0.2851  0.0809  0.3232
  448MOL0     C60386   8.014   1.561   5.528  0.2498 -1.1885  0.3973
  448MOL0     C60387   8.156   1.530   5.583  0.3119 -0.5655 -0.4817
  448MOL0     C60388   8.236   1.645   5.655  0.6405 -0.3889  0.2357
  448MOL0     C60389   8.390   1.628   5.688 -0.0031 -0.1527 -1.0036
  448MOL0    Cl60390   8.441   1.776   5.775 -0.2505  0.2264  0.0453
  448MOL0     C60391   7.522   1.982   5.212 -0.4784 -0.3763  0.3582
  448MOL0     C60392   7.397   2.036   5.173  0.5566  0.8918 -0.7581
  448MOL0     O60393   7.380   2.236   4.933 -0.5545 -0.4205  0.0062
  448MOL0     C60394   7.023   2.209   4.884  0.8211 -0.7181 -0.0277
  448MOL0     C60395   6.923   2.280   4.833 -0.4034 -0.7489  0.9331
  448MOL0     N60396   6.288   2.248   4.528  0.4101  0.0653  0.6166
  448MOL0     N60397   6.195   2.245   4.435 -0.5393  0.0937 -0.0452
  448MOL0     C60398   5.349   3.009   4.415  0.5538 -0.1516  0.1540
  448MOL0     C60399   5.256   3.117   4.436 -0.0057 -0.8779  0.2413
  448MOL0     C60400   4.949   3.459   4.253  0.2156  1.1107  0.7461
  448MOL0     C60401   4.874   3.483   4.363 -0.2317 -0.3461  0.4914
  448MOL0     C60402   4.747   3.557   4.349 -0.2453 -0.0931 -0.5848
  448MOL0     C60403   4.710   3.600   4.225 -0.0702 -0.6419 -0.4866
  448MOL0     O60404   4.600   3.683   4.202  0.2471 -0.1504 -0.6512
  448MOL0     C60405   4.503   3.729   4.302  0.9527  0.0401  0.0399
  448MOL0     C60406   4.528   3.878   4.331  0.1220 -0.0726  1.0127
  448MOL0     C60407   4.415   3.969   4.279  0.4815  1.0078 -0.4293
  448MOL0     C60408   4.283   3.958   4.356 -1.1121  0.1824 -0.7447
  448MOL0     C60409   4.175   4.020   4.276 -0.0863 -0.4182 -0.4560
  448MOL0     C60410   4.076   4.064   4.221 -0.1804  0.0924  1.1598
  448MOL0     C60411   4.783   3.567   4.115  0.0901 -0.8475  0.8432
  448MOL0     C60412   4.908   3.507   4.126  0.1295  0.1670  0.4058
  448MOL0     H60413   5.144   3.150   4.124  1.8805 -0.9364 -2.2982
  448MOL0     H60414   5.301   2.981   4.072  2.3045  0.9860 -0.1372
  448MOL0     H60415   5.352   2.690   4.293 -1.7167  2.0737 -1.5606
  448MOL0     H60416   5.385   2.732   4.133 -2.3193 -0.0689  0.6546
  448MOL0     H60417   5.545   2.564   4.163  2.8080  0.8125 -1.5203
  448MOL0     H60418   5.629   2.716   4.181 -2.6606  1.5762 -2.8553
  448MOL0     H60419   5.693   2.652   4.391 -1.0631  1.4791 -0.3108
  448MOL0     H60420   5.530   2.641   4.456 -4.1403 -1.6758 -1.7380
  448MOL0     H60421   5.622   2.421   4.498  0.6392 -1.8717 -0.4900
  448MOL0     H60422   5.503   2.407   4.360  0.7771  0.2908 -0.2302
  448MOL0     H60423   5.698   2.271   4.354  0.6118  1.6173  3.8677
  448MOL0     H60424   5.679   2.382   4.202  2.0563  1.3285 -0.8263
  448MOL0     H60425   5.837   2.523   4.279  2.1789  0.7612  1.2243
  448MOL0     H60426   5.854   2.444   4.439 -2.6882  1.0326  0.4629
  448MOL0     H60427   5.937   2.231   4.303 -0.0940 -0.0687 -2.7631
  448MOL0     H60428   5.929   2.317   4.161  1.9518  0.3646 -0.9227
  448MOL0     H60429   6.046   2.511   4.312 -3.2221 -1.2969  1.5618
  448MOL0     H60430   6.135   2.402   4.197  0.1303  0.0161 -0.4137
  448MOL0     H60431   6.237   2.562   4.467 -0.0223 -0.8014 -0.1482
  448MOL0     H60432   6.404   2.547   4.672  1.6592  0.9988 -2.0058
  448MOL0     H60433   6.360   2.389   4.748  0.6898 -2.4582 -1.0358
  448MOL0     H60434   6.547   2.284   4.609  0.3204  1.4349 -3.5866
  448MOL0     H60435   6.581   2.382   4.753  0.3385 -5.7333 -0.1459
  448MOL0     H60436   6.650   2.584   4.581  3.3732 -0.7706 -0.0730
  448MOL0     H60437   6.609   2.477   4.456 -1.1771 -1.1252  0.4777
  448MOL0     H60438   6.846   2.437   4.480  0.6224  0.7026  0.7778
  448MOL0     H60439   6.786   2.307   4.578 -0.9299 -1.1272 -3.3892
  448MOL0     H60440   7.101   2.512   4.652  0.8009  0.2660  0.4151
  448MOL0     H60441   7.382   2.416   4.754 -1.6587 -0.3826  3.2914
  448MOL0     H60442   7.345   2.275   4.651 -0.3806  0.9624 -0.0182
  448MOL0     H60443   7.302   2.429   4.591  1.5193  0.4816  0.1387
  448MOL0     H60444   7.358   1.879   4.870  1.9158 -0.3121 -1.7243
  448MOL0     H60445   7.542   1.769   4.939 -1.0224  0.3870 -0.4578
  448MOL0     H60446   7.720   1.668   5.083  0.4757  0.4330  0.7059
  448MOL0     H60447   7.812   1.798   5.005 -1.4206  0.3232 -1.0939
  448MOL0     H60448   7.951   1.620   5.127 -2.8861 -2.4231 -1.2887
  448MOL0     H60449   7.976   1.794   5.178 -0.2937  0.8912  4.8870
  448MOL0     H60450   7.819   1.586   5.329  0.8629 -1.7586  1.8561
  448MOL0     H60451   7.854   1.762   5.364  0.1398  0.6897 -0.3679
  448MOL0     H60452   8.074   1.577   5.319  0.3869  0.0768  0.7701
  448MOL0     H60453   8.079   1.729   5.412 -0.7550  0.7922 -1.6862
  448MOL0     H60454   7.968   1.462   5.519 -1.3646 -0.4185 -0.3857
  448MOL0     H60455   7.977   1.628   5.606  1.2020 -2.6867  2.2100
  448MOL0     H60456   8.156   1.446   5.653  0.3336 -2.3879 -2.5832
  448MOL0     H60457   8.215   1.498   5.497  4.1718 -0.5292  1.9121
  448MOL0     H60458   8.172   1.681   5.736  3.2946  1.6746  1.5737
  448MOL0     H60459   8.235   1.725   5.581  0.6667 -1.2306 -0.6943
  448MOL0     H60460   8.450   1.615   5.597  3.1670 -2.2126  1.1854
  448MOL0     H60461   8.407   1.536   5.744 -1.1329 -0.2666 -0.8269
  448MOL0     H60462   7.575   2.020   5.299 -2.2900 -2.5382  2.5576
  448MOL0     H60463   7.350   2.122   5.220 -4.4329 -0.5516 -2.4874
  448MOL0     H60464   7.001   2.127   4.952 -0.8522  0.1101  0.4667
  448MOL0     H60465   6.818   2.260   4.853 -0.8509 -0.2846 -0.7841
  448MOL0     H60466   5.415   2.976   4.495  1.3847 -0.1197 -0.5070
  448MOL0     H60467   5.241   3.160   4.534  0.7996  1.6861 -0.6830
  448MOL0     H60468   4.899   3.448   4.463 -0.7266  2.8010  1.8158
  448MOL0     H60469   4.698   3.598   4.437  1.6525  2.4308 -0.5984
  448MOL0     H60470   4.400   3.718   4.266  1.5962 -2.5579 -1.2131
  448MOL0     H60471   4.502   3.677   4.398 -0.5902  1.6129  0.9218
  448MOL0     H60472   4.626   3.903   4.291  0.0588 -0.1946  0.7717
  448MOL0     H60473   4.530   3.894   4.439 -1.4973  0.1245  1.0414
  448MOL0     H60474   4.401   3.943   4.173  1.1669  2.2414 -0.8505
  448MOL0     H60475   4.447   4.072   4.299 -0.7979  1.5878 -1.2517
  448MOL0     H60476   4.316   4.018   4.442  3.9978  0.5363 -2.5646
  448MOL0     H60477   4.269   3.859   4.399  3.0515 -1.4081 -2.4799
  448MOL0     H60478   3.993   4.102   4.165 -1.7882  0.7169  3.8025
  448MOL0     H60479   4.770   3.602   4.013 -2.1319 -1.5620  0.8260
  448MOL0     H60480   4.968   3.481   4.040  0.0230 -0.2055  0.4429
  449MOL0     O60481   6.794  10.826  10.305  0.1650  0.0175 -0.3443
  449MOL0     C60482   6.912  10.831  10.324  0.0435 -1.3614 -0.1813
  449MOL0     O60483   6.971  10.843  10.443 -0.0711  0.2878 -0.2240
  449MOL0     C60484   6.906  10.883  10.558  0.3630 -0.8274 -0.0349
  449MOL0     C60485   6.942  10.828  10.684 -0.2116  0.3441  0.3281
  449MOL0     C60486   6.886  10.876  10.806  0.1990  1.1230  0.9995
  449MOL0     C60487   6.777  10.964  10.803  0.1159 -0.2037 -0.0340
  449MOL0     O60488   6.736  11.005  10.925 -0.4229  0.0608 -0.8935
  449MOL0     C60489   6.641  11.114  10.930  0.2279  0.2954  0.1743
  449MOL0     C60490   6.622  11.137  11.079 -0.1091 -0.0079  0.3692
  449MOL0     C60491   6.576  11.016  11.155 -0.3862  0.5914  0.3667
  449MOL0     C60492   6.436  10.967  11.110 -0.2582 -0.6310 -0.2950
  449MOL0     C60493   6.341  10.918  11.222  0.8350  0.8884 -0.6125
  449MOL0     C60494   6.386  10.808  11.311  0.2947 -0.1420 -0.6756
  449MOL0     C60495   6.295  10.742  11.396  1.1432  0.2199 -0.4356
  449MOL0     C60496   6.174  10.675  11.317 -0.0643 -0.2978  0.1702
  449MOL0     N60497   6.064  10.651  11.420  0.0558 -0.7652 -0.2911
  449MOL0     C60498   6.044  10.546  11.507 -0.0696  0.6916  0.5439
  449MOL0     C60499   5.926  10.571  11.584  1.1854  0.0025  0.6148
  449MOL0     C60500   5.861  10.477  11.679  0.2042  0.1544 -0.7551
  449MOL0     C60501   5.755  10.557  11.763  1.2890  0.5672  0.3874
  449MOL0     C60502   5.689  10.477  11.875 -0.7219  0.3499  0.2014
  449MOL0     C60503   5.778  10.439  11.985 -0.3835  0.7938 -0.7932
  449MOL0     O60504   5.708  10.350  12.076  0.2100 -0.0731 -0.1137
  449MOL0     C60505   5.692  10.380  12.203  0.2023  0.4052  0.5551
  449MOL0     C60506   5.626  10.491  12.252  0.2773 -0.5402 -0.4201
  449MOL0     C60507   5.617  10.534  12.382 -0.1675  0.7159 -0.3352
  449MOL0     C60508   5.554  10.671  12.408 -0.3720 -0.1018 -0.2074
  449MOL0     C60509   5.656  10.431  12.479 -0.0948 -0.3943  0.0973
  449MOL0     C60510   5.646  10.450  12.627  0.3623 -0.6983 -0.0797
  449MOL0     O60511   5.723  10.382  12.704  0.4706  0.7254  0.0750
  449MOL0     C60512   5.731  10.398  12.836 -0.0147  0.4363  0.1691
  449MOL0     C60513   5.720  10.287  12.918  0.4510  0.2946  0.5795
  449MOL0     C60514   5.760  10.289  13.052  0.1798  0.3697  0.2638
  449MOL0     C60515   5.797  10.416  13.112 -0.4105  0.2753  0.1818
  449MOL0     O60516   5.827  10.443  13.243 -0.4615 -0.0525  0.4437
  449MOL0     C60517   5.890  10.330  13.305  0.9840  0.3200  0.5302
  449MOL0     C60518   5.947  10.391  13.431 -0.5044  0.5778  0.9661
  449MOL0     C60519   5.996  10.269  13.517  0.5289 -0.1735  0.4144
  449MOL0     C60520   6.033  10.320  13.653 -0.6987  0.7793 -1.0202
  449MOL0     C60521   6.122  10.216  13.715 -0.4959  0.0808 -0.0224
  449MOL0     C60522   6.059  10.093  13.786  0.2548 -0.2618  0.1353
  449MOL0     C60523   6.169  10.015  13.868  0.0751 -0.2544  0.2133
  449MOL0     C60524   6.094   9.901  13.951 -0.1515  1.2528  0.3632
  449MOL0    Cl60525   6.224   9.805  14.039  0.3436 -0.1134  0.0757
  449MOL0     C60526   5.793  10.527  13.031 -0.3965 -0.2358  0.0117
  449MOL0     C60527   5.773  10.516  12.889  0.2584 -0.6903  0.2893
  449MOL0     O60528   5.576  10.539  12.668 -0.3573  0.4272  0.4139
  449MOL0     C60529   5.726  10.313  12.434 -0.6384 -0.0344 -0.1621
  449MOL0     C60530   5.742  10.293  12.295 -0.0708  0.2844 -0.4979
  449MOL0     N60531   5.890  10.702  11.558 -0.4772  0.0812 -0.0423
  449MOL0     N60532   5.973  10.748  11.459 -0.1901  0.3789  0.1809
  449MOL0     C60533   6.725  10.999  10.678 -0.1183 -1.1884 -0.4497
  449MOL0     C60534   6.792  10.967  10.560  0.1379  0.5236 -0.2926
  449MOL0     C60535   7.011  10.823  10.209 -1.0865 -0.0660  0.0631
  449MOL0     C60536   6.971  10.870  10.083  0.5855  0.9957  0.5267
  449MOL0     C60537   7.054  10.860   9.978  0.0975  1.1499  0.1881
  449MOL0     C60538   7.188  10.816   9.982 -0.1360 -0.7260  0.3463
  449MOL0     O60539   7.279  10.812   9.882  0.1736 -0.2603 -0.3309
  449MOL0     C60540   7.234  10.804   9.749 -0.1566 -0.3711 -0.2543
  449MOL0     C60541   7.337  10.758   9.667 -0.5895  0.8480  0.0626
  449MOL0     C60542   7.363  10.606   9.701 -0.0300  0.1304  0.1231
  449MOL0     C60543   7.473  10.545   9.603  0.3406  0.4779 -0.9130
  449MOL0     C60544   7.492  10.405   9.638  0.3921  0.4131 -0.2120
  449MOL0     C60545   7.517  10.286   9.655  0.1285  0.0678 -0.2911
  449MOL0     C60546   7.232  10.764  10.104  0.3413 -0.0635 -1.0718
  449MOL0     C60547   7.146  10.773  10.215 -0.0605 -0.3280 -0.1295
  449MOL0     H60548   7.014  10.749  10.695  0.6636  1.3843  2.5455
  449MOL0     H60549   6.917  10.828  10.899  0.9377  0.4626  0.4250
  449MOL0     H60550   6.680  11.195  10.867  0.3205 -1.1842 -1.7847
  449MOL0     H60551   6.549  11.073  10.888  0.7220  1.3883 -2.1408
  449MOL0     H60552   6.721  11.170  11.112  0.7581  3.5454 -4.6153
  449MOL0     H60553   6.554  11.217  11.113  0.4989  0.2708  0.9546
  449MOL0     H60554   6.639  10.929  11.134 -2.6320 -0.7288 -1.5530
  449MOL0     H60555   6.563  11.054  11.256 -3.5189  1.8551 -0.3935
  449MOL0     H60556   6.393  11.054  11.059 -1.0040 -1.1022 -0.4960
  449MOL0     H60557   6.440  10.883  11.041 -1.0769 -3.8840  3.2483
  449MOL0     H60558   6.320  11.004  11.286 -1.1172  1.5739 -2.0477
  449MOL0     H60559   6.250  10.889  11.168  2.0561  1.7093 -3.3196
  449MOL0     H60560   6.434  10.739  11.241  7.1624 -1.2278  4.0613
  449MOL0     H60561   6.458  10.846  11.384  2.2438 -0.5183 -2.3246
  449MOL0     H60562   6.344  10.666  11.458  0.2879 -2.5509 -2.9272
  449MOL0     H60563   6.252  10.812  11.468 -1.8290 -1.7120 -0.1757
  449MOL0     H60564   6.216  10.587  11.266  0.5609  0.2436 -0.2632
  449MOL0     H60565   6.128  10.746  11.248  1.1926  0.6815  0.3160
  449MOL0     H60566   6.101  10.454  11.504 -0.7590  0.2702  0.1378
  449MOL0     H60567   5.806  10.395  11.631  0.8611  0.2771 -1.7481
  449MOL0     H60568   5.934  10.426  11.741 -2.7825 -3.3868  0.2195
  449MOL0     H60569   5.675  10.586  11.694  1.5806 -0.4039 -0.3840
  449MOL0     H60570   5.791  10.646  11.816 -0.1708  0.8035  1.0304
  449MOL0     H60571   5.651  10.386  11.828  0.7168 -0.6172  0.8334
  449MOL0     H60572   5.612  10.545  11.912  2.1911  3.5822  0.8676
  449MOL0     H60573   5.818  10.535  12.019  1.1542  0.3773 -1.3222
  449MOL0     H60574   5.857  10.375  11.945 -3.4640 -1.9873 -2.9736
  449MOL0     H60575   5.583  10.564  12.185 -3.9155 -0.1107  2.3683
  449MOL0     H60576   5.592  10.722  12.498 -1.8228 -2.5450  1.9147
  449MOL0     H60577   5.553  10.741  12.323 -0.1634 -0.4476 -0.4959
  449MOL0     H60578   5.453  10.652  12.445 -0.6080  2.2512  0.5895
  449MOL0     H60579   5.685  10.193  12.876  1.7194 -0.8570  1.9751
  449MOL0     H60580   5.762  10.200  13.114 -2.3179  0.2176  0.2323
  449MOL0     H60581   5.814  10.259  13.338  2.4617 -1.6690 -0.2083
  449MOL0     H60582   5.958  10.275  13.240 -1.3965  1.3142 -3.1418
  449MOL0     H60583   6.034  10.453  13.410  0.2890  0.0996  2.6338
  449MOL0     H60584   5.873  10.437  13.497 -1.7933  0.6534 -0.4767
  449MOL0     H60585   6.081  10.215  13.472 -1.4861 -1.8394 -1.6622
  449MOL0     H60586   5.921  10.190  13.525  1.2412 -1.0096 -0.8537
  449MOL0     H60587   6.077  10.419  13.643 -1.6147  1.2042 -0.9594
  449MOL0     H60588   5.937  10.322  13.706 -0.5187  0.0882 -0.6549
  449MOL0     H60589   6.192  10.266  13.783  1.9306 -1.4988 -1.2395
  449MOL0     H60590   6.186  10.164  13.644  0.6271 -0.2360  1.1997
  449MOL0     H60591   5.978  10.132  13.849  0.1687 -2.2625  1.3580
  449MOL0     H60592   6.021  10.028  13.707 -1.0348 -0.3566  0.7956
  449MOL0     H60593   6.221  10.081  13.937 -2.4029  0.4357  1.5425
  449MOL0     H60594   6.228   9.956  13.797 -3.0052 -0.8619 -2.0386
  449MOL0     H60595   6.045   9.834  13.879  1.2140  2.4755 -1.7703
  449MOL0     H60596   6.038   9.945  14.034  1.5202  1.1150  1.6137
  449MOL0     H60597   5.828  10.622  13.069 -0.5076 -0.7382  1.4436
  449MOL0     H60598   5.794  10.601  12.825 -0.3378 -1.0702 -0.4223
  449MOL0     H60599   5.773  10.240  12.498 -1.1066 -1.0060 -0.9002
  449MOL0     H60600   5.789  10.204  12.255 -2.6087 -2.2805  1.7802
  449MOL0     H60601   6.635  11.061  10.671  0.4740 -0.4685 -2.3578
  449MOL0     H60602   6.749  11.004  10.467  0.4713 -0.8085 -1.0019
  449MOL0     H60603   6.869  10.907  10.073  0.7325  2.2237  2.8210
  449MOL0     H60604   7.020  10.877   9.877  0.6292 -2.1628 -0.6783
  449MOL0     H60605   7.144  10.742   9.745 -0.5030  0.1433 -0.7964
  449MOL0     H60606   7.204  10.900   9.705  0.1458 -0.7927 -1.4400
  449MOL0     H60607   7.421  10.824   9.688 -0.8869  1.6818 -1.3094
  449MOL0     H60608   7.304  10.759   9.563  0.3295  3.1731 -0.2473
  449MOL0     H60609   7.280  10.537   9.687 -0.9429  1.2857 -0.3231
  449MOL0     H60610   7.400  10.607   9.804  2.6342  0.4475 -0.7543
  449MOL0     H60611   7.569  10.597   9.592  1.3022 -1.4933 -2.4494
  449MOL0     H60612   7.434  10.546   9.501  0.0639  0.2922 -0.8095
  449MOL0     H60613   7.550  10.186   9.674 -0.0139  0.5870  3.6764
  449MOL0     H60614   7.336  10.734  10.117  0.4285  0.3224 -0.8484
  449MOL0     H60615   7.189  10.727  10.304  2.9679 -1.1416 -1.8793
  450MOL0     O60616   4.626   0.461   5.911  0.2609  0.9707  0.4117
  450MOL0     C60617   4.671   0.348   5.953  0.8805  1.3427  0.7779
  450MOL0     O60618   4.746   0.260   5.877  0.3239  0.0961  0.6828
  450MOL0     C60619   4.734   0.289   5.745  0.1227  0.7665 -0.5025
  450MOL0     C60620   4.800   0.401   5.681 -0.2653 -0.4726  0.1152
  450MOL0     C60621   4.784   0.419   5.546 -0.7032 -0.7361  0.3537
  450MOL0     C60622   4.711   0.332   5.474 -0.2994  0.6671 -1.0157
  450MOL0     O60623   4.687   0.345   5.343 -0.0461 -0.4857  0.0907
  450MOL0     C60624   4.786   0.388   5.243 -0.3267 -0.4937  0.1200
  450MOL0     C60625   4.710   0.417   5.114  0.3968 -0.1960  0.4681
  450MOL0     C60626   4.587   0.502   5.116  0.6709  0.0672 -0.1529
  450MOL0     C60627   4.611   0.653   5.149  0.5264  0.3802  0.3925
  450MOL0     C60628   4.688   0.731   5.054  0.2728  0.3322  1.0403
  450MOL0     C60629   4.656   0.880   5.084 -0.3473 -0.3644  1.3690
  450MOL0     C60630   4.744   0.973   4.991 -0.6383  0.1453 -0.8669
  450MOL0     C60631   4.650   1.081   4.934 -0.9343 -1.2402  0.6485
  450MOL0     N60632   4.716   1.186   4.863  0.0456  0.1283  0.2265
  450MOL0     C60633   4.769   1.298   4.927  0.3482 -0.0958  0.6296
  450MOL0     C60634   4.786   1.379   4.825  0.0463 -0.0621  0.6823
  450MOL0     C60635   4.856   1.508   4.828 -0.0656 -0.4453 -0.7704
  450MOL0     C60636   4.765   1.628   4.828  0.2713  1.0676  0.3895
  450MOL0     C60637   4.729   1.672   4.690  0.6700  0.3107 -0.4504
  450MOL0     C60638   4.609   1.764   4.672  0.9523  0.5060  0.5185
  450MOL0     O60639   4.588   1.784   4.528  0.5474 -0.1459  0.1568
  450MOL0     C60640   4.471   1.836   4.483  0.7181 -0.6704  0.6330
  450MOL0     C60641   4.455   1.817   4.347  0.2678 -0.0303 -0.7829
  450MOL0     C60642   4.355   1.885   4.270  0.8156  0.6371  0.2535
  450MOL0     C60643   4.340   1.875   4.117 -0.3629  0.7662 -0.8805
  450MOL0     C60644   4.277   1.980   4.328  0.8550  0.6175 -0.4954
  450MOL0     C60645   4.181   2.068   4.253 -0.7190  0.2425  0.4830
  450MOL0     O60646   4.059   2.089   4.321  0.5367 -0.2476  0.5140
  450MOL0     C60647   3.956   2.154   4.263 -0.1890  0.1357 -0.8234
  450MOL0     C60648   3.878   2.239   4.345 -0.0473  1.3439  0.3960
  450MOL0     C60649   3.753   2.284   4.300  0.1871 -1.2639 -0.3405
  450MOL0     C60650   3.702   2.249   4.176 -0.3926 -0.4634 -0.1885
  450MOL0     O60651   3.585   2.293   4.136 -0.0621  0.2394  0.2283
  450MOL0     C60652   3.599   2.423   4.069  0.2890 -1.1548  0.1883
  450MOL0     C60653   3.464   2.485   4.035  0.4166  0.4429 -0.0725
  450MOL0     C60654   3.396   2.384   3.928 -0.1736  0.2355  0.3380
  450MOL0     C60655   3.263   2.440   3.882  0.0049 -0.8243 -0.0898
  450MOL0     C60656   3.276   2.554   3.788 -0.0025 -1.0801 -0.1607
  450MOL0     C60657   3.364   2.527   3.668  1.3216  0.2756  0.7390
  450MOL0     C60658   3.339   2.619   3.544  0.0349  0.6231 -0.2687
  450MOL0     C60659   3.344   2.772   3.571  0.3830  0.0015 -0.8886
  450MOL0    Cl60660   3.274   2.847   3.422 -0.5988 -0.3832 -0.0970
  450MOL0     C60661   3.781   2.174   4.095  0.7011  0.4617  0.1661
  450MOL0     C60662   3.913   2.125   4.138 -0.2360 -0.1708  0.0859
  450MOL0     O60663   4.210   2.126   4.149  0.5377 -0.1490  0.4263
  450MOL0     C60664   4.293   2.001   4.465  0.2157 -0.6433  0.0971
  450MOL0     C60665   4.385   1.932   4.536  0.5128  0.5468  0.6559
  450MOL0     N60666   4.758   1.317   4.701  1.5392 -0.7634 -0.3273
  450MOL0     N60667   4.711   1.203   4.725  1.0044 -0.3623 -0.2887
  450MOL0     C60668   4.656   0.216   5.530  0.0305 -0.0834  0.2021
  450MOL0     C60669   4.669   0.188   5.666  0.0786 -0.8527 -1.0069
  450MOL0     C60670   4.664   0.316   6.102  0.0870  0.3479  0.2474
  450MOL0     C60671   4.620   0.416   6.183 -0.3993  0.7865 -0.1926
  450MOL0     C60672   4.615   0.394   6.314  0.1119  0.1114 -0.5544
  450MOL0     C60673   4.654   0.269   6.375 -0.3039  0.4982 -0.6888
  450MOL0     O60674   4.662   0.238   6.502 -0.1148 -0.3064  0.0837
  450MOL0     C60675   4.625   0.343   6.600 -0.8621  0.9315  0.7029
  450MOL0     C60676   4.628   0.279   6.737 -0.7681  0.6931  0.0484
  450MOL0     C60677   4.567   0.371   6.849  0.1836  0.4677  1.0019
  450MOL0     C60678   4.495   0.288   6.944 -0.2343 -0.8591 -0.7983
  450MOL0     C60679   4.418   0.376   7.031 -0.6439  0.5164  0.1104
  450MOL0     C60680   4.363   0.446   7.114  0.8578  0.5110  0.5924
  450MOL0     C60681   4.701   0.176   6.285  0.2034 -0.3348 -0.1555
  450MOL0     C60682   4.705   0.197   6.154  0.0227  0.9227 -0.5363
  450MOL0     H60683   4.857   0.481   5.727 -2.9344  2.6143 -1.5285
  450MOL0     H60684   4.830   0.504   5.496  1.8941 -2.1564  0.1237
  450MOL0     H60685   4.834   0.481   5.275 -0.0470  0.6411 -3.2248
  450MOL0     H60686   4.870   0.324   5.216  1.5948  0.8849  2.3832
  450MOL0     H60687   4.789   0.451   5.047  0.4134 -0.3757  0.3954
  450MOL0     H60688   4.672   0.324   5.073 -4.0516  1.0687  1.1888
  450MOL0     H60689   4.550   0.503   5.012  0.7611 -0.2558 -0.1880
  450MOL0     H60690   4.504   0.472   5.181  0.6121  1.8437  0.6512
  450MOL0     H60691   4.511   0.699   5.149  0.9469  1.4093 -1.9642
  450MOL0     H60692   4.651   0.674   5.249 -1.5895 -0.5077  1.4947
  450MOL0     H60693   4.795   0.712   5.064  0.7187  0.6282 -2.2314
  450MOL0     H60694   4.658   0.720   4.949 -3.2662  1.7122  1.7298
  450MOL0     H60695   4.548   0.889   5.068 -0.2642 -3.8108 -3.1569
  450MOL0     H60696   4.677   0.905   5.189  3.2383 -0.2920  0.7523
  450MOL0     H60697   4.824   1.024   5.046 -1.8748  0.9498  0.2689
  450MOL0     H60698   4.786   0.913   4.910 -1.1781 -2.7441  0.8281
  450MOL0     H60699   4.601   1.129   5.019  0.3329 -0.6246  1.0567
  450MOL0     H60700   4.581   1.041   4.860  0.8436  0.4246 -2.1037
  450MOL0     H60701   4.804   1.307   5.029  4.3941  3.4913 -0.8094
  450MOL0     H60702   4.922   1.508   4.916  1.2289 -0.8297 -1.7196
  450MOL0     H60703   4.923   1.505   4.742 -0.0080  0.1316 -0.7458
  450MOL0     H60704   4.822   1.709   4.872  2.8889 -0.0429 -0.7714
  450MOL0     H60705   4.677   1.601   4.888  2.0823 -2.3609  1.7922
  450MOL0     H60706   4.689   1.577   4.653 -2.4769 -0.9822  5.2421
  450MOL0     H60707   4.813   1.708   4.630  1.1373 -1.6690 -1.0494
  450MOL0     H60708   4.618   1.863   4.718 -0.9658  0.0164  2.0931
  450MOL0     H60709   4.522   1.722   4.723 -0.2164  2.1435 -0.0678
  450MOL0     H60710   4.523   1.752   4.294 -0.4828  0.8834 -3.0030
  450MOL0     H60711   4.414   1.949   4.085  1.2251  0.1779  1.2475
  450MOL0     H60712   4.360   1.774   4.080 -0.9233 -0.2922  1.5527
  450MOL0     H60713   4.239   1.893   4.077 -1.1782 -0.8674  0.3225
  450MOL0     H60714   3.905   2.260   4.448 -2.2067  1.4171  1.0056
  450MOL0     H60715   3.687   2.330   4.374  0.2132 -0.0681 -1.0301
  450MOL0     H60716   3.650   2.501   4.127  1.6147 -1.4583 -0.5343
  450MOL0     H60717   3.660   2.403   3.981  0.1340 -2.5064  0.3564
  450MOL0     H60718   3.400   2.501   4.123  0.9658 -0.9079  0.6087
  450MOL0     H60719   3.491   2.579   3.988  2.5061  0.4001  0.9664
  450MOL0     H60720   3.372   2.294   3.986  0.8330  0.8619  1.7865
  450MOL0     H60721   3.449   2.363   3.835 -3.5085  2.4666 -2.2865
  450MOL0     H60722   3.219   2.361   3.820 -2.4080  0.3055  0.1040
  450MOL0     H60723   3.205   2.469   3.970  1.4007 -0.1025  0.6234
  450MOL0     H60724   3.322   2.635   3.844 -0.6027 -3.5206  4.3075
  450MOL0     H60725   3.174   2.577   3.754  0.3726  0.6981 -0.1660
  450MOL0     H60726   3.470   2.548   3.685  1.0000  1.3392  1.4918
  450MOL0     H60727   3.343   2.428   3.625  0.6694  0.6684  0.1290
  450MOL0     H60728   3.250   2.595   3.485  0.9924 -3.5470 -0.3268
  450MOL0     H60729   3.422   2.598   3.477  0.8197  0.9738  0.5681
  450MOL0     H60730   3.444   2.810   3.591  1.2195 -2.7516  0.8052
  450MOL0     H60731   3.299   2.809   3.664  2.4432 -2.0339  1.0522
  450MOL0     H60732   3.752   2.151   3.993  1.1059  2.3066 -0.4059
  450MOL0     H60733   3.970   2.075   4.061  4.1522  3.4477  0.5596
  450MOL0     H60734   4.242   2.086   4.511  1.2595 -0.0881  0.2628
  450MOL0     H60735   4.405   1.962   4.639 -2.3689  1.6409  0.9819
  450MOL0     H60736   4.601   0.150   5.464 -2.3767  0.3260  1.6771
  450MOL0     H60737   4.614   0.110   5.718  0.6409  1.5228  3.6737
  450MOL0     H60738   4.589   0.515   6.152 -0.8721 -0.1093 -2.8021
  450MOL0     H60739   4.567   0.471   6.374  0.7581  0.9033 -1.0280
  450MOL0     H60740   4.711   0.409   6.587  0.9105 -1.0520  1.7398
  450MOL0     H60741   4.527   0.385   6.576  0.0116  2.9432  0.4949
  450MOL0     H60742   4.734   0.253   6.749 -1.2452 -3.4167 -2.6724
  450MOL0     H60743   4.566   0.189   6.734 -1.6147  1.2686  0.2511
  450MOL0     H60744   4.504   0.451   6.810 -0.4906 -0.1621  0.7761
  450MOL0     H60745   4.653   0.410   6.904 -0.2132  0.8744  1.3359
  450MOL0     H60746   4.565   0.228   7.003  1.0739  2.0104  0.7938
  450MOL0     H60747   4.431   0.214   6.896 -1.6100  1.0628 -2.1056
  450MOL0     H60748   4.298   0.496   7.183 -3.8806 -2.9764 -0.8052
  450MOL0     H60749   4.736   0.079   6.321  0.8484  0.5977  1.8825
  450MOL0     H60750   4.741   0.121   6.085 -3.5480 -0.0525 -1.5158
  451MOL0     O60751   6.767  10.348   6.488  0.0804  0.1165  0.0452
  451MOL0     C60752   6.875  10.304   6.530 -0.0938 -0.2573  0.2739
  451MOL0     O60753   6.903  10.234   6.648 -0.8715  0.3241  0.6921
  451MOL0     C60754   6.804  10.187   6.730  0.8891  0.0045 -0.4144
  451MOL0     C60755   6.850  10.135   6.847 -0.4522  0.5066  0.1701
  451MOL0     C60756   6.757  10.078   6.933 -0.9244 -0.3745 -0.1646
  451MOL0     C60757   6.620  10.104   6.921 -0.1220 -0.7845 -0.1147
  451MOL0     O60758   6.537  10.080   7.026 -0.1638  0.3041  0.7851
  451MOL0     C60759   6.583  10.127   7.151 -0.2543 -0.1438 -0.0490
  451MOL0     C60760   6.472  10.190   7.239  0.0726  0.8465  0.1434
  451MOL0     C60761   6.381  10.280   7.155  0.0398 -0.3793  0.1867
  451MOL0     C60762   6.445  10.389   7.076 -0.9704  0.2377 -1.2972
  451MOL0     C60763   6.339  10.447   6.979  0.6687 -0.0239  0.0608
  451MOL0     C60764   6.198  10.497   7.040  0.2652 -0.2556 -0.2205
  451MOL0     C60765   6.084  10.493   6.938  0.8911 -0.4537  0.5386
  451MOL0     C60766   6.030  10.353   6.893 -0.1339 -0.3197 -0.4706
  451MOL0     N60767   5.920  10.363   6.796 -0.6611 -0.9516  0.2916
  451MOL0     C60768   5.942  10.359   6.655  0.2003 -0.2224 -0.2538
  451MOL0     C60769   5.820  10.344   6.609  0.7234  0.7028  0.5835
  451MOL0     C60770   5.782  10.339   6.460 -1.0010 -0.2405 -0.1258
  451MOL0     C60771   5.650  10.405   6.419 -0.7862  0.0316 -0.1394
  451MOL0     C60772   5.649  10.561   6.444  0.4324  0.3758 -0.2652
  451MOL0     C60773   5.751  10.638   6.367 -0.3753 -0.4071 -0.2319
  451MOL0     O60774   5.751  10.598   6.225 -0.0832 -0.5347 -0.3075
  451MOL0     C60775   5.848  10.642   6.139 -0.0618 -0.0824  0.2991
  451MOL0     C60776   5.842  10.595   6.008 -0.3092 -1.1857  0.1774
  451MOL0     C60777   5.919  10.646   5.899  0.1792 -0.0449  0.5545
  451MOL0     C60778   5.884  10.582   5.763  0.9422  0.6360 -0.0959
  451MOL0     C60779   6.003  10.758   5.923  0.4578 -0.1372  0.1793
  451MOL0     C60780   6.093  10.821   5.819  0.3364 -0.2403 -0.5628
  451MOL0     O60781   6.164  10.930   5.856  0.7051 -0.6682  0.0263
  451MOL0     C60782   6.233  10.998   5.759  0.4908  0.7786  0.1035
  451MOL0     C60783   6.368  10.985   5.746 -0.1272 -0.2825 -0.1167
  451MOL0     C60784   6.437  11.067   5.660  0.2712  0.4508  0.1991
  451MOL0     C60785   6.371  11.136   5.557  0.9633  0.3538 -0.5337
  451MOL0     O60786   6.447  11.221   5.484  0.4825 -0.0211  0.3109
  451MOL0     C60787   6.548  11.173   5.404  0.6916  0.2668  0.4983
  451MOL0     C60788   6.601  11.289   5.317  0.0201  0.3726  0.7249
  451MOL0     C60789   6.701  11.374   5.403  0.0827  0.5032  0.0896
  451MOL0     C60790   6.786  11.466   5.318 -0.5140 -0.6155  1.1060
  451MOL0     C60791   6.853  11.575   5.392 -0.1408 -0.0234 -0.5211
  451MOL0     C60792   6.899  11.685   5.302  0.1754  0.3736  1.0415
  451MOL0     C60793   6.996  11.788   5.360  1.4431 -0.7988 -1.2695
  451MOL0     C60794   7.145  11.748   5.358  0.0506 -0.8392  0.1611
  451MOL0    Cl60795   7.251  11.846   5.454 -0.1398 -0.0259 -0.0435
  451MOL0     C60796   6.230  11.133   5.555 -0.1838 -0.6054  0.2918
  451MOL0     C60797   6.163  11.059   5.650 -1.0575  0.1124  0.3241
  451MOL0     O60798   6.091  10.776   5.704 -0.1216 -0.3289  0.4242
  451MOL0     C60799   6.018  10.797   6.056  0.1744  0.0549  0.3961
  451MOL0     C60800   5.932  10.750   6.157 -0.1979 -0.2067 -0.9712
  451MOL0     N60801   5.725  10.359   6.711 -0.6842 -0.4279 -0.6527
  451MOL0     N60802   5.789  10.381   6.825  0.1308 -0.4585  1.0531
  451MOL0     C60803   6.563  10.159   6.800  0.8082 -0.3904 -0.1134
  451MOL0     C60804   6.662  10.200   6.707 -0.5551 -0.0841 -0.6900
  451MOL0     C60805   6.990  10.310   6.436 -0.1145  0.1086  0.1546
  451MOL0     C60806   6.997  10.389   6.320  0.1733  0.5078  0.0038
  451MOL0     C60807   7.116  10.390   6.240 -0.6625  0.1391  0.5755
  451MOL0     C60808   7.228  10.313   6.271  0.2836 -0.4417  0.1241
  451MOL0     O60809   7.339  10.346   6.196  0.0981 -0.3452  0.8611
  451MOL0     C60810   7.440  10.245   6.197 -0.7396 -0.0612  1.0037
  451MOL0     C60811   7.537  10.273   6.086  0.3365  0.4549 -0.5994
  451MOL0     C60812   7.467  10.279   5.940  0.6678  0.4348  1.2910
  451MOL0     C60813   7.580  10.276   5.834  0.0204 -0.4825  0.0554
  451MOL0     C60814   7.529  10.326   5.705  0.1098 -0.8553  0.5198
  451MOL0     C60815   7.504  10.385   5.599  0.1120  0.1021 -0.1146
  451MOL0     C60816   7.224  10.228   6.384 -0.3113  0.1796  0.7777
  451MOL0     C60817   7.110  10.231   6.464 -0.0693  0.8187 -0.1479
  451MOL0     H60818   6.956  10.115   6.859 -0.5826 -2.6258 -2.4935
  451MOL0     H60819   6.800  10.033   7.022  0.8448  2.0742  0.3389
  451MOL0     H60820   6.635  10.040   7.191  2.8815  0.7677 -1.8292
  451MOL0     H60821   6.655  10.210   7.151  1.2548 -1.3277 -2.3487
  451MOL0     H60822   6.416  10.109   7.288  3.4965 -0.4936  2.1911
  451MOL0     H60823   6.518  10.257   7.312  2.2079 -2.2135  1.8345
  451MOL0     H60824   6.327  10.215   7.086 -0.5796  0.6535 -0.3274
  451MOL0     H60825   6.303  10.324   7.218 -0.5166  0.3553 -0.9795
  451MOL0     H60826   6.476  10.465   7.149  0.9768 -1.1120 -0.6388
  451MOL0     H60827   6.542  10.358   7.034  0.0369 -2.1872  2.3134
  451MOL0     H60828   6.393  10.530   6.933  3.0297 -2.3801 -1.7364
  451MOL0     H60829   6.326  10.380   6.894  2.5447 -0.3622 -0.0006
  451MOL0     H60830   6.174  10.453   7.137  1.7544 -1.4246 -0.3569
  451MOL0     H60831   6.208  10.603   7.067  2.6158 -0.0831 -1.5345
  451MOL0     H60832   6.000  10.543   6.988  1.3077 -0.7090  1.5283
  451MOL0     H60833   6.103  10.545   6.844 -1.7214 -3.4636 -1.8874
  451MOL0     H60834   5.999  10.293   6.979 -1.2438  1.3826  0.3764
  451MOL0     H60835   6.115  10.305   6.845  0.8810  1.6390 -0.7012
  451MOL0     H60836   6.041  10.354   6.611 -0.3570 -2.3868 -1.3745
  451MOL0     H60837   5.862  10.391   6.406  1.4746 -1.1975  2.3680
  451MOL0     H60838   5.775  10.235   6.428  1.8448 -0.1299 -1.4539
  451MOL0     H60839   5.572  10.364   6.483  0.7081 -1.1434  1.0020
  451MOL0     H60840   5.628  10.392   6.313 -1.6116  0.6192 -0.0457
  451MOL0     H60841   5.659  10.590   6.549  1.7302  3.6033 -1.1789
  451MOL0     H60842   5.552  10.601   6.415 -1.0255 -1.0353  2.3097
  451MOL0     H60843   5.853  10.630   6.408 -1.0285 -0.5753  1.4446
  451MOL0     H60844   5.732  10.746   6.366  0.7149 -0.1492  1.6979
  451MOL0     H60845   5.771  10.515   5.986 -0.6687 -0.6115 -0.8318
  451MOL0     H60846   5.918  10.481   5.741  1.7737  0.7697  0.5535
  451MOL0     H60847   5.777  10.566   5.781  1.7640 -3.1548  2.3933
  451MOL0     H60848   5.899  10.646   5.675  2.9446  1.1103  0.5554
  451MOL0     H60849   6.415  10.922   5.821 -0.1458 -0.3803 -0.1869
  451MOL0     H60850   6.543  11.085   5.679 -0.1076  2.8881  0.2388
  451MOL0     H60851   6.634  11.148   5.468  0.8486  0.2616  0.2859
  451MOL0     H60852   6.522  11.082   5.349  2.7104 -0.7580  1.1440
  451MOL0     H60853   6.647  11.248   5.227 -1.8467  2.7544 -1.4833
  451MOL0     H60854   6.520  11.351   5.277  1.2343  0.5201 -1.6620
  451MOL0     H60855   6.768  11.304   5.455 -1.6378 -1.4642 -0.1884
  451MOL0     H60856   6.644  11.420   5.484 -1.0440 -2.5752  1.2092
  451MOL0     H60857   6.859  11.416   5.253 -2.3878 -2.5789  0.3975
  451MOL0     H60858   6.718  11.515   5.249  0.8914  0.6604  0.5567
  451MOL0     H60859   6.938  11.538   5.450 -0.2401  1.1425  0.4038
  451MOL0     H60860   6.785  11.630   5.458  0.9421  2.2456 -1.2041
  451MOL0     H60861   6.950  11.637   5.218  0.4138 -0.8618  1.8690
  451MOL0     H60862   6.813  11.742   5.264  1.8503  2.9017  0.8378
  451MOL0     H60863   6.963  11.807   5.463  2.1735 -1.7756 -0.8333
  451MOL0     H60864   6.984  11.880   5.303  0.0615  0.1010  0.3582
  451MOL0     H60865   7.182  11.770   5.257  2.3060  0.7019  1.2351
  451MOL0     H60866   7.166  11.641   5.365  2.4638 -0.4274  0.1864
  451MOL0     H60867   6.187  11.189   5.473  1.5972  1.0635  0.4092
  451MOL0     H60868   6.055  11.071   5.656 -0.9362  2.7408 -1.3767
  451MOL0     H60869   6.075  10.884   6.085 -2.5701  1.8605  0.8099
  451MOL0     H60870   5.931  10.791   6.258  1.3768 -2.7288  0.1944
  451MOL0     H60871   6.457  10.175   6.783 -0.4125 -1.7118  4.7833
  451MOL0     H60872   6.627  10.234   6.610 -0.1901  0.9026 -0.4847
  451MOL0     H60873   6.913  10.446   6.284 -1.8110 -2.6530 -0.8104
  451MOL0     H60874   7.122  10.462   6.159  1.9991 -1.9204 -1.2453
  451MOL0     H60875   7.505  10.244   6.285  2.4078  1.3422 -1.1458
  451MOL0     H60876   7.385  10.152   6.181  0.5576 -0.4162 -2.0141
  451MOL0     H60877   7.608  10.190   6.083  3.4804  2.9706 -2.6384
  451MOL0     H60878   7.587  10.370   6.099  1.4673  0.7499 -5.4026
  451MOL0     H60879   7.409  10.370   5.921  0.4022  0.1600  0.7604
  451MOL0     H60880   7.415  10.185   5.923  2.1984  0.0701 -2.4823
  451MOL0     H60881   7.621  10.175   5.830 -0.5330 -0.9044  3.1245
  451MOL0     H60882   7.659  10.345   5.863 -0.8562 -1.2953  5.1773
  451MOL0     H60883   7.483  10.440   5.510  1.2462 -0.8691 -1.0276
  451MOL0     H60884   7.315  10.179   6.416 -0.5094 -0.0415  1.0056
  451MOL0     H60885   7.121  10.173   6.556  1.0710  3.0743  1.2188
  452MOL0     O60886   6.988   1.845   9.593 -0.3803  0.2008 -0.3160
  452MOL0     C60887   7.071   1.874   9.686  0.2050  0.2756 -1.1410
  452MOL0     O60888   7.193   1.822   9.706  0.0045 -0.5185  0.6693
  452MOL0     C60889   7.256   1.734   9.618  0.2101  0.8056  0.4512
  452MOL0     C60890   7.299   1.771   9.490  0.8728  0.8254 -0.4183
  452MOL0     C60891   7.372   1.676   9.407  0.0056 -1.1278  0.4917
  452MOL0     C60892   7.408   1.551   9.453 -0.7728 -0.3290  0.2668
  452MOL0     O60893   7.489   1.468   9.376 -0.7195  0.3189 -0.8424
  452MOL0     C60894   7.475   1.330   9.411  0.1141  0.3293 -0.2693
  452MOL0     C60895   7.525   1.255   9.295 -1.0279 -0.5644  1.3171
  452MOL0     C60896   7.686   1.249   9.283  1.2152 -0.9179 -0.7111
  452MOL0     C60897   7.733   1.157   9.173  0.4967  0.4784  0.8912
  452MOL0     C60898   7.884   1.163   9.172 -0.3197 -0.4810 -0.3335
  452MOL0     C60899   7.930   1.081   9.039  0.1835  0.6260 -0.8157
  452MOL0     C60900   7.888   1.148   8.911  0.0114  0.6401  0.9560
  452MOL0     C60901   7.944   1.287   8.897 -0.9069  0.1235 -0.7300
  452MOL0     N60902   7.956   1.306   8.750  0.6075 -0.3363  0.0311
  452MOL0     C60903   8.039   1.244   8.659 -0.3103 -0.5533  0.3655
  452MOL0     C60904   8.011   1.311   8.540  0.3001 -0.5087 -0.7726
  452MOL0     C60905   8.093   1.303   8.418 -0.0060  0.4960  0.0855
  452MOL0     C60906   8.089   1.168   8.345 -0.7064 -0.2784 -0.4140
  452MOL0     C60907   8.163   1.059   8.422  0.1575  0.6805  0.1177
  452MOL0     C60908   8.258   0.966   8.336  0.7821  0.4045 -0.4236
  452MOL0     O60909   8.343   0.906   8.433 -0.0092  0.5369 -0.5261
  452MOL0     C60910   8.390   0.776   8.406 -0.0473 -0.7005 -0.8339
  452MOL0     C60911   8.419   0.683   8.509 -0.5910  0.8235 -0.2470
  452MOL0     C60912   8.481   0.550   8.491  0.1585  0.2787  1.0803
  452MOL0     C60913   8.516   0.478   8.613  0.0472 -0.0175 -0.5153
  452MOL0     C60914   8.501   0.513   8.356  0.1363 -0.6113 -0.2993
  452MOL0     C60915   8.571   0.384   8.315 -0.5636  0.8748  0.4729
  452MOL0     O60916   8.608   0.375   8.177  0.1034 -0.5955 -0.8175
  452MOL0     C60917   8.640   0.249   8.136  0.2703 -0.6407 -0.2527
  452MOL0     C60918   8.776   0.212   8.125  1.1573 -0.0940  0.1452
  452MOL0     C60919   8.819   0.074   8.093  1.1361 -1.0947  0.6140
  452MOL0     C60920   8.722  -0.025   8.064 -0.0364 -0.6694  0.3300
  452MOL0     O60921   8.766  -0.153   8.040 -0.0410 -0.4342 -0.6454
  452MOL0     C60922   8.715  -0.219   7.920 -0.7131  0.1078 -0.5211
  452MOL0     C60923   8.695  -0.379   7.936  0.2969  0.4764 -0.6177
  452MOL0     C60924   8.603  -0.410   8.058 -0.2715 -1.1513 -0.2940
  452MOL0     C60925   8.529  -0.543   8.034  0.0436  0.0538  0.2471
  452MOL0     C60926   8.628  -0.658   8.046  0.2239 -0.1340 -0.4539
  452MOL0     C60927   8.558  -0.781   8.109  0.0789 -0.2747  0.1593
  452MOL0     C60928   8.483  -0.863   8.009  0.6352 -0.5411 -0.9537
  452MOL0     C60929   8.449  -1.001   8.056  0.2559 -0.7929 -0.3464
  452MOL0    Cl60930   8.592  -1.097   7.999 -0.1016  0.0095  0.3780
  452MOL0     C60931   8.593   0.013   8.083  0.6740  0.4996  0.6581
  452MOL0     C60932   8.542   0.143   8.119 -0.6214 -0.5538  0.5867
  452MOL0     O60933   8.580   0.296   8.388  0.0263  0.2530  0.0673
  452MOL0     C60934   8.471   0.608   8.258 -0.5065  0.5188 -0.5050
  452MOL0     C60935   8.426   0.736   8.275  0.4412  0.4315 -0.2288
  452MOL0     N60936   7.909   1.396   8.565 -0.6016  0.6508  0.6538
  452MOL0     N60937   7.867   1.385   8.686 -0.0842 -0.1878 -0.2861
  452MOL0     C60938   7.390   1.527   9.593 -0.3140 -0.1233  0.6831
  452MOL0     C60939   7.311   1.613   9.667 -0.3557  0.0101 -0.3841
  452MOL0     C60940   7.039   1.980   9.776 -0.3940  0.5986 -0.8795
  452MOL0     C60941   7.140   2.040   9.849  0.2056  0.1620 -0.4728
  452MOL0     C60942   7.105   2.144   9.939  0.1755 -0.6196  1.0740
  452MOL0     C60943   6.973   2.196   9.957 -0.3887  0.1499 -0.0394
  452MOL0     O60944   6.939   2.280  10.057  0.0873  0.5498  0.4688
  452MOL0     C60945   6.899   2.217  10.177 -0.0620 -0.2025 -0.0834
  452MOL0     C60946   6.942   2.317  10.285  0.1812  0.3772 -0.2751
  452MOL0     C60947   6.847   2.435  10.318 -0.4598  0.5364  0.6350
  452MOL0     C60948   6.881   2.556  10.241 -0.0087 -1.1131  0.3027
  452MOL0     C60949   6.782   2.663  10.222  0.9860 -0.7199 -0.0469
  452MOL0     C60950   6.709   2.756  10.218  0.7783 -0.6862 -0.1524
  452MOL0     C60951   6.876   2.143   9.869 -0.0510  0.1794 -0.3913
  452MOL0     C60952   6.904   2.035   9.786 -0.6244  0.4079  0.1446
  452MOL0     H60953   7.284   1.869   9.446 -0.3557  0.4450 -0.8933
  452MOL0     H60954   7.389   1.716   9.307  0.4081 -1.2752  0.5007
  452MOL0     H60955   7.534   1.308   9.500 -0.4530 -1.7405 -0.3440
  452MOL0     H60956   7.369   1.310   9.430  0.3638 -0.8918 -0.0479
  452MOL0     H60957   7.487   1.153   9.297  0.8080 -1.2801  2.5466
  452MOL0     H60958   7.497   1.306   9.202 -4.5639 -2.9077  0.8991
  452MOL0     H60959   7.727   1.346   9.255 -0.1122 -0.7180 -2.0547
  452MOL0     H60960   7.713   1.205   9.380 -2.0051 -1.1352  0.2119
  452MOL0     H60961   7.699   1.056   9.197  3.1119  0.1773  3.9164
  452MOL0     H60962   7.695   1.199   9.079  2.1012  1.4304  0.6254
  452MOL0     H60963   7.927   1.264   9.176  0.9906 -0.9237 -1.9826
  452MOL0     H60964   7.927   1.111   9.257  0.9269  2.2020  0.7959
  452MOL0     H60965   8.034   1.045   9.038  1.0214  2.8764 -1.0872
  452MOL0     H60966   7.881   0.983   9.043 -0.5439  0.9910 -0.6892
  452MOL0     H60967   7.944   1.088   8.838  0.1256  0.2905  1.3271
  452MOL0     H60968   7.783   1.135   8.881  1.0747 -0.3467 -2.9846
  452MOL0     H60969   8.047   1.298   8.933  0.1188 -0.7301 -3.1675
  452MOL0     H60970   7.877   1.351   8.955 -0.6096 -0.3607  0.1611
  452MOL0     H60971   8.117   1.178   8.696 -0.7617 -0.9400  0.6258
  452MOL0     H60972   8.040   1.376   8.355 -3.4981 -2.2979 -0.5816
  452MOL0     H60973   8.190   1.348   8.438 -0.3507  2.7242 -2.5558
  452MOL0     H60974   8.147   1.178   8.253  1.0846 -1.8721  0.4641
  452MOL0     H60975   7.988   1.137   8.320 -0.7426 -2.8429  2.3820
  452MOL0     H60976   8.090   0.994   8.471  1.4921  0.1265  1.4612
  452MOL0     H60977   8.219   1.102   8.505 -0.4263  2.2223 -0.2561
  452MOL0     H60978   8.318   1.026   8.267 -1.3277  0.5046 -2.2704
  452MOL0     H60979   8.208   0.893   8.272  0.1293  1.8543 -1.6099
  452MOL0     H60980   8.403   0.714   8.612  0.0757 -0.9860  0.4304
  452MOL0     H60981   8.622   0.450   8.611 -0.0608 -0.5345  0.2905
  452MOL0     H60982   8.503   0.545   8.699 -0.5151 -0.4379 -0.2633
  452MOL0     H60983   8.455   0.387   8.615 -0.2775  0.2002 -0.5094
  452MOL0     H60984   8.859   0.280   8.138  0.4628  0.9181 -0.5962
  452MOL0     H60985   8.925   0.053   8.079  2.3402  3.6210  0.9205
  452MOL0     H60986   8.625  -0.171   7.881  1.0320  3.1074 -1.2175
  452MOL0     H60987   8.791  -0.201   7.843 -1.0999 -2.1441 -1.5039
  452MOL0     H60988   8.651  -0.426   7.848 -2.2221  1.9191 -0.2566
  452MOL0     H60989   8.788  -0.432   7.956 -0.3442 -0.2892  0.4708
  452MOL0     H60990   8.536  -0.327   8.083  2.0633  0.9184 -0.5500
  452MOL0     H60991   8.667  -0.416   8.147 -0.2463  3.5416  0.2512
  452MOL0     H60992   8.460  -0.561   8.117 -2.0672 -4.5913 -2.1594
  452MOL0     H60993   8.475  -0.550   7.940 -2.1815 -2.3020  1.5560
  452MOL0     H60994   8.711  -0.632   8.112 -2.0228 -3.1575  4.1748
  452MOL0     H60995   8.668  -0.683   7.948  0.5456 -1.0810 -0.0977
  452MOL0     H60996   8.633  -0.851   8.149 -0.2518  0.4877  2.2857
  452MOL0     H60997   8.501  -0.761   8.200  0.1116 -1.4509  0.4514
  452MOL0     H60998   8.539  -0.870   7.915  0.5835  3.2822 -1.4524
  452MOL0     H60999   8.392  -0.803   7.998  1.0246  0.1818 -0.3688
  452MOL0     H61000   8.351  -1.035   8.021  0.9728  0.2807 -3.7713
  452MOL0     H61001   8.455  -1.003   8.165  1.8075 -1.1038 -0.4142
  452MOL0     H61002   8.518  -0.065   8.081  0.5955  0.5873 -0.9885
  452MOL0     H61003   8.436   0.166   8.118 -0.3985  0.7811  2.7073
  452MOL0     H61004   8.503   0.584   8.158  0.5405  1.9518 -0.5418
  452MOL0     H61005   8.404   0.794   8.186  0.2416 -1.1675 -1.2604
  452MOL0     H61006   7.430   1.436   9.637  0.7647  1.1643  2.4939
  452MOL0     H61007   7.277   1.585   9.767  2.9693  0.3497  0.9732
  452MOL0     H61008   7.244   2.012   9.834 -0.4254 -3.4103  0.8979
  452MOL0     H61009   7.179   2.180  10.010  1.5303 -1.1956 -0.0048
  452MOL0     H61010   6.791   2.217  10.164 -0.0285  1.4624 -0.6097
  452MOL0     H61011   6.941   2.117  10.186  1.0040  0.0965 -1.3486
  452MOL0     H61012   7.049   2.342  10.286  0.4644 -0.6163  2.2785
  452MOL0     H61013   6.944   2.253  10.373  0.9756  2.4879  1.3513
  452MOL0     H61014   6.835   2.452  10.425 -1.3302  1.4168  0.4190
  452MOL0     H61015   6.747   2.400  10.293  0.0247 -1.1292  0.9574
  452MOL0     H61016   6.921   2.518  10.147  2.6981 -1.0625  1.3323
  452MOL0     H61017   6.971   2.601  10.284 -0.2421 -1.4015  1.1127
  452MOL0     H61018   6.649   2.845  10.215 -1.6600 -2.2326 -0.2281
  452MOL0     H61019   6.773   2.176   9.864 -0.0337  0.4408  0.7546
  452MOL0     H61020   6.824   1.994   9.725 -0.9315  1.2427 -0.0253
  453MOL0     O61021   6.765   0.059   4.966 -0.3569 -0.2749  0.0147
  453MOL0     C61022   6.827   0.159   4.944  0.7868 -0.3914  0.1495
  453MOL0     O61023   6.960   0.164   4.899  0.6416  0.3610 -0.4079
  453MOL0     C61024   7.033   0.046   4.899 -0.9123  0.7455  1.3010
  453MOL0     C61025   7.080  -0.025   5.007 -0.0160 -0.2920  0.3730
  453MOL0     C61026   7.137  -0.152   4.998  0.2005  0.5064  0.2556
  453MOL0     C61027   7.157  -0.196   4.867  0.4491 -0.4247 -0.5067
  453MOL0     O61028   7.210  -0.324   4.833  0.5669  0.5561 -1.0322
  453MOL0     C61029   7.246  -0.433   4.931 -0.9099 -0.5193  0.0034
  453MOL0     C61030   7.278  -0.551   4.842 -0.5562  0.1163 -0.1338
  453MOL0     C61031   7.170  -0.573   4.733 -0.5312 -0.4028 -0.1550
  453MOL0     C61032   7.105  -0.713   4.738  0.2084  0.7019 -0.2869
  453MOL0     C61033   7.028  -0.738   4.609 -0.4157  0.8219 -0.9262
  453MOL0     C61034   6.935  -0.864   4.604 -1.1811  0.0450 -0.1379
  453MOL0     C61035   6.989  -0.986   4.681 -0.5167 -0.6862  0.5213
  453MOL0     C61036   7.114  -1.033   4.617 -0.1586 -0.4273  0.0885
  453MOL0     N61037   7.160  -1.157   4.683 -0.3842 -0.8921  0.6925
  453MOL0     C61038   7.157  -1.282   4.627 -0.7585  0.3071 -0.8270
  453MOL0     C61039   7.232  -1.351   4.717  0.6972 -0.0223 -0.5074
  453MOL0     C61040   7.258  -1.497   4.692  0.3126 -0.6284 -1.1826
  453MOL0     C61041   7.404  -1.527   4.713  0.4692 -0.2898  0.0367
  453MOL0     C61042   7.438  -1.662   4.634 -0.1502 -0.3555  0.0083
  453MOL0     C61043   7.581  -1.702   4.642 -0.7134 -0.3442 -0.2045
  453MOL0     O61044   7.647  -1.600   4.576 -0.6348  0.0173  0.9328
  453MOL0     C61045   7.782  -1.620   4.542  0.0898 -0.5773  0.6407
  453MOL0     C61046   7.841  -1.522   4.465 -0.0018 -0.0480 -0.6514
  453MOL0     C61047   7.976  -1.515   4.439  0.0391  0.0984  0.1323
  453MOL0     C61048   8.015  -1.401   4.343 -0.0791 -0.9091  0.0634
  453MOL0     C61049   8.058  -1.614   4.489  0.3434  0.0468 -0.4386
  453MOL0     C61050   8.197  -1.629   4.454  0.2830  1.1717  0.1538
  453MOL0     O61051   8.241  -1.585   4.326  0.0670 -0.0808  0.3047
  453MOL0     C61052   8.373  -1.613   4.290 -0.6328  0.7949 -0.3245
  453MOL0     C61053   8.459  -1.509   4.266 -0.6951  0.2206 -0.0714
  453MOL0     C61054   8.593  -1.539   4.240 -0.2485  0.2163 -0.1752
  453MOL0     C61055   8.647  -1.671   4.247 -0.3076 -0.0725 -0.7201
  453MOL0     O61056   8.785  -1.689   4.239 -0.5093 -0.0692 -0.2743
  453MOL0     C61057   8.844  -1.814   4.269  0.1635 -0.4902 -0.0179
  453MOL0     C61058   8.859  -1.911   4.147  0.1785 -0.4810  0.7447
  453MOL0     C61059   8.942  -1.846   4.039  0.2633 -1.0422  0.3656
  453MOL0     C61060   9.027  -1.946   3.957 -0.7575 -0.4652 -0.1498
  453MOL0     C61061   9.071  -1.887   3.823  0.4557 -0.3688  0.1080
  453MOL0     C61062   9.138  -1.745   3.840 -0.1049  1.4179  0.0269
  453MOL0     C61063   9.051  -1.610   3.820  0.1257  0.3643 -0.7531
  453MOL0     C61064   9.141  -1.483   3.812 -0.1184  0.2663 -0.5852
  453MOL0    Cl61065   9.180  -1.430   3.977  0.0264 -0.0077 -0.5888
  453MOL0     C61066   8.554  -1.778   4.263  0.3370  0.9875 -0.7212
  453MOL0     C61067   8.416  -1.750   4.283 -0.1523 -0.0291  0.5355
  453MOL0     O61068   8.267  -1.673   4.545  0.3308 -0.4430 -0.4136
  453MOL0     C61069   8.005  -1.718   4.572  0.9555  0.7634 -0.5976
  453MOL0     C61070   7.865  -1.720   4.605  0.0918  0.3765  0.2008
  453MOL0     N61071   7.257  -1.277   4.829  0.1050  1.0895  0.1222
  453MOL0     N61072   7.235  -1.160   4.798  0.5149 -0.5473  0.6829
  453MOL0     C61073   7.113  -0.124   4.755 -0.4858  0.3895  0.6345
  453MOL0     C61074   7.045  -0.009   4.769  0.6656 -0.0330 -0.1481
  453MOL0     C61075   6.759   0.283   4.990 -0.9468 -0.7263 -0.1723
  453MOL0     C61076   6.623   0.294   4.998 -0.5272  0.7551  0.2708
  453MOL0     C61077   6.557   0.399   5.046 -0.3247  0.6612  0.2704
  453MOL0     C61078   6.626   0.505   5.106 -0.4519  0.1337 -0.8711
  453MOL0     O61079   6.550   0.605   5.162  0.1020  0.4459  0.0743
  453MOL0     C61080   6.618   0.729   5.178  0.0727  0.8531 -0.6705
  453MOL0     C61081   6.679   0.804   5.056  0.6445  0.0688  0.7232
  453MOL0     C61082   6.578   0.874   4.956 -0.2555  0.2294  0.5344
  453MOL0     C61083   6.500   0.994   5.018 -0.3250 -0.0949  0.3501
  453MOL0     C61084   6.568   1.081   5.110  0.4034 -0.1036  0.5215
  453MOL0     C61085   6.621   1.175   5.163 -0.5980 -0.5091  0.4372
  453MOL0     C61086   6.772   0.506   5.103 -0.5469 -0.5055  0.6240
  453MOL0     C61087   6.837   0.399   5.038  0.1875  0.2655 -0.7908
  453MOL0     H61088   7.081   0.030   5.101 -1.8085 -2.4099  1.7346
  453MOL0     H61089   7.177  -0.208   5.081  1.3920  2.3482  0.9969
  453MOL0     H61090   7.337  -0.412   4.989  0.3932 -5.1486  0.0580
  453MOL0     H61091   7.167  -0.458   5.001 -0.7497 -0.2129  0.2979
  453MOL0     H61092   7.365  -0.532   4.778 -1.8206 -0.6850 -2.1972
  453MOL0     H61093   7.285  -0.641   4.904  2.7535  0.9041  0.8446
  453MOL0     H61094   7.094  -0.495   4.736  1.2433  1.3701  1.0309
  453MOL0     H61095   7.228  -0.561   4.640  1.9542 -0.1728  1.3336
  453MOL0     H61096   7.195  -0.773   4.752 -0.6636 -0.3037  1.3576
  453MOL0     H61097   7.042  -0.721   4.827 -3.4952  3.3098 -2.4101
  453MOL0     H61098   6.959  -0.656   4.587 -1.4968 -0.2113 -1.5372
  453MOL0     H61099   7.100  -0.750   4.527  2.6319  0.1772  1.6473
  453MOL0     H61100   6.845  -0.826   4.652 -0.0892  1.5410  0.8175
  453MOL0     H61101   6.911  -0.895   4.502 -2.9969  1.3267 -0.1434
  453MOL0     H61102   7.016  -0.966   4.785  0.9484  1.1051 -0.1488
  453MOL0     H61103   6.924  -1.070   4.657 -0.2478 -0.9796  0.8091
  453MOL0     H61104   7.192  -0.960   4.640 -2.5138  2.6926 -1.0326
  453MOL0     H61105   7.109  -1.039   4.508 -2.5160 -0.8106  0.1692
  453MOL0     H61106   7.123  -1.302   4.525 -1.7340 -0.2816 -0.4016
  453MOL0     H61107   7.183  -1.550   4.753  1.7404 -2.6274 -1.0815
  453MOL0     H61108   7.231  -1.525   4.590 -1.5880 -0.6036 -0.7316
  453MOL0     H61109   7.430  -1.523   4.819 -0.4932 -1.0529  0.3240
  453MOL0     H61110   7.465  -1.447   4.670  1.6973 -1.0012  0.4124
  453MOL0     H61111   7.416  -1.653   4.527 -2.6316  1.9283  0.6079
  453MOL0     H61112   7.376  -1.742   4.677  0.5995  1.7453  5.8948
  453MOL0     H61113   7.593  -1.800   4.595 -0.3942 -1.0187  1.2362
  453MOL0     H61114   7.605  -1.717   4.748  0.1590  1.3460 -0.1312
  453MOL0     H61115   7.781  -1.441   4.425 -2.5321 -0.5903  1.6861
  453MOL0     H61116   7.933  -1.330   4.334 -0.1079 -0.8083  1.0178
  453MOL0     H61117   8.112  -1.357   4.370  0.0613  1.0800 -3.1529
  453MOL0     H61118   8.041  -1.443   4.245  1.6755 -1.5392  0.7409
  453MOL0     H61119   8.437  -1.402   4.265 -0.6404  0.2310 -0.2983
  453MOL0     H61120   8.661  -1.457   4.217  2.0888 -2.1462 -2.4873
  453MOL0     H61121   8.950  -1.806   4.296  0.3596 -0.3077 -0.8157
  453MOL0     H61122   8.801  -1.859   4.359 -1.0710  0.4086 -0.1438
  453MOL0     H61123   8.911  -2.004   4.173 -0.3872 -0.9402  0.2566
  453MOL0     H61124   8.762  -1.935   4.102  0.0363  0.3012  0.6252
  453MOL0     H61125   9.009  -1.775   4.088 -2.4777  1.0401  1.3192
  453MOL0     H61126   8.870  -1.798   3.972 -2.0248 -3.3725  0.9647
  453MOL0     H61127   9.122  -1.960   4.010  0.2200 -1.1309 -2.0110
  453MOL0     H61128   8.974  -2.042   3.949 -0.0481 -0.7321 -2.0773
  453MOL0     H61129   8.990  -1.888   3.750 -1.2557 -0.0701  1.9161
  453MOL0     H61130   9.139  -1.954   3.770  3.0828  2.5032 -0.4223
  453MOL0     H61131   9.184  -1.749   3.939  2.1243 -0.4373 -1.0102
  453MOL0     H61132   9.218  -1.738   3.766  2.4553  0.7246  2.5264
  453MOL0     H61133   8.979  -1.593   3.900 -0.2847 -1.1851 -0.7687
  453MOL0     H61134   8.998  -1.615   3.725  3.0683 -0.9006 -2.4656
  453MOL0     H61135   9.085  -1.404   3.762  0.9712  0.8115 -0.9799
  453MOL0     H61136   9.224  -1.497   3.741 -1.4629  0.7975 -2.3480
  453MOL0     H61137   8.588  -1.881   4.269 -2.3378  0.1064  3.0450
  453MOL0     H61138   8.336  -1.817   4.312 -2.7607  3.3278  1.7658
  453MOL0     H61139   8.060  -1.792   4.629  1.5696  2.2060  0.7271
  453MOL0     H61140   7.816  -1.786   4.676 -0.7482 -1.8864 -2.3001
  453MOL0     H61141   7.101  -0.179   4.663  1.9208  0.7701  0.0179
  453MOL0     H61142   7.003   0.043   4.684 -0.0390 -2.5189 -1.4159
  453MOL0     H61143   6.579   0.211   4.944  1.4015  0.8432 -1.5865
  453MOL0     H61144   6.450   0.417   5.039 -0.4166 -0.6115 -3.8404
  453MOL0     H61145   6.554   0.805   5.223  0.2371  2.4741 -2.9746
  453MOL0     H61146   6.703   0.713   5.244 -1.1105 -4.2166  0.0400
  453MOL0     H61147   6.726   0.731   4.989 -0.7791  1.6226 -2.1662
  453MOL0     H61148   6.748   0.882   5.089  0.4882 -0.0685  1.3727
  453MOL0     H61149   6.514   0.796   4.915  0.9090 -0.4669 -0.0094
  453MOL0     H61150   6.632   0.911   4.868 -1.9494 -2.4977 -1.8321
  453MOL0     H61151   6.415   0.942   5.063 -1.0303 -0.1184 -0.9735
  453MOL0     H61152   6.461   1.055   4.936 -2.1644  0.2784  1.4403
  453MOL0     H61153   6.651   1.262   5.218 -1.2366 -0.0248  0.0183
  453MOL0     H61154   6.835   0.574   5.159  1.6116 -1.1845 -0.8395
  453MOL0     H61155   6.943   0.411   5.052 -0.3344  1.6844  2.9754
  454MOL0     O61156   0.944   7.744   5.909 -0.6100 -0.6930 -0.4200
  454MOL0     C61157   0.916   7.666   5.997  0.2044  1.0131  0.1830
  454MOL0     O61158   0.990   7.634   6.107  0.6222 -0.1362  0.0795
  454MOL0     C61159   1.111   7.686   6.117 -0.1881  0.0846  0.2344
  454MOL0     C61160   1.148   7.763   6.225  0.5089  0.1188 -0.0485
  454MOL0     C61161   1.279   7.812   6.231 -0.3151  0.9372 -0.2853
  454MOL0     C61162   1.371   7.800   6.129  0.1642  0.6903 -0.6781
  454MOL0     O61163   1.494   7.857   6.122  0.4818 -0.0532 -0.5798
  454MOL0     C61164   1.519   7.989   6.165  0.1296 -0.6395 -1.2242
  454MOL0     C61165   1.647   7.997   6.246 -0.9002  0.4236  0.5632
  454MOL0     C61166   1.623   7.973   6.395 -0.3997 -0.5486  0.4182
  454MOL0     C61167   1.737   7.992   6.484  0.9656  0.3923 -0.3185
  454MOL0     C61168   1.688   7.950   6.621 -0.2054 -0.9335 -0.1197
  454MOL0     C61169   1.805   7.949   6.723  0.9531 -0.8119  0.4031
  454MOL0     C61170   1.915   7.840   6.707  0.1688  0.8559 -0.8918
  454MOL0     C61171   2.038   7.886   6.789  0.1218 -0.4036 -0.5035
  454MOL0     N61172   2.015   7.899   6.935 -0.5393  0.1176  0.5418
  454MOL0     C61173   2.075   7.827   7.038  0.3555  0.3692  0.0896
  454MOL0     C61174   2.033   7.887   7.151  0.4624 -1.2415 -0.4764
  454MOL0     C61175   2.081   7.848   7.285  0.2962 -0.3669 -0.6007
  454MOL0     C61176   2.223   7.897   7.313 -0.1621 -0.2799  0.1712
  454MOL0     C61177   2.231   8.052   7.342  0.0750  0.0947  0.4464
  454MOL0     C61178   2.177   8.103   7.476  0.4155  0.6247 -0.9515
  454MOL0     O61179   2.261   8.212   7.507  0.4558 -0.4649 -0.1939
  454MOL0     C61180   2.215   8.343   7.486  0.0876  1.1538  0.7180
  454MOL0     C61181   2.271   8.427   7.576 -0.7700  0.0379 -0.3720
  454MOL0     C61182   2.245   8.560   7.573  0.5220  0.1118  0.6098
  454MOL0     C61183   2.287   8.643   7.695  0.2230  0.0974 -0.2363
  454MOL0     C61184   2.175   8.611   7.464 -0.3488 -0.2493  0.4942
  454MOL0     C61185   2.128   8.752   7.450 -0.2482  0.7182  0.8728
  454MOL0     O61186   2.036   8.790   7.353 -0.1444 -0.2348  0.3665
  454MOL0     C61187   2.010   8.923   7.336  0.3221  0.0165 -0.9549
  454MOL0     C61188   2.108   9.006   7.288  0.1864  0.8965 -0.3923
  454MOL0     C61189   2.095   9.148   7.297 -0.0088  0.3107  0.7617
  454MOL0     C61190   1.973   9.196   7.343  0.6765  0.4319  0.5064
  454MOL0     O61191   1.962   9.337   7.344 -0.3376  0.0605  0.1230
  454MOL0     C61192   1.889   9.374   7.226 -0.0895  0.4873  1.0283
  454MOL0     C61193   1.921   9.517   7.200 -0.5605  0.3211  0.1827
  454MOL0     C61194   1.806   9.615   7.208  0.6562 -0.2121  0.9301
  454MOL0     C61195   1.761   9.646   7.347 -0.6981 -0.0908  0.0803
  454MOL0     C61196   1.669   9.771   7.356  0.1720  0.1751 -0.4094
  454MOL0     C61197   1.620   9.797   7.503 -0.1795 -0.6686 -0.7629
  454MOL0     C61198   1.538   9.925   7.525  0.8005 -0.3645 -0.2607
  454MOL0     C61199   1.409   9.914   7.436 -1.2337  0.6739  0.3036
  454MOL0    Cl61200   1.305   9.772   7.480 -0.2035  0.3887 -0.2113
  454MOL0     C61201   1.869   9.111   7.383  0.5814 -0.0277 -0.0918
  454MOL0     C61202   1.883   8.974   7.383  0.2841  0.5710  0.6849
  454MOL0     O61203   2.182   8.830   7.528  0.0595 -0.4305 -0.5084
  454MOL0     C61204   2.118   8.519   7.364 -0.0458  0.5505  0.3851
  454MOL0     C61205   2.139   8.389   7.381 -0.4764  0.8072  0.1447
  454MOL0     N61206   1.941   7.984   7.120  0.5518  0.1935 -0.3767
  454MOL0     N61207   1.934   7.991   6.988  0.7368 -0.4797  0.1044
  454MOL0     C61208   1.329   7.726   6.012  0.7101 -0.1845 -0.5902
  454MOL0     C61209   1.202   7.666   6.010 -0.4980  0.4166  0.5881
  454MOL0     C61210   0.782   7.608   5.996 -0.5069 -0.0931 -0.0036
  454MOL0     C61211   0.700   7.602   5.880 -0.5919  0.6099 -0.5986
  454MOL0     C61212   0.575   7.543   5.889  0.6779 -1.1637  0.1858
  454MOL0     C61213   0.516   7.496   6.007 -0.7024 -0.4230  0.1602
  454MOL0     O61214   0.386   7.451   6.029 -0.2740  0.0559  0.2197
  454MOL0     C61215   0.306   7.413   5.915  0.4081 -0.6270 -0.0149
  454MOL0     C61216   0.223   7.541   5.873 -0.1061 -0.0601  0.1580
  454MOL0     C61217   0.098   7.593   5.960 -0.0868  0.4233 -0.1632
  454MOL0     C61218   0.010   7.690   5.880  0.3174  0.3329 -0.2977
  454MOL0     C61219  -0.046   7.642   5.751 -0.6572  0.7591 -0.1205
  454MOL0     C61220  -0.092   7.590   5.658  0.1056  0.4371 -0.0144
  454MOL0     C61221   0.602   7.509   6.120 -1.0940  0.0920  0.0375
  454MOL0     C61222   0.732   7.559   6.115 -0.8857  1.1255  0.6028
  454MOL0     H61223   1.087   7.792   6.310 -0.0348  3.9882 -1.5704
  454MOL0     H61224   1.318   7.860   6.320  4.4723 -0.2458 -1.4541
  454MOL0     H61225   1.529   8.046   6.072  0.3589  3.3201  1.0096
  454MOL0     H61226   1.430   8.024   6.219 -0.2252 -2.1351 -0.7758
  454MOL0     H61227   1.704   7.915   6.202  0.6439  2.5116 -1.5248
  454MOL0     H61228   1.701   8.088   6.219 -1.1122  0.6581  0.9214
  454MOL0     H61229   1.549   8.052   6.412  1.1628  0.6451  2.1726
  454MOL0     H61230   1.564   7.882   6.409 -1.6537  0.4073  1.7121
  454MOL0     H61231   1.822   7.929   6.457  0.6507  0.1076 -0.6500
  454MOL0     H61232   1.766   8.097   6.488 -1.9017  1.2341  2.7439
  454MOL0     H61233   1.611   8.022   6.649  0.6817  0.2115 -0.5190
  454MOL0     H61234   1.655   7.847   6.614  1.3634 -1.4938  0.3022
  454MOL0     H61235   1.847   8.049   6.708  1.0867 -0.9713 -0.3304
  454MOL0     H61236   1.768   7.943   6.825  1.5454  0.3836  0.7126
  454MOL0     H61237   1.875   7.744   6.740  0.1959  1.1463  0.0132
  454MOL0     H61238   1.945   7.834   6.602 -1.9879  0.1268 -1.5026
  454MOL0     H61239   2.047   7.987   6.747 -0.3907 -0.4191 -0.6661
  454MOL0     H61240   2.137   7.847   6.765  0.2555 -1.5166  1.6776
  454MOL0     H61241   2.155   7.754   7.027  1.1482  1.1311  0.7334
  454MOL0     H61242   2.012   7.902   7.350  2.0214 -0.9150  1.8310
  454MOL0     H61243   2.077   7.740   7.301 -2.1054 -0.1306  0.9417
  454MOL0     H61244   2.295   7.861   7.239  0.4023  3.5650 -1.3875
  454MOL0     H61245   2.254   7.842   7.402  4.4743 -1.5617 -1.9389
  454MOL0     H61246   2.174   8.109   7.268  1.5070 -0.2468 -0.9897
  454MOL0     H61247   2.334   8.087   7.338 -0.7090  2.4324 -2.2542
  454MOL0     H61248   2.182   8.027   7.554 -3.1951 -0.1856 -1.3410
  454MOL0     H61249   2.072   8.132   7.481 -0.0556 -0.7267  5.7209
  454MOL0     H61250   2.335   8.395   7.658  1.5715  2.1178 -1.2545
  454MOL0     H61251   2.198   8.698   7.728  0.3906 -0.3666  1.0365
  454MOL0     H61252   2.322   8.589   7.784 -0.5580 -0.4035 -0.2221
  454MOL0     H61253   2.373   8.707   7.676  1.3674 -0.3454  2.9250
  454MOL0     H61254   2.204   8.965   7.258 -0.1537 -0.2999  0.1115
  454MOL0     H61255   2.170   9.210   7.249 -0.0013 -0.0212  0.3384
  454MOL0     H61256   1.908   9.310   7.140 -2.1489  0.2034  0.7259
  454MOL0     H61257   1.781   9.360   7.236 -0.4970  2.0215 -0.7595
  454MOL0     H61258   1.998   9.554   7.268  0.5724  0.0773 -0.9198
  454MOL0     H61259   1.965   9.519   7.100 -0.9256 -6.2985 -0.5884
  454MOL0     H61260   1.724   9.573   7.148 -0.7597  0.4215  2.3484
  454MOL0     H61261   1.836   9.707   7.158  1.9626 -0.4636  1.2289
  454MOL0     H61262   1.696   9.569   7.389 -1.6282  1.8889  2.5425
  454MOL0     H61263   1.846   9.669   7.412 -2.6291  5.8556  1.1485
  454MOL0     H61264   1.576   9.755   7.301  0.7974 -0.8387 -1.2122
  454MOL0     H61265   1.713   9.859   7.310  1.0634  0.9265  1.7174
  454MOL0     H61266   1.563   9.714   7.547  2.5050 -2.7485 -0.9582
  454MOL0     H61267   1.706   9.787   7.570 -1.4369 -0.6853  0.9321
  454MOL0     H61268   1.594  10.017   7.503 -1.5130  1.7203  1.7988
  454MOL0     H61269   1.503   9.933   7.629  0.0212 -2.6371 -0.2904
  454MOL0     H61270   1.440   9.912   7.331 -1.5625 -0.2077  0.2141
  454MOL0     H61271   1.352  10.004   7.459 -1.9945  0.3087 -0.1302
  454MOL0     H61272   1.771   9.152   7.408  0.3501 -0.7556  0.2128
  454MOL0     H61273   1.805   8.909   7.420  0.3312  0.1974  0.1529
  454MOL0     H61274   2.066   8.557   7.276  0.4060  1.2807  0.4295
  454MOL0     H61275   2.107   8.326   7.298  2.4207  1.3814 -1.5860
  454MOL0     H61276   1.392   7.703   5.927  0.2767  2.6455 -1.7818
  454MOL0     H61277   1.185   7.593   5.932 -0.9581 -2.2487  3.0041
  454MOL0     H61278   0.733   7.633   5.782  0.8063  1.7370  0.1779
  454MOL0     H61279   0.521   7.538   5.795 -0.7854 -2.4165  1.0370
  454MOL0     H61280   0.352   7.373   5.825 -0.7972 -4.9805  1.1015
  454MOL0     H61281   0.237   7.331   5.938 -0.9048  0.3918 -0.1731
  454MOL0     H61282   0.194   7.537   5.767  2.8129 -0.0984 -0.7378
  454MOL0     H61283   0.289   7.628   5.867 -1.2952  0.8927  0.5346
  454MOL0     H61284   0.124   7.646   6.052  0.3987 -0.5400  0.2665
  454MOL0     H61285   0.037   7.506   5.987 -0.7580  0.4464 -1.5201
  454MOL0     H61286   0.067   7.779   5.851 -0.7885 -0.3143 -5.3723
  454MOL0     H61287  -0.077   7.712   5.942  1.2328 -0.1314  1.2173
  454MOL0     H61288  -0.147   7.565   5.570  0.0231  0.6849 -0.0330
  454MOL0     H61289   0.557   7.462   6.207 -2.1302 -2.7192 -1.8743
  454MOL0     H61290   0.795   7.548   6.203  1.4985 -1.2535 -1.2404
  455MOL0     O61291   9.615   9.932   6.561  0.0047  0.2486 -0.0725
  455MOL0     C61292   9.718   9.870   6.539  0.3031 -0.1363 -0.3437
  455MOL0     O61293   9.738   9.760   6.456  0.1307  0.3496 -0.0854
  455MOL0     C61294   9.661   9.730   6.344 -0.0745 -0.4085  0.2244
  455MOL0     C61295   9.735   9.701   6.232  0.1159 -0.2423  0.0401
  455MOL0     C61296   9.680   9.654   6.118  0.4396 -0.4309 -0.4913
  455MOL0     C61297   9.545   9.621   6.111  1.6500  0.0708  0.2799
  455MOL0     O61298   9.499   9.557   5.997  0.7910  0.0522 -0.4067
  455MOL0     C61299   9.367   9.508   5.992  0.2226  0.4218  0.1723
  455MOL0     C61300   9.333   9.419   5.872  0.1260  0.6890  1.2475
  455MOL0     C61301   9.373   9.499   5.744 -0.3177  0.3776  0.2509
  455MOL0     C61302   9.357   9.410   5.625  0.0193 -0.9323  0.2958
  455MOL0     C61303   9.353   9.492   5.498  0.9345  0.1203  1.2596
  455MOL0     C61304   9.478   9.566   5.452  0.3496 -0.1488 -0.5155
  455MOL0     C61305   9.448   9.657   5.333  0.5348  0.0272  0.6607
  455MOL0     C61306   9.564   9.754   5.322 -0.2401 -0.1116  0.2186
  455MOL0     N61307   9.553   9.860   5.217 -0.8292  0.1822 -0.1789
  455MOL0     C61308   9.507   9.837   5.091 -0.1199  0.9483  0.1277
  455MOL0     C61309   9.530   9.950   5.020 -1.3356 -0.2714  0.1958
  455MOL0     C61310   9.507   9.996   4.876  0.3407  0.3044 -0.1127
  455MOL0     C61311   9.618   9.934   4.794 -0.0096  0.3416 -0.1699
  455MOL0     C61312   9.571   9.930   4.648 -0.2446 -0.3248 -0.6921
  455MOL0     C61313   9.691   9.908   4.547  0.5344  0.5906 -0.8019
  455MOL0     O61314   9.752   9.780   4.574  0.2152 -0.2782 -0.8031
  455MOL0     C61315   9.891   9.759   4.563  0.4255  0.0920  0.2957
  455MOL0     C61316   9.971   9.823   4.470 -0.8873 -0.1600 -0.2129
  455MOL0     C61317  10.115   9.803   4.471  0.2356 -0.3836  0.3280
  455MOL0     C61318  10.202   9.901   4.394 -1.1087 -0.5346 -0.3152
  455MOL0     C61319  10.166   9.686   4.536 -0.5142 -0.7162  0.3446
  455MOL0     C61320  10.314   9.638   4.525 -0.1406  0.0923 -1.0660
  455MOL0     O61321  10.343   9.521   4.580  0.1353  0.1745 -1.6136
  455MOL0     C61322  10.467   9.480   4.628 -0.1334  0.5954 -1.1071
  455MOL0     C61323  10.592   9.511   4.584 -0.4285 -1.0973  0.2160
  455MOL0     C61324  10.706   9.463   4.640  0.5489 -0.1308  0.1974
  455MOL0     C61325  10.707   9.375   4.751  0.3233 -0.6963  0.9883
  455MOL0     O61326  10.822   9.348   4.824 -0.2361  0.3211  0.2938
  455MOL0     C61327  10.926   9.442   4.813 -0.4187 -0.1756  0.9887
  455MOL0     C61328  11.035   9.414   4.921  0.3487  0.0246 -0.1933
  455MOL0     C61329  11.147   9.516   4.940 -0.2045 -0.3626 -0.0676
  455MOL0     C61330  11.104   9.666   4.929  0.0089  0.0073 -0.5650
  455MOL0     C61331  11.217   9.759   4.966  0.0160  0.5325 -0.2548
  455MOL0     C61332  11.180   9.910   4.984  0.9174  0.2002 -0.6656
  455MOL0     C61333  11.122   9.986   4.863 -0.1400 -0.2838  0.0393
  455MOL0     C61334  11.024  10.103   4.893  0.0190 -0.4795  0.2050
  455MOL0    Cl61335  10.889  10.059   4.997  0.3002 -0.5144 -0.1173
  455MOL0     C61336  10.580   9.322   4.788  0.1425 -0.2073 -0.5778
  455MOL0     C61337  10.467   9.376   4.729  0.9924  0.0275  0.1032
  455MOL0     O61338  10.398   9.725   4.485 -0.5182 -0.3966 -0.5227
  455MOL0     C61339  10.081   9.611   4.628 -0.4699  0.3181 -0.0127
  455MOL0     C61340   9.947   9.651   4.639  0.6207 -0.1305 -0.1897
  455MOL0     N61341   9.597  10.034   5.110  0.0467  0.4232 -1.4232
  455MOL0     N61342   9.591   9.988   5.231 -0.1051  0.1734 -0.2767
  455MOL0     C61343   9.469   9.659   6.222 -0.2390  0.3920 -0.0133
  455MOL0     C61344   9.514   9.728   6.337 -0.5969 -0.5003 -0.1369
  455MOL0     C61345   9.838   9.929   6.592  0.2481 -0.2869  0.1815
  455MOL0     C61346   9.963   9.893   6.534  0.2952  0.0944  0.3370
  455MOL0     C61347  10.078   9.944   6.585 -0.2791  0.0400 -0.4241
  455MOL0     C61348  10.076  10.046   6.684  0.0851 -0.5093 -0.9105
  455MOL0     O61349  10.194  10.090   6.729 -0.2143  0.5525 -0.6032
  455MOL0     C61350  10.207  10.167   6.850 -0.7179  0.1003  0.0364
  455MOL0     C61351  10.223  10.098   6.981  0.5309 -0.1012 -0.3920
  455MOL0     C61352  10.335   9.984   6.974  0.0598 -0.4933  0.1835
  455MOL0     C61353  10.400   9.967   7.107  0.2265 -1.1353  0.2744
  455MOL0     C61354  10.498  10.074   7.134  0.0719  0.1458 -0.5874
  455MOL0     C61355  10.583  10.154   7.156 -0.0667  0.4895  0.2096
  455MOL0     C61356   9.950  10.083   6.740  0.8851  0.7077  0.4405
  455MOL0     C61357   9.826  10.024   6.697  0.1671 -0.4235 -0.4656
  455MOL0     H61358   9.841   9.690   6.252 -0.2414 -1.6346  1.3371
  455MOL0     H61359   9.735   9.629   6.028  0.0132  0.1317 -0.9165
  455MOL0     H61360   9.344   9.448   6.081 -1.4545  2.4479  1.1933
  455MOL0     H61361   9.299   9.594   5.994  0.2556  0.4410  0.5039
  455MOL0     H61362   9.378   9.321   5.887 -3.4129 -1.2401  0.2885
  455MOL0     H61363   9.224   9.412   5.867  0.1068  0.4888  1.8412
  455MOL0     H61364   9.301   9.581   5.736 -0.4025  0.3066  0.2885
  455MOL0     H61365   9.473   9.544   5.744  0.6135 -1.5035  2.0438
  455MOL0     H61366   9.434   9.333   5.616  1.3967  0.5230 -1.2285
  455MOL0     H61367   9.267   9.350   5.640  0.3618 -1.3338  0.7950
  455MOL0     H61368   9.333   9.417   5.421  0.1679  1.7965 -0.2615
  455MOL0     H61369   9.270   9.563   5.495  3.7624  3.7592  2.3215
  455MOL0     H61370   9.524   9.622   5.533 -0.4214  2.4904 -1.7791
  455MOL0     H61371   9.568   9.511   5.421  0.5405  0.0441 -0.2965
  455MOL0     H61372   9.442   9.587   5.249 -1.0427  1.8850 -0.8990
  455MOL0     H61373   9.351   9.708   5.337  0.0107 -1.0378  2.9938
  455MOL0     H61374   9.653   9.695   5.298 -0.4784 -1.0252  1.4669
  455MOL0     H61375   9.597   9.802   5.415  0.3175  2.3105 -1.1508
  455MOL0     H61376   9.466   9.743   5.054  0.4658  0.5053  0.5656
  455MOL0     H61377   9.408   9.971   4.837 -0.4068 -1.0260  2.4066
  455MOL0     H61378   9.520  10.104   4.871 -0.1081  0.3844  0.3381
  455MOL0     H61379   9.631   9.830   4.827  0.8872 -0.2016 -2.1073
  455MOL0     H61380   9.714   9.984   4.810 -0.7089  1.4643  0.6552
  455MOL0     H61381   9.537  10.032   4.626  1.4620  0.0964 -1.5809
  455MOL0     H61382   9.486   9.861   4.641 -3.9318  3.2680  2.9900
  455MOL0     H61383   9.754   9.997   4.542 -0.2029  1.1177 -0.8344
  455MOL0     H61384   9.651   9.894   4.447  0.6226 -0.0056 -0.7568
  455MOL0     H61385   9.921   9.901   4.413 -1.1169  0.1616  0.4117
  455MOL0     H61386  10.292   9.930   4.448  0.3558  1.2289 -3.4284
  455MOL0     H61387  10.253   9.867   4.303  0.6060 -2.0495  1.1190
  455MOL0     H61388  10.151   9.997   4.381 -2.2167 -1.1308 -0.5047
  455MOL0     H61389  10.600   9.571   4.494  0.6668  0.2722  1.1899
  455MOL0     H61390  10.803   9.505   4.615  1.9447 -3.2309 -0.0212
  455MOL0     H61391  10.984   9.446   4.721 -0.7052  3.0549  0.8248
  455MOL0     H61392  10.872   9.536   4.831 -1.8567 -0.8046  0.1107
  455MOL0     H61393  10.984   9.405   5.017 -0.5565 -0.3675 -0.6956
  455MOL0     H61394  11.080   9.319   4.893 -0.6890 -1.4674  2.7429
  455MOL0     H61395  11.227   9.480   4.875 -0.0676 -1.7601  0.8049
  455MOL0     H61396  11.182   9.519   5.044 -1.4674  0.7881  0.3604
  455MOL0     H61397  11.063   9.681   4.829 -0.1209 -1.8405 -0.8343
  455MOL0     H61398  11.021   9.684   4.997  0.0359 -1.8054  0.0048
  455MOL0     H61399  11.293   9.742   4.889 -0.3507 -0.1702 -0.4677
  455MOL0     H61400  11.266   9.721   5.057 -0.0176  0.0340 -0.4432
  455MOL0     H61401  11.106   9.913   5.064  1.3724  5.4179 -0.1142
  455MOL0     H61402  11.272   9.955   5.023  0.6201  1.3630 -1.2689
  455MOL0     H61403  11.073   9.922   4.789 -1.4524  1.9984 -1.1709
  455MOL0     H61404  11.215  10.027   4.821  0.8753  1.8213  3.8832
  455MOL0     H61405  10.985  10.161   4.808 -2.1212 -1.1200  0.6771
  455MOL0     H61406  11.085  10.181   4.940 -2.5732  3.5499 -2.3916
  455MOL0     H61407  10.574   9.244   4.863  0.1203  1.3734  1.1325
  455MOL0     H61408  10.368   9.343   4.756  1.3603  0.5349  2.3175
  455MOL0     H61409  10.113   9.523   4.683 -2.2268  2.1818  4.4098
  455MOL0     H61410   9.879   9.596   4.704  0.1384 -0.9590 -1.3580
  455MOL0     H61411   9.366   9.625   6.236  0.5920 -2.0606  0.7326
  455MOL0     H61412   9.458   9.748   6.427  1.1633 -1.1229  1.1608
  455MOL0     H61413   9.982   9.826   6.450  1.5399 -0.7165  1.2140
  455MOL0     H61414  10.173   9.908   6.547  0.9232  2.9718 -0.4772
  455MOL0     H61415  10.304  10.217   6.840 -0.2672 -1.0415 -1.7227
  455MOL0     H61416  10.128  10.243   6.847 -2.7741 -1.9953 -1.6409
  455MOL0     H61417  10.126  10.054   7.005  1.7507 -3.0105 -0.4204
  455MOL0     H61418  10.250  10.174   7.055  2.5285 -2.1189  1.0975
  455MOL0     H61419  10.399  10.000   6.887 -2.5416 -1.4517 -2.0239
  455MOL0     H61420  10.281   9.889   6.965  1.5418 -1.3711  0.0778
  455MOL0     H61421  10.445   9.867   7.105 -0.4162 -1.4426  0.6393
  455MOL0     H61422  10.323   9.960   7.185 -1.9120  0.0477 -1.5907
  455MOL0     H61423  10.654  10.231   7.181  0.3065  0.8428 -1.7841
  455MOL0     H61424   9.942  10.160   6.816  0.2415  0.3158  0.7853
  455MOL0     H61425   9.730  10.049   6.742 -1.0219  0.8350 -3.4261
  456MOL0     O61426   0.258   8.061   6.552 -0.0130  0.1673 -0.2950
  456MOL0     C61427   0.153   8.012   6.597 -0.0928 -0.5259 -0.0298
  456MOL0     O61428   0.121   7.974   6.727  0.5275 -0.6726  0.7515
  456MOL0     C61429   0.213   7.998   6.825 -0.4997  0.2605  0.6350
  456MOL0     C61430   0.256   7.892   6.897  0.2250 -0.3174 -0.1679
  456MOL0     C61431   0.354   7.911   6.994  0.0452  0.2683 -0.1452
  456MOL0     C61432   0.399   8.033   7.028 -0.4109  0.1949 -0.3138
  456MOL0     O61433   0.473   8.046   7.143  0.4670 -0.4553  0.1734
  456MOL0     C61434   0.533   8.174   7.174 -0.9730  0.2725 -0.0697
  456MOL0     C61435   0.632   8.171   7.290 -0.6816 -0.4139 -0.5315
  456MOL0     C61436   0.558   8.183   7.426  0.1645 -0.3917 -0.3867
  456MOL0     C61437   0.477   8.057   7.485  0.2574  0.1631  0.1890
  456MOL0     C61438   0.366   8.084   7.607 -1.2525 -0.5318  0.2736
  456MOL0     C61439   0.316   7.956   7.673 -0.0704  0.5301 -0.6663
  456MOL0     C61440   0.244   7.859   7.574 -0.1880  0.5360  0.6206
  456MOL0     C61441   0.110   7.915   7.515 -0.1979  0.1100 -0.4641
  456MOL0     N61442   0.042   7.821   7.429  0.2097  1.2157 -0.6945
  456MOL0     C61443   0.065   7.806   7.294 -0.1111  1.2250  0.3439
  456MOL0     C61444  -0.015   7.711   7.251 -0.1728  0.5504  0.3003
  456MOL0     C61445  -0.033   7.660   7.108 -0.0168  0.8080  0.5439
  456MOL0     C61446  -0.157   7.715   7.038  0.1010 -0.0004 -0.3246
  456MOL0     C61447  -0.159   7.708   6.883  0.6236  0.8123 -0.6105
  456MOL0     C61448  -0.155   7.559   6.831  0.6244 -0.7552 -1.7348
  456MOL0     O61449  -0.112   7.540   6.696 -0.1056 -0.2603 -0.0169
  456MOL0     C61450   0.022   7.568   6.673  0.5284  0.7065 -0.5956
  456MOL0     C61451   0.053   7.575   6.544 -0.2738 -0.2060  0.7159
  456MOL0     C61452   0.186   7.593   6.499 -0.7745  1.2962  0.1012
  456MOL0     C61453   0.199   7.602   6.351 -0.6729  0.6714  0.7878
  456MOL0     C61454   0.300   7.599   6.590  0.4496  0.2516  1.1584
  456MOL0     C61455   0.445   7.633   6.567  0.4735  0.5023  0.2919
  456MOL0     O61456   0.523   7.645   6.684 -0.1747 -0.1511  0.9542
  456MOL0     C61457   0.660   7.620   6.679  0.3182 -0.2237 -0.5821
  456MOL0     C61458   0.713   7.576   6.797  0.9323 -0.6783 -0.3461
  456MOL0     C61459   0.839   7.529   6.817  0.0129  1.2596 -1.0862
  456MOL0     C61460   0.929   7.537   6.707  0.3216 -0.1918 -0.2827
  456MOL0     O61461   1.064   7.498   6.717  0.6361 -1.0355 -0.1803
  456MOL0     C61462   1.120   7.475   6.848  0.7212  0.5688  0.4290
  456MOL0     C61463   1.257   7.406   6.829 -0.4225 -0.7592 -0.3912
  456MOL0     C61464   1.269   7.260   6.797 -0.1553  0.1448 -0.1792
  456MOL0     C61465   1.415   7.216   6.757  0.5028 -0.0273 -1.2558
  456MOL0     C61466   1.452   7.069   6.742 -0.2897 -0.0686  0.1372
  456MOL0     C61467   1.367   7.003   6.629  0.0407 -0.3475  0.7169
  456MOL0     C61468   1.381   6.842   6.629  0.8822 -0.4107 -0.0215
  456MOL0     C61469   1.351   6.776   6.502  0.4449  0.7826  0.1695
  456MOL0    Cl61470   1.462   6.646   6.475 -0.6584 -0.6346  0.1476
  456MOL0     C61471   0.882   7.594   6.584  0.4577  0.7036 -0.5827
  456MOL0     C61472   0.743   7.614   6.577 -0.7879 -0.5175 -0.4327
  456MOL0     O61473   0.483   7.627   6.449 -0.2319 -0.1158 -0.6206
  456MOL0     C61474   0.259   7.588   6.721 -0.7923 -0.5626 -0.1597
  456MOL0     C61475   0.130   7.569   6.770  0.0736  0.1701  0.0958
  456MOL0     N61476  -0.078   7.661   7.361 -0.0360 -0.4377 -0.5982
  456MOL0     N61477  -0.064   7.739   7.464 -0.8646 -0.4087  0.2880
  456MOL0     C61478   0.348   8.144   6.964  0.7002 -0.0460 -0.0905
  456MOL0     C61479   0.262   8.128   6.862  0.4527 -0.6322 -0.6154
  456MOL0     C61480   0.060   7.983   6.494  0.7059  0.7558 -0.5313
  456MOL0     C61481   0.071   8.039   6.363  0.1992  0.6308  0.0935
  456MOL0     C61482  -0.001   7.980   6.262 -0.5834  1.4013 -0.2442
  456MOL0     C61483  -0.102   7.883   6.289  0.7202  1.2367 -0.1651
  456MOL0     O61484  -0.175   7.829   6.184 -0.0991  0.4834  0.1998
  456MOL0     C61485  -0.255   7.920   6.115 -0.4543  0.4604  0.2826
  456MOL0     C61486  -0.379   7.849   6.059 -0.3152 -1.0336  0.1283
  456MOL0     C61487  -0.474   7.952   5.995 -0.3471  0.5492  0.0704
  456MOL0     C61488  -0.619   7.937   6.044 -0.1887 -0.2651  0.4563
  456MOL0     C61489  -0.647   8.019   6.168 -1.3440 -0.2069 -0.5628
  456MOL0     C61490  -0.688   8.079   6.265 -0.5382  0.2827 -0.7444
  456MOL0     C61491  -0.136   7.845   6.415 -0.6371 -0.5078  0.0842
  456MOL0     C61492  -0.052   7.897   6.522  1.2349  0.3865 -0.0641
  456MOL0     H61493   0.220   7.793   6.871  4.0084 -1.3240 -2.4425
  456MOL0     H61494   0.390   7.819   7.037  1.4618  1.2959  0.9528
  456MOL0     H61495   0.585   8.206   7.083  1.4734  0.2368  1.2196
  456MOL0     H61496   0.452   8.245   7.195  1.6221  2.6528  3.0150
  456MOL0     H61497   0.688   8.077   7.281 -0.1437 -0.0854 -0.6711
  456MOL0     H61498   0.710   8.247   7.282  1.2177 -2.3306 -1.5288
  456MOL0     H61499   0.640   8.205   7.495 -0.7618 -0.4031  0.7363
  456MOL0     H61500   0.488   8.267   7.422 -1.9450 -1.8809  2.0866
  456MOL0     H61501   0.419   8.015   7.402 -0.2690 -0.8782  1.0648
  456MOL0     H61502   0.547   7.981   7.520  2.1702  1.6654 -0.2245
  456MOL0     H61503   0.415   8.150   7.679 -2.7308  2.5128 -1.3393
  456MOL0     H61504   0.282   8.139   7.565 -1.2844 -0.4342  0.4647
  456MOL0     H61505   0.397   7.897   7.718 -0.7619 -1.1973 -1.5709
  456MOL0     H61506   0.256   7.979   7.762 -0.7034  0.4133 -1.0596
  456MOL0     H61507   0.305   7.806   7.499 -0.7309  1.1110 -0.2480
  456MOL0     H61508   0.208   7.775   7.634 -0.9438  0.6732  0.3653
  456MOL0     H61509   0.117   8.008   7.457 -0.5264 -1.8135 -3.8497
  456MOL0     H61510   0.048   7.933   7.603 -0.5933 -0.0804 -0.7067
  456MOL0     H61511   0.113   7.870   7.220  0.0953  0.8704  0.1701
  456MOL0     H61512   0.050   7.708   7.056 -0.9099  1.8161 -0.0092
  456MOL0     H61513  -0.039   7.551   7.101 -0.4298  0.7254  1.9640
  456MOL0     H61514  -0.176   7.814   7.080 -2.4676 -1.5687  2.6351
  456MOL0     H61515  -0.235   7.642   7.062  2.7768 -2.7733  0.6575
  456MOL0     H61516  -0.073   7.764   6.844  1.9892 -1.4245 -1.0332
  456MOL0     H61517  -0.254   7.754   6.855  0.5324  2.2018  1.7235
  456MOL0     H61518  -0.255   7.524   6.860  0.0448  0.0192 -2.7411
  456MOL0     H61519  -0.084   7.505   6.895  1.9498 -1.0578 -3.3894
  456MOL0     H61520  -0.037   7.590   6.485 -0.9417 -1.2600  1.4293
  456MOL0     H61521   0.291   7.550   6.324 -0.2606  0.4349  2.5458
  456MOL0     H61522   0.117   7.545   6.306  1.7573 -1.9099 -0.6990
  456MOL0     H61523   0.219   7.700   6.308  1.8193 -1.4192 -3.4664
  456MOL0     H61524   0.644   7.587   6.881  2.1162  0.6620  0.4932
  456MOL0     H61525   0.883   7.486   6.906  0.9466  1.3469 -1.4915
  456MOL0     H61526   1.122   7.568   6.907  1.6770 -0.3039  1.8392
  456MOL0     H61527   1.083   7.398   6.917  1.7302  0.9877  1.4856
  456MOL0     H61528   1.300   7.456   6.741 -0.0345 -1.2772 -0.4981
  456MOL0     H61529   1.320   7.433   6.915  0.6050 -1.3607 -0.9268
  456MOL0     H61530   1.204   7.239   6.712  2.0027  0.0122 -1.8745
  456MOL0     H61531   1.231   7.200   6.881  0.4500  1.1043  0.7988
  456MOL0     H61532   1.441   7.264   6.662  0.4401  0.5148 -1.0066
  456MOL0     H61533   1.481   7.247   6.840 -1.7782 -1.7631  1.3769
  456MOL0     H61534   1.442   7.020   6.840 -0.6616 -1.7073 -0.6747
  456MOL0     H61535   1.559   7.060   6.718 -0.4175 -1.7131  0.0452
  456MOL0     H61536   1.264   7.036   6.640  0.1571  1.5687 -2.6007
  456MOL0     H61537   1.405   7.048   6.536 -2.9844  0.0461 -0.4398
  456MOL0     H61538   1.326   6.791   6.709  1.2264 -1.0171 -0.1655
  456MOL0     H61539   1.489   6.830   6.641  0.9380 -2.9844 -2.2628
  456MOL0     H61540   1.353   6.852   6.424 -3.1635  1.1321  0.2373
  456MOL0     H61541   1.251   6.732   6.498 -0.3940  2.6997 -1.3908
  456MOL0     H61542   0.938   7.607   6.492  0.7799  2.3939 -0.1956
  456MOL0     H61543   0.711   7.644   6.478  3.0682  1.9325 -1.1548
  456MOL0     H61544   0.334   7.588   6.800  0.6198 -0.4157 -1.4621
  456MOL0     H61545   0.110   7.542   6.873 -1.2142  3.5157  0.8547
  456MOL0     H61546   0.387   8.244   6.978  1.8696 -0.6753  1.4890
  456MOL0     H61547   0.231   8.219   6.812 -0.7775  0.0115  1.2213
  456MOL0     H61548   0.155   8.106   6.348  0.3167  0.4458 -0.0929
  456MOL0     H61549   0.042   8.003   6.166  0.2384  2.5332  0.3755
  456MOL0     H61550  -0.282   8.006   6.177  0.4509  1.7644 -1.0825
  456MOL0     H61551  -0.195   7.963   6.035  0.2512 -2.6994 -1.0351
  456MOL0     H61552  -0.430   7.790   6.136 -0.2249  0.1079  1.0916
  456MOL0     H61553  -0.350   7.780   5.980  4.2662  1.2471 -0.5340
  456MOL0     H61554  -0.469   7.938   5.886  0.1726  2.9922 -0.2654
  456MOL0     H61555  -0.441   8.055   6.011 -1.6908  0.9402  0.4648
  456MOL0     H61556  -0.648   7.832   6.048 -0.4855 -0.1852  0.3681
  456MOL0     H61557  -0.682   7.979   5.965  0.8809  1.4636  0.4605
  456MOL0     H61558  -0.713   8.123   6.359  3.0243 -2.0016  1.5358
  456MOL0     H61559  -0.216   7.773   6.431 -1.6002  0.4580 -0.3009
  456MOL0     H61560  -0.078   7.866   6.622 -0.1208 -3.5703 -1.4586
  457MOL0     O61561   6.975   7.511  11.374 -0.5419  0.2475 -0.5253
  457MOL0     C61562   7.032   7.581  11.287  0.1466  0.6240  0.2555
  457MOL0     O61563   7.109   7.680  11.311  0.4620 -0.9836 -0.5227
  457MOL0     C61564   7.139   7.722  11.438  0.2012 -0.3167  0.1682
  457MOL0     C61565   7.265   7.696  11.480  0.0004  0.7552 -0.0979
  457MOL0     C61566   7.315   7.752  11.589 -1.1303  0.1194 -0.8531
  457MOL0     C61567   7.236   7.831  11.674  0.2415 -0.1049 -0.8486
  457MOL0     O61568   7.290   7.880  11.795  0.8394  0.4656  0.0079
  457MOL0     C61569   7.216   7.906  11.915  0.4658 -0.0778 -0.2555
  457MOL0     C61570   7.190   7.785  11.999  0.0135  0.4360  1.8169
  457MOL0     C61571   7.081   7.700  11.937  0.1354  0.4259 -0.8524
  457MOL0     C61572   7.030   7.603  12.040  0.0641  0.2839 -0.0587
  457MOL0     C61573   6.919   7.515  11.989 -0.1789  0.5618 -0.8815
  457MOL0     C61574   6.851   7.424  12.091  0.8046  0.2419  0.7459
  457MOL0     C61575   6.763   7.319  12.010  0.8396  0.9655  0.9308
  457MOL0     C61576   6.687   7.226  12.110  0.4351 -0.2139  0.0565
  457MOL0     N61577   6.578   7.140  12.057  0.0314 -0.2558  0.3724
  457MOL0     C61578   6.588   7.001  12.036  0.2237 -0.7447  0.2396
  457MOL0     C61579   6.460   6.975  11.986 -0.1679 -0.2202 -0.5781
  457MOL0     C61580   6.422   6.834  11.950 -0.2856  0.4021 -0.1586
  457MOL0     C61581   6.271   6.818  11.938  0.8250 -0.3098  0.0724
  457MOL0     C61582   6.231   6.668  11.915 -0.4946 -0.0282  0.3397
  457MOL0     C61583   6.301   6.608  11.792  0.1695  0.6787  0.0508
  457MOL0     O61584   6.229   6.488  11.772 -0.5842  0.2955 -0.3151
  457MOL0     C61585   6.290   6.402  11.681 -0.3338  0.2671  0.3969
  457MOL0     C61586   6.370   6.296  11.727 -0.6318  0.6384  0.3422
  457MOL0     C61587   6.431   6.205  11.636  0.0951 -0.6028  0.3437
  457MOL0     C61588   6.545   6.116  11.701 -0.6703 -0.0215  0.3047
  457MOL0     C61589   6.394   6.202  11.506 -0.5232  0.8998 -0.4049
  457MOL0     C61590   6.418   6.083  11.414  0.0055  0.1075  0.4856
  457MOL0     O61591   6.345   6.079  11.303  0.0370 -0.4181  0.4862
  457MOL0     C61592   6.359   5.962  11.231 -0.5355  0.3869  0.5441
  457MOL0     C61593   6.473   5.935  11.156  0.3962 -0.1782  0.4691
  457MOL0     C61594   6.484   5.813  11.074 -0.8820 -0.2940 -0.6210
  457MOL0     C61595   6.378   5.725  11.078  0.3105 -0.0923  0.2510
  457MOL0     O61596   6.388   5.594  11.031  0.6026  0.0039  0.2761
  457MOL0     C61597   6.510   5.527  11.042 -0.5730 -0.7453  0.5712
  457MOL0     C61598   6.487   5.385  11.008  0.6795  0.1553  0.1476
  457MOL0     C61599   6.445   5.362  10.856  1.0869 -0.2501 -0.3081
  457MOL0     C61600   6.558   5.288  10.785 -0.0249  0.2583 -0.2626
  457MOL0     C61601   6.499   5.200  10.672 -0.5507 -0.5120  0.9316
  457MOL0     C61602   6.617   5.127  10.597  0.1146 -0.0342 -0.1581
  457MOL0     C61603   6.565   5.010  10.507 -0.8833  0.5141 -1.4371
  457MOL0     C61604   6.664   4.891  10.494 -0.8650 -0.5501  0.6272
  457MOL0    Cl61605   6.579   4.755  10.409  0.6333  0.3006  0.4009
  457MOL0     C61606   6.263   5.759  11.126  0.5848 -0.6995 -0.1908
  457MOL0     C61607   6.251   5.879  11.207 -0.5879  0.6955  1.1327
  457MOL0     O61608   6.503   6.000  11.443  0.2836  0.0711 -0.7197
  457MOL0     C61609   6.312   6.306  11.458  0.6340 -0.5122  0.4957
  457MOL0     C61610   6.261   6.414  11.544  0.2153  1.4743 -0.5389
  457MOL0     N61611   6.388   7.095  11.974 -0.7522  1.1974 -1.1134
  457MOL0     N61612   6.469   7.191  12.001  1.0142 -0.7707  0.0642
  457MOL0     C61613   7.101   7.847  11.640  1.0440  0.1031  0.2395
  457MOL0     C61614   7.051   7.789  11.517  0.0299  0.4643 -0.2717
  457MOL0     C61615   7.001   7.556  11.141  0.5640  0.5032  0.9877
  457MOL0     C61616   6.893   7.471  11.097  0.2154  0.7505  0.1116
  457MOL0     C61617   6.876   7.440  10.963  0.8187 -0.0685  0.3762
  457MOL0     C61618   6.954   7.488  10.862 -1.6691 -0.6748 -0.6754
  457MOL0     O61619   6.922   7.450  10.738  1.2310  0.0445  0.1210
  457MOL0     C61620   6.982   7.523  10.635  0.7714 -0.3840 -0.0170
  457MOL0     C61621   6.900   7.509  10.505  1.5482  0.7257  0.1375
  457MOL0     C61622   6.865   7.367  10.455 -0.0333 -0.3676  0.6596
  457MOL0     C61623   6.739   7.361  10.377  0.1825 -0.2241  0.0834
  457MOL0     C61624   6.694   7.221  10.349 -0.3196 -0.1464  0.2145
  457MOL0     C61625   6.657   7.109  10.326  0.1140  0.1566 -0.1937
  457MOL0     C61626   7.066   7.569  10.904  0.0752 -0.6432 -0.0783
  457MOL0     C61627   7.084   7.607  11.044 -0.3691  0.4180  0.0569
  457MOL0     H61628   7.322   7.628  11.418 -2.4528 -3.1427  1.5202
  457MOL0     H61629   7.418   7.733  11.614 -0.7039  1.8084 -1.1767
  457MOL0     H61630   7.284   7.958  11.984 -0.2388  2.3986 -1.3201
  457MOL0     H61631   7.136   7.976  11.891  1.5420  0.9801 -0.8419
  457MOL0     H61632   7.282   7.726  11.996  1.5735  2.6280 -3.1865
  457MOL0     H61633   7.163   7.825  12.098  2.7723  4.5458  1.1520
  457MOL0     H61634   7.000   7.770  11.920 -0.8850 -1.1285 -2.8584
  457MOL0     H61635   7.115   7.651  11.844  2.7793 -1.8396  1.1167
  457MOL0     H61636   7.119   7.545  12.067 -0.1135  0.2780  0.5382
  457MOL0     H61637   7.002   7.658  12.130  0.7113  1.0910 -0.3427
  457MOL0     H61638   6.850   7.576  11.929  1.4098  1.3759 -1.9574
  457MOL0     H61639   6.963   7.440  11.923  1.8611 -0.0073  0.9971
  457MOL0     H61640   6.934   7.370  12.137  0.9633  0.6242  0.9167
  457MOL0     H61641   6.790   7.477  12.164 -1.5074  2.9429 -2.7931
  457MOL0     H61642   6.691   7.373  11.948 -1.9086 -1.0242  2.1714
  457MOL0     H61643   6.828   7.261  11.943 -0.4236  2.3732 -1.6463
  457MOL0     H61644   6.660   7.304  12.182  2.4305  1.3566 -0.8106
  457MOL0     H61645   6.766   7.161  12.148  2.8189  0.4566 -3.3332
  457MOL0     H61646   6.663   6.926  12.060  0.2937 -1.4054 -1.7939
  457MOL0     H61647   6.468   6.805  11.855 -1.5293 -1.1699 -0.3187
  457MOL0     H61648   6.459   6.766  12.026 -0.2919 -0.7031 -1.1126
  457MOL0     H61649   6.215   6.858  11.853 -0.6523 -0.8330  0.7537
  457MOL0     H61650   6.235   6.851  12.036 -0.5982  0.7612 -0.7788
  457MOL0     H61651   6.127   6.647  11.889  0.0348  0.6511 -2.7513
  457MOL0     H61652   6.256   6.618  12.009  1.4650 -1.5871 -0.9279
  457MOL0     H61653   6.401   6.580  11.824  0.0445  1.1041  0.8419
  457MOL0     H61654   6.286   6.679  11.710 -1.9328  0.1334 -0.0879
  457MOL0     H61655   6.383   6.281  11.833 -2.9841  0.2484  0.6360
  457MOL0     H61656   6.561   6.129  11.808 -0.4232 -3.1150  0.7476
  457MOL0     H61657   6.524   6.010  11.683  3.8579 -0.8243 -1.6654
  457MOL0     H61658   6.641   6.134  11.653 -1.6853  0.1841 -1.7840
  457MOL0     H61659   6.556   6.004  11.157  0.7248 -0.5048 -1.1563
  457MOL0     H61660   6.572   5.797  11.012 -2.4405 -3.0108 -2.3498
  457MOL0     H61661   6.576   5.580  10.972 -1.0639  0.6610  1.1341
  457MOL0     H61662   6.546   5.548  11.143 -0.7642 -0.7890  0.6481
  457MOL0     H61663   6.563   5.315  11.042  0.2139 -1.0353 -1.2016
  457MOL0     H61664   6.398   5.366  11.069  0.4823  1.2939  0.2497
  457MOL0     H61665   6.426   5.460  10.811 -0.0764 -0.0682  0.5116
  457MOL0     H61666   6.354   5.302  10.845  0.0425  0.5021  3.0817
  457MOL0     H61667   6.629   5.354  10.734  0.4076 -0.7443 -0.9981
  457MOL0     H61668   6.615   5.229  10.858  2.6001  1.6467 -1.0601
  457MOL0     H61669   6.441   5.263  10.603  0.5724  0.8324  1.1703
  457MOL0     H61670   6.437   5.121  10.714 -1.8429 -0.8819 -1.5052
  457MOL0     H61671   6.672   5.200  10.536  0.6674 -0.1525  0.1915
  457MOL0     H61672   6.677   5.086  10.678  2.5255  0.8290 -1.4029
  457MOL0     H61673   6.530   5.041  10.408 -2.2778 -1.9339 -1.7689
  457MOL0     H61674   6.471   4.977  10.550  0.6516 -2.3474  0.0116
  457MOL0     H61675   6.704   4.843  10.584  0.2518 -0.2039  0.3374
  457MOL0     H61676   6.748   4.927  10.433 -2.1728  0.8266 -0.4154
  457MOL0     H61677   6.170   5.711  11.098 -0.0753  2.3911 -4.2134
  457MOL0     H61678   6.150   5.905  11.240 -3.0190 -3.0912 -2.3297
  457MOL0     H61679   6.282   6.309  11.353  0.4086  0.5092  0.5777
  457MOL0     H61680   6.190   6.482  11.499 -1.5073 -1.4894 -2.7122
  457MOL0     H61681   7.036   7.893  11.715  0.8033 -4.0336  2.8696
  457MOL0     H61682   6.945   7.797  11.494 -0.1130 -0.9791 -0.2048
  457MOL0     H61683   6.832   7.413  11.166  1.2036 -5.6508 -3.5893
  457MOL0     H61684   6.816   7.357  10.929  0.8812  0.2231 -0.4613
  457MOL0     H61685   6.984   7.631  10.653  0.9766 -0.5306  0.9371
  457MOL0     H61686   7.086   7.490  10.628  1.2638  0.3728  2.5487
  457MOL0     H61687   6.963   7.547  10.424 -0.8276  2.6675 -0.9440
  457MOL0     H61688   6.817   7.580  10.505  1.5741  0.7621 -0.5271
  457MOL0     H61689   6.857   7.293  10.536 -0.6924 -1.0495 -0.0178
  457MOL0     H61690   6.952   7.331  10.400 -2.6383 -5.5590 -0.6982
  457MOL0     H61691   6.748   7.420  10.285 -0.6428  0.8683  0.6823
  457MOL0     H61692   6.674   7.411  10.448  2.8060  0.3231  2.2461
  457MOL0     H61693   6.620   7.011  10.303  2.0617 -0.4052 -1.2355
  457MOL0     H61694   7.144   7.600  10.835 -0.8185 -2.3879 -1.9607
  457MOL0     H61695   7.177   7.659  11.066  1.1750 -2.1759  0.0713
  458MOL0     O61696   3.827   8.093   3.247  0.1762  0.2249 -0.0675
  458MOL0     C61697   3.710   8.106   3.283 -0.6091 -0.8238 -0.0420
  458MOL0     O61698   3.659   8.218   3.345 -0.0356 -0.1915  0.5112
  458MOL0     C61699   3.736   8.329   3.370  0.3540 -0.7763 -0.0268
  458MOL0     C61700   3.693   8.456   3.322  0.0863 -0.6850 -0.7676
  458MOL0     C61701   3.765   8.574   3.356  0.8393  0.0992 -0.4146
  458MOL0     C61702   3.881   8.568   3.438  1.1677  0.7101  0.8828
  458MOL0     O61703   3.957   8.675   3.482 -0.0531  0.0535 -0.1294
  458MOL0     C61704   3.886   8.788   3.534 -0.1099 -0.8170  0.0459
  458MOL0     C61705   3.976   8.907   3.582 -0.4114  0.3653  0.2825
  458MOL0     C61706   4.088   8.870   3.676  0.2909  0.0419  0.0664
  458MOL0     C61707   4.037   8.803   3.808 -0.5940  0.5040 -0.2552
  458MOL0     C61708   4.001   8.896   3.918 -0.2090  0.1396  0.4693
  458MOL0     C61709   3.963   8.833   4.047 -0.0053  0.2183  0.1231
  458MOL0     C61710   3.931   8.933   4.161 -0.8301  0.0215  0.4097
  458MOL0     C61711   3.874   8.855   4.276 -0.5507  0.1818 -0.0206
  458MOL0     N61712   3.746   8.777   4.234 -0.7074 -0.5680 -0.2160
  458MOL0     C61713   3.735   8.641   4.226  0.7286 -0.3084 -0.2085
  458MOL0     C61714   3.602   8.624   4.199  0.4863 -0.6047 -0.3978
  458MOL0     C61715   3.535   8.487   4.193  0.1106 -0.1979  0.7796
  458MOL0     C61716   3.376   8.486   4.176  0.3395 -0.4369  0.0364
  458MOL0     C61717   3.325   8.339   4.183  0.5489 -1.2199 -0.1241
  458MOL0     C61718   3.352   8.272   4.321 -0.5973  0.4873 -0.2401
  458MOL0     O61719   3.456   8.172   4.315 -0.0486 -0.4440 -0.7013
  458MOL0     C61720   3.490   8.118   4.439  0.2487 -0.4647  0.2121
  458MOL0     C61721   3.416   8.116   4.552 -0.7978 -0.0835  0.5123
  458MOL0     C61722   3.467   8.063   4.671  0.7123  0.1684  0.3008
  458MOL0     C61723   3.372   8.043   4.792  0.3629 -0.3744 -0.1925
  458MOL0     C61724   3.599   8.012   4.674  0.3413  0.3632  0.1965
  458MOL0     C61725   3.657   7.947   4.796 -0.2110 -0.1361  0.7259
  458MOL0     O61726   3.709   7.817   4.779  0.5802 -0.6521  0.3708
  458MOL0     C61727   3.761   7.750   4.895 -0.4345  0.1889 -0.2958
  458MOL0     C61728   3.883   7.773   4.946  0.0516 -1.1333 -0.4309
  458MOL0     C61729   3.923   7.695   5.056 -0.1920  0.1208  0.1499
  458MOL0     C61730   3.839   7.592   5.112 -0.3968 -0.3113 -0.1419
  458MOL0     O61731   3.887   7.532   5.229  0.2261 -0.3931  0.1650
  458MOL0     C61732   3.842   7.393   5.252  0.5759  0.3067  0.6188
  458MOL0     C61733   3.887   7.339   5.388 -0.2440 -0.6834  0.2833
  458MOL0     C61734   4.028   7.275   5.390  0.1067  1.0240  0.1021
  458MOL0     C61735   4.025   7.130   5.343 -0.6748  0.0408  0.0383
  458MOL0     C61736   4.150   7.055   5.365  0.4241  0.0683 -0.3824
  458MOL0     C61737   4.135   6.903   5.349  0.1035  0.0201 -0.1211
  458MOL0     C61738   4.270   6.835   5.338 -0.4860  1.2730 -0.1800
  458MOL0     C61739   4.286   6.690   5.346 -0.4255 -0.4304  0.6678
  458MOL0    Cl61740   4.229   6.621   5.502  0.2023  0.0136  0.0675
  458MOL0     C61741   3.722   7.573   5.054 -0.0545 -0.7952  0.4871
  458MOL0     C61742   3.680   7.653   4.946 -0.1708  0.3571 -0.8823
  458MOL0     O61743   3.654   8.010   4.901  0.2579 -0.8656  0.6034
  458MOL0     C61744   3.669   8.016   4.560 -0.2228  1.0328  0.5273
  458MOL0     C61745   3.614   8.056   4.438  0.0189 -0.5649  0.2259
  458MOL0     N61746   3.536   8.752   4.192 -0.4401  1.0870  0.4706
  458MOL0     N61747   3.625   8.841   4.200 -1.0598 -0.0531 -0.0573
  458MOL0     C61748   3.921   8.442   3.477  0.4016  0.5889  0.1718
  458MOL0     C61749   3.852   8.325   3.438 -0.4478 -0.3690 -0.3077
  458MOL0     C61750   3.616   8.005   3.233 -0.1951 -0.5652  0.1445
  458MOL0     C61751   3.483   8.015   3.259 -0.8628  0.3802 -0.1060
  458MOL0     C61752   3.396   7.916   3.217 -0.3064  0.2709  1.1050
  458MOL0     C61753   3.445   7.808   3.150  0.4320  0.5167 -0.0514
  458MOL0     O61754   3.355   7.718   3.105 -0.0398 -0.0096  0.7114
  458MOL0     C61755   3.395   7.577   3.093 -0.4164 -0.4273  0.7225
  458MOL0     C61756   3.394   7.533   2.949 -0.1595 -0.5342 -0.3801
  458MOL0     C61757   3.254   7.553   2.882 -0.0586 -0.2419  0.5419
  458MOL0     C61758   3.145   7.444   2.922 -0.4430 -0.4413 -0.8766
  458MOL0     C61759   3.191   7.308   2.902  0.2727 -0.3417  0.6351
  458MOL0     C61760   3.209   7.190   2.894  0.7748  0.2699  0.1319
  458MOL0     C61761   3.584   7.794   3.128  0.5419  1.2202 -0.7804
  458MOL0     C61762   3.668   7.899   3.165  0.5344 -0.6786 -1.2706
  458MOL0     H61763   3.605   8.464   3.260  0.9374  0.3526 -1.8772
  458MOL0     H61764   3.721   8.659   3.305  0.7572  0.1881 -0.1938
  458MOL0     H61765   3.821   8.834   3.459 -2.3139 -2.8149  0.5897
  458MOL0     H61766   3.826   8.769   3.624 -1.5401  3.0990  0.0933
  458MOL0     H61767   4.017   8.955   3.493  0.3634 -2.9449 -1.3070
  458MOL0     H61768   3.910   8.969   3.644 -0.0863  0.6123  0.3842
  458MOL0     H61769   4.155   8.816   3.609 -0.3074  2.3857 -2.5906
  458MOL0     H61770   4.151   8.952   3.711  0.1980  0.0855  0.1322
  458MOL0     H61771   3.952   8.738   3.785 -0.4392  0.8922 -2.0350
  458MOL0     H61772   4.121   8.740   3.841 -1.0325 -0.6295 -1.2338
  458MOL0     H61773   4.081   8.968   3.941 -1.2095  1.3283  0.3526
  458MOL0     H61774   3.918   8.953   3.876 -0.0906 -1.3165 -1.8684
  458MOL0     H61775   3.879   8.766   4.028  0.1510  0.4676 -1.6249
  458MOL0     H61776   4.042   8.766   4.082 -1.9158 -2.8566 -1.1085
  458MOL0     H61777   4.014   8.995   4.198 -2.2452  1.2552  1.6352
  458MOL0     H61778   3.847   8.994   4.127 -0.3420  1.0228  0.9457
  458MOL0     H61779   3.838   8.931   4.347  0.5305  0.4614  0.2521
  458MOL0     H61780   3.939   8.786   4.331  1.0378  0.4754 -1.4411
  458MOL0     H61781   3.816   8.569   4.228  3.7872  2.7517 -2.8422
  458MOL0     H61782   3.588   8.436   4.112  0.6179  0.9222  0.3887
  458MOL0     H61783   3.563   8.428   4.282  2.1149 -3.1678 -1.6069
  458MOL0     H61784   3.350   8.532   4.080 -2.0513 -0.4310  0.6265
  458MOL0     H61785   3.331   8.548   4.255  1.6429 -0.2223  0.6389
  458MOL0     H61786   3.345   8.272   4.099 -4.9891 -1.2639 -1.8036
  458MOL0     H61787   3.219   8.359   4.161  0.6990 -1.5787 -1.2510
  458MOL0     H61788   3.255   8.242   4.363 -0.0310  0.9745  1.4788
  458MOL0     H61789   3.400   8.346   4.386  0.4796 -0.1000 -0.3450
  458MOL0     H61790   3.321   8.167   4.552 -0.8455 -0.0931 -1.3607
  458MOL0     H61791   3.406   7.957   4.850  0.7245 -0.4325 -0.4908
  458MOL0     H61792   3.368   8.127   4.861 -0.2023 -0.6930  0.1712
  458MOL0     H61793   3.271   8.029   4.751 -1.1656  1.4681  2.6423
  458MOL0     H61794   3.943   7.854   4.907  1.1991 -1.1252  1.2666
  458MOL0     H61795   4.018   7.716   5.103 -1.2531  1.1335  2.0000
  458MOL0     H61796   3.735   7.372   5.247  0.7174 -0.5944  1.1319
  458MOL0     H61797   3.892   7.333   5.175 -1.4623 -2.3550  1.2315
  458MOL0     H61798   3.889   7.429   5.449 -0.1231 -3.6302  5.1459
  458MOL0     H61799   3.806   7.274   5.423 -1.3610  0.4102 -0.1653
  458MOL0     H61800   4.069   7.281   5.491 -0.5602  0.7252  0.3983
  458MOL0     H61801   4.096   7.320   5.317 -2.4588  0.7194 -2.7046
  458MOL0     H61802   3.945   7.080   5.399 -0.2557  0.2602  0.8463
  458MOL0     H61803   4.002   7.128   5.236  1.5922 -0.0930 -0.4947
  458MOL0     H61804   4.192   7.072   5.464  0.1595  0.8264 -0.3926
  458MOL0     H61805   4.222   7.091   5.291 -2.0986  3.6701 -1.3368
  458MOL0     H61806   4.076   6.855   5.428 -1.7946  2.3207  0.0043
  458MOL0     H61807   4.083   6.892   5.253 -1.4088 -0.0052  0.6766
  458MOL0     H61808   4.349   6.868   5.406  2.6084 -1.9438 -1.9367
  458MOL0     H61809   4.301   6.843   5.233  4.7427 -0.5810  0.9147
  458MOL0     H61810   4.389   6.660   5.326  0.3197  2.8687 -1.2820
  458MOL0     H61811   4.224   6.647   5.267  0.8984 -1.7226  0.2874
  458MOL0     H61812   3.652   7.499   5.091 -1.3143  0.6848  1.2085
  458MOL0     H61813   3.591   7.619   4.896 -0.6132 -0.1618  0.2092
  458MOL0     H61814   3.768   7.973   4.565  0.5818  2.7470  0.2118
  458MOL0     H61815   3.675   8.066   4.349 -0.4573  2.2858  0.1313
  458MOL0     H61816   3.989   8.436   3.561  2.5129 -0.5142 -1.5076
  458MOL0     H61817   3.870   8.223   3.471 -1.7563 -0.5223 -0.0019
  458MOL0     H61818   3.445   8.106   3.306  1.7805  1.0376  0.9368
  458MOL0     H61819   3.293   7.921   3.250 -0.9509 -0.6753 -0.6264
  458MOL0     H61820   3.497   7.565   3.130  0.1315  1.8263  0.1289
  458MOL0     H61821   3.329   7.526   3.163  0.0834  0.6760  2.0391
  458MOL0     H61822   3.417   7.426   2.946 -0.3813 -0.8417  3.4480
  458MOL0     H61823   3.462   7.599   2.896  0.0542  1.5340  2.2250
  458MOL0     H61824   3.276   7.553   2.775  0.3530 -3.6443  0.5118
  458MOL0     H61825   3.211   7.651   2.905  0.2731  0.3782 -1.3177
  458MOL0     H61826   3.045   7.463   2.884 -2.8363 -1.8532  3.8566
  458MOL0     H61827   3.129   7.454   3.030  3.6387 -2.0848  0.0845
  458MOL0     H61828   3.214   7.083   2.894  0.1185  0.2264 -0.9927
  458MOL0     H61829   3.618   7.708   3.070 -0.1518  0.4329 -0.0346
  458MOL0     H61830   3.773   7.873   3.160  1.1305  1.4125 -0.4996
  459MOL0     O61831   3.574   7.811   9.728  0.1370 -0.0736 -0.3834
  459MOL0     C61832   3.463   7.755   9.717  0.2547 -1.1783  0.1850
  459MOL0     O61833   3.431   7.667   9.621 -0.4287  0.5062 -0.1807
  459MOL0     C61834   3.518   7.589   9.552  1.1451  0.4979  0.8024
  459MOL0     C61835   3.470   7.502   9.459 -0.2206  1.0681  0.2735
  459MOL0     C61836   3.547   7.405   9.396 -0.1366  0.9216  0.5758
  459MOL0     C61837   3.682   7.395   9.425 -0.1094  0.3045  0.1024
  459MOL0     O61838   3.748   7.290   9.361  1.3687 -0.3829 -0.4854
  459MOL0     C61839   3.883   7.303   9.319 -0.4595 -0.5127  0.7648
  459MOL0     C61840   3.888   7.380   9.183  0.0614  0.5217 -0.1511
  459MOL0     C61841   3.877   7.531   9.191 -0.9595 -0.0706  0.4811
  459MOL0     C61842   4.013   7.601   9.209 -0.4734  0.1496 -0.4287
  459MOL0     C61843   3.994   7.743   9.240 -0.1041 -0.5204 -0.3156
  459MOL0     C61844   4.126   7.810   9.286 -0.1898 -0.8147  0.0587
  459MOL0     C61845   4.227   7.807   9.168 -0.3014 -0.7014  0.2090
  459MOL0     C61846   4.360   7.876   9.190  0.1071  0.0365  0.0416
  459MOL0     N61847   4.481   7.801   9.133  0.4599 -0.1568 -1.0958
  459MOL0     C61848   4.501   7.663   9.141 -0.2627 -0.8999 -0.9736
  459MOL0     C61849   4.619   7.642   9.065  0.3270 -0.9012  0.8452
  459MOL0     C61850   4.662   7.507   9.013  0.6495 -0.1560 -0.2089
  459MOL0     C61851   4.778   7.434   9.081 -0.6765  0.5311 -0.4298
  459MOL0     C61852   4.739   7.362   9.215  0.4462 -0.2159  0.5892
  459MOL0     C61853   4.759   7.207   9.205 -0.0620  0.3603  0.2589
  459MOL0     O61854   4.665   7.149   9.117  0.2225 -0.2768  0.4316
  459MOL0     C61855   4.637   7.016   9.111 -0.4348  1.1271 -1.1001
  459MOL0     C61856   4.564   6.982   9.001 -0.0887  0.8987  0.5320
  459MOL0     C61857   4.530   6.849   8.973  0.2957 -0.1003  0.5003
  459MOL0     C61858   4.426   6.820   8.867  0.2332  0.6162 -0.9021
  459MOL0     C61859   4.580   6.748   9.060  0.6295  0.1989 -0.3433
  459MOL0     C61860   4.546   6.610   9.040 -0.6581 -0.9815  0.1738
  459MOL0     O61861   4.561   6.558   8.909  0.2091  1.3669 -0.7008
  459MOL0     C61862   4.532   6.427   8.878  0.0618 -0.6802  0.2170
  459MOL0     C61863   4.413   6.362   8.906  0.4430 -0.6239  0.4614
  459MOL0     C61864   4.391   6.230   8.855  0.6228 -0.0836  0.5067
  459MOL0     C61865   4.496   6.166   8.771  0.3918  0.3815  0.0224
  459MOL0     O61866   4.480   6.034   8.750 -0.7014 -0.3120 -0.1656
  459MOL0     C61867   4.598   5.974   8.687  0.8220 -0.1090 -0.0933
  459MOL0     C61868   4.605   5.823   8.683 -0.3141 -0.7627 -0.0916
  459MOL0     C61869   4.526   5.769   8.558 -0.3767  0.1268  0.3288
  459MOL0     C61870   4.375   5.805   8.548 -0.5913 -0.2377 -0.5119
  459MOL0     C61871   4.301   5.701   8.457 -0.5350 -0.2848  0.1981
  459MOL0     C61872   4.161   5.744   8.410  0.4627 -0.1786 -0.3810
  459MOL0     C61873   4.095   5.632   8.331 -0.1849  0.3604 -0.7900
  459MOL0     C61874   3.972   5.657   8.251  0.6134  0.3238 -0.1293
  459MOL0    Cl61875   4.013   5.785   8.118  0.4437 -0.3372 -0.5210
  459MOL0     C61876   4.602   6.245   8.729  0.4988  0.0664  0.3685
  459MOL0     C61877   4.621   6.371   8.783 -0.2157 -0.0874 -0.8790
  459MOL0     O61878   4.494   6.563   9.137 -0.5690  0.1872  0.2456
  459MOL0     C61879   4.648   6.788   9.181  0.0925  0.6506 -0.0520
  459MOL0     C61880   4.682   6.923   9.205 -0.2421  0.2317  0.1163
  459MOL0     N61881   4.669   7.771   9.035  0.4952  0.7606  0.1389
  459MOL0     N61882   4.578   7.856   9.065  0.7885 -0.2104  0.3542
  459MOL0     C61883   3.740   7.481   9.512  0.3907 -0.0677 -0.1193
  459MOL0     C61884   3.658   7.569   9.580 -1.0226  1.1825  0.0194
  459MOL0     C61885   3.359   7.824   9.802 -0.6203  0.2818  1.2613
  459MOL0     C61886   3.385   7.941   9.874 -0.3037 -0.5583 -0.0537
  459MOL0     C61887   3.280   8.011   9.932 -0.6841 -0.6378  0.7127
  459MOL0     C61888   3.150   7.955   9.930  0.1244  0.2098 -0.1854
  459MOL0     O61889   3.057   8.017  10.002 -0.4975  0.0550  0.2583
  459MOL0     C61890   2.972   8.100   9.917  0.2917 -0.6937 -0.4497
  459MOL0     C61891   2.936   8.225  10.006  1.1994  0.8205  0.4903
  459MOL0     C61892   2.882   8.189  10.150 -0.3781 -0.6632  0.4062
  459MOL0     C61893   2.823   8.316  10.221 -0.6239  0.1239  0.3291
  459MOL0     C61894   2.924   8.407  10.267 -0.2479  0.7827 -0.1792
  459MOL0     C61895   3.016   8.491  10.277 -0.4044 -0.5491 -0.8773
  459MOL0     C61896   3.125   7.836   9.862 -0.7069 -1.0819  0.3325
  459MOL0     C61897   3.234   7.764   9.814 -0.6138 -0.6756  0.7206
  459MOL0     H61898   3.364   7.515   9.442 -0.6173 -0.3217  1.4697
  459MOL0     H61899   3.505   7.332   9.327 -0.1886 -0.1130  1.6653
  459MOL0     H61900   3.958   7.348   9.384  1.3917 -2.0296 -0.2367
  459MOL0     H61901   3.922   7.202   9.304  1.3319  0.3796 -0.9806
  459MOL0     H61902   3.985   7.348   9.142  1.7225  3.7665  0.8925
  459MOL0     H61903   3.804   7.346   9.123  2.1430 -2.3425 -1.7173
  459MOL0     H61904   3.840   7.564   9.094  0.6209 -2.4984 -1.0609
  459MOL0     H61905   3.809   7.552   9.274 -2.0552  3.1144 -1.0443
  459MOL0     H61906   4.061   7.553   9.295  0.0951 -0.2425 -0.9557
  459MOL0     H61907   4.065   7.586   9.114  0.2588  0.3932 -0.0735
  459MOL0     H61908   3.938   7.791   9.158 -0.8750 -1.7643 -0.5408
  459MOL0     H61909   3.923   7.759   9.322  1.9494  1.9292  1.1108
  459MOL0     H61910   4.101   7.907   9.331  0.8440 -0.0468 -0.9583
  459MOL0     H61911   4.174   7.754   9.366 -0.8293  0.3201  1.2893
  459MOL0     H61912   4.251   7.702   9.148  1.5206 -0.1411 -0.7609
  459MOL0     H61913   4.179   7.858   9.083  2.5800  0.7518 -0.6586
  459MOL0     H61914   4.367   7.879   9.299  1.8840 -1.8137  0.0351
  459MOL0     H61915   4.351   7.978   9.153 -3.3589 -0.8318 -1.9669
  459MOL0     H61916   4.428   7.601   9.192  0.6855 -0.8954  0.4423
  459MOL0     H61917   4.576   7.440   9.009 -0.3577  1.1077 -0.1631
  459MOL0     H61918   4.685   7.528   8.908 -0.7047  1.1094 -0.2850
  459MOL0     H61919   4.857   7.504   9.110  1.7831 -1.8321 -0.9977
  459MOL0     H61920   4.825   7.361   9.015 -0.7002  0.2230 -0.1059
  459MOL0     H61921   4.633   7.380   9.240  1.0906  0.8005  2.9112
  459MOL0     H61922   4.795   7.414   9.294 -0.5546  0.7003  0.7332
  459MOL0     H61923   4.755   7.177   9.311  0.2198  0.3375  0.2639
  459MOL0     H61924   4.861   7.184   9.173  0.3134  0.0295  1.6033
  459MOL0     H61925   4.523   7.070   8.952  0.5649  1.2510  0.6032
  459MOL0     H61926   4.472   6.762   8.786  0.6375  1.1110 -1.0331
  459MOL0     H61927   4.342   6.762   8.906 -0.7351  1.8259 -1.1306
  459MOL0     H61928   4.373   6.907   8.828 -2.2653  1.4728  3.6861
  459MOL0     H61929   4.345   6.431   8.954  0.9013 -0.4064  0.7991
  459MOL0     H61930   4.300   6.177   8.880 -0.6804  1.0546 -1.5079
  459MOL0     H61931   4.609   6.018   8.588  1.5728  0.1994  0.1195
  459MOL0     H61932   4.686   6.002   8.745  1.0029 -1.0076  0.0879
  459MOL0     H61933   4.707   5.784   8.680 -1.1984 -3.1731 -0.7865
  459MOL0     H61934   4.567   5.778   8.775 -2.5352  0.6372 -0.2442
  459MOL0     H61935   4.525   5.661   8.572 -0.7668  0.2870  1.7532
  459MOL0     H61936   4.582   5.800   8.469 -0.2707  1.7138  0.9045
  459MOL0     H61937   4.331   5.806   8.648  0.5937  0.4426  0.0217
  459MOL0     H61938   4.364   5.906   8.508 -1.4885 -1.1335 -2.6445
  459MOL0     H61939   4.289   5.615   8.523  0.6726  0.3224  1.2472
  459MOL0     H61940   4.368   5.676   8.375 -0.2745  1.7207 -0.2595
  459MOL0     H61941   4.101   5.774   8.496 -0.5605 -1.8367 -0.4909
  459MOL0     H61942   4.182   5.828   8.343  3.4263 -1.0727 -0.7210
  459MOL0     H61943   4.073   5.553   8.404  1.5374 -1.4154 -2.0589
  459MOL0     H61944   4.163   5.584   8.259  1.0622  0.7704  0.0801
  459MOL0     H61945   3.893   5.688   8.321 -1.7579 -1.9296 -1.6116
  459MOL0     H61946   3.936   5.571   8.195  1.4625 -0.1952  0.1104
  459MOL0     H61947   4.672   6.216   8.652  0.2363  1.0275 -0.2523
  459MOL0     H61948   4.709   6.428   8.753 -0.2692 -0.7602 -2.4224
  459MOL0     H61949   4.687   6.717   9.253  1.8957  1.1692 -0.4809
  459MOL0     H61950   4.720   6.942   9.304 -0.7177 -2.4488  0.8982
  459MOL0     H61951   3.842   7.462   9.543 -0.3841 -0.9876  2.0388
  459MOL0     H61952   3.710   7.616   9.664  1.4021 -0.1864 -0.6319
  459MOL0     H61953   3.482   7.990   9.874 -1.1237  1.1476 -0.8250
  459MOL0     H61954   3.312   8.102   9.981  0.8633 -1.0575  0.5178
  459MOL0     H61955   3.016   8.140   9.825 -1.9331  2.9537 -0.1516
  459MOL0     H61956   2.882   8.045   9.888 -0.0187  0.2458 -1.3677
  459MOL0     H61957   2.850   8.276   9.963  0.9613 -0.6628 -0.9119
  459MOL0     H61958   3.026   8.288  10.005  2.7430 -1.2446 -0.5993
  459MOL0     H61959   2.968   8.153  10.208 -1.7588 -1.4592  2.0368
  459MOL0     H61960   2.811   8.106  10.144 -1.6782  0.4840 -0.5019
  459MOL0     H61961   2.748   8.298  10.298 -1.0836 -3.7923 -0.7830
  459MOL0     H61962   2.771   8.376  10.146 -2.0518  0.5855  1.6463
  459MOL0     H61963   3.094   8.561  10.296 -0.2649 -0.7084 -0.8684
  459MOL0     H61964   3.023   7.801   9.855 -0.5856 -1.4412  0.2853
  459MOL0     H61965   3.207   7.681   9.750  1.2773 -0.2011 -0.7902
  460MOL0     O61966   2.660   0.123  10.112 -0.6373 -0.5825 -1.4459
  460MOL0     C61967   2.693   0.151  10.226  0.0314  0.2705  0.2394
  460MOL0     O61968   2.761   0.069  10.316  0.9005 -0.6448 -0.3634
  460MOL0     C61969   2.796  -0.064  10.279 -0.3880 -0.3139 -0.1533
  460MOL0     C61970   2.772  -0.156  10.374  0.0652 -0.0071  0.2413
  460MOL0     C61971   2.804  -0.287  10.371 -0.4294  0.4793  0.1427
  460MOL0     C61972   2.868  -0.334  10.250 -1.9386 -0.6004 -0.5670
  460MOL0     O61973   2.916  -0.456  10.223 -0.6253 -0.1796  0.4632
  460MOL0     C61974   2.956  -0.545  10.331 -0.1136 -0.3296  0.3948
  460MOL0     C61975   3.074  -0.633  10.283  0.7505 -0.4718 -0.7070
  460MOL0     C61976   3.076  -0.706  10.153  0.6938  0.5934  0.1051
  460MOL0     C61977   3.216  -0.737  10.108 -0.9010  0.1852 -0.0148
  460MOL0     C61978   3.209  -0.809   9.965  0.7420 -0.8597  0.3931
  460MOL0     C61979   3.166  -0.954   9.967  0.3013  0.3632 -0.5845
  460MOL0     C61980   3.127  -1.034   9.837 -0.3196 -0.4546 -0.3163
  460MOL0     C61981   3.005  -0.984   9.766 -0.1829  0.3672  0.0188
  460MOL0     N61982   2.986  -1.071   9.646  0.5145 -0.9310  0.5885
  460MOL0     C61983   3.041  -1.040   9.526 -0.3053  0.0625  0.0398
  460MOL0     C61984   2.982  -1.109   9.428  0.6928 -0.5055  0.0448
  460MOL0     C61985   3.007  -1.102   9.285 -0.7044  0.8915 -0.4793
  460MOL0     C61986   3.039  -0.962   9.226 -0.2443  0.6332 -0.0294
  460MOL0     C61987   2.918  -0.870   9.246 -0.1406  0.1198  0.2489
  460MOL0     C61988   2.961  -0.728   9.208 -0.3131  0.6719 -0.4913
  460MOL0     O61989   2.955  -0.722   9.063 -0.2739  0.0116  0.8760
  460MOL0     C61990   3.061  -0.657   8.990  0.3999 -0.0276 -0.0104
  460MOL0     C61991   3.199  -0.681   9.000 -0.0825  0.5457  0.0940
  460MOL0     C61992   3.300  -0.617   8.936  0.1602  0.4394  0.6292
  460MOL0     C61993   3.440  -0.688   8.963 -0.0342 -1.0827 -0.3822
  460MOL0     C61994   3.257  -0.494   8.869 -0.5637  0.8927  0.7359
  460MOL0     C61995   3.346  -0.390   8.822  0.7859  0.1772  0.0366
  460MOL0     O61996   3.316  -0.266   8.856  0.5939  0.3929 -1.4607
  460MOL0     C61997   3.399  -0.155   8.865  0.5266 -0.4234  0.0034
  460MOL0     C61998   3.538  -0.138   8.823  0.0250  0.8208 -0.0044
  460MOL0     C61999   3.615  -0.028   8.850  0.7121 -0.8176 -0.2371
  460MOL0     C62000   3.562   0.069   8.927 -0.0590  0.6850 -0.4655
  460MOL0     O62001   3.628   0.176   8.976  0.1141 -0.3152  0.2880
  460MOL0     C62002   3.752   0.211   8.909 -0.8264 -0.5450 -0.3933
  460MOL0     C62003   3.730   0.254   8.765 -0.1686  0.3769 -0.0863
  460MOL0     C62004   3.854   0.304   8.694 -0.0838 -0.2266  0.3788
  460MOL0     C62005   3.919   0.430   8.748  1.0505 -0.2212 -0.2133
  460MOL0     C62006   4.038   0.398   8.835  0.9202 -0.9057  0.0868
  460MOL0     C62007   4.121   0.524   8.857 -0.3241  0.7409  0.1541
  460MOL0     C62008   4.246   0.489   8.936 -0.0956 -0.5026 -0.1341
  460MOL0     C62009   4.379   0.481   8.856  0.9012  0.7556 -0.3967
  460MOL0    Cl62010   4.355   0.413   8.688  0.2586  0.2617  0.1386
  460MOL0     C62011   3.424   0.068   8.964 -0.3956 -0.3558 -1.0633
  460MOL0     C62012   3.340  -0.037   8.926 -0.3806  1.0093 -0.2803
  460MOL0     O62013   3.443  -0.419   8.755 -0.3345 -0.0457  0.0806
  460MOL0     C62014   3.117  -0.482   8.838  0.0048  0.1528  0.0958
  460MOL0     C62015   3.023  -0.564   8.896 -0.9264  1.7397  0.4337
  460MOL0     N62016   2.908  -1.207   9.493  0.8496 -1.0014  0.6781
  460MOL0     N62017   2.900  -1.165   9.619 -0.3239  0.6054  0.1850
  460MOL0     C62018   2.899  -0.237  10.149 -0.3607 -0.2067 -0.0550
  460MOL0     C62019   2.856  -0.106  10.162 -0.4135  0.0497 -0.4091
  460MOL0     C62020   2.681   0.286  10.283 -0.1884  0.6315 -0.0390
  460MOL0     C62021   2.650   0.397  10.199  0.2408  1.2566 -1.1203
  460MOL0     C62022   2.653   0.529  10.238 -0.0046  0.5582  0.1053
  460MOL0     C62023   2.670   0.562  10.365  0.3443 -0.4004 -0.2683
  460MOL0     O62024   2.654   0.701  10.397 -0.4594 -0.1614 -0.4172
  460MOL0     C62025   2.699   0.748  10.526 -0.1659  1.1198  0.9536
  460MOL0     C62026   2.740   0.895  10.526 -0.0674 -0.7903  0.6172
  460MOL0     C62027   2.801   0.942  10.662  0.1939 -0.1059  0.7345
  460MOL0     C62028   2.835   1.095  10.646 -0.3747  0.2739 -0.4991
  460MOL0     C62029   2.710   1.169  10.652 -0.8657  0.1725  0.5074
  460MOL0     C62030   2.595   1.214  10.685 -0.6067  0.0545 -0.1064
  460MOL0     C62031   2.689   0.463  10.455  0.6205 -0.0192 -0.4977
  460MOL0     C62032   2.694   0.322  10.419 -0.5022  0.8575 -0.5801
  460MOL0     H62033   2.728  -0.120  10.467  2.9393  2.7441  0.6973
  460MOL0     H62034   2.786  -0.353  10.455  0.3597 -0.8789 -0.7164
  460MOL0     H62035   2.980  -0.493  10.424  0.9046 -3.9949  2.3288
  460MOL0     H62036   2.869  -0.604  10.360 -0.9933  0.9257  0.4254
  460MOL0     H62037   3.152  -0.556  10.276  1.3038 -0.6512  2.3846
  460MOL0     H62038   3.098  -0.709  10.357  0.9621 -0.2942 -0.5927
  460MOL0     H62039   3.007  -0.790  10.166 -0.7096  1.6876 -0.0782
  460MOL0     H62040   3.037  -0.648  10.069 -2.7436  0.5556  1.4720
  460MOL0     H62041   3.278  -0.647  10.108  2.5472 -1.9724  1.8187
  460MOL0     H62042   3.261  -0.813  10.173 -2.9357  0.4277  1.7974
  460MOL0     H62043   3.137  -0.763   9.897 -0.5730 -0.7526  1.8049
  460MOL0     H62044   3.307  -0.808   9.915 -0.3823  0.7749 -1.9260
  460MOL0     H62045   3.248  -1.010  10.014 -2.1486 -2.0244  1.1361
  460MOL0     H62046   3.082  -0.977  10.033  2.2718 -4.4211  0.6165
  460MOL0     H62047   3.208  -1.033   9.764 -1.6667 -0.0814 -1.8604
  460MOL0     H62048   3.116  -1.139   9.865 -2.6056 -0.3288 -0.5584
  460MOL0     H62049   3.013  -0.879   9.735 -2.3283  0.8106  0.7899
  460MOL0     H62050   2.924  -0.973   9.838  1.6634  2.3635  1.9634
  460MOL0     H62051   3.112  -0.962   9.499 -0.8180  0.1527 -1.0766
  460MOL0     H62052   3.092  -1.168   9.266 -0.2717  1.4439 -0.4873
  460MOL0     H62053   2.922  -1.144   9.230  1.6271 -3.1936 -1.4143
  460MOL0     H62054   3.041  -0.981   9.118 -2.0647  0.3078 -0.0387
  460MOL0     H62055   3.122  -0.915   9.278  0.4740 -1.3233  0.6880
  460MOL0     H62056   2.894  -0.868   9.353 -1.7556 -3.9048  0.1398
  460MOL0     H62057   2.831  -0.890   9.184  1.2504 -1.1518 -1.4151
  460MOL0     H62058   3.059  -0.707   9.252 -1.5692  0.0222  2.9334
  460MOL0     H62059   2.878  -0.662   9.236  0.1049 -0.2831  3.5353
  460MOL0     H62060   3.223  -0.750   9.080  0.2105  0.1128 -0.3567
  460MOL0     H62061   3.512  -0.624   9.016 -1.0850 -0.3525  0.1962
  460MOL0     H62062   3.433  -0.778   9.025  0.7945  1.0568  3.1215
  460MOL0     H62063   3.488  -0.703   8.866  0.7036  2.5606 -0.7247
  460MOL0     H62064   3.603  -0.209   8.773  2.2818  0.4269  3.1700
  460MOL0     H62065   3.722  -0.021   8.835  1.5784 -2.3079  3.9503
  460MOL0     H62066   3.802   0.287   8.971 -0.1926  0.1175 -1.6870
  460MOL0     H62067   3.823   0.128   8.917 -0.2670 -0.3637 -2.7954
  460MOL0     H62068   3.708   0.165   8.705 -1.2261  0.7872 -0.3228
  460MOL0     H62069   3.652   0.330   8.765 -0.2412  0.3854  2.3164
  460MOL0     H62070   3.806   0.327   8.598 -1.9554  0.1198  1.3448
  460MOL0     H62071   3.932   0.228   8.684 -0.5207 -0.5675 -0.6212
  460MOL0     H62072   3.952   0.483   8.659 -2.4620  1.1771 -0.8706
  460MOL0     H62073   3.847   0.497   8.796  1.7048 -0.1619  0.7161
  460MOL0     H62074   4.115   0.330   8.798  0.4066 -0.8252 -1.1836
  460MOL0     H62075   4.006   0.350   8.928  1.5109  1.1737  1.4544
  460MOL0     H62076   4.145   0.570   8.760 -0.9435 -2.4931 -1.6746
  460MOL0     H62077   4.075   0.603   8.916  3.0946  3.8918 -0.9850
  460MOL0     H62078   4.221   0.398   8.992  0.5131 -0.0857  0.8307
  460MOL0     H62079   4.259   0.573   9.005 -0.3974 -1.3612  0.9972
  460MOL0     H62080   4.449   0.421   8.916  1.0252  0.8221 -0.4754
  460MOL0     H62081   4.425   0.579   8.844  2.3959 -0.0838 -1.9327
  460MOL0     H62082   3.381   0.155   9.013 -0.9300 -0.3928 -1.4649
  460MOL0     H62083   3.235  -0.052   8.951 -0.6765  0.5161 -1.6725
  460MOL0     H62084   3.094  -0.398   8.773  2.2461 -0.7732 -2.0759
  460MOL0     H62085   2.917  -0.549   8.879 -1.7387 -1.4677  1.9125
  460MOL0     H62086   2.944  -0.263  10.054 -1.4615  1.0217 -0.9466
  460MOL0     H62087   2.875  -0.035  10.081  0.2082  0.9166  0.4675
  460MOL0     H62088   2.638   0.375  10.093  1.2278 -0.7909 -0.8376
  460MOL0     H62089   2.629   0.603  10.163 -2.0942  0.5384  0.7069
  460MOL0     H62090   2.634   0.710  10.605  2.1106  0.0468  2.4425
  460MOL0     H62091   2.793   0.697  10.551 -0.7994 -1.1436 -0.9998
  460MOL0     H62092   2.651   0.950  10.496  2.5331  3.0648 -0.8625
  460MOL0     H62093   2.812   0.914  10.446 -0.5044 -2.8843 -0.3307
  460MOL0     H62094   2.892   0.887  10.688 -0.9900 -1.3258  2.5067
  460MOL0     H62095   2.725   0.924  10.739 -1.3187  0.6600 -0.5207
  460MOL0     H62096   2.892   1.114  10.554 -0.5270  2.9991 -0.0979
  460MOL0     H62097   2.893   1.130  10.731 -2.1357  0.0016  0.8659
  460MOL0     H62098   2.501   1.263  10.701  0.7958  2.9650 -0.1549
  460MOL0     H62099   2.701   0.488  10.560 -1.4306 -1.5970  0.1790
  460MOL0     H62100   2.716   0.244  10.491 -0.6733 -0.4840 -1.9259
  461MOL0     O62101   9.486   7.575   8.433 -0.0362  0.4015 -0.1202
  461MOL0     C62102   9.444   7.463   8.416 -0.4957  0.7390  0.2418
  461MOL0     O62103   9.399   7.416   8.295 -0.2709  0.0243 -0.1842
  461MOL0     C62104   9.421   7.496   8.184 -0.1903  0.1301  1.4069
  461MOL0     C62105   9.476   7.461   8.063  0.2407 -0.2957 -0.1810
  461MOL0     C62106   9.490   7.542   7.951 -0.0987  0.3127  0.0720
  461MOL0     C62107   9.431   7.670   7.945  0.7237  0.2047 -0.0229
  461MOL0     O62108   9.452   7.747   7.825 -0.1786  1.3406 -0.0079
  461MOL0     C62109   9.539   7.857   7.823  1.0079 -1.1447 -0.9228
  461MOL0     C62110   9.473   7.991   7.787 -0.6464  0.1674 -0.1109
  461MOL0     C62111   9.431   7.988   7.641  0.9061 -0.3982  0.9139
  461MOL0     C62112   9.322   8.104   7.625 -0.6379 -0.3558  0.5994
  461MOL0     C62113   9.298   8.139   7.479  0.2899 -0.3215 -0.6534
  461MOL0     C62114   9.424   8.215   7.418 -0.3881  0.6875 -0.1222
  461MOL0     C62115   9.409   8.243   7.261  0.7949  0.2179  0.3073
  461MOL0     C62116   9.546   8.304   7.226  0.6276  0.3106 -0.0664
  461MOL0     N62117   9.553   8.452   7.214 -0.2918  0.7306  0.0487
  461MOL0     C62118   9.447   8.532   7.187 -0.4418 -0.4207  0.0895
  461MOL0     C62119   9.493   8.657   7.195  0.2405  0.7266 -0.2887
  461MOL0     C62120   9.416   8.780   7.154 -0.2200  0.2196  0.0263
  461MOL0     C62121   9.404   8.775   6.990  1.0067  0.5531  0.0588
  461MOL0     C62122   9.396   8.920   6.927 -0.4381  1.2654  0.5736
  461MOL0     C62123   9.372   8.915   6.769 -0.9304  0.5158  0.1634
  461MOL0     O62124   9.247   8.860   6.746 -0.2331  0.2396 -0.2021
  461MOL0     C62125   9.216   8.881   6.612  0.6395 -0.8421 -0.2038
  461MOL0     C62126   9.233   8.777   6.521 -0.2440  0.7545 -0.8231
  461MOL0     C62127   9.188   8.781   6.389 -0.4494  0.1239  0.0610
  461MOL0     C62128   9.235   8.681   6.292 -0.4568 -0.1221 -0.2724
  461MOL0     C62129   9.123   8.899   6.340 -0.1196  0.6761  0.1750
  461MOL0     C62130   9.065   8.915   6.209 -0.3679 -0.3372 -0.0283
  461MOL0     O62131   9.074   9.040   6.154 -0.4712  0.1782  0.6969
  461MOL0     C62132   9.056   9.048   6.018  0.7608 -0.3427  0.2463
  461MOL0     C62133   8.932   9.020   5.959 -0.3806 -1.1068  0.9723
  461MOL0     C62134   8.907   9.044   5.825 -0.5039 -0.0634  0.5221
  461MOL0     C62135   9.013   9.087   5.749  0.6976 -0.5498 -0.2254
  461MOL0     O62136   9.013   9.114   5.612 -0.3095 -0.4537  0.5884
  461MOL0     C62137   8.900   9.057   5.540  0.7473  0.5162 -0.0970
  461MOL0     C62138   8.909   9.096   5.391  0.2397 -0.6301 -0.3573
  461MOL0     C62139   9.022   9.022   5.324  0.5488  0.1458  0.1913
  461MOL0     C62140   9.050   9.066   5.181 -0.6248  0.3492  0.3271
  461MOL0     C62141   9.140   9.191   5.181  1.7039  0.0727 -1.2302
  461MOL0     C62142   9.167   9.224   5.036  0.6491 -0.2873 -0.5402
  461MOL0     C62143   9.273   9.335   5.044 -0.3741 -0.2399  1.3120
  461MOL0     C62144   9.326   9.373   4.901  0.1096 -0.1471  0.3126
  461MOL0    Cl62145   9.385   9.545   4.903  0.3217 -0.4366  0.2407
  461MOL0     C62146   9.137   9.113   5.800 -0.0062  0.0315  0.1213
  461MOL0     C62147   9.160   9.095   5.932 -0.1642 -0.7770 -0.8868
  461MOL0     O62148   9.017   8.820   6.158  0.2147 -0.6533  0.6395
  461MOL0     C62149   9.114   9.004   6.437  0.4290  0.0917 -0.2231
  461MOL0     C62150   9.139   8.988   6.576 -0.0563 -0.4852 -0.1342
  461MOL0     N62151   9.629   8.652   7.231  0.7687 -1.0392 -0.1636
  461MOL0     N62152   9.666   8.527   7.243 -0.7322 -0.7799  0.6492
  461MOL0     C62153   9.386   7.722   8.062 -0.0674  0.1100  0.2783
  461MOL0     C62154   9.369   7.631   8.173 -0.4757  0.4124  0.7687
  461MOL0     C62155   9.452   7.374   8.532 -0.1298  0.4091 -0.1878
  461MOL0     C62156   9.496   7.422   8.656  0.9331  0.5541  0.7124
  461MOL0     C62157   9.505   7.343   8.770  0.0908  0.5129  0.6931
  461MOL0     C62158   9.465   7.207   8.756 -0.5332  0.0758  0.9300
  461MOL0     O62159   9.457   7.123   8.861  0.7692  0.7426  0.5362
  461MOL0     C62160   9.524   7.139   8.985 -0.1917  0.8077 -0.3576
  461MOL0     C62161   9.443   7.149   9.115  0.2123 -0.3758 -0.0401
  461MOL0     C62162   9.361   7.032   9.135  0.4758  0.8926  0.8964
  461MOL0     C62163   9.282   7.028   9.270 -0.0532 -0.7520  0.6984
  461MOL0     C62164   9.372   7.041   9.380 -0.4099  0.5358 -0.1667
  461MOL0     C62165   9.464   7.077   9.457  0.9021  1.0805 -0.5060
  461MOL0     C62166   9.410   7.158   8.636  0.2488  0.4807 -0.6367
  461MOL0     C62167   9.395   7.243   8.534 -0.1615  0.6622  0.9156
  461MOL0     H62168   9.518   7.360   8.061  0.9250 -0.1064  1.9279
  461MOL0     H62169   9.545   7.517   7.861  1.1679  3.5074 -0.1985
  461MOL0     H62170   9.587   7.869   7.921 -1.0617 -1.8496  0.2287
  461MOL0     H62171   9.620   7.836   7.752 -0.2669 -1.7474 -2.2579
  461MOL0     H62172   9.386   8.008   7.851 -1.8519  0.6219 -1.7846
  461MOL0     H62173   9.548   8.070   7.799 -1.3898  1.1576 -1.6238
  461MOL0     H62174   9.520   8.005   7.579  1.9917  0.1459  2.5538
  461MOL0     H62175   9.389   7.895   7.602  3.0970 -0.7516 -0.8484
  461MOL0     H62176   9.224   8.076   7.663 -0.4220 -2.8492 -0.4424
  461MOL0     H62177   9.355   8.196   7.675  2.1552 -1.5693  1.2047
  461MOL0     H62178   9.272   8.050   7.421 -2.4618  0.0236 -0.0915
  461MOL0     H62179   9.215   8.210   7.470  1.4752  1.2265  0.1297
  461MOL0     H62180   9.434   8.310   7.470  0.1907  0.7946 -0.4181
  461MOL0     H62181   9.510   8.157   7.454 -0.5825  0.5958  0.1938
  461MOL0     H62182   9.400   8.147   7.210  0.8862  0.4951 -0.2327
  461MOL0     H62183   9.318   8.302   7.249  0.1787 -0.7753  0.0581
  461MOL0     H62184   9.578   8.269   7.128  0.1525  0.4805 -0.2877
  461MOL0     H62185   9.613   8.261   7.301  0.3056  0.2797  0.2118
  461MOL0     H62186   9.341   8.515   7.169 -0.6523  1.5094 -0.7527
  461MOL0     H62187   9.320   8.782   7.206 -0.1279 -1.9405  0.3561
  461MOL0     H62188   9.480   8.862   7.191 -0.8150  0.6307  0.1590
  461MOL0     H62189   9.319   8.712   6.963  1.6321 -0.5495  0.5964
  461MOL0     H62190   9.490   8.726   6.943  1.6250  0.3175  1.3830
  461MOL0     H62191   9.490   8.976   6.935  1.1172 -0.7046 -2.1547
  461MOL0     H62192   9.313   8.975   6.971 -0.7059  1.8174 -0.5797
  461MOL0     H62193   9.443   8.840   6.733 -1.2774  1.2623 -2.2271
  461MOL0     H62194   9.375   9.013   6.720 -0.4289  0.0282 -0.7943
  461MOL0     H62195   9.294   8.699   6.566  0.0221  2.0080  1.1263
  461MOL0     H62196   9.150   8.656   6.227 -0.1681  0.6531 -0.9635
  461MOL0     H62197   9.316   8.729   6.237 -2.6901  3.0557 -1.0467
  461MOL0     H62198   9.266   8.588   6.341  0.6246 -0.8021 -2.1667
  461MOL0     H62199   8.855   8.984   6.027  0.9943 -0.5694  2.8923
  461MOL0     H62200   8.806   9.036   5.786 -1.3627  1.4552  2.2879
  461MOL0     H62201   8.887   8.950   5.556 -1.7993  0.8002  0.2628
  461MOL0     H62202   8.808   9.107   5.570 -0.5465 -0.7282 -1.7582
  461MOL0     H62203   8.814   9.091   5.336  0.3612  2.7162 -1.0914
  461MOL0     H62204   8.932   9.203   5.391 -1.0183 -0.3386  0.3295
  461MOL0     H62205   8.992   8.918   5.310 -0.9663  0.7927 -1.8140
  461MOL0     H62206   9.120   9.032   5.372  0.0421  2.3412  0.8804
  461MOL0     H62207   9.112   8.988   5.136 -0.3281 -0.1452  1.5414
  461MOL0     H62208   8.953   9.068   5.131 -0.3651  1.8509 -0.1568
  461MOL0     H62209   9.231   9.169   5.239  1.1177  2.4472  0.7726
  461MOL0     H62210   9.089   9.274   5.230  1.9696 -0.1326 -0.5876
  461MOL0     H62211   9.190   9.137   4.974 -2.1432 -1.4760 -0.0503
  461MOL0     H62212   9.082   9.279   4.995  2.2287  3.3988  0.6189
  461MOL0     H62213   9.366   9.306   5.093  0.4276  0.0830  0.0167
  461MOL0     H62214   9.220   9.416   5.096  0.5067  0.8764  0.5216
  461MOL0     H62215   9.247   9.372   4.825  3.1096 -1.1967 -3.0707
  461MOL0     H62216   9.397   9.297   4.866  0.5357 -0.3606  1.6177
  461MOL0     H62217   9.222   9.154   5.747  2.4398 -0.3223  3.4425
  461MOL0     H62218   9.260   9.120   5.964  0.9191 -3.0089 -2.3097
  461MOL0     H62219   9.077   9.100   6.401  0.9468 -0.1187 -1.3427
  461MOL0     H62220   9.100   9.067   6.639 -0.4564  0.8977 -2.0044
  461MOL0     H62221   9.366   7.828   8.077  3.0710  1.5904 -4.0314
  461MOL0     H62222   9.313   7.668   8.258 -0.4634  0.3416  0.8070
  461MOL0     H62223   9.530   7.525   8.655  2.4226  0.1613 -2.4390
  461MOL0     H62224   9.544   7.391   8.859 -1.2287  3.5641 -0.2370
  461MOL0     H62225   9.591   7.055   9.004  0.6460  1.3651 -0.7875
  461MOL0     H62226   9.590   7.226   8.985 -0.0229  0.6967  0.6366
  461MOL0     H62227   9.382   7.240   9.115  1.3369  0.4114 -0.2913
  461MOL0     H62228   9.513   7.166   9.198 -0.1266  1.7607 -0.1314
  461MOL0     H62229   9.417   6.938   9.141  1.5860  1.4858  0.1417
  461MOL0     H62230   9.288   7.020   9.054  1.5289  0.9252 -0.0710
  461MOL0     H62231   9.232   6.931   9.276  2.2369 -2.0377  0.1322
  461MOL0     H62232   9.206   7.107   9.270  0.5448 -0.1602 -0.6073
  461MOL0     H62233   9.559   7.102   9.500  0.5336  0.5663  0.6617
  461MOL0     H62234   9.398   7.050   8.630  2.9247 -0.0736  1.8435
  461MOL0     H62235   9.343   7.201   8.449 -0.9827 -0.6935  2.0471
  462MOL0     O62236   6.619   9.232   3.009  0.1854 -0.1821 -0.2700
  462MOL0     C62237   6.600   9.121   2.953 -0.3033  1.1879 -0.9361
  462MOL0     O62238   6.489   9.040   2.968  0.0102 -0.0168 -0.3764
  462MOL0     C62239   6.394   9.069   3.064 -0.4076 -0.3491  0.8087
  462MOL0     C62240   6.421   9.110   3.191  0.1677 -0.9291  0.5329
  462MOL0     C62241   6.321   9.159   3.271 -0.0897  0.2640 -0.3457
  462MOL0     C62242   6.187   9.163   3.233  0.2326  0.4126  0.5473
  462MOL0     O62243   6.079   9.219   3.302 -0.1570 -0.3035 -0.6089
  462MOL0     C62244   6.112   9.290   3.424 -0.9184  0.5362  0.3581
  462MOL0     C62245   5.998   9.359   3.494  0.3106  0.1776  0.0079
  462MOL0     C62246   6.044   9.481   3.574  0.0282 -0.8066 -0.7648
  462MOL0     C62247   5.958   9.480   3.708 -1.0429  0.2965 -0.0492
  462MOL0     C62248   6.012   9.583   3.795  0.6626 -0.1972 -0.8287
  462MOL0     C62249   5.975   9.551   3.948 -0.0645 -0.3196 -0.4254
  462MOL0     C62250   5.832   9.494   3.973  0.4848  0.4481  1.0766
  462MOL0     C62251   5.811   9.483   4.123 -0.1253  0.0744 -0.0538
  462MOL0     N62252   5.924   9.425   4.199 -0.8018 -1.4221 -0.2251
  462MOL0     C62253   5.915   9.293   4.234 -0.2104  0.5060  0.5804
  462MOL0     C62254   6.012   9.264   4.315  0.0419  0.2462 -0.5299
  462MOL0     C62255   6.044   9.129   4.372 -0.4256 -0.9215 -0.3508
  462MOL0     C62256   5.968   9.106   4.504 -0.2657 -0.1360 -0.5964
  462MOL0     C62257   5.809   9.097   4.495 -1.0444  0.5330 -1.1726
  462MOL0     C62258   5.764   9.036   4.623  0.8797 -0.9728  0.8720
  462MOL0     O62259   5.793   9.127   4.728  0.4208  0.7987 -0.3937
  462MOL0     C62260   5.768   9.094   4.862 -0.8031  0.1725  0.1003
  462MOL0     C62261   5.864   9.135   4.957  0.6636 -0.2901  0.1754
  462MOL0     C62262   5.861   9.091   5.085  0.4327 -0.0731 -0.3186
  462MOL0     C62263   5.982   9.099   5.172 -0.0042  0.9169  1.0754
  462MOL0     C62264   5.737   9.033   5.129 -0.3777  0.6988 -0.4012
  462MOL0     C62265   5.692   8.985   5.268  0.4735 -0.9501  0.4889
  462MOL0     O62266   5.578   8.918   5.277 -1.0971 -0.8067  0.6736
  462MOL0     C62267   5.530   8.875   5.400  0.3106 -1.0342  0.1426
  462MOL0     C62268   5.602   8.821   5.512  0.5994 -1.3289  0.5231
  462MOL0     C62269   5.530   8.791   5.626  0.4228  0.5882  0.5922
  462MOL0     C62270   5.390   8.807   5.638 -0.6970  0.3054  0.8575
  462MOL0     O62271   5.317   8.781   5.759  0.0880  0.1173  0.5044
  462MOL0     C62272   5.223   8.676   5.738 -0.8141 -0.1590 -0.6762
  462MOL0     C62273   5.184   8.626   5.874  0.3866 -0.2738  0.2339
  462MOL0     C62274   5.303   8.554   5.943  0.3135 -0.5376  0.9470
  462MOL0     C62275   5.256   8.493   6.080  0.0231 -0.6604 -0.4218
  462MOL0     C62276   5.218   8.600   6.186  0.3340  0.3285  0.3827
  462MOL0     C62277   5.182   8.535   6.316  0.0732  0.4085  0.3798
  462MOL0     C62278   5.102   8.618   6.417 -0.7380  0.2491  0.0134
  462MOL0     C62279   5.193   8.705   6.491  0.0842  0.7119 -0.8193
  462MOL0    Cl62280   5.105   8.820   6.608 -0.1060  0.0778 -0.4094
  462MOL0     C62281   5.318   8.841   5.523 -0.6847  0.0280  0.1014
  462MOL0     C62282   5.390   8.881   5.411 -0.4593 -0.4550  1.2504
  462MOL0     O62283   5.748   9.035   5.364  0.1997 -0.5243 -0.2747
  462MOL0     C62284   5.636   9.019   5.034  0.9308 -0.2030 -0.2774
  462MOL0     C62285   5.650   9.047   4.912 -0.7838 -0.1713  0.5350
  462MOL0     N62286   6.083   9.381   4.339 -0.4892 -1.3969 -0.5564
  462MOL0     N62287   6.028   9.479   4.270  0.2547 -0.0662 -0.0078
  462MOL0     C62288   6.165   9.099   3.116  0.2827 -1.2104 -0.3258
  462MOL0     C62289   6.266   9.056   3.025  0.1147 -0.2283 -0.2324
  462MOL0     C62290   6.713   9.068   2.871  1.0386 -0.7997  0.1064
  462MOL0     C62291   6.847   9.121   2.872 -0.0829 -0.2172 -0.3091
  462MOL0     C62292   6.945   9.045   2.804  0.5664 -0.4761  0.8524
  462MOL0     C62293   6.919   8.927   2.742  0.1485  0.4601 -0.6347
  462MOL0     O62294   7.032   8.865   2.693 -0.9267 -0.0437 -0.3259
  462MOL0     C62295   7.032   8.823   2.557 -0.2406 -1.1532  0.3218
  462MOL0     C62296   7.004   8.936   2.454 -0.4693  0.4257  0.6122
  462MOL0     C62297   7.012   8.891   2.311  1.0815  0.2477  0.1490
  462MOL0     C62298   7.154   8.863   2.254 -0.2451 -0.4952 -0.6186
  462MOL0     C62299   7.143   8.749   2.158  0.4620 -0.3701  0.5935
  462MOL0     C62300   7.163   8.651   2.083 -0.1558 -0.0972  0.2108
  462MOL0     C62301   6.795   8.877   2.733  0.5411  0.5335 -0.3584
  462MOL0     C62302   6.689   8.951   2.799  0.6333 -0.5007  0.0540
  462MOL0     H62303   6.519   9.109   3.238 -0.1220 -2.0687  1.1510
  462MOL0     H62304   6.338   9.218   3.361 -2.7624  2.7768 -1.3504
  462MOL0     H62305   6.171   9.223   3.487  1.5682  0.5933 -1.7348
  462MOL0     H62306   6.190   9.365   3.404  0.4023 -1.3628 -2.1817
  462MOL0     H62307   5.931   9.402   3.418  1.3182  2.1332  0.1568
  462MOL0     H62308   5.944   9.294   3.563 -0.1227 -0.6215 -1.0642
  462MOL0     H62309   6.148   9.464   3.603 -0.7489 -2.3016  1.4331
  462MOL0     H62310   6.049   9.575   3.518  1.9707 -0.9921 -0.9971
  462MOL0     H62311   5.852   9.491   3.687 -1.2661 -1.3476  0.1290
  462MOL0     H62312   5.968   9.384   3.760 -0.2764  1.1732  1.5081
  462MOL0     H62313   6.120   9.600   3.802  0.3917  1.3370  0.2344
  462MOL0     H62314   5.967   9.677   3.761 -2.0634 -0.3475  1.9126
  462MOL0     H62315   6.048   9.475   3.976 -0.6878 -0.2844  1.4368
  462MOL0     H62316   5.985   9.641   4.008 -2.2280 -0.5906  0.4632
  462MOL0     H62317   5.749   9.554   3.934 -1.1972 -2.0793  0.5902
  462MOL0     H62318   5.827   9.391   3.937  4.0362  0.5312  0.0021
  462MOL0     H62319   5.721   9.420   4.133  0.6069 -0.9992  0.0095
  462MOL0     H62320   5.780   9.580   4.162 -0.4006  0.4171 -1.1118
  462MOL0     H62321   5.840   9.219   4.210 -0.2464 -0.4953  3.4299
  462MOL0     H62322   6.030   9.058   4.291 -3.1486 -0.7695 -0.1154
  462MOL0     H62323   6.151   9.134   4.395 -0.4770 -1.7532  0.0967
  462MOL0     H62324   5.993   9.188   4.572  3.3637 -1.6632  0.1764
  462MOL0     H62325   6.014   9.019   4.551  1.1241  1.8383  1.9568
  462MOL0     H62326   5.778   9.044   4.405 -0.8301  2.9747 -2.7835
  462MOL0     H62327   5.763   9.197   4.500  0.9923  1.5275  3.5143
  462MOL0     H62328   5.802   8.937   4.651  1.0775 -1.0766  0.2461
  462MOL0     H62329   5.656   9.028   4.605  1.0007  2.2233 -2.4481
  462MOL0     H62330   5.954   9.178   4.915  0.7434  1.5775  2.1070
  462MOL0     H62331   5.964   9.142   5.271  0.7423  1.0614  1.1550
  462MOL0     H62332   6.026   8.999   5.169  2.5414  1.9768 -1.4709
  462MOL0     H62333   6.060   9.160   5.125  0.0386 -2.0292 -3.2669
  462MOL0     H62334   5.710   8.816   5.503  0.7310  1.9516 -1.9302
  462MOL0     H62335   5.587   8.748   5.707  1.5151  0.2384 -0.3310
  462MOL0     H62336   5.133   8.713   5.689 -0.0383  2.6475 -0.1860
  462MOL0     H62337   5.263   8.591   5.683 -2.3765  0.4104 -2.8251
  462MOL0     H62338   5.151   8.708   5.940  0.2984 -1.1987  1.3725
  462MOL0     H62339   5.099   8.560   5.856  0.9927 -0.7366 -1.0595
  462MOL0     H62340   5.390   8.619   5.958  0.5762 -0.0412 -2.0134
  462MOL0     H62341   5.333   8.472   5.877  1.5530  0.4185  0.2632
  462MOL0     H62342   5.168   8.432   6.057  0.3322 -1.5528  0.6270
  462MOL0     H62343   5.335   8.432   6.125  0.7913  0.2788 -0.4786
  462MOL0     H62344   5.138   8.664   6.149  0.6441  0.5432  0.0845
  462MOL0     H62345   5.304   8.666   6.197 -1.6109  2.8606  1.2929
  462MOL0     H62346   5.123   8.447   6.291  0.1261 -0.2006  2.2522
  462MOL0     H62347   5.269   8.497   6.369 -0.9029  0.1429  1.8482
  462MOL0     H62348   5.038   8.549   6.472  0.7602 -1.0931  0.1560
  462MOL0     H62349   5.036   8.687   6.364  0.7745  1.5180 -0.3216
  462MOL0     H62350   5.250   8.764   6.419  0.3218  0.6664 -0.6671
  462MOL0     H62351   5.270   8.644   6.539 -2.9235 -3.1770 -0.3793
  462MOL0     H62352   5.210   8.850   5.524 -0.7948 -0.6844 -1.8629
  462MOL0     H62353   5.333   8.920   5.327 -1.2312  0.0033  1.9692
  462MOL0     H62354   5.542   8.977   5.068  2.4045  0.0047  5.0628
  462MOL0     H62355   5.569   9.022   4.844  1.1853  0.7061 -2.3409
  462MOL0     H62356   6.065   9.072   3.081 -0.9050  2.2535 -0.0101
  462MOL0     H62357   6.236   9.013   2.930  1.2677 -1.0922 -0.2205
  462MOL0     H62358   6.876   9.212   2.923 -3.0648  0.7743 -0.1854
  462MOL0     H62359   7.048   9.078   2.816  0.8592 -1.3151  0.7564
  462MOL0     H62360   7.133   8.796   2.523 -0.5240  1.4301 -3.0972
  462MOL0     H62361   6.960   8.741   2.543  1.8794 -2.6389 -3.4577
  462MOL0     H62362   7.077   9.017   2.468  1.2557 -1.0170  0.2581
  462MOL0     H62363   6.905   8.977   2.475 -0.4381  0.8880 -0.1130
  462MOL0     H62364   6.953   8.962   2.251 -0.7512  0.9536  2.5934
  462MOL0     H62365   6.938   8.811   2.300  1.3994 -0.9321  4.6049
  462MOL0     H62366   7.216   8.836   2.339 -1.5995  3.0002  1.6997
  462MOL0     H62367   7.186   8.961   2.216  2.2228 -1.2857 -0.7311
  462MOL0     H62368   7.175   8.570   2.013  0.0796  0.1829 -0.0757
  462MOL0     H62369   6.788   8.779   2.687  1.0973  0.6765 -0.7610
  462MOL0     H62370   6.594   8.901   2.792  0.1145  0.3702  0.6476
  463MOL0     O62371  10.688   5.220  11.380 -0.9706  0.5032  0.1480
  463MOL0     C62372  10.678   5.333  11.333 -0.4896  0.3780  0.2391
  463MOL0     O62373  10.570   5.414  11.338  0.2283 -0.1792  1.2484
  463MOL0     C62374  10.455   5.365  11.388 -0.0819  0.0811 -0.1750
  463MOL0     C62375  10.373   5.285  11.312 -0.0899 -0.2015 -0.0301
  463MOL0     C62376  10.249   5.241  11.359  0.3018  0.4026 -0.5971
  463MOL0     C62377  10.200   5.288  11.477 -0.0743 -0.4870 -0.2504
  463MOL0     O62378  10.079   5.234  11.522 -0.8804  0.4314 -0.4955
  463MOL0     C62379  10.089   5.194  11.665 -1.0211  0.3041  1.2072
  463MOL0     C62380   9.995   5.268  11.757  0.4427  0.2846  0.2901
  463MOL0     C62381  10.015   5.218  11.898  0.1236  0.5790  0.2043
  463MOL0     C62382   9.886   5.250  11.987  0.2581 -0.3185  0.0650
  463MOL0     C62383   9.775   5.148  11.961  0.7980  0.2096  0.6462
  463MOL0     C62384   9.642   5.188  12.033  0.2809 -0.0342 -0.4637
  463MOL0     C62385   9.655   5.214  12.180  0.7394 -0.5278  1.4837
  463MOL0     C62386   9.523   5.224  12.255  0.2738 -0.7727  0.0410
  463MOL0     N62387   9.452   5.348  12.231  0.0503 -0.2996  0.5995
  463MOL0     C62388   9.357   5.366  12.137 -0.0875  0.5829 -0.0143
  463MOL0     C62389   9.283   5.466  12.185  0.2771 -0.7533  0.2044
  463MOL0     C62390   9.172   5.526  12.102  0.2523 -0.4367  0.2116
  463MOL0     C62391   9.214   5.630  11.997  0.1020 -0.1500  0.3220
  463MOL0     C62392   9.098   5.700  11.917 -0.5344  0.3446 -0.3536
  463MOL0     C62393   9.019   5.793  12.012 -1.5520 -0.1281  0.7143
  463MOL0     O62394   8.916   5.843  11.925 -0.6590  0.1319 -0.4662
  463MOL0     C62395   8.932   5.941  11.833  0.5237  0.4850  0.1773
  463MOL0     C62396   9.038   6.031  11.817  0.0565 -0.0626 -0.1225
  463MOL0     C62397   9.030   6.144  11.741 -0.2927 -0.8651  0.0264
  463MOL0     C62398   9.173   6.214  11.718 -1.2523 -0.8393  0.0725
  463MOL0     C62399   8.911   6.170  11.673 -0.8101 -0.1203  1.2629
  463MOL0     C62400   8.882   6.300  11.611 -0.1101 -0.2813 -0.5798
  463MOL0     O62401   8.750   6.309  11.564  0.8108  0.3707  0.1192
  463MOL0     C62402   8.710   6.387  11.461  0.9519 -0.3582 -0.6540
  463MOL0     C62403   8.604   6.339  11.384  0.2992  0.7524  1.1319
  463MOL0     C62404   8.535   6.416  11.292 -0.1462 -0.2454  0.1532
  463MOL0     C62405   8.570   6.550  11.267  0.4372 -0.0585 -0.4748
  463MOL0     O62406   8.484   6.623  11.191  0.0095  0.5077 -0.2534
  463MOL0     C62407   8.541   6.723  11.107  0.0932 -0.5819  0.4798
  463MOL0     C62408   8.440   6.750  10.996 -0.3677  0.1112  0.0177
  463MOL0     C62409   8.415   6.634  10.911  0.2208  0.2186 -0.4311
  463MOL0     C62410   8.294   6.657  10.820 -0.3385  0.4263  0.1056
  463MOL0     C62411   8.176   6.584  10.866 -0.9055 -0.5218 -1.0529
  463MOL0     C62412   8.053   6.645  10.807  1.2106  0.0358 -0.2629
  463MOL0     C62413   7.935   6.556  10.838  0.2186 -0.1783 -0.4587
  463MOL0     C62414   7.803   6.587  10.761 -0.2511 -0.0240 -0.2390
  463MOL0    Cl62415   7.805   6.506  10.600  0.1929  0.1390 -0.1488
  463MOL0     C62416   8.679   6.595  11.337  1.0124  0.0641 -0.4250
  463MOL0     C62417   8.757   6.515  11.432  0.3276  0.0079  0.0285
  463MOL0     O62418   8.971   6.381  11.584 -0.8815  0.5866  0.7702
  463MOL0     C62419   8.810   6.070  11.680 -0.4458  0.2962  0.0649
  463MOL0     C62420   8.813   5.961  11.770 -0.3199  0.3200 -0.5786
  463MOL0     N62421   9.329   5.499  12.307 -0.6519  0.0815  0.2000
  463MOL0     N62422   9.441   5.443  12.324 -0.3210 -0.8655 -1.4666
  463MOL0     C62423  10.282   5.386  11.550 -0.6501  0.5649  0.2181
  463MOL0     C62424  10.412   5.417  11.500 -0.0371 -1.1240  0.2428
  463MOL0     C62425  10.797   5.382  11.264  0.0090 -0.1583  0.8145
  463MOL0     C62426  10.907   5.293  11.239  0.6170  1.1299  0.0455
  463MOL0     C62427  11.014   5.325  11.153 -0.2964  0.5557  0.8005
  463MOL0     C62428  10.992   5.445  11.076  0.2575  0.5023 -0.1776
  463MOL0     O62429  11.072   5.488  10.972  0.0672  0.4356  0.2284
  463MOL0     C62430  11.201   5.440  10.964 -0.0518  0.2115 -0.2069
  463MOL0     C62431  11.284   5.502  11.073 -1.0615  0.2869 -1.1517
  463MOL0     C62432  11.427   5.497  11.028 -0.5524  0.7073  0.5220
  463MOL0     C62433  11.530   5.583  11.105 -1.0900 -0.6565  0.4828
  463MOL0     C62434  11.598   5.500  11.202 -1.2829  0.1824 -0.0549
  463MOL0     C62435  11.603   5.434  11.312 -0.3381  0.8674  0.5538
  463MOL0     C62436  10.882   5.530  11.092 -0.0775  0.3899  0.2605
  463MOL0     C62437  10.786   5.497  11.182  0.2112 -0.8948  0.0129
  463MOL0     H62438  10.407   5.241  11.218  0.4308  0.2451 -0.0551
  463MOL0     H62439  10.184   5.172  11.306 -2.6836  1.5148  1.2979
  463MOL0     H62440  10.054   5.091  11.662  1.1101 -0.4943 -2.8372
  463MOL0     H62441  10.191   5.194  11.704 -0.9617 -1.5603  1.1577
  463MOL0     H62442  10.006   5.376  11.740 -0.9887 -0.0144 -3.5471
  463MOL0     H62443   9.893   5.251  11.721  0.8527  1.1981 -1.4463
  463MOL0     H62444  10.023   5.109  11.897  1.6952  0.6640  0.2574
  463MOL0     H62445  10.107   5.253  11.945  0.3509  0.9229 -0.4846
  463MOL0     H62446   9.917   5.259  12.091 -0.9158  1.4214  0.3048
  463MOL0     H62447   9.857   5.355  11.980  0.2942 -0.3908 -1.6083
  463MOL0     H62448   9.755   5.140  11.853 -0.8146  4.2466  0.4718
  463MOL0     H62449   9.815   5.058  12.008 -2.0061 -2.3257 -1.3826
  463MOL0     H62450   9.589   5.272  11.989 -0.5304 -1.3695 -2.1476
  463MOL0     H62451   9.584   5.096  12.019  3.4673 -1.8452 -3.0930
  463MOL0     H62452   9.719   5.136  12.222 -0.0701 -1.3688  1.1690
  463MOL0     H62453   9.716   5.305  12.192  0.6999 -0.0603 -1.1002
  463MOL0     H62454   9.547   5.216  12.362 -2.2717 -1.0667  0.6475
  463MOL0     H62455   9.468   5.131  12.239  1.0192 -1.2758  0.2920
  463MOL0     H62456   9.338   5.308  12.047 -6.0584  2.1653 -0.2230
  463MOL0     H62457   9.122   5.443  12.051 -1.5553  0.2564  0.7752
  463MOL0     H62458   9.094   5.572  12.163  2.2919  2.6242  0.7238
  463MOL0     H62459   9.274   5.587  11.917  0.9791  2.2378 -0.3792
  463MOL0     H62460   9.286   5.692  12.051 -0.3676  0.2035  0.5549
  463MOL0     H62461   9.042   5.629  11.856 -0.1828  1.8778 -2.5648
  463MOL0     H62462   9.149   5.770  11.851  1.8001  0.0072  0.9773
  463MOL0     H62463   9.081   5.873  12.052 -3.3423  3.1270 -2.4130
  463MOL0     H62464   8.969   5.724  12.081 -0.6285  1.2785  2.8733
  463MOL0     H62465   9.132   6.003  11.865  0.6284 -1.7697 -2.0949
  463MOL0     H62466   9.195   6.210  11.611  1.5847  0.1654  0.5488
  463MOL0     H62467   9.163   6.319  11.751  1.8265 -1.6682  4.6600
  463MOL0     H62468   9.263   6.188  11.774 -0.6725  0.4700 -0.1967
  463MOL0     H62469   8.572   6.235  11.388  2.2846  0.1125  1.7117
  463MOL0     H62470   8.454   6.373  11.234  0.3549 -1.7047  0.4971
  463MOL0     H62471   8.561   6.813  11.165 -0.3741 -1.9592  2.9323
  463MOL0     H62472   8.633   6.679  11.067 -0.3133 -2.0302  1.0614
  463MOL0     H62473   8.346   6.769  11.048 -3.2870  1.0253 -4.9525
  463MOL0     H62474   8.454   6.834  10.928  0.5280 -0.2371 -0.2447
  463MOL0     H62475   8.393   6.549  10.976  1.5892  0.4537  0.3719
  463MOL0     H62476   8.507   6.600  10.862  0.1191 -0.9113  0.1362
  463MOL0     H62477   8.283   6.764  10.802 -2.3234  0.3280  0.5492
  463MOL0     H62478   8.311   6.607  10.724 -1.0906  0.9786 -0.3260
  463MOL0     H62479   8.176   6.596  10.975  0.0856 -0.0761 -1.0928
  463MOL0     H62480   8.184   6.477  10.847 -0.1796 -0.1145 -3.2634
  463MOL0     H62481   8.041   6.743  10.854  1.4462  0.9466 -2.0349
  463MOL0     H62482   8.065   6.653  10.699 -1.1733  1.1690 -0.5077
  463MOL0     H62483   7.912   6.561  10.945 -2.0165 -3.1771 -0.6698
  463MOL0     H62484   7.943   6.450  10.812 -1.0494 -0.2369 -0.6930
  463MOL0     H62485   7.796   6.695  10.747  1.6188 -0.1595 -3.2417
  463MOL0     H62486   7.728   6.550  10.831  1.6713  0.6134  2.3229
  463MOL0     H62487   8.705   6.700  11.329  2.5220 -0.3949 -1.9220
  463MOL0     H62488   8.835   6.565  11.489 -0.3691  1.2299 -0.0404
  463MOL0     H62489   8.717   6.098  11.631  0.1485  2.6698  0.2053
  463MOL0     H62490   8.728   5.901  11.799  0.1369  0.8196  1.9803
  463MOL0     H62491  10.241   5.435  11.637 -0.4925  2.6387 -0.8324
  463MOL0     H62492  10.471   5.492  11.551  1.1491 -1.8054 -0.0904
  463MOL0     H62493  10.905   5.198  11.290 -1.5583  0.8943 -0.4020
  463MOL0     H62494  11.096   5.254  11.145 -1.6474 -1.3130  2.4979
  463MOL0     H62495  11.210   5.331  10.960 -0.8085  0.1255  0.3850
  463MOL0     H62496  11.234   5.474  10.865  0.6719  1.7877  0.5446
  463MOL0     H62497  11.284   5.457  11.173  1.4848  1.9941 -0.2815
  463MOL0     H62498  11.254   5.607  11.078 -2.3856 -0.0940 -0.5940
  463MOL0     H62499  11.418   5.527  10.923  0.3884 -3.4697 -0.9801
  463MOL0     H62500  11.467   5.395  11.033 -0.0460  0.9004  0.4950
  463MOL0     H62501  11.485   5.675  11.144  0.4411  0.4327 -0.2564
  463MOL0     H62502  11.604   5.622  11.036 -2.4214 -0.8526 -1.1096
  463MOL0     H62503  11.602   5.367  11.397  0.7708 -0.1699 -0.2193
  463MOL0     H62504  10.868   5.617  11.029  1.2727  0.7040  0.3747
  463MOL0     H62505  10.697   5.559  11.189  0.6814 -0.2594  0.5629
  464MOL0     O62506   1.514   8.251   6.699 -0.6566  0.8361  0.5817
  464MOL0     C62507   1.515   8.362   6.747  0.3051  0.5695  0.5810
  464MOL0     O62508   1.615   8.457   6.729  0.7064 -0.3031 -0.0440
  464MOL0     C62509   1.725   8.413   6.659  0.1118  0.2864  0.0795
  464MOL0     C62510   1.824   8.321   6.697 -0.5487 -0.7173 -0.0369
  464MOL0     C62511   1.919   8.277   6.599  0.7299 -0.2874 -0.1305
  464MOL0     C62512   1.929   8.332   6.471  0.4290 -0.0939 -0.5309
  464MOL0     O62513   2.022   8.289   6.383 -0.0096  0.4133 -0.6252
  464MOL0     C62514   1.976   8.238   6.265  0.0669 -0.0827  0.9724
  464MOL0     C62515   2.095   8.236   6.161 -0.6868 -1.0082  0.5003
  464MOL0     C62516   2.098   8.139   6.043  1.3377  0.3335  0.4483
  464MOL0     C62517   1.966   8.137   5.963 -0.6118  0.3467  0.4653
  464MOL0     C62518   1.924   8.279   5.920 -0.4682  0.0620  0.4209
  464MOL0     C62519   1.797   8.263   5.838 -0.3254  0.0911  0.3062
  464MOL0     C62520   1.679   8.220   5.926 -0.1543  0.6427 -0.3608
  464MOL0     C62521   1.546   8.249   5.850 -1.3614 -0.1727  0.3767
  464MOL0     N62522   1.430   8.238   5.939  0.6758  0.5571  0.3139
  464MOL0     C62523   1.329   8.147   5.931  0.7003 -0.4029  0.8280
  464MOL0     C62524   1.231   8.184   6.023  0.1280  0.0368  0.3127
  464MOL0     C62525   1.105   8.111   6.049 -0.7605  0.1725 -0.4873
  464MOL0     C62526   0.989   8.201   6.037 -0.0768 -0.4279 -0.1199
  464MOL0     C62527   0.861   8.144   6.115  0.2192  0.3748 -0.5183
  464MOL0     C62528   0.773   8.057   6.018  0.4479 -0.0646  0.3964
  464MOL0     O62529   0.715   8.130   5.916 -0.3534 -0.1057 -0.2527
  464MOL0     C62530   0.664   8.072   5.806 -0.4678  0.6879 -0.7378
  464MOL0     C62531   0.644   8.142   5.688  0.1988 -0.3505 -0.0974
  464MOL0     C62532   0.566   8.083   5.580  0.2707 -0.5239 -0.2738
  464MOL0     C62533   0.561   8.165   5.457  0.0688  0.5708 -0.4383
  464MOL0     C62534   0.500   7.964   5.600 -0.9946 -0.1173  0.9513
  464MOL0     C62535   0.415   7.893   5.492 -0.6816 -1.0188  0.4942
  464MOL0     O62536   0.324   7.807   5.538  0.4776  0.2141  0.3535
  464MOL0     C62537   0.298   7.704   5.451  0.3076  0.9103  0.1748
  464MOL0     C62538   0.382   7.596   5.442  0.3353 -0.0764 -0.3906
  464MOL0     C62539   0.348   7.479   5.372  0.7446  1.2756 -0.2440
  464MOL0     C62540   0.220   7.477   5.305  0.3686 -0.2508  0.4019
  464MOL0     O62541   0.180   7.366   5.234  0.4565  0.3662 -0.4040
  464MOL0     C62542   0.155   7.254   5.320  0.2615  0.0466  0.1125
  464MOL0     C62543   0.031   7.262   5.416 -0.3491  0.8059  0.2017
  464MOL0     C62544  -0.102   7.293   5.342  0.1395 -0.1000 -0.3710
  464MOL0     C62545  -0.212   7.293   5.456  0.2694  0.5081  0.0575
  464MOL0     C62546  -0.341   7.336   5.398 -0.3491 -1.1810  0.0142
  464MOL0     C62547  -0.462   7.271   5.463 -0.8308  0.2216  1.1265
  464MOL0     C62548  -0.582   7.362   5.462 -0.6563 -0.2525  0.3353
  464MOL0     C62549  -0.650   7.359   5.326 -0.4409 -0.2882  0.5254
  464MOL0    Cl62550  -0.752   7.205   5.307 -0.1850 -0.2543 -0.3736
  464MOL0     C62551   0.139   7.599   5.297  0.0875  0.7803 -0.6912
  464MOL0     C62552   0.173   7.708   5.385  0.4515  0.1006  0.0912
  464MOL0     O62553   0.436   7.913   5.371  0.0876 -0.2038  0.0374
  464MOL0     C62554   0.516   7.894   5.722 -0.1701 -0.6877  0.6847
  464MOL0     C62555   0.604   7.940   5.819  0.6917  0.4145 -0.0932
  464MOL0     N62556   1.288   8.295   6.093  0.2990  0.4062 -0.7794
  464MOL0     N62557   1.397   8.327   6.036  0.9270 -0.1163 -0.0438
  464MOL0     C62558   1.832   8.429   6.444 -1.0810 -0.1176  0.1302
  464MOL0     C62559   1.727   8.462   6.530  0.0063 -0.1790 -0.7552
  464MOL0     C62560   1.395   8.398   6.833  1.1557  0.4964  0.3344
  464MOL0     C62561   1.388   8.510   6.911  0.0552 -0.2245  0.1190
  464MOL0     C62562   1.266   8.550   6.972  0.5771  0.9133 -0.9588
  464MOL0     C62563   1.147   8.477   6.971 -0.0621  0.1465  0.0412
  464MOL0     O62564   1.047   8.513   7.052 -0.2417 -0.3475 -0.4295
  464MOL0     C62565   0.954   8.608   7.010  0.0679 -0.7043  0.6876
  464MOL0     C62566   0.890   8.698   7.120 -1.2330 -0.1109 -0.6963
  464MOL0     C62567   0.751   8.756   7.071  0.1011  0.4290  0.2760
  464MOL0     C62568   0.759   8.840   6.943  0.1328  0.2395 -0.2053
  464MOL0     C62569   0.624   8.869   6.889  0.5953 -0.4466 -0.3787
  464MOL0     C62570   0.518   8.909   6.848 -0.2087 -0.3109  0.1752
  464MOL0     C62571   1.157   8.356   6.908 -0.0956  0.3191  0.3320
  464MOL0     C62572   1.274   8.317   6.837  0.0302 -0.5680 -0.6140
  464MOL0     H62573   1.824   8.280   6.797 -2.3550 -2.1368 -0.5802
  464MOL0     H62574   1.995   8.204   6.623  1.3732  0.7173  1.0518
  464MOL0     H62575   1.944   8.135   6.283 -0.9166  0.5187  2.9242
  464MOL0     H62576   1.885   8.293   6.237 -0.4059 -1.8849 -1.3476
  464MOL0     H62577   2.088   8.332   6.109 -3.7068 -1.3790  0.0303
  464MOL0     H62578   2.191   8.228   6.211 -0.4148  1.2395  0.4555
  464MOL0     H62579   2.178   8.176   5.978 -0.8513  2.8009 -1.0401
  464MOL0     H62580   2.122   8.037   6.074 -1.2602 -1.1019 -1.8014
  464MOL0     H62581   1.973   8.074   5.873  1.3832  1.7947 -0.4811
  464MOL0     H62582   1.890   8.090   6.025  0.5478 -4.5943 -1.3150
  464MOL0     H62583   1.902   8.340   6.008 -0.8990 -0.4807  0.6944
  464MOL0     H62584   2.004   8.325   5.862 -1.0710 -1.9328 -2.1784
  464MOL0     H62585   1.780   8.355   5.782 -1.1220 -0.4951 -0.4402
  464MOL0     H62586   1.805   8.178   5.770 -1.6493  2.0671 -2.4799
  464MOL0     H62587   1.684   8.115   5.953  0.2802  0.5650 -0.7353
  464MOL0     H62588   1.686   8.277   6.019 -0.2096 -1.7797  1.2094
  464MOL0     H62589   1.524   8.171   5.777 -2.1078 -0.2548  0.6773
  464MOL0     H62590   1.555   8.351   5.812 -2.7863  0.7761  2.3740
  464MOL0     H62591   1.323   8.069   5.856 -0.3624 -0.2452  0.7433
  464MOL0     H62592   1.095   8.036   5.969 -0.2684  1.7440 -2.0992
  464MOL0     H62593   1.107   8.056   6.143  0.3727 -2.1624 -1.7969
  464MOL0     H62594   0.967   8.233   5.935 -1.7495  0.0484  0.3573
  464MOL0     H62595   1.022   8.288   6.095  1.3184 -2.6648  2.7345
  464MOL0     H62596   0.809   8.220   6.174 -0.9564 -2.5260  2.4310
  464MOL0     H62597   0.890   8.077   6.196  0.8077  0.5472 -0.5791
  464MOL0     H62598   0.705   8.013   6.092  1.8648 -1.0417  1.1844
  464MOL0     H62599   0.824   7.968   5.980 -2.4548 -1.4585 -0.4699
  464MOL0     H62600   0.696   8.234   5.666  0.5595 -0.1947  1.3540
  464MOL0     H62601   0.458   8.175   5.422 -0.9713  2.1282  2.6924
  464MOL0     H62602   0.608   8.264   5.466  1.5823 -0.1848  0.3844
  464MOL0     H62603   0.609   8.111   5.374 -1.2278  2.0326 -2.2280
  464MOL0     H62604   0.477   7.611   5.492  0.2934 -0.7982 -0.0763
  464MOL0     H62605   0.421   7.400   5.380  1.5058  2.1663  2.8180
  464MOL0     H62606   0.145   7.164   5.258  1.6682 -0.5820  0.7366
  464MOL0     H62607   0.245   7.229   5.377 -1.5657 -4.9471  1.3719
  464MOL0     H62608   0.011   7.181   5.488  0.6323  1.8403  1.7018
  464MOL0     H62609   0.062   7.336   5.490 -1.6056  1.5169  0.0414
  464MOL0     H62610  -0.138   7.211   5.279  0.8279  0.3306 -1.3376
  464MOL0     H62611  -0.097   7.390   5.292  0.1957 -0.7811 -1.7298
  464MOL0     H62612  -0.222   7.193   5.500  1.2818  0.2082 -0.3448
  464MOL0     H62613  -0.186   7.345   5.548 -0.6188 -2.0840  1.8869
  464MOL0     H62614  -0.345   7.311   5.292  3.1228 -1.6078 -0.1157
  464MOL0     H62615  -0.346   7.446   5.405  0.4595 -1.0424 -1.2998
  464MOL0     H62616  -0.493   7.176   5.421 -2.8372  0.5049  1.8734
  464MOL0     H62617  -0.430   7.257   5.567  1.7430  1.0194  0.5157
  464MOL0     H62618  -0.557   7.464   5.494  5.7177 -1.0994 -0.6900
  464MOL0     H62619  -0.659   7.323   5.529 -3.2317  1.4648 -1.4154
  464MOL0     H62620  -0.586   7.390   5.243 -1.2137  1.5598  0.5586
  464MOL0     H62621  -0.721   7.443   5.324 -1.7888 -1.4134 -0.8144
  464MOL0     H62622   0.047   7.596   5.240 -0.5405  1.2189  0.2880
  464MOL0     H62623   0.099   7.786   5.400 -0.2883 -0.3851 -0.9036
  464MOL0     H62624   0.462   7.800   5.733 -0.9017 -0.1980  1.3832
  464MOL0     H62625   0.620   7.880   5.908 -0.6929 -1.9197 -1.3164
  464MOL0     H62626   1.844   8.469   6.343 -3.3477 -1.5607 -0.8045
  464MOL0     H62627   1.654   8.538   6.504  0.2417  0.2783 -0.1353
  464MOL0     H62628   1.476   8.574   6.915  0.9448 -1.3594 -0.4256
  464MOL0     H62629   1.256   8.641   7.030 -1.3056 -0.7681  1.6057
  464MOL0     H62630   0.987   8.679   6.934 -3.0596  0.9897  0.7573
  464MOL0     H62631   0.866   8.555   6.973 -0.5883  0.2563  0.8447
  464MOL0     H62632   0.960   8.778   7.144 -1.1789 -0.1021 -0.8857
  464MOL0     H62633   0.870   8.645   7.214 -3.4399  2.9090  0.7172
  464MOL0     H62634   0.715   8.814   7.157 -3.7132 -2.9608  1.3081
  464MOL0     H62635   0.670   8.682   7.065  0.3122  0.3228 -3.3652
  464MOL0     H62636   0.836   8.806   6.873 -0.0170 -0.6686  0.0689
  464MOL0     H62637   0.797   8.942   6.960 -0.3806  0.0709  2.2024
  464MOL0     H62638   0.431   8.957   6.809  0.3802 -0.1036 -0.9304
  464MOL0     H62639   1.084   8.276   6.898  0.9608 -0.8871  1.7582
  464MOL0     H62640   1.275   8.222   6.784  0.4522  0.2137 -2.0788
  465MOL0     O62641  11.330   4.975   3.180  0.3689  0.3588 -0.3317
  465MOL0     C62642  11.280   4.932   3.285  1.1073  0.3192 -0.3982
  465MOL0     O62643  11.152   4.964   3.327 -0.3464 -0.4231  0.5655
  465MOL0     C62644  11.088   5.083   3.293  0.0278  0.6827 -1.4988
  465MOL0     C62645  11.140   5.203   3.246  0.3471  0.3598  0.1031
  465MOL0     C62646  11.050   5.305   3.220 -0.7919 -0.0984  0.4343
  465MOL0     C62647  10.909   5.292   3.237 -0.3691 -0.8176 -0.7483
  465MOL0     O62648  10.833   5.408   3.233  0.4177 -0.3923 -0.6703
  465MOL0     C62649  10.699   5.398   3.196 -0.3164  0.0652 -0.0480
  465MOL0     C62650  10.623   5.524   3.232  1.0143 -0.2377 -1.1093
  465MOL0     C62651  10.615   5.620   3.115  0.0685 -0.3873 -0.5424
  465MOL0     C62652  10.748   5.695   3.102  1.1991  0.0901  0.2348
  465MOL0     C62653  10.756   5.786   2.975 -0.0506 -0.4464 -1.3077
  465MOL0     C62654  10.681   5.920   3.000  0.2153  0.7714  0.3674
  465MOL0     C62655  10.534   5.908   2.996 -0.5639 -0.0021 -0.7620
  465MOL0     C62656  10.463   5.972   3.114 -0.1502  0.2166 -0.4645
  465MOL0     N62657  10.319   5.954   3.086 -0.5848 -0.3565  0.7645
  465MOL0     C62658  10.236   6.041   3.018  0.7499 -0.7004 -0.1108
  465MOL0     C62659  10.117   5.976   3.012 -0.0854 -1.2217 -0.6990
  465MOL0     C62660   9.984   6.034   2.963 -0.6603 -0.3221 -0.1162
  465MOL0     C62661   9.865   6.006   3.065 -0.2898  0.1912  0.4295
  465MOL0     C62662   9.735   6.074   3.032  0.1941  0.2511 -0.2663
  465MOL0     C62663   9.757   6.225   3.022 -0.2634 -0.0114 -0.6454
  465MOL0     O62664   9.639   6.316   3.023 -0.0626 -0.4698  0.7627
  465MOL0     C62665   9.661   6.455   3.014  0.4488  0.3622  0.2377
  465MOL0     C62666   9.784   6.520   2.983 -0.1682 -0.4637  0.5895
  465MOL0     C62667   9.800   6.664   2.978  0.4982 -0.5085  0.0658
  465MOL0     C62668   9.937   6.720   2.961  0.0638  0.4736  0.6520
  465MOL0     C62669   9.689   6.741   3.006  0.2693  0.0826 -0.3443
  465MOL0     C62670   9.694   6.895   2.996 -0.2938 -0.4986  0.1367
  465MOL0     O62671   9.575   6.942   2.950  0.1051 -0.3606  0.0856
  465MOL0     C62672   9.533   7.078   2.971  0.2389  0.0853  0.3190
  465MOL0     C62673   9.504   7.135   3.100 -0.7407 -0.4341  0.2531
  465MOL0     C62674   9.493   7.266   3.114 -0.2927 -1.4574 -0.1495
  465MOL0     C62675   9.501   7.350   2.997  1.5021  0.5831 -0.1482
  465MOL0     O62676   9.473   7.481   3.011  0.4274 -0.4623 -0.9389
  465MOL0     C62677   9.517   7.572   2.903 -0.2792  0.1002  0.2219
  465MOL0     C62678   9.545   7.703   2.972  0.3440 -0.1330 -0.6618
  465MOL0     C62679   9.565   7.817   2.878 -0.2097 -0.4912 -0.1303
  465MOL0     C62680   9.454   7.886   2.799 -0.0804  1.0266  0.1390
  465MOL0     C62681   9.512   8.000   2.708 -0.1775 -0.4665  0.1840
  465MOL0     C62682   9.575   8.109   2.809  0.1972 -0.3421  0.0732
  465MOL0     C62683   9.546   8.255   2.760  0.7184 -0.2693  0.9730
  465MOL0     C62684   9.576   8.360   2.868 -0.3974  0.3528  0.6348
  465MOL0    Cl62685   9.561   8.522   2.814 -0.1018  0.5572  0.1099
  465MOL0     C62686   9.528   7.298   2.874  0.4709 -0.5352 -0.5157
  465MOL0     C62687   9.553   7.162   2.865  0.2033  0.0769  0.3870
  465MOL0     O62688   9.784   6.966   3.045 -0.4504 -0.6678 -0.3089
  465MOL0     C62689   9.560   6.682   3.030 -0.0962  0.3908 -0.3164
  465MOL0     C62690   9.553   6.539   3.047 -1.2741 -0.2917 -0.4557
  465MOL0     N62691  10.135   5.849   3.072  0.3293 -0.3936  0.2685
  465MOL0     N62692  10.251   5.843   3.126  0.3839  0.7626  0.0456
  465MOL0     C62693  10.866   5.178   3.294  0.3837  0.8473  0.0286
  465MOL0     C62694  10.948   5.071   3.313 -1.1145  0.3193  0.0613
  465MOL0     C62695  11.345   4.823   3.372  0.2817  0.5078 -0.2511
  465MOL0     C62696  11.273   4.741   3.451 -0.4655  0.5622 -0.5418
  465MOL0     C62697  11.349   4.652   3.534 -0.3153 -0.2457  1.1739
  465MOL0     C62698  11.488   4.654   3.543  0.5759 -0.4458  0.2046
  465MOL0     O62699  11.549   4.572   3.640 -0.1631  0.7800  0.6366
  465MOL0     C62700  11.487   4.549   3.774 -0.2207  0.2524  0.0519
  465MOL0     C62701  11.514   4.656   3.881  0.3856 -0.5542  0.2522
  465MOL0     C62702  11.665   4.672   3.913 -0.5840  0.3977 -0.1047
  465MOL0     C62703  11.689   4.740   4.040 -0.4939 -0.2656  0.6706
  465MOL0     C62704  11.622   4.686   4.157  0.4983  0.3171 -0.3564
  465MOL0     C62705  11.571   4.633   4.259 -0.4343 -0.4481  0.6352
  465MOL0     C62706  11.562   4.735   3.452 -0.4547  0.0901 -1.1518
  465MOL0     C62707  11.485   4.816   3.375 -0.0635  0.4538 -0.4270
  465MOL0     H62708  11.249   5.200   3.240  1.0311  0.4495  5.9221
  465MOL0     H62709  11.072   5.402   3.176 -4.1869  0.7462  0.3047
  465MOL0     H62710  10.699   5.392   3.087  2.9321 -0.9701 -0.0925
  465MOL0     H62711  10.649   5.309   3.236 -1.3227 -1.2141 -3.7797
  465MOL0     H62712  10.524   5.498   3.271 -0.0613  2.5618 -1.7737
  465MOL0     H62713  10.675   5.582   3.309 -2.0767  1.7635 -0.3056
  465MOL0     H62714  10.583   5.563   3.027 -0.3988 -1.0011  0.0189
  465MOL0     H62715  10.536   5.695   3.125  1.8195  2.0727 -3.5684
  465MOL0     H62716  10.784   5.743   3.193 -0.9851  0.6039  0.8886
  465MOL0     H62717  10.815   5.613   3.071  0.2126  0.1965 -2.4928
  465MOL0     H62718  10.862   5.797   2.950  0.4931 -3.4410 -0.6886
  465MOL0     H62719  10.715   5.737   2.885 -1.1997  0.6666 -1.4157
  465MOL0     H62720  10.718   5.970   3.090 -0.2332 -0.8800  1.5012
  465MOL0     H62721  10.712   5.973   2.909  0.0653  0.1275 -0.0692
  465MOL0     H62722  10.510   5.965   2.906  3.9595  0.7409 -1.7170
  465MOL0     H62723  10.492   5.809   2.977 -0.0750 -0.2340 -0.6342
  465MOL0     H62724  10.482   6.080   3.122  0.1740  0.0650  0.9742
  465MOL0     H62725  10.489   5.926   3.209 -1.0883 -1.1546 -0.8377
  465MOL0     H62726  10.254   6.142   2.982 -2.0036 -0.8891 -2.4230
  465MOL0     H62727   9.994   6.142   2.950  1.8410 -0.5285 -0.3401
  465MOL0     H62728   9.961   5.986   2.867  0.4563  0.4146 -0.7816
  465MOL0     H62729   9.888   6.021   3.171 -2.4581 -1.1667  1.1417
  465MOL0     H62730   9.853   5.898   3.057 -1.7076  0.3725 -0.0771
  465MOL0     H62731   9.663   6.048   3.110  0.8989 -1.4285 -0.1257
  465MOL0     H62732   9.693   6.027   2.943 -1.0643  1.2196 -0.2056
  465MOL0     H62733   9.796   6.253   2.923 -3.6171  2.8163 -1.3667
  465MOL0     H62734   9.829   6.254   3.099 -0.1193 -1.2565 -0.2940
  465MOL0     H62735   9.877   6.465   2.979  1.0480  1.5561 -0.0042
  465MOL0     H62736   9.989   6.746   3.053  1.0216  1.6527 -0.1890
  465MOL0     H62737   9.994   6.642   2.911 -0.2891 -0.8638  2.2634
  465MOL0     H62738   9.927   6.802   2.889  2.2297  1.5693  1.5028
  465MOL0     H62739   9.518   7.071   3.187 -0.1798  1.2344  1.4274
  465MOL0     H62740   9.454   7.306   3.207  0.1430  2.8843 -1.6023
  465MOL0     H62741   9.611   7.549   2.852 -0.5815  0.7493 -0.6471
  465MOL0     H62742   9.438   7.578   2.828  1.2908 -1.3113 -1.6449
  465MOL0     H62743   9.468   7.731   3.045  1.5889  0.5559  0.4181
  465MOL0     H62744   9.640   7.688   3.024 -1.0602 -3.1879  1.3133
  465MOL0     H62745   9.639   7.778   2.807 -0.4435 -0.5114 -0.3652
  465MOL0     H62746   9.621   7.892   2.935 -0.5865  0.2951 -0.7605
  465MOL0     H62747   9.405   7.811   2.736 -0.2907  1.2599  0.0229
  465MOL0     H62748   9.381   7.922   2.872  2.7425  0.7393  3.3181
  465MOL0     H62749   9.433   8.049   2.650  0.8407  0.0273 -0.8216
  465MOL0     H62750   9.589   7.967   2.638 -0.3611  2.2882 -1.4281
  465MOL0     H62751   9.532   8.107   2.910 -2.3114 -1.1738 -0.9338
  465MOL0     H62752   9.682   8.093   2.820  1.3597  4.8629 -0.9133
  465MOL0     H62753   9.438   8.261   2.742  0.7263 -0.2009  0.9490
  465MOL0     H62754   9.592   8.286   2.666  1.6674 -1.0569  1.1555
  465MOL0     H62755   9.681   8.346   2.895 -0.1400  1.0062 -0.0123
  465MOL0     H62756   9.500   8.351   2.946 -2.0161  1.4182 -0.7371
  465MOL0     H62757   9.520   7.361   2.785 -0.0731 -1.2202 -0.9601
  465MOL0     H62758   9.583   7.130   2.766  1.2632  1.8431  0.0864
  465MOL0     H62759   9.473   6.743   3.049 -0.7388 -0.7171  0.4277
  465MOL0     H62760   9.457   6.488   3.054 -1.4059  0.2108  2.8686
  465MOL0     H62761  10.762   5.162   3.319  0.3584  0.8991 -0.0448
  465MOL0     H62762  10.919   4.985   3.374  0.2496  1.0464  1.8464
  465MOL0     H62763  11.166   4.737   3.466 -0.5245  1.4186 -0.6561
  465MOL0     H62764  11.286   4.593   3.600  1.4844 -0.2340  3.0089
  465MOL0     H62765  11.382   4.521   3.767 -0.7686  2.4100 -1.0320
  465MOL0     H62766  11.530   4.456   3.812 -1.8782 -0.3352  0.5417
  465MOL0     H62767  11.466   4.639   3.978 -0.3645  1.3936  0.2745
  465MOL0     H62768  11.472   4.752   3.848 -0.3993 -0.9543  0.0664
  465MOL0     H62769  11.705   4.733   3.831  2.0436 -0.3907  0.5016
  465MOL0     H62770  11.729   4.584   3.923 -1.7948 -0.2039  4.9369
  465MOL0     H62771  11.680   4.847   4.018  0.6623 -0.3306 -0.1628
  465MOL0     H62772  11.798   4.740   4.047 -0.3062  1.2304 -1.3359
  465MOL0     H62773  11.518   4.589   4.341  2.2232  1.1887  3.4743
  465MOL0     H62774  11.671   4.731   3.449 -0.3773 -4.9924  0.1820
  465MOL0     H62775  11.531   4.879   3.299 -0.2871  2.1340  0.7871
  466MOL0     O62776  11.487   3.546   8.233 -0.3941  0.4650 -0.8135
  466MOL0     C62777  11.498   3.650   8.296 -0.4956 -0.0388  0.8934
  466MOL0     O62778  11.457   3.663   8.430 -0.6484 -0.2966  0.5301
  466MOL0     C62779  11.413   3.558   8.500 -0.4220 -0.8074 -0.4027
  466MOL0     C62780  11.282   3.512   8.477  0.3653  0.4060  0.6113
  466MOL0     C62781  11.227   3.433   8.578 -0.1226  0.6985  0.4296
  466MOL0     C62782  11.301   3.363   8.678  0.9310 -0.0781  0.6024
  466MOL0     O62783  11.242   3.252   8.745 -1.1965  1.1088 -0.8543
  466MOL0     C62784  11.238   3.256   8.888  0.8685  0.2748 -1.0583
  466MOL0     C62785  11.223   3.116   8.942  0.0909  0.1417 -0.9662
  466MOL0     C62786  11.076   3.083   8.953  1.1168  0.2067 -0.7066
  466MOL0     C62787  11.037   2.935   8.941  0.1429 -0.7602 -0.3800
  466MOL0     C62788  11.055   2.877   9.083 -0.1917 -0.1616 -0.0271
  466MOL0     C62789  11.045   2.724   9.062  0.2491 -0.5084 -0.2474
  466MOL0     C62790  11.011   2.643   9.192  0.1402  0.7212  0.3754
  466MOL0     C62791  11.117   2.663   9.301  0.1360 -0.6135  0.5270
  466MOL0     N62792  11.254   2.621   9.261 -0.1742 -0.0039  0.9738
  466MOL0     C62793  11.291   2.483   9.240  0.0370  0.0022  0.8411
  466MOL0     C62794  11.422   2.488   9.201 -0.7905  0.1955  0.7979
  466MOL0     C62795  11.504   2.363   9.184 -0.4564 -0.7171 -0.4157
  466MOL0     C62796  11.648   2.394   9.124  0.2383  0.0753 -0.9888
  466MOL0     C62797  11.756   2.423   9.233 -0.5431 -1.5058  0.4246
  466MOL0     C62798  11.898   2.396   9.198 -0.1936 -0.1089 -0.0423
  466MOL0     O62799  11.934   2.476   9.086 -0.5543  0.2027 -0.1974
  466MOL0     C62800  11.985   2.409   8.976 -0.3917 -0.6387  0.1601
  466MOL0     C62801  12.075   2.302   8.978  0.7406 -0.1157  0.6389
  466MOL0     C62802  12.107   2.243   8.854 -0.3925  0.0455  0.6748
  466MOL0     C62803  12.188   2.116   8.864 -0.0029  1.0483 -0.0504
  466MOL0     C62804  12.060   2.293   8.731  1.1730  0.3475 -0.1290
  466MOL0     C62805  12.087   2.232   8.598  0.1004 -0.1127  0.3903
  466MOL0     O62806  12.019   2.286   8.506  0.1358 -0.2922 -0.8443
  466MOL0     C62807  12.003   2.236   8.382 -0.0899  0.3259 -1.2280
  466MOL0     C62808  11.933   2.324   8.294 -0.5316  0.1445 -0.1483
  466MOL0     C62809  11.900   2.293   8.162  0.7876 -0.1458  0.2089
  466MOL0     C62810  11.951   2.171   8.116 -1.2526  0.3509  0.1318
  466MOL0     O62811  11.912   2.122   7.994 -0.9769  0.0042 -0.0409
  466MOL0     C62812  11.880   1.990   7.970 -0.0189  0.3009 -0.1596
  466MOL0     C62813  11.771   1.939   8.074  0.5407  0.7676 -0.1323
  466MOL0     C62814  11.731   1.799   8.038 -1.0310  0.0041  0.8322
  466MOL0     C62815  11.619   1.744   8.128 -0.8259 -0.9258 -0.3088
  466MOL0     C62816  11.587   1.600   8.108  0.2248  0.5579 -0.2775
  466MOL0     C62817  11.489   1.560   8.209  0.3395  0.4841 -0.4332
  466MOL0     C62818  11.483   1.410   8.202  0.1841 -0.2084  0.2370
  466MOL0     C62819  11.377   1.365   8.298 -0.4646 -0.2291  0.2384
  466MOL0    Cl62820  11.316   1.203   8.238  0.4870  0.0670  0.0838
  466MOL0     C62821  12.022   2.086   8.194  0.1254 -0.4711  0.2692
  466MOL0     C62822  12.047   2.121   8.324  0.4444  0.1583  0.5092
  466MOL0     O62823  12.186   2.164   8.583  0.0203  0.2837  0.5177
  466MOL0     C62824  11.970   2.402   8.736  0.2090 -0.2491 -0.3060
  466MOL0     C62825  11.934   2.459   8.858  0.9305 -0.2935  0.2456
  466MOL0     N62826  11.466   2.624   9.203 -0.7984  0.4647  0.1996
  466MOL0     N62827  11.366   2.700   9.234 -0.1278 -0.9115  0.3479
  466MOL0     C62828  11.435   3.406   8.700 -0.1935 -0.4638 -0.2643
  466MOL0     C62829  11.489   3.502   8.604  0.4578  0.3731 -0.5289
  466MOL0     C62830  11.546   3.762   8.214  0.7486  1.1812  0.3196
  466MOL0     C62831  11.551   3.893   8.268 -0.5668 -0.6133 -0.8168
  466MOL0     C62832  11.608   4.001   8.204  0.4306  0.4078  0.4489
  466MOL0     C62833  11.659   3.982   8.070  1.0937  0.1525 -0.6702
  466MOL0     O62834  11.709   4.080   7.992 -0.2490  0.2894  0.1574
  466MOL0     C62835  11.709   4.217   8.018 -0.5803 -0.0714  1.2156
  466MOL0     C62836  11.805   4.262   8.126  0.6048  0.0730 -0.3789
  466MOL0     C62837  11.738   4.369   8.207  0.6897  0.3899  0.1697
  466MOL0     C62838  11.766   4.510   8.147 -0.2300  0.4589  0.1326
  466MOL0     C62839  11.647   4.583   8.091  0.4018 -0.0514 -0.1701
  466MOL0     C62840  11.559   4.640   8.032 -0.6609 -0.7515  0.6024
  466MOL0     C62841  11.637   3.857   8.005  0.8473 -0.5081 -1.2589
  466MOL0     C62842  11.583   3.747   8.077  1.0660  0.2102 -0.4632
  466MOL0     H62843  11.220   3.543   8.393 -1.5961 -3.5419  0.3855
  466MOL0     H62844  11.124   3.398   8.581 -0.0423  0.5167  1.4168
  466MOL0     H62845  11.338   3.284   8.922  1.6047 -2.8668 -0.2876
  466MOL0     H62846  11.169   3.332   8.925  0.2498 -2.5732  4.7583
  466MOL0     H62847  11.272   3.041   8.879  2.2191 -0.2073  0.9852
  466MOL0     H62848  11.275   3.106   9.038 -1.9335  0.0507  0.1695
  466MOL0     H62849  11.041   3.117   9.051 -2.5951  0.1922 -1.8982
  466MOL0     H62850  11.026   3.138   8.873  0.6897  0.8045 -0.0523
  466MOL0     H62851  10.932   2.926   8.912  0.1245 -0.2904 -0.4785
  466MOL0     H62852  11.101   2.885   8.868 -2.6490  0.2173 -3.7776
  466MOL0     H62853  11.143   2.908   9.139  0.1088  2.4643 -1.8111
  466MOL0     H62854  10.975   2.898   9.155 -0.2347 -0.0922 -0.0953
  466MOL0     H62855  10.968   2.702   8.987  0.0053 -1.8702  0.3772
  466MOL0     H62856  11.138   2.681   9.023  1.0284  1.9062 -1.2291
  466MOL0     H62857  10.912   2.679   9.221 -1.3739  0.0155 -3.3149
  466MOL0     H62858  11.003   2.535   9.174  0.5760  0.3967  1.9670
  466MOL0     H62859  11.082   2.620   9.395  0.6251  0.9038  1.4311
  466MOL0     H62860  11.127   2.770   9.322  0.0796 -1.1318  3.6774
  466MOL0     H62861  11.232   2.393   9.255 -0.6266  0.0879 -1.0844
  466MOL0     H62862  11.520   2.318   9.283  4.0488 -0.6993 -0.9498
  466MOL0     H62863  11.454   2.288   9.122 -0.0420  0.0446 -1.6914
  466MOL0     H62864  11.661   2.473   9.049  1.3776  1.6727  0.7967
  466MOL0     H62865  11.675   2.298   9.078 -3.2366 -2.3762  1.5812
  466MOL0     H62866  11.743   2.366   9.326 -1.1796  1.2108  2.1260
  466MOL0     H62867  11.744   2.528   9.261 -0.5774 -1.4164  0.0760
  466MOL0     H62868  11.909   2.290   9.172  0.1013 -0.0251 -0.2558
  466MOL0     H62869  11.956   2.419   9.288 -1.3281 -1.0625  0.9790
  466MOL0     H62870  12.118   2.271   9.073 -1.9256  0.6415  2.1893
  466MOL0     H62871  12.122   2.036   8.829  0.4300  0.6296  0.0733
  466MOL0     H62872  12.282   2.114   8.807 -0.0657 -0.5804 -0.1481
  466MOL0     H62873  12.223   2.092   8.965 -0.4779 -3.8877 -0.7657
  466MOL0     H62874  11.892   2.420   8.323 -0.5165  1.2164 -3.3061
  466MOL0     H62875  11.838   2.357   8.100  3.5914  1.3927 -1.1425
  466MOL0     H62876  11.847   1.979   7.866  0.6865  0.2796 -0.3826
  466MOL0     H62877  11.966   1.924   7.976  0.0395  0.3577 -0.3586
  466MOL0     H62878  11.811   1.938   8.176 -1.2777  0.3985  0.6098
  466MOL0     H62879  11.679   1.996   8.088 -0.4754  0.0507 -3.1539
  466MOL0     H62880  11.815   1.728   8.037  0.7322  2.0183  0.7106
  466MOL0     H62881  11.690   1.798   7.937  0.6038  0.4904  0.1385
  466MOL0     H62882  11.649   1.764   8.231 -4.7597  6.3807  0.1176
  466MOL0     H62883  11.529   1.804   8.114  0.0306  0.6429  0.6031
  466MOL0     H62884  11.672   1.531   8.101 -0.6014 -0.3530 -5.2238
  466MOL0     H62885  11.539   1.605   8.009  0.0305  5.5522 -0.1692
  466MOL0     H62886  11.520   1.598   8.307 -2.3484  0.7851  0.3843
  466MOL0     H62887  11.393   1.609   8.188  0.1996 -0.4221 -2.0291
  466MOL0     H62888  11.582   1.376   8.234  0.1261  1.5521  2.5493
  466MOL0     H62889  11.460   1.384   8.098 -1.6574  2.5615 -0.1442
  466MOL0     H62890  11.299   1.439   8.317  1.4446  2.1256 -0.6788
  466MOL0     H62891  11.426   1.362   8.396 -2.3165  1.0091  1.2572
  466MOL0     H62892  12.066   1.992   8.161  0.7924 -0.7237  1.7814
  466MOL0     H62893  12.101   2.058   8.393  1.4415  1.2038  0.7187
  466MOL0     H62894  11.922   2.441   8.646  0.5466 -0.1416 -0.4393
  466MOL0     H62895  11.876   2.550   8.852  1.8126  0.2657 -0.0636
  466MOL0     H62896  11.498   3.364   8.778  1.4652  0.5856 -1.0036
  466MOL0     H62897  11.584   3.552   8.619 -0.0686  0.9628  1.0935
  466MOL0     H62898  11.525   3.906   8.372  3.0394  1.3468 -0.0029
  466MOL0     H62899  11.614   4.096   8.257 -1.3353  0.3671  0.7871
  466MOL0     H62900  11.731   4.278   7.930  0.5104 -0.1585  1.4201
  466MOL0     H62901  11.602   4.223   8.044 -0.0357 -2.0984  4.5619
  466MOL0     H62902  11.900   4.295   8.083  1.2817 -0.9549  0.2713
  466MOL0     H62903  11.832   4.182   8.197 -1.4661 -1.3919 -1.1369
  466MOL0     H62904  11.796   4.362   8.300 -0.7188 -1.9222  0.9521
  466MOL0     H62905  11.630   4.358   8.223  0.8236  0.9601  1.6665
  466MOL0     H62906  11.841   4.496   8.068  0.5579 -2.6903  1.2826
  466MOL0     H62907  11.810   4.567   8.229 -1.5852 -0.6278  1.6900
  466MOL0     H62908  11.481   4.692   7.981  1.3279 -0.3187 -2.1934
  466MOL0     H62909  11.670   3.842   7.903  2.1420 -1.0595 -0.7679
  466MOL0     H62910  11.569   3.659   8.017  0.8480  1.2564 -1.9924
  467MOL0     O62911  10.919   8.758   8.057  0.0467 -0.1636 -0.1198
  467MOL0     C62912  10.955   8.732   8.172  0.0758  0.1765  0.4330
  467MOL0     O62913  10.927   8.618   8.235  0.2551  0.1949  0.4346
  467MOL0     C62914  10.863   8.509   8.188 -0.2478  0.1549 -0.2673
  467MOL0     C62915  10.752   8.511   8.107  0.1882 -0.0047  0.8306
  467MOL0     C62916  10.689   8.389   8.076 -0.1934 -0.4146  0.0549
  467MOL0     C62917  10.749   8.268   8.113 -0.0296  0.2772 -0.0724
  467MOL0     O62918  10.679   8.165   8.058 -0.4613 -0.1868 -0.0870
  467MOL0     C62919  10.725   8.032   8.065  0.1432  0.4378 -0.1904
  467MOL0     C62920  10.673   7.958   7.940  1.0449  0.2986 -1.2598
  467MOL0     C62921  10.729   8.002   7.804 -0.3177  0.2199 -0.4406
  467MOL0     C62922  10.681   7.919   7.685  0.5749  0.8427  0.1264
  467MOL0     C62923  10.708   8.000   7.555 -0.6042 -0.3443  0.1909
  467MOL0     C62924  10.860   8.026   7.521  0.1201  0.4083  0.2119
  467MOL0     C62925  10.937   7.895   7.527 -0.9144 -0.6566  0.1094
  467MOL0     C62926  10.928   7.804   7.394 -0.5961  0.9132 -0.2106
  467MOL0     N62927  10.969   7.669   7.426 -0.6198  0.7635 -0.0540
  467MOL0     C62928  11.093   7.642   7.479 -1.1420  0.0834 -0.2200
  467MOL0     C62929  11.119   7.511   7.460 -0.0926 -0.4662 -0.7444
  467MOL0     C62930  11.245   7.436   7.510  0.3770 -0.7017 -0.9120
  467MOL0     C62931  11.248   7.420   7.666 -0.0143 -0.9125 -0.2534
  467MOL0     C62932  11.143   7.325   7.729 -0.2532  0.4647  1.1878
  467MOL0     C62933  11.046   7.379   7.837  0.7076  0.1442 -0.2950
  467MOL0     O62934  11.118   7.460   7.928  0.1571 -0.0397 -0.5077
  467MOL0     C62935  11.151   7.406   8.053  0.4325 -0.0654  0.0469
  467MOL0     C62936  11.218   7.487   8.135  0.2638 -0.7977 -0.4175
  467MOL0     C62937  11.260   7.447   8.260 -1.1375  0.6236 -1.4323
  467MOL0     C62938  11.331   7.547   8.351 -0.7944  0.4889 -0.1808
  467MOL0     C62939  11.247   7.302   8.301  0.0297 -0.5396  0.5225
  467MOL0     C62940  11.281   7.248   8.428 -0.8597  0.1651 -0.4163
  467MOL0     O62941  11.303   7.337   8.530  0.5540  0.1286  0.4854
  467MOL0     C62942  11.359   7.309   8.660 -0.0155 -0.2185 -0.4702
  467MOL0     C62943  11.317   7.396   8.760  0.1638  0.0493 -0.0144
  467MOL0     C62944  11.374   7.401   8.881  0.1592 -0.1655  0.0785
  467MOL0     C62945  11.477   7.307   8.906 -0.0137 -0.0426 -0.5664
  467MOL0     O62946  11.556   7.298   9.023  0.4607  0.0145  1.2299
  467MOL0     C62947  11.530   7.400   9.126 -0.5610 -0.3071  0.0356
  467MOL0     C62948  11.639   7.401   9.237  0.3040 -1.1943 -0.2573
  467MOL0     C62949  11.590   7.466   9.370 -0.1151 -0.3453  0.2881
  467MOL0     C62950  11.698   7.472   9.466 -0.9746  0.0781 -0.4273
  467MOL0     C62951  11.661   7.534   9.598  0.4977  0.1826 -0.6664
  467MOL0     C62952  11.761   7.500   9.707 -0.3256  0.9839  0.5369
  467MOL0     C62953  11.895   7.566   9.691 -0.5208  0.7731 -0.3150
  467MOL0     C62954  12.000   7.517   9.790 -0.0131 -0.6270  0.2206
  467MOL0    Cl62955  11.968   7.582   9.952  0.0916  0.0058 -0.0163
  467MOL0     C62956  11.522   7.214   8.813 -0.3688 -1.2250  0.8655
  467MOL0     C62957  11.464   7.216   8.679  0.1953  0.4972 -0.2880
  467MOL0     O62958  11.308   7.129   8.439  0.3340 -0.4106  0.4079
  467MOL0     C62959  11.187   7.221   8.218  0.1936  0.2363 -0.2821
  467MOL0     C62960  11.151   7.260   8.085 -0.0579 -0.1397  0.4343
  467MOL0     N62961  11.007   7.451   7.402  0.0774 -0.1276  0.2733
  467MOL0     N62962  10.928   7.551   7.373 -0.4137 -0.7210 -0.1645
  467MOL0     C62963  10.866   8.266   8.190 -0.3402  0.4514  0.7553
  467MOL0     C62964  10.910   8.385   8.242  0.6349 -0.1142 -0.1154
  467MOL0     C62965  11.028   8.833   8.249  1.1577  0.5187 -0.2430
  467MOL0     C62966  11.009   8.839   8.388  0.1049  0.0119  0.0217
  467MOL0     C62967  11.074   8.940   8.460 -0.3489 -0.6976  0.2973
  467MOL0     C62968  11.139   9.054   8.394  0.4812 -0.1778 -0.3325
  467MOL0     O62969  11.195   9.170   8.456  0.2094 -0.6024  0.8326
  467MOL0     C62970  11.200   9.174   8.602 -0.1517  0.1165 -0.8447
  467MOL0     C62971  11.264   9.300   8.656  0.4599 -1.0885 -0.6285
  467MOL0     C62972  11.161   9.409   8.661  0.7689  0.3789 -0.6351
  467MOL0     C62973  11.207   9.526   8.743 -0.3989 -0.0551  0.2208
  467MOL0     C62974  11.329   9.585   8.691 -0.7531 -0.0497 -0.4630
  467MOL0     C62975  11.445   9.609   8.669 -0.1245 -0.2063  0.0695
  467MOL0     C62976  11.136   9.050   8.256  0.3894  0.3144  0.1329
  467MOL0     C62977  11.094   8.938   8.181 -0.2497  0.0833  0.1149
  467MOL0     H62978  10.709   8.599   8.060 -1.0081 -2.0147 -2.2374
  467MOL0     H62979  10.598   8.378   8.018  0.2687 -2.1011 -0.4131
  467MOL0     H62980  10.833   8.023   8.079 -0.1275  0.2273  2.1527
  467MOL0     H62981  10.685   7.990   8.158  2.4926 -0.3335  0.5305
  467MOL0     H62982  10.703   7.855   7.963 -0.1330  0.5065  1.7368
  467MOL0     H62983  10.564   7.958   7.947  1.1061  2.3736  2.7525
  467MOL0     H62984  10.700   8.107   7.799  1.6550  0.9614  2.1346
  467MOL0     H62985  10.837   7.994   7.816 -0.5630  0.7114  3.0384
  467MOL0     H62986  10.724   7.818   7.691 -0.8772  0.2757  1.5211
  467MOL0     H62987  10.575   7.892   7.690  0.7389  0.3723  1.3740
  467MOL0     H62988  10.650   7.959   7.472 -1.1082  1.3895 -0.3711
  467MOL0     H62989  10.672   8.102   7.572 -3.1366 -0.8840 -1.4274
  467MOL0     H62990  10.881   8.056   7.418  2.5513 -3.1060 -0.5087
  467MOL0     H62991  10.897   8.104   7.589  1.0358 -0.0458  0.2592
  467MOL0     H62992  11.040   7.932   7.529 -1.8088  1.9854  0.7990
  467MOL0     H62993  10.937   7.837   7.620  1.1487  2.6941  2.4116
  467MOL0     H62994  10.995   7.843   7.316 -1.9645  0.1435 -1.8436
  467MOL0     H62995  10.827   7.794   7.353  0.1734 -1.5899 -1.7101
  467MOL0     H62996  11.161   7.709   7.530 -0.4797 -1.0432  0.4172
  467MOL0     H62997  11.245   7.341   7.455  0.6368 -0.8506 -0.6578
  467MOL0     H62998  11.341   7.481   7.482 -0.4421  0.4127 -2.0595
  467MOL0     H62999  11.233   7.526   7.691 -0.7286 -0.4679 -2.3843
  467MOL0     H63000  11.346   7.392   7.706  0.3903 -0.0039 -0.5802
  467MOL0     H63001  11.192   7.242   7.780 -4.9882 -1.7387  2.6562
  467MOL0     H63002  11.092   7.275   7.647 -1.7278 -0.5251  2.6648
  467MOL0     H63003  10.999   7.295   7.889  4.7250 -1.7083  0.7473
  467MOL0     H63004  10.969   7.444   7.794  0.2124  0.7208  1.3898
  467MOL0     H63005  11.228   7.592   8.109  0.4861 -0.7202 -0.0310
  467MOL0     H63006  11.264   7.572   8.434 -0.2141 -2.5479  1.3819
  467MOL0     H63007  11.416   7.486   8.385 -0.9366 -0.8868 -2.1201
  467MOL0     H63008  11.366   7.635   8.296  4.4669 -1.6403 -0.8640
  467MOL0     H63009  11.257   7.474   8.714  1.1275  0.3574 -0.7784
  467MOL0     H63010  11.334   7.481   8.941  2.2922  0.9287  0.1593
  467MOL0     H63011  11.543   7.492   9.067  0.4318 -1.7235 -2.0917
  467MOL0     H63012  11.431   7.388   9.170 -0.4438 -3.2005 -0.3594
  467MOL0     H63013  11.673   7.300   9.262  1.0790 -1.2753 -1.5810
  467MOL0     H63014  11.725   7.455   9.197  0.3198  0.2865  1.6323
  467MOL0     H63015  11.506   7.411   9.413  1.7708 -1.2292  3.1180
  467MOL0     H63016  11.557   7.568   9.350 -3.0342 -1.3579 -0.5592
  467MOL0     H63017  11.740   7.373   9.491 -1.2512  0.5300  2.0448
  467MOL0     H63018  11.775   7.544   9.437  0.3523  0.9975  4.4072
  467MOL0     H63019  11.570   7.482   9.630  0.8055  0.7076  1.1870
  467MOL0     H63020  11.645   7.642   9.593  2.6216  0.4969 -1.7023
  467MOL0     H63021  11.720   7.543   9.798 -2.1287 -0.3651  0.4341
  467MOL0     H63022  11.771   7.391   9.709  0.7316  1.0271 -0.6996
  467MOL0     H63023  11.876   7.670   9.719  1.3525  0.5143  2.2202
  467MOL0     H63024  11.930   7.549   9.589 -1.1161  1.7386 -0.6918
  467MOL0     H63025  12.095   7.551   9.749 -0.3744 -3.4284 -3.4595
  467MOL0     H63026  12.013   7.408   9.793 -0.1808 -0.6625 -0.2212
  467MOL0     H63027  11.610   7.153   8.829  0.9439  0.7080  1.3994
  467MOL0     H63028  11.508   7.161   8.596 -1.0881  2.8274 -2.6939
  467MOL0     H63029  11.165   7.119   8.248 -0.1366  0.5276  0.4860
  467MOL0     H63030  11.112   7.190   8.012 -6.0574  2.3210  0.6590
  467MOL0     H63031  10.926   8.178   8.212 -1.1413 -0.5332 -0.7659
  467MOL0     H63032  10.988   8.376   8.318  0.1922 -1.3683  0.2142
  467MOL0     H63033  10.952   8.765   8.443 -0.0017  0.2116  0.1796
  467MOL0     H63034  11.057   8.947   8.567  2.9833  1.0617  0.8270
  467MOL0     H63035  11.098   9.147   8.631  0.4782  0.6292  2.1786
  467MOL0     H63036  11.259   9.090   8.641 -2.8551 -0.6579  1.9345
  467MOL0     H63037  11.347   9.331   8.591  3.3050 -1.1136  2.7526
  467MOL0     H63038  11.305   9.281   8.755 -0.2713  2.9863  0.6385
  467MOL0     H63039  11.067   9.376   8.705  1.0206  1.7649  1.0389
  467MOL0     H63040  11.133   9.448   8.563 -1.9227  5.2472  1.7148
  467MOL0     H63041  11.228   9.481   8.841  0.9370 -1.0992 -0.5076
  467MOL0     H63042  11.133   9.606   8.752 -1.1046 -0.5334 -1.1323
  467MOL0     H63043  11.542   9.649   8.644 -0.3022 -0.9352 -1.9511
  467MOL0     H63044  11.154   9.136   8.193 -2.1825 -1.5340 -3.5198
  467MOL0     H63045  11.089   8.949   8.073 -2.5066  0.2286  0.1774
  468MOL0     O63046   4.991   4.433   9.690 -0.5870 -0.0857 -0.0179
  468MOL0     C63047   4.884   4.392   9.651  0.0891 -0.1981  1.2571
  468MOL0     O63048   4.862   4.337   9.538  0.6443 -0.4456  0.1680
  468MOL0     C63049   4.975   4.292   9.476  0.2023 -0.1452 -0.0045
  468MOL0     C63050   4.987   4.149   9.455 -0.2344  0.7377 -0.9715
  468MOL0     C63051   5.095   4.090   9.382  0.5042 -0.0564  0.2532
  468MOL0     C63052   5.186   4.174   9.322  0.2429  0.1570  0.0794
  468MOL0     O63053   5.273   4.122   9.237 -0.7097  0.1583  0.7711
  468MOL0     C63054   5.403   4.190   9.210 -0.2208 -0.0463 -0.1596
  468MOL0     C63055   5.457   4.116   9.098  0.6125 -0.0142  0.5399
  468MOL0     C63056   5.587   4.183   9.059  0.9990 -0.7507 -0.2966
  468MOL0     C63057   5.655   4.091   8.965 -0.8055  0.5486  0.2765
  468MOL0     C63058   5.757   4.146   8.860 -0.2028  0.2527  0.9338
  468MOL0     C63059   5.696   4.216   8.738  0.1678 -0.3721  0.3216
  468MOL0     C63060   5.773   4.191   8.599 -0.4888  0.1848 -0.3277
  468MOL0     C63061   5.904   4.276   8.595 -0.4111  0.2068 -0.6969
  468MOL0     N63062   5.959   4.265   8.462  0.9331  0.1409 -0.3751
  468MOL0     C63063   6.031   4.162   8.409 -0.5270  0.4423 -0.1955
  468MOL0     C63064   6.080   4.202   8.293 -0.1631  0.5553  0.0613
  468MOL0     C63065   6.184   4.125   8.207 -0.0919 -0.1536 -0.7262
  468MOL0     C63066   6.334   4.112   8.264 -0.3399  0.4337  0.1208
  468MOL0     C63067   6.401   4.241   8.324 -0.2592  0.0898 -0.1924
  468MOL0     C63068   6.537   4.216   8.393 -0.1976  0.0069 -0.0222
  468MOL0     O63069   6.618   4.130   8.303  0.0638 -0.5615  0.3251
  468MOL0     C63070   6.743   4.094   8.338 -0.2029  1.0988 -0.5720
  468MOL0     C63071   6.788   4.051   8.466  1.1876  1.2886  0.1633
  468MOL0     C63072   6.912   3.996   8.487 -0.7795  0.7884  0.4555
  468MOL0     C63073   6.940   3.917   8.608 -0.6477 -0.6955 -0.2945
  468MOL0     C63074   7.012   3.997   8.381 -0.1003  0.1623  0.2371
  468MOL0     C63075   7.144   3.940   8.410  0.4282 -0.3038  0.6697
  468MOL0     O63076   7.229   4.011   8.487  0.3384  0.0222  0.2909
  468MOL0     C63077   7.352   3.959   8.528 -0.1563  0.4500  0.2428
  468MOL0     C63078   7.464   3.962   8.446 -1.0543 -0.8372 -0.3775
  468MOL0     C63079   7.584   3.888   8.476  0.8837  0.3053 -0.6271
  468MOL0     C63080   7.583   3.803   8.588 -0.4214  0.7493  0.1764
  468MOL0     O63081   7.695   3.717   8.579 -0.0384 -0.4774 -0.4624
  468MOL0     C63082   7.702   3.616   8.687  0.3992 -0.0318  0.1553
  468MOL0     C63083   7.808   3.526   8.627  0.8328 -0.2058  0.8760
  468MOL0     C63084   7.947   3.590   8.619 -0.3028  0.3119 -0.0472
  468MOL0     C63085   8.050   3.496   8.540 -0.2744  1.1384  0.3788
  468MOL0     C63086   8.182   3.570   8.537 -1.0272  1.1431 -0.7737
  468MOL0     C63087   8.260   3.578   8.676  0.1448 -0.0050  0.3044
  468MOL0     C63088   8.392   3.669   8.673  0.8933  0.5042  0.6312
  468MOL0     C63089   8.465   3.654   8.812  0.3694  0.0456  0.4979
  468MOL0    Cl63090   8.367   3.706   8.949  0.0353  0.2324  0.2319
  468MOL0     C63091   7.476   3.797   8.670 -0.2547  0.5399  0.3769
  468MOL0     C63092   7.367   3.881   8.647  0.1559  0.2945 -0.9971
  468MOL0     O63093   7.152   3.830   8.367  0.0937  0.1306 -0.2106
  468MOL0     C63094   6.973   4.067   8.265  0.2555  0.3666  0.1422
  468MOL0     C63095   6.843   4.103   8.241  0.3674  0.3714  0.0604
  468MOL0     N63096   6.028   4.328   8.266  0.3939  0.0048  0.1945
  468MOL0     N63097   5.981   4.372   8.379  0.4855  0.4419  0.0880
  468MOL0     C63098   5.171   4.311   9.340 -0.1350 -0.2302 -0.1152
  468MOL0     C63099   5.072   4.375   9.420  0.1935 -0.0995  0.6157
  468MOL0     C63100   4.776   4.373   9.744  0.1799 -0.4333 -0.6231
  468MOL0     C63101   4.642   4.391   9.712  0.9541 -0.0895 -0.0331
  468MOL0     C63102   4.534   4.370   9.805  1.1167  0.1513  0.1480
  468MOL0     C63103   4.562   4.332   9.939  0.5061 -0.8352  0.0209
  468MOL0     O63104   4.470   4.315  10.041  0.6176  0.4176  0.6672
  468MOL0     C63105   4.332   4.288   9.997  1.0752 -0.0205  0.6804
  468MOL0     C63106   4.254   4.289  10.131 -0.2734  0.5228 -0.2819
  468MOL0     C63107   4.155   4.414  10.149  0.3071  0.1661  0.2997
  468MOL0     C63108   4.052   4.395  10.255  0.9260  0.7512 -0.5677
  468MOL0     C63109   4.110   4.372  10.390 -0.0041 -0.1468 -0.7825
  468MOL0     C63110   4.165   4.363  10.496 -0.3328  0.7063 -0.1299
  468MOL0     C63111   4.694   4.299   9.961  0.0344  0.2526  0.0864
  468MOL0     C63112   4.793   4.319   9.870 -0.9415 -0.3607  0.1943
  468MOL0     H63113   4.927   4.079   9.512 -0.6294 -0.0373 -2.3024
  468MOL0     H63114   5.119   3.988   9.356 -2.0677 -0.8824  0.8079
  468MOL0     H63115   5.383   4.292   9.176 -0.2498 -0.3460 -1.0598
  468MOL0     H63116   5.474   4.176   9.292 -0.6628 -4.5871 -0.2776
  468MOL0     H63117   5.464   4.010   9.123 -1.6855 -0.0031  1.4857
  468MOL0     H63118   5.399   4.129   9.006  0.2919  0.3316  0.7882
  468MOL0     H63119   5.551   4.273   9.008  0.7598 -0.5128  0.2821
  468MOL0     H63120   5.653   4.211   9.142 -1.2013  3.4533  0.3294
  468MOL0     H63121   5.699   4.009   9.023  0.3619 -0.3759 -1.8026
  468MOL0     H63122   5.581   4.047   8.898 -1.6656 -1.2341  2.2917
  468MOL0     H63123   5.829   4.217   8.903  1.6677 -1.4341  0.7726
  468MOL0     H63124   5.817   4.059   8.833  1.4620  1.1591  1.5548
  468MOL0     H63125   5.607   4.158   8.710  1.4875 -1.6529 -1.4306
  468MOL0     H63126   5.669   4.321   8.752 -1.4614 -0.7153 -0.0511
  468MOL0     H63127   5.806   4.087   8.593 -2.4082 -0.6822  2.2473
  468MOL0     H63128   5.691   4.213   8.529 -1.3329  1.2820  0.9603
  468MOL0     H63129   5.980   4.233   8.661 -2.3972  0.1080  1.6541
  468MOL0     H63130   5.877   4.375   8.633  1.6275 -0.4607  2.9762
  468MOL0     H63131   6.054   4.065   8.452 -2.5646 -0.8884 -1.9312
  468MOL0     H63132   6.144   4.026   8.184  2.5530 -1.2093 -1.0675
  468MOL0     H63133   6.180   4.179   8.112  2.4869  1.7484  0.1264
  468MOL0     H63134   6.400   4.054   8.199 -1.1254 -0.3682  0.0173
  468MOL0     H63135   6.327   4.054   8.357  0.0976  0.3249  0.0907
  468MOL0     H63136   6.332   4.301   8.384  0.4568  3.1428 -2.1829
  468MOL0     H63137   6.431   4.315   8.249 -1.9191 -0.4901 -1.4873
  468MOL0     H63138   6.531   4.181   8.496  1.6278 -2.2969 -0.6298
  468MOL0     H63139   6.583   4.315   8.398 -1.6865  0.6668  2.0456
  468MOL0     H63140   6.704   4.045   8.535  0.3134 -0.5540 -0.9819
  468MOL0     H63141   7.041   3.876   8.616 -1.3006 -1.9985  2.5831
  468MOL0     H63142   6.929   3.990   8.689 -1.7900  2.6019 -3.1667
  468MOL0     H63143   6.863   3.841   8.627 -0.6226  0.1336  4.0873
  468MOL0     H63144   7.444   4.014   8.353  0.1835 -1.5662 -1.0671
  468MOL0     H63145   7.671   3.896   8.411  3.0124 -0.3876  1.9188
  468MOL0     H63146   7.735   3.658   8.783 -0.8749  3.2240 -0.7346
  468MOL0     H63147   7.612   3.554   8.695  1.6204 -1.8872  0.0992
  468MOL0     H63148   7.816   3.433   8.684 -0.8990  0.4626  2.2986
  468MOL0     H63149   7.770   3.498   8.528  0.0032 -0.2821  1.2044
  468MOL0     H63150   7.985   3.613   8.718 -1.7248  2.7588  0.0364
  468MOL0     H63151   7.930   3.684   8.564 -0.7745  1.6607  2.2674
  468MOL0     H63152   8.067   3.406   8.600  1.2455 -0.0498 -1.7065
  468MOL0     H63153   8.009   3.475   8.441  0.3307  1.9842 -0.0647
  468MOL0     H63154   8.163   3.673   8.507  3.7839  1.7953 -2.4768
  468MOL0     H63155   8.253   3.525   8.466  1.4671  2.5977  0.6438
  468MOL0     H63156   8.197   3.626   8.752 -0.4685 -1.5178  0.7912
  468MOL0     H63157   8.288   3.478   8.710  1.2638  0.1133 -0.2351
  468MOL0     H63158   8.377   3.777   8.662 -1.1409  0.2889  0.9994
  468MOL0     H63159   8.452   3.642   8.585  1.0834  4.8549 -0.8642
  468MOL0     H63160   8.549   3.725   8.814  0.7808 -0.3428  4.0034
  468MOL0     H63161   8.497   3.554   8.842 -0.4373 -0.1563  0.7107
  468MOL0     H63162   7.461   3.727   8.752 -0.7036  2.6210  2.1566
  468MOL0     H63163   7.284   3.870   8.716  0.0752 -1.3129 -1.3238
  468MOL0     H63164   7.047   4.082   8.188 -0.1470  1.9557  0.0371
  468MOL0     H63165   6.806   4.134   8.144  0.6375  1.3941  0.2749
  468MOL0     H63166   5.240   4.380   9.292  1.5769 -1.9184 -0.2245
  468MOL0     H63167   5.071   4.479   9.450  0.2231 -0.3780  1.6117
  468MOL0     H63168   4.612   4.401   9.608  0.0528 -0.8067  0.1404
  468MOL0     H63169   4.430   4.384   9.778  0.7506 -1.1622  0.7750
  468MOL0     H63170   4.284   4.353   9.923  2.2468 -2.6904 -2.7102
  468MOL0     H63171   4.334   4.192   9.944  1.9531  1.7057 -2.7345
  468MOL0     H63172   4.329   4.277  10.210 -0.1249 -1.0512 -0.6236
  468MOL0     H63173   4.194   4.198  10.134 -2.3940  1.7595 -2.1753
  468MOL0     H63174   4.110   4.446  10.055  0.1360 -0.4579  0.1658
  468MOL0     H63175   4.214   4.505  10.166 -0.6774  1.0784 -0.9749
  468MOL0     H63176   4.002   4.304  10.220 -0.3300  0.2475  2.2769
  468MOL0     H63177   3.981   4.479  10.263  0.5651  0.2790  2.6461
  468MOL0     H63178   4.199   4.350  10.597 -0.2359 -5.1217 -0.5866
  468MOL0     H63179   4.709   4.239  10.050 -0.8024  0.9360  0.7018
  468MOL0     H63180   4.894   4.284   9.888 -0.5025  0.3601 -0.7444
  469MOL0     O63181   5.245  11.474   6.654  1.5280 -0.0672 -0.1284
  469MOL0     C63182   5.295  11.447   6.543  0.5662 -0.2392 -0.8646
  469MOL0     O63183   5.238  11.379   6.440  1.2476 -0.2892  0.3778
  469MOL0     C63184   5.112  11.332   6.445 -0.1467  0.2790  1.0843
  469MOL0     C63185   5.042  11.329   6.322 -0.2423 -0.1302 -0.1464
  469MOL0     C63186   4.910  11.290   6.317  0.5605  0.0956  0.4307
  469MOL0     C63187   4.836  11.254   6.429  1.2493  0.4195 -0.6124
  469MOL0     O63188   4.703  11.236   6.398 -0.5322  0.6241 -0.2195
  469MOL0     C63189   4.604  11.210   6.498 -0.4855 -0.5175 -0.2213
  469MOL0     C63190   4.495  11.317   6.500  0.5770 -0.0982 -0.1328
  469MOL0     C63191   4.386  11.279   6.597  0.3310 -0.4584  0.3537
  469MOL0     C63192   4.266  11.378   6.571  0.4094  0.3831 -0.2977
  469MOL0     C63193   4.165  11.358   6.683 -0.1677  0.2069 -0.6890
  469MOL0     C63194   4.217  11.420   6.819  0.3493  0.8231 -0.4727
  469MOL0     C63195   4.132  11.366   6.934  1.0205  0.6167  0.4793
  469MOL0     C63196   3.978  11.380   6.916 -0.5239  0.0352  1.5234
  469MOL0     N63197   3.908  11.328   7.034  1.1377 -1.0546  0.2926
  469MOL0     C63198   3.951  11.329   7.169 -0.5008 -0.2224  0.1006
  469MOL0     C63199   3.881  11.230   7.238 -0.2204  0.1250 -1.0617
  469MOL0     C63200   3.905  11.177   7.378  0.2262 -0.1856 -0.4575
  469MOL0     C63201   4.027  11.083   7.369  0.4498 -0.3201 -0.3887
  469MOL0     C63202   4.018  10.969   7.278 -0.3386  0.7203  0.0825
  469MOL0     C63203   4.146  10.906   7.230 -0.6770  0.0212 -0.0203
  469MOL0     O63204   4.139  10.795   7.142  0.3763  0.0930  0.4627
  469MOL0     C63205   4.255  10.735   7.096  0.0056  0.1941 -0.1720
  469MOL0     C63206   4.238  10.646   6.998 -0.5074  0.5056 -0.0078
  469MOL0     C63207   4.353  10.581   6.937  0.1565 -0.2295 -0.0925
  469MOL0     C63208   4.318  10.488   6.831  0.9520  1.0235 -0.7450
  469MOL0     C63209   4.487  10.601   6.988  0.1422  0.5623 -0.7541
  469MOL0     C63210   4.622  10.543   6.950 -0.1636 -0.1525 -0.6533
  469MOL0     O63211   4.740  10.602   7.008  0.2170  0.1353  0.6703
  469MOL0     C63212   4.863  10.546   7.027 -0.0016 -0.1205  0.5416
  469MOL0     C63213   4.977  10.624   7.034 -0.2600  0.8870 -0.3558
  469MOL0     C63214   5.098  10.569   7.078 -0.9268  0.8189 -0.0610
  469MOL0     C63215   5.113  10.429   7.110 -0.0062  1.3603  0.4071
  469MOL0     O63216   5.234  10.368   7.147  0.2106  0.4478 -0.1224
  469MOL0     C63217   5.357  10.406   7.089 -0.3063 -0.5754  0.5132
  469MOL0     C63218   5.365  10.445   6.933  0.6498 -0.3452 -0.7219
  469MOL0     C63219   5.325  10.335   6.848 -0.4651  0.4376 -0.4184
  469MOL0     C63220   5.411  10.213   6.855 -0.2810 -1.0478  0.1043
  469MOL0     C63221   5.375  10.104   6.754  0.6704  0.5856  0.1502
  469MOL0     C63222   5.489  10.004   6.758 -0.2437  0.2942 -0.5489
  469MOL0     C63223   5.427   9.890   6.681  0.4365  0.0006  0.1814
  469MOL0     C63224   5.524   9.769   6.657 -0.5572  0.1267 -0.0002
  469MOL0    Cl63225   5.446   9.652   6.535 -0.1610 -0.1721  0.3097
  469MOL0     C63226   4.994  10.351   7.108 -0.8242  0.3161  0.8734
  469MOL0     C63227   4.879  10.404   7.054  0.0956 -1.1498 -0.6016
  469MOL0     O63228   4.625  10.453   6.865  0.0267  0.5928  0.6668
  469MOL0     C63229   4.495  10.704   7.082  0.7533 -0.9428  0.1686
  469MOL0     C63230   4.387  10.775   7.124 -0.5468  0.0173 -0.7137
  469MOL0     N63231   3.800  11.182   7.140  1.3131  0.1600 -0.0451
  469MOL0     N63232   3.809  11.242   7.017 -0.9048  0.2619  0.0712
  469MOL0     C63233   4.901  11.255   6.543  0.1381  0.2155 -0.4544
  469MOL0     C63234   5.039  11.293   6.553  0.8914  0.6255 -0.4194
  469MOL0     C63235   5.431  11.466   6.538  0.4394 -0.2078 -0.5044
  469MOL0     C63236   5.515  11.385   6.461  0.7460 -0.1588 -0.0186
  469MOL0     C63237   5.648  11.414   6.438  0.1081 -0.5526  1.6447
  469MOL0     C63238   5.709  11.512   6.494  0.1926  0.2736  0.5996
  469MOL0     O63239   5.840  11.533   6.456 -0.4811 -0.1482 -1.4799
  469MOL0     C63240   5.909  11.650   6.501  0.8948  0.8536 -0.6569
  469MOL0     C63241   5.888  11.769   6.408  0.5821  0.8311  0.3034
  469MOL0     C63242   5.915  11.748   6.265  0.4758  0.3985 -1.6529
  469MOL0     C63243   5.969  11.863   6.195  0.0209 -0.1551 -0.0547
  469MOL0     C63244   5.965  11.856   6.046 -0.1293 -0.5223  0.3308
  469MOL0     C63245   5.975  11.858   5.928  0.5290 -1.5615 -0.0035
  469MOL0     C63246   5.636  11.593   6.579  0.0935 -0.6754  0.5227
  469MOL0     C63247   5.494  11.568   6.604 -0.4427  0.1324 -0.0595
  469MOL0     H63248   5.105  11.333   6.234  0.0041 -1.1546 -0.0310
  469MOL0     H63249   4.866  11.283   6.218 -0.3123 -1.3073  0.8778
  469MOL0     H63250   4.567  11.113   6.465 -0.5808 -1.2905  1.9569
  469MOL0     H63251   4.643  11.204   6.600 -0.3341  1.3340 -0.1286
  469MOL0     H63252   4.550  11.406   6.533 -0.5248  0.4076  0.3876
  469MOL0     H63253   4.462  11.331   6.396  1.0045 -1.8024 -0.5243
  469MOL0     H63254   4.351  11.180   6.568 -0.4407  0.1744 -1.0232
  469MOL0     H63255   4.417  11.287   6.701  1.0628  2.0092  0.0134
  469MOL0     H63256   4.310  11.478   6.573  1.2388  0.1679 -3.2924
  469MOL0     H63257   4.232  11.360   6.469  1.5387 -0.0646 -0.6200
  469MOL0     H63258   4.072  11.410   6.656  1.4730  4.7255  1.3751
  469MOL0     H63259   4.149  11.250   6.677 -0.7625  0.3008 -0.9622
  469MOL0     H63260   4.320  11.391   6.844  0.1138  0.8496  0.5447
  469MOL0     H63261   4.217  11.529   6.819 -0.3747  0.8457  0.9696
  469MOL0     H63262   4.143  11.263   6.969 -2.2176  0.6553  1.9914
  469MOL0     H63263   4.147  11.436   7.017  0.2964 -1.0057  2.0659
  469MOL0     H63264   3.946  11.324   6.827  1.7890 -0.1491  0.7289
  469MOL0     H63265   3.950  11.485   6.912  1.5997  0.6287 -1.3469
  469MOL0     H63266   4.042  11.372   7.211  0.8226 -1.8307 -0.9804
  469MOL0     H63267   3.919  11.255   7.453 -0.7766  1.0783 -1.5259
  469MOL0     H63268   3.812  11.124   7.403  0.9493 -2.4233 -2.1373
  469MOL0     H63269   4.049  11.055   7.473  0.6462 -1.2970 -0.6812
  469MOL0     H63270   4.108  11.134   7.317 -2.0628  1.1755 -3.1787
  469MOL0     H63271   3.957  10.997   7.191 -1.2219 -1.4243 -0.0562
  469MOL0     H63272   3.966  10.882   7.321  0.5171  0.2175  0.1178
  469MOL0     H63273   4.193  10.866   7.320  0.4094  1.2649 -0.0078
  469MOL0     H63274   4.220  10.975   7.187  0.3400 -0.4214  0.9821
  469MOL0     H63275   4.134  10.637   6.971 -1.3703  1.7916  2.6192
  469MOL0     H63276   4.399  10.430   6.787  0.8290  2.1248 -2.4912
  469MOL0     H63277   4.249  10.422   6.885  2.7839  1.8697  3.0002
  469MOL0     H63278   4.257  10.526   6.749 -2.9732 -1.3332  0.8126
  469MOL0     H63279   4.974  10.729   7.004  0.5826  0.7552 -0.9511
  469MOL0     H63280   5.189  10.628   7.079  2.5715 -3.9209 -1.9679
  469MOL0     H63281   5.419  10.473   7.150  1.8159 -4.3974  3.0115
  469MOL0     H63282   5.420  10.319   7.106  0.7262  0.0144 -0.1849
  469MOL0     H63283   5.312  10.531   6.893  1.3929  2.0606  2.9151
  469MOL0     H63284   5.471  10.465   6.913  0.1552  1.8626 -1.4498
  469MOL0     H63285   5.318  10.360   6.741  0.0293 -3.4241 -1.4821
  469MOL0     H63286   5.223  10.310   6.876  0.1945 -0.3826  1.4063
  469MOL0     H63287   5.513  10.247   6.841  0.0426 -0.9004  2.4513
  469MOL0     H63288   5.419  10.174   6.957  3.9084  0.0635  0.3442
  469MOL0     H63289   5.362  10.161   6.661 -0.4652  0.1470  0.0209
  469MOL0     H63290   5.280  10.055   6.777 -0.1600  2.1813  0.2515
  469MOL0     H63291   5.586  10.033   6.718  0.7438  0.1554  1.6157
  469MOL0     H63292   5.499   9.974   6.863 -0.6587  1.2564 -0.2188
  469MOL0     H63293   5.395   9.921   6.581 -2.5167 -1.1208  0.6570
  469MOL0     H63294   5.339   9.848   6.732  1.1353 -2.0218 -0.1692
  469MOL0     H63295   5.560   9.730   6.753  3.6110  3.2649  0.0480
  469MOL0     H63296   5.609   9.818   6.608 -1.9735  3.0392  0.2447
  469MOL0     H63297   4.994  10.249   7.145 -0.8664  0.3704  1.0217
  469MOL0     H63298   4.799  10.332   7.038 -1.6798  0.8809 -1.3852
  469MOL0     H63299   4.588  10.721   7.137  0.7905 -3.0378  0.8392
  469MOL0     H63300   4.399  10.855   7.196  2.0989 -0.4421 -0.5581
  469MOL0     H63301   4.850  11.223   6.634 -1.3913  0.6610 -1.1170
  469MOL0     H63302   5.081  11.287   6.653 -2.3535  0.2521  1.0654
  469MOL0     H63303   5.476  11.295   6.414 -3.0067  1.0664  0.4487
  469MOL0     H63304   5.715  11.343   6.390  0.1287 -0.1980  1.1392
  469MOL0     H63305   5.897  11.669   6.608 -2.8400  1.4484 -1.0703
  469MOL0     H63306   6.016  11.626   6.501  1.0526  1.4354 -1.8264
  469MOL0     H63307   5.946  11.848   6.456 -1.6005  1.3219  2.2811
  469MOL0     H63308   5.783  11.785   6.432  0.3794 -0.9182  0.7188
  469MOL0     H63309   5.822  11.715   6.217 -0.8556  0.5672  0.6687
  469MOL0     H63310   5.996  11.675   6.267 -1.7205 -2.3061  2.2431
  469MOL0     H63311   6.073  11.883   6.221 -0.8399  1.3724  2.6301
  469MOL0     H63312   5.923  11.952   6.239  2.6242  0.4637  1.6461
  469MOL0     H63313   5.986  11.879   5.824  1.0184 -0.9461  0.1718
  469MOL0     H63314   5.664  11.689   6.619 -1.9771 -1.3253  3.9292
  469MOL0     H63315   5.437  11.631   6.671 -1.5815 -1.5485  0.6386
  470MOL0     O63316   8.341   0.940   0.766 -0.1431 -0.1538  0.2855
  470MOL0     C63317   8.257   1.013   0.812 -0.5514 -0.2102 -0.0881
  470MOL0     O63318   8.262   1.076   0.934 -0.5744 -0.0464  0.2142
  470MOL0     C63319   8.357   1.030   1.025 -0.4580  0.5409  0.4582
  470MOL0     C63320   8.473   1.100   1.057 -0.7858  0.4367  0.4906
  470MOL0     C63321   8.566   1.043   1.143  0.1097 -0.0920  0.1464
  470MOL0     C63322   8.553   0.926   1.209  0.5025  0.9009 -0.9955
  470MOL0     O63323   8.659   0.884   1.286 -0.2876 -0.2323  0.2834
  470MOL0     C63324   8.672   0.741   1.300 -0.1237 -0.4794  0.6351
  470MOL0     C63325   8.817   0.701   1.345  0.6050 -0.5087  0.8090
  470MOL0     C63326   8.845   0.752   1.480 -0.8506 -0.8137 -0.3251
  470MOL0     C63327   8.758   0.667   1.586  0.4342 -1.1964 -0.4936
  470MOL0     C63328   8.832   0.645   1.713 -0.5454 -0.2063  0.2471
  470MOL0     C63329   8.734   0.601   1.814  0.2474  0.2443  0.1772
  470MOL0     C63330   8.816   0.563   1.938 -0.1737  0.5845 -0.5139
  470MOL0     C63331   8.892   0.436   1.932  0.7879  1.3525 -0.2313
  470MOL0     N63332   8.895   0.367   2.063 -0.6243  0.8357 -0.8489
  470MOL0     C63333   8.839   0.240   2.094 -0.1602  0.0012 -0.1450
  470MOL0     C63334   8.868   0.243   2.229 -1.0698  0.3093 -1.0991
  470MOL0     C63335   8.824   0.137   2.332 -0.7090 -0.1715  0.0557
  470MOL0     C63336   8.725   0.207   2.430 -0.6169  0.3605 -0.9065
  470MOL0     C63337   8.577   0.181   2.388 -0.1686 -0.8037 -0.5977
  470MOL0     C63338   8.477   0.264   2.467 -0.8408 -0.3076  0.5195
  470MOL0     O63339   8.498   0.400   2.409 -0.5304  0.2161  0.8629
  470MOL0     C63340   8.432   0.435   2.294  0.1138 -0.3262  0.4171
  470MOL0     C63341   8.326   0.363   2.231 -0.3732 -0.5600 -1.3725
  470MOL0     C63342   8.264   0.395   2.119 -0.0292  0.1029  0.6278
  470MOL0     C63343   8.168   0.289   2.066  0.0567  0.5118 -0.0578
  470MOL0     C63344   8.291   0.515   2.047  0.3069  0.0660 -0.8863
  470MOL0     C63345   8.222   0.554   1.924  0.0934  0.5369  0.2792
  470MOL0     O63346   8.283   0.658   1.869  0.1332  0.4434 -0.7204
  470MOL0     C63347   8.245   0.701   1.746 -0.6600  0.9049 -0.1388
  470MOL0     C63348   8.220   0.843   1.724 -0.2677  0.1666  0.7539
  470MOL0     C63349   8.183   0.881   1.584  0.2518  0.6379 -0.4313
  470MOL0     C63350   8.161   0.778   1.488  0.8604 -0.4869  0.2509
  470MOL0     O63351   8.095   0.812   1.366  0.0920  0.4091 -0.1016
  470MOL0     C63352   8.008   0.932   1.355 -0.5621 -0.2642  0.0752
  470MOL0     C63353   7.929   0.930   1.227  0.3646 -0.1712 -0.0799
  470MOL0     C63354   7.802   0.841   1.241  0.7203 -0.2444  0.0124
  470MOL0     C63355   7.728   0.863   1.105  0.1969 -0.1688  0.4473
  470MOL0     C63356   7.620   0.759   1.077 -0.6835  0.6774 -1.1189
  470MOL0     C63357   7.508   0.784   1.162  0.3219  0.0673 -0.6605
  470MOL0     C63358   7.386   0.694   1.120  0.2372  0.6620  0.0917
  470MOL0     C63359   7.250   0.769   1.144 -0.0565  0.6395 -0.4311
  470MOL0    Cl63360   7.251   0.880   1.006  0.2250  0.3423  0.3075
  470MOL0     C63361   8.168   0.643   1.518  0.2324  0.2142  0.5208
  470MOL0     C63362   8.218   0.602   1.640 -0.7319 -0.2210  0.3365
  470MOL0     O63363   8.120   0.495   1.880  0.0798 -0.7327  0.7621
  470MOL0     C63364   8.387   0.597   2.110  0.8008 -0.2695 -0.7010
  470MOL0     C63365   8.464   0.551   2.224  0.5903 -0.5478  0.6801
  470MOL0     N63366   8.933   0.362   2.269 -0.3877 -0.5526  0.6147
  470MOL0     N63367   8.950   0.435   2.166  0.4505  0.1556 -0.3989
  470MOL0     C63368   8.430   0.855   1.180 -0.4899 -0.5882 -1.2229
  470MOL0     C63369   8.342   0.903   1.080  0.5722 -0.7101 -0.0493
  470MOL0     C63370   8.141   1.042   0.731 -0.3686 -0.6247  0.0140
  470MOL0     C63371   8.011   1.074   0.782 -0.9638 -0.3392 -1.0289
  470MOL0     C63372   7.910   1.113   0.694  0.3043 -1.1124  0.4217
  470MOL0     C63373   7.932   1.130   0.557  0.6327 -0.2114  0.5813
  470MOL0     O63374   7.825   1.130   0.473 -0.2854 -0.6354  0.0010
  470MOL0     C63375   7.832   1.220   0.356  0.8020 -0.0518  0.2224
  470MOL0     C63376   7.698   1.188   0.275  0.3828 -0.6585  0.0560
  470MOL0     C63377   7.598   1.303   0.256  0.1065  0.4061 -0.0331
  470MOL0     C63378   7.504   1.300   0.377  0.2607  0.2463  0.7425
  470MOL0     C63379   7.403   1.402   0.370  0.2355  0.5716 -0.0644
  470MOL0     C63380   7.316   1.476   0.342 -1.2506 -0.2619  0.1765
  470MOL0     C63381   8.056   1.105   0.510 -0.0137 -0.3962 -0.3875
  470MOL0     C63382   8.162   1.073   0.595 -0.8087 -0.8713  0.0587
  470MOL0     H63383   8.490   1.198   1.015  1.9901  0.4028  1.3321
  470MOL0     H63384   8.655   1.098   1.170  0.8551 -1.9532  1.6867
  470MOL0     H63385   8.600   0.709   1.376 -1.0773  0.2947  0.0772
  470MOL0     H63386   8.643   0.686   1.209 -2.7552 -0.3149  1.3158
  470MOL0     H63387   8.835   0.596   1.320  0.1220  0.0593 -2.4689
  470MOL0     H63388   8.885   0.758   1.281 -1.5031 -0.5495 -1.6304
  470MOL0     H63389   8.953   0.749   1.500 -0.4496  0.3072 -2.1397
  470MOL0     H63390   8.824   0.859   1.490  0.5370 -0.7161  2.7636
  470MOL0     H63391   8.656   0.701   1.603  0.1689 -1.7577 -0.9182
  470MOL0     H63392   8.736   0.568   1.545 -2.1937 -0.2808 -1.4674
  470MOL0     H63393   8.916   0.577   1.699  1.1712  1.4726  1.8334
  470MOL0     H63394   8.873   0.743   1.741  0.6523 -0.1698 -1.5260
  470MOL0     H63395   8.668   0.688   1.824 -0.5362 -0.1458 -1.3097
  470MOL0     H63396   8.669   0.523   1.774  0.0157  1.7721 -2.7471
  470MOL0     H63397   8.886   0.646   1.952 -0.7126  0.6413  2.3862
  470MOL0     H63398   8.748   0.555   2.023 -1.9463 -1.4527 -2.0082
  470MOL0     H63399   8.997   0.454   1.907  1.2348  0.1078  0.6762
  470MOL0     H63400   8.833   0.372   1.866  2.6855  0.3840 -1.0652
  470MOL0     H63401   8.773   0.187   2.026  0.0809  0.3104 -0.6254
  470MOL0     H63402   8.780   0.043   2.299  0.7662 -1.1150  0.6450
  470MOL0     H63403   8.917   0.118   2.388 -1.4182  0.6690  1.5999
  470MOL0     H63404   8.745   0.314   2.442 -2.0229  0.3560  2.4599
  470MOL0     H63405   8.745   0.171   2.531 -2.0973 -3.7287 -1.8756
  470MOL0     H63406   8.551   0.079   2.416  0.6288 -0.9689 -0.4268
  470MOL0     H63407   8.574   0.202   2.281  2.2848  1.7719 -0.2730
  470MOL0     H63408   8.498   0.260   2.574 -4.0358 -2.1650  1.1868
  470MOL0     H63409   8.378   0.218   2.472 -1.1967  0.5622  4.7237
  470MOL0     H63410   8.280   0.279   2.282  0.0511  0.7007  1.2413
  470MOL0     H63411   8.191   0.268   1.961  3.0506  0.0322  0.6017
  470MOL0     H63412   8.170   0.195   2.123  2.5424  0.7045  0.2901
  470MOL0     H63413   8.067   0.329   2.068 -0.4799 -0.8184  1.2324
  470MOL0     H63414   8.218   0.932   1.786  2.4821  1.4687 -0.8529
  470MOL0     H63415   8.157   0.982   1.557 -1.8913  0.5584  1.0789
  470MOL0     H63416   7.933   0.939   1.434 -2.3865 -1.2485 -1.5022
  470MOL0     H63417   8.074   1.020   1.362  1.2700 -1.6309  0.7510
  470MOL0     H63418   7.901   1.035   1.221  2.7721  1.0973  5.1055
  470MOL0     H63419   7.995   0.905   1.144 -0.4436  0.6423 -0.9946
  470MOL0     H63420   7.746   0.872   1.330  0.2384 -2.0680  0.4011
  470MOL0     H63421   7.828   0.735   1.248 -0.4690 -0.4372  2.5917
  470MOL0     H63422   7.685   0.963   1.113  1.0520  0.2299  0.2109
  470MOL0     H63423   7.794   0.862   1.018  1.7797 -1.3331  1.6111
  470MOL0     H63424   7.662   0.661   1.103 -2.0756  1.0345  3.3878
  470MOL0     H63425   7.602   0.775   0.970  0.4250  1.1320 -1.2529
  470MOL0     H63426   7.530   0.750   1.263 -1.6966 -3.8479 -1.3139
  470MOL0     H63427   7.475   0.888   1.160 -0.4723 -0.1570 -3.1358
  470MOL0     H63428   7.393   0.605   1.183  0.3978  0.0946 -0.7029
  470MOL0     H63429   7.401   0.673   1.014 -0.5169  2.5072 -0.4310
  470MOL0     H63430   7.243   0.806   1.247 -0.1893  0.6618 -0.4476
  470MOL0     H63431   7.163   0.703   1.136 -2.2805  3.4600 -1.3234
  470MOL0     H63432   8.110   0.571   1.461 -3.7279  1.9379  2.0316
  470MOL0     H63433   8.226   0.498   1.672  2.0056 -0.2738 -0.3349
  470MOL0     H63434   8.406   0.697   2.071 -2.4022 -0.1220 -2.1784
  470MOL0     H63435   8.544   0.614   2.260 -0.9934  0.7402  2.0849
  470MOL0     H63436   8.412   0.756   1.220  2.4297 -1.1264 -1.0406
  470MOL0     H63437   8.254   0.850   1.043  1.4103 -1.0440 -1.6723
  470MOL0     H63438   8.002   1.061   0.890  1.3687 -2.8318 -1.0249
  470MOL0     H63439   7.816   1.125   0.747  0.8386 -1.4967  1.4748
  470MOL0     H63440   7.823   1.323   0.391 -3.0372  0.8124 -2.6382
  470MOL0     H63441   7.922   1.214   0.294  0.0723  2.7758 -1.2894
  470MOL0     H63442   7.652   1.101   0.324  0.7690 -0.6884  0.3689
  470MOL0     H63443   7.729   1.153   0.176  1.2105 -1.6697  0.6504
  470MOL0     H63444   7.549   1.282   0.160 -0.3907 -0.5764  0.4208
  470MOL0     H63445   7.655   1.396   0.253 -0.5502  0.8937  1.6648
  470MOL0     H63446   7.573   1.323   0.458  2.4420  0.5297 -1.1126
  470MOL0     H63447   7.451   1.204   0.388  2.0403 -0.7947  0.6152
  470MOL0     H63448   7.247   1.549   0.303 -2.5934 -1.3623  0.4311
  470MOL0     H63449   8.069   1.121   0.403 -0.2517  0.0401 -0.3562
  470MOL0     H63450   8.263   1.057   0.559  0.0147  2.9627  0.2187
  471MOL0     O63451   7.030   0.009   1.459 -0.0185  0.1022 -0.1977
  471MOL0     C63452   7.035   0.088   1.363 -0.0536  0.0607  1.0420
  471MOL0     O63453   7.018   0.224   1.378 -0.2080  0.2957 -0.0921
  471MOL0     C63454   6.912   0.280   1.451 -0.5555 -0.1550 -0.8971
  471MOL0     C63455   6.832   0.206   1.540 -1.1250 -0.3806  0.8043
  471MOL0     C63456   6.739   0.274   1.619 -0.5132  0.3679 -0.3490
  471MOL0     C63457   6.713   0.409   1.599 -0.7869  0.0879 -0.9158
  471MOL0     O63458   6.587   0.450   1.650 -0.2742  0.2734  1.2652
  471MOL0     C63459   6.537   0.585   1.626 -0.0526 -1.5717 -0.7336
  471MOL0     C63460   6.429   0.617   1.739  0.1476  0.1573 -0.3317
  471MOL0     C63461   6.362   0.755   1.706  0.2069 -0.0920 -0.0672
  471MOL0     C63462   6.217   0.753   1.654  0.9878  0.3046 -0.2003
  471MOL0     C63463   6.180   0.876   1.576  0.5743 -0.4963 -0.0755
  471MOL0     C63464   6.139   0.988   1.671 -0.1185 -0.1320  0.5840
  471MOL0     C63465   6.077   1.093   1.586  0.2469  0.4515 -0.3174
  471MOL0     C63466   5.924   1.060   1.573 -0.1161 -0.3457  0.9265
  471MOL0     N63467   5.858   1.164   1.498  0.4354  1.1328 -0.7927
  471MOL0     C63468   5.731   1.157   1.452  0.2489 -1.3511  0.1297
  471MOL0     C63469   5.709   1.279   1.399 -0.0718 -0.1389 -0.8406
  471MOL0     C63470   5.590   1.336   1.318  0.4021 -0.0487 -1.3657
  471MOL0     C63471   5.573   1.264   1.186  0.2418 -0.5809 -0.5132
  471MOL0     C63472   5.675   1.314   1.090 -0.2525  1.0366 -0.2571
  471MOL0     C63473   5.630   1.445   1.030  0.0389 -0.1989  0.8293
  471MOL0     O63474   5.715   1.482   0.920 -0.0066  0.0718  0.3414
  471MOL0     C63475   5.835   1.542   0.956  1.1499  0.3362  0.5992
  471MOL0     C63476   5.888   1.565   1.079 -0.4053 -0.2469  0.4592
  471MOL0     C63477   6.011   1.642   1.109  0.1078 -0.1675 -0.9274
  471MOL0     C63478   6.060   1.653   1.252 -0.3239 -0.0651 -0.0701
  471MOL0     C63479   6.068   1.718   1.005 -0.1885 -0.5461  0.0143
  471MOL0     C63480   6.182   1.818   1.023  0.6944 -0.8310 -0.7374
  471MOL0     O63481   6.196   1.881   1.144  0.9172 -0.4816 -0.3263
  471MOL0     C63482   6.258   2.007   1.150  0.3707 -0.0187 -0.6916
  471MOL0     C63483   6.188   2.111   1.105  0.9713  0.2401  0.6147
  471MOL0     C63484   6.238   2.243   1.110  0.5642  0.6712 -0.2301
  471MOL0     C63485   6.370   2.260   1.153 -0.7005 -0.4845  0.3913
  471MOL0     O63486   6.450   2.370   1.127 -0.2891 -0.4195 -0.5666
  471MOL0     C63487   6.386   2.497   1.126 -0.9558  0.2129 -0.3504
  471MOL0     C63488   6.475   2.603   1.172 -0.2874 -0.8247  0.3650
  471MOL0     C63489   6.444   2.747   1.126  0.5081 -0.3162 -0.3772
  471MOL0     C63490   6.492   2.778   0.989 -0.4619 -0.1928  0.4413
  471MOL0     C63491   6.467   2.927   0.956 -0.5238  0.0292 -0.6857
  471MOL0     C63492   6.556   2.963   0.838 -0.8648  0.4032  0.2843
  471MOL0     C63493   6.541   3.110   0.790 -0.2138  0.2833 -0.2777
  471MOL0     C63494   6.418   3.124   0.695 -0.9718  0.0817 -0.2213
  471MOL0    Cl63495   6.447   3.070   0.532 -0.1308 -0.4375  0.1989
  471MOL0     C63496   6.428   2.147   1.216  0.8509 -0.9720  0.2928
  471MOL0     C63497   6.373   2.026   1.217  0.8614  0.4151 -0.4187
  471MOL0     O63498   6.240   1.851   0.923  0.4575  0.3534 -0.0678
  471MOL0     C63499   6.021   1.683   0.871 -0.8863  0.5572  0.4304
  471MOL0     C63500   5.912   1.605   0.856  0.2277  0.9196 -0.0401
  471MOL0     N63501   5.817   1.361   1.418  0.0088 -0.3205  0.6837
  471MOL0     N63502   5.912   1.287   1.480 -0.1701 -0.5018 -0.1116
  471MOL0     C63503   6.796   0.485   1.513  0.6743  0.6443  0.6957
  471MOL0     C63504   6.883   0.417   1.435 -0.2700 -0.1951  0.3774
  471MOL0     C63505   7.085   0.028   1.235  0.3227 -0.1711 -0.3920
  471MOL0     C63506   7.070  -0.106   1.202 -0.7947 -0.2646 -0.5754
  471MOL0     C63507   7.122  -0.168   1.093  0.4106  0.4386  0.9813
  471MOL0     C63508   7.212  -0.091   1.014 -0.9255 -0.0694 -0.5876
  471MOL0     O63509   7.259  -0.141   0.900 -0.2951 -0.5068  0.8228
  471MOL0     C63510   7.389  -0.103   0.850  1.3980  0.5872  0.7806
  471MOL0     C63511   7.502  -0.171   0.925 -0.0658 -0.1601  0.1321
  471MOL0     C63512   7.539  -0.084   1.052 -0.0836 -0.1824 -0.6506
  471MOL0     C63513   7.668  -0.130   1.119 -0.0873 -0.0336  0.7109
  471MOL0     C63514   7.648  -0.267   1.179  0.5082 -0.1808 -0.5282
  471MOL0     C63515   7.634  -0.361   1.247  0.3817 -0.9691  0.4868
  471MOL0     C63516   7.219   0.055   1.032 -0.6689 -0.3668  0.4496
  471MOL0     C63517   7.153   0.109   1.143 -0.0365 -0.1121  0.4015
  471MOL0     H63518   6.832   0.098   1.551 -0.6500 -0.4413  0.2417
  471MOL0     H63519   6.680   0.216   1.689 -1.7425 -0.7777 -2.2350
  471MOL0     H63520   6.616   0.659   1.640 -0.7291 -0.2332 -3.2586
  471MOL0     H63521   6.501   0.593   1.523  1.0889  1.4878 -1.0043
  471MOL0     H63522   6.365   0.529   1.750  1.4886 -1.0542 -1.7553
  471MOL0     H63523   6.483   0.620   1.834 -1.0762 -0.7997  0.4168
  471MOL0     H63524   6.355   0.809   1.801  1.3554  1.7935 -0.9914
  471MOL0     H63525   6.432   0.817   1.649  2.1512 -0.6298  1.6675
  471MOL0     H63526   6.208   0.667   1.587 -2.3261  1.6798 -1.7574
  471MOL0     H63527   6.143   0.745   1.734  2.0837  0.1074  0.8096
  471MOL0     H63528   6.270   0.902   1.518  1.2948  0.2503  1.3184
  471MOL0     H63529   6.094   0.863   1.510 -2.3428  2.1684  2.8670
  471MOL0     H63530   6.076   0.947   1.751 -1.5442  2.2217  0.7645
  471MOL0     H63531   6.230   1.026   1.718 -0.8235 -0.7898  2.6200
  471MOL0     H63532   6.077   1.187   1.643 -3.1529  0.4327 -0.0819
  471MOL0     H63533   6.127   1.093   1.488 -0.7631  2.6945 -0.9025
  471MOL0     H63534   5.880   1.057   1.673 -0.4005 -2.3176  0.7950
  471MOL0     H63535   5.908   0.963   1.523  2.9229  0.2673 -1.5307
  471MOL0     H63536   5.678   1.062   1.440 -0.7915 -0.7425 -0.2904
  471MOL0     H63537   5.506   1.312   1.384  0.3884  1.7255 -0.6799
  471MOL0     H63538   5.591   1.443   1.294  3.2085  0.0056 -1.3201
  471MOL0     H63539   5.472   1.267   1.143  1.0086 -0.5551 -2.4046
  471MOL0     H63540   5.595   1.158   1.202  2.0188 -0.2168 -0.3261
  471MOL0     H63541   5.699   1.245   1.008  1.9342  0.0516  1.1071
  471MOL0     H63542   5.772   1.325   1.139 -0.2709  2.8323 -0.5218
  471MOL0     H63543   5.623   1.530   1.098  1.8651  0.6151  0.0540
  471MOL0     H63544   5.532   1.433   0.984 -0.0217  3.9671 -0.4576
  471MOL0     H63545   5.827   1.524   1.159 -0.9234 -1.5200 -0.5506
  471MOL0     H63546   6.042   1.752   1.295 -3.7177 -1.2703  1.6713
  471MOL0     H63547   6.010   1.582   1.319 -0.2049 -2.4752 -2.3807
  471MOL0     H63548   6.167   1.634   1.246  0.0925  2.1430 -0.5198
  471MOL0     H63549   6.092   2.094   1.056  1.7988 -3.3718 -0.0425
  471MOL0     H63550   6.183   2.331   1.075 -0.3360  0.1166 -0.2473
  471MOL0     H63551   6.366   2.494   1.019 -1.2798  1.1426 -0.3309
  471MOL0     H63552   6.292   2.484   1.182 -1.5937 -0.1089 -1.4677
  471MOL0     H63553   6.471   2.603   1.281  0.0023  0.9886  0.4098
  471MOL0     H63554   6.577   2.580   1.138 -0.5391  0.1802 -1.1767
  471MOL0     H63555   6.489   2.816   1.198 -0.0285 -3.0951  2.8890
  471MOL0     H63556   6.338   2.769   1.136  0.8944  1.3030  0.4483
  471MOL0     H63557   6.600   2.759   0.988 -0.2606  0.9007 -0.9616
  471MOL0     H63558   6.446   2.713   0.914 -2.2058  1.5421 -0.0805
  471MOL0     H63559   6.490   3.003   1.031  0.6588  2.8847 -3.6764
  471MOL0     H63560   6.362   2.950   0.934 -1.2582 -3.2527 -1.0627
  471MOL0     H63561   6.660   2.950   0.869 -1.0015 -1.6042  0.0071
  471MOL0     H63562   6.550   2.901   0.748  1.4270 -2.0644  1.6953
  471MOL0     H63563   6.630   3.135   0.732  2.5393 -2.5202  2.3786
  471MOL0     H63564   6.542   3.175   0.878  1.2594 -2.6182  2.0259
  471MOL0     H63565   6.399   3.232   0.696 -1.8220 -0.0650 -0.0895
  471MOL0     H63566   6.324   3.083   0.733 -1.3062  0.8347 -0.2159
  471MOL0     H63567   6.528   2.152   1.257  2.6728 -0.1338 -3.7140
  471MOL0     H63568   6.430   1.940   1.251  0.5517  0.6886  0.8190
  471MOL0     H63569   6.070   1.722   0.782  0.5703 -0.8036  0.6043
  471MOL0     H63570   5.890   1.571   0.755  1.1003 -0.0505  0.0740
  471MOL0     H63571   6.788   0.593   1.500  2.9218  0.9349  1.3559
  471MOL0     H63572   6.940   0.474   1.362  0.5631  0.1697  1.2878
  471MOL0     H63573   7.009  -0.161   1.273 -0.7353  2.2839  1.5916
  471MOL0     H63574   7.095  -0.272   1.080  1.8289  0.4115 -3.2046
  471MOL0     H63575   7.386  -0.149   0.750  0.4173  0.0651  1.0313
  471MOL0     H63576   7.412   0.002   0.832  4.2549  0.5530  3.4137
  471MOL0     H63577   7.591  -0.183   0.862 -0.0099  0.6144  0.0485
  471MOL0     H63578   7.475  -0.271   0.959 -0.3810 -0.2028 -0.2429
  471MOL0     H63579   7.460  -0.089   1.127  2.7320  1.9955  2.8270
  471MOL0     H63580   7.549   0.020   1.018 -0.1686 -0.1674 -0.6293
  471MOL0     H63581   7.698  -0.060   1.198  0.4402  0.0552  0.4313
  471MOL0     H63582   7.746  -0.137   1.044 -0.8812 -1.8044 -0.0153
  471MOL0     H63583   7.614  -0.443   1.313 -0.3093 -1.5088 -0.3654
  471MOL0     H63584   7.267   0.120   0.960 -1.7721 -0.9577 -0.8549
  471MOL0     H63585   7.142   0.217   1.155 -0.6768  0.0370 -1.2325
  472MOL0     O63586   7.608   0.331   7.276 -0.2657  0.3595  0.0642
  472MOL0     C63587   7.678   0.230   7.260 -0.5325  0.0100  0.5403
  472MOL0     O63588   7.811   0.230   7.201  0.6878 -0.6762 -0.7309
  472MOL0     C63589   7.880   0.341   7.165 -0.3337 -0.0115  0.9360
  472MOL0     C63590   7.994   0.312   7.086 -0.7114 -0.1383  0.2181
  472MOL0     C63591   8.094   0.401   7.068 -0.3311 -0.6494  0.1248
  472MOL0     C63592   8.077   0.528   7.117 -0.1640 -0.0167 -0.4797
  472MOL0     O63593   8.185   0.614   7.103 -0.2805  0.0039 -0.7422
  472MOL0     C63594   8.170   0.757   7.111 -0.1294  0.1262 -0.5434
  472MOL0     C63595   8.296   0.830   7.052 -0.0649  1.3417 -1.7264
  472MOL0     C63596   8.423   0.743   7.052 -0.1139  0.4265  0.2128
  472MOL0     C63597   8.430   0.624   6.945  0.6511 -1.0935  0.5523
  472MOL0     C63598   8.567   0.616   6.884 -0.2652 -0.7867  0.0015
  472MOL0     C63599   8.583   0.523   6.763  0.1409 -1.2794 -0.3126
  472MOL0     C63600   8.722   0.544   6.702 -0.2444 -0.7243  0.2039
  472MOL0     C63601   8.730   0.456   6.586 -0.4242 -0.4480 -0.0904
  472MOL0     N63602   8.863   0.486   6.522 -0.1702  0.2460 -0.2064
  472MOL0     C63603   8.888   0.583   6.422 -0.8817 -0.1587 -0.1972
  472MOL0     C63604   9.024   0.578   6.407  0.8559  0.0980 -0.6214
  472MOL0     C63605   9.100   0.675   6.304 -0.4418 -0.0480 -0.0407
  472MOL0     C63606   9.054   0.824   6.336  0.1830 -0.0265 -0.1381
  472MOL0     C63607   9.163   0.927   6.306 -0.8226 -0.6681 -0.6847
  472MOL0     C63608   9.121   1.069   6.347 -0.3295 -0.0664  0.6176
  472MOL0     O63609   9.230   1.163   6.339  0.0870  0.4718  0.0003
  472MOL0     C63610   9.194   1.290   6.373  0.2979 -0.4034  0.1286
  472MOL0     C63611   9.066   1.335   6.402 -0.7155 -0.7323  0.6756
  472MOL0     C63612   9.026   1.467   6.419  0.0301 -0.3842 -0.3423
  472MOL0     C63613   8.878   1.500   6.434 -0.7853 -0.8790 -0.1738
  472MOL0     C63614   9.138   1.561   6.429 -0.4624 -0.4250  0.1258
  472MOL0     C63615   9.110   1.711   6.449 -0.0976  0.1397  0.7498
  472MOL0     O63616   9.208   1.777   6.386 -0.0213 -0.4475  0.1155
  472MOL0     C63617   9.212   1.919   6.381 -0.7766  0.2444 -0.3563
  472MOL0     C63618   9.307   1.972   6.296 -0.5426 -0.9086  1.3068
  472MOL0     C63619   9.321   2.104   6.274 -1.3399 -0.3872  0.4340
  472MOL0     C63620   9.220   2.192   6.312  0.6882 -0.0624 -0.4492
  472MOL0     O63621   9.233   2.321   6.272  0.3005  0.0452 -0.0048
  472MOL0     C63622   9.287   2.414   6.363  0.5101 -0.1083  0.6510
  472MOL0     C63623   9.431   2.417   6.384 -0.0533 -0.4933  0.0443
  472MOL0     C63624   9.507   2.422   6.251  0.4399  0.1856  0.8820
  472MOL0     C63625   9.625   2.328   6.247 -0.1465 -0.8560 -0.8882
  472MOL0     C63626   9.736   2.380   6.349 -0.1918 -0.7992  0.1152
  472MOL0     C63627   9.861   2.289   6.350 -0.5132 -0.1267  0.9296
  472MOL0     C63628   9.930   2.269   6.218 -0.0079  0.5384  0.1291
  472MOL0     C63629  10.049   2.170   6.253 -0.8188 -0.5239 -0.2721
  472MOL0    Cl63630   9.977   2.007   6.285  0.3198  0.7471 -0.0272
  472MOL0     C63631   9.118   2.148   6.399  0.0650 -0.0691  0.6965
  472MOL0     C63632   9.118   2.013   6.431 -0.2137 -0.4743 -1.0131
  472MOL0     O63633   9.012   1.754   6.510 -0.3143  0.4932 -0.8844
  472MOL0     C63634   9.269   1.523   6.403  0.9214  0.4848 -0.0842
  472MOL0     C63635   9.294   1.392   6.368  0.6384 -0.9283 -0.3873
  472MOL0     N63636   9.074   0.478   6.490  0.7303 -0.2351  0.5950
  472MOL0     N63637   8.976   0.412   6.549 -0.0853  0.2906 -0.1819
  472MOL0     C63638   7.956   0.564   7.188 -0.3865 -0.7908 -0.0914
  472MOL0     C63639   7.864   0.471   7.214  0.5315 -0.4474  0.1304
  472MOL0     C63640   7.625   0.093   7.292  0.1634 -0.3452  0.8963
  472MOL0     C63641   7.702  -0.021   7.258  1.7623  0.7123 -0.4269
  472MOL0     C63642   7.655  -0.151   7.294 -0.1847  0.2600  0.1315
  472MOL0     C63643   7.525  -0.175   7.345  0.3772  0.2779 -0.6975
  472MOL0     O63644   7.493  -0.307   7.367  0.5168 -0.0957 -0.0946
  472MOL0     C63645   7.368  -0.354   7.413 -0.7287 -0.9757  0.8434
  472MOL0     C63646   7.366  -0.455   7.527 -0.0623 -0.1951  1.6626
  472MOL0     C63647   7.413  -0.595   7.474  0.6223  0.4806 -0.9693
  472MOL0     C63648   7.417  -0.712   7.572  0.0885 -0.3662  0.1193
  472MOL0     C63649   7.490  -0.680   7.692 -0.1775 -0.1557 -0.5662
  472MOL0     C63650   7.532  -0.653   7.806 -0.8132  0.3293  0.3174
  472MOL0     C63651   7.445  -0.061   7.371  0.3118  0.8492  0.3200
  472MOL0     C63652   7.496   0.072   7.347  0.5140  0.0367 -0.0127
  472MOL0     H63653   8.008   0.208   7.060 -0.9155 -1.1850  3.7595
  472MOL0     H63654   8.186   0.388   7.013  1.0806  1.8247  1.7346
  472MOL0     H63655   8.082   0.786   7.053 -1.6776 -1.4680  0.8551
  472MOL0     H63656   8.156   0.778   7.218  0.4350 -0.1702 -0.4063
  472MOL0     H63657   8.265   0.850   6.949  0.6663 -0.2001 -2.2632
  472MOL0     H63658   8.313   0.926   7.101 -0.5362  1.4339 -1.7368
  472MOL0     H63659   8.506   0.810   7.025  2.7039 -2.9610 -0.2195
  472MOL0     H63660   8.448   0.697   7.148  1.9259 -4.1767 -2.2223
  472MOL0     H63661   8.419   0.541   7.016  2.4689  0.3011  2.6110
  472MOL0     H63662   8.341   0.633   6.882  0.4260  0.8904  1.0890
  472MOL0     H63663   8.598   0.717   6.853  0.8004 -1.8157 -2.5984
  472MOL0     H63664   8.646   0.579   6.950  1.1212 -0.1733 -1.2538
  472MOL0     H63665   8.557   0.426   6.808 -0.5424 -1.6941 -1.5660
  472MOL0     H63666   8.509   0.529   6.683  0.8795  0.2461 -0.9130
  472MOL0     H63667   8.741   0.646   6.667 -0.3359 -0.7050  0.2106
  472MOL0     H63668   8.808   0.521   6.766  0.6996  0.5979 -0.5307
  472MOL0     H63669   8.654   0.476   6.510 -2.8032  1.7775  2.6703
  472MOL0     H63670   8.720   0.349   6.606  2.7691 -2.2498 -5.6692
  472MOL0     H63671   8.813   0.638   6.365  1.5335  1.0643 -2.4265
  472MOL0     H63672   9.208   0.665   6.319 -0.7705 -0.8995  2.2767
  472MOL0     H63673   9.069   0.654   6.202  1.8949  2.1391 -1.3182
  472MOL0     H63674   9.023   0.833   6.441 -0.4705  1.6361 -0.4514
  472MOL0     H63675   8.963   0.845   6.280 -0.9277  2.2538  2.3037
  472MOL0     H63676   9.184   0.916   6.199  2.3339  0.1499 -0.2571
  472MOL0     H63677   9.247   0.908   6.374 -0.9013  0.7271 -0.1647
  472MOL0     H63678   9.091   1.062   6.452 -0.3189 -2.7448  0.5029
  472MOL0     H63679   9.039   1.088   6.277 -0.2685 -1.1941  0.2132
  472MOL0     H63680   8.986   1.263   6.417 -0.0452 -1.4550  0.8505
  472MOL0     H63681   8.830   1.414   6.386 -0.0571 -1.1096 -0.5088
  472MOL0     H63682   8.851   1.508   6.539  0.1109 -0.6163  0.0480
  472MOL0     H63683   8.858   1.593   6.380 -0.3389  2.7469  5.1215
  472MOL0     H63684   9.374   1.905   6.243  3.8060  3.0867  1.1408
  472MOL0     H63685   9.402   2.143   6.214 -2.4793  1.4714  0.0325
  472MOL0     H63686   9.266   2.518   6.335  0.0250  0.3624  2.5962
  472MOL0     H63687   9.232   2.404   6.458 -0.6995 -0.0617 -0.0240
  472MOL0     H63688   9.464   2.506   6.437  1.1448  0.3267 -1.9711
  472MOL0     H63689   9.463   2.325   6.435 -0.5302 -2.1179 -2.3996
  472MOL0     H63690   9.546   2.524   6.240  1.8992 -0.3936  0.4222
  472MOL0     H63691   9.441   2.409   6.165  0.2022  1.3613  0.8662
  472MOL0     H63692   9.578   2.233   6.274  1.3894 -2.0866 -2.2771
  472MOL0     H63693   9.677   2.318   6.151  1.3721 -1.2164 -0.0737
  472MOL0     H63694   9.708   2.378   6.455  2.9136 -2.8262  1.0482
  472MOL0     H63695   9.766   2.476   6.307 -1.7904 -1.1027 -1.8563
  472MOL0     H63696   9.941   2.327   6.415  0.1592  1.4526 -0.7342
  472MOL0     H63697   9.830   2.189   6.385  1.2075 -1.2746 -0.6392
  472MOL0     H63698   9.963   2.369   6.189  0.0991 -0.0269 -1.8385
  472MOL0     H63699   9.877   2.232   6.130  2.4003  3.3856 -2.7745
  472MOL0     H63700  10.109   2.193   6.341 -0.1901 -1.8964 -0.3279
  472MOL0     H63701  10.116   2.155   6.168 -0.2641 -2.6312  0.4856
  472MOL0     H63702   9.050   2.222   6.438  2.0589  1.5616  1.2951
  472MOL0     H63703   9.031   1.992   6.492  0.8200  1.1379  1.1659
  472MOL0     H63704   9.350   1.594   6.402  1.0654  0.5728  3.3275
  472MOL0     H63705   9.392   1.367   6.329  0.8068  1.0153 -1.3476
  472MOL0     H63706   7.942   0.663   7.231 -2.7215 -0.1397 -2.0546
  472MOL0     H63707   7.785   0.504   7.281  0.0450 -0.9892 -0.1649
  472MOL0     H63708   7.799  -0.024   7.210  1.0330  0.3281 -1.9251
  472MOL0     H63709   7.721  -0.235   7.276  0.2992  0.4510  1.0016
  472MOL0     H63710   7.306  -0.270   7.445 -1.4944  0.3679 -3.4628
  472MOL0     H63711   7.322  -0.391   7.321  0.3310 -0.0168 -0.1093
  472MOL0     H63712   7.264  -0.467   7.565 -0.9239 -2.9781 -1.1399
  472MOL0     H63713   7.428  -0.424   7.612  2.9095 -1.7867  0.2133
  472MOL0     H63714   7.519  -0.581   7.451  0.6420  1.4790 -0.3176
  472MOL0     H63715   7.360  -0.620   7.382  1.2911 -2.8602 -0.5630
  472MOL0     H63716   7.454  -0.811   7.541 -1.1124 -1.7367  2.7901
  472MOL0     H63717   7.315  -0.726   7.608  1.0121 -2.0104  2.3153
  472MOL0     H63718   7.563  -0.628   7.906  0.1301  0.5559 -0.0204
  472MOL0     H63719   7.338  -0.068   7.390 -0.1073  0.6013 -1.8351
  472MOL0     H63720   7.444   0.166   7.362  0.7730  0.2536 -0.4819
  473MOL0     O63721   4.918   6.997   7.466 -0.1375 -0.6400 -0.0551
  473MOL0     C63722   4.884   6.897   7.405  1.4092 -0.3898  0.2417
  473MOL0     O63723   4.816   6.899   7.292  0.2072 -0.0620  0.1685
  473MOL0     C63724   4.729   7.003   7.277  0.8513 -0.3735 -0.3767
  473MOL0     C63725   4.649   7.066   7.385 -0.2836  0.0794  0.4542
  473MOL0     C63726   4.551   7.162   7.352 -0.0016  0.0955 -0.7759
  473MOL0     C63727   4.524   7.195   7.218  0.0563 -0.4213  0.0840
  473MOL0     O63728   4.416   7.263   7.155 -0.3286  0.4212 -0.7653
  473MOL0     C63729   4.297   7.299   7.237 -0.5314 -0.2476 -0.0243
  473MOL0     C63730   4.210   7.182   7.274  0.7192 -0.1286  0.8665
  473MOL0     C63731   4.165   7.115   7.146  0.7404  0.1336  0.8491
  473MOL0     C63732   4.090   6.976   7.171  1.3245  0.0668 -0.1629
  473MOL0     C63733   3.981   6.989   7.275  1.0115 -1.5897 -0.1833
  473MOL0     C63734   3.876   7.099   7.213 -0.5147 -0.0808 -0.4286
  473MOL0     C63735   3.749   7.125   7.295 -0.0120  0.0836 -0.0623
  473MOL0     C63736   3.678   7.235   7.238  0.8594  0.6879 -0.1215
  473MOL0     N63737   3.539   7.233   7.291  0.3569 -0.7270 -0.5251
  473MOL0     C63738   3.513   7.253   7.426  0.0582  0.1380  0.1650
  473MOL0     C63739   3.383   7.210   7.432  0.0229  0.0332 -0.4927
  473MOL0     C63740   3.309   7.199   7.555 -0.5112 -1.0025  0.7663
  473MOL0     C63741   3.171   7.148   7.536 -0.5373  0.1607 -0.8454
  473MOL0     C63742   3.092   7.151   7.668 -0.0856  0.2062 -0.2425
  473MOL0     C63743   2.947   7.161   7.624  0.8524  0.3034 -0.6695
  473MOL0     O63744   2.892   7.045   7.565 -0.3653  0.5551  0.3151
  473MOL0     C63745   2.882   6.923   7.630  0.6007  0.5730 -0.4261
  473MOL0     C63746   2.888   6.898   7.771  0.1022 -0.5495 -0.8246
  473MOL0     C63747   2.872   6.766   7.828  0.4233 -0.0866  0.2138
  473MOL0     C63748   2.884   6.738   7.984  0.2809 -0.6221  0.6562
  473MOL0     C63749   2.827   6.664   7.741  0.8177  0.6608  0.1667
  473MOL0     C63750   2.792   6.522   7.794  0.3651 -0.8958  0.2549
  473MOL0     O63751   2.720   6.445   7.706 -0.7447 -1.2726  0.4921
  473MOL0     C63752   2.685   6.319   7.733 -1.2623  0.8287  0.0556
  473MOL0     C63753   2.747   6.215   7.806 -0.3151 -0.5463 -0.2373
  473MOL0     C63754   2.699   6.089   7.811 -0.6629 -0.0879  0.1545
  473MOL0     C63755   2.584   6.056   7.734  0.0558 -0.0708  0.2560
  473MOL0     O63756   2.525   5.938   7.727  0.4308 -0.0237  0.4042
  473MOL0     C63757   2.546   5.876   7.600  0.2831 -0.4649 -0.2493
  473MOL0     C63758   2.473   5.739   7.595 -0.3845 -0.4116  0.5227
  473MOL0     C63759   2.326   5.728   7.649 -0.3155 -1.0529  0.5218
  473MOL0     C63760   2.223   5.798   7.539 -0.8366  0.4613 -0.6300
  473MOL0     C63761   2.092   5.836   7.582  0.3494  0.3012  0.4718
  473MOL0     C63762   1.999   5.711   7.591  0.2243 -0.8751  0.2557
  473MOL0     C63763   1.849   5.736   7.591 -0.0497  0.1540 -0.4446
  473MOL0     C63764   1.807   5.771   7.447  0.3992 -0.1629  0.3625
  473MOL0    Cl63765   1.633   5.792   7.441 -0.3912 -0.0103 -0.3635
  473MOL0     C63766   2.524   6.158   7.663  0.6010  0.0649  0.4937
  473MOL0     C63767   2.575   6.287   7.663  0.1378  0.2849  0.0801
  473MOL0     O63768   2.832   6.476   7.900 -1.0181 -0.1841  0.0605
  473MOL0     C63769   2.827   6.683   7.604  0.2719 -0.0912  0.8141
  473MOL0     C63770   2.861   6.817   7.551  1.1397  0.3186 -0.6438
  473MOL0     N63771   3.346   7.173   7.303  0.1571 -0.1620 -0.1799
  473MOL0     N63772   3.436   7.197   7.210 -0.5917 -0.1279 -1.2803
  473MOL0     C63773   4.592   7.126   7.113 -0.2103 -0.3109 -0.0627
  473MOL0     C63774   4.696   7.037   7.146  0.4076  0.5918  0.3667
  473MOL0     C63775   4.907   6.769   7.459 -0.7765  0.1752 -0.1914
  473MOL0     C63776   4.878   6.655   7.385 -0.2491 -0.5028  0.0259
  473MOL0     C63777   4.903   6.527   7.433 -0.1001  0.3762  0.9314
  473MOL0     C63778   4.950   6.510   7.564  0.1113 -0.9693  0.9860
  473MOL0     O63779   4.999   6.390   7.607  0.0430  0.3620 -0.0402
  473MOL0     C63780   5.030   6.285   7.512  0.1220  0.8176  0.0983
  473MOL0     C63781   5.095   6.167   7.586 -0.6631  0.3168  0.4190
  473MOL0     C63782   5.240   6.206   7.649 -0.9803 -0.3951 -0.4315
  473MOL0     C63783   5.299   6.082   7.712 -0.2781 -0.1136 -0.0086
  473MOL0     C63784   5.381   6.125   7.828  0.3577  0.2271  0.9418
  473MOL0     C63785   5.459   6.170   7.907  0.1058  0.9111 -0.1591
  473MOL0     C63786   4.990   6.623   7.638  1.1521  0.4223  0.7762
  473MOL0     C63787   4.966   6.752   7.591 -0.3024 -0.4898  0.7370
  473MOL0     H63788   4.654   7.028   7.487  1.5509  0.1767  0.4171
  473MOL0     H63789   4.496   7.222   7.424  0.1533  0.7952 -1.2316
  473MOL0     H63790   4.326   7.358   7.324 -0.2064 -0.5565  0.0787
  473MOL0     H63791   4.244   7.372   7.175  0.2112 -1.2749 -1.9591
  473MOL0     H63792   4.261   7.112   7.341  1.2332  0.0255  0.6409
  473MOL0     H63793   4.117   7.212   7.324  0.6405  0.1051  0.5810
  473MOL0     H63794   4.110   7.189   7.087  4.1321  2.1280 -0.0168
  473MOL0     H63795   4.253   7.098   7.083  1.3883 -0.3947  1.8667
  473MOL0     H63796   4.048   6.943   7.076 -3.0977 -0.8740  1.8458
  473MOL0     H63797   4.164   6.904   7.205  1.0097 -1.1861 -1.9951
  473MOL0     H63798   3.925   6.896   7.283  0.7319 -1.3848  0.2857
  473MOL0     H63799   4.022   7.026   7.369  0.8208  1.9558 -1.3393
  473MOL0     H63800   3.931   7.192   7.201 -0.9927  0.1404 -0.9276
  473MOL0     H63801   3.837   7.066   7.116  1.0219  0.6297 -1.3106
  473MOL0     H63802   3.677   7.043   7.302 -0.4412  0.4073 -0.5801
  473MOL0     H63803   3.791   7.143   7.394 -0.4230  0.2313  0.0841
  473MOL0     H63804   3.672   7.228   7.129 -1.6256  1.4892 -0.1074
  473MOL0     H63805   3.728   7.330   7.258 -0.9299  1.8592 -0.9405
  473MOL0     H63806   3.583   7.279   7.505 -1.0526 -2.1795  2.0632
  473MOL0     H63807   3.354   7.135   7.631  3.2631  0.8008  0.2701
  473MOL0     H63808   3.301   7.300   7.596 -1.6152 -0.2879 -1.0610
  473MOL0     H63809   3.189   7.048   7.494 -1.1306 -0.9488  1.3805
  473MOL0     H63810   3.117   7.203   7.458 -1.9390 -1.0681 -0.7928
  473MOL0     H63811   3.112   7.238   7.732 -0.2972  0.5386 -0.6238
  473MOL0     H63812   3.107   7.055   7.718  2.1753  0.3762 -0.4649
  473MOL0     H63813   2.933   7.254   7.567 -1.1527  0.5788  0.1565
  473MOL0     H63814   2.887   7.173   7.715 -0.3200  1.8244 -1.5799
  473MOL0     H63815   2.890   6.987   7.834 -4.1939 -0.6197 -0.2677
  473MOL0     H63816   2.917   6.825   8.042 -0.4389 -1.5065  2.4610
  473MOL0     H63817   2.792   6.703   8.032  0.1145  0.0505  0.8425
  473MOL0     H63818   2.960   6.661   8.000  0.8179 -0.1876  0.2553
  473MOL0     H63819   2.832   6.237   7.869 -1.6421 -1.6381  2.0601
  473MOL0     H63820   2.751   6.016   7.873  0.7904 -1.3343 -2.3863
  473MOL0     H63821   2.503   5.940   7.522 -1.6552 -1.2758  0.0884
  473MOL0     H63822   2.651   5.865   7.573  1.0666 -1.4520  2.8006
  473MOL0     H63823   2.462   5.712   7.489  0.0087 -1.0880  0.6496
  473MOL0     H63824   2.540   5.664   7.637 -1.1374 -1.5902 -0.3206
  473MOL0     H63825   2.314   5.786   7.741 -1.4418 -1.0331  0.3755
  473MOL0     H63826   2.282   5.629   7.664 -1.7786 -0.5137 -0.0392
  473MOL0     H63827   2.281   5.887   7.513  2.6768 -2.0098 -2.0376
  473MOL0     H63828   2.220   5.741   7.446 -1.5358  0.0491 -0.3601
  473MOL0     H63829   2.069   5.917   7.512  1.7119 -0.1733 -0.5602
  473MOL0     H63830   2.109   5.877   7.682  2.8054 -1.1018  0.7065
  473MOL0     H63831   2.021   5.651   7.503  2.9305 -1.4933  1.2540
  473MOL0     H63832   2.031   5.657   7.681  0.8037  1.2970  1.4322
  473MOL0     H63833   1.818   5.812   7.663 -4.2584 -2.4954  0.9563
  473MOL0     H63834   1.798   5.645   7.625 -0.0664 -0.3472 -1.7483
  473MOL0     H63835   1.835   5.684   7.386 -2.2481  0.3930 -1.8374
  473MOL0     H63836   1.871   5.847   7.401  3.1958 -2.3843  0.3070
  473MOL0     H63837   2.433   6.146   7.604  0.5166 -1.6015  0.9068
  473MOL0     H63838   2.516   6.359   7.607  0.6528 -2.5030 -4.5620
  473MOL0     H63839   2.798   6.602   7.538  0.7475  0.2467  0.1840
  473MOL0     H63840   2.860   6.841   7.445  2.0108  3.6548  0.0005
  473MOL0     H63841   4.557   7.126   7.010 -1.4366 -0.9181  0.3289
  473MOL0     H63842   4.746   6.984   7.065 -1.5626  1.1960 -1.3466
  473MOL0     H63843   4.855   6.673   7.280  1.0190  0.6849 -0.0778
  473MOL0     H63844   4.891   6.440   7.369 -1.0883  0.4157  1.0534
  473MOL0     H63845   4.937   6.251   7.466 -0.6109  1.3853  1.1003
  473MOL0     H63846   5.096   6.340   7.444 -0.0282  1.6334  0.5931
  473MOL0     H63847   5.122   6.085   7.518  1.6669  0.1226  1.4572
  473MOL0     H63848   5.030   6.132   7.666 -4.6173 -2.1146 -3.4094
  473MOL0     H63849   5.238   6.287   7.723  1.4316 -1.4512  0.9153
  473MOL0     H63850   5.312   6.230   7.571 -0.8521 -1.6999 -0.7296
  473MOL0     H63851   5.361   6.032   7.637  1.1886  1.2622  0.2270
  473MOL0     H63852   5.221   6.013   7.747 -3.0085  3.3037  1.2760
  473MOL0     H63853   5.522   6.223   7.976 -0.0780  1.2602 -0.2592
  473MOL0     H63854   5.021   6.611   7.742 -0.7078  0.4508  1.3716
  473MOL0     H63855   4.999   6.839   7.647 -2.0803  0.3218  0.5880
  474MOL0     O63856   4.654   1.126   7.494 -0.0646 -0.4693 -0.7823
  474MOL0     C63857   4.712   1.103   7.599 -0.0730  0.1101 -0.1332
  474MOL0     O63858   4.813   1.017   7.628  0.0749  0.4189  0.3353
  474MOL0     C63859   4.882   0.940   7.539  0.5308 -0.1669 -0.4476
  474MOL0     C63860   4.904   0.976   7.401 -0.1223 -0.2001 -0.5613
  474MOL0     C63861   4.971   0.896   7.323  0.9414  1.3953  1.0152
  474MOL0     C63862   5.038   0.778   7.368  1.3787 -0.0603 -0.1709
  474MOL0     O63863   5.124   0.697   7.292  0.0022  0.1514 -0.2664
  474MOL0     C63864   5.059   0.611   7.192  0.3687 -0.1993  0.4944
  474MOL0     C63865   5.166   0.533   7.124 -0.7128  0.0265  0.0074
  474MOL0     C63866   5.259   0.450   7.213 -0.1658  0.0468  0.4969
  474MOL0     C63867   5.348   0.357   7.126  0.5162  0.2572 -0.4371
  474MOL0     C63868   5.438   0.265   7.210 -0.1546 -0.4717  0.5711
  474MOL0     C63869   5.367   0.162   7.296  0.0754 -0.7328 -1.4142
  474MOL0     C63870   5.476   0.071   7.352  0.4627  0.6518  0.0782
  474MOL0     C63871   5.421  -0.008   7.477  0.1261 -0.0179  0.1930
  474MOL0     N63872   5.427   0.060   7.606  0.7582  0.0817  0.4681
  474MOL0     C63873   5.332   0.152   7.649 -0.7830 -0.5462 -0.1375
  474MOL0     C63874   5.375   0.200   7.770  0.0948  0.2531 -0.1398
  474MOL0     C63875   5.298   0.303   7.856 -0.4170 -0.1069 -0.0353
  474MOL0     C63876   5.365   0.441   7.847  0.4981  0.6820  0.0280
  474MOL0     C63877   5.515   0.449   7.894 -0.4205 -0.4941  0.2513
  474MOL0     C63878   5.559   0.603   7.881  0.6286  0.7175 -0.4017
  474MOL0     O63879   5.527   0.681   7.998  0.4658 -0.1388 -0.0396
  474MOL0     C63880   5.459   0.804   7.981 -0.0027  1.0771  1.1302
  474MOL0     C63881   5.380   0.840   7.874  0.7563  1.0035  0.2737
  474MOL0     C63882   5.306   0.961   7.862 -0.7115  0.0557  0.4384
  474MOL0     C63883   5.219   0.975   7.735 -0.4107  1.2317 -0.0679
  474MOL0     C63884   5.350   1.067   7.948 -0.0493 -0.4714  0.1711
  474MOL0     C63885   5.282   1.204   7.941 -0.5166  0.8058  0.3234
  474MOL0     O63886   5.286   1.267   7.819 -0.4425 -0.4957 -0.1671
  474MOL0     C63887   5.199   1.371   7.783 -0.3683 -0.5061 -0.2286
  474MOL0     C63888   5.260   1.501   7.782  0.7134 -0.5152  0.1498
  474MOL0     C63889   5.176   1.611   7.739  1.2829 -0.1750  0.4358
  474MOL0     C63890   5.041   1.590   7.703  0.7198 -1.2160  0.2205
  474MOL0     O63891   4.977   1.708   7.658 -0.7000 -0.5607  0.5214
  474MOL0     C63892   4.833   1.723   7.688  0.3457  0.7414 -0.4106
  474MOL0     C63893   4.767   1.857   7.659 -0.2973  0.2648  0.7984
  474MOL0     C63894   4.649   1.906   7.751 -0.2893 -0.1450 -0.1400
  474MOL0     C63895   4.530   1.811   7.747 -0.8408  0.4993  0.3582
  474MOL0     C63896   4.404   1.869   7.821  0.4951  0.4860 -0.0627
  474MOL0     C63897   4.288   1.774   7.858  0.3344 -0.3939 -2.1106
  474MOL0     C63898   4.165   1.771   7.771  0.2632 -0.3018  0.6901
  474MOL0     C63899   4.111   1.627   7.761  0.6151 -0.5052 -0.2033
  474MOL0    Cl63900   4.009   1.616   7.628 -0.0781  0.0589  0.2126
  474MOL0     C63901   4.984   1.463   7.712 -0.1059 -0.4668  0.7181
  474MOL0     C63902   5.072   1.354   7.736 -0.8959  0.9205 -0.4965
  474MOL0     O63903   5.210   1.230   8.033 -0.2203 -0.5220 -0.3603
  474MOL0     C63904   5.436   1.042   8.062  0.0123  0.2947  0.0519
  474MOL0     C63905   5.470   0.907   8.083  0.1240  0.3150  0.2663
  474MOL0     N63906   5.486   0.127   7.802 -0.5844 -1.0288 -0.5958
  474MOL0     N63907   5.523   0.049   7.703  0.4930 -0.6829  0.3567
  474MOL0     C63908   5.022   0.744   7.499 -0.1910  1.0759  0.3516
  474MOL0     C63909   4.945   0.823   7.584 -0.7557 -0.8165 -1.2523
  474MOL0     C63910   4.666   1.191   7.703  0.1702  0.6908  0.1607
  474MOL0     C63911   4.537   1.256   7.694  1.1385  1.6405  0.0878
  474MOL0     C63912   4.494   1.345   7.789 -0.1855 -0.1438  0.0351
  474MOL0     C63913   4.583   1.396   7.884  0.1155 -0.9861  0.5017
  474MOL0     O63914   4.543   1.502   7.966  0.5778 -0.0271 -0.6791
  474MOL0     C63915   4.653   1.567   8.037  0.4620 -0.0357 -0.0600
  474MOL0     C63916   4.619   1.707   8.097  0.0155 -0.1892  0.1946
  474MOL0     C63917   4.509   1.705   8.192  1.1720 -0.8668 -1.4127
  474MOL0     C63918   4.494   1.849   8.261  0.1614  0.2469  0.0843
  474MOL0     C63919   4.612   1.912   8.325 -0.4791 -0.9840  0.0721
  474MOL0     C63920   4.718   1.955   8.371 -0.7124  1.6227  0.7062
  474MOL0     C63921   4.714   1.328   7.897  0.3225 -0.5156 -0.7042
  474MOL0     C63922   4.745   1.217   7.816  0.0453 -0.0937 -1.5970
  474MOL0     H63923   4.865   1.069   7.362  0.4740  0.6385  0.7666
  474MOL0     H63924   4.965   0.922   7.217  1.9426 -1.6303  0.1179
  474MOL0     H63925   4.998   0.541   7.250  0.8424 -1.7796 -0.8317
  474MOL0     H63926   5.005   0.664   7.113 -0.4250 -1.1482  0.3795
  474MOL0     H63927   5.114   0.466   7.056  0.5179  0.0847 -1.0210
  474MOL0     H63928   5.227   0.600   7.062 -1.4030  1.1194  0.4616
  474MOL0     H63929   5.317   0.525   7.267  1.4847 -2.3183  2.2301
  474MOL0     H63930   5.190   0.392   7.275 -0.4535  1.1049  1.1898
  474MOL0     H63931   5.284   0.294   7.064  0.5029  0.0588 -0.2209
  474MOL0     H63932   5.417   0.429   7.081 -0.2032  1.7906  0.8142
  474MOL0     H63933   5.499   0.214   7.135 -0.1606  1.1013 -0.5586
  474MOL0     H63934   5.492   0.322   7.286  0.6249  0.8072 -0.8645
  474MOL0     H63935   5.311   0.216   7.373  0.2209  0.2530 -1.9778
  474MOL0     H63936   5.303   0.113   7.223 -4.3308  0.9756  0.9539
  474MOL0     H63937   5.495  -0.017   7.289 -1.1613 -1.3792  2.2074
  474MOL0     H63938   5.563   0.127   7.388 -1.4848  1.7716  3.5195
  474MOL0     H63939   5.463  -0.108   7.491  1.2308  0.5400  1.0083
  474MOL0     H63940   5.315  -0.026   7.453  0.5426 -1.5965 -0.6196
  474MOL0     H63941   5.245   0.183   7.592 -0.2120 -0.3903 -0.9335
  474MOL0     H63942   5.198   0.313   7.812 -0.5966  1.1973  0.6069
  474MOL0     H63943   5.283   0.258   7.955 -2.4997 -2.4702 -1.3075
  474MOL0     H63944   5.302   0.502   7.913  3.4241  0.8296  2.9398
  474MOL0     H63945   5.363   0.474   7.743 -2.8504 -0.9599 -0.5593
  474MOL0     H63946   5.574   0.395   7.819 -1.4448  1.0001 -1.7020
  474MOL0     H63947   5.542   0.393   7.984 -1.8528 -1.9943 -0.1946
  474MOL0     H63948   5.519   0.639   7.786 -1.4324 -1.1958 -0.3546
  474MOL0     H63949   5.666   0.588   7.870  0.6807 -0.1974  1.0283
  474MOL0     H63950   5.344   0.762   7.808 -1.7621  1.2671  1.2031
  474MOL0     H63951   5.115   0.989   7.766 -0.1969 -2.8830  3.4982
  474MOL0     H63952   5.258   1.048   7.664 -0.0322 -0.6646 -1.9101
  474MOL0     H63953   5.201   0.877   7.691 -2.1577  1.8865 -0.8846
  474MOL0     H63954   5.362   1.518   7.814  1.2945 -3.0955 -0.0880
  474MOL0     H63955   5.218   1.711   7.741  3.5981 -1.0662 -0.3210
  474MOL0     H63956   4.774   1.644   7.641  0.9502  0.6720 -1.0725
  474MOL0     H63957   4.841   1.706   7.796  2.5444 -0.5433 -0.7164
  474MOL0     H63958   4.848   1.929   7.643 -1.2491  1.1294 -0.2283
  474MOL0     H63959   4.725   1.843   7.559 -1.1804  1.0568  1.0455
  474MOL0     H63960   4.617   2.007   7.725  0.1286  0.1685  0.5190
  474MOL0     H63961   4.690   1.915   7.852  1.0898 -1.6146 -0.5228
  474MOL0     H63962   4.502   1.782   7.645 -1.7276 -0.9731  0.9931
  474MOL0     H63963   4.574   1.721   7.791  3.5195  1.9158 -0.6021
  474MOL0     H63964   4.353   1.942   7.758  0.6532 -0.7112 -1.6343
  474MOL0     H63965   4.440   1.918   7.912  4.4704  1.1943 -1.8212
  474MOL0     H63966   4.324   1.671   7.865  0.8754 -0.1129 -0.0950
  474MOL0     H63967   4.259   1.788   7.962  1.1261 -1.0612 -1.7887
  474MOL0     H63968   4.195   1.803   7.670  1.5030 -1.4635  0.6591
  474MOL0     H63969   4.086   1.841   7.797  0.2111  0.1314 -0.5418
  474MOL0     H63970   4.060   1.600   7.853 -1.7544  0.1434 -1.2514
  474MOL0     H63971   4.190   1.555   7.740 -0.5605 -1.6896 -0.6434
  474MOL0     H63972   4.879   1.441   7.700  0.0227 -1.9673  1.9956
  474MOL0     H63973   5.019   1.259   7.732 -0.6368  0.7901 -0.7887
  474MOL0     H63974   5.458   1.127   8.126  0.1153  1.0591 -0.9545
  474MOL0     H63975   5.530   0.890   8.171 -2.1083  0.2533  1.8393
  474MOL0     H63976   5.058   0.646   7.529  1.0690  0.5957 -2.4367
  474MOL0     H63977   4.936   0.790   7.687 -0.2543  1.1359 -0.5247
  474MOL0     H63978   4.482   1.238   7.602 -3.0633 -0.4390  2.6468
  474MOL0     H63979   4.393   1.381   7.771 -0.4035 -0.5131  0.4855
  474MOL0     H63980   4.692   1.505   8.118 -1.1669 -1.0095  0.0030
  474MOL0     H63981   4.724   1.590   7.956 -1.1935 -0.7980 -1.8060
  474MOL0     H63982   4.603   1.773   8.011 -1.6388  0.1433  0.7143
  474MOL0     H63983   4.707   1.747   8.147  0.0622  0.4513 -0.3688
  474MOL0     H63984   4.532   1.624   8.262 -0.7507 -2.2722 -2.3498
  474MOL0     H63985   4.413   1.681   8.146  0.4657  0.7068 -0.8497
  474MOL0     H63986   4.410   1.838   8.330  0.7692 -1.4357  0.6133
  474MOL0     H63987   4.458   1.914   8.181  1.0892  1.8614  0.9343
  474MOL0     H63988   4.807   2.000   8.411 -0.3623 -1.5295  4.0269
  474MOL0     H63989   4.781   1.359   7.977  0.3379  0.2867 -1.0190
  474MOL0     H63990   4.837   1.161   7.826 -0.5659 -1.3563 -2.7022
  475MOL0     O63991   1.059   1.851   1.076 -0.5344 -0.1685 -0.0452
  475MOL0     C63992   1.023   1.736   1.056 -0.8856 -0.9536 -0.1684
  475MOL0     O63993   0.921   1.679   1.128 -0.0539  0.6510 -0.2757
  475MOL0     C63994   0.803   1.640   1.065 -0.7967 -0.3442 -0.6133
  475MOL0     C63995   0.783   1.639   0.922 -0.3723  0.5860  0.3130
  475MOL0     C63996   0.660   1.593   0.867  0.0609  0.2865  1.4098
  475MOL0     C63997   0.548   1.575   0.955 -1.2751  0.3823  0.6136
  475MOL0     O63998   0.420   1.552   0.909  0.1814 -0.4136  0.7092
  475MOL0     C63999   0.420   1.512   0.769 -0.1251 -0.4774 -0.1111
  475MOL0     C64000   0.287   1.438   0.756 -0.4735 -0.0251 -0.1028
  475MOL0     C64001   0.262   1.320   0.856 -0.4479 -0.2212  0.4661
  475MOL0     C64002   0.168   1.210   0.803 -0.3688  0.3639 -0.2028
  475MOL0     C64003   0.165   1.083   0.897  0.2971  0.2925  0.1054
  475MOL0     C64004   0.049   0.996   0.830 -0.8638 -0.6067  0.3161
  475MOL0     C64005   0.047   0.851   0.882  0.3998 -0.2514 -0.8597
  475MOL0     C64006   0.075   0.839   1.036 -0.0183  0.8402  0.4334
  475MOL0     N64007   0.013   0.711   1.078 -0.2792 -0.1127  0.2874
  475MOL0     C64008   0.061   0.589   1.061  0.2574  1.0373  0.2637
  475MOL0     C64009  -0.045   0.504   1.079 -0.2545  0.7855  0.3020
  475MOL0     C64010  -0.067   0.358   1.059 -0.2232  0.9158 -0.0791
  475MOL0     C64011   0.059   0.282   1.073  0.4251  0.6603  0.4036
  475MOL0     C64012   0.106   0.254   1.221 -0.0213 -0.8206  0.6046
  475MOL0     C64013   0.022   0.147   1.294 -0.2954  0.5108  0.1629
  475MOL0     O64014   0.067   0.133   1.423  0.0269  0.6193  0.2068
  475MOL0     C64015  -0.021   0.100   1.522  0.2784  0.5214  0.7617
  475MOL0     C64016  -0.154   0.046   1.508 -0.6872 -0.7592 -0.3575
  475MOL0     C64017  -0.239   0.042   1.618 -0.5808  0.8662 -0.4830
  475MOL0     C64018  -0.377  -0.020   1.592  1.0351 -0.2367  0.5024
  475MOL0     C64019  -0.190   0.090   1.744 -0.0301 -0.3471  0.0153
  475MOL0     C64020  -0.268   0.089   1.874 -0.1293 -0.2587 -0.0925
  475MOL0     O64021  -0.198   0.117   1.981  0.9119 -0.6372 -0.9209
  475MOL0     C64022  -0.266   0.155   2.095  1.5836  0.4555 -0.0997
  475MOL0     C64023  -0.238   0.270   2.158 -1.0209 -1.1535  0.0359
  475MOL0     C64024  -0.294   0.300   2.286  0.1010  0.5027 -0.2178
  475MOL0     C64025  -0.389   0.220   2.352 -0.3080 -0.1667 -0.2285
  475MOL0     O64026  -0.438   0.260   2.472  0.5315  0.9286  0.6273
  475MOL0     C64027  -0.581   0.272   2.477  0.4464 -1.0375  0.4661
  475MOL0     C64028  -0.633   0.358   2.600 -0.1368  0.4859 -0.6322
  475MOL0     C64029  -0.794   0.347   2.604 -1.0967 -0.4381 -0.5685
  475MOL0     C64030  -0.851   0.489   2.562  0.2515  0.8653  0.1360
  475MOL0     C64031  -0.994   0.478   2.530 -0.6874 -0.3069  0.2818
  475MOL0     C64032  -1.043   0.609   2.477  0.2960 -0.1621 -0.8567
  475MOL0     C64033  -1.042   0.621   2.322  0.1181  1.0894  1.0853
  475MOL0     C64034  -1.128   0.737   2.273 -1.6289  0.6065 -0.0551
  475MOL0    Cl64035  -1.115   0.745   2.095 -0.0081  0.0123  0.0568
  475MOL0     C64036  -0.415   0.093   2.288  0.8188 -0.0115 -0.2271
  475MOL0     C64037  -0.359   0.068   2.166  0.0197  0.8565  0.6937
  475MOL0     O64038  -0.389   0.090   1.867  0.0445  0.6664 -0.3194
  475MOL0     C64039  -0.063   0.138   1.756 -0.1132  0.3531  0.1426
  475MOL0     C64040   0.017   0.141   1.641 -0.5914  0.3415 -0.0358
  475MOL0     N64041  -0.155   0.572   1.119 -0.2778 -0.7513 -0.0704
  475MOL0     N64042  -0.121   0.703   1.117 -1.0267 -0.5609  0.0015
  475MOL0     C64043   0.573   1.584   1.096  0.4581  0.6052 -0.1454
  475MOL0     C64044   0.696   1.608   1.150 -0.2944  0.5390  0.1738
  475MOL0     C64045   1.097   1.670   0.951  0.1999  0.2160 -0.0038
  475MOL0     C64046   1.135   1.541   0.961 -0.3527 -0.2388 -0.3039
  475MOL0     C64047   1.212   1.482   0.861  0.8422 -0.1292  0.0566
  475MOL0     C64048   1.223   1.550   0.737 -0.3660  0.9672 -0.3616
  475MOL0     O64049   1.272   1.468   0.639  0.4677 -1.0443  0.5962
  475MOL0     C64050   1.332   1.535   0.525  0.4034  0.1607 -0.2287
  475MOL0     C64051   1.411   1.427   0.445 -0.5807  0.6833 -0.8630
  475MOL0     C64052   1.434   1.463   0.307  0.5930  1.0166  0.0917
  475MOL0     C64053   1.513   1.599   0.294  0.9880 -0.2102  0.8702
  475MOL0     C64054   1.554   1.654   0.163 -0.1382  0.1163  0.1167
  475MOL0     C64055   1.574   1.684   0.046 -0.0989 -1.0121  0.7068
  475MOL0     C64056   1.172   1.677   0.723 -0.6540  0.0833  0.5217
  475MOL0     C64057   1.107   1.737   0.829 -0.4439 -0.1560  0.4728
  475MOL0     H64058   0.871   1.669   0.866  0.1022 -3.4807 -1.5061
  475MOL0     H64059   0.654   1.587   0.758  0.4007 -1.1698  1.4475
  475MOL0     H64060   0.412   1.601   0.706 -2.6523  0.4185  1.3191
  475MOL0     H64061   0.506   1.451   0.742  1.2284  1.5990 -0.7524
  475MOL0     H64062   0.207   1.513   0.748 -0.7056 -0.3050 -0.4783
  475MOL0     H64063   0.307   1.386   0.662 -0.7141  2.2432 -1.4888
  475MOL0     H64064   0.359   1.288   0.896  0.5306  2.3957  0.3849
  475MOL0     H64065   0.217   1.369   0.943  0.7656  2.5330 -0.3288
  475MOL0     H64066   0.064   1.242   0.789  0.2447  2.1941 -0.7886
  475MOL0     H64067   0.208   1.186   0.704  0.8142 -0.2710  0.4077
  475MOL0     H64068   0.258   1.028   0.883  0.5951  1.2287 -1.9701
  475MOL0     H64069   0.141   1.123   0.996  0.3075  1.3485 -0.3061
  475MOL0     H64070  -0.046   1.043   0.856 -1.1349 -1.5597  1.0924
  475MOL0     H64071   0.065   0.999   0.722  1.1468  3.0166  0.5708
  475MOL0     H64072  -0.053   0.807   0.871  1.7736 -3.9234 -0.2398
  475MOL0     H64073   0.117   0.781   0.835 -0.9583 -3.9384  2.0350
  475MOL0     H64074   0.026   0.910   1.104 -2.9746  0.0690 -0.7534
  475MOL0     H64075   0.180   0.835   1.067 -0.4369 -2.3602  1.9003
  475MOL0     H64076   0.157   0.558   1.021  0.3516 -1.6303  2.2530
  475MOL0     H64077  -0.139   0.317   1.131 -0.3605 -0.9301 -1.2117
  475MOL0     H64078  -0.104   0.337   0.958 -3.1425 -1.1583  1.2513
  475MOL0     H64079   0.131   0.341   1.017 -0.3564 -1.1612 -2.8233
  475MOL0     H64080   0.061   0.182   1.028  0.6088  0.6243  0.4943
  475MOL0     H64081   0.104   0.348   1.278 -0.5512 -0.0958 -0.5794
  475MOL0     H64082   0.206   0.210   1.215  0.9037  1.2061  0.1403
  475MOL0     H64083   0.027   0.052   1.240 -0.8466 -0.0493  1.0763
  475MOL0     H64084  -0.083   0.176   1.285 -0.9884 -1.1131  2.1267
  475MOL0     H64085  -0.189   0.015   1.410  0.0468  2.3428 -1.7138
  475MOL0     H64086  -0.433   0.069   1.624  2.3140 -0.2743  3.1436
  475MOL0     H64087  -0.399  -0.026   1.486  1.4480  0.7010  0.3485
  475MOL0     H64088  -0.393  -0.108   1.655 -1.6494 -0.2199 -0.0557
  475MOL0     H64089  -0.163   0.332   2.111  3.6356 -4.6078  2.1994
  475MOL0     H64090  -0.261   0.392   2.332  1.5138 -0.4270  0.7346
  475MOL0     H64091  -0.622   0.331   2.395 -0.8661  0.2573  1.9749
  475MOL0     H64092  -0.624   0.171   2.483  2.5250 -2.0941 -1.2030
  475MOL0     H64093  -0.598   0.325   2.698 -2.7019  0.9510  0.5249
  475MOL0     H64094  -0.600   0.463   2.596 -5.6567  2.6226  0.6028
  475MOL0     H64095  -0.825   0.310   2.703 -0.1741  4.9462  2.0742
  475MOL0     H64096  -0.837   0.272   2.537 -2.6261 -0.0142 -0.1118
  475MOL0     H64097  -0.827   0.561   2.641 -2.9432  2.4602 -0.1930
  475MOL0     H64098  -0.788   0.517   2.478  4.3530 -4.8205  0.6828
  475MOL0     H64099  -1.047   0.459   2.624 -2.9297  0.5201 -0.7581
  475MOL0     H64100  -1.023   0.400   2.458  0.8489  1.2514 -2.1755
  475MOL0     H64101  -1.139   0.632   2.523  1.7196 -0.4656  2.5344
  475MOL0     H64102  -0.970   0.686   2.500  2.1468 -1.2971 -2.5695
  475MOL0     H64103  -1.085   0.530   2.280  1.8207 -0.1016  1.8015
  475MOL0     H64104  -0.943   0.638   2.278 -0.3847  0.2917 -0.4096
  475MOL0     H64105  -1.084   0.830   2.310 -3.9013  1.1550  1.5080
  475MOL0     H64106  -1.225   0.744   2.322 -1.0332  1.5543  1.0389
  475MOL0     H64107  -0.479   0.017   2.331 -0.6944  0.3798 -1.6737
  475MOL0     H64108  -0.376  -0.033   2.129  3.7193  0.5071 -0.5127
  475MOL0     H64109  -0.002   0.164   1.842  4.2964 -1.5826 -2.0331
  475MOL0     H64110   0.122   0.162   1.652 -0.3642 -0.8754  0.1980
  475MOL0     H64111   0.488   1.571   1.162  1.0077  0.0861  0.4748
  475MOL0     H64112   0.712   1.609   1.257 -0.5039  1.3080  0.2060
  475MOL0     H64113   1.123   1.481   1.050  0.4843 -0.2053 -0.1562
  475MOL0     H64114   1.259   1.385   0.870  1.1562 -0.0238 -0.4425
  475MOL0     H64115   1.247   1.574   0.469 -2.6582 -4.2805  0.7657
  475MOL0     H64116   1.390   1.625   0.547  0.2946  0.8006 -2.3215
  475MOL0     H64117   1.358   1.332   0.439 -0.9420  0.8708 -0.6626
  475MOL0     H64118   1.507   1.411   0.495 -0.3148  2.4407 -0.7452
  475MOL0     H64119   1.336   1.473   0.258  0.0051  1.4352  1.3251
  475MOL0     H64120   1.495   1.383   0.263 -0.4533  1.0293 -1.4847
  475MOL0     H64121   1.602   1.601   0.358 -0.0771  0.5309  2.4003
  475MOL0     H64122   1.446   1.675   0.336  3.3171  2.3370  0.2440
  475MOL0     H64123   1.587   1.715  -0.056 -0.3295 -0.3520  0.8759
  475MOL0     H64124   1.190   1.735   0.633 -1.3122 -1.7439 -0.8455
  475MOL0     H64125   1.069   1.838   0.815 -5.1594 -1.9579 -2.0071
  476MOL0     O64126   5.373   2.865   0.204 -0.0597 -0.1051 -0.8206
  476MOL0     C64127   5.253   2.889   0.216  0.3173  0.1166 -0.7206
  476MOL0     O64128   5.141   2.847   0.136 -0.0383  0.1266  0.3102
  476MOL0     C64129   5.165   2.748   0.048 -0.1352  0.4403 -0.1983
  476MOL0     C64130   5.144   2.613   0.083 -0.2891 -0.8730  0.4877
  476MOL0     C64131   5.171   2.520  -0.015  0.1846 -0.1021  0.0200
  476MOL0     C64132   5.229   2.545  -0.132  0.7099 -0.9399 -0.2696
  476MOL0     O64133   5.253   2.443  -0.214  0.4987  0.6129 -0.9710
  476MOL0     C64134   5.169   2.442  -0.328  0.8271 -0.2144 -1.0608
  476MOL0     C64135   5.202   2.326  -0.416 -0.6774  0.1920  0.4762
  476MOL0     C64136   5.342   2.324  -0.475 -0.1094  0.1653 -0.6311
  476MOL0     C64137   5.372   2.184  -0.542  0.1191 -0.1204 -0.3267
  476MOL0     C64138   5.503   2.177  -0.619 -0.2799 -0.0109 -0.3711
  476MOL0     C64139   5.534   2.044  -0.681 -0.5070  0.2202 -0.8611
  476MOL0     C64140   5.413   1.983  -0.763 -0.1368 -1.0802  0.1583
  476MOL0     C64141   5.444   1.852  -0.837  0.9036 -0.7874  0.4534
  476MOL0     N64142   5.327   1.799  -0.912  0.3586 -0.4420 -0.1066
  476MOL0     C64143   5.197   1.757  -0.860  0.6912 -0.6568 -1.0281
  476MOL0     C64144   5.124   1.737  -0.969  0.3751  0.2065 -0.6125
  476MOL0     C64145   4.972   1.700  -0.952  0.3436  0.2978  0.5775
  476MOL0     C64146   4.883   1.796  -0.878 -0.8465 -0.1494 -1.0398
  476MOL0     C64147   4.759   1.723  -0.823  0.2538 -0.0613  0.2286
  476MOL0     C64148   4.649   1.823  -0.758 -0.9148 -0.1259 -0.3217
  476MOL0     O64149   4.604   1.923  -0.853  0.3309 -0.2095  0.1983
  476MOL0     C64150   4.474   1.979  -0.842  0.5776  0.5580 -0.5746
  476MOL0     C64151   4.390   1.945  -0.736  0.5935 -0.2551 -0.7460
  476MOL0     C64152   4.250   1.993  -0.731  0.7594  0.4148  0.1299
  476MOL0     C64153   4.183   1.933  -0.613  0.0197  0.0443  0.3737
  476MOL0     C64154   4.194   2.088  -0.823 -0.2958 -0.0477  0.1341
  476MOL0     C64155   4.052   2.141  -0.821  0.8668 -0.4832  0.4578
  476MOL0     O64156   4.008   2.214  -0.927 -0.2052 -0.3429  0.1503
  476MOL0     C64157   3.883   2.264  -0.943  0.0282  0.1955 -0.0593
  476MOL0     C64158   3.863   2.404  -0.936  0.2569  0.2332 -0.1146
  476MOL0     C64159   3.734   2.452  -0.967  0.5290 -0.3148 -0.6633
  476MOL0     C64160   3.626   2.374  -1.008  0.3565  0.3927 -1.2838
  476MOL0     O64161   3.520   2.441  -1.060  0.6625  0.6338 -0.3633
  476MOL0     C64162   3.404   2.448  -0.980  0.1331  0.2458 -0.2625
  476MOL0     C64163   3.304   2.343  -1.015  0.9050  0.8803  0.9166
  476MOL0     C64164   3.240   2.358  -1.154  0.7147  0.6504 -0.5613
  476MOL0     C64165   3.178   2.223  -1.203 -0.2720  1.1218 -0.1128
  476MOL0     C64166   3.185   2.217  -1.354  0.7047  1.2144  0.1517
  476MOL0     C64167   3.134   2.084  -1.407  0.2947  0.3341 -0.4906
  476MOL0     C64168   3.113   2.074  -1.564 -0.5400 -0.9941  0.0792
  476MOL0     C64169   3.001   1.979  -1.596 -0.0971  0.0564 -0.6528
  476MOL0    Cl64170   2.839   2.053  -1.570 -0.2506  0.3875 -0.0476
  476MOL0     C64171   3.652   2.237  -1.017 -0.9487 -0.0096 -1.3529
  476MOL0     C64172   3.772   2.182  -0.975  0.8967  0.9506  1.2666
  476MOL0     O64173   3.982   2.122  -0.721  0.4441  0.1142 -0.0429
  476MOL0     C64174   4.287   2.121  -0.924 -0.1382 -0.4516  0.1297
  476MOL0     C64175   4.420   2.067  -0.933  0.4894  0.3397  0.3678
  476MOL0     N64176   5.201   1.747  -1.086 -0.3195 -0.1238  0.6602
  476MOL0     N64177   5.327   1.761  -1.045 -0.6517  0.7688  0.3232
  476MOL0     C64178   5.238   2.677  -0.168 -0.7779  0.4805  0.3484
  476MOL0     C64179   5.208   2.775  -0.080 -0.2920 -0.0846  0.0073
  476MOL0     C64180   5.232   2.998   0.327  0.7488  1.0047  0.5074
  476MOL0     C64181   5.333   3.077   0.370  0.3159  0.3510 -0.3513
  476MOL0     C64182   5.319   3.183   0.451  0.2815 -0.2434  0.5576
  476MOL0     C64183   5.197   3.199   0.519 -0.2832  0.3229  0.2381
  476MOL0     O64184   5.175   3.292   0.615 -0.4999 -0.2403 -0.6565
  476MOL0     C64185   5.158   3.430   0.575 -0.7239 -0.2278 -1.2408
  476MOL0     C64186   5.093   3.469   0.446  0.6672  0.6645 -0.0402
  476MOL0     C64187   5.186   3.501   0.334 -0.4647  0.3156 -0.7333
  476MOL0     C64188   5.170   3.399   0.212 -0.3814  0.4774  0.1076
  476MOL0     C64189   5.259   3.425   0.098  0.1064  0.0195  0.3664
  476MOL0     C64190   5.323   3.441   0.002 -0.9849  0.8432  0.0230
  476MOL0     C64191   5.087   3.116   0.488 -0.0546 -0.2133  0.0805
  476MOL0     C64192   5.107   3.018   0.386 -0.4910  0.3224  0.4503
  476MOL0     H64193   5.095   2.592   0.177  0.9510 -2.2091  0.8844
  476MOL0     H64194   5.151   2.415  -0.001  3.1789 -0.5489  2.0149
  476MOL0     H64195   5.065   2.426  -0.297  1.4952 -0.4351  1.3354
  476MOL0     H64196   5.181   2.536  -0.382  2.5343 -1.4197 -2.8848
  476MOL0     H64197   5.177   2.231  -0.367 -2.8970 -0.0336 -0.9286
  476MOL0     H64198   5.141   2.335  -0.507  1.2545  2.6327 -0.7038
  476MOL0     H64199   5.363   2.409  -0.542 -0.2445 -0.1989 -1.1407
  476MOL0     H64200   5.412   2.339  -0.392  0.1135  1.6516 -1.0495
  476MOL0     H64201   5.376   2.101  -0.472 -0.7798  0.1597  0.0655
  476MOL0     H64202   5.300   2.161  -0.621  1.0520  0.2690 -1.3259
  476MOL0     H64203   5.498   2.253  -0.697 -1.3101 -0.2682 -0.5600
  476MOL0     H64204   5.592   2.200  -0.559 -0.1259 -0.9395 -0.2339
  476MOL0     H64205   5.630   2.045  -0.733  1.5615 -3.1738  2.3632
  476MOL0     H64206   5.554   1.978  -0.596  1.0899 -1.3649 -2.3562
  476MOL0     H64207   5.335   1.959  -0.690  0.8658 -0.0812  1.6134
  476MOL0     H64208   5.380   2.059  -0.833  0.7077 -0.8520 -0.0014
  476MOL0     H64209   5.461   1.788  -0.750 -0.4983  0.9078  2.0721
  476MOL0     H64210   5.536   1.864  -0.893 -0.1948  3.4362 -0.7699
  476MOL0     H64211   5.159   1.749  -0.759 -2.0746 -0.6359 -1.9924
  476MOL0     H64212   4.932   1.707  -1.053 -2.0988  4.7311  1.5635
  476MOL0     H64213   4.960   1.599  -0.910  2.0079  0.0189  0.4533
  476MOL0     H64214   4.852   1.876  -0.945  0.3216 -1.0403 -2.7278
  476MOL0     H64215   4.942   1.835  -0.795 -0.2030 -0.7959 -1.1880
  476MOL0     H64216   4.789   1.661  -0.738 -1.2601 -0.0485  0.8119
  476MOL0     H64217   4.703   1.664  -0.898  1.2689 -1.5365  0.5873
  476MOL0     H64218   4.690   1.881  -0.675 -1.6296  0.7850 -0.5888
  476MOL0     H64219   4.575   1.755  -0.715  2.0589 -0.8560  4.2936
  476MOL0     H64220   4.411   1.870  -0.660 -0.0328  0.1540 -0.1574
  476MOL0     H64221   4.121   1.851  -0.650  0.3488  1.2062 -3.0932
  476MOL0     H64222   4.254   1.897  -0.537  0.4736  0.9653  0.3918
  476MOL0     H64223   4.129   2.006  -0.551 -1.1554 -0.8948  0.4971
  476MOL0     H64224   3.931   2.483  -0.905 -0.0104 -0.4126  2.3675
  476MOL0     H64225   3.725   2.560  -0.965  1.9657 -0.1528 -1.4518
  476MOL0     H64226   3.435   2.429  -0.876 -0.6488 -2.9162 -0.4864
  476MOL0     H64227   3.356   2.546  -0.981 -0.1599  0.1503  1.3346
  476MOL0     H64228   3.351   2.246  -0.995 -0.4882  0.2369  1.2103
  476MOL0     H64229   3.216   2.351  -0.950  0.4424 -0.1909  0.4517
  476MOL0     H64230   3.311   2.409  -1.220 -3.1225  4.1117 -2.4515
  476MOL0     H64231   3.164   2.435  -1.164  0.8893  0.8805 -0.1335
  476MOL0     H64232   3.243   2.144  -1.164 -1.2614  0.9400  1.2338
  476MOL0     H64233   3.077   2.209  -1.164  0.0966 -2.2042 -0.0742
  476MOL0     H64234   3.286   2.229  -1.394  0.3394  0.5499 -1.0254
  476MOL0     H64235   3.127   2.299  -1.397 -1.7380 -0.8529 -0.7019
  476MOL0     H64236   3.181   1.997  -1.359  2.0224  1.1907 -0.5491
  476MOL0     H64237   3.033   2.079  -1.367  0.5832  2.2120  0.5359
  476MOL0     H64238   3.209   2.037  -1.601  0.4737  0.0541  1.5107
  476MOL0     H64239   3.088   2.171  -1.609 -1.2953 -1.0646  0.3239
  476MOL0     H64240   3.010   1.890  -1.532 -1.0048  1.7030  1.9365
  476MOL0     H64241   3.015   1.937  -1.696  3.9519 -0.7832  0.0692
  476MOL0     H64242   3.572   2.167  -1.035 -1.1862 -0.5023  1.2335
  476MOL0     H64243   3.773   2.075  -0.955  4.2621  0.6502  0.1026
  476MOL0     H64244   4.249   2.174  -1.011  1.1910 -1.2404 -0.9717
  476MOL0     H64245   4.479   2.104  -1.016 -0.0833 -2.0801 -1.2062
  476MOL0     H64246   5.280   2.698  -0.266  1.8027 -1.2030  0.9813
  476MOL0     H64247   5.209   2.874  -0.125  0.0392 -1.2984 -2.8734
  476MOL0     H64248   5.435   3.064   0.333  0.2109 -1.3702 -0.1159
  476MOL0     H64249   5.402   3.248   0.473  0.6888 -0.4447 -0.3454
  476MOL0     H64250   5.104   3.481   0.655 -3.4340 -0.2072 -2.9490
  476MOL0     H64251   5.256   3.479   0.581 -0.4711 -0.8075 -0.5294
  476MOL0     H64252   5.021   3.549   0.462  1.8979  1.4469  1.9434
  476MOL0     H64253   5.041   3.378   0.414  2.2804 -0.0801 -0.6726
  476MOL0     H64254   5.289   3.502   0.371 -0.7764 -0.9723  0.2088
  476MOL0     H64255   5.142   3.593   0.294 -3.0435 -1.5900 -2.6554
  476MOL0     H64256   5.064   3.409   0.187 -0.7121  0.8149  1.5652
  476MOL0     H64257   5.182   3.297   0.249 -0.4680  0.4355  0.0216
  476MOL0     H64258   5.375   3.462  -0.090 -2.0044 -1.1948 -1.0745
  476MOL0     H64259   4.984   3.122   0.522 -0.3771 -2.1386 -0.4348
  476MOL0     H64260   5.017   2.972   0.346 -1.9441  2.4214  1.1118
  477MOL0     O64261  10.076   9.485  11.097  0.0501 -0.0136  0.8073
  477MOL0     C64262  10.084   9.573  11.009 -1.2811 -0.2695 -0.1101
  477MOL0     O64263  10.036   9.704  11.025 -0.4666  0.0299 -0.2259
  477MOL0     C64264  10.042   9.757  11.155 -0.2560  0.7233  0.2673
  477MOL0     C64265  10.157   9.755  11.240 -0.2903  0.4808  0.5842
  477MOL0     C64266  10.154   9.826  11.365 -0.4814  0.1762 -0.0150
  477MOL0     C64267  10.038   9.885  11.408 -0.2072  0.3616  0.2792
  477MOL0     O64268  10.040   9.953  11.518 -0.7156  0.1636  0.1837
  477MOL0     C64269   9.959   9.921  11.631 -0.4177  0.5208  0.5574
  477MOL0     C64270   9.840  10.019  11.645 -0.3809 -0.1259 -0.6474
  477MOL0     C64271   9.884  10.166  11.682 -0.0663  0.3536  0.1815
  477MOL0     C64272   9.851  10.203  11.827  0.3713  0.2039 -0.4253
  477MOL0     C64273   9.893  10.349  11.845 -0.9885  0.1998 -0.1154
  477MOL0     C64274   9.901  10.377  11.996 -0.1615 -0.3516 -0.9564
  477MOL0     C64275   9.761  10.402  12.056 -0.0960  0.4461 -0.1292
  477MOL0     C64276   9.766  10.386  12.205 -0.0388  0.1205 -0.2617
  477MOL0     N64277   9.634  10.390  12.268 -0.6035 -0.2970  0.4590
  477MOL0     C64278   9.514  10.320  12.245 -0.3561  0.1302 -0.6716
  477MOL0     C64279   9.421  10.386  12.322  1.1822 -0.0860  0.5182
  477MOL0     C64280   9.276  10.358  12.329  0.1787 -0.7617 -0.3339
  477MOL0     C64281   9.199  10.372  12.192  0.0016  0.4574 -0.7575
  477MOL0     C64282   9.167  10.519  12.145  0.4848  0.9384  0.2672
  477MOL0     C64283   9.139  10.625  12.255 -0.2954  0.9109  0.2815
  477MOL0     O64284   9.020  10.589  12.330 -0.4920  1.4672  0.3974
  477MOL0     C64285   8.976  10.690  12.415 -0.3223  0.4099 -0.5189
  477MOL0     C64286   9.048  10.797  12.454  0.6792 -0.5105  0.6418
  477MOL0     C64287   8.988  10.918  12.519  0.1571  0.9794 -0.4955
  477MOL0     C64288   9.071  11.047  12.527  0.3540 -0.3901 -1.1961
  477MOL0     C64289   8.846  10.911  12.555  0.7702 -0.1528  0.6213
  477MOL0     C64290   8.770  11.017  12.617  1.3624 -0.9805 -0.3802
  477MOL0     O64291   8.644  10.988  12.653  1.1791  0.0061 -0.4240
  477MOL0     C64292   8.550  11.077  12.716  0.3847  0.1980  0.2860
  477MOL0     C64293   8.589  11.151  12.826  0.4122  0.0557  0.2123
  477MOL0     C64294   8.500  11.229  12.899 -0.5109  0.0469  0.4728
  477MOL0     C64295   8.361  11.221  12.869 -0.3869 -0.1490  0.3593
  477MOL0     O64296   8.264  11.279  12.951 -0.8441  0.1997 -0.1845
  477MOL0     C64297   8.281  11.293  13.093 -0.7916 -0.3290 -0.7115
  477MOL0     C64298   8.153  11.244  13.150  0.1676  1.0337 -0.4906
  477MOL0     C64299   8.135  11.272  13.303 -0.3677  0.3396 -0.3953
  477MOL0     C64300   8.199  11.159  13.385  0.7630  0.5596  0.1898
  477MOL0     C64301   8.172  11.186  13.536  0.5942 -1.0473  0.0455
  477MOL0     C64302   8.293  11.245  13.612  0.0841  0.0037 -0.2101
  477MOL0     C64303   8.339  11.387  13.580  0.0577 -0.1293 -1.0371
  477MOL0     C64304   8.477  11.405  13.627 -0.7346  0.2156 -0.0576
  477MOL0    Cl64305   8.530  11.558  13.575  0.2408  0.0824 -0.4072
  477MOL0     C64306   8.319  11.140  12.761 -0.0988  0.1940  0.2561
  477MOL0     C64307   8.410  11.066  12.683 -0.2262 -0.1535  0.0644
  477MOL0     O64308   8.828  11.130  12.632  0.1292  0.2430 -0.3375
  477MOL0     C64309   8.786  10.785  12.522 -0.5279  0.2513  0.0172
  477MOL0     C64310   8.845  10.682  12.454 -0.3105 -0.1952  0.0736
  477MOL0     N64311   9.477  10.501  12.380  1.2265  0.4315  0.6034
  477MOL0     N64312   9.603  10.499  12.344  0.7748  1.1584 -0.0266
  477MOL0     C64313   9.923   9.873  11.335 -0.6474 -0.8342  0.2105
  477MOL0     C64314   9.927   9.812  11.211  0.1216  0.2529  0.9790
  477MOL0     C64315  10.114   9.534  10.862  0.0696  0.4784 -0.5277
  477MOL0     C64316  10.174   9.409  10.829  0.6343 -0.4762  0.6532
  477MOL0     C64317  10.185   9.371  10.697 -0.5169 -0.2737 -0.7483
  477MOL0     C64318  10.146   9.458  10.596  0.7556  0.9504 -0.4672
  477MOL0     O64319  10.137   9.405  10.470  0.6654 -0.0701  0.1735
  477MOL0     C64320  10.186   9.491  10.367  0.1978 -0.2427  0.2228
  477MOL0     C64321  10.240   9.411  10.243  0.0126 -0.3121 -0.2192
  477MOL0     C64322  10.349   9.305  10.285  0.1500 -0.0322  0.5443
  477MOL0     C64323  10.431   9.230  10.178  0.6698 -0.3778  0.6536
  477MOL0     C64324  10.491   9.319  10.076 -0.7057  0.1243 -0.2753
  477MOL0     C64325  10.543   9.354   9.978 -0.2885  0.3311  0.1660
  477MOL0     C64326  10.071   9.574  10.628  0.6841  0.7435 -0.3402
  477MOL0     C64327  10.056   9.604  10.763  0.9270 -0.3211  1.0671
  477MOL0     H64328  10.242   9.712  11.189 -0.5707  0.1491  0.3945
  477MOL0     H64329  10.241   9.843  11.427 -0.8237  1.9010  0.0314
  477MOL0     H64330   9.932   9.815  11.634 -1.4513  0.7868  1.0786
  477MOL0     H64331  10.023   9.929  11.719  2.9060  0.9537 -1.7051
  477MOL0     H64332   9.790  10.036  11.550  0.6271  1.7691 -0.8729
  477MOL0     H64333   9.775   9.979  11.724  1.8849  0.3786  1.6156
  477MOL0     H64334   9.994  10.162  11.683 -0.0799 -1.6189  2.7965
  477MOL0     H64335   9.845  10.226  11.599 -0.0036  0.0248 -0.0908
  477MOL0     H64336   9.746  10.183  11.847  0.7157 -1.4354 -0.0512
  477MOL0     H64337   9.902  10.135  11.897  0.0234  1.1715  0.8058
  477MOL0     H64338   9.996  10.366  11.812  0.0208 -4.1854  0.2694
  477MOL0     H64339   9.824  10.417  11.793  0.2226  0.4287 -1.4973
  477MOL0     H64340   9.940  10.293  12.055 -0.6173  0.9688  1.3079
  477MOL0     H64341   9.952  10.470  12.021  0.9488 -1.7340  2.5314
  477MOL0     H64342   9.712  10.498  12.037  2.5342  1.5955 -1.6852
  477MOL0     H64343   9.704  10.320  12.012 -1.9687  0.2483  2.4612
  477MOL0     H64344   9.830  10.459  12.255  0.3714 -0.3366 -0.1178
  477MOL0     H64345   9.814  10.292  12.235  0.6416  0.0490 -1.5558
  477MOL0     H64346   9.487  10.239  12.177  0.8320  0.1250 -1.1626
  477MOL0     H64347   9.265  10.255  12.364 -1.7846 -0.6403 -0.4845
  477MOL0     H64348   9.234  10.425  12.404  2.5010  0.8802 -0.3797
  477MOL0     H64349   9.106  10.315  12.200  1.7221 -2.2359  2.8423
  477MOL0     H64350   9.251  10.317  12.112 -2.8252 -1.1942 -1.6011
  477MOL0     H64351   9.094  10.520  12.063 -1.1727  0.8358  1.6889
  477MOL0     H64352   9.265  10.549  12.109  1.7488 -3.2883 -0.3935
  477MOL0     H64353   9.118  10.722  12.209 -1.8518 -0.3744 -1.8565
  477MOL0     H64354   9.226  10.626  12.321 -0.5042  0.6495  0.5619
  477MOL0     H64355   9.153  10.807  12.431  0.8264  2.6243  2.1130
  477MOL0     H64356   9.062  11.084  12.629 -1.8910 -3.7757 -0.0158
  477MOL0     H64357   9.178  11.031  12.512  0.8360  1.2699  0.1779
  477MOL0     H64358   9.026  11.120  12.458 -1.3631  0.2420  0.4934
  477MOL0     H64359   8.688  11.136  12.867 -0.1030  0.7352  1.7674
  477MOL0     H64360   8.535  11.283  12.987  0.5363  0.2581 -0.0486
  477MOL0     H64361   8.366  11.237  13.135  2.3627  3.5113 -1.4016
  477MOL0     H64362   8.315  11.393  13.120  1.5826 -0.9637 -1.1210
  477MOL0     H64363   8.073  11.295  13.096 -2.4716  0.5847  2.6529
  477MOL0     H64364   8.132  11.139  13.127 -1.8865  0.8262  1.8501
  477MOL0     H64365   8.029  11.294  13.323 -0.4897  1.1060 -1.7301
  477MOL0     H64366   8.184  11.367  13.327  3.4353 -1.1092 -1.7701
  477MOL0     H64367   8.149  11.063  13.369  0.6182  0.1086  2.8505
  477MOL0     H64368   8.305  11.143  13.361 -0.0561 -2.0655 -2.2239
  477MOL0     H64369   8.160  11.088  13.582 -0.2050  0.5976  3.7354
  477MOL0     H64370   8.081  11.247  13.535  0.7932 -0.7437 -0.8199
  477MOL0     H64371   8.274  11.246  13.719 -0.0680 -2.7058 -0.1355
  477MOL0     H64372   8.385  11.189  13.591  0.5096 -0.4764  2.5627
  477MOL0     H64373   8.285  11.465  13.635  0.6596 -0.0422 -0.5580
  477MOL0     H64374   8.334  11.414  13.474 -0.8029  0.0212 -0.9652
  477MOL0     H64375   8.548  11.328  13.594 -2.1799 -0.9650 -0.4934
  477MOL0     H64376   8.481  11.410  13.736 -0.2717  2.0134 -0.1333
  477MOL0     H64377   8.213  11.130  12.739  0.2511 -0.3413 -1.3265
  477MOL0     H64378   8.377  10.999  12.604  2.9152 -0.1063 -1.4108
  477MOL0     H64379   8.680  10.774  12.541  0.1150 -2.3079  2.8400
  477MOL0     H64380   8.792  10.593  12.421  1.4667 -2.4580  2.8651
  477MOL0     H64381   9.827   9.910  11.370 -0.9408 -0.4581 -0.9460
  477MOL0     H64382   9.843   9.797  11.144  1.2594 -2.1705 -0.0601
  477MOL0     H64383  10.212   9.343  10.906  0.5552  0.2787  1.3451
  477MOL0     H64384  10.215   9.271  10.669 -0.5407 -0.7795  0.9075
  477MOL0     H64385  10.104   9.560  10.345 -2.0595 -3.4120 -2.1701
  477MOL0     H64386  10.270   9.552  10.403 -1.5728  1.2535  2.0022
  477MOL0     H64387  10.293   9.481  10.177 -1.9987  1.3986 -0.1273
  477MOL0     H64388  10.152   9.364  10.197  0.9339 -2.6308  0.2278
  477MOL0     H64389  10.294   9.224  10.332 -0.4012  1.0880  1.8867
  477MOL0     H64390  10.418   9.357  10.352  1.5301 -0.9789 -0.0772
  477MOL0     H64391  10.361   9.163  10.128 -0.6948  1.3761  0.1399
  477MOL0     H64392  10.508   9.169  10.228  2.0031  1.7005  1.3008
  477MOL0     H64393  10.596   9.388   9.892  0.2116  1.4067  0.8724
  477MOL0     H64394  10.019   9.631  10.551  0.6472  0.6473 -0.3871
  477MOL0     H64395   9.978   9.679  10.770  0.1797 -1.1051  1.3610
  478MOL0     O64396   4.019   0.451   8.039 -0.2534  0.1255  0.3707
  478MOL0     C64397   4.041   0.346   8.090 -0.4585  0.4069 -0.5936
  478MOL0     O64398   4.062   0.327   8.220 -0.3957 -0.1139 -0.2745
  478MOL0     C64399   4.041   0.442   8.300 -0.3767  0.3361  1.3944
  478MOL0     C64400   3.910   0.472   8.328 -0.4262 -0.5984 -0.7817
  478MOL0     C64401   3.871   0.589   8.385 -1.2491 -0.1399  0.0756
  478MOL0     C64402   3.971   0.676   8.441 -0.2289 -0.6925  0.4286
  478MOL0     O64403   3.939   0.796   8.500  0.7508 -0.1991 -0.0181
  478MOL0     C64404   3.794   0.826   8.527 -0.0628 -0.1203  0.5397
  478MOL0     C64405   3.722   0.760   8.647  0.1122  0.3595  0.6482
  478MOL0     C64406   3.782   0.799   8.774  0.3155  0.4061 -0.0373
  478MOL0     C64407   3.672   0.800   8.886 -0.1088 -0.1604 -0.5612
  478MOL0     C64408   3.629   0.662   8.942  0.0528  0.0462 -0.2181
  478MOL0     C64409   3.708   0.617   9.067 -0.9891  0.1270 -0.3916
  478MOL0     C64410   3.649   0.502   9.130  0.3899  0.1349 -0.1062
  478MOL0     C64411   3.720   0.437   9.258  0.8959  0.2895  0.1104
  478MOL0     N64412   3.726   0.515   9.385 -0.9178 -0.5615 -0.7195
  478MOL0     C64413   3.645   0.502   9.494  1.1999 -0.6250 -0.0687
  478MOL0     C64414   3.709   0.569   9.585 -0.8743 -0.4201 -0.2214
  478MOL0     C64415   3.644   0.592   9.717  0.4117  1.1767  0.3816
  478MOL0     C64416   3.719   0.533   9.848  0.2505 -0.5019 -0.2456
  478MOL0     C64417   3.642   0.583   9.974 -0.3304  0.1563 -0.7023
  478MOL0     C64418   3.694   0.501  10.094 -0.8066  0.8600 -0.0868
  478MOL0     O64419   3.670   0.360  10.084 -0.5295 -0.2085  0.5161
  478MOL0     C64420   3.693   0.268  10.185 -0.4061 -0.4751  0.0885
  478MOL0     C64421   3.712   0.296  10.328 -1.3607 -0.4561 -0.7081
  478MOL0     C64422   3.701   0.188  10.416  0.4294 -0.4469  0.0628
  478MOL0     C64423   3.685   0.212  10.562 -0.7613 -0.4369 -0.4121
  478MOL0     C64424   3.722   0.058  10.357  0.2135  0.3155 -0.5170
  478MOL0     C64425   3.746  -0.060  10.437  0.5816  0.5277 -0.0393
  478MOL0     O64426   3.874  -0.092  10.464 -0.4619  0.2479  1.2273
  478MOL0     C64427   3.915  -0.184  10.548  0.4403  0.5006 -0.6846
  478MOL0     C64428   3.845  -0.206  10.669  0.9514  0.4018 -0.6455
  478MOL0     C64429   3.878  -0.301  10.769  1.1776 -0.2545 -0.2576
  478MOL0     C64430   3.979  -0.393  10.738 -0.5472 -0.3466 -0.3161
  478MOL0     O64431   4.018  -0.479  10.834 -0.0399 -0.6390  0.6288
  478MOL0     C64432   3.950  -0.492  10.968  0.9855  0.6931  0.3191
  478MOL0     C64433   4.005  -0.620  11.043  0.5143 -0.5498 -0.1633
  478MOL0     C64434   4.147  -0.594  11.094 -0.3528 -0.2145  0.0125
  478MOL0     C64435   4.256  -0.611  10.993  0.5659  0.1073  0.3269
  478MOL0     C64436   4.350  -0.491  10.967  0.0503  0.2122  1.2817
  478MOL0     C64437   4.462  -0.462  11.061 -0.9788  0.4118  0.3786
  478MOL0     C64438   4.575  -0.555  11.067 -1.4926 -0.0697  0.2832
  478MOL0     C64439   4.691  -0.513  10.980  0.2958  0.3172 -0.2951
  478MOL0    Cl64440   4.778  -0.651  10.923  0.4483  0.0116 -0.2690
  478MOL0     C64441   4.041  -0.379  10.603  0.7382  0.8396 -0.6315
  478MOL0     C64442   4.015  -0.277  10.517  0.8673  0.1345  0.5200
  478MOL0     O64443   3.653  -0.131  10.479 -0.1086  0.2545 -0.3464
  478MOL0     C64444   3.718   0.033  10.217  1.3842  0.5554 -0.5699
  478MOL0     C64445   3.694   0.137  10.131 -0.0882 -0.0776  0.9824
  478MOL0     N64446   3.826   0.612   9.537  0.2331  0.1732 -0.8645
  478MOL0     N64447   3.837   0.579   9.414 -0.1276  0.5284  0.0629
  478MOL0     C64448   4.104   0.646   8.422 -0.8087  0.3958  0.6198
  478MOL0     C64449   4.141   0.532   8.344  0.7980 -0.6000 -0.4850
  478MOL0     C64450   4.022   0.230   8.004 -0.3338 -0.1356 -0.1860
  478MOL0     C64451   3.989   0.103   8.059 -0.2395 -0.1919 -0.3383
  478MOL0     C64452   3.958  -0.013   7.976 -0.3784 -0.5992  0.5768
  478MOL0     C64453   3.970   0.005   7.836 -0.8270  0.4243  0.4312
  478MOL0     O64454   3.966  -0.104   7.748 -0.4195  0.5547 -1.0159
  478MOL0     C64455   3.921  -0.237   7.794  0.0128  0.2541  0.2545
  478MOL0     C64456   4.046  -0.321   7.786 -0.2716  0.7897  0.2727
  478MOL0     C64457   4.143  -0.283   7.895  0.1560  0.6612  0.7731
  478MOL0     C64458   4.256  -0.371   7.925  1.1387  0.9689 -0.9964
  478MOL0     C64459   4.358  -0.375   7.819 -0.8150 -0.2239 -0.5660
  478MOL0     C64460   4.440  -0.379   7.732 -0.7395  0.0226 -0.0961
  478MOL0     C64461   4.001   0.131   7.786  0.0362  0.8908 -0.1553
  478MOL0     C64462   4.036   0.241   7.861 -0.2087 -0.3501  0.4777
  478MOL0     H64463   3.828   0.406   8.300 -1.0439  1.3573 -4.1836
  478MOL0     H64464   3.763   0.600   8.393 -1.3478 -0.7694 -0.2693
  478MOL0     H64465   3.792   0.934   8.549  0.4359 -0.2690  1.3814
  478MOL0     H64466   3.722   0.823   8.445  0.4942  4.0684 -0.3408
  478MOL0     H64467   3.615   0.783   8.645  0.0379  0.4574 -3.7945
  478MOL0     H64468   3.716   0.651   8.642 -2.0246  0.4631 -2.9290
  478MOL0     H64469   3.872   0.746   8.806 -0.2070  0.4337  1.5582
  478MOL0     H64470   3.825   0.899   8.760 -0.4717  0.4152 -2.9884
  478MOL0     H64471   3.705   0.869   8.964 -0.3324 -0.9550  0.2455
  478MOL0     H64472   3.585   0.853   8.847  0.3493  1.2610  0.2940
  478MOL0     H64473   3.525   0.672   8.972  0.1659  0.4734  0.0463
  478MOL0     H64474   3.631   0.594   8.856 -0.1751  1.6418 -1.5357
  478MOL0     H64475   3.815   0.600   9.048  0.0953  0.2481  4.3237
  478MOL0     H64476   3.716   0.699   9.139  0.9225  0.6498 -1.1268
  478MOL0     H64477   3.548   0.538   9.153 -0.9083 -2.4960 -1.2639
  478MOL0     H64478   3.642   0.428   9.050 -1.2498 -0.8057  0.8449
  478MOL0     H64479   3.822   0.406   9.234  0.5102 -1.8556  1.0276
  478MOL0     H64480   3.662   0.346   9.278  1.2837 -0.2454 -1.1408
  478MOL0     H64481   3.545   0.462   9.500  1.6194 -2.2614 -2.4944
  478MOL0     H64482   3.629   0.697   9.746 -1.2981  1.2031 -0.4599
  478MOL0     H64483   3.550   0.538   9.708  0.0759  1.6897  0.7203
  478MOL0     H64484   3.824   0.565   9.851  0.6562 -1.7798  0.3806
  478MOL0     H64485   3.708   0.424   9.842 -2.0583 -0.3866  0.7919
  478MOL0     H64486   3.536   0.567   9.950  0.0253 -2.8271 -0.6259
  478MOL0     H64487   3.660   0.686  10.005  2.2958 -0.0428 -1.3380
  478MOL0     H64488   3.644   0.523  10.188  1.2773 -3.3819  2.2990
  478MOL0     H64489   3.801   0.514  10.111 -0.0252 -2.6013 -1.3971
  478MOL0     H64490   3.711   0.393  10.376  1.5125 -0.5127 -0.3860
  478MOL0     H64491   3.673   0.118  10.617 -0.3636 -0.7633 -0.8800
  478MOL0     H64492   3.769   0.268  10.605  0.2390 -1.7563 -0.5745
  478MOL0     H64493   3.594   0.270  10.575  0.1115  0.6887  1.0875
  478MOL0     H64494   3.766  -0.136  10.693 -0.2895 -1.0190 -0.4608
  478MOL0     H64495   3.824  -0.296  10.863 -1.7195 -0.4602 -1.8050
  478MOL0     H64496   3.955  -0.400  11.027  0.5143 -0.0834  1.6130
  478MOL0     H64497   3.846  -0.512  10.941  0.7180 -0.8402  2.2437
  478MOL0     H64498   3.941  -0.635  11.131  0.9861  0.6254  0.4039
  478MOL0     H64499   4.006  -0.712  10.984 -0.9981 -1.6928  1.4843
  478MOL0     H64500   4.167  -0.675  11.165 -3.3279 -0.2251  0.9989
  478MOL0     H64501   4.166  -0.499  11.145  1.1098 -0.2387 -0.4427
  478MOL0     H64502   4.318  -0.699  11.013  1.0259  0.1161 -0.9862
  478MOL0     H64503   4.201  -0.647  10.905 -0.4000  1.4021  0.3721
  478MOL0     H64504   4.280  -0.412  10.941 -2.5590 -2.1356  0.7210
  478MOL0     H64505   4.403  -0.504  10.872 -1.7200  0.9966  0.1277
  478MOL0     H64506   4.505  -0.364  11.041 -0.8773  0.5099  1.0335
  478MOL0     H64507   4.423  -0.465  11.163  0.0048 -0.4186  0.7540
  478MOL0     H64508   4.534  -0.653  11.041 -1.5970 -0.2309  1.0462
  478MOL0     H64509   4.622  -0.577  11.163  0.1408  0.9428 -0.2347
  478MOL0     H64510   4.762  -0.446  11.029  0.2330  2.1132 -2.4925
  478MOL0     H64511   4.654  -0.454  10.896 -3.6258 -1.4175 -0.0004
  478MOL0     H64512   4.111  -0.459  10.581  1.3866  1.1097  0.3784
  478MOL0     H64513   4.057  -0.270  10.417 -0.0913 -1.4791 -0.0392
  478MOL0     H64514   3.733  -0.070  10.184 -0.1423 -0.7580  2.4642
  478MOL0     H64515   3.702   0.121  10.024 -0.6390  1.6356  0.6521
  478MOL0     H64516   4.185   0.711   8.455  1.9710 -1.4520 -1.9598
  478MOL0     H64517   4.247   0.512   8.327  0.9918  1.0389 -1.3765
  478MOL0     H64518   3.988   0.091   8.167 -3.9681 -0.9788 -0.3548
  478MOL0     H64519   3.942  -0.105   8.030  0.6305 -1.0721  0.1107
  478MOL0     H64520   3.888  -0.243   7.898  2.0871  1.2236  1.0222
  478MOL0     H64521   3.847  -0.270   7.720 -0.3207  0.9778  0.2623
  478MOL0     H64522   4.082  -0.320   7.683  0.2563  2.4151  0.4586
  478MOL0     H64523   4.020  -0.424   7.813  0.9759  0.3482 -0.1812
  478MOL0     H64524   4.080  -0.267   7.983  0.3879  2.8289  0.6149
  478MOL0     H64525   4.180  -0.184   7.868  1.2357  0.5290  1.7080
  478MOL0     H64526   4.215  -0.471   7.941 -1.4052  1.8962 -1.2531
  478MOL0     H64527   4.302  -0.335   8.018 -1.0275 -3.0810  1.9578
  478MOL0     H64528   4.506  -0.397   7.650 -1.2625 -0.6119 -0.3899
  478MOL0     H64529   4.028   0.133   7.681 -3.2907  3.3996 -1.1425
  478MOL0     H64530   4.051   0.340   7.819  0.8397  0.6868  3.0759
  479MOL0     O64531   7.650   2.500   8.411  0.3190  0.2596  0.2813
  479MOL0     C64532   7.610   2.533   8.526  0.4172  0.3940 -0.2346
  479MOL0     O64533   7.694   2.575   8.628  0.4778  0.0109 -0.6497
  479MOL0     C64534   7.833   2.566   8.611  0.5217 -0.9646 -0.4858
  479MOL0     C64535   7.911   2.521   8.506 -1.1900  0.1899  0.4990
  479MOL0     C64536   8.057   2.529   8.529 -0.0716 -1.3870  0.2369
  479MOL0     C64537   8.114   2.569   8.645  0.0849  0.1032  0.1629
  479MOL0     O64538   8.250   2.573   8.640 -0.5274  0.1353 -0.5396
  479MOL0     C64539   8.316   2.657   8.738 -0.4198 -0.3424 -0.9830
  479MOL0     C64540   8.321   2.809   8.706  0.7417  0.4552  0.8264
  479MOL0     C64541   8.455   2.843   8.638  0.4046  0.2740 -0.1226
  479MOL0     C64542   8.459   2.990   8.594 -0.0322 -0.0178 -0.3640
  479MOL0     C64543   8.608   3.013   8.548 -0.0816 -1.3606 -0.3417
  479MOL0     C64544   8.622   2.967   8.401  0.5633  0.1209 -0.9957
  479MOL0     C64545   8.771   2.986   8.367 -0.2265 -0.4194  0.3194
  479MOL0     C64546   8.804   2.975   8.218 -0.2357 -0.5595  0.2112
  479MOL0     N64547   8.756   3.078   8.121 -0.4576  0.2334 -0.0878
  479MOL0     C64548   8.725   3.206   8.153 -0.6887 -0.2593 -0.4226
  479MOL0     C64549   8.636   3.242   8.055 -0.0620  0.1854 -0.1651
  479MOL0     C64550   8.540   3.369   8.057 -0.3846 -0.0588  0.1701
  479MOL0     C64551   8.389   3.340   8.072 -0.3935 -0.1022 -0.5413
  479MOL0     C64552   8.363   3.263   8.206 -0.1032  0.3879 -0.3645
  479MOL0     C64553   8.214   3.278   8.249  0.0279 -0.0209 -0.4120
  479MOL0     O64554   8.212   3.221   8.383 -0.1467 -0.2829  0.7434
  479MOL0     C64555   8.090   3.196   8.431  0.1988  0.4877 -0.2687
  479MOL0     C64556   8.080   3.155   8.567  0.0313  0.2995  0.1043
  479MOL0     C64557   7.952   3.143   8.630 -0.1896  0.4554 -0.0666
  479MOL0     C64558   7.963   3.108   8.772  1.1121  0.2000  0.0072
  479MOL0     C64559   7.839   3.141   8.562  0.0048 -0.2929  0.0052
  479MOL0     C64560   7.713   3.094   8.607 -0.4321 -0.3961 -0.1256
  479MOL0     O64561   7.673   2.969   8.572  0.1735 -0.0474 -0.0124
  479MOL0     C64562   7.565   2.912   8.645 -0.0873  0.2449 -0.5402
  479MOL0     C64563   7.557   2.912   8.795 -0.8307 -0.0623 -0.3196
  479MOL0     C64564   7.435   2.872   8.852 -0.5900  0.4783 -0.0036
  479MOL0     C64565   7.334   2.807   8.780 -0.3142 -0.3307 -0.1142
  479MOL0     O64566   7.229   2.742   8.833 -0.1424 -0.1146 -0.3367
  479MOL0     C64567   7.234   2.709   8.966 -0.1305  0.0426 -0.4540
  479MOL0     C64568   7.129   2.604   8.994  0.4353 -0.2623  0.8485
  479MOL0     C64569   7.166   2.518   9.109  0.7975 -0.1279 -0.1917
  479MOL0     C64570   7.038   2.496   9.200 -0.3552  0.0871  0.4037
  479MOL0     C64571   7.036   2.371   9.278  0.2556  0.0195  1.2626
  479MOL0     C64572   6.902   2.339   9.330 -0.5355 -0.3080  0.3374
  479MOL0     C64573   6.903   2.214   9.400  0.2372  0.0479  0.8568
  479MOL0     C64574   6.754   2.157   9.420  0.5742  0.0983 -0.5928
  479MOL0    Cl64575   6.671   2.221   9.570 -0.1824  0.8658 -0.3733
  479MOL0     C64576   7.352   2.796   8.638  0.4144  0.3882 -0.0546
  479MOL0     C64577   7.459   2.853   8.574  0.9248 -0.6980  0.1493
  479MOL0     O64578   7.654   3.173   8.681 -0.5455  0.0313  0.0864
  479MOL0     C64579   7.849   3.192   8.437 -0.6502  0.4751  1.0802
  479MOL0     C64580   7.967   3.220   8.364 -0.2449 -1.1633 -0.2410
  479MOL0     N64581   8.639   3.143   7.954  0.7830  0.2604  0.4340
  479MOL0     N64582   8.708   3.048   7.998  0.4148  0.6769  0.1673
  479MOL0     C64583   8.028   2.594   8.759  0.6440 -0.1892  0.0910
  479MOL0     C64584   7.890   2.607   8.731  1.6398  0.7279  0.1013
  479MOL0     C64585   7.471   2.506   8.560 -0.6363  0.6642 -0.2524
  479MOL0     C64586   7.362   2.503   8.468 -0.5071 -0.0930 -0.0567
  479MOL0     C64587   7.238   2.460   8.516 -0.5280 -0.0481  0.2461
  479MOL0     C64588   7.221   2.423   8.651 -1.3653 -0.3415  0.4359
  479MOL0     O64589   7.100   2.394   8.709  0.1833 -0.7583  0.7475
  479MOL0     C64590   7.022   2.306   8.630  0.7673  0.2108  0.3886
  479MOL0     C64591   6.890   2.288   8.692  0.0332 -0.9574  0.7318
  479MOL0     C64592   6.811   2.426   8.720 -0.5540  0.0513 -0.1473
  479MOL0     C64593   6.689   2.415   8.816 -0.4649 -0.6653  0.7625
  479MOL0     C64594   6.579   2.319   8.790 -0.5440 -0.2033 -0.8279
  479MOL0     C64595   6.487   2.252   8.759 -0.2293 -0.0129 -0.0857
  479MOL0     C64596   7.331   2.428   8.736 -0.5770  0.5495 -0.3087
  479MOL0     C64597   7.455   2.463   8.688  0.9522  0.6782 -0.5149
  479MOL0     H64598   7.879   2.463   8.419  1.6477 -1.8852  0.7000
  479MOL0     H64599   8.124   2.518   8.445 -0.8206  0.9408 -0.7395
  479MOL0     H64600   8.267   2.639   8.834  1.4023 -0.9123 -0.1138
  479MOL0     H64601   8.412   2.611   8.761 -0.1571 -0.3833 -2.1307
  479MOL0     H64602   8.242   2.846   8.640  2.4285 -1.7983 -2.7213
  479MOL0     H64603   8.313   2.867   8.799 -1.6167  1.2748  0.1812
  479MOL0     H64604   8.540   2.846   8.707  0.4080  1.9359 -0.1715
  479MOL0     H64605   8.457   2.763   8.563 -1.8167 -0.5803  0.6258
  479MOL0     H64606   8.392   3.007   8.509  0.0268 -1.0514 -0.6402
  479MOL0     H64607   8.436   3.062   8.672  0.5951  1.2974 -1.3487
  479MOL0     H64608   8.623   3.121   8.545  0.8510 -1.4346  1.0545
  479MOL0     H64609   8.680   2.970   8.618  2.1766  1.7124 -0.5784
  479MOL0     H64610   8.588   2.866   8.381  0.5529 -0.1049  0.1276
  479MOL0     H64611   8.563   3.038   8.342 -0.6158 -0.0898 -0.0879
  479MOL0     H64612   8.814   3.072   8.417 -1.8070  0.5999  0.0006
  479MOL0     H64613   8.832   2.905   8.407 -0.9811  0.3703  3.3182
  479MOL0     H64614   8.763   2.878   8.188 -2.7584 -0.1773  2.0633
  479MOL0     H64615   8.912   2.975   8.201 -0.5300 -0.6755 -1.9840
  479MOL0     H64616   8.763   3.263   8.238 -0.1590 -0.4663 -0.5163
  479MOL0     H64617   8.580   3.433   8.136  4.3782 -1.6169 -0.6822
  479MOL0     H64618   8.550   3.431   7.968  1.8003  0.2576  0.5739
  479MOL0     H64619   8.349   3.277   7.992 -0.2994 -2.9459  1.4948
  479MOL0     H64620   8.334   3.434   8.088  1.2875  0.6275  1.5440
  479MOL0     H64621   8.434   3.295   8.282  0.2950  2.2967 -1.4852
  479MOL0     H64622   8.387   3.157   8.196  0.7812  0.5260  0.2505
  479MOL0     H64623   8.150   3.219   8.183 -0.5908  1.5391 -1.2627
  479MOL0     H64624   8.168   3.378   8.249 -0.2934 -0.0350  3.0217
  479MOL0     H64625   8.170   3.129   8.622  0.6736  0.1801 -0.9801
  479MOL0     H64626   7.884   3.039   8.805  2.4994 -1.2365  0.4324
  479MOL0     H64627   8.061   3.076   8.807  2.7788  3.6885 -1.1297
  479MOL0     H64628   7.942   3.205   8.818  1.2664  0.4915 -0.5240
  479MOL0     H64629   7.638   2.949   8.856 -3.4646  1.2812  2.5805
  479MOL0     H64630   7.414   2.885   8.958 -2.0141 -0.3903 -0.1506
  479MOL0     H64631   7.335   2.674   8.991  0.3614  0.5476 -1.6499
  479MOL0     H64632   7.230   2.795   9.035  2.3474 -2.2107  2.8689
  479MOL0     H64633   7.033   2.657   9.004  1.0700  0.6214  2.5269
  479MOL0     H64634   7.112   2.532   8.913  1.3760  0.8658 -0.3925
  479MOL0     H64635   7.238   2.571   9.174  0.1090 -0.6613  1.0347
  479MOL0     H64636   7.205   2.424   9.069 -1.0988 -1.2047  0.3689
  479MOL0     H64637   7.018   2.578   9.270 -2.0187  2.0987 -2.2393
  479MOL0     H64638   6.957   2.487   9.127  1.1421 -4.3358 -1.0023
  479MOL0     H64639   7.112   2.384   9.356  1.5669 -0.7810  0.1757
  479MOL0     H64640   7.065   2.284   9.218 -0.3844 -0.6423  1.8951
  479MOL0     H64641   6.868   2.416   9.399  1.0397 -0.3416  1.1972
  479MOL0     H64642   6.837   2.342   9.242 -0.3011  1.0305  0.1884
  479MOL0     H64643   6.949   2.228   9.498  0.5323  1.6710  0.5099
  479MOL0     H64644   6.952   2.146   9.329  0.7506  1.1203  0.1539
  479MOL0     H64645   6.763   2.048   9.429  2.7476  0.2526 -0.4497
  479MOL0     H64646   6.686   2.171   9.335 -2.3436 -0.5196  1.4743
  479MOL0     H64647   7.291   2.725   8.584  3.0904 -0.8124 -1.7192
  479MOL0     H64648   7.454   2.861   8.466 -2.0208  0.1047  0.2674
  479MOL0     H64649   7.755   3.215   8.387 -0.3913  0.2232  0.4617
  479MOL0     H64650   7.954   3.250   8.260  1.7248 -0.6868 -0.3923
  479MOL0     H64651   8.069   2.605   8.860  0.5339 -2.1515  0.3901
  479MOL0     H64652   7.824   2.635   8.813  1.8463 -0.3372  0.6363
  479MOL0     H64653   7.383   2.548   8.372  0.8060 -3.4519 -1.4959
  479MOL0     H64654   7.160   2.468   8.441 -0.9776  2.6218  0.8837
  479MOL0     H64655   7.004   2.346   8.530  3.5413 -2.8726 -1.5520
  479MOL0     H64656   7.063   2.207   8.608 -1.7465 -0.6989 -0.6702
  479MOL0     H64657   6.913   2.239   8.788 -2.1748 -1.8785  0.8380
  479MOL0     H64658   6.835   2.215   8.633 -0.2106 -1.1250  1.1627
  479MOL0     H64659   6.775   2.464   8.625  2.7627 -1.7209 -2.2958
  479MOL0     H64660   6.885   2.496   8.760 -0.3487 -1.5977  2.6521
  479MOL0     H64661   6.642   2.513   8.803  2.1729  0.4460 -1.2954
  479MOL0     H64662   6.727   2.398   8.917 -1.1240  0.4846  1.2266
  479MOL0     H64663   6.407   2.193   8.720 -0.9599  1.5916 -1.1284
  479MOL0     H64664   7.319   2.405   8.842 -1.0807  3.0606  0.2404
  479MOL0     H64665   7.531   2.464   8.766  0.3970  3.8936  0.1525
  480MOL0     O64666   3.676   2.673   9.666 -0.1131 -0.5656 -0.7414
  480MOL0     C64667   3.636   2.565   9.621  0.3883 -0.5110  0.2542
  480MOL0     O64668   3.712   2.455   9.591  0.6776  0.0880 -0.0050
  480MOL0     C64669   3.846   2.467   9.593 -0.1438 -0.5401 -0.4372
  480MOL0     C64670   3.918   2.497   9.718 -0.6662  0.3976  0.1548
  480MOL0     C64671   4.052   2.522   9.712  0.6828 -1.2064 -0.2089
  480MOL0     C64672   4.121   2.532   9.594 -0.0167  0.0754  0.2366
  480MOL0     O64673   4.255   2.564   9.598  0.0853  0.0422  0.4476
  480MOL0     C64674   4.320   2.612   9.486  0.0243  0.1316  0.7386
  480MOL0     C64675   4.470   2.646   9.502  0.7513  0.2863  0.1028
  480MOL0     C64676   4.563   2.544   9.567 -0.3097 -0.2053  0.5684
  480MOL0     C64677   4.706   2.584   9.525 -0.2928 -0.6514  0.1724
  480MOL0     C64678   4.821   2.509   9.590 -1.5977 -0.2977 -0.1083
  480MOL0     C64679   4.876   2.572   9.716  0.1164 -0.0718 -0.4716
  480MOL0     C64680   4.971   2.479   9.799  0.1338  0.9902  0.7899
  480MOL0     C64681   5.064   2.561   9.897 -0.3664  0.1552  0.2077
  480MOL0     N64682   5.179   2.494   9.966 -0.0182  0.1645  0.3890
  480MOL0     C64683   5.294   2.452   9.909  0.5302  0.4172  0.6684
  480MOL0     C64684   5.371   2.435  10.010 -0.7357 -0.7884 -0.2637
  480MOL0     C64685   5.510   2.384   9.999  0.3677 -0.3699 -0.0022
  480MOL0     C64686   5.612   2.462  10.086 -0.6219  0.4141  0.8698
  480MOL0     C64687   5.649   2.590  10.023  0.1529 -0.4135 -0.5847
  480MOL0     C64688   5.720   2.691  10.118 -1.1496  0.1496 -0.5443
  480MOL0     O64689   5.861   2.665  10.121 -0.4649 -0.2007 -0.4221
  480MOL0     C64690   5.908   2.581  10.227 -0.2497  0.0218  0.6919
  480MOL0     C64691   6.045   2.555  10.217  0.2286  0.5510 -0.4588
  480MOL0     C64692   6.115   2.499  10.328  0.0499 -0.5252 -0.9272
  480MOL0     C64693   6.264   2.494  10.320  0.5938 -0.6035 -0.2590
  480MOL0     C64694   6.043   2.450  10.438  0.5241 -0.3746 -0.5071
  480MOL0     C64695   6.105   2.371  10.551 -0.4265  0.1801 -0.5147
  480MOL0     O64696   6.016   2.321  10.636  0.1171 -0.4372 -1.0606
  480MOL0     C64697   6.036   2.273  10.766 -0.7862 -0.7092 -0.1664
  480MOL0     C64698   5.923   2.229  10.830  0.1921  0.1580 -0.1665
  480MOL0     C64699   5.928   2.171  10.960 -0.1649 -0.1808 -0.3261
  480MOL0     C64700   6.046   2.182  11.027 -0.3657 -0.1505  0.2818
  480MOL0     O64701   6.060   2.123  11.154 -0.7068 -0.1983  0.5385
  480MOL0     C64702   5.948   2.089  11.236 -0.5629  0.1617  0.7717
  480MOL0     C64703   5.990   2.125  11.375  0.1212  0.4475  1.1419
  480MOL0     C64704   6.129   2.077  11.432  0.7778  1.0902  1.1879
  480MOL0     C64705   6.151   1.921  11.435 -0.1348  0.3358  0.4679
  480MOL0     C64706   6.306   1.894  11.435  0.0241 -0.0464  1.3656
  480MOL0     C64707   6.372   1.962  11.555  0.4850 -0.8167  0.3656
  480MOL0     C64708   6.516   1.913  11.553 -0.7713 -0.8951  0.0794
  480MOL0     C64709   6.607   1.988  11.655 -0.7050 -0.0233  0.3218
  480MOL0    Cl64710   6.584   2.157  11.652  0.1632 -0.1388 -0.1657
  480MOL0     C64711   6.155   2.239  10.965  1.1963  0.8769 -0.7501
  480MOL0     C64712   6.152   2.285  10.836 -0.0335  0.2093  0.5562
  480MOL0     O64713   6.226   2.353  10.563 -0.0658  0.0544 -0.3008
  480MOL0     C64714   5.901   2.454  10.436  0.5011  0.6818 -0.0113
  480MOL0     C64715   5.842   2.520  10.333 -0.0282 -0.5834  0.5827
  480MOL0     N64716   5.298   2.440  10.128 -0.0218 -0.2364 -0.1001
  480MOL0     N64717   5.180   2.483  10.104 -0.7561 -0.9467 -0.5120
  480MOL0     C64718   4.059   2.489   9.479  0.8351  0.5125 -0.2709
  480MOL0     C64719   3.924   2.462   9.479 -0.0784 -0.5014  1.0045
  480MOL0     C64720   3.495   2.557   9.568  0.4299  0.4525 -0.6327
  480MOL0     C64721   3.393   2.645   9.613  1.0540  0.1619 -0.2220
  480MOL0     C64722   3.255   2.620   9.582 -0.0669 -0.2126 -0.9295
  480MOL0     C64723   3.218   2.524   9.492  0.0167 -0.8410  0.4955
  480MOL0     O64724   3.092   2.507   9.433  0.0076  0.1662  0.2900
  480MOL0     C64725   2.985   2.594   9.461 -0.5922 -0.5024 -0.4941
  480MOL0     C64726   2.923   2.572   9.594 -0.1117  0.5682  0.0380
  480MOL0     C64727   2.925   2.418   9.636  0.8710 -1.5099  0.6907
  480MOL0     C64728   2.827   2.401   9.744  0.1117  0.0813  0.1971
  480MOL0     C64729   2.684   2.401   9.688  0.5290 -0.6611 -0.7682
  480MOL0     C64730   2.586   2.428   9.618 -0.3930 -0.1935 -0.2070
  480MOL0     C64731   3.318   2.438   9.440 -0.2079  0.2073 -1.1121
  480MOL0     C64732   3.453   2.449   9.479  0.0054  0.0605 -0.1811
  480MOL0     H64733   3.874   2.500   9.818  0.7780 -0.8442  0.8821
  480MOL0     H64734   4.111   2.564   9.793  4.0777 -1.3642 -2.4090
  480MOL0     H64735   4.332   2.534   9.410  1.1876  1.5263 -0.5663
  480MOL0     H64736   4.270   2.699   9.442 -1.3867 -2.2141 -2.7749
  480MOL0     H64737   4.510   2.667   9.402  1.5890  0.0194  0.3689
  480MOL0     H64738   4.482   2.737   9.563 -0.5511 -0.3011  1.2791
  480MOL0     H64739   4.557   2.562   9.675 -0.5717 -0.8150  0.6541
  480MOL0     H64740   4.534   2.444   9.534 -1.6790  1.1076 -2.6783
  480MOL0     H64741   4.714   2.563   9.418 -0.0590  1.2361 -0.2191
  480MOL0     H64742   4.723   2.692   9.532 -3.5016  0.2128 -2.7016
  480MOL0     H64743   4.785   2.408   9.614  1.6551 -1.4994  0.2160
  480MOL0     H64744   4.897   2.495   9.512 -0.8005  0.4007  0.5304
  480MOL0     H64745   4.936   2.655   9.678 -0.9244 -0.4765 -3.1824
  480MOL0     H64746   4.791   2.605   9.777  0.6786 -0.0187  0.3055
  480MOL0     H64747   4.900   2.421   9.858  1.9345 -0.2998  1.8054
  480MOL0     H64748   5.027   2.420   9.726 -2.7696  1.1019 -1.6928
  480MOL0     H64749   5.012   2.612   9.978  2.3359  3.2523  0.2193
  480MOL0     H64750   5.105   2.638   9.831 -1.2343 -0.8817 -1.6105
  480MOL0     H64751   5.310   2.435   9.803  0.8599  2.0186  0.4384
  480MOL0     H64752   5.526   2.277  10.019 -1.2780 -0.2499  2.3642
  480MOL0     H64753   5.547   2.406   9.898  0.8306  0.2827  0.3023
  480MOL0     H64754   5.702   2.403  10.109  0.3008  1.3828 -0.0933
  480MOL0     H64755   5.570   2.473  10.186  4.2962 -1.1325  3.4522
  480MOL0     H64756   5.559   2.642   9.987  0.6537  0.7101 -0.2712
  480MOL0     H64757   5.702   2.588   9.928 -1.2110 -0.7747 -1.3642
  480MOL0     H64758   5.669   2.701  10.214 -2.1549 -0.8466 -0.9518
  480MOL0     H64759   5.704   2.791  10.079  4.9335  1.0716 -1.6082
  480MOL0     H64760   6.090   2.589  10.124  1.4834 -0.5954 -0.2890
  480MOL0     H64761   6.296   2.392  10.296  1.2964  0.1099 -2.5547
  480MOL0     H64762   6.297   2.562  10.241 -2.6229  1.1920 -0.1952
  480MOL0     H64763   6.318   2.532  10.408  0.9419 -1.0465 -0.2761
  480MOL0     H64764   5.829   2.241  10.777 -0.9534 -1.2268  1.4328
  480MOL0     H64765   5.839   2.125  11.000 -1.1993  1.8589 -0.1284
  480MOL0     H64766   5.857   2.134  11.196 -1.2507 -2.8959 -1.5185
  480MOL0     H64767   5.938   1.980  11.237  3.0252 -0.3318 -0.9372
  480MOL0     H64768   6.008   2.233  11.367 -0.4882  0.5299  0.7669
  480MOL0     H64769   5.907   2.102  11.442  1.4522 -1.3150  2.2672
  480MOL0     H64770   6.129   2.105  11.537  3.4083  1.9995  1.0094
  480MOL0     H64771   6.204   2.132  11.375 -2.0744  0.8910 -3.2970
  480MOL0     H64772   6.088   1.898  11.522 -0.6189  3.6723  1.1466
  480MOL0     H64773   6.113   1.861  11.351  2.0867  1.0081 -1.1087
  480MOL0     H64774   6.348   1.932  11.342 -2.7231 -1.5464 -0.6484
  480MOL0     H64775   6.320   1.785  11.434 -1.9557 -0.3456  0.2265
  480MOL0     H64776   6.360   2.068  11.529 -0.4116 -1.3291 -1.4578
  480MOL0     H64777   6.325   1.936  11.650  0.9384 -0.6358  0.6450
  480MOL0     H64778   6.555   1.924  11.451  0.1678  1.2804  0.6257
  480MOL0     H64779   6.518   1.808  11.581 -0.5403 -0.7131  0.7480
  480MOL0     H64780   6.713   1.969  11.631 -0.3739  4.1369 -2.6387
  480MOL0     H64781   6.591   1.945  11.754  0.1814 -0.6954  0.1881
  480MOL0     H64782   6.248   2.250  11.019  1.6217  3.6002 -1.8704
  480MOL0     H64783   6.237   2.340  10.797  0.0369  0.0851  0.5369
  480MOL0     H64784   5.838   2.405  10.509 -0.2078  0.0863 -0.9891
  480MOL0     H64785   5.735   2.537  10.337  0.4710  3.4488  0.6697
  480MOL0     H64786   4.100   2.466   9.381  0.8895  2.3355 -0.7104
  480MOL0     H64787   3.870   2.434   9.390  0.5890 -4.1326  1.6066
  480MOL0     H64788   3.408   2.728   9.681 -5.2176  1.2613  0.4370
  480MOL0     H64789   3.178   2.682   9.627  1.3312  2.8697 -2.4363
  480MOL0     H64790   3.010   2.701   9.456  0.2335 -0.6874 -0.4947
  480MOL0     H64791   2.919   2.576   9.376 -0.7807 -2.0701 -0.0366
  480MOL0     H64792   2.819   2.605   9.584 -0.7209 -0.1492  3.0212
  480MOL0     H64793   2.971   2.625   9.677 -0.0049 -1.4182  1.3119
  480MOL0     H64794   3.024   2.379   9.663  2.3998  0.6917 -1.3635
  480MOL0     H64795   2.904   2.354   9.550 -0.1091  2.3073 -2.1794
  480MOL0     H64796   2.849   2.460   9.834 -0.9544 -3.1896  2.8267
  480MOL0     H64797   2.829   2.300   9.787 -2.0584  1.0340  2.9026
  480MOL0     H64798   2.494   2.446   9.566 -0.8828  0.4821  0.8457
  480MOL0     H64799   3.312   2.362   9.363  3.1712  0.1765 -1.4845
  480MOL0     H64800   3.534   2.385   9.445  2.0640  1.8363  1.1183
  481MOL0     O64801   9.104   8.893   4.059  0.2664  0.3466  0.2555
  481MOL0     C64802   9.155   8.886   4.171  0.8219 -0.0917 -0.2224
  481MOL0     O64803   9.130   8.969   4.276  0.5848  0.1983  0.1593
  481MOL0     C64804   9.005   9.031   4.292 -0.9650 -0.5884 -0.1046
  481MOL0     C64805   8.947   9.113   4.191 -0.3732  0.0624  0.4799
  481MOL0     C64806   8.821   9.177   4.209  0.0668 -0.5448  0.1626
  481MOL0     C64807   8.750   9.150   4.328 -0.3112  0.4327  0.1908
  481MOL0     O64808   8.620   9.189   4.343 -1.0450  0.1776 -0.0098
  481MOL0     C64809   8.556   9.169   4.478 -0.3920  0.4971 -0.1797
  481MOL0     C64810   8.407   9.199   4.488 -0.5809 -0.8806  0.6789
  481MOL0     C64811   8.385   9.349   4.538 -0.1619  0.1671  1.2592
  481MOL0     C64812   8.235   9.359   4.571  0.3350 -0.0572  1.1025
  481MOL0     C64813   8.187   9.462   4.666  0.5815  0.9525 -0.3811
  481MOL0     C64814   8.024   9.464   4.678  0.0113  0.5363  0.4248
  481MOL0     C64815   7.963   9.320   4.694  0.6184  0.0574 -0.2332
  481MOL0     C64816   7.812   9.319   4.745  1.4353 -0.5810 -0.5264
  481MOL0     N64817   7.728   9.357   4.631 -0.0861 -1.2807 -1.1179
  481MOL0     C64818   7.698   9.279   4.522  0.4758  0.9874  0.6302
  481MOL0     C64819   7.596   9.344   4.457  0.0631  0.2926 -0.3746
  481MOL0     C64820   7.518   9.322   4.329 -0.0102 -0.9201  0.4615
  481MOL0     C64821   7.420   9.204   4.356  0.0441  0.7481  0.8073
  481MOL0     C64822   7.330   9.181   4.243 -0.6704  0.2225  0.8110
  481MOL0     C64823   7.312   9.031   4.215 -0.8549  0.8269  0.5949
  481MOL0     O64824   7.233   9.022   4.100 -0.1811  0.0131  0.2124
  481MOL0     C64825   7.178   8.903   4.067 -0.9796  0.5728 -0.1725
  481MOL0     C64826   7.196   8.782   4.132 -0.3659 -0.1649  0.4386
  481MOL0     C64827   7.127   8.664   4.094 -1.0410  1.1164 -0.4389
  481MOL0     C64828   7.132   8.542   4.190 -1.0625 -0.8804 -0.1341
  481MOL0     C64829   7.038   8.665   3.980 -0.4158  0.2239 -0.3172
  481MOL0     C64830   6.962   8.555   3.923  0.7417 -0.0632  0.3980
  481MOL0     O64831   6.935   8.555   3.787 -0.3532 -0.0382  0.1586
  481MOL0     C64832   6.853   8.471   3.708 -0.1290 -0.2875 -0.4499
  481MOL0     C64833   6.813   8.519   3.585 -0.6888 -0.7811  1.0415
  481MOL0     C64834   6.740   8.437   3.499  0.0941 -0.0720  0.5647
  481MOL0     C64835   6.713   8.302   3.521  0.2577  0.7227  0.9296
  481MOL0     O64836   6.664   8.210   3.427 -1.1197 -0.5251  0.1464
  481MOL0     C64837   6.529   8.161   3.458 -1.3414 -0.5793  0.6761
  481MOL0     C64838   6.423   8.222   3.374  0.7934 -0.7430  0.0376
  481MOL0     C64839   6.292   8.147   3.380 -0.2259 -0.2964 -0.4461
  481MOL0     C64840   6.174   8.221   3.316 -0.7738  0.1597  0.0790
  481MOL0     C64841   6.184   8.260   3.161 -0.9019 -0.1974 -0.2873
  481MOL0     C64842   6.198   8.136   3.072  0.2798 -0.1089  0.8693
  481MOL0     C64843   6.197   8.171   2.917 -0.9810  0.4482 -0.4965
  481MOL0     C64844   6.209   8.040   2.829 -0.0217 -0.3722 -0.1563
  481MOL0    Cl64845   6.367   7.954   2.816 -0.2069 -0.0789 -0.0598
  481MOL0     C64846   6.744   8.247   3.649 -0.6849 -0.3722 -0.6516
  481MOL0     C64847   6.815   8.339   3.745  0.2202 -0.1222 -0.1075
  481MOL0     O64848   6.939   8.459   3.994 -0.8023  0.0161 -0.5312
  481MOL0     C64849   7.037   8.786   3.910 -0.3590 -0.1007  0.2392
  481MOL0     C64850   7.096   8.904   3.957 -0.5319 -0.5638  0.4010
  481MOL0     N64851   7.585   9.461   4.521  0.9166  0.1621 -0.0025
  481MOL0     N64852   7.654   9.469   4.624 -0.0790  0.5812  0.0935
  481MOL0     C64853   8.814   9.068   4.430  0.0749 -0.5463 -0.5852
  481MOL0     C64854   8.933   9.009   4.412 -0.3208 -0.0051 -0.8146
  481MOL0     C64855   9.260   8.789   4.200 -0.1022 -0.9039  0.3639
  481MOL0     C64856   9.307   8.777   4.332 -0.5692  0.0648 -0.2408
  481MOL0     C64857   9.400   8.688   4.360 -0.6946 -0.7978 -0.6790
  481MOL0     C64858   9.465   8.609   4.266 -0.2030 -0.0223 -0.1021
  481MOL0     O64859   9.565   8.520   4.311  0.3231 -0.6397 -0.3057
  481MOL0     C64860   9.683   8.508   4.234  0.3424 -0.7514 -0.3651
  481MOL0     C64861   9.709   8.358   4.210  0.2821  0.7141 -0.7503
  481MOL0     C64862   9.581   8.290   4.150 -0.9295 -0.3506  0.1198
  481MOL0     C64863   9.598   8.148   4.162 -0.3927 -0.9428  0.5579
  481MOL0     C64864   9.468   8.076   4.139  0.3833 -0.0791  0.5565
  481MOL0     C64865   9.365   8.019   4.111 -0.9566 -0.6375 -0.1966
  481MOL0     C64866   9.418   8.631   4.133 -0.3573 -0.2221  0.5862
  481MOL0     C64867   9.315   8.719   4.101 -0.0193  0.1948  0.4103
  481MOL0     H64868   8.993   9.131   4.094  0.1492 -0.8352  0.5459
  481MOL0     H64869   8.778   9.244   4.136 -2.2279  0.7429  2.5605
  481MOL0     H64870   8.574   9.064   4.502  1.7646  0.7480 -0.5328
  481MOL0     H64871   8.608   9.220   4.559  0.5415  1.0426 -1.0863
  481MOL0     H64872   8.373   9.186   4.385  4.1753 -0.1158 -1.2645
  481MOL0     H64873   8.352   9.129   4.552 -1.0843 -0.7025  0.4419
  481MOL0     H64874   8.444   9.364   4.629  1.1020  0.7636  0.3727
  481MOL0     H64875   8.419   9.413   4.457  3.4629 -3.2158 -0.1965
  481MOL0     H64876   8.181   9.380   4.478  1.7471 -2.5935 -0.4038
  481MOL0     H64877   8.191   9.269   4.616 -0.2321 -0.7789 -0.8045
  481MOL0     H64878   8.222   9.433   4.766 -1.1955  0.1719  0.0466
  481MOL0     H64879   8.223   9.552   4.615  2.2112 -0.4598 -1.8725
  481MOL0     H64880   7.990   9.523   4.764 -4.1287 -0.7280 -0.0817
  481MOL0     H64881   7.976   9.509   4.590 -1.4218  0.2046  0.9996
  481MOL0     H64882   7.980   9.266   4.601 -2.1125  2.8420 -2.5914
  481MOL0     H64883   8.013   9.271   4.778 -3.1139 -1.6484  1.2568
  481MOL0     H64884   7.798   9.387   4.829  2.9845 -1.9749  0.9367
  481MOL0     H64885   7.782   9.216   4.764  1.6170 -0.5726 -0.1858
  481MOL0     H64886   7.750   9.188   4.491 -1.5899 -0.5851  1.5305
  481MOL0     H64887   7.468   9.411   4.289  0.8263 -1.1113 -1.1193
  481MOL0     H64888   7.583   9.300   4.243 -1.3691  1.3330 -1.2440
  481MOL0     H64889   7.361   9.242   4.440 -1.5312  2.0739 -0.8085
  481MOL0     H64890   7.472   9.108   4.367 -0.6549  0.2420 -0.1520
  481MOL0     H64891   7.376   9.218   4.151  0.0755  0.0909  1.1244
  481MOL0     H64892   7.233   9.223   4.270 -3.4492 -3.7897 -1.8079
  481MOL0     H64893   7.265   8.989   4.304  1.6980 -0.9410  1.2417
  481MOL0     H64894   7.407   8.977   4.201 -1.7944 -1.3362  2.1766
  481MOL0     H64895   7.254   8.775   4.224 -0.5969  0.2018  0.6150
  481MOL0     H64896   7.202   8.561   4.271 -2.3849 -3.2368  1.6807
  481MOL0     H64897   7.032   8.525   4.232 -1.7785  0.0661 -1.3674
  481MOL0     H64898   7.168   8.453   4.137  2.5431 -0.0236  0.6062
  481MOL0     H64899   6.841   8.614   3.540  0.3909 -0.9928  1.2418
  481MOL0     H64900   6.721   8.482   3.401  4.0851  0.2685 -0.2138
  481MOL0     H64901   6.527   8.054   3.435  3.1320 -1.4019  2.8899
  481MOL0     H64902   6.512   8.169   3.566  4.3593  1.4535  1.7804
  481MOL0     H64903   6.416   8.328   3.402 -0.9960 -0.8713  0.1837
  481MOL0     H64904   6.469   8.234   3.276 -3.2482  1.8724 -1.7865
  481MOL0     H64905   6.272   8.133   3.487  0.9771 -2.1872 -0.4273
  481MOL0     H64906   6.293   8.049   3.332 -5.2032 -0.5285 -0.5945
  481MOL0     H64907   6.083   8.162   3.326 -0.0485 -0.6157  3.5765
  481MOL0     H64908   6.156   8.314   3.371  0.4502  1.7173 -1.9703
  481MOL0     H64909   6.270   8.325   3.139 -2.3071  1.6866 -0.4842
  481MOL0     H64910   6.094   8.319   3.140  0.7539  3.6484  2.3144
  481MOL0     H64911   6.295   8.090   3.091  1.0092  0.4351 -1.2569
  481MOL0     H64912   6.120   8.061   3.091  1.5837 -2.4662 -2.2484
  481MOL0     H64913   6.277   8.242   2.894 -0.2959  0.2690  1.1767
  481MOL0     H64914   6.105   8.227   2.900  0.0637  2.7458  0.9233
  481MOL0     H64915   6.186   8.068   2.727 -1.8789 -3.5337 -0.7579
  481MOL0     H64916   6.125   7.975   2.857 -0.5491 -0.1336 -1.1453
  481MOL0     H64917   6.716   8.145   3.671 -1.9062  0.7507  4.3358
  481MOL0     H64918   6.837   8.299   3.843  2.2200 -1.5244 -1.0622
  481MOL0     H64919   6.989   8.803   3.814  2.1664 -1.2063 -1.3191
  481MOL0     H64920   7.092   8.987   3.887 -1.0180  1.2590  2.4567
  481MOL0     H64921   8.770   9.031   4.522  0.4434 -3.2193 -1.3887
  481MOL0     H64922   8.973   8.949   4.493  6.3519  2.9734 -1.2978
  481MOL0     H64923   9.269   8.836   4.415  4.2381  1.1779  1.5131
  481MOL0     H64924   9.430   8.684   4.465 -3.8323  3.0742  0.6522
  481MOL0     H64925   9.672   8.554   4.135  1.5137  1.4479  0.4652
  481MOL0     H64926   9.763   8.544   4.299 -0.8927 -0.3827  0.9920
  481MOL0     H64927   9.739   8.306   4.301 -4.3434  2.2228  1.9904
  481MOL0     H64928   9.789   8.346   4.136  0.5047  0.0744 -0.4108
  481MOL0     H64929   9.568   8.329   4.048 -3.3132 -0.4685  0.3056
  481MOL0     H64930   9.483   8.318   4.190 -1.5379 -1.0217 -0.8446
  481MOL0     H64931   9.624   8.119   4.264 -1.2587 -2.3938  0.4061
  481MOL0     H64932   9.682   8.113   4.101 -2.1011 -0.9269 -1.9639
  481MOL0     H64933   9.267   7.980   4.090 -1.3752 -2.2370  3.8798
  481MOL0     H64934   9.475   8.574   4.060  2.1349  3.5070 -0.6486
  481MOL0     H64935   9.280   8.729   3.999  4.5600  0.0728 -1.4255
  482MOL0     O64936   8.642   3.762   8.420  1.3047  0.9078  0.1401
  482MOL0     C64937   8.730   3.713   8.360 -0.1298  0.8178 -0.7384
  482MOL0     O64938   8.774   3.580   8.386  0.3873 -0.1387 -0.1011
  482MOL0     C64939   8.720   3.506   8.479 -0.8007  0.4025  0.4214
  482MOL0     C64940   8.793   3.477   8.591  0.4363  0.1042  1.2741
  482MOL0     C64941   8.743   3.392   8.692  0.2197 -0.6122  0.0676
  482MOL0     C64942   8.614   3.336   8.689  0.5965 -0.8051 -0.2746
  482MOL0     O64943   8.547   3.279   8.797  0.1405 -0.4019 -0.1979
  482MOL0     C64944   8.637   3.214   8.888  0.2727  0.6031  0.7292
  482MOL0     C64945   8.551   3.164   9.013  0.5295 -0.0097 -0.7932
  482MOL0     C64946   8.449   3.056   8.974 -0.4516 -1.4534  0.7943
  482MOL0     C64947   8.382   3.006   9.106 -0.7450 -0.5909  0.3967
  482MOL0     C64948   8.329   2.870   9.091  0.2906 -0.6311 -0.0523
  482MOL0     C64949   8.227   2.816   9.203 -0.5190  0.7440 -0.0753
  482MOL0     C64950   8.195   2.669   9.176 -0.3322  0.1486 -0.7201
  482MOL0     C64951   8.111   2.601   9.295 -0.3755  0.3549 -0.2668
  482MOL0     N64952   7.982   2.651   9.310  1.4607  0.4947  0.4277
  482MOL0     C64953   7.877   2.640   9.215 -0.3187 -0.5179 -0.5307
  482MOL0     C64954   7.773   2.702   9.280  0.1150 -0.3001 -0.3014
  482MOL0     C64955   7.633   2.725   9.216 -0.0130  0.5930  0.3578
  482MOL0     C64956   7.528   2.676   9.322  0.6175  0.0531 -1.0555
  482MOL0     C64957   7.471   2.793   9.402  0.1243  0.4949  0.1073
  482MOL0     C64958   7.326   2.747   9.443 -0.5792 -0.9436 -0.0080
  482MOL0     O64959   7.240   2.771   9.335 -0.0187 -0.0702 -0.6958
  482MOL0     C64960   7.112   2.809   9.355  0.5208  0.0898  0.5211
  482MOL0     C64961   7.020   2.741   9.435  0.3041  0.7648 -0.1130
  482MOL0     C64962   6.875   2.780   9.439 -0.8461 -1.1452 -1.0205
  482MOL0     C64963   6.784   2.684   9.515 -0.8769 -0.3981  0.2329
  482MOL0     C64964   6.844   2.905   9.381  0.5718 -0.1907 -0.3495
  482MOL0     C64965   6.710   2.969   9.395  0.7055 -0.1012 -0.0281
  482MOL0     O64966   6.673   3.042   9.293  0.3091 -0.4409  0.4976
  482MOL0     C64967   6.563   3.125   9.301 -0.1857  0.3813 -0.5177
  482MOL0     C64968   6.494   3.139   9.186 -0.5384  0.1190 -0.0517
  482MOL0     C64969   6.384   3.229   9.183  0.4949  1.4558 -0.3450
  482MOL0     C64970   6.338   3.290   9.300 -0.0376 -0.7448 -0.2035
  482MOL0     O64971   6.227   3.374   9.313 -0.5152  0.3362  0.1709
  482MOL0     C64972   6.119   3.313   9.387 -0.0972 -1.2831 -0.3569
  482MOL0     C64973   5.983   3.390   9.392  0.5324  0.3880 -0.2062
  482MOL0     C64974   5.993   3.530   9.458  0.4973 -0.2721 -0.9340
  482MOL0     C64975   5.993   3.520   9.616  0.2869  0.1787  0.0409
  482MOL0     C64976   5.906   3.629   9.669 -0.8655  0.3264  0.5702
  482MOL0     C64977   5.961   3.774   9.655 -0.3922  0.8605 -1.0436
  482MOL0     C64978   5.883   3.876   9.738 -0.4703 -0.5394 -0.2047
  482MOL0     C64979   5.746   3.907   9.673  0.5147  0.3504  0.1329
  482MOL0    Cl64980   5.650   4.026   9.768  0.3079 -0.2879  0.2740
  482MOL0     C64981   6.408   3.260   9.423  0.4250  0.3078  0.0950
  482MOL0     C64982   6.513   3.179   9.421 -0.2593  0.0430  0.9796
  482MOL0     O64983   6.645   2.939   9.494 -0.4073 -0.5361  0.1226
  482MOL0     C64984   6.944   2.976   9.316 -0.1280  0.6084  0.9354
  482MOL0     C64985   7.070   2.926   9.301 -0.5667 -0.2323  0.8403
  482MOL0     N64986   7.808   2.739   9.413 -0.0734  0.6015 -0.6000
  482MOL0     N64987   7.933   2.711   9.421 -0.2996  0.2842  0.2609
  482MOL0     C64988   8.531   3.374   8.579 -0.5850 -0.0557  0.1285
  482MOL0     C64989   8.583   3.458   8.474 -0.2425  0.3434  0.3283
  482MOL0     C64990   8.811   3.791   8.268  0.4907  0.1205  0.2236
  482MOL0     C64991   8.771   3.912   8.204  0.0702  0.8766 -0.3411
  482MOL0     C64992   8.876   3.976   8.121  0.0972 -0.1332  0.1344
  482MOL0     C64993   9.005   3.919   8.108  0.1787 -0.9036  0.8749
  482MOL0     O64994   9.096   3.954   8.010 -0.3482 -0.3699 -0.5257
  482MOL0     C64995   9.229   4.004   8.058 -0.5115 -0.1905  0.6255
  482MOL0     C64996   9.290   4.120   7.975  0.8683  0.6951  0.5843
  482MOL0     C64997   9.204   4.246   7.997 -0.7532 -0.1440 -0.2629
  482MOL0     C64998   9.265   4.370   7.919  0.6208  0.1553 -0.4419
  482MOL0     C64999   9.392   4.416   7.982  0.0431  0.3232  0.5819
  482MOL0     C65000   9.503   4.438   8.030  0.1143  1.0148  0.4307
  482MOL0     C65001   9.029   3.805   8.175 -0.6939 -0.0551  0.0576
  482MOL0     C65002   8.942   3.741   8.255 -0.3503  0.1977  1.8086
  482MOL0     H65003   8.894   3.516   8.604  0.4873 -0.7234  4.1206
  482MOL0     H65004   8.809   3.380   8.777  2.1966 -0.9870 -1.4328
  482MOL0     H65005   8.705   3.146   8.836  2.2105  1.0282  2.5820
  482MOL0     H65006   8.714   3.285   8.919  0.8424  0.4095 -0.2157
  482MOL0     H65007   8.624   3.134   9.088 -0.4935 -0.8066 -0.0763
  482MOL0     H65008   8.491   3.245   9.056  2.4792  0.2312  1.6894
  482MOL0     H65009   8.366   3.089   8.912 -1.6945 -3.4443  1.3109
  482MOL0     H65010   8.507   2.976   8.928 -0.8452 -1.7172  0.7593
  482MOL0     H65011   8.447   2.995   9.193  0.1376 -1.0846 -0.3128
  482MOL0     H65012   8.316   3.084   9.146  0.8840  1.2354 -0.3445
  482MOL0     H65013   8.260   2.869   9.006 -2.6952 -3.5292  2.1239
  482MOL0     H65014   8.414   2.806   9.063 -0.8382 -1.6991 -1.2074
  482MOL0     H65015   8.278   2.816   9.300 -1.2945  2.5187  0.3684
  482MOL0     H65016   8.144   2.887   9.202  0.8798  2.4835 -1.4346
  482MOL0     H65017   8.140   2.654   9.083 -2.1495  0.3184  0.2825
  482MOL0     H65018   8.287   2.611   9.191 -0.5771  0.6175  4.1561
  482MOL0     H65019   8.156   2.600   9.395  3.9861  0.7561 -1.9761
  482MOL0     H65020   8.102   2.495   9.269 -1.7857  0.4901 -0.3942
  482MOL0     H65021   7.881   2.603   9.113  2.5635  1.5840 -1.3000
  482MOL0     H65022   7.615   2.830   9.189 -1.0566  0.4825  0.5953
  482MOL0     H65023   7.627   2.671   9.121  2.8801  0.5588  0.0907
  482MOL0     H65024   7.579   2.604   9.385  2.8469  1.8349 -0.6909
  482MOL0     H65025   7.451   2.628   9.261  1.1923  0.4625 -2.1415
  482MOL0     H65026   7.469   2.884   9.340  2.2035  0.1406 -0.5777
  482MOL0     H65027   7.550   2.802   9.477  0.5262 -0.5225 -0.1811
  482MOL0     H65028   7.298   2.810   9.528 -4.1566 -2.2663 -0.0202
  482MOL0     H65029   7.318   2.642   9.472  0.2115 -0.1231  3.7564
  482MOL0     H65030   7.057   2.650   9.482 -3.0047 -0.7854 -0.2225
  482MOL0     H65031   6.710   2.652   9.441 -0.5092 -0.1209 -0.2662
  482MOL0     H65032   6.837   2.594   9.548 -2.8957 -1.4966  0.6462
  482MOL0     H65033   6.738   2.719   9.608  1.4715  1.5534  0.7765
  482MOL0     H65034   6.533   3.086   9.100 -0.2694  0.1740  0.0348
  482MOL0     H65035   6.329   3.244   9.091  0.2749 -1.3873 -0.7631
  482MOL0     H65036   6.095   3.213   9.350  3.0200 -1.6110 -1.8167
  482MOL0     H65037   6.150   3.287   9.489 -0.8850 -5.4441 -1.0340
  482MOL0     H65038   5.944   3.388   9.290 -0.5254  0.0560  0.1968
  482MOL0     H65039   5.906   3.334   9.446 -0.3316  3.8590  2.4514
  482MOL0     H65040   5.906   3.588   9.427 -0.2039 -2.7529 -4.2771
  482MOL0     H65041   6.080   3.580   9.417  0.1607  1.3642  0.2611
  482MOL0     H65042   5.946   3.425   9.642  1.7563 -0.2782  1.1661
  482MOL0     H65043   6.097   3.522   9.650  0.3488 -1.6137  0.0599
  482MOL0     H65044   5.889   3.607   9.775 -2.0863 -0.2699  0.2770
  482MOL0     H65045   5.812   3.626   9.613 -0.0103  2.2621 -1.0936
  482MOL0     H65046   6.065   3.782   9.686 -0.0621 -2.4872 -0.8959
  482MOL0     H65047   5.959   3.795   9.548  1.4796 -0.0028 -1.2810
  482MOL0     H65048   5.946   3.965   9.747 -1.1085  0.5288 -4.1807
  482MOL0     H65049   5.868   3.834   9.838  0.3297 -2.0116 -0.6881
  482MOL0     H65050   5.691   3.812   9.663  0.0942  0.7779 -2.4890
  482MOL0     H65051   5.762   3.953   9.575 -1.3869  0.5815 -0.1184
  482MOL0     H65052   6.387   3.307   9.518  1.7241 -0.8302  0.9796
  482MOL0     H65053   6.570   3.173   9.513 -1.0741 -0.8432  1.4356
  482MOL0     H65054   6.921   3.069   9.267  2.0807 -0.3011 -2.1451
  482MOL0     H65055   7.141   2.985   9.244 -0.5635 -1.0966 -0.0833
  482MOL0     H65056   8.427   3.344   8.575 -0.3442 -0.7973 -0.8163
  482MOL0     H65057   8.512   3.485   8.397 -0.6584  0.7473  0.8505
  482MOL0     H65058   8.676   3.960   8.223 -0.4184  1.6207 -3.8837
  482MOL0     H65059   8.837   4.066   8.074 -2.6862 -0.4727  1.5263
  482MOL0     H65060   9.236   4.026   8.165 -0.8018  2.3012  0.1986
  482MOL0     H65061   9.295   3.919   8.040 -0.2352  0.6732 -3.5690
  482MOL0     H65062   9.291   4.091   7.869  1.3170  1.1633  0.4585
  482MOL0     H65063   9.393   4.142   8.003  0.7880  0.8839  0.7371
  482MOL0     H65064   9.219   4.257   8.105 -1.2149  0.8787 -0.2875
  482MOL0     H65065   9.097   4.232   7.982 -0.7733  0.9445 -1.3317
  482MOL0     H65066   9.191   4.450   7.912 -2.2023 -2.3087 -0.8137
  482MOL0     H65067   9.290   4.348   7.815 -2.2731  0.8413 -1.3859
  482MOL0     H65068   9.600   4.470   8.062  0.7341  2.8254 -2.8046
  482MOL0     H65069   9.126   3.760   8.158 -0.0321  1.7261 -1.1412
  482MOL0     H65070   8.975   3.654   8.311  1.3146 -1.3473 -1.3219
  483MOL0     O65071   8.820   9.400   4.785 -0.1009  0.0011  0.1803
  483MOL0     C65072   8.773   9.503   4.742 -0.5349 -0.3962 -0.0381
  483MOL0     O65073   8.818   9.568   4.627 -0.0844  0.0722  0.4116
  483MOL0     C65074   8.938   9.520   4.574  0.4978 -0.2216 -0.1678
  483MOL0     C65075   9.065   9.569   4.624  0.4875 -0.6712  0.8773
  483MOL0     C65076   9.183   9.528   4.556  0.1143  0.8610  0.5260
  483MOL0     C65077   9.182   9.442   4.445  1.0949  0.7440 -0.0498
  483MOL0     O65078   9.295   9.392   4.390  0.0051  0.5733  0.1253
  483MOL0     C65079   9.289   9.317   4.263 -0.2947  0.0190 -0.0536
  483MOL0     C65080   9.412   9.284   4.191  0.4600  0.8856  0.0216
  483MOL0     C65081   9.385   9.295   4.034 -0.5171 -0.2617 -0.3051
  483MOL0     C65082   9.516   9.260   3.969 -0.0220 -1.2817 -0.8978
  483MOL0     C65083   9.538   9.321   3.828  0.5998 -0.3411 -0.3395
  483MOL0     C65084   9.683   9.379   3.817  1.2222 -0.1483  0.3102
  483MOL0     C65085   9.711   9.458   3.691  0.2809  0.5399 -0.3578
  483MOL0     C65086   9.846   9.514   3.690  0.1390 -1.1485  0.4293
  483MOL0     N65087   9.953   9.420   3.702 -0.6104 -1.0533 -0.3152
  483MOL0     C65088  10.053   9.386   3.616 -0.4267  0.4806  0.6392
  483MOL0     C65089  10.135   9.298   3.679  0.0500 -0.1313  0.7930
  483MOL0     C65090  10.268   9.236   3.632  0.2100 -0.7895  0.2911
  483MOL0     C65091  10.334   9.308   3.517  0.3813  0.2191  0.2556
  483MOL0     C65092  10.465   9.250   3.475 -0.0089 -0.2045 -0.1026
  483MOL0     C65093  10.548   9.351   3.378 -0.7200 -0.6104 -0.1172
  483MOL0     O65094  10.586   9.473   3.440 -0.2365  0.1002 -1.0152
  483MOL0     C65095  10.709   9.519   3.387  0.5470 -0.4392 -0.5517
  483MOL0     C65096  10.710   9.599   3.276 -0.2066 -0.5396 -0.3705
  483MOL0     C65097  10.827   9.650   3.223  0.3486  0.2510  1.0549
  483MOL0     C65098  10.814   9.743   3.109  0.4804  0.2118 -0.5783
  483MOL0     C65099  10.950   9.610   3.265 -0.1110  0.8397 -0.1046
  483MOL0     C65100  11.077   9.653   3.211 -0.3851 -1.0746 -0.0210
  483MOL0     O65101  11.170   9.708   3.302  0.5462  0.0748 -0.0768
  483MOL0     C65102  11.264   9.789   3.254 -0.0841 -0.1274 -0.2309
  483MOL0     C65103  11.275   9.847   3.130 -0.3926  0.5130 -0.2703
  483MOL0     C65104  11.367   9.956   3.105 -0.9662  0.0767 -0.6200
  483MOL0     C65105  11.462   9.996   3.204  0.4204  0.2241  0.0596
  483MOL0     O65106  11.551  10.097   3.193 -0.5346  0.9099 -0.5705
  483MOL0     C65107  11.679  10.091   3.258  0.4441  0.1575  0.8825
  483MOL0     C65108  11.769  10.181   3.170  0.8118 -0.4114  0.5327
  483MOL0     C65109  11.739  10.329   3.170  0.3917 -0.5978 -0.7583
  483MOL0     C65110  11.747  10.394   3.312  0.2999  0.8387  0.3370
  483MOL0     C65111  11.736  10.546   3.297  0.4214 -0.4520 -0.0292
  483MOL0     C65112  11.729  10.637   3.429  0.5270  0.2201 -0.2160
  483MOL0     C65113  11.679  10.789   3.412 -0.2245  0.2572  0.1105
  483MOL0     C65114  11.753  10.865   3.295 -0.2820 -0.3816 -0.2912
  483MOL0    Cl65115  11.706  11.038   3.326 -0.0591 -0.3450 -0.4555
  483MOL0     C65116  11.462   9.912   3.318  0.1843  0.3666  0.9414
  483MOL0     C65117  11.362   9.815   3.344  0.9201  0.2616  0.4183
  483MOL0     O65118  11.107   9.624   3.097 -0.5246  0.2759 -0.3836
  483MOL0     C65119  10.948   9.524   3.372  0.6225  0.3921 -0.5643
  483MOL0     C65120  10.832   9.482   3.441  0.6741 -0.3558 -0.4228
  483MOL0     N65121  10.085   9.276   3.806 -0.8428 -0.5748 -0.5184
  483MOL0     N65122   9.979   9.348   3.816 -0.0402  0.1056  0.0317
  483MOL0     C65123   9.051   9.398   4.398 -0.0459 -0.3138  0.1404
  483MOL0     C65124   8.941   9.435   4.466 -0.0258  0.1692  0.4234
  483MOL0     C65125   8.669   9.561   4.817  0.5937  0.4368 -0.6402
  483MOL0     C65126   8.639   9.532   4.952  0.5986  0.4104 -0.7604
  483MOL0     C65127   8.522   9.593   5.007  0.3203 -0.0847 -0.4315
  483MOL0     C65128   8.447   9.696   4.932  0.0832  1.2676  0.0025
  483MOL0     O65129   8.340   9.751   4.994 -0.1691  0.7002  0.4273
  483MOL0     C65130   8.219   9.749   4.922  0.0753 -0.0829  0.2131
  483MOL0     C65131   8.122   9.823   5.009 -0.3572 -0.3485 -0.4838
  483MOL0     C65132   8.143   9.974   5.015 -0.5056  0.8286 -0.9451
  483MOL0     C65133   8.049  10.047   5.111 -0.4525 -0.1326 -1.3196
  483MOL0     C65134   7.915  10.052   5.043  0.4397  0.5955  0.4976
  483MOL0     C65135   7.798  10.050   4.996 -0.8889  0.3421  0.3120
  483MOL0     C65136   8.478   9.704   4.800 -0.1708 -0.2714  0.5424
  483MOL0     C65137   8.584   9.639   4.743 -0.2998 -0.2715 -0.2356
  483MOL0     H65138   9.063   9.638   4.708 -0.7805 -2.5529  2.4818
  483MOL0     H65139   9.280   9.555   4.597 -0.6962  3.0097  1.1712
  483MOL0     H65140   9.234   9.225   4.284  0.0731 -0.4432 -1.0464
  483MOL0     H65141   9.234   9.381   4.193 -0.7967 -1.7441 -1.3250
  483MOL0     H65142   9.494   9.345   4.230 -0.5087  2.6913 -0.6490
  483MOL0     H65143   9.438   9.181   4.217  0.6868  1.5596  2.7481
  483MOL0     H65144   9.306   9.226   4.004 -0.7879  0.3887 -1.1256
  483MOL0     H65145   9.378   9.401   4.009 -0.7101  0.3329  1.9855
  483MOL0     H65146   9.600   9.290   4.032  1.4652 -2.6018 -2.1617
  483MOL0     H65147   9.524   9.153   3.948 -0.7010 -1.5830  0.3164
  483MOL0     H65148   9.515   9.243   3.755 -4.8604 -0.5666  1.2336
  483MOL0     H65149   9.466   9.401   3.808 -0.2921 -0.5795  1.7075
  483MOL0     H65150   9.697   9.436   3.909  0.5900  0.0852  0.2673
  483MOL0     H65151   9.754   9.297   3.832 -0.1577 -0.9192  3.4145
  483MOL0     H65152   9.690   9.397   3.603 -1.0882 -0.7813  0.8169
  483MOL0     H65153   9.642   9.543   3.692  0.3356  0.5887  1.1321
  483MOL0     H65154   9.848   9.584   3.774  0.4744 -1.0777  0.3606
  483MOL0     H65155   9.860   9.578   3.602 -1.1602 -2.3469 -0.6994
  483MOL0     H65156  10.075   9.428   3.518  0.2128  0.3533  0.7240
  483MOL0     H65157  10.335   9.251   3.718  1.8562  2.2511 -1.3645
  483MOL0     H65158  10.244   9.136   3.594 -3.1541 -0.7357  1.9122
  483MOL0     H65159  10.355   9.411   3.548 -1.5515  0.2375  1.7081
  483MOL0     H65160  10.276   9.304   3.424  0.7210 -1.2051  0.0843
  483MOL0     H65161  10.451   9.154   3.424  0.3829 -0.9097  1.0751
  483MOL0     H65162  10.535   9.233   3.557  2.2974  2.2812 -1.4168
  483MOL0     H65163  10.490   9.383   3.290  0.1464 -3.3644 -1.8135
  483MOL0     H65164  10.635   9.301   3.335 -1.1655  1.7577 -4.3808
  483MOL0     H65165  10.615   9.631   3.235 -2.6163 -1.9628  3.5549
  483MOL0     H65166  10.772   9.682   3.029 -2.1629 -0.3178  1.0739
  483MOL0     H65167  10.743   9.822   3.136 -0.7028 -1.0263  0.0204
  483MOL0     H65168  10.915   9.777   3.087  0.8383 -0.5721 -0.1788
  483MOL0     H65169  11.224   9.816   3.039  1.1020 -0.1870 -0.8976
  483MOL0     H65170  11.370   9.995   3.004  1.6056 -2.2495 -1.5562
  483MOL0     H65171  11.661  10.144   3.352 -0.0282  1.2441  0.2066
  483MOL0     H65172  11.727   9.994   3.270 -1.5737 -0.8743  0.9713
  483MOL0     H65173  11.870  10.180   3.210  1.1725 -1.7308 -0.3561
  483MOL0     H65174  11.769  10.143   3.068 -0.4698 -2.2286  1.1504
  483MOL0     H65175  11.641  10.361   3.134 -0.4524  0.2499  1.9823
  483MOL0     H65176  11.812  10.367   3.098  0.1987 -0.1837 -0.7367
  483MOL0     H65177  11.663  10.358   3.371  0.2501  1.7696  0.8441
  483MOL0     H65178  11.837  10.358   3.362 -0.7924 -2.5505  0.1210
  483MOL0     H65179  11.641  10.549   3.242  0.4342 -4.1439 -0.4742
  483MOL0     H65180  11.820  10.592   3.244  1.4274 -2.6387 -0.4214
  483MOL0     H65181  11.658  10.582   3.491  1.8341 -1.9014 -0.5035
  483MOL0     H65182  11.827  10.645   3.476 -0.0146 -0.3116  1.0410
  483MOL0     H65183  11.685  10.850   3.503 -1.0650  2.9788 -1.5297
  483MOL0     H65184  11.573  10.793   3.387 -0.1673 -0.1531 -0.2164
  483MOL0     H65185  11.717  10.830   3.198 -2.0002 -4.0310  1.4767
  483MOL0     H65186  11.862  10.857   3.307 -0.1589  0.5514 -0.6786
  483MOL0     H65187  11.525   9.928   3.404  0.5968 -1.7425  1.0827
  483MOL0     H65188  11.377   9.760   3.437 -0.2735 -0.6589  0.0887
  483MOL0     H65189  11.048   9.497   3.404  0.9357  0.2511 -1.6008
  483MOL0     H65190  10.832   9.400   3.513  2.1169 -2.0910 -2.2744
  483MOL0     H65191   9.042   9.327   4.316 -2.5037  0.5625 -0.4497
  483MOL0     H65192   8.849   9.410   4.414  1.0503 -1.2506 -0.8871
  483MOL0     H65193   8.706   9.472   5.013 -0.6641  1.2430  1.6098
  483MOL0     H65194   8.491   9.587   5.111 -1.8056  1.2225 -0.9368
  483MOL0     H65195   8.232   9.799   4.825 -1.9050 -0.3042 -0.2077
  483MOL0     H65196   8.189   9.646   4.899 -4.2908  0.7774  1.1470
  483MOL0     H65197   8.121   9.788   5.113  1.6337  1.5276  0.2435
  483MOL0     H65198   8.023   9.816   4.962  0.0443  0.8034 -1.5566
  483MOL0     H65199   8.132  10.005   4.911 -1.3099 -3.1135 -2.2094
  483MOL0     H65200   8.244  10.009   5.040 -0.5535  0.0296  0.4915
  483MOL0     H65201   8.084  10.149   5.126  0.2292 -0.5126 -0.2299
  483MOL0     H65202   8.052  10.010   5.214  2.3368  2.0811 -0.4644
  483MOL0     H65203   7.696  10.026   4.971 -2.0794 -4.2056  6.8403
  483MOL0     H65204   8.429   9.773   4.733  2.9052  1.7482  0.1210
  483MOL0     H65205   8.594   9.642   4.634 -1.2935 -0.2150 -0.3337
  484MOL0     O65206   0.003   2.232   8.880  0.6260 -0.7696 -0.3827
  484MOL0     C65207   0.081   2.259   8.794 -0.7371  0.1783  0.1306
  484MOL0     O65208   0.091   2.369   8.712  0.3981 -0.4017  0.2083
  484MOL0     C65209   0.013   2.478   8.700  0.4229  0.8433  0.5842
  484MOL0     C65210   0.066   2.585   8.635  0.9271  1.0385 -0.6857
  484MOL0     C65211   0.000   2.702   8.604 -0.8690 -0.4127 -0.0796
  484MOL0     C65212  -0.133   2.704   8.629  1.1183 -1.0086  0.4778
  484MOL0     O65213  -0.196   2.825   8.596 -0.4196 -0.2682 -0.1830
  484MOL0     C65214  -0.327   2.809   8.531 -0.0943  0.4297  0.5387
  484MOL0     C65215  -0.358   2.945   8.475  0.5173  0.7555  0.0978
  484MOL0     C65216  -0.510   2.952   8.473  0.7963  1.0550 -0.0059
  484MOL0     C65217  -0.570   3.082   8.447 -0.9186  0.5070 -1.2071
  484MOL0     C65218  -0.592   3.168   8.574 -0.3638  0.4448  0.4339
  484MOL0     C65219  -0.731   3.142   8.633 -0.2352 -0.1752 -0.3774
  484MOL0     C65220  -0.792   3.248   8.732 -0.3057  0.9054  0.0625
  484MOL0     C65221  -0.938   3.227   8.764  0.6036  0.7965 -0.5694
  484MOL0     N65222  -0.952   3.135   8.880 -0.2728 -1.2726 -0.0680
  484MOL0     C65223  -0.999   3.172   9.003 -0.7067 -0.6318  0.0983
  484MOL0     C65224  -1.030   3.062   9.076  0.0219  0.2868  0.6452
  484MOL0     C65225  -1.077   3.062   9.222  0.2634 -0.3526 -1.0768
  484MOL0     C65226  -0.949   3.093   9.312  0.6799 -0.2572  0.3253
  484MOL0     C65227  -0.828   3.000   9.299  0.0404 -0.2811 -1.5674
  484MOL0     C65228  -0.720   3.054   9.397 -0.4569  0.3336 -0.6146
  484MOL0     O65229  -0.653   2.935   9.459 -0.8351  0.4019  1.2346
  484MOL0     C65230  -0.562   2.958   9.561 -0.4066  0.1358  0.9453
  484MOL0     C65231  -0.527   2.858   9.643 -0.5965  0.0682 -0.3239
  484MOL0     C65232  -0.444   2.874   9.762  0.4276  0.1581 -0.2294
  484MOL0     C65233  -0.427   2.753   9.853 -0.0672  0.0914 -1.2485
  484MOL0     C65234  -0.382   3.001   9.778  0.9657  0.8293  0.4265
  484MOL0     C65235  -0.299   3.030   9.891 -0.9053  0.7704  0.6838
  484MOL0     O65236  -0.320   3.142   9.968 -0.2710  0.1433 -0.5475
  484MOL0     C65237  -0.236   3.167  10.072  0.0859 -0.6289 -0.2640
  484MOL0     C65238  -0.124   3.251  10.055  0.4744  0.4711 -0.7399
  484MOL0     C65239  -0.049   3.279  10.173  0.0683 -0.0352  0.2991
  484MOL0     C65240  -0.084   3.236  10.308  0.3637 -0.1446 -0.2585
  484MOL0     O65241  -0.018   3.262  10.432  1.2661  0.2781  0.0440
  484MOL0     C65242   0.086   3.360  10.438  0.4436 -0.3972  0.0166
  484MOL0     C65243   0.023   3.505  10.448 -0.2006 -0.4455 -0.1698
  484MOL0     C65244   0.139   3.607  10.472  0.2944  0.9126  0.7004
  484MOL0     C65245   0.087   3.747  10.465  0.1105  0.0980  0.2477
  484MOL0     C65246   0.075   3.797  10.607 -0.1943  0.1440  0.3469
  484MOL0     C65247   0.000   3.932  10.625  0.1679  0.5219 -0.2409
  484MOL0     C65248  -0.147   3.911  10.664 -0.8097  0.2403  1.4649
  484MOL0     C65249  -0.171   3.872  10.807 -0.4036  0.5985 -0.6281
  484MOL0    Cl65250  -0.350   3.853  10.825  0.5123  0.4030 -0.5742
  484MOL0     C65251  -0.200   3.158  10.315 -0.2916  1.1216  0.6930
  484MOL0     C65252  -0.268   3.119  10.201 -0.0356 -0.0130 -0.3453
  484MOL0     O65253  -0.208   2.947   9.915  0.3622 -0.1199 -0.1536
  484MOL0     C65254  -0.428   3.104   9.704  0.4281  0.2054 -0.8872
  484MOL0     C65255  -0.514   3.075   9.596  0.8938 -1.5684 -0.3709
  484MOL0     N65256  -1.005   2.956   8.989 -0.3306  0.0809  0.0268
  484MOL0     N65257  -0.966   3.000   8.873 -0.0270  0.8027 -0.4651
  484MOL0     C65258  -0.204   2.600   8.688  0.0082  1.2947  0.3151
  484MOL0     C65259  -0.125   2.485   8.737  0.4061  0.3146 -0.0055
  484MOL0     C65260   0.179   2.156   8.772  0.5497 -0.5109  0.8205
  484MOL0     C65261   0.235   2.134   8.646  0.4370 -0.8859 -0.3518
  484MOL0     C65262   0.317   2.021   8.636  0.3092  0.8547 -0.2983
  484MOL0     C65263   0.338   1.930   8.740 -0.7008  0.2921 -0.2503
  484MOL0     O65264   0.420   1.821   8.709  0.4802 -0.1794 -0.7120
  484MOL0     C65265   0.431   1.730   8.827  0.0416  0.3777 -0.7024
  484MOL0     C65266   0.511   1.604   8.793 -0.8928  0.6330 -0.3651
  484MOL0     C65267   0.626   1.612   8.696 -1.0638 -0.3626  0.8149
  484MOL0     C65268   0.744   1.515   8.734  0.4540 -0.2860 -0.3190
  484MOL0     C65269   0.717   1.379   8.686  0.1197  0.4366 -0.4379
  484MOL0     C65270   0.695   1.265   8.661  0.1393 -0.3226 -0.4569
  484MOL0     C65271   0.287   1.955   8.863 -0.2970 -0.1791  0.2164
  484MOL0     C65272   0.211   2.062   8.873  1.4474 -1.7315  0.1247
  484MOL0     H65273   0.170   2.583   8.602  0.7901  1.7699 -1.1969
  484MOL0     H65274   0.055   2.786   8.562  1.2355 -1.7702 -0.1761
  484MOL0     H65275  -0.334   2.729   8.456  0.8035  3.8221 -3.5521
  484MOL0     H65276  -0.403   2.788   8.607 -1.7670 -1.6346 -1.5499
  484MOL0     H65277  -0.302   3.025   8.524 -0.2411  1.9165 -0.8461
  484MOL0     H65278  -0.331   2.945   8.369 -1.0239  2.5794 -0.3679
  484MOL0     H65279  -0.552   2.892   8.392  1.6237  1.3766 -0.6795
  484MOL0     H65280  -0.562   2.913   8.561 -0.7165  0.7878 -0.9735
  484MOL0     H65281  -0.503   3.131   8.375  0.6915 -0.6486 -0.5358
  484MOL0     H65282  -0.666   3.070   8.394 -3.0197 -0.4881  2.4725
  484MOL0     H65283  -0.517   3.156   8.652  1.9914  3.2141 -1.2247
  484MOL0     H65284  -0.598   3.271   8.538 -3.2822  0.1494 -0.2226
  484MOL0     H65285  -0.799   3.154   8.549  1.1099  2.3208 -1.2199
  484MOL0     H65286  -0.730   3.040   8.672  2.4055 -0.1996 -0.3167
  484MOL0     H65287  -0.738   3.266   8.826 -0.9713  4.0917 -0.0551
  484MOL0     H65288  -0.783   3.337   8.670 -0.7537  0.4978 -0.6013
  484MOL0     H65289  -0.983   3.176   8.679 -3.3790  0.5041  1.4424
  484MOL0     H65290  -0.981   3.326   8.782  2.9168  1.6309  0.8532
  484MOL0     H65291  -0.994   3.272   9.045 -1.0117  0.2076 -1.7861
  484MOL0     H65292  -1.151   3.140   9.243  1.1869  0.0825  0.8329
  484MOL0     H65293  -1.119   2.964   9.247  0.3925 -0.4553 -1.2696
  484MOL0     H65294  -0.967   3.116   9.417  2.7742 -1.9595  1.1147
  484MOL0     H65295  -0.922   3.190   9.269 -1.2149 -0.4731 -1.5512
  484MOL0     H65296  -0.788   3.004   9.197  0.9378  2.5252 -1.1902
  484MOL0     H65297  -0.869   2.900   9.318 -1.4376  0.5664  0.0075
  484MOL0     H65298  -0.759   3.114   9.481 -0.1206 -0.6273  0.2491
  484MOL0     H65299  -0.640   3.108   9.346 -0.1705 -1.0736 -1.7033
  484MOL0     H65300  -0.575   2.762   9.625 -2.9574  0.8692  1.1999
  484MOL0     H65301  -0.467   2.658   9.818  1.1776 -0.7334 -0.5082
  484MOL0     H65302  -0.319   2.741   9.864  0.8046  2.5186 -5.3422
  484MOL0     H65303  -0.477   2.783   9.946  0.7442  0.3921 -0.8971
  484MOL0     H65304  -0.103   3.293   9.957 -0.5741  1.1390 -0.7004
  484MOL0     H65305   0.047   3.327  10.158 -0.8616  2.4023  1.5729
  484MOL0     H65306   0.153   3.339  10.522 -0.2079 -1.8828  0.2040
  484MOL0     H65307   0.136   3.346  10.342 -1.8929 -1.1274 -1.1677
  484MOL0     H65308  -0.029   3.532  10.356 -1.5798 -0.9480  0.4238
  484MOL0     H65309  -0.053   3.507  10.528 -0.0625 -1.1921 -0.0086
  484MOL0     H65310   0.217   3.594  10.395  0.4175 -5.3818  1.3888
  484MOL0     H65311   0.188   3.586  10.567 -0.7510 -0.9417  0.8734
  484MOL0     H65312   0.152   3.816  10.410 -3.2396  2.5117 -1.0127
  484MOL0     H65313  -0.010   3.754  10.415 -1.5091 -0.6337  3.0821
  484MOL0     H65314   0.171   3.800  10.658  0.4836  0.4628 -0.9075
  484MOL0     H65315   0.019   3.715  10.654  3.2248 -2.1640  0.7383
  484MOL0     H65316   0.045   3.997  10.700 -1.3753  1.1334  0.1877
  484MOL0     H65317   0.005   3.991  10.533  1.3225  0.5485 -0.1812
  484MOL0     H65318  -0.197   3.837  10.600  0.4613  3.6311 -4.1551
  484MOL0     H65319  -0.198   4.007  10.648 -0.8625  0.3987  2.5392
  484MOL0     H65320  -0.128   3.956  10.863 -1.7483  0.7609  0.1977
  484MOL0     H65321  -0.126   3.773  10.824  0.2497  0.9925  0.0065
  484MOL0     H65322  -0.223   3.139  10.419 -0.8466  1.9724  0.7337
  484MOL0     H65323  -0.364   3.073  10.220 -0.8168  1.8458  0.4982
  484MOL0     H65324  -0.398   3.207   9.721  3.4262 -0.6193 -0.5625
  484MOL0     H65325  -0.553   3.164   9.548 -0.7097 -1.8962  0.2403
  484MOL0     H65326  -0.310   2.613   8.710 -1.5398 -0.5028 -4.5828
  484MOL0     H65327  -0.183   2.408   8.788  0.4018  0.7888  0.7296
  484MOL0     H65328   0.211   2.198   8.562  0.4257 -1.5783 -0.8792
  484MOL0     H65329   0.375   2.000   8.547  2.7589  2.8442  0.7357
  484MOL0     H65330   0.486   1.777   8.910  0.3306 -0.7880 -0.2218
  484MOL0     H65331   0.334   1.685   8.854 -0.3994 -0.2101 -3.0528
  484MOL0     H65332   0.440   1.532   8.751  1.1600 -0.8134 -1.5494
  484MOL0     H65333   0.549   1.563   8.887 -2.1251  1.1547  0.3953
  484MOL0     H65334   0.666   1.714   8.691  1.3795 -1.2629  0.7419
  484MOL0     H65335   0.590   1.581   8.598 -1.3629 -0.0877  0.8350
  484MOL0     H65336   0.766   1.528   8.840 -1.7798 -1.6432  0.3799
  484MOL0     H65337   0.839   1.549   8.692  0.5148  1.8875  1.3680
  484MOL0     H65338   0.679   1.166   8.621  1.2522 -0.1759 -1.3168
  484MOL0     H65339   0.306   1.904   8.957 -1.8909  1.0907  1.2599
  484MOL0     H65340   0.153   2.082   8.963 -1.3063  1.9941 -2.1971
  485MOL0     O65341   6.704   9.408   3.651  0.1503  0.9522 -0.3752
  485MOL0     C65342   6.679   9.389   3.532  0.2312 -0.2688 -0.6738
  485MOL0     O65343   6.730   9.281   3.461 -0.6809  0.1453 -0.8183
  485MOL0     C65344   6.821   9.197   3.514 -1.1778 -0.2351 -0.3098
  485MOL0     C65345   6.806   9.062   3.481 -0.3318  0.8196 -0.8420
  485MOL0     C65346   6.899   8.957   3.515  0.3421 -0.6733 -0.2411
  485MOL0     C65347   7.012   8.997   3.584  1.0247 -0.7243  0.2235
  485MOL0     O65348   7.122   8.918   3.613 -0.0536  0.6666  0.6904
  485MOL0     C65349   7.129   8.786   3.548 -0.1416  0.0820 -0.1347
  485MOL0     C65350   7.269   8.724   3.571 -0.6282  0.5745  0.2819
  485MOL0     C65351   7.311   8.694   3.714 -0.2410  1.0868 -0.2063
  485MOL0     C65352   7.454   8.657   3.737 -0.9433  0.6574  0.8265
  485MOL0     C65353   7.491   8.627   3.893  0.2129 -0.1430  0.1985
  485MOL0     C65354   7.473   8.484   3.942  0.1192 -0.1154  0.4151
  485MOL0     C65355   7.526   8.466   4.081 -0.6875  0.6122 -0.3624
  485MOL0     C65356   7.481   8.345   4.160  0.4977 -0.7251  0.1460
  485MOL0     N65357   7.555   8.320   4.287  0.2369  0.0971 -0.6861
  485MOL0     C65358   7.689   8.263   4.291  0.5286  0.8898 -0.2293
  485MOL0     C65359   7.715   8.261   4.425 -0.6888  0.2414  0.0540
  485MOL0     C65360   7.852   8.252   4.476 -0.6766 -0.2856 -0.8680
  485MOL0     C65361   7.912   8.111   4.469 -0.3669 -0.8179  1.0746
  485MOL0     C65362   8.045   8.097   4.550  0.1144 -0.2263 -0.6347
  485MOL0     C65363   8.101   7.960   4.547  0.2747  0.1902  0.2245
  485MOL0     O65364   8.222   7.953   4.627 -0.0045 -0.4576  0.0703
  485MOL0     C65365   8.274   7.833   4.674 -0.5776  0.6811  0.7067
  485MOL0     C65366   8.402   7.836   4.739 -0.8083 -0.1425 -0.9375
  485MOL0     C65367   8.466   7.730   4.794 -0.0872  0.6059 -0.1414
  485MOL0     C65368   8.605   7.749   4.858  0.5429 -0.5141  0.4082
  485MOL0     C65369   8.419   7.599   4.774  0.1784 -0.1550  0.8127
  485MOL0     C65370   8.475   7.477   4.820  0.4941 -0.3058 -0.6559
  485MOL0     O65371   8.536   7.397   4.726 -1.1007  0.0805  0.4196
  485MOL0     C65372   8.561   7.272   4.765  0.9459 -0.2936 -0.5588
  485MOL0     C65373   8.686   7.245   4.812 -0.2043  0.6797  0.4845
  485MOL0     C65374   8.702   7.112   4.868  0.5888 -0.5109  0.1388
  485MOL0     C65375   8.618   7.004   4.850  0.0901  0.9907  0.3639
  485MOL0     O65376   8.662   6.879   4.874 -0.2489 -0.0897  0.9773
  485MOL0     C65377   8.588   6.777   4.927 -0.5002  0.2350  0.6093
  485MOL0     C65378   8.681   6.659   4.968  0.3603 -0.3562  0.2130
  485MOL0     C65379   8.654   6.613   5.117 -0.7365  0.3354 -0.4323
  485MOL0     C65380   8.749   6.494   5.151 -0.6223 -0.7437  0.0218
  485MOL0     C65381   8.718   6.393   5.264  0.8308  0.3697 -0.8639
  485MOL0     C65382   8.683   6.454   5.400 -0.2394  0.1718 -0.1919
  485MOL0     C65383   8.689   6.355   5.511  0.2251 -0.2498  0.2475
  485MOL0     C65384   8.665   6.416   5.650  0.2692 -0.3998 -0.0453
  485MOL0    Cl65385   8.804   6.516   5.696 -0.2202 -0.2564  0.5176
  485MOL0     C65386   8.492   7.037   4.794 -0.7486  0.2532 -0.0859
  485MOL0     C65387   8.465   7.168   4.748 -0.3170  0.1633  0.4974
  485MOL0     O65388   8.492   7.470   4.941  0.0089 -0.1044  0.0359
  485MOL0     C65389   8.298   7.597   4.692 -0.5139  0.3440 -0.2471
  485MOL0     C65390   8.228   7.705   4.646  0.1812 -0.9121  0.0852
  485MOL0     N65391   7.602   8.310   4.489 -0.4005  0.3945 -0.0372
  485MOL0     N65392   7.508   8.341   4.410  0.0741 -0.0818 -0.3176
  485MOL0     C65393   7.018   9.135   3.630  0.0067  0.2538 -0.7865
  485MOL0     C65394   6.933   9.234   3.592  0.2636  0.3751  0.1084
  485MOL0     C65395   6.593   9.481   3.450 -0.4506  0.7819  0.6495
  485MOL0     C65396   6.525   9.594   3.511  0.1146  1.2727 -0.2167
  485MOL0     C65397   6.434   9.671   3.452  0.7174  0.1988  0.1742
  485MOL0     C65398   6.401   9.638   3.310 -0.7462 -0.3439 -0.2740
  485MOL0     O65399   6.294   9.688   3.238  0.4453  0.0016  0.0847
  485MOL0     C65400   6.236   9.815   3.262  0.1467  1.2194 -0.4277
  485MOL0     C65401   6.335   9.919   3.198  0.1861  0.2556 -0.4761
  485MOL0     C65402   6.436   9.970   3.311 -0.1222  0.9578 -0.3021
  485MOL0     C65403   6.508  10.099   3.255  0.4072  0.0084  0.4954
  485MOL0     C65404   6.424  10.212   3.223  0.5717 -0.8111 -0.1825
  485MOL0     C65405   6.353  10.313   3.187  0.5647  0.2648 -0.7220
  485MOL0     C65406   6.460   9.531   3.253  0.0142  1.3606  1.7751
  485MOL0     C65407   6.562   9.460   3.316 -0.2997  0.6198 -0.7301
  485MOL0     H65408   6.720   9.026   3.426 -0.8333  2.2029 -0.9890
  485MOL0     H65409   6.884   8.858   3.473 -0.3564 -0.7679  0.2162
  485MOL0     H65410   7.048   8.725   3.589  0.4141 -0.2257  0.5226
  485MOL0     H65411   7.113   8.802   3.441 -2.2414 -2.3380 -0.2661
  485MOL0     H65412   7.260   8.628   3.518 -0.0679  0.8415 -0.3070
  485MOL0     H65413   7.344   8.785   3.520  0.8854 -1.1781  0.3238
  485MOL0     H65414   7.287   8.770   3.788 -3.8094  1.1865 -1.2374
  485MOL0     H65415   7.263   8.598   3.738  4.9657 -1.8938 -0.2039
  485MOL0     H65416   7.483   8.563   3.690 -1.0320 -0.5670  3.0772
  485MOL0     H65417   7.521   8.731   3.690 -1.1268 -0.6020 -1.5905
  485MOL0     H65418   7.597   8.653   3.898 -0.2694  2.5355 -1.5640
  485MOL0     H65419   7.438   8.700   3.954 -0.0230 -0.2228  0.0917
  485MOL0     H65420   7.366   8.475   3.960  0.6935 -3.6571  3.1182
  485MOL0     H65421   7.508   8.408   3.870  0.8016 -0.1957  0.8165
  485MOL0     H65422   7.632   8.454   4.058 -0.5761 -2.5798  1.2338
  485MOL0     H65423   7.512   8.551   4.148 -2.1430 -1.9964  2.9598
  485MOL0     H65424   7.502   8.252   4.106 -3.4911 -2.6798  1.5322
  485MOL0     H65425   7.374   8.343   4.184  0.8779 -1.7682  1.9102
  485MOL0     H65426   7.763   8.238   4.215 -0.6305  1.1465 -1.4706
  485MOL0     H65427   7.927   8.325   4.445  0.9846 -1.2279  0.7402
  485MOL0     H65428   7.839   8.252   4.584  1.7490 -0.0679 -0.5170
  485MOL0     H65429   7.919   8.066   4.370 -0.7080  0.8037  0.2795
  485MOL0     H65430   7.844   8.047   4.527  1.2946 -1.7359  2.0708
  485MOL0     H65431   8.026   8.122   4.654 -1.3369 -1.5730 -0.5501
  485MOL0     H65432   8.111   8.172   4.505 -1.5022  1.1668 -0.7830
  485MOL0     H65433   8.117   7.930   4.444  1.1429 -1.0558  0.7018
  485MOL0     H65434   8.027   7.899   4.600 -0.0395  2.2504  2.3143
  485MOL0     H65435   8.447   7.934   4.754  1.4383 -1.3742  1.0587
  485MOL0     H65436   8.608   7.833   4.927 -1.0855 -0.1704  0.1063
  485MOL0     H65437   8.635   7.667   4.923  2.7807  1.5952  2.1958
  485MOL0     H65438   8.679   7.763   4.780 -0.1573 -0.4137 -0.2531
  485MOL0     H65439   8.756   7.328   4.814 -2.2727  2.5451 -0.0308
  485MOL0     H65440   8.794   7.077   4.913  0.6806 -1.2518 -0.5895
  485MOL0     H65441   8.533   6.824   5.009 -1.4939 -2.2894  1.4677
  485MOL0     H65442   8.503   6.749   4.864 -0.9255  2.0267  0.3259
  485MOL0     H65443   8.665   6.574   4.902 -1.9248  0.5892 -0.5607
  485MOL0     H65444   8.786   6.680   4.946  0.1465 -0.0598 -0.5425
  485MOL0     H65445   8.548   6.588   5.116 -0.2100 -2.2532 -2.2699
  485MOL0     H65446   8.668   6.698   5.184 -0.5707  1.2837 -1.6217
  485MOL0     H65447   8.765   6.427   5.065  2.9898 -1.6221  1.2014
  485MOL0     H65448   8.846   6.543   5.159  0.1040 -2.3612  2.0048
  485MOL0     H65449   8.799   6.322   5.280  0.3851  0.2410  1.0584
  485MOL0     H65450   8.627   6.336   5.242  2.1205 -1.0516 -2.8826
  485MOL0     H65451   8.762   6.528   5.414 -1.0935  0.8314  1.4465
  485MOL0     H65452   8.581   6.496   5.398 -0.5577 -0.4402  1.4111
  485MOL0     H65453   8.788   6.309   5.505 -0.4684 -1.9541  1.0600
  485MOL0     H65454   8.611   6.279   5.496  0.6395 -0.4307 -1.0832
  485MOL0     H65455   8.642   6.333   5.718 -2.2240  1.6081  1.7520
  485MOL0     H65456   8.568   6.464   5.656 -1.0473 -2.9502  0.4787
  485MOL0     H65457   8.432   6.950   4.771  1.2061 -2.1543  2.9767
  485MOL0     H65458   8.368   7.200   4.711  0.1782  0.1393 -0.8908
  485MOL0     H65459   8.252   7.503   4.663 -2.4029  1.6261 -1.6598
  485MOL0     H65460   8.145   7.689   4.577  0.3901 -0.1320 -0.3650
  485MOL0     H65461   7.096   9.175   3.694  0.3123 -1.0939 -0.2618
  485MOL0     H65462   6.934   9.333   3.638  0.1733 -0.4119  1.8723
  485MOL0     H65463   6.548   9.627   3.611 -0.2779 -1.0549  0.7055
  485MOL0     H65464   6.376   9.752   3.496  1.1309  2.2378 -2.7214
  485MOL0     H65465   6.141   9.815   3.208 -0.8269  0.7038  1.2081
  485MOL0     H65466   6.220   9.838   3.367  0.3322  2.1568 -0.6004
  485MOL0     H65467   6.276  10.008   3.173 -3.2008 -1.8523 -0.6353
  485MOL0     H65468   6.382   9.877   3.109 -0.3718 -2.1637  0.2957
  485MOL0     H65469   6.513   9.894   3.326 -0.3575  0.7506 -0.1315
  485MOL0     H65470   6.373   9.977   3.400 -0.7726 -0.5824 -0.6001
  485MOL0     H65471   6.556  10.066   3.162  1.0508 -2.7921  1.7165
  485MOL0     H65472   6.585  10.122   3.329  2.1383 -0.2151 -1.1684
  485MOL0     H65473   6.292  10.397   3.162  0.5078 -0.4991 -3.5757
  485MOL0     H65474   6.426   9.498   3.155 -2.1680  2.4542  2.1047
  485MOL0     H65475   6.601   9.367   3.277  0.6024  1.2065 -1.2748
  486MOL0     O65476   5.455  10.060   3.772  0.3339  0.3920  0.2074
  486MOL0     C65477   5.498   9.958   3.719  0.8054  0.4743 -1.3546
  486MOL0     O65478   5.606   9.882   3.776  0.4858 -0.1549 -0.5429
  486MOL0     C65479   5.642   9.898   3.910 -0.0233  0.7830 -0.6319
  486MOL0     C65480   5.778   9.875   3.934  0.2561  0.1175 -0.4903
  486MOL0     C65481   5.832   9.903   4.055 -0.0423 -0.2656 -0.8077
  486MOL0     C65482   5.756   9.930   4.162 -0.3287  0.6612  0.2231
  486MOL0     O65483   5.819   9.939   4.280 -0.0099 -0.1355  0.0292
  486MOL0     C65484   5.794  10.051   4.367 -0.2053  0.8641  0.4394
  486MOL0     C65485   5.879  10.026   4.497 -0.3578  0.1408  0.6930
  486MOL0     C65486   5.853  10.145   4.589  0.4668 -0.8968  0.5503
  486MOL0     C65487   5.941  10.138   4.711 -0.0294  0.1228  0.6185
  486MOL0     C65488   5.939  10.270   4.795  1.0011  0.1359  0.4401
  486MOL0     C65489   5.971  10.247   4.943  1.0640 -0.4682 -0.1933
  486MOL0     C65490   5.980  10.384   5.033  0.2604  0.0885  0.0319
  486MOL0     C65491   6.123  10.436   5.006 -0.2265  0.2822 -0.4520
  486MOL0     N65492   6.146  10.570   5.062  0.3507 -0.9462  0.0682
  486MOL0     C65493   6.054  10.662   5.111 -0.4468 -0.4116 -0.7661
  486MOL0     C65494   6.127  10.753   5.177  0.5268 -0.1758  0.0719
  486MOL0     C65495   6.058  10.871   5.253  0.3482  0.6783  0.4451
  486MOL0     C65496   5.922  10.845   5.314 -0.4218 -0.5554 -0.2255
  486MOL0     C65497   5.846  10.985   5.319  0.1510 -0.8613 -1.3077
  486MOL0     C65498   5.752  11.006   5.443  0.4777  0.1846  0.4515
  486MOL0     O65499   5.647  10.902   5.433 -0.1797  0.3414  0.0827
  486MOL0     C65500   5.551  10.927   5.528  0.0471 -0.5865  0.1278
  486MOL0     C65501   5.443  11.007   5.485  0.5892  0.1828  0.2664
  486MOL0     C65502   5.338  11.023   5.578  0.3438 -0.3140  0.1968
  486MOL0     C65503   5.226  11.106   5.527 -0.1958  0.2198 -0.3256
  486MOL0     C65504   5.332  10.952   5.702  0.2870 -0.3355 -0.8300
  486MOL0     C65505   5.207  10.960   5.788  0.0137  0.0811 -0.8100
  486MOL0     O65506   5.087  10.989   5.738  0.2193 -0.6620 -0.3174
  486MOL0     C65507   4.992  11.047   5.822 -0.3089 -0.4171 -0.4236
  486MOL0     C65508   4.861  10.996   5.807 -0.1897 -0.6868  0.6173
  486MOL0     C65509   4.754  11.068   5.854  1.0169 -0.0247 -0.5730
  486MOL0     C65510   4.771  11.191   5.920  0.1355 -0.0244  0.6559
  486MOL0     O65511   4.659  11.240   5.974  0.1948  0.3675  0.3767
  486MOL0     C65512   4.658  11.378   5.981  0.4449 -0.2223 -0.3771
  486MOL0     C65513   4.528  11.432   5.927  0.2327 -0.4949  0.1007
  486MOL0     C65514   4.459  11.558   5.981 -0.4265 -0.1095  0.7100
  486MOL0     C65515   4.418  11.555   6.129  0.3108  0.4155  0.3470
  486MOL0     C65516   4.343  11.671   6.162  0.7220  0.4685  0.3382
  486MOL0     C65517   4.304  11.654   6.309 -0.7423  0.1503  0.2562
  486MOL0     C65518   4.223  11.775   6.357 -0.0496  0.2649  0.2790
  486MOL0     C65519   4.172  11.763   6.493  0.1303  0.5388 -1.3898
  486MOL0    Cl65520   4.304  11.761   6.606  0.8185 -0.2675  0.5192
  486MOL0     C65521   4.901  11.240   5.934 -0.4211 -0.2154 -0.3056
  486MOL0     C65522   5.011  11.172   5.876 -0.6316  0.4373  0.3641
  486MOL0     O65523   5.224  10.947   5.908 -1.2408  0.3275 -0.7130
  486MOL0     C65524   5.440  10.880   5.747 -0.1327 -0.4049 -0.8919
  486MOL0     C65525   5.547  10.869   5.659  0.0840 -0.6477  0.2556
  486MOL0     N65526   6.258  10.725   5.165 -0.4111  0.2528  0.3990
  486MOL0     N65527   6.267  10.618   5.104 -0.0052 -0.4311 -0.4615
  486MOL0     C65528   5.612   9.944   4.143 -1.1902 -0.3114  1.2601
  486MOL0     C65529   5.559   9.932   4.016  0.6717  0.2225  0.0260
  486MOL0     C65530   5.427   9.919   3.591  1.0603  0.2519 -0.6343
  486MOL0     C65531   5.486   9.823   3.514 -0.5542 -0.2711 -0.2942
  486MOL0     C65532   5.430   9.778   3.393 -0.0733  0.1080  0.8015
  486MOL0     C65533   5.305   9.833   3.344 -0.5940 -0.2061  0.0665
  486MOL0     O65534   5.260   9.783   3.228  0.3689 -0.1945  0.0472
  486MOL0     C65535   5.165   9.863   3.148  0.9246  0.2493 -0.9975
  486MOL0     C65536   5.114   9.774   3.033 -0.6851 -0.3756 -0.3996
  486MOL0     C65537   5.240   9.731   2.950  0.4695 -0.2699 -0.2131
  486MOL0     C65538   5.188   9.708   2.807 -0.4368  0.3526  0.1984
  486MOL0     C65539   5.291   9.627   2.736  0.0488 -0.5851 -0.4922
  486MOL0     C65540   5.365   9.545   2.689  0.0323 -0.5770  0.3204
  486MOL0     C65541   5.254   9.937   3.422 -0.2878 -0.8642 -0.4607
  486MOL0     C65542   5.311   9.969   3.546  0.2692 -0.7616  0.3600
  486MOL0     H65543   5.828   9.842   3.844  1.2747 -0.8005  0.3857
  486MOL0     H65544   5.937   9.880   4.064  0.0386  0.5015  0.4466
  486MOL0     H65545   5.818  10.144   4.315  1.3649  0.3486  0.1964
  486MOL0     H65546   5.690  10.044   4.400  0.4423 -0.6982  2.3353
  486MOL0     H65547   5.852   9.928   4.537 -3.2177 -0.4384 -2.2396
  486MOL0     H65548   5.987  10.021   4.484 -0.2047 -2.3776  2.2316
  486MOL0     H65549   5.868  10.238   4.532  3.0624 -1.7380 -0.2962
  486MOL0     H65550   5.749  10.165   4.617  0.7785  1.9463  0.0165
  486MOL0     H65551   5.906  10.062   4.781 -3.1890 -0.6755 -1.5537
  486MOL0     H65552   6.044  10.124   4.678  0.3019  2.5835  0.4418
  486MOL0     H65553   6.006  10.346   4.753 -0.6843  0.9330 -0.9742
  486MOL0     H65554   5.840  10.316   4.787  0.2943 -1.6008 -2.1707
  486MOL0     H65555   5.889  10.192   4.990  0.6808 -2.1423 -2.6277
  486MOL0     H65556   6.065  10.190   4.943  1.4103  0.0492  1.2896
  486MOL0     H65557   5.903  10.451   4.994 -2.0098 -2.9922 -1.1975
  486MOL0     H65558   5.977  10.362   5.140 -0.6144 -3.0786 -0.5356
  486MOL0     H65559   6.152  10.433   4.900 -0.1075  2.2481 -0.5225
  486MOL0     H65560   6.200  10.378   5.058 -1.1330  1.4037  2.3193
  486MOL0     H65561   5.947  10.652   5.098 -0.3111  0.4770 -3.1021
  486MOL0     H65562   6.124  10.918   5.327  2.6403 -1.1895 -0.3000
  486MOL0     H65563   6.043  10.950   5.178 -3.9234  0.4394  0.7986
  486MOL0     H65564   5.949  10.813   5.414 -1.2875  2.6559  1.1627
  486MOL0     H65565   5.861  10.784   5.246 -0.1354 -1.0702 -0.0225
  486MOL0     H65566   5.794  11.019   5.229  1.8031  0.4727 -1.8108
  486MOL0     H65567   5.922  11.060   5.343 -1.7832  2.2425 -4.0118
  486MOL0     H65568   5.698  11.101   5.444  0.4975  0.2369 -1.2059
  486MOL0     H65569   5.799  10.993   5.541  0.0979  3.6540  1.2143
  486MOL0     H65570   5.451  11.056   5.389 -0.6494  2.7435  1.3721
  486MOL0     H65571   5.175  11.157   5.609  0.4171 -1.5392  1.2325
  486MOL0     H65572   5.256  11.179   5.451 -0.2014 -0.9364 -1.4727
  486MOL0     H65573   5.146  11.047   5.482 -0.6390  0.3904  0.2327
  486MOL0     H65574   4.856  10.901   5.755  0.8635 -0.2410 -0.3130
  486MOL0     H65575   4.659  11.017   5.851 -0.5926  2.6743  0.5350
  486MOL0     H65576   4.672  11.402   6.087 -0.9761  1.3029 -0.4903
  486MOL0     H65577   4.735  11.441   5.936 -1.6940  4.1604  1.4985
  486MOL0     H65578   4.548  11.458   5.823  0.2231 -5.9969 -1.5710
  486MOL0     H65579   4.452  11.353   5.931  2.4256 -2.7388 -0.4900
  486MOL0     H65580   4.370  11.579   5.921 -0.5843  0.0604  1.0033
  486MOL0     H65581   4.523  11.644   5.959  0.0289 -1.0273 -1.9106
  486MOL0     H65582   4.351  11.471   6.145  0.2239 -0.0744 -2.1155
  486MOL0     H65583   4.505  11.544   6.195 -0.9002  1.6362  2.2397
  486MOL0     H65584   4.255  11.689   6.100  0.2109 -2.1598  0.1927
  486MOL0     H65585   4.404  11.761   6.152 -0.4966  1.3987  1.0518
  486MOL0     H65586   4.245  11.564   6.331 -0.9474  0.7043  2.2087
  486MOL0     H65587   4.400  11.640   6.360 -0.0245 -2.5137 -1.6073
  486MOL0     H65588   4.145  11.794   6.283 -0.6122 -3.0466 -0.1440
  486MOL0     H65589   4.286  11.864   6.358  1.3367 -0.6752  0.2638
  486MOL0     H65590   4.126  11.665   6.509 -1.0805  1.2085 -0.6620
  486MOL0     H65591   4.093  11.837   6.512  0.6619  0.3546  2.0983
  486MOL0     H65592   4.917  11.343   5.966 -1.3873  1.2113 -3.9305
  486MOL0     H65593   5.101  11.232   5.874 -2.5068  3.4397 -1.6624
  486MOL0     H65594   5.440  10.833   5.845  3.8996  0.6635 -0.2232
  486MOL0     H65595   5.631  10.811   5.697  0.1602 -0.0711  0.9803
  486MOL0     H65596   5.562   9.964   4.237  3.5149  0.5798  3.9121
  486MOL0     H65597   5.451   9.939   4.005  0.4965 -0.4063  1.2092
  486MOL0     H65598   5.576   9.771   3.546 -1.2553 -1.8407 -0.7630
  486MOL0     H65599   5.477   9.696   3.340  1.5762  0.1089  2.1613
  486MOL0     H65600   5.080   9.869   3.216 -0.4775  3.4668 -2.8372
  486MOL0     H65601   5.192   9.967   3.127 -0.8053  1.7184  3.1257
  486MOL0     H65602   5.042   9.839   2.982 -0.1732  0.2874 -0.2873
  486MOL0     H65603   5.060   9.685   3.067 -0.9781 -0.5826 -1.3875
  486MOL0     H65604   5.293   9.646   2.994 -2.3449 -1.4880  1.0837
  486MOL0     H65605   5.307   9.816   2.937 -1.6768  1.7897  1.3658
  486MOL0     H65606   5.168   9.801   2.753 -3.6009  0.2349  0.9170
  486MOL0     H65607   5.095   9.651   2.797  1.9788 -3.7406 -1.2236
  486MOL0     H65608   5.416   9.467   2.636 -2.2622 -1.2497 -1.0417
  486MOL0     H65609   5.159   9.974   3.385  0.2936  0.7798 -0.3935
  486MOL0     H65610   5.262  10.049   3.601 -0.0714 -1.6760  1.4399
  487MOL0     O65611   0.400   9.829   3.448  0.0711 -0.4137  0.3775
  487MOL0     C65612   0.484   9.885   3.516  0.0614  0.0995  0.3206
  487MOL0     O65613   0.468   9.938   3.640 -0.6816 -0.1311 -0.1741
  487MOL0     C65614   0.346   9.967   3.687  0.7962 -0.9419  0.3285
  487MOL0     C65615   0.234   9.880   3.672  0.4600 -0.6650 -1.4644
  487MOL0     C65616   0.107   9.926   3.708 -0.3609  0.1360 -0.1029
  487MOL0     C65617   0.096  10.051   3.753  0.5908  0.4686 -0.5252
  487MOL0     O65618  -0.035  10.078   3.792  0.1279 -0.8460 -0.4713
  487MOL0     C65619  -0.153  10.046   3.711 -0.2843 -0.0349  0.2069
  487MOL0     C65620  -0.251  10.167   3.726  0.1820  0.1784 -0.7409
  487MOL0     C65621  -0.382  10.138   3.647 -0.1191 -0.9228 -0.4673
  487MOL0     C65622  -0.436  10.265   3.576 -1.0272 -0.4480  0.1258
  487MOL0     C65623  -0.591  10.265   3.570 -0.4771 -0.0467  0.4410
  487MOL0     C65624  -0.641  10.357   3.458  0.1292  0.2490 -0.2729
  487MOL0     C65625  -0.805  10.362   3.472 -0.0571 -0.0808  0.2810
  487MOL0     C65626  -0.877  10.257   3.382  0.8306  0.3190  0.8663
  487MOL0     N65627  -1.002  10.319   3.324 -0.2535  0.5863 -0.0290
  487MOL0     C65628  -1.090  10.402   3.387  0.3805 -0.6110  0.3274
  487MOL0     C65629  -1.174  10.445   3.284  0.5528  0.6322 -0.1452
  487MOL0     C65630  -1.296  10.529   3.308  0.0642  0.4573 -0.0590
  487MOL0     C65631  -1.371  10.510   3.446 -0.8423 -0.0038  1.0101
  487MOL0     C65632  -1.469  10.624   3.459 -0.4613 -1.1033  0.3862
  487MOL0     C65633  -1.550  10.609   3.587  0.1796  0.6022 -0.9367
  487MOL0     O65634  -1.466  10.616   3.698 -0.4542  0.2130  0.4678
  487MOL0     C65635  -1.437  10.727   3.766  0.1887  0.3353 -0.8159
  487MOL0     C65636  -1.344  10.709   3.865 -0.0970  1.0877 -0.7150
  487MOL0     C65637  -1.290  10.814   3.942  0.6453 -0.7829  0.0391
  487MOL0     C65638  -1.181  10.776   4.040 -0.6320 -0.5926 -0.2906
  487MOL0     C65639  -1.337  10.944   3.924 -0.2293 -0.5091  0.7398
  487MOL0     C65640  -1.308  11.063   4.013 -0.2752 -0.4780  0.4891
  487MOL0     O65641  -1.387  11.174   3.982  0.2663 -0.3584  0.0808
  487MOL0     C65642  -1.366  11.277   4.073  1.0609  0.1333 -0.7122
  487MOL0     C65643  -1.261  11.373   4.066 -0.0671 -0.9047  0.1334
  487MOL0     C65644  -1.257  11.485   4.154 -0.7783 -0.1520  0.5425
  487MOL0     C65645  -1.357  11.506   4.247 -0.0512  1.0530  0.5791
  487MOL0     O65646  -1.343  11.604   4.335  0.3327 -0.2463  0.3551
  487MOL0     C65647  -1.364  11.736   4.269  0.5907  0.1830  0.2534
  487MOL0     C65648  -1.509  11.773   4.268  0.2340 -1.6692 -0.3363
  487MOL0     C65649  -1.525  11.909   4.187 -0.1234 -0.3474  0.2436
  487MOL0     C65650  -1.665  11.912   4.118  0.7629  0.1462  0.5483
  487MOL0     C65651  -1.686  12.047   4.054  0.1760  0.8633 -0.1957
  487MOL0     C65652  -1.799  12.031   3.961  0.5329  0.3908  0.3349
  487MOL0     C65653  -1.832  12.155   3.877  0.2576 -1.8906  0.8820
  487MOL0     C65654  -1.858  12.288   3.963 -0.4114  0.2997  0.4784
  487MOL0    Cl65655  -1.901  12.413   3.844  0.2113  0.5292  0.4536
  487MOL0     C65656  -1.450  11.413   4.259  0.2210  1.1014 -0.8286
  487MOL0     C65657  -1.456  11.295   4.178  0.5333 -0.7575 -0.0694
  487MOL0     O65658  -1.209  11.057   4.087 -0.0672 -0.2570  0.0515
  487MOL0     C65659  -1.447  10.961   3.829 -0.4547 -0.9920 -0.7232
  487MOL0     C65660  -1.495  10.853   3.752  0.4698  1.3727 -0.4153
  487MOL0     N65661  -1.138  10.372   3.167  0.4194 -0.2687 -0.2494
  487MOL0     N65662  -1.038  10.301   3.193  0.6009 -0.1462 -0.5430
  487MOL0     C65663   0.208  10.140   3.778 -0.8233 -0.6557  0.5477
  487MOL0     C65664   0.341  10.097   3.732  0.4692  0.1094  0.5141
  487MOL0     C65665   0.614   9.914   3.461 -0.8698  0.2979 -0.8415
  487MOL0     C65666   0.640   9.903   3.325  0.1243  0.2252  0.1074
  487MOL0     C65667   0.765   9.937   3.276 -0.1096  0.1875 -0.2182
  487MOL0     C65668   0.872   9.973   3.357  0.3083 -0.8817  0.1802
  487MOL0     O65669   1.005   9.998   3.306 -0.0306  0.3361  0.0542
  487MOL0     C65670   1.037   9.991   3.162 -0.0546 -1.0338 -0.2954
  487MOL0     C65671   1.042   9.853   3.090  0.5503  1.2065 -1.0337
  487MOL0     C65672   1.152   9.767   3.148  0.3131 -0.5534 -0.2164
  487MOL0     C65673   1.210   9.666   3.041 -1.1605 -0.6206 -0.3603
  487MOL0     C65674   1.270   9.723   2.917  0.0467  0.6705 -0.6797
  487MOL0     C65675   1.325   9.759   2.811 -0.3900  0.8032  0.5248
  487MOL0     C65676   0.853   9.987   3.495  0.1156  0.5676  0.5169
  487MOL0     C65677   0.729   9.951   3.543 -1.5075 -0.1841 -0.1337
  487MOL0     H65678   0.246   9.773   3.655  2.4932 -1.3761  3.0607
  487MOL0     H65679   0.024   9.856   3.700  1.0156 -1.5277 -0.2081
  487MOL0     H65680  -0.137  10.047   3.603 -3.1842 -0.0594 -0.3117
  487MOL0     H65681  -0.207   9.956   3.743  0.6413 -0.5887  0.2365
  487MOL0     H65682  -0.276  10.183   3.831 -1.4243 -0.1223 -1.0554
  487MOL0     H65683  -0.206  10.259   3.687 -0.2123  0.4748 -0.4960
  487MOL0     H65684  -0.366  10.061   3.571 -2.8390 -2.7539  0.6625
  487MOL0     H65685  -0.448  10.104   3.727  1.4255 -2.5207  0.2050
  487MOL0     H65686  -0.405  10.356   3.627  2.3344 -0.7557 -1.1595
  487MOL0     H65687  -0.385  10.261   3.480  3.2165 -1.7442  2.1723
  487MOL0     H65688  -0.624  10.163   3.546 -0.2404  0.8971 -5.1527
  487MOL0     H65689  -0.634  10.298   3.665  0.7776  0.7951  0.7421
  487MOL0     H65690  -0.601  10.458   3.469  2.7391 -0.7226 -0.0492
  487MOL0     H65691  -0.612  10.321   3.359 -1.2121 -0.0024 -0.5874
  487MOL0     H65692  -0.848  10.337   3.569 -0.9661 -1.5819 -0.4743
  487MOL0     H65693  -0.825  10.466   3.446  2.0536  1.0750  2.7825
  487MOL0     H65694  -0.901  10.168   3.441  1.4313 -0.0202  0.6092
  487MOL0     H65695  -0.816  10.220   3.300  1.4897  0.3186  1.3512
  487MOL0     H65696  -1.087  10.438   3.489  0.0639  1.6013 -0.3805
  487MOL0     H65697  -1.268  10.632   3.284 -0.1902 -0.1481 -3.5132
  487MOL0     H65698  -1.375  10.499   3.238  0.0303  0.1728  0.1037
  487MOL0     H65699  -1.297  10.495   3.525 -0.3937  0.3817  0.6668
  487MOL0     H65700  -1.418  10.411   3.444 -0.3104 -0.2560  0.9674
  487MOL0     H65701  -1.538  10.615   3.375  0.7619 -0.8778 -0.6844
  487MOL0     H65702  -1.425  10.724   3.453 -1.6967 -0.4055  2.2637
  487MOL0     H65703  -1.577  10.503   3.579  0.7741  0.5890 -3.9796
  487MOL0     H65704  -1.641  10.668   3.596 -0.1891  0.1923 -1.8660
  487MOL0     H65705  -1.292  10.614   3.871  1.2289  1.8760  1.3041
  487MOL0     H65706  -1.209  10.786   4.146 -1.6921  2.6874 -0.7814
  487MOL0     H65707  -1.151  10.671   4.032 -2.3097 -1.0522 -0.8649
  487MOL0     H65708  -1.102  10.851   4.045 -1.3228  0.1784 -0.6854
  487MOL0     H65709  -1.184  11.368   3.990 -1.7663 -0.5555 -1.6973
  487MOL0     H65710  -1.169  11.550   4.150 -0.5075 -0.5899 -1.1176
  487MOL0     H65711  -1.308  11.811   4.325 -0.8437  2.4202 -1.1412
  487MOL0     H65712  -1.326  11.737   4.167  1.2906  0.0552  0.5128
  487MOL0     H65713  -1.558  11.692   4.213 -2.7595  0.5808 -1.1993
  487MOL0     H65714  -1.550  11.775   4.370 -0.5453 -1.3936 -0.6544
  487MOL0     H65715  -1.435  11.911   4.124  0.9116  0.5253  1.6824
  487MOL0     H65716  -1.526  11.998   4.250  1.2625 -0.7552  0.8929
  487MOL0     H65717  -1.654  11.839   4.038  0.6085 -0.3941  1.0110
  487MOL0     H65718  -1.750  11.888   4.184 -1.7574  2.8340 -1.4422
  487MOL0     H65719  -1.592  12.076   4.005  0.7958 -0.8778 -0.0962
  487MOL0     H65720  -1.703  12.121   4.133 -0.2560 -3.0229  3.7390
  487MOL0     H65721  -1.783  11.952   3.887 -1.6768  1.5589 -1.4904
  487MOL0     H65722  -1.891  12.009   4.016 -0.5449  0.0854 -1.5196
  487MOL0     H65723  -1.928  12.142   3.827  0.6115 -2.5649  0.3692
  487MOL0     H65724  -1.755  12.177   3.802  0.2912 -0.3270  1.3275
  487MOL0     H65725  -1.761  12.324   3.998  1.3857  0.7712 -4.2165
  487MOL0     H65726  -1.934  12.272   4.040 -3.1069 -2.2008 -2.3872
  487MOL0     H65727  -1.508  11.429   4.349  1.1288  0.1296 -0.0405
  487MOL0     H65728  -1.541  11.229   4.188 -1.3590  1.5464  0.1249
  487MOL0     H65729  -1.501  11.054   3.816 -3.9969 -2.9377 -1.1045
  487MOL0     H65730  -1.584  10.861   3.690 -0.9139 -3.8119  0.4502
  487MOL0     H65731   0.191  10.237   3.824 -2.2166 -1.1638  1.1553
  487MOL0     H65732   0.429  10.160   3.741  0.4049  0.4062 -0.7118
  487MOL0     H65733   0.564   9.864   3.257  0.3975 -1.1718  0.5622
  487MOL0     H65734   0.780   9.929   3.168 -1.5085 -0.8493 -0.3610
  487MOL0     H65735   0.968  10.057   3.110 -1.4031 -1.8660  0.3831
  487MOL0     H65736   1.136  10.036   3.150 -0.2297  0.1287  2.0724
  487MOL0     H65737   1.056   9.871   2.983 -0.5827 -3.7027 -2.2463
  487MOL0     H65738   0.941   9.812   3.097  1.0303 -0.5342 -3.2571
  487MOL0     H65739   1.121   9.717   3.241  1.2417 -2.6258 -0.9513
  487MOL0     H65740   1.229   9.831   3.193 -1.8210  1.0167  1.4031
  487MOL0     H65741   1.124   9.602   3.017 -1.6449 -0.5328  1.1025
  487MOL0     H65742   1.285   9.597   3.081 -0.3063 -0.2168 -1.2233
  487MOL0     H65743   1.383   9.765   2.722 -0.9765  2.9628  0.2210
  487MOL0     H65744   0.921  10.010   3.577 -1.4425  0.5012  1.8874
  487MOL0     H65745   0.717   9.967   3.650 -1.8344  3.7812 -0.5814
  488MOL0     O65746   7.174   6.083   3.017 -0.1951 -0.4385  0.1181
  488MOL0     C65747   7.110   6.095   3.123 -0.5615 -0.3434 -0.0785
  488MOL0     O65748   7.084   6.215   3.187  0.7189  0.5184 -0.4068
  488MOL0     C65749   7.095   6.335   3.125  0.6645  0.3818  0.5976
  488MOL0     C65750   6.981   6.424   3.127  0.3990  0.2807 -0.8658
  488MOL0     C65751   6.978   6.538   3.058 -0.0064 -1.2937  0.0420
  488MOL0     C65752   7.092   6.567   2.971  0.1949  0.6628  1.1218
  488MOL0     O65753   7.107   6.677   2.879 -0.2759  0.2683 -0.9721
  488MOL0     C65754   6.976   6.733   2.836 -0.9262 -0.9330 -0.4605
  488MOL0     C65755   7.011   6.813   2.716  0.8181 -0.0009 -0.1223
  488MOL0     C65756   6.905   6.923   2.687 -0.3308  0.5668  0.5221
  488MOL0     C65757   6.805   6.869   2.583  0.1551  0.3538  0.2812
  488MOL0     C65758   6.857   6.886   2.436 -0.4456  0.2840  0.1837
  488MOL0     C65759   6.751   6.843   2.335 -0.0052  1.3950 -1.4606
  488MOL0     C65760   6.796   6.856   2.190 -0.6397  0.2326 -1.0248
  488MOL0     C65761   6.687   6.857   2.094 -0.8774 -0.7670 -0.2423
  488MOL0     N65762   6.737   6.872   1.956  0.9793 -0.7262  0.1409
  488MOL0     C65763   6.675   6.966   1.872  0.3471 -0.2118 -0.4060
  488MOL0     C65764   6.686   6.915   1.747 -0.0715 -0.1798  0.5547
  488MOL0     C65765   6.645   6.979   1.611 -0.0414  0.0937 -0.0227
  488MOL0     C65766   6.756   6.979   1.511 -0.7826 -0.9605  0.8813
  488MOL0     C65767   6.710   7.038   1.379  0.4794  0.5427 -0.6536
  488MOL0     C65768   6.828   7.069   1.277  0.0665  0.0987  0.1022
  488MOL0     O65769   6.917   7.170   1.317  0.5886  0.7233 -0.2351
  488MOL0     C65770   7.054   7.187   1.273  0.5117  0.8552 -0.7034
  488MOL0     C65771   7.113   7.309   1.307  0.4689 -0.3253  0.5118
  488MOL0     C65772   7.242   7.342   1.265  1.3290  0.0811  0.0867
  488MOL0     C65773   7.289   7.469   1.316 -0.2086 -0.5961 -0.0976
  488MOL0     C65774   7.314   7.250   1.181 -0.3901 -0.7186  0.3178
  488MOL0     C65775   7.459   7.278   1.130  0.3937 -0.0655  0.3213
  488MOL0     O65776   7.530   7.168   1.089  0.4268  0.3040  0.1843
  488MOL0     C65777   7.641   7.183   1.006 -0.0649  0.2878 -0.8236
  488MOL0     C65778   7.742   7.090   1.013 -0.3909 -0.1455  0.1653
  488MOL0     C65779   7.843   7.084   0.921  0.7179  0.9164 -0.4855
  488MOL0     C65780   7.852   7.176   0.822  1.2379 -0.0081  0.2958
  488MOL0     O65781   7.938   7.186   0.717 -0.6097  0.5298  0.4494
  488MOL0     C65782   8.053   7.104   0.723 -0.0582  0.5393  1.2608
  488MOL0     C65783   8.121   7.119   0.589 -0.1733 -0.7687 -0.1282
  488MOL0     C65784   8.035   7.066   0.468  0.4251  0.8357  0.1605
  488MOL0     C65785   8.125   7.058   0.334  0.0810 -1.2337 -0.0078
  488MOL0     C65786   8.184   7.207   0.304 -0.4165  0.5905  0.6787
  488MOL0     C65787   8.083   7.317   0.306  0.2686 -0.5161 -0.3456
  488MOL0     C65788   7.957   7.313   0.210 -0.6494  0.2587  0.0178
  488MOL0     C65789   7.990   7.269   0.067  0.3718  0.4876  0.3488
  488MOL0    Cl65790   7.836   7.261  -0.021  0.2315 -0.4250 -0.2936
  488MOL0     C65791   7.767   7.279   0.813  0.9342 -0.5374 -0.5925
  488MOL0     C65792   7.655   7.278   0.902  0.1559  0.6877  1.1379
  488MOL0     O65793   7.502   7.394   1.132 -0.2472 -0.3730 -0.0956
  488MOL0     C65794   7.256   7.124   1.158  0.0719  0.1036  0.1971
  488MOL0     C65795   7.134   7.089   1.211 -0.1544 -0.4694 -0.1363
  488MOL0     N65796   6.755   6.795   1.762 -0.1967 -0.1324  0.5467
  488MOL0     N65797   6.781   6.773   1.881 -0.4111 -0.2935  0.3977
  488MOL0     C65798   7.198   6.481   2.972 -0.7975 -0.0355 -0.9745
  488MOL0     C65799   7.204   6.368   3.054  0.3947 -0.6263  0.6669
  488MOL0     C65800   7.097   5.974   3.207  0.1770 -0.2532 -0.4101
  488MOL0     C65801   7.172   5.856   3.171 -1.1564  0.1679  0.2688
  488MOL0     C65802   7.148   5.736   3.239 -0.7428 -0.3553  0.5149
  488MOL0     C65803   7.063   5.731   3.344  0.4470  0.0698  0.2499
  488MOL0     O65804   7.049   5.620   3.420  0.2681  0.4963 -0.0569
  488MOL0     C65805   7.008   5.619   3.555 -0.3174 -0.1903  0.9454
  488MOL0     C65806   7.003   5.458   3.577  0.4732 -0.8553 -0.6849
  488MOL0     C65807   6.921   5.386   3.465 -0.2094 -0.5914  0.4509
  488MOL0     C65808   6.888   5.244   3.499  0.0953 -0.1890  0.1578
  488MOL0     C65809   7.011   5.163   3.485  0.3097  0.0854 -0.0541
  488MOL0     C65810   7.109   5.090   3.472 -0.1454  0.9709  0.5185
  488MOL0     C65811   7.005   5.848   3.388  0.5860  0.2668 -0.3389
  488MOL0     C65812   7.015   5.974   3.324 -0.5645 -0.4907  1.1279
  488MOL0     H65813   6.905   6.396   3.199  1.8401 -1.8696 -0.0633
  488MOL0     H65814   6.887   6.596   3.048  1.4200  0.8007 -1.8012
  488MOL0     H65815   6.899   6.657   2.818 -0.2870 -1.9558  0.9016
  488MOL0     H65816   6.934   6.792   2.918 -0.1426 -0.8615 -0.1081
  488MOL0     H65817   7.103   6.871   2.734  0.2132  0.2579  2.5653
  488MOL0     H65818   7.018   6.743   2.632 -0.8614  1.3260 -1.4323
  488MOL0     H65819   6.858   6.959   2.779  0.3370 -1.1628  1.5894
  488MOL0     H65820   6.950   7.008   2.636 -3.0830  1.9019  0.1773
  488MOL0     H65821   6.783   6.763   2.601 -0.8639 -0.0915 -2.9279
  488MOL0     H65822   6.713   6.926   2.602 -0.2243  0.5668 -1.9655
  488MOL0     H65823   6.871   6.991   2.410  0.2450 -0.6107 -3.4991
  488MOL0     H65824   6.946   6.825   2.418 -0.9937 -0.6911  0.6730
  488MOL0     H65825   6.725   6.738   2.351 -0.3155  1.7830  0.9687
  488MOL0     H65826   6.657   6.898   2.338 -1.1840 -0.5133 -1.3424
  488MOL0     H65827   6.864   6.939   2.170 -0.7728  0.7097  0.4392
  488MOL0     H65828   6.868   6.777   2.166  0.9164  1.9659 -2.4047
  488MOL0     H65829   6.612   6.932   2.120  0.3171 -0.1550  1.6568
  488MOL0     H65830   6.628   6.765   2.098 -1.8738 -0.1251  0.0164
  488MOL0     H65831   6.618   7.057   1.886  1.0205 -0.0051  1.1958
  488MOL0     H65832   6.555   6.931   1.572  0.4590 -0.2256 -0.7981
  488MOL0     H65833   6.628   7.084   1.640  1.8354 -0.4146  3.4451
  488MOL0     H65834   6.813   6.893   1.476  3.3538  1.1138  1.8637
  488MOL0     H65835   6.827   7.052   1.552 -1.7989 -0.5061  1.8688
  488MOL0     H65836   6.643   7.122   1.400 -1.3935 -1.5667  2.6023
  488MOL0     H65837   6.646   6.959   1.339  1.2806  0.3958 -1.7108
  488MOL0     H65838   6.778   7.099   1.184 -0.6084  1.8605  1.0049
  488MOL0     H65839   6.885   6.980   1.247  1.7496  2.0343 -2.9283
  488MOL0     H65840   7.057   7.382   1.364 -0.4198 -1.7015  1.4526
  488MOL0     H65841   7.393   7.444   1.340 -0.4126 -1.6403 -0.2643
  488MOL0     H65842   7.284   7.547   1.239 -3.2200  0.7666  1.2983
  488MOL0     H65843   7.241   7.507   1.407  2.6911  0.2736  1.1947
  488MOL0     H65844   7.738   7.015   1.092 -2.1258  0.3930  0.6340
  488MOL0     H65845   7.925   7.017   0.945 -1.5212 -0.6661  3.8811
  488MOL0     H65846   8.112   7.131   0.811 -1.6228  1.5878  2.0191
  488MOL0     H65847   8.035   6.996   0.730 -2.5331  0.5556 -2.1751
  488MOL0     H65848   8.146   7.225   0.576 -1.3611 -0.3163  0.9451
  488MOL0     H65849   8.221   7.075   0.590  0.5822  0.7877  1.9961
  488MOL0     H65850   7.945   7.127   0.453  0.1668  0.2675 -0.6706
  488MOL0     H65851   8.003   6.965   0.494 -2.0577  1.9236  1.6714
  488MOL0     H65852   8.202   6.981   0.339  1.1291 -0.1539  1.2804
  488MOL0     H65853   8.066   7.032   0.245  2.0910  1.3711 -2.2736
  488MOL0     H65854   8.238   7.209   0.210  0.1735 -4.5236  0.6102
  488MOL0     H65855   8.258   7.227   0.382  0.4094 -1.0037  0.3459
  488MOL0     H65856   8.038   7.320   0.405  4.0885  1.3227  1.5405
  488MOL0     H65857   8.134   7.411   0.283 -2.5885  1.0745 -0.6063
  488MOL0     H65858   7.918   7.415   0.202 -2.4102 -0.4329 -0.7037
  488MOL0     H65859   7.890   7.244   0.262 -0.7042 -0.5899 -1.1624
  488MOL0     H65860   8.046   7.176   0.060  1.0666  0.9981 -1.7399
  488MOL0     H65861   8.061   7.337   0.019  0.0153  0.1340 -0.7037
  488MOL0     H65862   7.781   7.353   0.734 -0.2793 -1.8225 -2.0670
  488MOL0     H65863   7.567   7.342   0.898 -1.4130 -1.3882  0.4403
  488MOL0     H65864   7.321   7.053   1.108 -0.6031  0.8938 -1.9135
  488MOL0     H65865   7.095   6.989   1.199 -0.0711 -0.5663  0.3596
  488MOL0     H65866   7.280   6.500   2.903 -1.6843 -3.7565 -3.4112
  488MOL0     H65867   7.298   6.317   3.069  1.4177  0.2877 -1.9875
  488MOL0     H65868   7.234   5.862   3.082  0.4182  1.0284  1.3694
  488MOL0     H65869   7.200   5.646   3.208  0.7219  0.5078  0.3447
  488MOL0     H65870   7.072   5.667   3.629 -0.7134 -1.4559  2.1497
  488MOL0     H65871   6.907   5.654   3.578 -1.3708 -2.8593  0.7226
  488MOL0     H65872   6.960   5.438   3.676  0.8033 -3.0945 -0.9509
  488MOL0     H65873   7.105   5.419   3.577  0.0985 -2.2706  3.0191
  488MOL0     H65874   6.971   5.391   3.368  3.0395 -1.9870  1.8865
  488MOL0     H65875   6.825   5.436   3.451  1.1314  1.5631 -1.7180
  488MOL0     H65876   6.823   5.203   3.420  0.8630 -2.6973  0.7356
  488MOL0     H65877   6.833   5.244   3.593 -2.1053  0.9490 -1.0179
  488MOL0     H65878   7.194   5.024   3.468  1.0919  2.5211  0.1451
  488MOL0     H65879   6.939   5.841   3.474 -1.7018 -1.6180 -2.1074
  488MOL0     H65880   6.961   6.058   3.367 -0.4726 -0.2204  0.7199
  489MOL0     O65881   7.385   6.148   1.441  0.6813 -0.3774  0.4172
  489MOL0     C65882   7.304   6.058   1.404 -0.4838 -0.5311 -0.9256
  489MOL0     O65883   7.243   6.051   1.285 -0.7270  0.8367 -0.0186
  489MOL0     C65884   7.286   6.133   1.181  0.1583 -0.5222  0.7650
  489MOL0     C65885   7.233   6.258   1.162  0.9241  0.6487  0.5343
  489MOL0     C65886   7.270   6.318   1.044  1.5421  0.3341 -0.1083
  489MOL0     C65887   7.361   6.273   0.951 -0.2787 -0.0470  0.1696
  489MOL0     O65888   7.416   6.359   0.848  0.5860  0.7547  0.0174
  489MOL0     C65889   7.410   6.290   0.722  0.6703  0.1137  0.2326
  489MOL0     C65890   7.329   6.388   0.642 -1.1099 -0.0833 -0.2712
  489MOL0     C65891   7.414   6.507   0.583  0.7461 -0.1087  0.5395
  489MOL0     C65892   7.326   6.624   0.530  0.9164  0.2395  0.1310
  489MOL0     C65893   7.264   6.614   0.395  0.6517 -0.3945  0.4142
  489MOL0     C65894   7.145   6.520   0.379  0.4458  0.4142  0.3845
  489MOL0     C65895   7.039   6.516   0.486 -0.9253  0.5143  0.3245
  489MOL0     C65896   6.946   6.638   0.495 -0.1699  0.2157  0.3241
  489MOL0     N65897   6.842   6.628   0.391  0.2178  0.1995  0.5289
  489MOL0     C65898   6.872   6.667   0.265 -0.8276 -1.2841  0.6165
  489MOL0     C65899   6.747   6.682   0.211  0.7241 -0.5563  0.6773
  489MOL0     C65900   6.721   6.708   0.066 -0.1818 -0.1142 -0.0126
  489MOL0     C65901   6.708   6.580  -0.017 -0.2883 -0.5639  0.7591
  489MOL0     C65902   6.839   6.536  -0.073  0.3678  0.3612 -0.2072
  489MOL0     C65903   6.814   6.434  -0.172  0.0903 -0.0615 -1.0999
  489MOL0     O65904   6.929   6.347  -0.194  0.2341 -0.2699  0.5241
  489MOL0     C65905   6.949   6.236  -0.114  0.2908 -0.0495 -0.6446
  489MOL0     C65906   6.917   6.237   0.028  0.1998 -0.8973 -0.2835
  489MOL0     C65907   6.966   6.146   0.125  0.4309  0.8052  0.9623
  489MOL0     C65908   6.951   6.167   0.268  0.7813  0.3077  0.5183
  489MOL0     C65909   7.029   6.025   0.069  0.0756 -0.0187  0.4242
  489MOL0     C65910   7.077   5.902   0.137  0.1332  0.2154  0.2508
  489MOL0     O65911   7.128   5.796   0.065 -0.0730  0.1636 -0.2449
  489MOL0     C65912   7.181   5.690   0.123 -0.4134 -0.2463 -0.8554
  489MOL0     C65913   7.165   5.566   0.063 -0.8235  0.3022 -0.6516
  489MOL0     C65914   7.230   5.451   0.105  0.0460 -0.2432  0.0591
  489MOL0     C65915   7.314   5.452   0.219 -0.0251  0.8277  0.2415
  489MOL0     O65916   7.362   5.352   0.291 -0.4972 -0.3854 -0.5513
  489MOL0     C65917   7.298   5.228   0.269 -0.5603 -0.2867 -0.1459
  489MOL0     C65918   7.360   5.136   0.367 -0.0780 -0.0306 -0.4044
  489MOL0     C65919   7.306   4.988   0.361 -0.4799  0.2614 -0.9773
  489MOL0     C65920   7.425   4.890   0.389 -0.3851 -0.8072  0.0390
  489MOL0     C65921   7.368   4.746   0.430  0.6052 -0.2790  0.8648
  489MOL0     C65922   7.280   4.680   0.318 -0.2967  0.2527 -0.0669
  489MOL0     C65923   7.276   4.523   0.334 -1.0221  0.0134  0.1024
  489MOL0     C65924   7.207   4.468   0.201  0.7409 -0.6181  0.6508
  489MOL0    Cl65925   7.207   4.295   0.212 -0.1701 -0.4568 -0.2170
  489MOL0     C65926   7.349   5.582   0.266 -0.2781  0.5367 -0.0652
  489MOL0     C65927   7.276   5.698   0.220 -0.9524  0.5900 -1.4283
  489MOL0     O65928   7.078   5.900   0.258  0.4728 -0.4282  0.4029
  489MOL0     C65929   7.069   6.038  -0.076  0.2250 -0.3407 -0.2788
  489MOL0     C65930   7.034   6.138  -0.157 -0.7749 -0.4164  0.0144
  489MOL0     N65931   6.656   6.640   0.303  0.5078 -0.7055  0.2190
  489MOL0     N65932   6.710   6.630   0.420 -0.0469  0.4377  0.2934
  489MOL0     C65933   7.417   6.151   0.977 -0.2724 -0.0416  0.5567
  489MOL0     C65934   7.384   6.083   1.097 -0.1088  1.0780 -1.1938
  489MOL0     C65935   7.262   5.960   1.510 -0.2248  0.8462  0.0147
  489MOL0     C65936   7.258   6.000   1.644 -0.6938  0.8847  0.6272
  489MOL0     C65937   7.254   5.909   1.755 -0.1230 -0.2171 -0.5051
  489MOL0     C65938   7.222   5.772   1.730  0.1534 -0.1784  0.5263
  489MOL0     O65939   7.181   5.695   1.836 -0.1719  1.0609 -0.2995
  489MOL0     C65940   7.094   5.574   1.816 -0.0629 -0.5529  0.3778
  489MOL0     C65941   6.962   5.613   1.753 -0.0521  0.6766 -0.4044
  489MOL0     C65942   6.857   5.495   1.759 -0.0182  0.0693  0.0119
  489MOL0     C65943   6.722   5.548   1.735  0.2714  0.4623 -0.5429
  489MOL0     C65944   6.707   5.595   1.595 -0.2367 -0.0731 -0.3133
  489MOL0     C65945   6.694   5.646   1.488 -0.7998 -0.8040 -0.3986
  489MOL0     C65946   7.232   5.728   1.597  0.2912  0.2200  0.2634
  489MOL0     C65947   7.258   5.820   1.487  0.7801 -0.2853 -0.2101
  489MOL0     H65948   7.180   6.308   1.242  0.0901  0.2912  0.2134
  489MOL0     H65949   7.231   6.419   1.035  2.5514  0.7340 -0.1165
  489MOL0     H65950   7.513   6.280   0.687  0.1574 -3.4496 -0.7363
  489MOL0     H65951   7.356   6.195   0.730 -0.1436  0.4929 -0.6246
  489MOL0     H65952   7.286   6.323   0.565 -1.8470 -1.0845  0.9478
  489MOL0     H65953   7.245   6.414   0.707 -0.2956 -0.9065  1.1562
  489MOL0     H65954   7.471   6.537   0.670 -1.5205 -2.0089  2.8399
  489MOL0     H65955   7.473   6.485   0.494  1.3069 -0.6404  1.0376
  489MOL0     H65956   7.253   6.647   0.608  0.8411 -2.1991  0.8308
  489MOL0     H65957   7.386   6.715   0.515  1.1431  0.1369  0.4223
  489MOL0     H65958   7.234   6.718   0.379 -0.0452 -0.4558  1.1990
  489MOL0     H65959   7.334   6.592   0.314  0.7438  3.7076 -0.8555
  489MOL0     H65960   7.090   6.538   0.286  1.3876  2.2707  0.1394
  489MOL0     H65961   7.185   6.418   0.378 -1.6997 -0.5186 -2.4291
  489MOL0     H65962   6.981   6.427   0.464  1.5032 -0.9197 -0.7368
  489MOL0     H65963   7.078   6.492   0.585 -2.0933 -2.9059  0.0638
  489MOL0     H65964   7.002   6.731   0.479 -2.9928  2.7440  3.5949
  489MOL0     H65965   6.887   6.656   0.585  0.0409  0.1735  0.4711
  489MOL0     H65966   6.965   6.676   0.209 -1.5922 -0.3826 -0.5509
  489MOL0     H65967   6.623   6.757   0.059 -0.6641 -1.2882 -2.1211
  489MOL0     H65968   6.793   6.779   0.024 -1.1029  1.2682  0.6358
  489MOL0     H65969   6.644   6.602  -0.103 -0.3727  0.0073  0.9613
  489MOL0     H65970   6.673   6.506   0.054 -1.1375  1.7045  2.8587
  489MOL0     H65971   6.908   6.510   0.008  0.4833 -1.7274 -0.9316
  489MOL0     H65972   6.885   6.619  -0.127  1.2522 -0.2714 -0.4529
  489MOL0     H65973   6.784   6.475  -0.269 -0.8547  0.7082 -0.5005
  489MOL0     H65974   6.734   6.371  -0.132  0.7027  0.8221  1.7394
  489MOL0     H65975   6.850   6.315   0.064  1.3703  0.4056 -0.8128
  489MOL0     H65976   6.878   6.246   0.284 -0.4255 -0.7283  0.3225
  489MOL0     H65977   6.913   6.083   0.327  0.0999  0.2542  0.0233
  489MOL0     H65978   7.043   6.195   0.319  0.0398  0.5582  1.7660
  489MOL0     H65979   7.109   5.570  -0.030 -3.7433  2.0479  1.0322
  489MOL0     H65980   7.205   5.354   0.063  0.7794  0.4599 -2.1336
  489MOL0     H65981   7.192   5.235   0.296 -0.3928  0.2259  0.3985
  489MOL0     H65982   7.295   5.190   0.167  2.0591  0.0882 -0.4270
  489MOL0     H65983   7.463   5.130   0.331  0.6975 -1.5542  1.8777
  489MOL0     H65984   7.351   5.176   0.468  0.4497  4.8175 -1.9849
  489MOL0     H65985   7.266   4.969   0.261  0.1332 -0.2954 -1.1186
  489MOL0     H65986   7.246   4.984   0.452  1.6845  0.2011  0.5248
  489MOL0     H65987   7.481   4.888   0.295  0.2315 -0.4239  0.3922
  489MOL0     H65988   7.496   4.931   0.461 -1.6896  1.1183  0.3240
  489MOL0     H65989   7.306   4.759   0.519 -0.8938  2.3426 -0.4518
  489MOL0     H65990   7.455   4.685   0.456  0.4707 -0.0840  1.7972
  489MOL0     H65991   7.181   4.719   0.343 -0.5151 -1.2783  1.6704
  489MOL0     H65992   7.309   4.711   0.217  2.6519  0.2582  0.6797
  489MOL0     H65993   7.217   4.503   0.424 -3.6261  4.3203 -0.3612
  489MOL0     H65994   7.378   4.485   0.339 -1.4277 -1.2708 -0.8114
  489MOL0     H65995   7.256   4.519   0.117 -2.9113  4.2148  0.9849
  489MOL0     H65996   7.101   4.497   0.193  0.4467 -0.4594  3.9285
  489MOL0     H65997   7.420   5.585   0.348 -0.4072  0.1069  0.0648
  489MOL0     H65998   7.306   5.796   0.256  2.1890 -1.5204  2.5534
  489MOL0     H65999   7.137   5.962  -0.113  2.3102  0.6872  1.2578
  489MOL0     H66000   7.074   6.142  -0.258  2.5374  3.1121  1.2364
  489MOL0     H66001   7.493   6.102   0.916 -1.8066 -0.4419 -1.1311
  489MOL0     H66002   7.436   5.990   1.118  0.1896  1.3985 -0.4746
  489MOL0     H66003   7.272   6.106   1.666  0.5544  0.8280  0.1864
  489MOL0     H66004   7.238   5.944   1.856 -0.0515  2.5245 -1.3546
  489MOL0     H66005   7.152   5.503   1.756 -1.6200 -2.9796  1.5862
  489MOL0     H66006   7.079   5.531   1.915  1.7451  0.7698  1.2765
  489MOL0     H66007   6.978   5.627   1.646  3.3919 -0.1323 -0.0916
  489MOL0     H66008   6.923   5.700   1.806 -1.2553 -0.3860  0.5271
  489MOL0     H66009   6.866   5.450   1.858 -2.2890  3.2219  1.8153
  489MOL0     H66010   6.885   5.422   1.682 -0.4692 -0.0413 -0.0483
  489MOL0     H66011   6.700   5.627   1.807  1.8260  1.1964 -0.8266
  489MOL0     H66012   6.654   5.468   1.766 -1.3579  0.8527 -2.7933
  489MOL0     H66013   6.680   5.689   1.391 -0.2811 -0.2419 -0.2285
  489MOL0     H66014   7.230   5.626   1.560 -1.9968 -0.3832  1.8635
  489MOL0     H66015   7.274   5.788   1.385 -0.9686 -0.4298 -0.4754
  490MOL0     O66016   2.908   2.775   3.004  0.0149 -0.1754  0.1275
  490MOL0     C66017   2.942   2.742   3.114  1.2378  0.4819 -0.0743
  490MOL0     O66018   2.959   2.824   3.221 -0.2180 -0.6510 -0.1585
  490MOL0     C66019   2.945   2.961   3.208 -0.1784 -1.0686  0.4539
  490MOL0     C66020   3.045   3.036   3.139  0.4862  1.0644  0.2110
  490MOL0     C66021   3.024   3.177   3.129 -0.8573  0.1742  0.8421
  490MOL0     C66022   2.916   3.243   3.183  0.0603  0.1776  0.6955
  490MOL0     O66023   2.920   3.383   3.163 -0.2448 -0.1033  0.8306
  490MOL0     C66024   2.818   3.467   3.225  0.9664 -0.4855  0.4429
  490MOL0     C66025   2.844   3.607   3.154 -0.2537 -0.6719  0.5160
  490MOL0     C66026   2.834   3.608   3.003 -0.0815  0.3288  0.6169
  490MOL0     C66027   2.885   3.739   2.953  0.9842 -0.3434 -0.3732
  490MOL0     C66028   2.831   3.761   2.811  0.2997  0.8863 -0.6978
  490MOL0     C66029   2.875   3.902   2.764 -0.0959  1.1973  0.4759
  490MOL0     C66030   2.851   3.909   2.613 -0.3827 -0.4746 -0.0062
  490MOL0     C66031   2.712   3.959   2.572 -0.2022  0.3839  0.4729
  490MOL0     N66032   2.691   4.091   2.608 -0.1308 -0.2697  0.4966
  490MOL0     C66033   2.682   4.194   2.519 -0.0001  0.6886  0.3469
  490MOL0     C66034   2.648   4.306   2.590  0.4557 -0.8092  0.1836
  490MOL0     C66035   2.616   4.425   2.506  0.2905 -0.2148  0.8836
  490MOL0     C66036   2.679   4.557   2.550 -0.2347  0.5540 -0.8583
  490MOL0     C66037   2.823   4.572   2.493  0.0715 -0.5295  0.6253
  490MOL0     C66038   2.915   4.665   2.575  0.4845  0.2072  0.5059
  490MOL0     O66039   2.924   4.647   2.720  0.3892  0.5852 -0.0656
  490MOL0     C66040   2.990   4.726   2.804  0.3926 -0.2514  0.2231
  490MOL0     C66041   3.074   4.831   2.760  0.5411  0.1116  1.0429
  490MOL0     C66042   3.171   4.890   2.847  0.7273 -0.1002  0.9864
  490MOL0     C66043   3.249   5.000   2.782  0.9546 -0.6421 -0.3570
  490MOL0     C66044   3.180   4.848   2.982 -1.1480  1.0021  0.7106
  490MOL0     C66045   3.263   4.919   3.082 -0.1659 -0.2197 -0.3341
  490MOL0     O66046   3.347   4.831   3.151 -0.3079  0.5348 -0.4469
  490MOL0     C66047   3.448   4.877   3.242  0.1254  0.5347 -0.7858
  490MOL0     C66048   3.524   4.764   3.287  0.5966  0.4031 -0.3239
  490MOL0     C66049   3.639   4.791   3.364 -0.4611  0.2936  0.9858
  490MOL0     C66050   3.683   4.921   3.382 -0.3558 -0.2879  0.2981
  490MOL0     O66051   3.799   4.964   3.436  0.3592  1.2032  0.6424
  490MOL0     C66052   3.910   4.872   3.437 -0.5729 -0.0070 -0.9652
  490MOL0     C66053   4.007   4.901   3.553  0.0591 -0.1922 -0.3039
  490MOL0     C66054   4.154   4.899   3.506  0.0509 -0.0582  0.0337
  490MOL0     C66055   4.182   5.020   3.413 -0.6976 -0.5036  0.1604
  490MOL0     C66056   4.336   5.016   3.378  0.1501  0.7455  0.0785
  490MOL0     C66057   4.369   5.120   3.273 -0.5623 -0.2864 -0.3802
  490MOL0     C66058   4.523   5.099   3.218 -0.1204 -1.4817  0.4454
  490MOL0     C66059   4.598   5.208   3.148  0.4598 -0.7818 -0.1970
  490MOL0    Cl66060   4.636   5.358   3.243  0.4639  0.3329  0.5319
  490MOL0     C66061   3.601   5.025   3.343  0.7202  0.6532 -0.2319
  490MOL0     C66062   3.489   5.003   3.270 -0.5167  0.0441  1.3380
  490MOL0     O66063   3.257   5.037   3.099 -0.5435 -0.3349 -0.8003
  490MOL0     C66064   3.102   4.735   3.026  0.2874  0.2817  0.1963
  490MOL0     C66065   3.007   4.684   2.934 -0.7813  0.6875  0.8051
  490MOL0     N66066   2.639   4.269   2.728  0.6505  0.8178  0.1117
  490MOL0     N66067   2.665   4.146   2.729 -0.3926 -0.1483 -0.8447
  490MOL0     C66068   2.817   3.168   3.242 -0.0836 -0.3771 -0.0842
  490MOL0     C66069   2.835   3.026   3.263  0.1076 -0.7060  1.4048
  490MOL0     C66070   2.945   2.598   3.140 -0.1777  0.7888 -0.4107
  490MOL0     C66071   2.925   2.554   3.272 -0.0302 -0.1959 -0.7569
  490MOL0     C66072   2.927   2.421   3.310 -1.1943 -0.1353 -0.2996
  490MOL0     C66073   2.946   2.322   3.217 -0.1407 -0.5577 -0.1282
  490MOL0     O66074   2.954   2.189   3.241 -0.0645  0.2729 -0.9493
  490MOL0     C66075   2.993   2.132   3.372  0.3745 -0.6500 -0.5553
  490MOL0     C66076   3.141   2.151   3.385  0.9754  0.2160 -0.4844
  490MOL0     C66077   3.178   2.138   3.535 -0.5312 -0.2391 -0.7748
  490MOL0     C66078   3.325   2.118   3.568 -0.0792 -0.3385  0.8747
  490MOL0     C66079   3.362   2.058   3.699 -0.3917 -0.2872  0.6213
  490MOL0     C66080   3.404   2.018   3.804 -1.3562 -0.2443 -0.2164
  490MOL0     C66081   2.952   2.356   3.083  0.7730 -0.3395  0.2931
  490MOL0     C66082   2.960   2.491   3.044  0.8807 -0.1391  0.5237
  490MOL0     H66083   3.138   2.982   3.124  1.0480  1.3994  2.1463
  490MOL0     H66084   3.092   3.232   3.065  0.5557  0.1592  2.2691
  490MOL0     H66085   2.716   3.427   3.219  0.3705  1.0001  0.3321
  490MOL0     H66086   2.831   3.486   3.332 -2.5838 -0.1169  0.9356
  490MOL0     H66087   2.775   3.678   3.201 -0.5899  0.3597 -1.4227
  490MOL0     H66088   2.948   3.634   3.172  0.3221 -1.9259 -0.7702
  490MOL0     H66089   2.899   3.536   2.953  0.7796  3.2308 -2.9658
  490MOL0     H66090   2.733   3.587   2.967  0.7402 -1.3985 -0.8439
  490MOL0     H66091   2.845   3.819   3.016  0.3527  1.2149 -2.6014
  490MOL0     H66092   2.994   3.746   2.954  0.9962  0.3207 -2.2624
  490MOL0     H66093   2.876   3.683   2.749 -0.8102 -0.5105  0.1831
  490MOL0     H66094   2.723   3.749   2.800  0.4797 -1.5242 -0.4705
  490MOL0     H66095   2.825   3.980   2.821 -0.9608  1.3801 -0.5029
  490MOL0     H66096   2.980   3.918   2.790 -1.0304  2.8856  3.7015
  490MOL0     H66097   2.917   3.980   2.562 -1.4781  3.4174  3.4703
  490MOL0     H66098   2.876   3.810   2.571 -2.7980 -0.8839 -0.6436
  490MOL0     H66099   2.643   3.892   2.625  1.7407 -2.8338 -0.7480
  490MOL0     H66100   2.697   3.958   2.464 -0.2653 -0.4978  0.4818
  490MOL0     H66101   2.696   4.197   2.412 -3.1584 -0.9245 -0.2274
  490MOL0     H66102   2.646   4.406   2.402 -0.2032  0.6401  0.5797
  490MOL0     H66103   2.507   4.436   2.506  0.1581 -0.9523  3.6687
  490MOL0     H66104   2.664   4.555   2.658 -2.0782  0.1983 -1.0926
  490MOL0     H66105   2.621   4.643   2.517 -1.5842 -0.0923 -0.2639
  490MOL0     H66106   2.835   4.596   2.387  1.2674  1.5702  1.1719
  490MOL0     H66107   2.874   4.476   2.504 -0.4342 -0.9353 -0.4992
  490MOL0     H66108   2.878   4.767   2.566 -0.7359 -0.0952  1.6902
  490MOL0     H66109   3.018   4.662   2.541  0.1507  4.4613 -1.4703
  490MOL0     H66110   3.071   4.869   2.658 -2.3443 -0.2973  0.9073
  490MOL0     H66111   3.348   5.014   2.828  1.3621 -4.0824  0.0870
  490MOL0     H66112   3.259   4.987   2.674 -1.3188  2.9800 -1.1895
  490MOL0     H66113   3.187   5.087   2.803  0.1719 -1.4187  0.6541
  490MOL0     H66114   3.473   4.669   3.277 -2.7326  1.3194  4.2429
  490MOL0     H66115   3.701   4.709   3.400 -0.0590  0.2122  0.1178
  490MOL0     H66116   3.885   4.766   3.448 -2.4219  0.5931  1.8745
  490MOL0     H66117   3.964   4.889   3.344  0.0866 -2.4856 -1.0882
  490MOL0     H66118   3.992   5.002   3.594 -0.7117 -0.7208  0.7682
  490MOL0     H66119   3.998   4.848   3.649  0.1619  0.8121  0.2808
  490MOL0     H66120   4.172   4.802   3.459 -1.9160  0.7768 -2.7364
  490MOL0     H66121   4.217   4.911   3.594  0.3620 -4.5222  0.6933
  490MOL0     H66122   4.131   5.007   3.318 -1.2179 -1.5117  0.5604
  490MOL0     H66123   4.159   5.114   3.464  3.2751 -0.9763  3.3718
  490MOL0     H66124   4.354   4.915   3.339  1.6530  1.8002 -2.1911
  490MOL0     H66125   4.391   5.047   3.467 -1.8922  2.2144  0.8984
  490MOL0     H66126   4.294   5.109   3.195 -2.2877  0.5305  1.1008
  490MOL0     H66127   4.360   5.222   3.313 -0.4857 -1.0957  1.8766
  490MOL0     H66128   4.510   5.019   3.145 -0.7697 -0.4932 -0.5571
  490MOL0     H66129   4.589   5.066   3.299 -1.2128  0.2266  2.1265
  490MOL0     H66130   4.541   5.239   3.059  2.4720 -1.7701 -1.9044
  490MOL0     H66131   4.692   5.163   3.117 -0.2722 -1.8897 -0.8810
  490MOL0     H66132   3.633   5.127   3.362  1.5917  0.9621 -2.8799
  490MOL0     H66133   3.453   5.099   3.237  0.5526  0.8496  2.3905
  490MOL0     H66134   3.116   4.696   3.126  0.3522 -1.1873 -0.3608
  490MOL0     H66135   2.954   4.590   2.952  0.3076  0.1821  1.4545
  490MOL0     H66136   2.726   3.214   3.278 -0.0119 -0.6339  0.4344
  490MOL0     H66137   2.767   2.963   3.318  0.3025  0.6953  3.3663
  490MOL0     H66138   2.925   2.629   3.351  2.9839 -0.3785 -0.4460
  490MOL0     H66139   2.933   2.387   3.413  1.1214  1.2276  0.0897
  490MOL0     H66140   2.950   2.176   3.462  3.4549 -0.2658  0.8459
  490MOL0     H66141   2.969   2.026   3.389  0.2193 -0.5013  0.1924
  490MOL0     H66142   3.177   2.244   3.341 -0.6152  0.7020 -0.8123
  490MOL0     H66143   3.196   2.079   3.324  1.9531  1.1288 -0.7040
  490MOL0     H66144   3.113   2.062   3.580 -2.2477  1.0830 -0.8851
  490MOL0     H66145   3.138   2.230   3.579 -1.9544  0.1282 -2.7009
  490MOL0     H66146   3.368   2.219   3.561  3.6484 -1.8455 -0.7370
  490MOL0     H66147   3.367   2.058   3.487  3.3985  3.8251 -0.8154
  490MOL0     H66148   3.448   1.976   3.893  2.0165  4.0517  0.4718
  490MOL0     H66149   2.954   2.278   3.006 -3.1351 -1.2124  0.8648
  490MOL0     H66150   2.979   2.516   2.940 -2.6732  0.8851  0.0078
  491MOL0     O66151   3.171   6.563  10.358 -0.2363  0.0114 -0.0097
  491MOL0     C66152   3.091   6.464  10.375 -0.1702  0.0718 -0.7756
  491MOL0     O66153   3.095   6.378  10.480  0.0561  0.1704 -0.1243
  491MOL0     C66154   3.209   6.383  10.561  1.0908 -0.1401 -0.1384
  491MOL0     C66155   3.228   6.482  10.647 -0.2063 -0.5404 -0.1708
  491MOL0     C66156   3.343   6.471  10.733 -0.6402 -0.6364  0.7754
  491MOL0     C66157   3.437   6.363  10.716 -0.4902  0.1628 -0.0734
  491MOL0     O66158   3.537   6.331  10.813  0.4629 -0.1935  0.7574
  491MOL0     C66159   3.643   6.240  10.766 -0.1098  0.2328 -1.0390
  491MOL0     C66160   3.746   6.247  10.878 -0.4165  1.2976 -0.6473
  491MOL0     C66161   3.853   6.142  10.855  0.2641  0.0747 -0.4078
  491MOL0     C66162   3.926   6.116  10.988  0.1560  0.1235  0.4798
  491MOL0     C66163   4.047   6.020  10.981 -0.4163 -0.4147 -0.0140
  491MOL0     C66164   3.995   5.886  10.937 -0.4643  0.6220 -0.1320
  491MOL0     C66165   3.983   5.795  11.051  0.8175 -0.1303 -0.0450
  491MOL0     C66166   3.891   5.675  11.031  0.1315 -0.4179  0.0031
  491MOL0     N66167   3.750   5.719  11.012  0.0615  0.2965  0.4828
  491MOL0     C66168   3.672   5.807  11.087 -0.2686  0.5939  0.0839
  491MOL0     C66169   3.571   5.841  11.003  0.5538 -0.4791  0.8629
  491MOL0     C66170   3.467   5.954  11.011 -0.4379  0.3393  0.6585
  491MOL0     C66171   3.485   6.057  11.118  0.4752  0.3742 -0.1072
  491MOL0     C66172   3.419   6.006  11.252  0.3656 -1.4056  0.6787
  491MOL0     C66173   3.475   6.041  11.392  0.9784  0.2177 -0.5503
  491MOL0     O66174   3.571   5.952  11.434 -0.7019  0.2392 -0.7265
  491MOL0     C66175   3.648   5.981  11.545 -0.9222  0.0370 -0.4763
  491MOL0     C66176   3.650   6.086  11.635  0.4673 -0.6853 -0.3666
  491MOL0     C66177   3.741   6.091  11.744  1.0479  0.9952  0.3067
  491MOL0     C66178   3.728   6.220  11.831 -0.5354  0.3913  0.1342
  491MOL0     C66179   3.839   5.993  11.751 -0.6731  0.3662  0.8205
  491MOL0     C66180   3.936   5.997  11.851  0.0567 -0.0375  0.4764
  491MOL0     O66181   4.059   5.956  11.811  0.7835  0.8375  0.0769
  491MOL0     C66182   4.144   5.910  11.907  0.1972 -0.1487 -0.2355
  491MOL0     C66183   4.282   5.923  11.898 -0.0627 -0.1698  0.3378
  491MOL0     C66184   4.368   5.847  11.977  0.6182  0.0649 -0.2790
  491MOL0     C66185   4.315   5.776  12.088  0.9439 -0.0004 -0.6389
  491MOL0     O66186   4.406   5.719  12.176  0.7189 -0.5459 -0.4985
  491MOL0     C66187   4.350   5.637  12.279 -0.5562  0.7319  0.4855
  491MOL0     C66188   4.460   5.559  12.346 -0.9575 -0.5829 -0.0695
  491MOL0     C66189   4.567   5.489  12.264  0.7307  0.0837 -0.0259
  491MOL0     C66190   4.501   5.387  12.168 -0.3789  0.0310 -0.1334
  491MOL0     C66191   4.442   5.260  12.234  0.4560 -1.0629 -0.3841
  491MOL0     C66192   4.399   5.161  12.132  0.1087  0.1891 -0.6725
  491MOL0     C66193   4.475   5.035  12.100 -0.6536  0.5788 -0.1256
  491MOL0     C66194   4.581   5.055  11.992 -0.1948 -0.0162  0.5293
  491MOL0    Cl66195   4.503   5.048  11.823  0.2189 -0.0820 -0.2156
  491MOL0     C66196   4.174   5.778  12.102 -0.1495 -1.2679  0.4384
  491MOL0     C66197   4.086   5.831  12.011 -0.9289 -0.6539 -0.1031
  491MOL0     O66198   3.895   6.047  11.959  0.8383  0.1803  0.1520
  491MOL0     C66199   3.851   5.897  11.649 -0.8572 -0.1105  0.5258
  491MOL0     C66200   3.759   5.888  11.551 -0.2653 -0.0041 -0.0904
  491MOL0     N66201   3.592   5.779  10.881  0.1148 -0.4919  0.9371
  491MOL0     N66202   3.687   5.702  10.890 -0.0288  1.1102  0.0727
  491MOL0     C66203   3.409   6.267  10.619  1.7043  0.3375 -0.0482
  491MOL0     C66204   3.292   6.272  10.546  0.1555 -1.2623 -0.2421
  491MOL0     C66205   2.976   6.469  10.281  0.2500  0.3310 -0.6881
  491MOL0     C66206   2.849   6.439  10.320 -0.9414  0.2956  0.6324
  491MOL0     C66207   2.750   6.437  10.222  0.7198  0.2807 -0.2736
  491MOL0     C66208   2.778   6.459  10.084 -0.0515 -0.7378  0.2110
  491MOL0     O66209   2.657   6.463  10.008 -0.0012 -0.0187  0.3352
  491MOL0     C66210   2.652   6.512   9.871 -0.7071  0.1663  0.0302
  491MOL0     C66211   2.518   6.506   9.805 -0.5010  0.7441  0.2509
  491MOL0     C66212   2.413   6.596   9.868 -0.4794 -0.3270  0.0890
  491MOL0     C66213   2.279   6.579   9.798  0.5225 -0.0078 -0.5476
  491MOL0     C66214   2.283   6.636   9.664 -0.1890  0.0638  1.0507
  491MOL0     C66215   2.270   6.676   9.549 -0.4074  0.5498  0.7461
  491MOL0     C66216   2.906   6.498  10.039 -0.5991  0.1341  0.0939
  491MOL0     C66217   3.002   6.505  10.144  0.0620 -0.0409 -0.1893
  491MOL0     H66218   3.149   6.554  10.663 -0.3798 -0.8278  0.2830
  491MOL0     H66219   3.364   6.540  10.814  0.4413  0.1430 -0.1353
  491MOL0     H66220   3.596   6.143  10.748  0.0903  0.0532 -0.6104
  491MOL0     H66221   3.698   6.263  10.674 -1.8321  1.4114 -1.8190
  491MOL0     H66222   3.779   6.351  10.892 -1.8376  1.7342 -0.4028
  491MOL0     H66223   3.691   6.227  10.969  1.3965 -1.7264 -0.0966
  491MOL0     H66224   3.806   6.053  10.811 -1.4086  2.3932 -3.6923
  491MOL0     H66225   3.923   6.186  10.784  0.1917 -1.4194 -1.4354
  491MOL0     H66226   3.962   6.215  11.017 -0.2512  0.6828 -0.8478
  491MOL0     H66227   3.863   6.080  11.069 -0.3401 -2.4661 -0.9352
  491MOL0     H66228   4.121   6.038  10.902 -1.4381 -3.7352 -1.9263
  491MOL0     H66229   4.100   6.019  11.077  1.0317  1.3373 -0.7473
  491MOL0     H66230   3.901   5.886  10.881 -0.2636 -1.5942 -0.5597
  491MOL0     H66231   4.074   5.844  10.873 -0.1226 -0.9949  1.2803
  491MOL0     H66232   4.075   5.747  11.084 -0.0606 -0.0248  2.8946
  491MOL0     H66233   3.928   5.845  11.131 -1.7423  0.6564 -2.1476
  491MOL0     H66234   3.889   5.608  11.117  2.1966  2.6342  2.6979
  491MOL0     H66235   3.930   5.617  10.947 -0.2859 -0.9616  0.1771
  491MOL0     H66236   3.685   5.844  11.188  0.7245  1.6907 -0.4233
  491MOL0     H66237   3.452   5.997  10.912 -0.5303 -3.3031 -1.0693
  491MOL0     H66238   3.374   5.903  11.038 -0.7979  1.7736  2.3589
  491MOL0     H66239   3.436   6.146  11.076 -0.3005 -0.5553 -1.2465
  491MOL0     H66240   3.588   6.090  11.128  1.4331 -2.6600  1.0228
  491MOL0     H66241   3.400   5.899  11.244 -0.9626 -1.0262 -3.2275
  491MOL0     H66242   3.323   6.057  11.248  0.4379 -1.2391 -3.3419
  491MOL0     H66243   3.390   6.050  11.460  2.1305  2.0741  0.7417
  491MOL0     H66244   3.517   6.143  11.390  1.3930  0.0411 -1.6536
  491MOL0     H66245   3.576   6.165  11.644  1.9388  0.8909 -1.4001
  491MOL0     H66246   3.691   6.293  11.758 -0.4249 -1.7587 -2.2046
  491MOL0     H66247   3.657   6.200  11.911 -1.2475  1.4086 -0.2199
  491MOL0     H66248   3.823   6.253  11.876 -0.6232  0.8789 -0.0252
  491MOL0     H66249   4.336   5.978  11.821 -0.2134  2.8697  2.2508
  491MOL0     H66250   4.475   5.855  11.961  0.1794  1.7645 -3.0910
  491MOL0     H66251   4.278   5.682  12.347 -1.9300 -0.0516 -0.4132
  491MOL0     H66252   4.294   5.555  12.233 -0.4505  0.8456  0.1569
  491MOL0     H66253   4.515   5.625  12.414 -0.8998 -1.1386  0.4293
  491MOL0     H66254   4.422   5.482  12.414 -0.5846 -1.2361 -0.5921
  491MOL0     H66255   4.634   5.439  12.334 -0.8045  0.8979  2.1500
  491MOL0     H66256   4.615   5.566  12.203 -3.0146  0.2809 -3.1573
  491MOL0     H66257   4.426   5.432  12.101  0.1946 -0.3286 -1.0381
  491MOL0     H66258   4.587   5.358  12.107  0.6259  0.7039  0.9050
  491MOL0     H66259   4.354   5.290  12.293 -0.1701 -0.2640 -1.6639
  491MOL0     H66260   4.513   5.219  12.306  0.3624 -3.1778 -1.4251
  491MOL0     H66261   4.301   5.122  12.161 -0.7332  3.1720  0.9244
  491MOL0     H66262   4.395   5.211  12.035  2.0280  1.9882  0.1014
  491MOL0     H66263   4.405   4.954  12.077  0.8341 -1.0569  0.7788
  491MOL0     H66264   4.532   5.001  12.187 -2.2242 -1.5070  0.1786
  491MOL0     H66265   4.642   4.964  11.993  0.0746  0.1447 -0.2696
  491MOL0     H66266   4.639   5.148  11.998  1.1062 -0.5090 -2.4365
  491MOL0     H66267   4.137   5.712  12.180  2.1330 -2.6343  0.4501
  491MOL0     H66268   3.980   5.807  12.007 -2.1357  3.8185 -0.7928
  491MOL0     H66269   3.927   5.819  11.646 -1.9961 -1.2681  0.5040
  491MOL0     H66270   3.785   5.811  11.478  1.2445 -0.0123  0.4297
  491MOL0     H66271   3.473   6.186  10.586 -0.4161 -0.7545 -1.7468
  491MOL0     H66272   3.277   6.206  10.462  3.9835 -0.8569 -1.4334
  491MOL0     H66273   2.832   6.396  10.418 -1.3732  1.3001  1.0121
  491MOL0     H66274   2.644   6.435  10.249  0.4760 -0.9723 -1.2269
  491MOL0     H66275   2.702   6.609   9.867  4.3676 -2.1466  0.3888
  491MOL0     H66276   2.719   6.453   9.807  0.7547  3.1452 -1.3806
  491MOL0     H66277   2.474   6.406   9.797 -1.2715  1.1084 -0.2500
  491MOL0     H66278   2.532   6.533   9.700  1.3025 -3.1886 -0.6839
  491MOL0     H66279   2.456   6.697   9.873 -0.7198 -0.2385  0.3625
  491MOL0     H66280   2.398   6.565   9.972 -1.4907 -0.5182 -0.1026
  491MOL0     H66281   2.219   6.643   9.863  0.7388 -0.0502 -0.3059
  491MOL0     H66282   2.235   6.479   9.803 -1.1498  0.6998 -0.5404
  491MOL0     H66283   2.258   6.695   9.444 -2.0632 -1.0071  0.6052
  491MOL0     H66284   2.922   6.506   9.932  0.5847 -1.7996  0.0775
  491MOL0     H66285   3.108   6.517  10.126 -0.1606  1.4590 -0.6194
  492MOL0     O66286   7.024   9.644   2.968 -0.0938 -0.5414  0.1742
  492MOL0     C66287   6.965   9.547   3.010  0.7783  0.0336 -0.6234
  492MOL0     O66288   6.826   9.533   3.018 -0.1005 -0.1810 -0.3396
  492MOL0     C66289   6.750   9.640   2.987  0.1852  0.2742  0.2349
  492MOL0     C66290   6.775   9.766   3.036  0.3020 -0.2483  0.7640
  492MOL0     C66291   6.700   9.877   2.995  0.0008  0.2836  0.1818
  492MOL0     C66292   6.594   9.854   2.913  0.0165  0.3497 -0.9522
  492MOL0     O66293   6.513   9.961   2.886 -0.9885 -0.1632  0.8186
  492MOL0     C66294   6.570  10.056   2.795  1.2510  0.1712 -0.5190
  492MOL0     C66295   6.487  10.180   2.795 -0.1951 -1.1491  0.1336
  492MOL0     C66296   6.354  10.176   2.710 -0.0980  0.3082 -0.1466
  492MOL0     C66297   6.264  10.301   2.722 -0.1117 -0.6485 -0.9441
  492MOL0     C66298   6.125  10.276   2.672  0.2253 -0.3742  0.0711
  492MOL0     C66299   6.030  10.342   2.772 -0.5986  0.4713  0.8091
  492MOL0     C66300   5.886  10.320   2.744 -0.3506 -0.2790  0.7359
  492MOL0     C66301   5.803  10.439   2.812 -0.2539  0.1872  0.0352
  492MOL0     N66302   5.658  10.428   2.793 -0.0842  1.0454  0.0929
  492MOL0     C66303   5.591  10.313   2.738 -0.4851 -0.1022 -0.7172
  492MOL0     C66304   5.466  10.341   2.771 -0.5759  0.4354  0.0079
  492MOL0     C66305   5.340  10.254   2.771 -0.6772  0.2198  0.1799
  492MOL0     C66306   5.339  10.155   2.653  0.5351  0.8548 -1.1718
  492MOL0     C66307   5.319  10.228   2.516 -0.1354  0.6598 -0.0045
  492MOL0     C66308   5.351  10.141   2.393 -0.0425  0.5199 -0.0428
  492MOL0     O66309   5.294  10.011   2.399  0.0905 -0.0720  0.3781
  492MOL0     C66310   5.161   9.989   2.366  0.0760 -0.0403 -0.2464
  492MOL0     C66311   5.122   9.857   2.370  0.7099  0.1327 -0.1855
  492MOL0     C66312   5.000   9.814   2.323  1.3750  0.9446  0.0590
  492MOL0     C66313   4.971   9.661   2.327 -0.2198 -0.1091 -1.7043
  492MOL0     C66314   4.895   9.902   2.287 -0.1320  0.0433  0.0689
  492MOL0     C66315   4.751   9.869   2.257 -0.4467  0.2039  0.0764
  492MOL0     O66316   4.719   9.739   2.210 -0.3149 -0.7711  0.6598
  492MOL0     C66317   4.588   9.710   2.174 -0.3314 -1.8057 -0.0892
  492MOL0     C66318   4.530   9.789   2.072 -0.0437  0.3937  0.0112
  492MOL0     C66319   4.397   9.759   2.028 -0.2178 -0.4102 -0.5060
  492MOL0     C66320   4.324   9.651   2.085 -0.3968 -0.1820 -0.0446
  492MOL0     O66321   4.195   9.620   2.043 -0.4564 -0.4310  0.3703
  492MOL0     C66322   4.096   9.561   2.130  0.7997  0.2951 -0.6756
  492MOL0     C66323   3.973   9.546   2.046  1.0121 -0.2306 -0.7302
  492MOL0     C66324   3.981   9.425   1.955  0.2346  0.5863  0.0739
  492MOL0     C66325   3.858   9.388   1.862 -0.2504 -0.0109  0.7787
  492MOL0     C66326   3.869   9.253   1.791 -0.1318  0.0497 -0.2668
  492MOL0     C66327   3.992   9.232   1.694 -0.0620 -0.2618  0.7946
  492MOL0     C66328   3.997   9.090   1.645 -0.5325  0.1156 -0.3338
  492MOL0     C66329   4.121   9.056   1.561  0.1453 -0.9171  0.6519
  492MOL0    Cl66330   4.117   9.149   1.405 -0.0834 -0.1518  0.5018
  492MOL0     C66331   4.385   9.582   2.187  0.3655 -0.9906  0.3815
  492MOL0     C66332   4.508   9.605   2.225 -0.2778 -0.0231  1.1470
  492MOL0     O66333   4.670   9.956   2.274 -0.4586  0.3810 -0.0052
  492MOL0     C66334   4.933  10.037   2.290  0.0608 -0.4816 -0.2474
  492MOL0     C66335   5.064  10.081   2.322  0.8675 -0.0659 -1.1234
  492MOL0     N66336   5.459  10.455   2.848 -0.2907 -0.2306 -0.9428
  492MOL0     N66337   5.573  10.512   2.854 -0.1700 -0.0643  0.6680
  492MOL0     C66338   6.563   9.726   2.864 -0.5172  0.2123  0.3135
  492MOL0     C66339   6.637   9.620   2.906  0.1470 -0.2644 -0.5809
  492MOL0     C66340   7.049   9.435   3.059 -0.0529  0.1199 -0.8324
  492MOL0     C66341   7.183   9.441   3.071 -0.7846 -0.7437 -0.2567
  492MOL0     C66342   7.262   9.355   3.137 -0.1691  0.2120  0.2673
  492MOL0     C66343   7.206   9.242   3.200  0.6136  0.0160  1.1399
  492MOL0     O66344   7.296   9.150   3.254 -0.3942 -0.3078  0.7282
  492MOL0     C66345   7.278   9.109   3.384  0.9557 -0.0208  0.0708
  492MOL0     C66346   7.426   9.061   3.414  0.2001 -0.2508 -0.7935
  492MOL0     C66347   7.514   9.182   3.426 -0.3741 -0.3131 -0.7969
  492MOL0     C66348   7.661   9.142   3.486  0.0835 -0.0106 -0.3009
  492MOL0     C66349   7.738   9.269   3.524  0.0822  1.3907 -0.4456
  492MOL0     C66350   7.813   9.354   3.570 -0.3003  0.3310 -0.7976
  492MOL0     C66351   7.067   9.223   3.207  0.1620 -1.3177 -0.0321
  492MOL0     C66352   6.991   9.323   3.135 -0.7500 -0.4919 -0.2620
  492MOL0     H66353   6.861   9.789   3.097 -0.1124  1.4395  0.7590
  492MOL0     H66354   6.721   9.979   3.026 -0.8158 -0.6960  4.6628
  492MOL0     H66355   6.672  10.082   2.823  1.6152  3.4970 -4.1126
  492MOL0     H66356   6.574  10.008   2.697  2.1127 -1.7162  0.3894
  492MOL0     H66357   6.470  10.214   2.898  1.0792  1.8648 -0.5612
  492MOL0     H66358   6.544  10.248   2.731 -0.5603 -2.6290 -1.8668
  492MOL0     H66359   6.378  10.153   2.606  2.1369  2.5365 -0.1999
  492MOL0     H66360   6.305  10.087   2.752  4.3442 -2.8266 -0.9359
  492MOL0     H66361   6.270  10.337   2.825 -2.8451 -0.3030 -0.8342
  492MOL0     H66362   6.319  10.380   2.669 -1.6122  2.1855  1.4790
  492MOL0     H66363   6.110  10.307   2.568 -1.4709 -1.7035 -0.1367
  492MOL0     H66364   6.100  10.170   2.681 -1.2741  0.0939  2.2244
  492MOL0     H66365   6.052  10.323   2.878  0.9460  3.0582  1.0450
  492MOL0     H66366   6.046  10.450   2.762 -1.5418  0.6941  1.5264
  492MOL0     H66367   5.877  10.338   2.637 -0.6354  2.7648  1.1687
  492MOL0     H66368   5.862  10.219   2.778 -2.5286  0.4750  1.6555
  492MOL0     H66369   5.827  10.535   2.765  0.1202 -0.1486 -0.4736
  492MOL0     H66370   5.832  10.432   2.917  2.6558 -2.4669 -0.7716
  492MOL0     H66371   5.632  10.224   2.692 -0.2565 -0.0004 -0.7116
  492MOL0     H66372   5.333  10.197   2.864  1.0113  4.8691  3.5685
  492MOL0     H66373   5.243  10.306   2.769  0.0166  1.5616 -1.3721
  492MOL0     H66374   5.260  10.081   2.668 -1.7544  2.9192 -2.2196
  492MOL0     H66375   5.430  10.095   2.648  1.2989  2.0611 -2.5198
  492MOL0     H66376   5.373  10.322   2.507 -1.8397  1.8334  1.3790
  492MOL0     H66377   5.212  10.250   2.522  0.4697  3.5393  2.3438
  492MOL0     H66378   5.457  10.120   2.377 -0.1490 -1.2333  1.3040
  492MOL0     H66379   5.313  10.190   2.302  1.2556  0.9755 -0.3635
  492MOL0     H66380   5.191   9.791   2.420 -0.8994  0.3202  2.4684
  492MOL0     H66381   5.060   9.610   2.365  0.5191  0.3226 -2.7949
  492MOL0     H66382   4.893   9.650   2.402  1.5645  0.4578  0.3297
  492MOL0     H66383   4.947   9.613   2.232 -0.9726 -2.2790 -0.4704
  492MOL0     H66384   4.587   9.864   2.019  1.1792 -1.1238 -0.9308
  492MOL0     H66385   4.366   9.809   1.937  0.5925  0.3761 -0.3662
  492MOL0     H66386   4.117   9.471   2.189 -2.5263  1.1902  2.2708
  492MOL0     H66387   4.078   9.645   2.198  0.6335  1.0548 -1.6335
  492MOL0     H66388   3.894   9.551   2.121  2.3436  1.5290  0.6632
  492MOL0     H66389   3.962   9.631   1.977 -3.4819  0.0900  0.0812
  492MOL0     H66390   3.993   9.335   2.017  0.0141  1.2686  1.1371
  492MOL0     H66391   4.075   9.436   1.902  1.4234 -1.0354  1.7125
  492MOL0     H66392   3.766   9.383   1.922 -0.2744 -1.9073  0.6295
  492MOL0     H66393   3.846   9.477   1.800  1.2385  0.1041  0.6231
  492MOL0     H66394   3.781   9.230   1.730  0.5720  1.5243 -1.9003
  492MOL0     H66395   3.873   9.182   1.875 -0.4357 -0.0573 -0.3404
  492MOL0     H66396   3.959   9.289   1.606 -1.6396 -0.7396  1.0493
  492MOL0     H66397   4.082   9.271   1.743  0.8054 -3.8329  2.3537
  492MOL0     H66398   3.900   9.058   1.605 -0.4713 -0.3864 -0.0811
  492MOL0     H66399   4.003   9.019   1.727  0.4385 -1.6994 -1.8849
  492MOL0     H66400   4.122   8.950   1.531 -1.8359 -0.5365 -1.0271
  492MOL0     H66401   4.201   9.083   1.630 -2.8727  1.5775  3.4659
  492MOL0     H66402   4.326   9.518   2.251 -0.8983 -0.1345  0.1186
  492MOL0     H66403   4.549   9.539   2.301  0.3113  0.7789  1.5391
  492MOL0     H66404   4.869  10.120   2.262 -0.1666  0.0937  1.8102
  492MOL0     H66405   5.088  10.186   2.308 -0.1378  0.1515 -1.2653
  492MOL0     H66406   6.476   9.707   2.801 -0.8999 -4.0749  1.8133
  492MOL0     H66407   6.593   9.524   2.881 -2.3856  1.2623 -2.5973
  492MOL0     H66408   7.221   9.532   3.026 -0.3489 -0.6549  0.2723
  492MOL0     H66409   7.370   9.355   3.127 -0.3155  0.8830 -2.1229
  492MOL0     H66410   7.252   9.186   3.457  1.1025 -0.8411  1.0160
  492MOL0     H66411   7.210   9.024   3.381 -0.0002  0.7507 -1.9646
  492MOL0     H66412   7.462   9.000   3.330  0.5043 -0.7058 -0.3380
  492MOL0     H66413   7.442   9.011   3.510 -2.6680  0.1092 -0.0318
  492MOL0     H66414   7.472   9.264   3.486  1.5923  0.6283 -0.6187
  492MOL0     H66415   7.530   9.217   3.324 -0.5704  1.2208 -0.3407
  492MOL0     H66416   7.716   9.087   3.409  1.1725  0.3690  0.1778
  492MOL0     H66417   7.662   9.073   3.571  0.9320 -1.8833 -1.7414
  492MOL0     H66418   7.871   9.437   3.606  4.1792 -1.9063 -2.0477
  492MOL0     H66419   7.009   9.140   3.247 -3.1230 -0.0369 -1.6947
  492MOL0     H66420   6.885   9.305   3.121 -1.0208  0.9227 -0.1878
  493MOL0     O66421  10.645   1.881   0.132 -1.0448 -0.5253 -0.3217
  493MOL0     C66422  10.726   1.804   0.086 -0.5404 -0.6387 -0.3139
  493MOL0     O66423  10.715   1.674   0.079 -0.2030  0.6030 -0.0326
  493MOL0     C66424  10.607   1.609   0.140 -1.0324  0.4337  0.9956
  493MOL0     C66425  10.634   1.525   0.249  0.0254 -0.0658 -0.8246
  493MOL0     C66426  10.539   1.463   0.322  0.2727 -0.6556 -0.6907
  493MOL0     C66427  10.405   1.483   0.278  0.5613  1.1478  0.1112
  493MOL0     O66428  10.304   1.414   0.341  0.6295 -0.4918  0.1981
  493MOL0     C66429  10.320   1.335   0.455 -0.0672  0.1705  0.1194
  493MOL0     C66430  10.370   1.194   0.416  0.2297 -1.0667 -0.2912
  493MOL0     C66431  10.262   1.091   0.431  0.5393 -0.4235 -1.3590
  493MOL0     C66432  10.148   1.097   0.336 -0.4017  0.5113 -0.5290
  493MOL0     C66433  10.026   1.015   0.365 -0.5948  0.1140 -0.7689
  493MOL0     C66434   9.915   1.039   0.259 -0.0419  0.3135  0.0396
  493MOL0     C66435   9.813   0.924   0.236  0.1689 -0.5571  0.2908
  493MOL0     C66436   9.709   0.885   0.353  0.1215  0.4193  0.1234
  493MOL0     N66437   9.617   0.780   0.309 -0.0650 -0.5561 -0.4245
  493MOL0     C66438   9.642   0.653   0.272 -0.1457  0.2101  0.0714
  493MOL0     C66439   9.521   0.600   0.244 -0.0057 -0.6837 -0.1793
  493MOL0     C66440   9.498   0.451   0.206 -0.5710 -0.2313 -0.3435
  493MOL0     C66441   9.377   0.400   0.295  0.7360 -0.6221 -0.7956
  493MOL0     C66442   9.318   0.262   0.245 -0.2675  1.0822  0.1698
  493MOL0     C66443   9.175   0.243   0.297 -0.8028 -0.5705  1.0159
  493MOL0     O66444   9.135   0.305   0.420 -0.3979 -0.6361 -0.1057
  493MOL0     C66445   9.136   0.235   0.533 -0.3079  1.0284 -0.2150
  493MOL0     C66446   9.187   0.102   0.559  0.2260 -0.0446  0.0887
  493MOL0     C66447   9.171   0.044   0.685 -0.0235  0.3404 -0.2437
  493MOL0     C66448   9.214  -0.096   0.702  0.1299  0.6941 -0.4288
  493MOL0     C66449   9.104   0.115   0.791 -0.8866  0.1562  0.3217
  493MOL0     C66450   9.064   0.056   0.926  0.1746 -0.5190  0.2731
  493MOL0     O66451   8.998   0.142   1.017 -0.5034 -0.0089 -0.4772
  493MOL0     C66452   8.976   0.091   1.141 -0.3966 -0.7415  0.8248
  493MOL0     C66453   9.078   0.111   1.230  0.1523  0.5144 -0.4539
  493MOL0     C66454   9.053   0.064   1.363 -0.6142  0.3475 -0.0429
  493MOL0     C66455   8.933  -0.005   1.386  0.1803 -0.7648 -0.1680
  493MOL0     O66456   8.905  -0.033   1.518  0.7473  0.5128  0.3591
  493MOL0     C66457   8.921  -0.178   1.541 -0.1583  0.7208 -0.5508
  493MOL0     C66458   8.818  -0.241   1.647  0.7452 -0.1123 -0.0067
  493MOL0     C66459   8.834  -0.183   1.784  0.5479  0.2580  0.6867
  493MOL0     C66460   8.799  -0.285   1.897  0.4873 -0.4684 -0.9714
  493MOL0     C66461   8.839  -0.245   2.031 -0.9876  0.2653 -1.3408
  493MOL0     C66462   8.812  -0.355   2.137  0.1808  0.6376  0.0236
  493MOL0     C66463   8.850  -0.303   2.277 -1.2700  0.4858 -0.2085
  493MOL0     C66464   8.894  -0.421   2.371 -0.3298 -0.5661 -0.0526
  493MOL0    Cl66465   9.046  -0.487   2.306 -0.5902  0.3717  0.2189
  493MOL0     C66466   8.837  -0.032   1.298  0.1287  0.1535 -0.1134
  493MOL0     C66467   8.859   0.023   1.172  1.0365 -0.7792 -0.2536
  493MOL0     O66468   9.098  -0.056   0.961 -0.3418 -0.4023 -0.8909
  493MOL0     C66469   9.073   0.253   0.765  0.5320  0.2340  0.0823
  493MOL0     C66470   9.095   0.306   0.640 -0.0599 -1.0151 -1.1335
  493MOL0     N66471   9.430   0.697   0.268  1.3200  0.2699  0.6909
  493MOL0     N66472   9.480   0.793   0.328 -0.7545  0.6507 -0.8428
  493MOL0     C66473  10.384   1.555   0.163  1.0715  0.1062 -0.8228
  493MOL0     C66474  10.478   1.628   0.091  1.0017  0.0386  0.2624
  493MOL0     C66475  10.834   1.871   0.013 -0.0300  0.6795 -0.1469
  493MOL0     C66476  10.854   2.011  -0.010  0.0218 -1.2916 -0.8316
  493MOL0     C66477  10.959   2.049  -0.093 -0.6534 -0.3632 -0.5883
  493MOL0     C66478  11.064   1.965  -0.131  0.0302  0.2980 -0.2913
  493MOL0     O66479  11.169   2.020  -0.200 -0.8857  0.4801 -0.4007
  493MOL0     C66480  11.278   1.955  -0.267 -0.2412 -0.3791 -0.3172
  493MOL0     C66481  11.233   1.908  -0.405  0.7064  0.7431  0.6874
  493MOL0     C66482  11.183   2.018  -0.505 -0.5435 -0.3385  0.2319
  493MOL0     C66483  11.290   2.076  -0.594  0.5423 -1.0065 -0.1362
  493MOL0     C66484  11.365   1.985  -0.678 -0.6209  0.6859  0.2386
  493MOL0     C66485  11.414   1.897  -0.747 -0.0018 -0.1469 -0.1969
  493MOL0     C66486  11.049   1.831  -0.093 -1.0177  0.1071 -0.3444
  493MOL0     C66487  10.939   1.785  -0.022 -0.2016  0.2974  0.0816
  493MOL0     H66488  10.734   1.495   0.280 -0.8751 -0.0689  2.4315
  493MOL0     H66489  10.565   1.404   0.409  1.0393  0.7103  0.0404
  493MOL0     H66490  10.397   1.375   0.521  3.0048 -2.8906 -1.3026
  493MOL0     H66491  10.225   1.328   0.508  0.7044 -0.5305  1.4695
  493MOL0     H66492  10.396   1.198   0.310 -1.6926  1.4543 -0.7748
  493MOL0     H66493  10.452   1.164   0.482  0.7715  0.9627  0.0265
  493MOL0     H66494  10.311   0.993   0.428 -0.3334 -0.9353  0.1248
  493MOL0     H66495  10.212   1.103   0.528 -2.9341 -4.0338 -2.4302
  493MOL0     H66496  10.122   1.203   0.338 -2.5390  0.0273 -0.8409
  493MOL0     H66497  10.184   1.069   0.236  0.1593 -1.5857  0.2162
  493MOL0     H66498  10.060   0.911   0.370  3.2441  1.1618 -1.2963
  493MOL0     H66499   9.979   1.036   0.461  0.7087  1.0994 -0.3110
  493MOL0     H66500   9.863   1.134   0.274 -1.2154 -0.3243  0.1244
  493MOL0     H66501   9.967   1.041   0.162 -0.4305 -2.1838 -0.2763
  493MOL0     H66502   9.750   0.959   0.154  2.8729  0.2808 -1.5553
  493MOL0     H66503   9.879   0.848   0.194  1.9127  1.4435 -0.8064
  493MOL0     H66504   9.648   0.974   0.374 -2.3463 -1.5238  1.7740
  493MOL0     H66505   9.764   0.844   0.437  1.3758 -1.1906 -1.3960
  493MOL0     H66506   9.729   0.590   0.258 -1.6934 -1.5912 -2.2331
  493MOL0     H66507   9.463   0.451   0.102 -1.7072  0.8552  0.0137
  493MOL0     H66508   9.582   0.383   0.223 -2.0615 -2.0281  0.0391
  493MOL0     H66509   9.298   0.475   0.290  0.8110 -0.2810  1.9390
  493MOL0     H66510   9.405   0.393   0.400  2.1253  2.9164 -0.7996
  493MOL0     H66511   9.379   0.184   0.292 -1.3960  2.0218  3.5347
  493MOL0     H66512   9.313   0.263   0.136  1.3474  0.8209  0.0716
  493MOL0     H66513   9.142   0.139   0.288 -1.1752 -0.2489 -3.9112
  493MOL0     H66514   9.108   0.288   0.223  2.6538  1.9786 -0.8062
  493MOL0     H66515   9.222   0.041   0.476 -1.6274  0.5099 -1.1685
  493MOL0     H66516   9.141  -0.175   0.725  1.7597 -1.9934 -3.6548
  493MOL0     H66517   9.270  -0.136   0.617  0.8825 -0.6067  0.6253
  493MOL0     H66518   9.280  -0.092   0.789 -0.8101  0.7265  0.3019
  493MOL0     H66519   9.175   0.157   1.212  1.2527 -0.8476  1.6877
  493MOL0     H66520   9.129   0.090   1.437  0.1647 -0.7545 -0.4275
  493MOL0     H66521   8.909  -0.228   1.445 -1.4840  1.5522 -0.8606
  493MOL0     H66522   9.023  -0.196   1.575 -0.8296  1.2602  1.9775
  493MOL0     H66523   8.715  -0.225   1.616  0.2417 -2.8026  0.0528
  493MOL0     H66524   8.831  -0.349   1.647 -3.4327 -0.7599 -0.7057
  493MOL0     H66525   8.783  -0.086   1.787  3.5430  2.1265 -2.0756
  493MOL0     H66526   8.941  -0.159   1.790  0.6564  0.6801 -1.8337
  493MOL0     H66527   8.691  -0.301   1.885  0.0064  2.6658 -1.9280
  493MOL0     H66528   8.851  -0.378   1.876  2.7358 -0.1289  2.2912
  493MOL0     H66529   8.785  -0.153   2.055  3.8941  2.6315  2.6801
  493MOL0     H66530   8.946  -0.220   2.037 -0.6529 -1.4358  2.4399
  493MOL0     H66531   8.706  -0.382   2.134  0.8624 -2.4249  0.5440
  493MOL0     H66532   8.862  -0.446   2.102 -1.0055  0.8329 -2.3389
  493MOL0     H66533   8.758  -0.256   2.314  0.3566  2.5068  1.5226
  493MOL0     H66534   8.931  -0.231   2.284 -0.7386 -0.2605  2.4026
  493MOL0     H66535   8.826  -0.505   2.355 -0.3852 -0.2893 -1.4193
  493MOL0     H66536   8.886  -0.390   2.476 -0.2589  0.9078 -0.4574
  493MOL0     H66537   8.748  -0.085   1.329 -1.4234  2.6186 -0.0896
  493MOL0     H66538   8.780   0.028   1.097  0.1847 -1.3154  0.5834
  493MOL0     H66539   9.040   0.309   0.852  1.7943 -1.1106  1.5060
  493MOL0     H66540   9.077   0.412   0.629  1.1695 -0.2615  2.7253
  493MOL0     H66541  10.280   1.566   0.134  0.1452  0.6133  2.3654
  493MOL0     H66542  10.460   1.699   0.011 -3.5836 -0.5732  0.4871
  493MOL0     H66543  10.792   2.084   0.040  4.0231  1.2064  0.9266
  493MOL0     H66544  10.967   2.157  -0.106  0.1129 -0.2136  0.9109
  493MOL0     H66545  11.348   2.039  -0.262 -2.9136  1.9657  5.0906
  493MOL0     H66546  11.315   1.872  -0.206 -2.3231 -0.6130  0.7099
  493MOL0     H66547  11.152   1.834  -0.406  1.6399 -0.3116  1.2702
  493MOL0     H66548  11.323   1.859  -0.444 -0.7956 -1.8981  0.3005
  493MOL0     H66549  11.136   2.105  -0.458  2.8317  2.4664 -1.0949
  493MOL0     H66550  11.106   1.971  -0.566 -0.5718 -3.2138  2.2622
  493MOL0     H66551  11.376   2.112  -0.538  3.0310 -2.6775 -2.6097
  493MOL0     H66552  11.256   2.161  -0.652  2.7045  0.9383  1.2718
  493MOL0     H66553  11.439   1.828  -0.825 -1.9339  0.0340 -1.0294
  493MOL0     H66554  11.138   1.774  -0.117  0.4618  1.4273  1.6381
  493MOL0     H66555  10.930   1.682   0.011  0.1926  0.2720  0.1062
  494MOL0     O66556  10.638   9.818   9.170  0.0748 -0.0475  0.1534
  494MOL0     C66557  10.715   9.725   9.122  0.3643 -1.4408  0.3960
  494MOL0     O66558  10.678   9.617   9.039 -0.0465 -0.0895 -0.1016
  494MOL0     C66559  10.557   9.606   8.990  1.3217  0.0978 -0.2826
  494MOL0     C66560  10.481   9.718   8.939  0.5208 -0.2027 -0.4096
  494MOL0     C66561  10.341   9.698   8.900  0.3022  0.1255 -0.3156
  494MOL0     C66562  10.277   9.570   8.906 -0.6761 -1.5040  0.4281
  494MOL0     O66563  10.150   9.547   8.892  0.3965  0.2945 -0.1326
  494MOL0     C66564  10.057   9.648   8.871 -0.6289  0.4535 -0.1604
  494MOL0     C66565   9.919   9.574   8.854 -0.4585 -0.7817 -0.1863
  494MOL0     C66566   9.916   9.463   8.744 -0.6712 -0.1661  0.0676
  494MOL0     C66567   9.790   9.377   8.767 -0.0705 -0.6683  0.3370
  494MOL0     C66568   9.764   9.267   8.665  0.5706  0.1169 -1.3291
  494MOL0     C66569   9.615   9.245   8.628  0.0750 -0.1368 -0.2641
  494MOL0     C66570   9.593   9.115   8.558  1.0347  0.0819  0.0770
  494MOL0     C66571   9.660   9.093   8.421  0.4503 -0.7133  0.1566
  494MOL0     N66572   9.585   9.169   8.318  0.2627 -0.6370 -0.1714
  494MOL0     C66573   9.483   9.134   8.234  0.4408  0.3964 -0.8919
  494MOL0     C66574   9.434   9.248   8.174 -0.5432  0.0128 -0.1092
  494MOL0     C66575   9.316   9.251   8.084  0.3823 -0.7107 -0.2761
  494MOL0     C66576   9.178   9.266   8.153  0.3370  0.2982  0.3064
  494MOL0     C66577   9.174   9.396   8.231 -0.0653 -0.5219  0.4096
  494MOL0     C66578   9.052   9.368   8.321 -0.4344 -0.8521 -0.2897
  494MOL0     O66579   9.027   9.488   8.402 -0.6289 -0.1862 -0.4446
  494MOL0     C66580   8.907   9.545   8.424 -0.0345 -0.2092 -0.2079
  494MOL0     C66581   8.876   9.592   8.549 -0.9293 -0.2009 -0.3934
  494MOL0     C66582   8.747   9.623   8.581 -0.5995 -0.4444  0.1418
  494MOL0     C66583   8.737   9.650   8.732 -0.7750  0.3394  0.7059
  494MOL0     C66584   8.645   9.636   8.486  0.8092 -1.2596  0.7498
  494MOL0     C66585   8.499   9.680   8.511 -0.0295  0.0044 -0.6707
  494MOL0     O66586   8.423   9.713   8.399  0.9423 -0.2318 -0.2428
  494MOL0     C66587   8.289   9.749   8.414 -0.5078  0.4413 -0.1481
  494MOL0     C66588   8.253   9.859   8.499  0.0063 -0.7190  0.2099
  494MOL0     C66589   8.116   9.907   8.487  0.7832  0.2122 -0.2092
  494MOL0     C66590   8.017   9.829   8.419  0.0290  0.1902  1.2635
  494MOL0     O66591   7.898   9.884   8.407 -0.7617  0.5280 -0.3248
  494MOL0     C66592   7.793   9.795   8.456  0.6829 -0.4295 -0.4047
  494MOL0     C66593   7.819   9.756   8.610 -0.5466 -1.1745  0.6501
  494MOL0     C66594   7.693   9.674   8.657 -0.0807  1.1024  0.1923
  494MOL0     C66595   7.720   9.515   8.629 -0.3725  0.1593 -0.3930
  494MOL0     C66596   7.601   9.439   8.649  0.6350 -0.1751  0.0835
  494MOL0     C66597   7.554   9.439   8.791 -0.4340  0.2584  1.3725
  494MOL0     C66598   7.645   9.373   8.897  0.2580  0.7589 -0.3915
  494MOL0     C66599   7.561   9.385   9.033 -0.1707  0.1253 -1.1931
  494MOL0    Cl66600   7.643   9.275   9.161 -0.2037 -0.3890 -0.2065
  494MOL0     C66601   8.049   9.708   8.352 -1.2812 -0.0169 -0.1633
  494MOL0     C66602   8.191   9.682   8.344  1.4249  0.2615  0.3348
  494MOL0     O66603   8.450   9.663   8.623  0.3097  0.6081  0.2287
  494MOL0     C66604   8.677   9.596   8.348  0.0461 -0.0868 -0.3176
  494MOL0     C66605   8.807   9.548   8.323 -0.7394  0.2571  0.3447
  494MOL0     N66606   9.508   9.360   8.212 -0.0200  0.2050 -0.5831
  494MOL0     N66607   9.595   9.306   8.294 -0.3036  0.0933  0.2118
  494MOL0     C66608  10.363   9.460   8.926  1.1623  0.0167 -0.1566
  494MOL0     C66609  10.492   9.478   8.967  0.1175  0.3491  1.1993
  494MOL0     C66610  10.844   9.716   9.181  0.7907  0.7625 -0.5346
  494MOL0     C66611  10.948   9.653   9.116 -0.2390 -1.5806  0.3562
  494MOL0     C66612  11.083   9.645   9.172 -1.0016  0.1142  0.3759
  494MOL0     C66613  11.102   9.694   9.301 -0.4136  0.8405  0.1280
  494MOL0     O66614  11.220   9.688   9.377 -0.5236 -0.6163  0.4088
  494MOL0     C66615  11.333   9.669   9.298 -0.2668 -0.2637  0.4030
  494MOL0     C66616  11.357   9.790   9.207 -0.2893  0.2053 -0.5576
  494MOL0     C66617  11.489   9.779   9.128 -0.2361 -0.1629  0.4840
  494MOL0     C66618  11.504   9.918   9.063  0.5557 -0.5642 -0.8740
  494MOL0     C66619  11.431   9.936   8.950  0.2149  0.9921  0.4955
  494MOL0     C66620  11.401   9.934   8.829  0.4983 -0.0705 -0.8895
  494MOL0     C66621  10.999   9.755   9.366  0.8016 -0.2963 -0.2177
  494MOL0     C66622  10.873   9.758   9.314 -0.8462 -1.3546  0.0837
  494MOL0     H66623  10.529   9.815   8.931 -0.0467 -0.0092 -1.6528
  494MOL0     H66624  10.284   9.789   8.884  1.6954  2.2888  5.0395
  494MOL0     H66625  10.060   9.714   8.958 -0.9541  0.2232  0.0208
  494MOL0     H66626  10.078   9.714   8.786 -0.5160 -1.2171 -1.4831
  494MOL0     H66627   9.906   9.528   8.952 -0.5546  0.7734  0.5613
  494MOL0     H66628   9.834   9.638   8.831 -2.1524 -2.5938  0.7888
  494MOL0     H66629   9.900   9.501   8.643 -0.2004 -2.0160 -0.7461
  494MOL0     H66630  10.005   9.399   8.737  0.2571  0.7879  2.1399
  494MOL0     H66631   9.798   9.329   8.865  3.3081  0.1912  0.6273
  494MOL0     H66632   9.700   9.440   8.766  1.0222  0.9576  0.0842
  494MOL0     H66633   9.811   9.288   8.569  0.7855  1.9520 -0.8659
  494MOL0     H66634   9.812   9.179   8.708  0.3063  0.3652 -0.5032
  494MOL0     H66635   9.547   9.244   8.714 -1.5819 -1.2110 -1.5210
  494MOL0     H66636   9.584   9.326   8.561  1.3696  1.6179  1.1489
  494MOL0     H66637   9.615   9.035   8.629  0.5817  2.3848  3.0260
  494MOL0     H66638   9.486   9.094   8.550  1.4966 -2.5004  0.0974
  494MOL0     H66639   9.651   8.986   8.397 -0.8594 -0.2026 -1.8436
  494MOL0     H66640   9.769   9.105   8.417  0.3820  0.4990  1.3111
  494MOL0     H66641   9.441   9.034   8.222 -0.7584  0.9489 -1.5380
  494MOL0     H66642   9.336   9.337   8.020 -0.1116 -0.0649  0.4243
  494MOL0     H66643   9.319   9.164   8.018  1.4580  0.9935 -2.6247
  494MOL0     H66644   9.162   9.172   8.207 -1.6165 -0.1266 -0.9330
  494MOL0     H66645   9.105   9.288   8.075  1.5122  3.6439 -0.0053
  494MOL0     H66646   9.152   9.480   8.165 -3.1865 -1.5556 -0.0281
  494MOL0     H66647   9.257   9.417   8.299  0.0963  2.1296 -0.4986
  494MOL0     H66648   9.071   9.285   8.390  3.1087  0.3692  0.4203
  494MOL0     H66649   8.971   9.340   8.253 -0.0314 -0.0019 -1.1407
  494MOL0     H66650   8.957   9.586   8.622 -0.9229 -0.9750 -0.4526
  494MOL0     H66651   8.633   9.643   8.766 -0.0262 -1.0645  2.8508
  494MOL0     H66652   8.789   9.584   8.801 -0.8153 -1.2563 -0.7183
  494MOL0     H66653   8.766   9.753   8.754 -2.1841  0.7434  0.7648
  494MOL0     H66654   8.326   9.922   8.549 -0.1329  0.7897 -1.4103
  494MOL0     H66655   8.081   9.999   8.533 -0.1020  2.0740 -4.1669
  494MOL0     H66656   7.693   9.838   8.442  0.2990 -0.8315  0.9279
  494MOL0     H66657   7.791   9.703   8.398  0.3703  0.0713 -1.2100
  494MOL0     H66658   7.914   9.703   8.622 -1.7400 -3.4611  0.6460
  494MOL0     H66659   7.822   9.845   8.673 -0.3448  1.1192 -2.4215
  494MOL0     H66660   7.604   9.703   8.600 -1.1909  0.3836  1.4859
  494MOL0     H66661   7.682   9.697   8.763 -0.2871  3.2588 -0.2465
  494MOL0     H66662   7.748   9.513   8.523  2.1538  0.2824  0.2184
  494MOL0     H66663   7.798   9.470   8.691  0.4711  1.5281 -0.4375
  494MOL0     H66664   7.626   9.335   8.625  0.6782  0.4300 -2.8149
  494MOL0     H66665   7.524   9.473   8.580  0.0081 -0.4864  0.6162
  494MOL0     H66666   7.532   9.543   8.820  1.0662  0.7952  0.6753
  494MOL0     H66667   7.465   9.376   8.781  0.3975 -0.8263  0.6971
  494MOL0     H66668   7.745   9.415   8.913 -0.6168  1.8343  3.3653
  494MOL0     H66669   7.660   9.267   8.874 -1.1009  0.2732  0.8425
  494MOL0     H66670   7.457   9.368   9.004 -1.0542  2.2895  0.4074
  494MOL0     H66671   7.563   9.490   9.064 -1.0182 -0.3421  0.5050
  494MOL0     H66672   7.978   9.646   8.299 -0.3167  0.4439 -2.0991
  494MOL0     H66673   8.227   9.589   8.301  1.4958 -0.5352  2.0501
  494MOL0     H66674   8.607   9.591   8.265  2.0968  0.1689 -2.1607
  494MOL0     H66675   8.837   9.510   8.226  1.6316  0.2486  1.0236
  494MOL0     H66676  10.321   9.361   8.913  3.2312 -0.6793 -2.1109
  494MOL0     H66677  10.544   9.383   8.972  2.5891  1.6081  0.9632
  494MOL0     H66678  10.949   9.622   9.012 -1.8179 -3.3574  0.8159
  494MOL0     H66679  11.164   9.598   9.117  1.2016  0.1502  3.3286
  494MOL0     H66680  11.419   9.654   9.363 -0.3469 -0.7997  0.3911
  494MOL0     H66681  11.327   9.588   9.224  1.1602  0.7440 -0.8753
  494MOL0     H66682  11.354   9.878   9.272  2.4130 -1.6656  2.3919
  494MOL0     H66683  11.280   9.802   9.130 -0.5040 -0.4304 -0.4504
  494MOL0     H66684  11.492   9.693   9.061  0.2288 -2.6623  3.4706
  494MOL0     H66685  11.578   9.757   9.188  1.4140 -0.3329 -1.8681
  494MOL0     H66686  11.606   9.940   9.029  0.1845  1.9213 -0.6097
  494MOL0     H66687  11.496  10.000   9.135  0.4582 -1.3425  0.0164
  494MOL0     H66688  11.373   9.933   8.726 -0.7579  0.8760 -0.5749
  494MOL0     H66689  11.015   9.778   9.471  2.0598 -3.9700  0.5204
  494MOL0     H66690  10.811   9.832   9.363  1.4060  2.6464 -2.5802
  495MOL0     O66691   5.526   1.949  11.197 -0.1847  0.2645 -0.1635
  495MOL0     C66692   5.444   1.886  11.264  0.7716  1.3951  0.0709
  495MOL0     O66693   5.388   1.913  11.385  0.2706 -0.3188  0.8147
  495MOL0     C66694   5.436   2.023  11.455  0.7063  0.3041  0.3044
  495MOL0     C66695   5.348   2.121  11.494 -0.3124 -1.4002  0.7663
  495MOL0     C66696   5.397   2.233  11.568  0.8543 -0.2768 -0.5744
  495MOL0     C66697   5.534   2.243  11.597 -0.7764  0.6499 -0.2313
  495MOL0     O66698   5.581   2.357  11.649 -0.1092 -0.8054 -0.4131
  495MOL0     C66699   5.537   2.479  11.583 -0.7182 -0.1398  0.4815
  495MOL0     C66700   5.654   2.532  11.508  0.5222  0.2706  0.3909
  495MOL0     C66701   5.693   2.459  11.381 -0.0291 -0.4505  0.0488
  495MOL0     C66702   5.744   2.558  11.270  0.6812  0.1959 -0.2232
  495MOL0     C66703   5.809   2.468  11.169 -0.8347 -0.5146  0.3449
  495MOL0     C66704   5.838   2.543  11.034 -0.0808 -0.9023  0.2954
  495MOL0     C66705   5.714   2.532  10.936 -0.4567 -0.2231  1.3644
  495MOL0     C66706   5.724   2.616  10.813  0.1205 -0.1783 -0.2027
  495MOL0     N66707   5.621   2.570  10.729  0.7047  0.3995  0.6225
  495MOL0     C66708   5.489   2.592  10.757  0.4439  0.0442  0.0539
  495MOL0     C66709   5.433   2.566  10.635  1.6337 -0.2975 -0.9632
  495MOL0     C66710   5.277   2.576  10.622 -0.2352  1.3319  0.1599
  495MOL0     C66711   5.235   2.437  10.643 -0.4919 -0.8368 -0.2961
  495MOL0     C66712   5.081   2.415  10.646 -0.2410 -0.2382 -0.1032
  495MOL0     C66713   5.024   2.456  10.519 -0.0214  0.3984  0.1475
  495MOL0     O66714   4.901   2.390  10.497 -0.2055 -0.5110 -0.4831
  495MOL0     C66715   4.855   2.395  10.368 -0.1114 -0.2816  0.0208
  495MOL0     C66716   4.925   2.319  10.278 -0.1358  1.0039  0.3609
  495MOL0     C66717   4.885   2.303  10.141  0.3219  0.8673  0.6967
  495MOL0     C66718   4.959   2.204  10.051  0.5543  0.6576 -0.3554
  495MOL0     C66719   4.765   2.366  10.096 -0.1540  0.2016  0.4216
  495MOL0     C66720   4.686   2.351   9.965  0.1962 -0.3101  0.4562
  495MOL0     O66721   4.688   2.224   9.913 -0.1502 -1.2201  0.3498
  495MOL0     C66722   4.611   2.198   9.804  0.2218 -0.0195 -0.4544
  495MOL0     C66723   4.680   2.143   9.692 -0.2664 -0.0974 -0.7074
  495MOL0     C66724   4.617   2.103   9.571  0.4538 -0.2180  0.2441
  495MOL0     C66725   4.479   2.123   9.561 -0.0397  0.4141  0.1795
  495MOL0     O66726   4.400   2.092   9.455  0.3825  0.4133 -0.2337
  495MOL0     C66727   4.459   2.054   9.321  1.0402 -0.1588 -0.0544
  495MOL0     C66728   4.347   2.044   9.220  0.9881  0.3396  0.0841
  495MOL0     C66729   4.296   2.188   9.174  0.6199 -0.0094  0.4324
  495MOL0     C66730   4.406   2.260   9.092 -1.5566 -0.7632 -0.1006
  495MOL0     C66731   4.360   2.367   8.990  0.7943 -0.3978 -0.8279
  495MOL0     C66732   4.306   2.496   9.060  0.0955 -0.4010 -0.4096
  495MOL0     C66733   4.163   2.493   9.027 -0.1202  0.5134  1.3523
  495MOL0     C66734   4.077   2.610   9.079 -0.4115 -0.4955  0.1692
  495MOL0    Cl66735   4.152   2.768   9.024  0.5752  0.6551  0.2476
  495MOL0     C66736   4.416   2.191   9.660 -0.0383 -0.0472  0.5286
  495MOL0     C66737   4.468   2.229   9.783 -1.4354 -0.3867 -0.3421
  495MOL0     O66738   4.606   2.445   9.939 -0.6064 -0.5635 -0.4459
  495MOL0     C66739   4.703   2.446  10.192  0.2738  0.0833 -0.1006
  495MOL0     C66740   4.749   2.456  10.324  0.5044  0.9323  0.3433
  495MOL0     N66741   5.524   2.559  10.538 -0.0994  0.2241  0.0404
  495MOL0     N66742   5.638   2.551  10.590  0.2897  0.2227 -0.4160
  495MOL0     C66743   5.624   2.140  11.557 -0.4582 -0.1644  0.9131
  495MOL0     C66744   5.573   2.029  11.489 -0.3901  0.2552 -0.9227
  495MOL0     C66745   5.389   1.763  11.191  0.8868  0.5995 -0.9584
  495MOL0     C66746   5.327   1.656  11.258  0.6062  0.6058 -0.5900
  495MOL0     C66747   5.291   1.539  11.190  0.9281 -0.1098 -0.2957
  495MOL0     C66748   5.320   1.531  11.058 -0.0255  0.2710 -0.7698
  495MOL0     O66749   5.300   1.415  10.989  0.2302  0.4929  0.7534
  495MOL0     C66750   5.405   1.368  10.900  1.3121 -0.4930 -0.1948
  495MOL0     C66751   5.399   1.225  10.885 -0.0837  0.0372  0.1209
  495MOL0     C66752   5.293   1.158  10.787  0.0702 -0.3692  0.4676
  495MOL0     C66753   5.342   1.187  10.646  0.0114  0.4640  1.0302
  495MOL0     C66754   5.281   1.081  10.565 -0.1845 -0.2963 -1.5513
  495MOL0     C66755   5.240   0.977  10.511  0.5431  0.3557  0.6265
  495MOL0     C66756   5.357   1.638  10.992  0.1035 -0.0411  0.6082
  495MOL0     C66757   5.390   1.755  11.055 -0.1726 -0.0690  0.1923
  495MOL0     H66758   5.253   2.121  11.442  0.9310  0.1968 -1.6774
  495MOL0     H66759   5.326   2.313  11.588 -0.2761 -1.7411  1.7602
  495MOL0     H66760   5.447   2.468  11.522 -2.4838  2.5907  2.3626
  495MOL0     H66761   5.496   2.555  11.651 -1.0125 -2.0025  2.5054
  495MOL0     H66762   5.628   2.634  11.479  1.2773  0.6780  1.0950
  495MOL0     H66763   5.741   2.542  11.573  0.8646 -0.1531 -0.0002
  495MOL0     H66764   5.773   2.385  11.391 -0.2084 -0.9341 -1.7978
  495MOL0     H66765   5.609   2.399  11.345  0.1345  0.0230 -1.1614
  495MOL0     H66766   5.664   2.609  11.216 -0.2816 -0.4975  0.5102
  495MOL0     H66767   5.815   2.628  11.315 -0.4191  0.5235  1.0375
  495MOL0     H66768   5.897   2.414  11.206 -0.9841 -2.4098 -1.7998
  495MOL0     H66769   5.733   2.395  11.139 -0.5311 -0.3063 -1.0112
  495MOL0     H66770   5.862   2.647  11.055 -2.9639  0.8069 -3.7135
  495MOL0     H66771   5.933   2.496  11.006  2.7636  4.2843  0.1033
  495MOL0     H66772   5.713   2.428  10.903 -0.0673 -0.2354  1.3768
  495MOL0     H66773   5.619   2.547  10.988 -1.6330 -2.9982  0.2033
  495MOL0     H66774   5.823   2.600  10.770  1.3096 -1.4590  2.7462
  495MOL0     H66775   5.714   2.723  10.835 -3.1746 -0.1332 -1.3422
  495MOL0     H66776   5.439   2.606  10.852  2.2167  1.7920  0.7844
  495MOL0     H66777   5.228   2.638  10.697 -2.6090 -1.3142  0.9974
  495MOL0     H66778   5.263   2.610  10.519 -0.9456 -2.4196 -1.1427
  495MOL0     H66779   5.274   2.427  10.745 -1.6583 -0.8301  0.1595
  495MOL0     H66780   5.276   2.365  10.571 -0.8646 -1.4719  0.1203
  495MOL0     H66781   5.034   2.476  10.723 -0.9439  2.3911 -2.4952
  495MOL0     H66782   5.066   2.307  10.659 -2.0941  0.0527  0.4113
  495MOL0     H66783   5.095   2.436  10.438  1.3403  0.2029  1.3592
  495MOL0     H66784   5.023   2.565  10.510 -1.2432  0.3603 -0.3587
  495MOL0     H66785   5.018   2.270  10.307  0.6414  1.3121 -1.4585
  495MOL0     H66786   4.913   2.106  10.065 -0.4638  1.3606  1.7761
  495MOL0     H66787   4.955   2.233   9.946 -0.8782 -1.4535 -0.9464
  495MOL0     H66788   5.064   2.192  10.078  0.5928  2.1817  0.2659
  495MOL0     H66789   4.787   2.129   9.697  0.0499  2.0850 -0.3280
  495MOL0     H66790   4.676   2.059   9.492 -1.8563 -0.4427 -1.4789
  495MOL0     H66791   4.534   2.131   9.300 -0.4728  1.2913 -0.3512
  495MOL0     H66792   4.507   1.958   9.342  0.4637 -0.1314  1.6069
  495MOL0     H66793   4.377   1.985   9.133  0.3187 -1.1957  0.8706
  495MOL0     H66794   4.266   1.988   9.269  0.5431  1.5573  0.7957
  495MOL0     H66795   4.276   2.253   9.259 -2.1592 -1.6276  1.1509
  495MOL0     H66796   4.206   2.177   9.112  2.3058 -1.5297 -1.9241
  495MOL0     H66797   4.478   2.302   9.162 -1.0568 -2.4580  0.4562
  495MOL0     H66798   4.457   2.183   9.033  1.8919  0.7524  0.6981
  495MOL0     H66799   4.286   2.318   8.926  0.8741 -1.3912 -0.1894
  495MOL0     H66800   4.447   2.396   8.930  1.9238  4.1387  2.4902
  495MOL0     H66801   4.324   2.495   9.168 -0.3225 -3.4186 -0.2843
  495MOL0     H66802   4.356   2.584   9.018  0.7537 -0.9905 -0.8894
  495MOL0     H66803   4.107   2.401   9.047  1.3708 -1.3849 -2.2001
  495MOL0     H66804   4.166   2.502   8.918  0.4592  0.9536  1.3986
  495MOL0     H66805   4.080   2.598   9.187 -0.3689  1.8099  0.4588
  495MOL0     H66806   3.977   2.613   9.036  0.1613  1.5451 -1.1533
  495MOL0     H66807   4.316   2.225   9.633  0.6567  1.2439 -0.5026
  495MOL0     H66808   4.416   2.291   9.856  0.4013  3.2661 -1.8671
  495MOL0     H66809   4.621   2.512  10.168 -1.9938 -2.3577  0.4091
  495MOL0     H66810   4.682   2.511  10.388 -0.3879 -1.2193  1.3385
  495MOL0     H66811   5.732   2.149  11.563 -0.0339 -2.2584 -1.7140
  495MOL0     H66812   5.641   1.954  11.452 -0.9614 -0.2114 -1.0446
  495MOL0     H66813   5.320   1.664  11.366  1.3978 -0.5159 -0.4362
  495MOL0     H66814   5.260   1.456  11.252 -1.5480  1.0640  0.1913
  495MOL0     H66815   5.404   1.414  10.801  0.9388 -0.1128 -0.0195
  495MOL0     H66816   5.499   1.395  10.949  0.4922  0.5751  0.8528
  495MOL0     H66817   5.398   1.180  10.984  1.4975 -2.0348 -0.7423
  495MOL0     H66818   5.498   1.189  10.855 -0.8641 -0.9843 -1.3617
  495MOL0     H66819   5.199   1.211  10.798 -1.6090 -2.9076 -0.8200
  495MOL0     H66820   5.286   1.052  10.811  1.9291 -1.1463 -1.9822
  495MOL0     H66821   5.451   1.192  10.634 -0.0648 -1.0850 -0.8023
  495MOL0     H66822   5.310   1.283  10.606  1.8630 -0.5012 -3.3121
  495MOL0     H66823   5.193   0.887  10.478 -1.1305  0.3314  2.8802
  495MOL0     H66824   5.375   1.635  10.885 -1.2880  1.2730  0.3120
  495MOL0     H66825   5.413   1.833  10.983  0.0205 -0.9425 -0.7097
  496MOL0     O66826   4.769   4.169   0.655  0.7878 -0.1291 -0.3817
  496MOL0     C66827   4.759   4.292   0.690 -0.2636 -0.1055 -0.0621
  496MOL0     O66828   4.829   4.354   0.787 -0.5747  0.5152 -0.1313
  496MOL0     C66829   4.953   4.306   0.832 -0.4194  0.0144 -0.3295
  496MOL0     C66830   5.043   4.234   0.756  0.6842  0.3115 -0.2876
  496MOL0     C66831   5.164   4.175   0.807 -0.1570  0.8730 -0.9624
  496MOL0     C66832   5.202   4.212   0.940 -0.4135 -0.2274  0.7159
  496MOL0     O66833   5.320   4.171   0.991 -0.6731 -0.0068 -0.1073
  496MOL0     C66834   5.364   4.033   0.963  0.4372 -0.0033 -0.1488
  496MOL0     C66835   5.492   3.998   1.037  0.2447 -0.0658  0.2003
  496MOL0     C66836   5.563   3.870   0.987 -0.2733 -0.4044  0.6723
  496MOL0     C66837   5.627   3.887   0.854  0.7162 -0.2353  0.6002
  496MOL0     C66838   5.714   3.759   0.818  0.2941 -0.6876 -0.2532
  496MOL0     C66839   5.828   3.816   0.725  0.0350 -0.5917  0.1865
  496MOL0     C66840   5.885   3.707   0.641 -0.5669 -1.2012  0.3256
  496MOL0     C66841   5.994   3.630   0.721  0.6771  0.2534 -0.6385
  496MOL0     N66842   6.028   3.512   0.648 -0.0044  0.2783  0.5851
  496MOL0     C66843   6.103   3.496   0.533  0.4726  0.1331  0.2139
  496MOL0     C66844   6.093   3.361   0.512 -0.0615 -0.4631  0.5360
  496MOL0     C66845   6.168   3.284   0.401  0.0517  1.0215  0.7191
  496MOL0     C66846   6.174   3.345   0.263  0.4279 -0.2165 -1.5025
  496MOL0     C66847   6.234   3.257   0.143 -0.0632 -0.4278  0.2658
  496MOL0     C66848   6.392   3.255   0.144 -0.2144  0.7030 -0.4235
  496MOL0     O66849   6.460   3.379   0.178 -0.5725  0.0883 -0.0538
  496MOL0     C66850   6.561   3.353   0.264  0.3413  0.0485  0.2722
  496MOL0     C66851   6.680   3.324   0.210 -0.0603  1.1739  0.0094
  496MOL0     C66852   6.796   3.307   0.285 -0.3539 -0.0604  0.3440
  496MOL0     C66853   6.911   3.266   0.213 -0.1880  0.0130 -0.5443
  496MOL0     C66854   6.792   3.334   0.423 -0.6822  0.0669 -0.2205
  496MOL0     C66855   6.911   3.326   0.523  0.3245  0.1688  1.9067
  496MOL0     O66856   6.879   3.269   0.643 -0.5781 -0.3596  0.1108
  496MOL0     C66857   6.980   3.219   0.723 -0.4395  0.1212  0.0291
  496MOL0     C66858   6.946   3.207   0.863 -0.2011  0.8689  0.1055
  496MOL0     C66859   7.034   3.136   0.948  1.3004  0.6609  0.9759
  496MOL0     C66860   7.158   3.092   0.912 -0.2291  0.4940 -0.2415
  496MOL0     O66861   7.245   3.038   1.007  1.0697 -0.0697  0.2359
  496MOL0     C66862   7.227   2.895   1.005 -0.1175  0.3972 -0.8300
  496MOL0     C66863   7.349   2.829   1.072  1.2848 -1.4758  0.2183
  496MOL0     C66864   7.331   2.693   1.131  0.6525 -0.5142 -0.3392
  496MOL0     C66865   7.467   2.626   1.138  0.7930 -0.5799 -0.2428
  496MOL0     C66866   7.445   2.467   1.144  0.2688 -0.0912 -0.8620
  496MOL0     C66867   7.576   2.400   1.180 -0.0815 -0.1779 -0.4996
  496MOL0     C66868   7.574   2.245   1.208 -0.4757 -0.1553 -0.1302
  496MOL0     C66869   7.583   2.164   1.074  0.6452 -0.3281 -0.1247
  496MOL0    Cl66870   7.424   2.170   0.988  0.0334  0.3160  0.0503
  496MOL0     C66871   7.201   3.110   0.779  0.0306  0.4041 -0.2716
  496MOL0     C66872   7.106   3.171   0.686 -0.6573  0.2511  0.0201
  496MOL0     O66873   7.021   3.360   0.490  0.3757  0.0112  1.5596
  496MOL0     C66874   6.669   3.364   0.484 -0.3434 -1.0876 -0.2578
  496MOL0     C66875   6.552   3.378   0.402 -0.4828  0.0489  0.1114
  496MOL0     N66876   6.003   3.306   0.601 -0.2415 -0.7893 -0.1206
  496MOL0     N66877   5.976   3.398   0.688  0.5972  0.7258 -0.3978
  496MOL0     C66878   5.122   4.294   1.014  0.2882  0.0627 -0.3788
  496MOL0     C66879   4.992   4.336   0.967  0.0090  0.5312  0.3793
  496MOL0     C66880   4.671   4.385   0.619  0.5530 -0.5158  0.2749
  496MOL0     C66881   4.675   4.526   0.644 -1.0374 -0.4710  0.4904
  496MOL0     C66882   4.597   4.615   0.568  0.4776 -0.3793 -0.8791
  496MOL0     C66883   4.502   4.568   0.469 -0.5028 -0.6395  0.3954
  496MOL0     O66884   4.440   4.663   0.398 -0.3374 -0.1927  1.0231
  496MOL0     C66885   4.373   4.629   0.275 -0.6618 -0.0677  0.1856
  496MOL0     C66886   4.312   4.751   0.207 -0.7071  1.4063 -0.4046
  496MOL0     C66887   4.186   4.699   0.136 -0.5231  0.3433  0.1840
  496MOL0     C66888   4.194   4.600   0.018  1.0267 -0.0569 -1.2823
  496MOL0     C66889   4.288   4.647  -0.092  0.6301 -0.0181 -0.4559
  496MOL0     C66890   4.362   4.678  -0.181  0.1405 -0.7568  0.4907
  496MOL0     C66891   4.513   4.429   0.443  0.3281 -0.1166  0.2643
  496MOL0     C66892   4.596   4.342   0.516  0.1829 -0.1595 -0.0144
  496MOL0     H66893   5.014   4.217   0.653  0.3190  0.7797 -0.2675
  496MOL0     H66894   5.212   4.109   0.735  0.4048  1.5427 -1.2168
  496MOL0     H66895   5.274   3.978   0.991 -1.2226  1.0461 -2.9891
  496MOL0     H66896   5.386   4.017   0.857  2.0375 -0.4141  0.2325
  496MOL0     H66897   5.547   4.093   1.028  2.7620 -1.2900  1.4327
  496MOL0     H66898   5.469   3.980   1.143 -0.5464 -4.6432 -0.5207
  496MOL0     H66899   5.639   3.841   1.060  0.1160 -1.8883 -0.2623
  496MOL0     H66900   5.500   3.781   0.979 -1.5713  0.5951 -0.9864
  496MOL0     H66901   5.555   3.885   0.771  2.7267  2.0170 -1.3626
  496MOL0     H66902   5.686   3.979   0.858  2.7171 -1.2952 -1.7570
  496MOL0     H66903   5.783   3.721   0.894 -0.4652  0.8223  1.2860
  496MOL0     H66904   5.656   3.685   0.763  0.3549  0.5187 -2.0303
  496MOL0     H66905   5.776   3.886   0.659  1.7493  0.3785 -0.2092
  496MOL0     H66906   5.899   3.867   0.790 -0.6633 -0.6242  0.9917
  496MOL0     H66907   5.806   3.636   0.616 -2.3602  1.1661 -1.1622
  496MOL0     H66908   5.926   3.761   0.555  0.9789 -2.3203  0.3149
  496MOL0     H66909   5.952   3.598   0.817  2.0434  1.3122  0.3561
  496MOL0     H66910   6.083   3.688   0.745  1.0172 -0.3828 -0.3392
  496MOL0     H66911   6.156   3.570   0.475  2.5710  1.2200  3.2729
  496MOL0     H66912   6.269   3.278   0.443  0.3691  2.6869  0.2876
  496MOL0     H66913   6.127   3.183   0.394 -1.5872  1.7444 -1.5387
  496MOL0     H66914   6.224   3.442   0.273 -2.0838  0.9142  1.6508
  496MOL0     H66915   6.067   3.357   0.244  0.0448  1.5746  1.1941
  496MOL0     H66916   6.189   3.284   0.047 -0.8327 -1.7567  0.2294
  496MOL0     H66917   6.205   3.153   0.158 -1.8687  0.1409  1.0328
  496MOL0     H66918   6.429   3.221   0.046 -0.5162 -1.5953  0.2053
  496MOL0     H66919   6.431   3.180   0.214  2.8880  2.1597 -0.4128
  496MOL0     H66920   6.691   3.317   0.102 -1.9521  0.5420 -0.1866
  496MOL0     H66921   6.889   3.208   0.122 -2.1694  0.9766 -0.7244
  496MOL0     H66922   6.964   3.354   0.176  1.5168 -1.4177 -1.6795
  496MOL0     H66923   6.975   3.202   0.276  1.5657  3.0338  0.9569
  496MOL0     H66924   6.844   3.237   0.885 -1.8042 -2.4804 -1.9563
  496MOL0     H66925   6.999   3.117   1.049  0.1653 -0.4416  0.3951
  496MOL0     H66926   7.135   2.873   1.060 -1.7623  0.8076 -3.2269
  496MOL0     H66927   7.220   2.869   0.898  0.9903 -0.4107 -0.7224
  496MOL0     H66928   7.424   2.855   0.997 -0.2927 -1.2536 -1.3655
  496MOL0     H66929   7.375   2.887   1.161  0.9749  0.4752 -0.9243
  496MOL0     H66930   7.261   2.629   1.077  1.2529 -2.6042  1.2237
  496MOL0     H66931   7.287   2.703   1.230 -1.4691  0.4572 -1.3317
  496MOL0     H66932   7.523   2.652   1.048  0.2790 -2.2308 -1.0804
  496MOL0     H66933   7.526   2.665   1.221 -1.5222  1.3976  0.6061
  496MOL0     H66934   7.411   2.431   1.047 -1.2566  3.1788 -1.6878
  496MOL0     H66935   7.371   2.437   1.218 -0.0266  0.0534 -1.0985
  496MOL0     H66936   7.652   2.419   1.104  2.4623  1.7408  2.3176
  496MOL0     H66937   7.619   2.438   1.273 -1.4705 -0.5654  0.3312
  496MOL0     H66938   7.483   2.220   1.264 -0.8122 -0.6657 -0.8788
  496MOL0     H66939   7.659   2.214   1.269 -0.5667 -0.8349 -0.3418
  496MOL0     H66940   7.593   2.058   1.102 -0.9425 -0.5371 -0.2153
  496MOL0     H66941   7.665   2.200   1.012  3.3708  1.6282  4.1316
  496MOL0     H66942   7.301   3.077   0.751 -0.3428  0.3424 -1.6111
  496MOL0     H66943   7.150   3.181   0.587  0.1291 -1.1843  0.1946
  496MOL0     H66944   6.653   3.392   0.588 -0.9603  0.9863 -0.8499
  496MOL0     H66945   6.450   3.389   0.440  0.2669 -0.6538  2.4969
  496MOL0     H66946   5.129   4.337   1.114 -0.5174  2.8691 -1.4137
  496MOL0     H66947   4.927   4.405   1.021 -3.6214 -0.3402 -2.4180
  496MOL0     H66948   4.752   4.573   0.704  1.8355 -3.0465 -0.9139
  496MOL0     H66949   4.603   4.721   0.592 -0.7255 -0.6767  0.9781
  496MOL0     H66950   4.434   4.572   0.205 -1.4953 -1.0008  0.2072
  496MOL0     H66951   4.296   4.555   0.301  0.1493 -1.5835 -1.5485
  496MOL0     H66952   4.386   4.786   0.135  1.9292 -1.2771  0.7817
  496MOL0     H66953   4.289   4.828   0.281 -2.1482 -0.6589  1.4528
  496MOL0     H66954   4.136   4.790   0.100 -0.5761  0.9563  1.7145
  496MOL0     H66955   4.124   4.651   0.212 -1.4648 -0.1202 -0.8601
  496MOL0     H66956   4.096   4.579  -0.026  0.1714 -1.7131  1.2052
  496MOL0     H66957   4.228   4.501   0.050 -0.6075 -0.2746 -0.0847
  496MOL0     H66958   4.418   4.710  -0.266 -1.4602  2.8786  0.6363
  496MOL0     H66959   4.468   4.393   0.351  0.6025 -1.2283  0.5575
  496MOL0     H66960   4.604   4.235   0.500  4.2541 -0.2437  1.3917
  497MOL0     O66961   5.928  10.761   7.586  1.1466  0.5681 -0.8833
  497MOL0     C66962   5.911  10.816   7.479  0.3246  0.1516  1.1630
  497MOL0     O66963   5.879  10.750   7.367 -0.0725 -0.4516  0.6084
  497MOL0     C66964   5.814  10.622   7.368 -0.4545 -0.3819 -0.5459
  497MOL0     C66965   5.731  10.567   7.470 -0.5052 -0.1640 -0.0096
  497MOL0     C66966   5.651  10.448   7.447 -0.1295  0.7879  0.5850
  497MOL0     C66967   5.664  10.382   7.322  0.5031  0.2733  1.1503
  497MOL0     O66968   5.586  10.274   7.286  0.4018 -0.0474  0.4311
  497MOL0     C66969   5.518  10.196   7.389 -0.2596  0.6891  0.4184
  497MOL0     C66970   5.479  10.056   7.354 -0.8669 -0.2386  0.0061
  497MOL0     C66971   5.367  10.053   7.251  0.1232  0.3571 -0.0278
  497MOL0     C66972   5.317   9.907   7.222 -0.0149  0.0954  0.6546
  497MOL0     C66973   5.201   9.904   7.115  0.1696 -0.5832 -0.1966
  497MOL0     C66974   5.147   9.762   7.095 -0.3132  1.0345  0.9043
  497MOL0     C66975   5.262   9.688   7.025 -0.4773 -0.4408 -0.1499
  497MOL0     C66976   5.224   9.550   6.979  0.2404 -0.4169 -0.5274
  497MOL0     N66977   5.328   9.469   6.913  0.4832  0.1538 -0.0795
  497MOL0     C66978   5.297   9.383   6.809  0.2163 -0.2110  0.0181
  497MOL0     C66979   5.414   9.334   6.768 -0.9079 -0.0790  0.2113
  497MOL0     C66980   5.440   9.234   6.659  0.5749  0.0322 -0.7240
  497MOL0     C66981   5.316   9.191   6.568  0.2130 -0.3422  0.1136
  497MOL0     C66982   5.365   9.116   6.445  0.0885  0.3568  0.7663
  497MOL0     C66983   5.232   9.092   6.371  0.6870 -0.1435  1.0446
  497MOL0     O66984   5.265   9.027   6.240  0.0980 -0.4237  0.2154
  497MOL0     C66985   5.278   9.117   6.131 -0.2765 -0.4455  0.3486
  497MOL0     C66986   5.308   9.251   6.135 -0.3917  0.0643 -0.7464
  497MOL0     C66987   5.318   9.327   6.014  0.1684 -0.4923 -0.8851
  497MOL0     C66988   5.315   9.478   6.022 -0.2647 -0.3316  0.4239
  497MOL0     C66989   5.318   9.262   5.886 -0.7570 -0.1430  0.3567
  497MOL0     C66990   5.348   9.329   5.751 -0.8526  0.5833 -0.1327
  497MOL0     O66991   5.369   9.234   5.651  0.3295 -0.2775  0.0314
  497MOL0     C66992   5.341   9.254   5.517 -0.3940 -0.4279 -0.0138
  497MOL0     C66993   5.452   9.230   5.428  0.4081 -1.1616  0.2838
  497MOL0     C66994   5.425   9.242   5.287  0.3276  0.1117  0.0195
  497MOL0     C66995   5.298   9.290   5.245 -0.1009  0.6800  0.8937
  497MOL0     O66996   5.261   9.299   5.114 -0.2856 -1.3347  0.7596
  497MOL0     C66997   5.325   9.404   5.033 -0.3453 -0.0955  0.5626
  497MOL0     C66998   5.230   9.481   4.934  0.5542  0.1134  0.3282
  497MOL0     C66999   5.136   9.567   5.013  0.2202 -0.0035 -0.3035
  497MOL0     C67000   5.032   9.623   4.915 -0.5989  1.0623 -0.4617
  497MOL0     C67001   5.093   9.729   4.816 -0.1727  0.1737 -0.1376
  497MOL0     C67002   4.983   9.757   4.704  0.6870 -0.0078  0.0590
  497MOL0     C67003   5.056   9.791   4.570 -0.6055 -0.8446 -0.5446
  497MOL0     C67004   4.969   9.798   4.451 -0.7278 -0.4801 -0.1789
  497MOL0    Cl67005   5.071   9.887   4.324 -0.2604  0.2593 -0.1214
  497MOL0     C67006   5.196   9.310   5.340  0.0247 -1.2407  0.3525
  497MOL0     C67007   5.224   9.304   5.476  0.4819 -0.8189  0.1743
  497MOL0     O67008   5.342   9.450   5.739  0.1004 -0.0493  1.0362
  497MOL0     C67009   5.315   9.120   5.883 -0.5572 -0.2425 -0.1525
  497MOL0     C67010   5.288   9.054   6.004  0.0922 -0.2879  0.3507
  497MOL0     N67011   5.510   9.386   6.856  0.2054  0.0394 -0.1475
  497MOL0     N67012   5.459   9.457   6.947  0.1632 -0.2427 -0.0849
  497MOL0     C67013   5.747  10.431   7.219  0.1694 -0.8233 -0.2261
  497MOL0     C67014   5.817  10.555   7.243  0.4085 -0.0379 -0.2734
  497MOL0     C67015   5.927  10.964   7.462  0.4944  0.1242 -0.7906
  497MOL0     C67016   5.939  11.045   7.579  0.3199  0.0954  0.8759
  497MOL0     C67017   5.918  11.184   7.567  0.1085  0.7217  0.6115
  497MOL0     C67018   5.901  11.243   7.439 -0.9669 -0.2677 -0.4473
  497MOL0     O67019   5.872  11.378   7.431  0.0259  0.7032 -0.9657
  497MOL0     C67020   5.864  11.455   7.550 -0.7803  0.7701  0.1056
  497MOL0     C67021   5.834  11.593   7.513 -0.5018 -0.9668  0.0138
  497MOL0     C67022   5.943  11.664   7.433 -0.3220 -0.0709  0.4089
  497MOL0     C67023   5.893  11.792   7.362  0.1741  0.4442 -1.5778
  497MOL0     C67024   5.857  11.893   7.465  0.3088  0.7004 -0.0795
  497MOL0     C67025   5.834  11.971   7.553  0.8729 -0.9918  0.2742
  497MOL0     C67026   5.902  11.164   7.327 -0.2554  0.4119  0.1028
  497MOL0     C67027   5.913  11.022   7.336  0.2120 -0.7570 -0.3222
  497MOL0     H67028   5.729  10.613   7.568  1.0816 -0.3247  0.1341
  497MOL0     H67029   5.581  10.410   7.520  2.8325 -2.8016  1.8986
  497MOL0     H67030   5.577  10.199   7.481  1.0192 -3.4570 -0.0545
  497MOL0     H67031   5.424  10.242   7.422 -1.6617 -1.7316  0.1355
  497MOL0     H67032   5.563  10.016   7.296 -0.5386 -0.4290  0.6049
  497MOL0     H67033   5.456   9.998   7.444 -1.8998 -0.7157 -0.5380
  497MOL0     H67034   5.288  10.113   7.298  0.6159  0.2818  0.9335
  497MOL0     H67035   5.407  10.102   7.162 -1.2979  0.7064 -0.5041
  497MOL0     H67036   5.405   9.859   7.178  1.3829  1.7772  1.5253
  497MOL0     H67037   5.290   9.859   7.316 -1.5908 -0.3200  0.0342
  497MOL0     H67038   5.114   9.956   7.156  1.4371 -1.0723  3.5019
  497MOL0     H67039   5.233   9.944   7.018  2.4213 -1.2866  0.1946
  497MOL0     H67040   5.122   9.710   7.188 -1.0228  0.0036  0.1696
  497MOL0     H67041   5.058   9.779   7.034 -0.6039  1.2511  1.3851
  497MOL0     H67042   5.294   9.737   6.933  1.2079 -1.7069 -0.2813
  497MOL0     H67043   5.350   9.678   7.089  3.4140 -0.0507 -4.9036
  497MOL0     H67044   5.145   9.556   6.904  0.5913 -1.9394 -1.0669
  497MOL0     H67045   5.186   9.495   7.065 -0.5982 -0.3887 -0.8708
  497MOL0     H67046   5.198   9.357   6.775 -0.1999  2.3409 -0.9405
  497MOL0     H67047   5.517   9.276   6.593  0.7164  1.4953  0.3264
  497MOL0     H67048   5.487   9.148   6.708  1.8704 -0.2618 -2.3622
  497MOL0     H67049   5.262   9.283   6.543 -1.6305 -0.4367  3.2563
  497MOL0     H67050   5.253   9.126   6.630 -0.6563  2.4489  2.3857
  497MOL0     H67051   5.407   9.018   6.469 -2.1682 -0.8721 -0.0141
  497MOL0     H67052   5.441   9.173   6.391 -0.4199  0.8356  0.5509
  497MOL0     H67053   5.173   9.181   6.344  3.9895  1.0380 -3.6494
  497MOL0     H67054   5.164   9.023   6.421 -1.4248 -0.8295 -2.4572
  497MOL0     H67055   5.307   9.281   6.239 -0.3234 -2.6885  0.1124
  497MOL0     H67056   5.394   9.521   5.959 -2.2732  1.7881 -0.7783
  497MOL0     H67057   5.218   9.514   5.987  0.1234 -0.0716 -0.4123
  497MOL0     H67058   5.337   9.511   6.124  2.9803  2.7676 -1.0635
  497MOL0     H67059   5.546   9.190   5.466  0.9224  1.2920  1.7838
  497MOL0     H67060   5.500   9.198   5.223  0.2229  0.8830 -0.6534
  497MOL0     H67061   5.359   9.485   5.098 -1.1939  2.0273 -1.4767
  497MOL0     H67062   5.416   9.369   4.983 -0.4802  3.3823 -2.5403
  497MOL0     H67063   5.299   9.535   4.868 -1.9415 -0.6545 -3.1718
  497MOL0     H67064   5.183   9.402   4.875  3.1829 -0.4806 -1.1529
  497MOL0     H67065   5.208   9.642   5.046  1.0555 -1.7865  2.2263
  497MOL0     H67066   5.094   9.519   5.102 -0.8820 -0.5468 -1.0918
  497MOL0     H67067   4.983   9.537   4.868 -1.5528  2.3157 -1.8599
  497MOL0     H67068   4.955   9.674   4.973  0.4154 -2.1804  4.3611
  497MOL0     H67069   5.188   9.690   4.777 -1.3941 -2.1201 -1.0243
  497MOL0     H67070   5.120   9.813   4.880 -2.5195  0.0804  1.0734
  497MOL0     H67071   4.915   9.673   4.690  1.3977 -0.9012  1.7543
  497MOL0     H67072   4.925   9.846   4.731 -1.4459 -1.3555  0.1212
  497MOL0     H67073   5.144   9.726   4.563 -0.5043 -1.4422  3.7702
  497MOL0     H67074   5.101   9.890   4.581  0.9392 -1.2073 -2.7450
  497MOL0     H67075   4.877   9.851   4.477  0.2790  0.9615  0.6086
  497MOL0     H67076   4.942   9.695   4.426 -2.2707 -0.1668  0.1011
  497MOL0     H67077   5.108   9.340   5.285  2.1567  0.4400 -2.4789
  497MOL0     H67078   5.151   9.325   5.553  1.4244  2.1757  0.4075
  497MOL0     H67079   5.329   9.052   5.800 -2.6321 -3.4172  1.8485
  497MOL0     H67080   5.291   8.946   6.010  1.0988 -0.2991 -0.0997
  497MOL0     H67081   5.742  10.371   7.129 -1.3845  0.1644 -0.8263
  497MOL0     H67082   5.876  10.596   7.162  2.3505 -2.1318 -0.0108
  497MOL0     H67083   5.948  10.985   7.669  2.4052 -2.0327 -0.6321
  497MOL0     H67084   5.922  11.236   7.661  1.2628 -1.0818  1.6248
  497MOL0     H67085   5.792  11.423   7.625 -0.3086 -1.2183 -0.2255
  497MOL0     H67086   5.966  11.453   7.589 -1.7644 -0.3697  2.8258
  497MOL0     H67087   5.819  11.654   7.603 -1.2402  1.1606 -1.4590
  497MOL0     H67088   5.739  11.602   7.459  0.1195  1.3884 -0.8198
  497MOL0     H67089   5.981  11.592   7.359  2.3671  0.1224  1.4738
  497MOL0     H67090   6.023  11.701   7.499  0.8649  1.6996 -1.8826
  497MOL0     H67091   5.810  11.770   7.294 -0.4270 -1.3915 -0.3284
  497MOL0     H67092   5.976  11.824   7.298  1.9314 -1.2492 -0.2254
  497MOL0     H67093   5.815  12.041   7.632  1.3376  1.5296 -1.7160
  497MOL0     H67094   5.880  11.201   7.227 -2.3978 -3.0638 -0.8726
  497MOL0     H67095   5.913  10.967   7.242 -0.1966  2.4334 -2.3404
  498MOL0     O67096   0.422  10.967   7.914 -0.3907  0.2747 -0.4692
  498MOL0     C67097   0.428  11.023   8.021 -0.3577 -1.0407 -0.3278
  498MOL0     O67098   0.358  11.002   8.131  0.6808 -0.1214  0.1109
  498MOL0     C67099   0.262  10.909   8.121  0.2354  0.9279  0.1717
  498MOL0     C67100   0.142  10.940   8.051 -0.3354  0.2420 -1.0898
  498MOL0     C67101   0.049  10.835   8.041 -0.4428  0.2546 -0.5019
  498MOL0     C67102   0.073  10.710   8.082  0.3435  0.0056 -0.4184
  498MOL0     O67103  -0.034  10.623   8.097 -0.0505  0.5461  0.0342
  498MOL0     C67104  -0.000  10.479   8.097  0.7814  0.1262  0.2429
  498MOL0     C67105  -0.039  10.408   8.232  1.1084  0.0534 -0.1648
  498MOL0     C67106   0.006  10.260   8.240 -1.3577 -0.1759  0.7898
  498MOL0     C67107  -0.077  10.180   8.351  0.2823 -0.4496  0.7072
  498MOL0     C67108  -0.008  10.049   8.400  0.5394 -0.2699 -0.6465
  498MOL0     C67109  -0.015   9.940   8.287 -0.3681 -0.0876  0.1392
  498MOL0     C67110   0.044   9.807   8.322 -0.5221 -0.7499  0.8348
  498MOL0     C67111   0.189   9.777   8.288 -0.3383  0.1819 -0.4516
  498MOL0     N67112   0.233   9.654   8.342 -0.0649 -0.0086  0.1718
  498MOL0     C67113   0.289   9.550   8.276 -0.4334  0.4880  0.5465
  498MOL0     C67114   0.337   9.473   8.379 -0.0306 -0.2552 -0.3120
  498MOL0     C67115   0.399   9.341   8.370 -0.1409  0.4313 -0.1555
  498MOL0     C67116   0.312   9.228   8.443 -0.5468 -1.2112 -0.4499
  498MOL0     C67117   0.221   9.135   8.356 -0.0988  0.0096 -0.6256
  498MOL0     C67118   0.092   9.197   8.290 -0.0935  0.2158 -0.4783
  498MOL0     O67119   0.111   9.325   8.213  0.0888  0.3686 -0.3896
  498MOL0     C67120   0.003   9.397   8.175  0.6058 -0.1199 -0.9868
  498MOL0     C67121  -0.013   9.441   8.038  0.6985 -0.5506 -0.5940
  498MOL0     C67122  -0.117   9.529   8.004  0.7031  0.7784  0.0407
  498MOL0     C67123  -0.125   9.581   7.862 -1.5055  0.0595 -0.0023
  498MOL0     C67124  -0.207   9.574   8.111  0.4052  0.1681  1.8403
  498MOL0     C67125  -0.312   9.673   8.082 -0.2705 -0.7735 -0.0269
  498MOL0     O67126  -0.409   9.641   7.993  0.1682  0.4340  0.5073
  498MOL0     C67127  -0.527   9.720   7.990 -0.8984  0.5758 -0.8741
  498MOL0     C67128  -0.626   9.724   8.093 -0.1588 -0.2963 -1.2061
  498MOL0     C67129  -0.761   9.776   8.071  0.3482  0.8067  0.1348
  498MOL0     C67130  -0.791   9.824   7.943  0.5554 -0.2409 -0.5948
  498MOL0     O67131  -0.925   9.843   7.918 -0.5627 -0.0245  0.1707
  498MOL0     C67132  -0.966   9.733   7.832  0.7168  0.5461  0.0775
  498MOL0     C67133  -1.109   9.679   7.872 -0.6419  0.4233 -0.2941
  498MOL0     C67134  -1.136   9.559   7.784 -0.1176 -1.2357  0.2288
  498MOL0     C67135  -1.283   9.531   7.798 -0.4029  0.4950  0.2938
  498MOL0     C67136  -1.327   9.403   7.715 -0.0071  0.2430 -0.0147
  498MOL0     C67137  -1.320   9.442   7.575 -1.1917 -0.2835  0.6426
  498MOL0     C67138  -1.431   9.373   7.491  0.1607 -0.2786 -0.6783
  498MOL0     C67139  -1.429   9.430   7.341  0.2452 -0.1914  0.8582
  498MOL0    Cl67140  -1.447   9.610   7.312  0.0640  0.0239 -0.1973
  498MOL0     C67141  -0.695   9.815   7.842 -0.0595  0.4145 -0.7396
  498MOL0     C67142  -0.567   9.768   7.870  0.4015 -0.1219 -0.0054
  498MOL0     O67143  -0.317   9.765   8.163  0.3489 -0.3334 -0.0383
  498MOL0     C67144  -0.191   9.532   8.242 -0.5349  0.0209  0.0265
  498MOL0     C67145  -0.080   9.451   8.281  0.7311 -0.1336 -0.2341
  498MOL0     N67146   0.312   9.535   8.498  0.4945  0.3237 -0.0782
  498MOL0     N67147   0.257   9.641   8.473  0.1138 -0.7862 -0.2472
  498MOL0     C67148   0.194  10.682   8.149  0.0657  0.5444 -0.1908
  498MOL0     C67149   0.289  10.780   8.169 -0.2554  0.2215 -0.0105
  498MOL0     C67150   0.533  11.134   8.035  0.2924 -0.7156  0.4842
  498MOL0     C67151   0.555  11.195   8.170  0.4497 -0.6062  0.3400
  498MOL0     C67152   0.647  11.301   8.182 -0.1259  0.3622 -0.6856
  498MOL0     C67153   0.727  11.341   8.075  0.0873 -0.2334 -0.6529
  498MOL0     O67154   0.821  11.438   8.076 -0.0936 -0.9329 -0.7097
  498MOL0     C67155   0.855  11.514   8.186 -0.6290  0.0988  0.1440
  498MOL0     C67156   0.996  11.559   8.172 -0.5822 -0.4118  0.5009
  498MOL0     C67157   1.034  11.651   8.281 -0.7083 -0.4890 -0.5010
  498MOL0     C67158   1.195  11.670   8.285  0.7600 -0.0310  0.6904
  498MOL0     C67159   1.222  11.804   8.324 -0.1368  0.1495 -0.2975
  498MOL0     C67160   1.260  11.913   8.349  0.3541 -0.0603 -0.3161
  498MOL0     C67161   0.716  11.268   7.950 -0.7445 -0.3886 -0.3276
  498MOL0     C67162   0.628  11.170   7.928  0.0770  0.2687  0.5168
  498MOL0     H67163   0.122  11.044   8.028 -2.5159 -0.1126 -0.9792
  498MOL0     H67164  -0.052  10.856   8.006  0.1499  2.8191 -0.8948
  498MOL0     H67165  -0.049  10.423   8.017  1.8380 -5.0560  2.7958
  498MOL0     H67166   0.102  10.454   8.067 -0.2064 -1.2218 -2.3273
  498MOL0     H67167  -0.008  10.454   8.326 -1.0974 -2.9216  2.2364
  498MOL0     H67168  -0.149  10.407   8.235  1.0029  1.3301 -1.7547
  498MOL0     H67169   0.004  10.210   8.143  0.1605  0.1795  0.5473
  498MOL0     H67170   0.111  10.259   8.272  0.6776 -0.1994 -4.7173
  498MOL0     H67171  -0.100  10.239   8.440  2.1066 -0.7320  1.4083
  498MOL0     H67172  -0.172  10.162   8.299  2.2581  2.2810 -4.5480
  498MOL0     H67173   0.092  10.070   8.439 -0.1913  0.5976  0.8636
  498MOL0     H67174  -0.062  10.013   8.487  1.0283 -0.6238 -0.4842
  498MOL0     H67175  -0.115   9.929   8.243 -1.0366  2.6098  0.8165
  498MOL0     H67176   0.039   9.986   8.203 -0.6627  2.8515  1.4591
  498MOL0     H67177   0.015   9.794   8.427 -2.8861 -0.0849  0.3382
  498MOL0     H67178   0.006   9.727   8.257  0.8004  0.2021 -1.2013
  498MOL0     H67179   0.250   9.860   8.326  0.7227 -0.2280 -1.2157
  498MOL0     H67180   0.209   9.775   8.181  1.1318 -1.6264 -0.2049
  498MOL0     H67181   0.292   9.534   8.168 -2.6689  1.5717  0.2414
  498MOL0     H67182   0.407   9.308   8.266 -1.5347 -2.0525  0.4430
  498MOL0     H67183   0.502   9.336   8.407  0.3706  2.1955 -1.1844
  498MOL0     H67184   0.250   9.284   8.514  1.2737  2.7822 -1.7248
  498MOL0     H67185   0.373   9.159   8.502  0.3245 -0.5983 -0.6180
  498MOL0     H67186   0.185   9.048   8.412 -2.3232  1.7541  0.8383
  498MOL0     H67187   0.289   9.120   8.271  1.3368  4.8197 -0.5907
  498MOL0     H67188   0.009   9.210   8.361 -1.4168  1.2372 -2.1278
  498MOL0     H67189   0.060   9.128   8.212  1.7906 -1.1905 -0.0656
  498MOL0     H67190   0.061   9.407   7.966 -0.6564 -0.6865 -1.9872
  498MOL0     H67191  -0.053   9.527   7.800  0.2222  3.3539 -1.1132
  498MOL0     H67192  -0.225   9.569   7.818 -1.1902  1.5768 -1.2512
  498MOL0     H67193  -0.092   9.686   7.866  0.6459 -0.6134  1.7306
  498MOL0     H67194  -0.606   9.679   8.190 -0.9027  1.5358 -0.1660
  498MOL0     H67195  -0.844   9.782   8.140 -0.6823  0.6058 -1.0376
  498MOL0     H67196  -0.976   9.759   7.726 -3.1533 -1.1008 -0.1482
  498MOL0     H67197  -0.904   9.644   7.837 -2.8974 -2.1324  1.7857
  498MOL0     H67198  -1.128   9.660   7.978 -0.9996  5.0661  0.6646
  498MOL0     H67199  -1.185   9.754   7.850 -2.1794 -0.3236  2.1444
  498MOL0     H67200  -1.086   9.466   7.812  2.1272 -0.0452  0.3894
  498MOL0     H67201  -1.119   9.578   7.677 -1.0264 -2.9583 -0.2595
  498MOL0     H67202  -1.300   9.486   7.897 -1.1928 -0.0601 -0.0812
  498MOL0     H67203  -1.342   9.622   7.788 -1.5178  0.4032  4.2962
  498MOL0     H67204  -1.427   9.374   7.750 -1.1050  1.0123 -2.3157
  498MOL0     H67205  -1.260   9.318   7.732 -1.1767 -1.2814 -2.4958
  498MOL0     H67206  -1.316   9.549   7.556  2.3366 -0.0748  1.9193
  498MOL0     H67207  -1.229   9.402   7.531 -2.9121  0.6849 -4.3989
  498MOL0     H67208  -1.531   9.372   7.535  0.5222 -0.0170  0.1707
  498MOL0     H67209  -1.400   9.268   7.489  0.2356 -0.3342  1.2287
  498MOL0     H67210  -1.505   9.376   7.284  0.4056  1.9613 -1.5896
  498MOL0     H67211  -1.332   9.399   7.302  0.2462  0.2965  0.4587
  498MOL0     H67212  -0.732   9.846   7.745 -1.0237 -4.1813 -2.0662
  498MOL0     H67213  -0.492   9.765   7.791  1.7206 -0.1156  1.2146
  498MOL0     H67214  -0.250   9.589   8.314  0.4388  1.2018 -0.0684
  498MOL0     H67215  -0.070   9.438   8.389 -1.0366  1.7735  0.2354
  498MOL0     H67216   0.211  10.581   8.184 -1.3418  0.5153  0.4921
  498MOL0     H67217   0.386  10.767   8.216 -0.3138 -3.7642 -0.6076
  498MOL0     H67218   0.491  11.159   8.250  0.5330  0.3281  0.8437
  498MOL0     H67219   0.648  11.357   8.275 -2.0556 -1.9037  0.8241
  498MOL0     H67220   0.797  11.606   8.188 -0.6055  0.1246  2.5478
  498MOL0     H67221   0.845  11.459   8.280  2.0028 -0.3936  0.2189
  498MOL0     H67222   1.003  11.618   8.081  1.3122 -2.7217 -0.9518
  498MOL0     H67223   1.075  11.483   8.179 -0.4287 -0.1492  5.2792
  498MOL0     H67224   1.004  11.617   8.381 -1.0028 -1.9262 -1.0474
  498MOL0     H67225   0.997  11.753   8.268  0.0938  0.3567  2.8744
  498MOL0     H67226   1.234  11.643   8.187 -3.8944 -1.8935 -0.9430
  498MOL0     H67227   1.229  11.599   8.361  0.2946  0.0238  0.9553
  498MOL0     H67228   1.286  12.015   8.370  0.3966 -0.3861  1.3538
  498MOL0     H67229   0.776  11.307   7.869 -0.3541 -1.6417 -0.6546
  498MOL0     H67230   0.619  11.123   7.831  2.2138 -4.0533  2.1626
  499MOL0     O67231   2.245   4.761   1.704  0.6709 -0.3820 -0.4241
  499MOL0     C67232   2.176   4.851   1.651  0.2353  0.4880 -0.3971
  499MOL0     O67233   2.227   4.971   1.622  0.3730  0.7833 -0.3486
  499MOL0     C67234   2.354   5.010   1.670  0.1513  0.0337 -0.8774
  499MOL0     C67235   2.454   5.012   1.581  0.5170  0.8564  0.1510
  499MOL0     C67236   2.581   5.052   1.623 -0.0656 -0.4782  0.0992
  499MOL0     C67237   2.607   5.077   1.757 -0.3267 -0.0131  0.5146
  499MOL0     O67238   2.734   5.082   1.803  0.8375  0.2150  0.7632
  499MOL0     C67239   2.780   5.212   1.838 -0.0160  1.3849 -0.2135
  499MOL0     C67240   2.876   5.201   1.960 -0.4339  0.1742 -0.6491
  499MOL0     C67241   2.805   5.151   2.089 -0.6230  0.1136  0.0961
  499MOL0     C67242   2.896   5.200   2.203 -0.3940  0.2832 -0.7096
  499MOL0     C67243   2.826   5.175   2.332 -0.9087 -0.2888 -0.1678
  499MOL0     C67244   2.910   5.229   2.447  0.5747  0.3851  0.2986
  499MOL0     C67245   2.858   5.178   2.582  0.3679  0.3572  0.1334
  499MOL0     C67246   2.944   5.237   2.690 -0.3591 -0.7503  0.0915
  499MOL0     N67247   2.887   5.222   2.825  0.1478 -0.1001  1.0032
  499MOL0     C67248   2.957   5.219   2.946  0.1044  0.5010 -0.4757
  499MOL0     C67249   2.862   5.211   3.041 -0.0624  0.3464  0.1457
  499MOL0     C67250   2.863   5.230   3.188 -0.0915 -0.3565  0.4338
  499MOL0     C67251   2.825   5.095   3.259  1.2098 -0.0701  0.3690
  499MOL0     C67252   2.928   4.977   3.254 -0.3414  0.0097 -0.1150
  499MOL0     C67253   2.888   4.848   3.325 -0.2338 -0.8187 -0.5991
  499MOL0     O67254   2.990   4.746   3.329  0.8361 -0.1096  0.0482
  499MOL0     C67255   3.087   4.755   3.432  0.4690 -0.5005 -0.2685
  499MOL0     C67256   3.165   4.644   3.434 -0.7679  0.5777  0.4939
  499MOL0     C67257   3.265   4.641   3.534  0.3144  0.0002 -0.6891
  499MOL0     C67258   3.324   4.501   3.557 -1.1642 -0.1451 -0.6311
  499MOL0     C67259   3.310   4.754   3.604 -0.2501 -0.5295 -0.6546
  499MOL0     C67260   3.409   4.756   3.711 -0.5214 -0.2423  0.0318
  499MOL0     O67261   3.541   4.719   3.669  0.0222 -0.4087  0.1806
  499MOL0     C67262   3.645   4.771   3.752 -0.1677  0.2315 -0.0536
  499MOL0     C67263   3.729   4.670   3.809  0.1603  0.3498 -0.2205
  499MOL0     C67264   3.845   4.709   3.886  0.0791  0.0683  0.2741
  499MOL0     C67265   3.884   4.845   3.896 -0.1881 -0.0469 -0.0465
  499MOL0     O67266   3.986   4.887   3.976 -0.4342 -0.4556  0.5337
  499MOL0     C67267   3.958   4.961   4.090  0.1705 -0.0772  0.6705
  499MOL0     C67268   3.931   4.877   4.214 -0.8656  0.6102  0.3211
  499MOL0     C67269   4.032   4.762   4.239 -0.0373 -0.0179  0.8775
  499MOL0     C67270   4.179   4.807   4.253 -0.8166 -0.0991  0.2656
  499MOL0     C67271   4.265   4.696   4.304 -0.1115  0.2738  0.4034
  499MOL0     C67272   4.391   4.748   4.364 -0.3115 -0.6132 -0.6027
  499MOL0     C67273   4.495   4.813   4.267 -0.8139  0.6911  0.6359
  499MOL0     C67274   4.624   4.854   4.335  0.6061  0.7182  0.0425
  499MOL0    Cl67275   4.688   4.710   4.411 -0.0759 -0.0867 -0.4483
  499MOL0     C67276   3.803   4.940   3.820  0.3696  0.4800 -0.2478
  499MOL0     C67277   3.682   4.903   3.755 -0.5849 -0.2124 -0.3637
  499MOL0     O67278   3.370   4.785   3.828  0.6824  0.6517 -0.1376
  499MOL0     C67279   3.231   4.868   3.582  0.4902 -0.7624 -1.2505
  499MOL0     C67280   3.120   4.868   3.498 -0.1859 -0.7251 -0.6608
  499MOL0     N67281   2.740   5.195   2.978 -0.0810 -0.6154 -0.3750
  499MOL0     N67282   2.755   5.216   2.849  0.2830  0.5667  0.3947
  499MOL0     C67283   2.498   5.068   1.846  0.7635  0.1845 -1.2490
  499MOL0     C67284   2.373   5.036   1.802 -0.0963 -0.6560  0.1218
  499MOL0     C67285   2.029   4.825   1.634  0.4030  0.5929 -0.7246
  499MOL0     C67286   1.973   4.700   1.689 -0.7460 -0.1157  0.8128
  499MOL0     C67287   1.836   4.673   1.662 -0.6294  0.1481 -0.2572
  499MOL0     C67288   1.756   4.754   1.584 -0.3688 -0.5763 -0.0140
  499MOL0     O67289   1.623   4.740   1.572  0.4425 -0.0780 -0.4953
  499MOL0     C67290   1.562   4.607   1.603 -0.5123 -0.1439 -0.1028
  499MOL0     C67291   1.473   4.604   1.729 -0.3782  0.4767 -0.3292
  499MOL0     C67292   1.401   4.477   1.732 -0.1895  0.1340  0.2863
  499MOL0     C67293   1.269   4.469   1.661  0.1342  0.2017  0.1257
  499MOL0     C67294   1.213   4.338   1.644  0.6410  1.1947 -0.3812
  499MOL0     C67295   1.191   4.218   1.641  0.2581 -0.0693 -0.0144
  499MOL0     C67296   1.804   4.878   1.538 -0.1113 -0.3768  0.0751
  499MOL0     C67297   1.943   4.905   1.556 -0.4517 -0.3637  0.4388
  499MOL0     H67298   2.436   4.999   1.475 -2.5663 -3.5738  0.9394
  499MOL0     H67299   2.658   5.070   1.549  0.5885  0.0982  0.9032
  499MOL0     H67300   2.835   5.258   1.756  1.3671  1.2719  0.6226
  499MOL0     H67301   2.693   5.264   1.881 -2.6886 -1.8900 -1.2035
  499MOL0     H67302   2.962   5.138   1.935 -1.5324 -3.0192  2.7432
  499MOL0     H67303   2.934   5.294   1.972  0.3713  0.0936 -3.2914
  499MOL0     H67304   2.702   5.188   2.084 -1.4661 -2.1124 -3.3552
  499MOL0     H67305   2.797   5.042   2.093 -0.5115  0.1527  2.3845
  499MOL0     H67306   2.996   5.158   2.193  0.4407  2.0424 -0.0958
  499MOL0     H67307   2.895   5.309   2.197  3.1617  0.4208 -0.7720
  499MOL0     H67308   2.723   5.203   2.357 -1.6181 -3.6991  1.3058
  499MOL0     H67309   2.816   5.067   2.347 -0.6365 -0.6415 -2.2359
  499MOL0     H67310   3.010   5.183   2.449 -0.1492 -1.2632 -0.0972
  499MOL0     H67311   2.911   5.338   2.439  2.3401  0.4249  0.5704
  499MOL0     H67312   2.756   5.216   2.591  1.2108  2.4045  1.9390
  499MOL0     H67313   2.865   5.070   2.594 -0.6916  0.1180 -1.1293
  499MOL0     H67314   2.957   5.342   2.663  3.4940 -1.2043 -0.4192
  499MOL0     H67315   3.038   5.182   2.685 -0.2929 -0.5473 -1.2464
  499MOL0     H67316   3.065   5.222   2.957  0.1457 -1.1244 -0.1900
  499MOL0     H67317   2.962   5.258   3.224 -0.9270  2.6470  0.6981
  499MOL0     H67318   2.785   5.301   3.216 -0.8292 -1.5482  1.5132
  499MOL0     H67319   2.737   5.068   3.199  2.0510  3.1691 -2.6605
  499MOL0     H67320   2.788   5.123   3.358  0.5000  2.3356 -0.5227
  499MOL0     H67321   3.017   5.013   3.305  1.3388 -0.9079 -2.2565
  499MOL0     H67322   2.954   4.950   3.152 -3.7575 -1.0740 -0.8422
  499MOL0     H67323   2.801   4.809   3.270 -1.9341  0.4409  1.0572
  499MOL0     H67324   2.859   4.871   3.428 -0.4992  0.7713 -1.0046
  499MOL0     H67325   3.123   4.557   3.383 -0.8304  0.2166  1.1403
  499MOL0     H67326   3.419   4.482   3.508  0.2733  2.9642  0.6612
  499MOL0     H67327   3.329   4.495   3.666 -0.8518  0.4670 -0.6030
  499MOL0     H67328   3.259   4.426   3.510  1.8553 -2.5625 -1.2624
  499MOL0     H67329   3.716   4.563   3.798  2.3891 -0.1883  1.6212
  499MOL0     H67330   3.912   4.641   3.936  0.0741  2.0115  3.1456
  499MOL0     H67331   4.050   5.018   4.109  0.6256 -0.6468  0.1951
  499MOL0     H67332   3.881   5.034   4.065 -1.0057 -2.1107 -2.0671
  499MOL0     H67333   3.922   4.937   4.305  2.4310  2.8755 -0.7091
  499MOL0     H67334   3.831   4.832   4.203  0.0694 -1.1494 -1.7920
  499MOL0     H67335   4.038   4.695   4.153 -0.6124 -0.2055  0.9804
  499MOL0     H67336   4.000   4.717   4.334 -0.7386  1.0247  1.1605
  499MOL0     H67337   4.219   4.843   4.158 -0.8735  1.8895  0.9493
  499MOL0     H67338   4.183   4.893   4.321  1.5301 -0.5857  0.8146
  499MOL0     H67339   4.282   4.621   4.226 -2.0482 -2.1057  2.1322
  499MOL0     H67340   4.196   4.653   4.376 -2.5099  1.6694 -0.9220
  499MOL0     H67341   4.378   4.819   4.446  0.4961  1.2594 -2.0194
  499MOL0     H67342   4.431   4.660   4.416 -1.7000 -2.7245 -2.9025
  499MOL0     H67343   4.452   4.900   4.218 -0.7778 -2.0295 -4.9894
  499MOL0     H67344   4.519   4.750   4.181  1.4705  2.7399 -0.3355
  499MOL0     H67345   4.615   4.936   4.406 -3.8724  0.3363  0.2409
  499MOL0     H67346   4.690   4.891   4.256 -0.2464  2.2822  0.0194
  499MOL0     H67347   3.843   5.039   3.805  1.0344  0.1071 -1.0509
  499MOL0     H67348   3.626   4.982   3.705 -2.3543 -1.7218 -0.9007
  499MOL0     H67349   3.249   4.964   3.628  0.0192 -1.5326  0.5960
  499MOL0     H67350   3.072   4.965   3.495  1.2270 -0.0223 -2.9518
  499MOL0     H67351   2.525   5.069   1.951 -3.8553  0.6584  0.1363
  499MOL0     H67352   2.285   5.011   1.861  1.0749 -1.0804  1.7596
  499MOL0     H67353   2.026   4.627   1.749 -2.9903 -1.5734  1.1287
  499MOL0     H67354   1.794   4.585   1.710  0.0894 -1.9521 -3.2479
  499MOL0     H67355   1.491   4.592   1.520  0.9176 -0.5019 -1.3123
  499MOL0     H67356   1.639   4.529   1.592  0.4715  0.9179 -1.0380
  499MOL0     H67357   1.406   4.689   1.744  0.9410  1.9389 -2.1797
  499MOL0     H67358   1.541   4.605   1.814  0.9162 -0.8195 -1.2968
  499MOL0     H67359   1.385   4.437   1.833 -2.7029 -4.6940 -1.7082
  499MOL0     H67360   1.468   4.397   1.697  0.7172  1.1761 -0.4386
  499MOL0     H67361   1.280   4.512   1.561 -0.7483  1.1555  0.4163
  499MOL0     H67362   1.189   4.528   1.707 -0.7000 -0.1123 -0.8798
  499MOL0     H67363   1.163   4.114   1.639  0.2423 -0.1242  1.9863
  499MOL0     H67364   1.736   4.942   1.481  1.2431  0.2711 -0.8709
  499MOL0     H67365   1.980   5.000   1.519 -0.3789  0.4864  2.5189
  500MOL0     O67366   0.009   6.080   6.704 -0.0345 -0.0880  0.6024
  500MOL0     C67367  -0.108   6.095   6.661 -0.8030 -0.1644  0.9216
  500MOL0     O67368  -0.129   6.145   6.536  0.4566 -0.2028  0.2771
  500MOL0     C67369  -0.029   6.161   6.449 -1.4154 -1.2878 -0.0672
  500MOL0     C67370   0.079   6.244   6.474  0.3847  0.1924 -0.2900
  500MOL0     C67371   0.178   6.279   6.382 -0.5108  0.2088 -0.1489
  500MOL0     C67372   0.171   6.239   6.260 -0.3202 -0.6018 -0.2216
  500MOL0     O67373   0.279   6.258   6.174 -0.6213 -0.2367  0.1009
  500MOL0     C67374   0.338   6.132   6.150  0.8068 -0.1779  0.2688
  500MOL0     C67375   0.474   6.154   6.086  0.5419 -0.2019 -0.1985
  500MOL0     C67376   0.478   6.128   5.935 -0.0924  0.4913 -0.5041
  500MOL0     C67377   0.599   6.201   5.879 -0.8656  0.1266  0.2344
  500MOL0     C67378   0.625   6.179   5.725 -0.7616  0.7147 -0.8053
  500MOL0     C67379   0.516   6.244   5.636 -0.2790 -0.5623  0.1462
  500MOL0     C67380   0.507   6.400   5.660  0.4570 -0.4500 -0.1524
  500MOL0     C67381   0.393   6.456   5.566  0.3051 -0.6400 -0.2306
  500MOL0     N67382   0.380   6.415   5.426  0.7335 -0.6338  0.2111
  500MOL0     C67383   0.386   6.506   5.329 -0.3070 -1.1748 -0.2722
  500MOL0     C67384   0.303   6.469   5.234 -1.1463 -0.0168 -0.6932
  500MOL0     C67385   0.251   6.548   5.125 -0.4499  0.0148  0.7555
  500MOL0     C67386   0.137   6.637   5.177  0.1308 -0.1282 -0.3127
  500MOL0     C67387   0.122   6.761   5.094 -0.2065  0.1222 -0.1995
  500MOL0     C67388   0.029   6.860   5.164  0.0424  0.2481  0.1736
  500MOL0     O67389   0.021   6.978   5.085  0.7392  0.1771 -0.7490
  500MOL0     C67390  -0.098   7.041   5.053 -0.0716 -0.2550  0.7463
  500MOL0     C67391  -0.228   6.980   5.066  0.7749  0.1434 -0.5506
  500MOL0     C67392  -0.339   7.049   5.030 -0.1021  0.3930 -1.2985
  500MOL0     C67393  -0.467   6.971   5.044  0.3539  0.4963 -0.2037
  500MOL0     C67394  -0.329   7.172   4.957 -0.9291 -0.2166 -0.4127
  500MOL0     C67395  -0.449   7.252   4.909 -0.9205  0.1123 -0.0101
  500MOL0     O67396  -0.440   7.338   4.806 -0.1614  0.2222 -1.2952
  500MOL0     C67397  -0.542   7.430   4.763 -0.0134 -0.6113 -0.2238
  500MOL0     C67398  -0.656   7.471   4.841  0.3998 -0.3821 -0.6144
  500MOL0     C67399  -0.760   7.537   4.783  0.6974  0.0825  0.4542
  500MOL0     C67400  -0.756   7.574   4.644  0.9234  1.0758 -0.8022
  500MOL0     O67401  -0.863   7.619   4.571 -0.3367  0.5041  0.4318
  500MOL0     C67402  -0.984   7.663   4.648  0.1344 -0.9884 -0.3668
  500MOL0     C67403  -1.076   7.540   4.660  0.3934 -0.9984 -0.5748
  500MOL0     C67404  -1.220   7.575   4.671 -0.0076 -0.7623 -0.2097
  500MOL0     C67405  -1.321   7.464   4.656  0.2859  0.9968 -0.1764
  500MOL0     C67406  -1.364   7.435   4.512  0.4800  0.4306 -0.1166
  500MOL0     C67407  -1.491   7.340   4.508 -0.2259 -0.4472 -0.2833
  500MOL0     C67408  -1.472   7.195   4.554 -0.6575 -1.0283  0.3751
  500MOL0     C67409  -1.403   7.098   4.447 -0.3092 -0.1520  0.9674
  500MOL0    Cl67410  -1.380   6.936   4.511  0.1684 -0.5335  0.4114
  500MOL0     C67411  -0.642   7.534   4.563 -0.3114 -1.1260  0.7923
  500MOL0     C67412  -0.533   7.466   4.626  1.0197 -0.7436 -0.1905
  500MOL0     O67413  -0.566   7.225   4.955  0.2118 -0.0943 -0.2355
  500MOL0     C67414  -0.197   7.226   4.935 -0.0558  0.0072  0.1867
  500MOL0     C67415  -0.087   7.165   4.989 -0.4567  0.1412 -0.1790
  500MOL0     N67416   0.242   6.353   5.270 -0.6117  0.1613  0.6605
  500MOL0     N67417   0.286   6.320   5.386  0.2285 -0.1780  0.3661
  500MOL0     C67418   0.060   6.166   6.221 -0.0088 -0.5143 -0.3151
  500MOL0     C67419  -0.033   6.126   6.310  1.1590  0.1884 -1.7279
  500MOL0     C67420  -0.217   6.064   6.748  0.2742  0.0722  0.0795
  500MOL0     C67421  -0.198   6.050   6.886 -0.3881  0.1062 -0.2013
  500MOL0     C67422  -0.295   6.030   6.974 -0.1353  0.0209 -0.9887
  500MOL0     C67423  -0.431   6.027   6.940 -1.6715  0.1857  0.9825
  500MOL0     O67424  -0.528   6.028   7.037 -0.3293  0.0119  0.8355
  500MOL0     C67425  -0.508   5.986   7.170 -0.1808 -0.2088  0.9198
  500MOL0     C67426  -0.451   6.101   7.247  0.9992 -0.0594 -0.7803
  500MOL0     C67427  -0.450   6.063   7.399  0.0244  0.0432  0.7790
  500MOL0     C67428  -0.403   6.183   7.474  0.3238  0.8425 -0.7766
  500MOL0     C67429  -0.409   6.146   7.615  1.0086  0.6019  0.2574
  500MOL0     C67430  -0.452   6.108   7.723  0.4021 -1.0380  0.4478
  500MOL0     C67431  -0.455   6.030   6.800  0.8038 -1.8573 -0.1282
  500MOL0     C67432  -0.355   6.047   6.709 -0.4578 -0.9627  0.5488
  500MOL0     H67433   0.084   6.296   6.570 -2.6119  0.7761 -0.3702
  500MOL0     H67434   0.260   6.336   6.424 -0.1918 -0.7436  0.5431
  500MOL0     H67435   0.352   6.074   6.242 -2.4961  1.3149  1.8602
  500MOL0     H67436   0.276   6.075   6.081  1.9147  0.0711 -0.9800
  500MOL0     H67437   0.498   6.259   6.103 -3.4401  0.7690  0.3356
  500MOL0     H67438   0.555   6.102   6.138  1.4201  2.4995  1.3646
  500MOL0     H67439   0.485   6.024   5.903  2.4914  1.0623 -2.1802
  500MOL0     H67440   0.391   6.172   5.884 -1.5275 -0.4923  1.0240
  500MOL0     H67441   0.597   6.308   5.902  3.5375  0.3928  0.1469
  500MOL0     H67442   0.689   6.161   5.926 -0.5019 -1.2251 -1.5191
  500MOL0     H67443   0.721   6.222   5.696 -0.4743  0.9530  0.4801
  500MOL0     H67444   0.641   6.071   5.711  1.4298  1.0058 -0.8466
  500MOL0     H67445   0.544   6.234   5.531  3.5911  3.5739  0.4448
  500MOL0     H67446   0.417   6.202   5.654 -0.9750  1.5589  1.7337
  500MOL0     H67447   0.490   6.418   5.766  2.5523 -1.7920  0.4704
  500MOL0     H67448   0.601   6.447   5.629 -0.0352  0.7320  0.1056
  500MOL0     H67449   0.398   6.565   5.568  0.5779 -0.3981 -4.5342
  500MOL0     H67450   0.302   6.432   5.622  0.3169 -1.6071 -0.6051
  500MOL0     H67451   0.439   6.601   5.333 -2.7725  0.2592  1.6185
  500MOL0     H67452   0.332   6.611   5.086  1.0908 -1.7485  0.9569
  500MOL0     H67453   0.223   6.468   5.055 -3.5070 -1.2226  3.1446
  500MOL0     H67454   0.149   6.664   5.282  0.7307  1.8224 -0.8358
  500MOL0     H67455   0.044   6.579   5.174 -0.6387  1.1005 -1.5318
  500MOL0     H67456   0.088   6.746   4.991  1.0433  2.2688 -0.9901
  500MOL0     H67457   0.217   6.816   5.091  1.6590 -2.4208  3.7108
  500MOL0     H67458   0.069   6.889   5.261 -0.6639  0.0500  0.5349
  500MOL0     H67459  -0.061   6.801   5.187  0.3829  0.6160  2.7258
  500MOL0     H67460  -0.229   6.882   5.112  0.1226 -0.2084 -1.3075
  500MOL0     H67461  -0.453   6.876   5.096  1.6433  0.1546 -1.1293
  500MOL0     H67462  -0.539   7.026   5.106 -1.2156  0.5250 -1.9648
  500MOL0     H67463  -0.512   6.962   4.945  0.3897  1.5027 -0.3219
  500MOL0     H67464  -0.672   7.444   4.944  1.4146  0.1573 -0.3003
  500MOL0     H67465  -0.854   7.549   4.837  0.9279 -0.0024  0.8737
  500MOL0     H67466  -0.959   7.707   4.744  0.0331 -3.1922  0.7516
  500MOL0     H67467  -1.033   7.739   4.586  2.1101  0.8431  0.2080
  500MOL0     H67468  -1.063   7.473   4.574  1.2501 -1.0399 -0.4216
  500MOL0     H67469  -1.054   7.485   4.752 -0.8483  2.2221  1.8397
  500MOL0     H67470  -1.242   7.653   4.598  0.4759  2.2539  2.6282
  500MOL0     H67471  -1.230   7.614   4.773  5.2162  0.6883  0.0016
  500MOL0     H67472  -1.266   7.378   4.694 -0.2912  1.6323  2.3248
  500MOL0     H67473  -1.408   7.486   4.719  2.0513  1.6046  2.1790
  500MOL0     H67474  -1.279   7.388   4.462  0.1735  1.9784 -2.2190
  500MOL0     H67475  -1.389   7.531   4.466 -2.2293 -0.8616 -1.5622
  500MOL0     H67476  -1.575   7.379   4.568  0.9697 -0.0733  1.2133
  500MOL0     H67477  -1.529   7.335   4.406 -2.6568 -1.1621  0.5713
  500MOL0     H67478  -1.562   7.151   4.597 -0.3271  0.0502  2.2775
  500MOL0     H67479  -1.402   7.192   4.638  1.5720 -1.5071 -1.4012
  500MOL0     H67480  -1.305   7.134   4.417 -0.6189 -1.9853 -2.7892
  500MOL0     H67481  -1.470   7.081   4.362  3.0098 -1.6955 -1.5265
  500MOL0     H67482  -0.643   7.556   4.456  2.4366  1.7113  1.2046
  500MOL0     H67483  -0.439   7.438   4.580  3.9066  1.9386  3.4336
  500MOL0     H67484  -0.184   7.320   4.883 -0.5633  1.0012  1.7968
  500MOL0     H67485  -0.001   7.227   4.966 -0.2441 -0.9583 -2.6985
  500MOL0     H67486   0.066   6.109   6.128  1.4913 -1.8589  0.5491
  500MOL0     H67487  -0.123   6.080   6.272 -0.5882 -0.3273  2.4966
  500MOL0     H67488  -0.098   6.059   6.927  0.0998  3.1977 -1.8036
  500MOL0     H67489  -0.264   6.033   7.078  1.0796 -0.5262 -1.3240
  500MOL0     H67490  -0.605   5.967   7.217 -0.0047  1.9003  2.3212
  500MOL0     H67491  -0.454   5.892   7.181 -2.3604 -1.4073  1.9810
  500MOL0     H67492  -0.522   6.184   7.235 -0.6723 -1.1406  0.9395
  500MOL0     H67493  -0.350   6.137   7.228  0.6410  2.9416  2.1479
  500MOL0     H67494  -0.387   5.975   7.414  0.3406 -0.1550 -1.3805
  500MOL0     H67495  -0.552   6.043   7.434  0.7298  1.1463  3.7907
  500MOL0     H67496  -0.474   6.264   7.460  2.1933  3.1332  1.9267
  500MOL0     H67497  -0.300   6.216   7.456  0.0022  1.3163 -1.8136
  500MOL0     H67498  -0.480   6.064   7.817  0.6145 -2.4394 -0.1090
  500MOL0     H67499  -0.556   6.026   6.760  0.6351 -3.2381  0.3642
  500MOL0     H67500  -0.392   6.067   6.609 -1.6630 -1.3811  0.8847
  501MOL0     O67501   0.360   6.978   2.145  0.0868  0.2292  0.3129
  501MOL0     C67502   0.335   6.896   2.235 -0.7713 -0.8000  0.7488
  501MOL0     O67503   0.421   6.805   2.280 -0.4166 -0.0990 -0.6041
  501MOL0     C67504   0.547   6.838   2.267 -0.1426 -1.0992  0.0202
  501MOL0     C67505   0.628   6.791   2.173 -0.8644 -0.7352  0.3171
  501MOL0     C67506   0.764   6.845   2.171 -0.2233 -0.8282  0.5485
  501MOL0     C67507   0.821   6.909   2.279 -0.0469 -0.1109 -0.3415
  501MOL0     O67508   0.952   6.937   2.296 -0.1707  0.0936 -0.4415
  501MOL0     C67509   1.062   6.908   2.203  1.2654  0.0209 -0.4450
  501MOL0     C67510   1.089   6.756   2.210  0.0830  0.1603  0.1305
  501MOL0     C67511   1.157   6.699   2.091 -0.0904  0.2421  0.4823
  501MOL0     C67512   1.314   6.721   2.101 -0.5007 -0.2144  0.5880
  501MOL0     C67513   1.376   6.683   1.957  0.7842  0.3278 -0.4327
  501MOL0     C67514   1.472   6.567   1.958  0.6984 -0.2354 -0.1563
  501MOL0     C67515   1.598   6.608   2.031  0.3455 -0.8034  0.3549
  501MOL0     C67516   1.702   6.523   1.974 -0.4835  0.7359  0.4947
  501MOL0     N67517   1.763   6.579   1.856  0.3974  0.3056  0.6212
  501MOL0     C67518   1.891   6.632   1.842  0.2624  0.2915  0.3565
  501MOL0     C67519   1.909   6.643   1.705 -1.3137 -0.3332  0.3900
  501MOL0     C67520   2.020   6.724   1.639 -0.7244 -0.3692  0.3825
  501MOL0     C67521   2.158   6.656   1.681  0.4100 -0.6357  0.4786
  501MOL0     C67522   2.275   6.737   1.629  0.7040  0.4929 -0.4072
  501MOL0     C67523   2.407   6.693   1.685 -0.5609 -0.2263 -0.4347
  501MOL0     O67524   2.395   6.651   1.818 -0.6269  0.0907 -0.8516
  501MOL0     C67525   2.493   6.591   1.894 -0.7501 -0.4711 -0.1433
  501MOL0     C67526   2.446   6.523   2.005  0.2301  0.3474  0.2621
  501MOL0     C67527   2.538   6.453   2.085  0.8371 -0.5065  0.4262
  501MOL0     C67528   2.470   6.385   2.193 -0.8270  0.7816  1.3608
  501MOL0     C67529   2.679   6.465   2.065 -0.6062  0.0932 -0.3048
  501MOL0     C67530   2.783   6.400   2.148  0.1539  0.1323  1.2860
  501MOL0     O67531   2.905   6.457   2.135  0.7841 -0.4175 -0.2355
  501MOL0     C67532   3.020   6.383   2.135  0.3869 -0.9405 -0.3012
  501MOL0     C67533   3.037   6.244   2.126  0.3184  0.2097 -0.0447
  501MOL0     C67534   3.155   6.187   2.109  0.1506 -0.3194  0.9140
  501MOL0     C67535   3.271   6.259   2.098  0.6677 -0.2601  0.1111
  501MOL0     O67536   3.393   6.197   2.077 -0.2989 -0.1483 -0.5719
  501MOL0     C67537   3.496   6.264   2.002  0.3980 -0.2326 -1.0692
  501MOL0     C67538   3.602   6.165   1.934  0.2383 -0.7794 -0.2447
  501MOL0     C67539   3.527   6.065   1.847  0.7838 -0.7022 -0.0188
  501MOL0     C67540   3.628   5.990   1.772 -0.2857  0.2030  0.1552
  501MOL0     C67541   3.563   5.916   1.650  0.3053  0.9291  1.3219
  501MOL0     C67542   3.666   5.804   1.594  0.3529 -0.1858  0.4672
  501MOL0     C67543   3.786   5.870   1.514  0.6144  0.5261  0.3356
  501MOL0     C67544   3.879   5.760   1.476  0.2608 -0.6149  0.1238
  501MOL0    Cl67545   3.947   5.689   1.630 -0.0376 -0.0840  0.1100
  501MOL0     C67546   3.264   6.398   2.119 -0.2761  0.3683 -0.2255
  501MOL0     C67547   3.143   6.461   2.129  1.4025  0.3061  0.5114
  501MOL0     O67548   2.747   6.302   2.215 -0.5392  0.2424  0.1113
  501MOL0     C67549   2.720   6.538   1.952 -0.5454  0.1449 -0.3518
  501MOL0     C67550   2.625   6.590   1.858  0.6601 -0.7506  0.6554
  501MOL0     N67551   1.807   6.576   1.646 -0.1422 -0.0719  0.9756
  501MOL0     N67552   1.715   6.544   1.731 -0.9442  0.6371  0.2005
  501MOL0     C67553   0.726   6.959   2.375  0.1475  0.1209 -0.2464
  501MOL0     C67554   0.590   6.927   2.374 -0.3699  0.2442 -0.4321
  501MOL0     C67555   0.191   6.904   2.281 -0.3299  0.2704  0.9741
  501MOL0     C67556   0.095   7.004   2.247  0.0696 -0.4860  0.8140
  501MOL0     C67557  -0.038   6.994   2.285 -0.2111 -0.7533  0.8432
  501MOL0     C67558  -0.079   6.891   2.368 -0.1498  0.2238 -0.3645
  501MOL0     O67559  -0.211   6.911   2.408 -0.7861  0.7354 -0.0643
  501MOL0     C67560  -0.294   6.798   2.419 -0.7968 -1.0329  0.0001
  501MOL0     C67561  -0.437   6.854   2.459 -0.0635 -0.7462 -0.0109
  501MOL0     C67562  -0.536   6.739   2.488  0.3939 -0.3295  0.3088
  501MOL0     C67563  -0.677   6.784   2.516 -0.3922 -0.3979  1.5494
  501MOL0     C67564  -0.751   6.658   2.519 -0.3451  0.5366 -1.6053
  501MOL0     C67565  -0.826   6.562   2.508  0.7161 -0.4558  0.3910
  501MOL0     C67566   0.007   6.785   2.385 -1.3151  0.5810 -0.1348
  501MOL0     C67567   0.148   6.797   2.352  1.2513  0.6048  0.3766
  501MOL0     H67568   0.589   6.735   2.088  0.8761 -1.7188  0.1307
  501MOL0     H67569   0.833   6.819   2.091 -0.3761 -1.8487  0.7358
  501MOL0     H67570   1.036   6.936   2.101  0.3562 -0.7123 -0.4310
  501MOL0     H67571   1.145   6.973   2.231  0.5997  0.1787  1.3304
  501MOL0     H67572   1.142   6.740   2.304  2.1483  2.1522 -0.6044
  501MOL0     H67573   0.993   6.702   2.215  1.2894 -2.1815 -0.6520
  501MOL0     H67574   1.129   6.595   2.074 -0.1729  0.4382 -0.6608
  501MOL0     H67575   1.115   6.740   1.999  0.5981  1.5461  0.7183
  501MOL0     H67576   1.319   6.824   2.136  2.4233  0.4754 -1.5067
  501MOL0     H67577   1.357   6.645   2.167 -1.6683 -2.2694 -0.9098
  501MOL0     H67578   1.291   6.658   1.893 -0.0801 -0.5550  0.9970
  501MOL0     H67579   1.416   6.773   1.910  0.2954  0.6494 -0.2302
  501MOL0     H67580   1.420   6.481   2.001 -1.6464  1.0160 -0.3354
  501MOL0     H67581   1.487   6.550   1.851  2.1966  2.2805 -0.4139
  501MOL0     H67582   1.616   6.708   1.990  0.4709 -0.4674  1.2133
  501MOL0     H67583   1.580   6.611   2.139 -0.6483 -0.1263  0.1869
  501MOL0     H67584   1.652   6.429   1.949 -1.3695  0.9092  1.5525
  501MOL0     H67585   1.772   6.504   2.056 -1.2803 -0.4387  0.9304
  501MOL0     H67586   1.950   6.689   1.913  1.2407  0.2638 -0.4089
  501MOL0     H67587   2.015   6.726   1.530 -0.6267 -2.0155  0.3237
  501MOL0     H67588   2.030   6.829   1.668  1.7100 -0.3947 -0.1812
  501MOL0     H67589   2.178   6.554   1.649  2.4899  0.5625 -2.4719
  501MOL0     H67590   2.172   6.653   1.789  3.6449  0.1387  0.1654
  501MOL0     H67591   2.253   6.841   1.654  1.2512  0.5696 -0.2185
  501MOL0     H67592   2.284   6.719   1.521  2.0604  0.7419 -0.3613
  501MOL0     H67593   2.475   6.779   1.691 -0.8794 -0.0636  1.5966
  501MOL0     H67594   2.448   6.622   1.612 -0.1137  0.8943 -1.3222
  501MOL0     H67595   2.338   6.514   2.010  0.4028 -1.4797  1.4589
  501MOL0     H67596   2.511   6.406   2.293 -1.7437 -0.6774  2.0644
  501MOL0     H67597   2.361   6.394   2.195 -0.9770 -0.4338 -0.0013
  501MOL0     H67598   2.497   6.279   2.189 -2.1751  0.4623 -1.3603
  501MOL0     H67599   2.954   6.177   2.108  2.7435 -3.4423  1.3470
  501MOL0     H67600   3.151   6.079   2.093 -1.2939 -0.3955  1.6027
  501MOL0     H67601   3.454   6.331   1.926  0.6409  0.1378 -0.8804
  501MOL0     H67602   3.558   6.330   2.064  1.0178  0.6571 -2.5713
  501MOL0     H67603   3.661   6.232   1.871 -0.3715 -2.6567 -2.9769
  501MOL0     H67604   3.660   6.116   2.013  0.0748  1.5744  1.4489
  501MOL0     H67605   3.475   6.132   1.777  2.4274  0.0520 -0.5845
  501MOL0     H67606   3.454   6.003   1.899 -0.7448  2.5271  1.9923
  501MOL0     H67607   3.716   6.045   1.738 -1.0267  0.5380 -1.3150
  501MOL0     H67608   3.676   5.919   1.839  4.2378  3.6558  1.0471
  501MOL0     H67609   3.531   5.977   1.566 -1.3283  0.4189  1.5376
  501MOL0     H67610   3.471   5.869   1.687  0.8944  0.9923  2.9863
  501MOL0     H67611   3.712   5.749   1.676  0.2854  0.5227  0.9841
  501MOL0     H67612   3.616   5.736   1.525  0.2512  1.2247 -0.9088
  501MOL0     H67613   3.838   5.949   1.569  1.8711  0.5561 -0.8385
  501MOL0     H67614   3.738   5.915   1.427 -1.8872  1.4074  2.0752
  501MOL0     H67615   3.960   5.807   1.419 -1.3550 -1.2632 -2.9251
  501MOL0     H67616   3.833   5.684   1.412 -2.0553  1.9136 -1.4202
  501MOL0     H67617   3.356   6.455   2.128 -0.0140  0.1013 -1.0934
  501MOL0     H67618   3.117   6.566   2.137  1.2991  0.3540 -0.4140
  501MOL0     H67619   2.826   6.534   1.926 -0.0937 -5.4777  1.1617
  501MOL0     H67620   2.659   6.646   1.772  1.4396 -3.0031 -0.5826
  501MOL0     H67621   0.765   7.007   2.465 -1.1619  0.6666  0.0492
  501MOL0     H67622   0.524   6.962   2.453  0.8190 -2.3654  1.8937
  501MOL0     H67623   0.124   7.092   2.191  2.4516  0.6186  3.4975
  501MOL0     H67624  -0.102   7.074   2.249  1.7206 -0.1013 -1.4230
  501MOL0     H67625  -0.298   6.737   2.327  0.5054 -3.7423  1.6065
  501MOL0     H67626  -0.262   6.728   2.497 -2.2032 -2.0332 -0.2765
  501MOL0     H67627  -0.479   6.904   2.372  1.3001 -2.0265 -1.4671
  501MOL0     H67628  -0.434   6.928   2.539 -0.8108 -1.1563  0.4049
  501MOL0     H67629  -0.511   6.688   2.581  1.5375 -0.3699 -0.0069
  501MOL0     H67630  -0.532   6.682   2.394 -0.0230  2.5235 -1.5738
  501MOL0     H67631  -0.711   6.853   2.439 -0.3523 -1.9973  0.0378
  501MOL0     H67632  -0.678   6.835   2.613 -2.9549 -0.7613  1.7987
  501MOL0     H67633  -0.884   6.473   2.521 -1.6883  1.3439  3.1227
  501MOL0     H67634  -0.038   6.703   2.441 -2.9764  1.6258  0.1411
  501MOL0     H67635   0.222   6.721   2.379  0.9496  0.0844 -0.2452
  502MOL0     O67636   0.340   0.109  11.168 -0.1389  0.2680  0.4946
  502MOL0     C67637   0.366   0.152  11.286  0.3120 -0.0654  0.6559
  502MOL0     O67638   0.267   0.192  11.376 -0.2746  0.3585 -0.2710
  502MOL0     C67639   0.137   0.175  11.331 -0.1924  0.1459 -0.4525
  502MOL0     C67640   0.060   0.081  11.399  0.3013  0.0269  0.4405
  502MOL0     C67641  -0.067   0.047  11.351 -0.3586  0.1020 -0.0942
  502MOL0     C67642  -0.123   0.120  11.241  0.3377 -0.0167 -0.3942
  502MOL0     O67643  -0.243   0.089  11.176  0.2022 -0.7583  0.1944
  502MOL0     C67644  -0.301  -0.032  11.210  0.4318 -0.2350  0.2466
  502MOL0     C67645  -0.441  -0.039  11.146 -0.6948 -0.2959 -0.5790
  502MOL0     C67646  -0.524  -0.168  11.181  0.4121  0.7000 -0.2249
  502MOL0     C67647  -0.531  -0.282  11.085 -0.0334  0.1490 -0.0798
  502MOL0     C67648  -0.607  -0.236  10.963 -0.6450 -0.1533  0.4699
  502MOL0     C67649  -0.564  -0.324  10.833  0.7361 -0.5185 -0.3788
  502MOL0     C67650  -0.612  -0.465  10.836  0.3151  0.0185  0.1050
  502MOL0     C67651  -0.554  -0.554  10.728  0.3908  1.0323  0.1551
  502MOL0     N67652  -0.609  -0.542  10.593 -0.2147 -0.4911  0.2357
  502MOL0     C67653  -0.540  -0.594  10.483  0.2836 -0.3408 -1.0869
  502MOL0     C67654  -0.630  -0.595  10.379  0.7401  0.0391  0.6010
  502MOL0     C67655  -0.631  -0.676  10.249  0.8162 -1.1546  0.4400
  502MOL0     C67656  -0.756  -0.658  10.157  0.5627 -0.9095  0.2269
  502MOL0     C67657  -0.733  -0.737  10.029  0.0582  0.3138  0.4864
  502MOL0     C67658  -0.853  -0.717   9.945 -0.0148  0.0195 -0.1740
  502MOL0     O67659  -0.895  -0.580   9.923 -0.3548  0.4543  0.2359
  502MOL0     C67660  -1.006  -0.546   9.856  0.0018  0.0120  0.3232
  502MOL0     C67661  -1.019  -0.413   9.818 -0.3556 -0.3149 -0.0645
  502MOL0     C67662  -1.131  -0.362   9.753  0.3448  0.1241 -0.5762
  502MOL0     C67663  -1.118  -0.210   9.719  0.4675  0.0408 -0.2482
  502MOL0     C67664  -1.225  -0.456   9.704  0.1613  0.6705 -0.6504
  502MOL0     C67665  -1.341  -0.417   9.619  0.4434 -0.8576  0.9196
  502MOL0     O67666  -1.422  -0.521   9.592 -0.8424  0.5606  0.4191
  502MOL0     C67667  -1.540  -0.517   9.529  0.6413  1.0048 -0.2723
  502MOL0     C67668  -1.637  -0.424   9.563  0.4037  0.0944  0.3947
  502MOL0     C67669  -1.777  -0.443   9.532 -0.3370  0.3307 -0.6007
  502MOL0     C67670  -1.805  -0.560   9.453  0.8050 -0.6990  1.2956
  502MOL0     O67671  -1.937  -0.590   9.428  0.8625  0.1263 -0.3584
  502MOL0     C67672  -2.025  -0.495   9.364 -0.2018  0.0956 -0.6949
  502MOL0     C67673  -2.022  -0.498   9.207 -0.2398  0.0911 -0.6595
  502MOL0     C67674  -2.129  -0.593   9.165  0.1358 -0.2718 -0.2822
  502MOL0     C67675  -2.091  -0.736   9.186  0.7984  0.2679 -0.0803
  502MOL0     C67676  -2.203  -0.835   9.147  0.1114 -1.5838 -0.9993
  502MOL0     C67677  -2.192  -0.966   9.217 -0.3280 -0.0160  0.2255
  502MOL0     C67678  -2.076  -1.045   9.179 -0.0335 -0.1617  0.1621
  502MOL0     C67679  -1.991  -1.093   9.305  0.1930 -0.1549 -0.0982
  502MOL0    Cl67680  -2.095  -1.139   9.441 -0.1375 -0.2953  0.1328
  502MOL0     C67681  -1.703  -0.653   9.419  0.2866 -0.2947  0.0909
  502MOL0     C67682  -1.575  -0.632   9.454 -0.1272 -0.8022 -0.7474
  502MOL0     O67683  -1.364  -0.304   9.572 -0.1702  0.8689  1.0150
  502MOL0     C67684  -1.212  -0.592   9.745  0.7385  0.1588 -0.3557
  502MOL0     C67685  -1.111  -0.638   9.822  0.5442  0.4039 -0.3014
  502MOL0     N67686  -0.749  -0.533  10.433 -0.2024  0.3667 -0.5605
  502MOL0     N67687  -0.740  -0.504  10.558  0.3589  0.5745 -1.1268
  502MOL0     C67688  -0.042   0.219  11.182  0.7275 -0.1618  1.1348
  502MOL0     C67689   0.088   0.245  11.224  0.1720  0.4776  0.4659
  502MOL0     C67690   0.511   0.137  11.327 -0.2429  0.2887  0.3939
  502MOL0     C67691   0.566   0.132  11.459 -0.0167  0.2812 -0.8726
  502MOL0     C67692   0.702   0.114  11.488  0.1849  0.0907 -0.2350
  502MOL0     C67693   0.794   0.112  11.380  0.5539  0.1415 -0.8841
  502MOL0     O67694   0.929   0.081  11.401  0.0891  0.9204  0.1833
  502MOL0     C67695   0.998   0.204  11.411  0.6894 -0.2167 -1.2266
  502MOL0     C67696   1.079   0.252  11.299 -0.0093 -0.2769  0.2217
  502MOL0     C67697   1.194   0.163  11.265 -1.2265  0.0203 -0.8693
  502MOL0     C67698   1.319   0.203  11.339 -0.6324  0.8123 -0.9331
  502MOL0     C67699   1.428   0.114  11.315  0.1465 -1.1016  0.4517
  502MOL0     C67700   1.522   0.043  11.290 -0.3509 -0.6319  0.3545
  502MOL0     C67701   0.747   0.104  11.249 -0.4879 -0.8332  0.4783
  502MOL0     C67702   0.603   0.116  11.227  0.2026 -0.2582  0.1269
  502MOL0     H67703   0.111   0.036  11.484  2.2270  1.9216  0.3726
  502MOL0     H67704  -0.127  -0.029  11.399 -1.8965  1.5208  0.3218
  502MOL0     H67705  -0.242  -0.113  11.166 -1.4266 -0.9836 -1.0065
  502MOL0     H67706  -0.315  -0.051  11.317  0.6205 -2.7481 -0.1176
  502MOL0     H67707  -0.493   0.044  11.195 -0.3294 -1.2615  1.5610
  502MOL0     H67708  -0.430  -0.031  11.038 -1.2289 -1.1055 -0.7037
  502MOL0     H67709  -0.487  -0.215  11.273 -1.8654 -3.7065 -1.2857
  502MOL0     H67710  -0.625  -0.134  11.204  0.0801 -0.5409  0.2227
  502MOL0     H67711  -0.429  -0.313  11.062  0.2719  1.7615 -1.0303
  502MOL0     H67712  -0.578  -0.372  11.127 -1.4432  1.3236  0.9551
  502MOL0     H67713  -0.714  -0.250  10.985 -0.8031 -1.0768 -0.7559
  502MOL0     H67714  -0.583  -0.132  10.938 -0.1991 -0.5559 -0.8888
  502MOL0     H67715  -0.604  -0.276  10.743 -3.9254 -0.8030  1.2776
  502MOL0     H67716  -0.455  -0.324  10.817  0.8511 -0.4069  0.3462
  502MOL0     H67717  -0.585  -0.502  10.936 -1.3014  2.3802  1.5249
  502MOL0     H67718  -0.721  -0.473  10.838  0.4286 -2.1257  0.4935
  502MOL0     H67719  -0.564  -0.660  10.754  2.6845  0.2929 -1.6635
  502MOL0     H67720  -0.448  -0.528  10.723  0.3430  1.1042 -0.7404
  502MOL0     H67721  -0.457  -0.664  10.491 -2.5722 -3.8167  2.6381
  502MOL0     H67722  -0.543  -0.662  10.186  0.9073  0.3745  0.8602
  502MOL0     H67723  -0.635  -0.779  10.285 -0.0503 -0.7756  1.4749
  502MOL0     H67724  -0.770  -0.551  10.137 -0.1424 -1.0691 -0.1635
  502MOL0     H67725  -0.849  -0.697  10.201 -0.1887 -0.2767 -0.7485
  502MOL0     H67726  -0.724  -0.846  10.038 -1.6821 -0.1071 -1.8932
  502MOL0     H67727  -0.645  -0.702   9.974 -0.2849 -2.2059 -1.9092
  502MOL0     H67728  -0.945  -0.762   9.984  0.1619 -1.6763 -1.5402
  502MOL0     H67729  -0.824  -0.777   9.858  1.3289 -0.1073  0.3502
  502MOL0     H67730  -0.939  -0.344   9.841  0.0535 -1.3828  1.9801
  502MOL0     H67731  -1.198  -0.152   9.766 -0.2275  0.3873 -1.7922
  502MOL0     H67732  -1.019  -0.167   9.738  1.1069 -0.5461 -1.9974
  502MOL0     H67733  -1.133  -0.196   9.611  2.2651  0.7633 -0.4387
  502MOL0     H67734  -1.598  -0.331   9.602  3.3058 -1.7522  2.2808
  502MOL0     H67735  -1.857  -0.378   9.564 -0.4263 -0.7173  1.4453
  502MOL0     H67736  -2.129  -0.507   9.397 -1.4993 -0.8242 -4.5770
  502MOL0     H67737  -1.997  -0.393   9.394  0.8437 -0.3797 -0.0009
  502MOL0     H67738  -2.052  -0.396   9.180 -1.8784  0.9748  3.7169
  502MOL0     H67739  -1.921  -0.516   9.167  1.4129  2.6525  1.9526
  502MOL0     H67740  -2.143  -0.569   9.059  1.9470  0.6804 -0.3492
  502MOL0     H67741  -2.225  -0.576   9.214 -0.0290 -0.7325 -0.4327
  502MOL0     H67742  -1.996  -0.765   9.138  0.4443 -3.5005  1.1876
  502MOL0     H67743  -2.088  -0.765   9.291  1.5979  2.6776  0.6208
  502MOL0     H67744  -2.206  -0.852   9.039  0.9802 -0.3432 -1.2363
  502MOL0     H67745  -2.306  -0.803   9.164  0.5283  0.3067 -1.7734
  502MOL0     H67746  -2.187  -0.951   9.325  2.2885 -4.3229  0.9422
  502MOL0     H67747  -2.283  -1.026   9.210  0.3451 -1.4363  2.5207
  502MOL0     H67748  -2.027  -0.985   9.103 -0.7521  3.4692  2.3357
  502MOL0     H67749  -2.122  -1.132   9.132  1.2926 -1.0012  0.3399
  502MOL0     H67750  -1.934  -1.007   9.339 -0.3584 -0.1072  0.7190
  502MOL0     H67751  -1.921  -1.171   9.272 -0.0547 -0.5312  0.2672
  502MOL0     H67752  -1.726  -0.750   9.376  3.9206 -0.4582 -1.8953
  502MOL0     H67753  -1.494  -0.700   9.428  0.0026 -1.2727  0.8169
  502MOL0     H67754  -1.278  -0.670   9.708  2.8094 -2.0431  0.3389
  502MOL0     H67755  -1.111  -0.740   9.857 -1.0456  1.1917  2.3160
  502MOL0     H67756  -0.095   0.280  11.109  3.2584 -0.1042 -0.8032
  502MOL0     H67757   0.142   0.334  11.193  2.1569 -1.0214 -0.6712
  502MOL0     H67758   0.502   0.138  11.547 -1.2289 -2.0469 -1.5150
  502MOL0     H67759   0.735   0.110  11.591 -1.0324 -0.6652  0.1507
  502MOL0     H67760   0.935   0.282  11.455  1.0403 -0.2956 -0.5646
  502MOL0     H67761   1.061   0.175  11.496 -1.5992 -1.1157  0.2396
  502MOL0     H67762   1.103   0.358  11.309 -0.8559  0.2421 -2.4497
  502MOL0     H67763   1.009   0.260  11.215  0.7567 -0.2157 -0.4264
  502MOL0     H67764   1.208   0.168  11.157  0.1358 -2.2934 -0.8609
  502MOL0     H67765   1.171   0.060  11.297  0.7958 -0.5698 -1.1752
  502MOL0     H67766   1.304   0.203  11.447  1.4192  0.8024 -0.6071
  502MOL0     H67767   1.353   0.305  11.321  0.1404  1.0871  1.6272
  502MOL0     H67768   1.606  -0.017  11.260 -0.7535  0.8067 -4.4146
  502MOL0     H67769   0.813   0.096  11.163 -0.4857  1.5177  0.1835
  502MOL0     H67770   0.557   0.108  11.129 -0.2596  0.2376  0.2979
  503MOL0     O67771   1.157   8.110   5.284  0.3800  0.1549  0.2032
  503MOL0     C67772   1.223   8.211   5.300 -0.0361  0.5216  0.6343
  503MOL0     O67773   1.348   8.239   5.243  0.1691  0.8126  0.1608
  503MOL0     C67774   1.398   8.147   5.148  0.3664 -0.7408  0.5853
  503MOL0     C67775   1.398   8.007   5.176 -0.5227  0.2867  0.8966
  503MOL0     C67776   1.467   7.918   5.090  0.2332 -0.2567  0.3738
  503MOL0     C67777   1.518   7.983   4.966 -0.4893  0.0026 -0.3387
  503MOL0     O67778   1.573   7.919   4.859  0.3047  0.0364 -0.1252
  503MOL0     C67779   1.614   7.788   4.882 -0.7107  0.6702  0.4425
  503MOL0     C67780   1.635   7.727   4.746  0.6356  0.7629  0.6326
  503MOL0     C67781   1.649   7.576   4.751 -0.6361 -0.5978  0.0029
  503MOL0     C67782   1.669   7.541   4.599  0.1416  0.8300 -1.0795
  503MOL0     C67783   1.694   7.390   4.605 -0.7988  0.3780  0.3612
  503MOL0     C67784   1.706   7.344   4.459 -0.4676  0.0023 -0.2323
  503MOL0     C67785   1.711   7.193   4.451  1.1897 -0.8309 -0.2218
  503MOL0     C67786   1.768   7.150   4.312  0.5370  0.4642 -0.7906
  503MOL0     N67787   1.913   7.172   4.313  0.7052  0.7467  0.8039
  503MOL0     C67788   1.984   7.112   4.419 -0.6116  0.6851 -0.6669
  503MOL0     C67789   2.111   7.115   4.373  0.4086  0.6990 -0.0776
  503MOL0     C67790   2.228   7.079   4.457  0.0494 -0.5864 -0.2174
  503MOL0     C67791   2.345   7.002   4.376  0.0191 -0.1827 -0.3942
  503MOL0     C67792   2.417   7.107   4.292 -0.5811 -0.0374 -1.0014
  503MOL0     C67793   2.498   7.054   4.175  0.1813  0.5982  0.4270
  503MOL0     O67794   2.581   6.935   4.209  0.2142 -0.3948  0.1746
  503MOL0     C67795   2.645   6.871   4.106  0.0593  0.0655  0.5246
  503MOL0     C67796   2.723   6.765   4.143  0.7764  0.7457 -0.0940
  503MOL0     C67797   2.804   6.695   4.058  1.2945  0.1559  0.4454
  503MOL0     C67798   2.898   6.582   4.092 -0.3908 -0.2723 -0.4124
  503MOL0     C67799   2.786   6.730   3.916  0.0442 -0.4951 -0.0645
  503MOL0     C67800   2.862   6.666   3.807 -0.3954  0.1036  0.0657
  503MOL0     O67801   2.957   6.738   3.751  0.1970 -0.2245  0.6102
  503MOL0     C67802   3.016   6.685   3.643 -0.1223  0.1965  1.2305
  503MOL0     C67803   2.963   6.733   3.521 -0.2872 -0.4298 -0.1644
  503MOL0     C67804   3.031   6.714   3.394  0.8725  0.4908  0.0810
  503MOL0     C67805   3.151   6.638   3.392  0.2017 -0.5846 -0.5808
  503MOL0     O67806   3.207   6.627   3.267 -0.0453  0.0655 -0.1010
  503MOL0     C67807   3.273   6.497   3.247  0.1002 -0.0654  0.2700
  503MOL0     C67808   3.423   6.507   3.273 -0.8701 -0.8842 -0.3915
  503MOL0     C67809   3.492   6.386   3.204 -1.1520 -0.7716  0.5483
  503MOL0     C67810   3.499   6.409   3.052  1.0609 -0.3025 -0.4527
  503MOL0     C67811   3.593   6.297   2.994  0.1402  0.2798  0.2856
  503MOL0     C67812   3.744   6.332   3.013  0.0513  0.0987 -0.5421
  503MOL0     C67813   3.818   6.367   2.883  0.8908  0.0028  0.4169
  503MOL0     C67814   3.961   6.361   2.921 -0.6718  0.0416  0.0839
  503MOL0    Cl67815   4.001   6.467   3.053  0.0185 -0.0575  0.4227
  503MOL0     C67816   3.205   6.602   3.515  0.7892  0.0919  1.0482
  503MOL0     C67817   3.131   6.614   3.639 -0.0188 -0.1881 -0.4187
  503MOL0     O67818   2.829   6.547   3.785  0.1541  0.0782  0.0614
  503MOL0     C67819   2.700   6.833   3.877 -0.6871  0.6123  0.2166
  503MOL0     C67820   2.629   6.896   3.971  0.9087 -0.6176 -0.0452
  503MOL0     N67821   2.107   7.176   4.244  0.6832  0.3606  1.2070
  503MOL0     N67822   1.990   7.228   4.219  0.8795 -0.5089  0.0773
  503MOL0     C67823   1.493   8.115   4.931  0.0125  0.4043  0.9457
  503MOL0     C67824   1.456   8.201   5.027 -0.1055 -0.4180 -0.4532
  503MOL0     C67825   1.149   8.309   5.382 -0.5150  0.1617  0.2477
  503MOL0     C67826   1.034   8.274   5.453  0.0051 -0.5149  0.4779
  503MOL0     C67827   0.972   8.363   5.541 -0.8334 -0.2126  0.1068
  503MOL0     C67828   1.034   8.488   5.569  0.0099 -0.8976  0.8512
  503MOL0     O67829   0.952   8.580   5.641 -0.2799  0.0955  0.6919
  503MOL0     C67830   1.020   8.690   5.695 -0.4700 -0.5204 -0.2109
  503MOL0     C67831   1.102   8.643   5.813 -0.0132  0.5192 -0.0476
  503MOL0     C67832   1.179   8.765   5.880 -0.1566  0.2799  0.1420
  503MOL0     C67833   1.280   8.818   5.789  0.1987 -0.6166 -0.0031
  503MOL0     C67834   1.388   8.727   5.744  0.7896  0.4279 -0.0216
  503MOL0     C67835   1.481   8.669   5.700 -0.6230  0.9114 -0.1441
  503MOL0     C67836   1.155   8.524   5.505 -0.1405  0.0828 -0.3651
  503MOL0     C67837   1.208   8.439   5.411 -0.6162  0.8001  0.3799
  503MOL0     H67838   1.347   7.964   5.262  1.0613 -3.3950  0.2002
  503MOL0     H67839   1.477   7.810   5.097 -3.0458 -0.6643  0.3467
  503MOL0     H67840   1.712   7.785   4.931 -1.7733 -1.2419  2.6525
  503MOL0     H67841   1.547   7.731   4.947  1.5787 -1.5215  1.0558
  503MOL0     H67842   1.548   7.756   4.686  0.3054  0.2614  0.8652
  503MOL0     H67843   1.722   7.781   4.707 -0.4554  2.2307  0.1400
  503MOL0     H67844   1.742   7.551   4.802 -0.7509 -0.4872  0.2691
  503MOL0     H67845   1.559   7.527   4.791  1.1854 -0.8370  4.4299
  503MOL0     H67846   1.571   7.551   4.550  0.4267  1.1101 -1.6021
  503MOL0     H67847   1.754   7.589   4.549  1.6479 -0.5827  0.0521
  503MOL0     H67848   1.790   7.381   4.657 -0.5689  2.4956  0.3733
  503MOL0     H67849   1.612   7.334   4.653 -1.3950  0.2284 -0.7973
  503MOL0     H67850   1.619   7.379   4.403  0.8171  2.6785 -0.6927
  503MOL0     H67851   1.794   7.389   4.413  0.0726  1.1169  1.7784
  503MOL0     H67852   1.762   7.146   4.536  0.3143  0.4078  1.0346
  503MOL0     H67853   1.609   7.156   4.459  0.7165  0.5426  0.3945
  503MOL0     H67854   1.719   7.197   4.226 -2.0764  1.3057  1.0117
  503MOL0     H67855   1.752   7.042   4.308 -0.8391  0.3650  3.2869
  503MOL0     H67856   1.960   7.083   4.521 -2.6304 -1.0633 -1.5627
  503MOL0     H67857   2.259   7.177   4.493  0.5623 -1.4247  1.6946
  503MOL0     H67858   2.203   7.023   4.547 -2.0765  0.9177  0.2120
  503MOL0     H67859   2.307   6.930   4.303 -1.6307  3.1983 -3.1342
  503MOL0     H67860   2.417   6.954   4.443  1.5773 -0.4265 -2.1753
  503MOL0     H67861   2.474   7.163   4.368 -1.1914  0.5931 -1.0036
  503MOL0     H67862   2.335   7.166   4.251 -1.7116  0.9569  2.3445
  503MOL0     H67863   2.566   7.126   4.129  2.3301 -0.7326  1.3524
  503MOL0     H67864   2.424   7.028   4.100 -0.8053 -1.4156  2.0114
  503MOL0     H67865   2.750   6.735   4.244  2.4449 -1.4150 -1.0951
  503MOL0     H67866   2.947   6.535   4.006  0.2210 -2.1514  0.9096
  503MOL0     H67867   2.976   6.647   4.133 -0.9750  0.7583 -0.8864
  503MOL0     H67868   2.858   6.509   4.163 -1.8946  1.9352  1.1733
  503MOL0     H67869   2.887   6.811   3.516 -0.2168 -0.4168 -1.8241
  503MOL0     H67870   2.982   6.751   3.305  1.4935 -2.3641 -1.6055
  503MOL0     H67871   3.232   6.417   3.310  1.3085 -2.4056 -1.7562
  503MOL0     H67872   3.257   6.461   3.145 -0.0995 -0.6186  0.4915
  503MOL0     H67873   3.457   6.604   3.236  1.5469 -0.3764  2.8243
  503MOL0     H67874   3.449   6.502   3.379  1.3133 -1.0946 -0.8986
  503MOL0     H67875   3.437   6.296   3.232  0.0803 -1.0474  2.1838
  503MOL0     H67876   3.589   6.385   3.255 -0.7598  3.1688  0.2003
  503MOL0     H67877   3.404   6.398   2.999  2.2010 -0.4300 -2.5983
  503MOL0     H67878   3.547   6.503   3.024  0.4333  0.2928  0.4288
  503MOL0     H67879   3.579   6.310   2.887  2.2308  0.8443  0.0273
  503MOL0     H67880   3.573   6.199   3.040  0.6978 -0.1284 -0.3149
  503MOL0     H67881   3.758   6.400   3.098 -0.3321 -0.6105  0.0993
  503MOL0     H67882   3.786   6.234   3.037  0.7318  0.4631 -0.2140
  503MOL0     H67883   3.789   6.470   2.859 -1.7538 -1.1116 -1.6894
  503MOL0     H67884   3.799   6.309   2.792  1.8773 -0.8094  0.7149
  503MOL0     H67885   4.019   6.382   2.831 -2.2842 -2.1684 -1.5740
  503MOL0     H67886   3.977   6.254   2.933 -1.9996  0.0362  2.6739
  503MOL0     H67887   3.301   6.553   3.533  0.6134 -1.1437 -1.0462
  503MOL0     H67888   3.182   6.592   3.732  1.5142  3.6032 -0.1725
  503MOL0     H67889   2.674   6.850   3.773 -1.4442  3.9562  0.8383
  503MOL0     H67890   2.561   6.973   3.935  1.8687 -0.2808 -1.2228
  503MOL0     H67891   1.523   8.152   4.833 -2.8124 -2.4843 -1.2264
  503MOL0     H67892   1.450   8.309   5.012  2.1726 -0.6060 -3.6916
  503MOL0     H67893   0.996   8.173   5.442 -1.0293 -0.0196 -0.7575
  503MOL0     H67894   0.889   8.320   5.597 -0.7463  0.2584  0.6099
  503MOL0     H67895   1.075   8.747   5.620 -1.1249  0.5142  0.0814
  503MOL0     H67896   0.944   8.760   5.732 -1.4950 -2.4522  1.6019
  503MOL0     H67897   1.173   8.571   5.770 -0.8640  0.2701 -1.0867
  503MOL0     H67898   1.038   8.599   5.890 -0.7484 -0.0644 -0.9791
  503MOL0     H67899   1.233   8.732   5.970 -1.7344  0.9573  1.3891
  503MOL0     H67900   1.107   8.840   5.912  1.3530  2.1098 -0.5511
  503MOL0     H67901   1.326   8.897   5.850 -1.1606 -0.8024  1.3264
  503MOL0     H67902   1.242   8.864   5.698 -0.0890 -1.6621 -0.4220
  503MOL0     H67903   1.570   8.621   5.665 -2.1091 -0.7310 -1.9274
  503MOL0     H67904   1.214   8.615   5.512  1.2305 -0.9068  2.3544
  503MOL0     H67905   1.296   8.467   5.354 -0.6780  0.1764 -0.0387
  504MOL0     O67906   3.355   2.081   9.231  0.4603  0.2882  1.3473
  504MOL0     C67907   3.270   2.006   9.179  0.0661 -0.0185 -0.0103
  504MOL0     O67908   3.256   1.869   9.208 -1.2587  0.1532 -0.2268
  504MOL0     C67909   3.342   1.800   9.289  0.1597 -0.4719 -0.6098
  504MOL0     C67910   3.275   1.682   9.329 -0.1107 -0.0637  0.0097
  504MOL0     C67911   3.326   1.590   9.427  0.1800 -0.3898 -0.4849
  504MOL0     C67912   3.453   1.609   9.488 -0.0832  0.4478 -0.0026
  504MOL0     O67913   3.475   1.522   9.592 -0.3287 -0.5990  0.5252
  504MOL0     C67914   3.557   1.418   9.565  0.3999 -0.1662 -0.2229
  504MOL0     C67915   3.605   1.347   9.688 -0.8824  1.1915 -0.5668
  504MOL0     C67916   3.694   1.429   9.778 -0.4644  0.5634  0.2335
  504MOL0     C67917   3.716   1.357   9.908  0.3627 -0.0948 -0.9349
  504MOL0     C67918   3.778   1.434  10.019 -0.9494  0.0663  0.2193
  504MOL0     C67919   3.931   1.428  10.010  0.6161 -0.1427 -0.8259
  504MOL0     C67920   4.020   1.503  10.116  0.7369  0.1343  0.1750
  504MOL0     C67921   3.994   1.469  10.258 -0.2680 -0.0300 -0.2879
  504MOL0     N67922   3.875   1.529  10.328  0.0120 -0.0826  0.1793
  504MOL0     C67923   3.854   1.662  10.319 -0.2100 -0.2140 -0.1617
  504MOL0     C67924   3.739   1.681  10.373  0.1993  0.3108  0.8071
  504MOL0     C67925   3.671   1.807  10.382 -0.1150  1.5000 -0.1208
  504MOL0     C67926   3.609   1.842  10.243 -0.0954 -0.0206 -0.1967
  504MOL0     C67927   3.514   1.742  10.199 -0.0937 -0.7162 -0.6772
  504MOL0     C67928   3.422   1.791  10.084 -0.0100  0.2234 -0.4365
  504MOL0     O67929   3.488   1.760   9.961 -0.0300 -0.3569  0.1129
  504MOL0     C67930   3.404   1.786   9.853 -0.1890  0.8261  1.4478
  504MOL0     C67931   3.419   1.909   9.778  0.7560 -0.2431  0.5629
  504MOL0     C67932   3.322   1.945   9.683 -0.5742 -0.0474  0.6580
  504MOL0     C67933   3.344   2.082   9.625  0.6219 -0.5618  0.0339
  504MOL0     C67934   3.218   1.852   9.652  0.7806  0.3800  0.3861
  504MOL0     C67935   3.102   1.896   9.569 -0.2447 -0.0945  0.3140
  504MOL0     O67936   3.079   2.032   9.577 -0.2240  0.6808 -0.1087
  504MOL0     C67937   2.968   2.084   9.523 -0.1433  1.0481  0.4175
  504MOL0     C67938   2.844   2.080   9.582  0.4185 -0.5794 -0.1309
  504MOL0     C67939   2.731   2.130   9.524 -0.1436  0.6269 -0.1682
  504MOL0     C67940   2.742   2.199   9.398 -0.3375 -0.0606  0.1210
  504MOL0     O67941   2.631   2.258   9.342 -0.6533 -0.1740  0.2916
  504MOL0     C67942   2.641   2.283   9.199  0.6128  0.1259 -0.5667
  504MOL0     C67943   2.506   2.284   9.131  0.7071  0.7292  0.0589
  504MOL0     C67944   2.471   2.413   9.064  0.1104 -0.2913  0.3213
  504MOL0     C67945   2.322   2.418   9.019 -0.0402 -0.4611 -0.1525
  504MOL0     C67946   2.301   2.556   8.968  0.3281 -0.6566  1.1114
  504MOL0     C67947   2.155   2.590   8.924  0.3021  0.5549  0.2876
  504MOL0     C67948   2.092   2.475   8.842 -0.2218  0.4841 -0.4542
  504MOL0     C67949   1.968   2.402   8.911  0.3306 -0.1772 -0.6167
  504MOL0    Cl67950   1.949   2.257   8.808 -0.1183 -0.1865  0.0847
  504MOL0     C67951   2.865   2.217   9.351 -0.2191 -0.1216  0.3033
  504MOL0     C67952   2.976   2.154   9.401  0.5211 -0.0998  0.4509
  504MOL0     O67953   3.033   1.811   9.506  0.0298 -0.0654 -0.6882
  504MOL0     C67954   3.214   1.729   9.716 -0.0240  0.0415  0.1768
  504MOL0     C67955   3.303   1.695   9.816  0.6493 -1.0865  0.0414
  504MOL0     N67956   3.681   1.557  10.406  0.7688  0.0290 -0.4925
  504MOL0     N67957   3.764   1.466  10.372 -0.0239  0.1811  0.1428
  504MOL0     C67958   3.528   1.718   9.439 -0.3921  0.5359  0.4249
  504MOL0     C67959   3.470   1.817   9.351 -0.1703  0.6489  0.3549
  504MOL0     C67960   3.187   2.069   9.075  0.6504  0.1968 -0.5697
  504MOL0     C67961   3.117   1.984   8.991 -0.0409 -0.5436 -0.2270
  504MOL0     C67962   3.051   2.038   8.881 -0.1544 -0.4156 -0.6501
  504MOL0     C67963   3.042   2.173   8.860  0.9282  0.0741 -0.7425
  504MOL0     O67964   2.972   2.206   8.752  0.2026  0.1121  0.0463
  504MOL0     C67965   2.934   2.340   8.743  0.4200  0.5775 -0.0262
  504MOL0     C67966   2.814   2.351   8.652 -0.2759 -0.0132 -0.1677
  504MOL0     C67967   2.690   2.309   8.718  0.1969  0.6321  0.7690
  504MOL0     C67968   2.575   2.278   8.620  1.2196  0.1657  0.4722
  504MOL0     C67969   2.593   2.156   8.535 -0.3861 -0.5794  0.5118
  504MOL0     C67970   2.612   2.056   8.472 -0.9732  0.4498 -0.6641
  504MOL0     C67971   3.122   2.263   8.940 -0.2950 -0.1442  0.1603
  504MOL0     C67972   3.196   2.207   9.044  1.1854  0.2759  0.5097
  504MOL0     H67973   3.184   1.665   9.272 -0.3815 -3.3090  1.1873
  504MOL0     H67974   3.271   1.500   9.450 -0.0499  0.3147  1.9875
  504MOL0     H67975   3.496   1.345   9.510 -1.5367  0.7728  0.5617
  504MOL0     H67976   3.641   1.444   9.501 -0.4293  1.6485 -0.6512
  504MOL0     H67977   3.520   1.308   9.745  2.3521 -2.2134  2.3892
  504MOL0     H67978   3.659   1.259   9.652 -0.4926 -1.3226  5.1102
  504MOL0     H67979   3.788   1.448   9.726 -1.5171  0.2587 -1.8932
  504MOL0     H67980   3.632   1.518   9.791 -1.2992  0.6982 -3.4934
  504MOL0     H67981   3.623   1.313   9.944  0.3466  0.3595 -0.4144
  504MOL0     H67982   3.775   1.268   9.884  0.3868 -0.3993  0.1844
  504MOL0     H67983   3.743   1.538  10.022 -0.7982  0.1676  4.2599
  504MOL0     H67984   3.742   1.375  10.104 -3.4486  0.0525 -0.7484
  504MOL0     H67985   3.953   1.321  10.004  0.8161 -0.1881  0.5498
  504MOL0     H67986   3.954   1.460   9.908 -0.1560 -2.5111 -1.8154
  504MOL0     H67987   4.125   1.486  10.089  0.2452 -0.7717 -1.3218
  504MOL0     H67988   3.995   1.609  10.116 -1.3272 -0.2594  3.1528
  504MOL0     H67989   4.085   1.489  10.316  0.4743  1.8255 -1.9867
  504MOL0     H67990   3.972   1.362  10.267  3.0467 -0.7221  1.0301
  504MOL0     H67991   3.921   1.734  10.273 -1.8231  0.5575 -1.3570
  504MOL0     H67992   3.589   1.794  10.453  0.6671 -2.9013  0.2128
  504MOL0     H67993   3.746   1.886  10.396  0.1446  1.6329 -1.9509
  504MOL0     H67994   3.686   1.851  10.166  0.1923  0.0864  0.1016
  504MOL0     H67995   3.551   1.934  10.258 -0.5761 -0.6211  1.9192
  504MOL0     H67996   3.462   1.708  10.290  1.3911 -0.6166  0.2330
  504MOL0     H67997   3.583   1.662  10.172  1.2586 -0.7963  2.5485
  504MOL0     H67998   3.403   1.898  10.100  1.7534  0.5129 -0.1151
  504MOL0     H67999   3.324   1.742  10.093 -1.1555  1.3530 -4.4059
  504MOL0     H68000   3.501   1.970   9.815  2.0141 -1.2661 -0.4464
  504MOL0     H68001   3.277   2.150   9.679  0.4462  2.8900 -4.0032
  504MOL0     H68002   3.447   2.118   9.630 -0.4578  3.1035 -1.0138
  504MOL0     H68003   3.321   2.083   9.518  3.1776  0.5941 -0.5865
  504MOL0     H68004   2.842   2.037   9.681  2.8387  1.6246  0.9984
  504MOL0     H68005   2.636   2.124   9.575 -0.4813  1.5555 -0.6541
  504MOL0     H68006   2.691   2.375   9.170 -0.7185  1.1168  0.1586
  504MOL0     H68007   2.683   2.188   9.166  0.4628  0.0418 -0.5205
  504MOL0     H68008   2.491   2.193   9.072 -1.4497 -1.9724  4.2451
  504MOL0     H68009   2.432   2.262   9.209 -0.9403 -0.3006 -1.7019
  504MOL0     H68010   2.546   2.431   8.987  1.2100 -1.7752  0.9903
  504MOL0     H68011   2.470   2.486   9.145 -0.7338  1.9662 -1.6080
  504MOL0     H68012   2.308   2.340   8.943  0.1330 -0.1807 -0.4762
  504MOL0     H68013   2.249   2.400   9.098 -1.4039  0.8478 -1.0808
  504MOL0     H68014   2.355   2.577   8.875  0.6226 -0.4674  1.3247
  504MOL0     H68015   2.338   2.632   9.038  2.8305  0.8382 -1.6224
  504MOL0     H68016   2.103   2.607   9.019 -0.1760  0.7496 -0.0111
  504MOL0     H68017   2.137   2.687   8.877 -0.4180  1.0596  1.5385
  504MOL0     H68018   2.169   2.401   8.815 -1.5688 -0.7792 -0.9448
  504MOL0     H68019   2.058   2.527   8.752 -2.5950  3.0553  1.7409
  504MOL0     H68020   1.879   2.464   8.900 -0.2129  0.2076  3.9165
  504MOL0     H68021   1.989   2.376   9.015 -1.9312  2.9989  0.8158
  504MOL0     H68022   2.882   2.284   9.268 -0.1243  0.4754  0.8033
  504MOL0     H68023   3.074   2.163   9.355  0.4972 -2.1757 -0.0855
  504MOL0     H68024   3.135   1.665   9.678 -1.5483  2.3679 -0.7593
  504MOL0     H68025   3.289   1.603   9.872 -1.2814 -0.4605  0.6714
  504MOL0     H68026   3.626   1.723   9.486  0.7539 -1.2974 -1.5707
  504MOL0     H68027   3.529   1.906   9.331 -0.7239  1.1130  0.7790
  504MOL0     H68028   3.137   1.879   9.012  1.8162  0.1188  1.7151
  504MOL0     H68029   3.002   1.969   8.814  1.4679  0.2395 -2.6162
  504MOL0     H68030   2.898   2.377   8.839 -0.4452  2.6623 -1.0913
  504MOL0     H68031   3.010   2.409   8.705 -0.6181  1.9222  0.2362
  504MOL0     H68032   2.839   2.287   8.566 -0.1679 -3.1646  2.0203
  504MOL0     H68033   2.802   2.451   8.611 -1.1738 -0.5013 -1.1468
  504MOL0     H68034   2.652   2.390   8.782  2.3562 -0.1209  3.1971
  504MOL0     H68035   2.713   2.221   8.781 -1.0445  1.6043  2.6825
  504MOL0     H68036   2.556   2.359   8.549  3.4291  1.1152  0.8829
  504MOL0     H68037   2.485   2.245   8.673  0.1425  0.3665 -1.1606
  504MOL0     H68038   2.617   1.958   8.428  1.0538  0.6369 -0.9734
  504MOL0     H68039   3.121   2.371   8.929  1.9097 -0.2378 -1.9985
  504MOL0     H68040   3.254   2.266   9.115  0.4260  2.4703 -0.6164
  505MOL0     O68041   8.331   5.425   4.196 -0.2300 -0.4485  0.1504
  505MOL0     C68042   8.373   5.525   4.266  0.3220  0.9145 -0.0914
  505MOL0     O68043   8.472   5.611   4.231  0.6508 -0.2904 -0.7697
  505MOL0     C68044   8.530   5.596   4.107 -0.9689  0.0627  0.3783
  505MOL0     C68045   8.665   5.608   4.085 -0.1502 -0.0746  0.2876
  505MOL0     C68046   8.736   5.584   3.964 -1.0689 -0.3744 -0.6535
  505MOL0     C68047   8.664   5.568   3.847 -0.1085  0.1282 -0.4490
  505MOL0     O68048   8.710   5.552   3.722 -0.3344 -0.2114 -0.2629
  505MOL0     C68049   8.834   5.484   3.704  0.1420 -0.1835 -0.3501
  505MOL0     C68050   8.813   5.328   3.745 -0.1053 -0.8896  0.0828
  505MOL0     C68051   8.702   5.250   3.659 -0.0173 -0.6250  0.2245
  505MOL0     C68052   8.668   5.115   3.710 -0.2297 -0.3346  0.1199
  505MOL0     C68053   8.558   5.052   3.631  1.5024 -0.6794  0.5603
  505MOL0     C68054   8.539   4.903   3.681  0.3801  0.5120  0.0614
  505MOL0     C68055   8.427   4.837   3.595 -0.7706  0.7955 -0.5813
  505MOL0     C68056   8.490   4.698   3.559 -0.0596  0.2328  0.4807
  505MOL0     N68057   8.495   4.616   3.687 -0.1003  0.4526  0.1498
  505MOL0     C68058   8.582   4.510   3.706  0.0207  0.2575 -0.6493
  505MOL0     C68059   8.553   4.459   3.830 -0.7268  0.1094  0.7605
  505MOL0     C68060   8.617   4.338   3.888  0.2278  0.1558  0.8442
  505MOL0     C68061   8.684   4.252   3.772 -0.3929 -0.3328 -0.5642
  505MOL0     C68062   8.770   4.133   3.833  0.4886  0.2083  0.1498
  505MOL0     C68063   8.688   4.050   3.927  0.0432 -0.0228 -0.3133
  505MOL0     O68064   8.578   4.007   3.849  0.4146 -0.3883 -0.6349
  505MOL0     C68065   8.502   3.921   3.922  0.0633 -0.2806  0.4975
  505MOL0     C68066   8.554   3.797   3.961 -1.1339 -0.3858  0.3146
  505MOL0     C68067   8.477   3.697   4.029 -0.1002 -0.2689  0.6212
  505MOL0     C68068   8.544   3.564   4.072  1.2544  0.2592 -0.3422
  505MOL0     C68069   8.343   3.730   4.057  0.4833  0.4005  0.4934
  505MOL0     C68070   8.240   3.632   4.097 -0.3829  0.0180  0.7440
  505MOL0     O68071   8.271   3.496   4.094  0.1527 -0.0664 -0.2422
  505MOL0     C68072   8.191   3.410   4.169 -1.1448  0.2291  0.5881
  505MOL0     C68073   8.069   3.366   4.102  0.2678 -0.7250 -0.1797
  505MOL0     C68074   7.994   3.280   4.181  0.1836  0.0997  0.6013
  505MOL0     C68075   8.029   3.234   4.312 -0.1595 -0.7806 -0.1392
  505MOL0     O68076   7.951   3.154   4.389 -0.2642  0.4513  0.4228
  505MOL0     C68077   7.829   3.107   4.326 -1.5346  0.2622 -0.2810
  505MOL0     C68078   7.753   3.031   4.433  0.6351 -0.8428  0.3013
  505MOL0     C68079   7.853   2.954   4.524 -0.1506 -0.4352 -1.4328
  505MOL0     C68080   7.913   2.835   4.453  0.2716  0.0131 -0.5809
  505MOL0     C68081   7.992   2.750   4.551 -0.9692  0.3682  0.5114
  505MOL0     C68082   7.979   2.596   4.529 -0.3218  0.2185  0.1662
  505MOL0     C68083   8.049   2.510   4.637 -0.0145  0.3214  0.4243
  505MOL0     C68084   8.039   2.357   4.607 -0.4056 -0.7011  1.1382
  505MOL0    Cl68085   8.173   2.279   4.698 -0.1030 -0.1446  0.1607
  505MOL0     C68086   8.149   3.282   4.369 -0.2576  0.2801  0.0952
  505MOL0     C68087   8.233   3.359   4.291 -0.1720 -0.5117 -0.0360
  505MOL0     O68088   8.137   3.681   4.140 -0.3418 -0.4431  0.6615
  505MOL0     C68089   8.301   3.861   4.021  0.1167 -0.3232  0.3116
  505MOL0     C68090   8.377   3.953   3.945  0.4928 -0.0031  0.7072
  505MOL0     N68091   8.442   4.532   3.878 -0.1684  0.2029  0.1926
  505MOL0     N68092   8.404   4.617   3.791 -0.0183  1.0644  0.3100
  505MOL0     C68093   8.521   5.594   3.855  0.0208  0.6226 -0.3545
  505MOL0     C68094   8.453   5.598   3.984  0.2002  0.0995  0.0957
  505MOL0     C68095   8.303   5.547   4.393 -0.1442  0.0180 -0.4613
  505MOL0     C68096   8.306   5.677   4.466 -0.3431  0.5401  1.2741
  505MOL0     C68097   8.231   5.681   4.581  0.0214  0.2647 -0.4510
  505MOL0     C68098   8.150   5.568   4.632 -0.4932 -0.8347 -0.7669
  505MOL0     O68099   8.110   5.580   4.764 -0.8182 -0.0333 -0.8832
  505MOL0     C68100   7.966   5.555   4.773  0.2796 -0.0340  0.6206
  505MOL0     C68101   7.914   5.601   4.906 -0.1978  0.1783 -0.6121
  505MOL0     C68102   7.771   5.539   4.933  0.4223  0.1525  0.3442
  505MOL0     C68103   7.728   5.567   5.085  0.1644  0.1985  1.0463
  505MOL0     C68104   7.795   5.493   5.194  0.1756  0.4369 -0.0679
  505MOL0     C68105   7.880   5.445   5.274  0.0954 -0.4888 -0.6158
  505MOL0     C68106   8.158   5.448   4.566  0.8204 -0.5926 -0.9616
  505MOL0     C68107   8.229   5.436   4.449 -0.3874 -0.1670  0.0722
  505MOL0     H68108   8.738   5.636   4.160  0.5623  1.5865 -0.9663
  505MOL0     H68109   8.844   5.594   3.962 -1.0932 -0.1713 -2.0084
  505MOL0     H68110   8.875   5.488   3.603 -0.4339  0.4865 -0.5600
  505MOL0     H68111   8.906   5.520   3.778  0.6555 -2.1920  0.1976
  505MOL0     H68112   8.909   5.276   3.747 -0.9671 -2.5097  0.3061
  505MOL0     H68113   8.769   5.326   3.845 -3.2556  0.2956 -1.1515
  505MOL0     H68114   8.617   5.317   3.647  0.1024 -0.7561 -1.6721
  505MOL0     H68115   8.750   5.226   3.563 -1.7794 -3.0237 -0.1412
  505MOL0     H68116   8.748   5.040   3.702  0.6513  0.5472  0.3695
  505MOL0     H68117   8.631   5.123   3.813 -1.9767  1.6227 -0.5839
  505MOL0     H68118   8.466   5.108   3.647  1.3978 -0.8840  0.6763
  505MOL0     H68119   8.578   5.068   3.525  0.6716  1.3106  0.6491
  505MOL0     H68120   8.637   4.859   3.660  0.7218  2.3129 -2.5728
  505MOL0     H68121   8.517   4.882   3.786  1.8323 -1.2148  0.0631
  505MOL0     H68122   8.334   4.819   3.649 -0.9278 -3.8290 -1.9961
  505MOL0     H68123   8.412   4.897   3.505 -1.3601  1.3135 -0.1521
  505MOL0     H68124   8.580   4.717   3.500  1.0356 -3.8742  0.5085
  505MOL0     H68125   8.421   4.643   3.495  0.7526 -0.9099  0.5631
  505MOL0     H68126   8.642   4.469   3.626 -0.6006 -2.8397  0.3356
  505MOL0     H68127   8.693   4.366   3.962 -1.1061  3.1995  1.2147
  505MOL0     H68128   8.531   4.283   3.926 -1.2605 -0.1171 -2.6207
  505MOL0     H68129   8.750   4.318   3.715  0.0462  0.3904  0.7250
  505MOL0     H68130   8.611   4.211   3.701 -2.1988  0.4310  0.7469
  505MOL0     H68131   8.849   4.170   3.899 -0.0706 -2.0266  2.2346
  505MOL0     H68132   8.813   4.080   3.748 -0.8226 -4.2440  1.9857
  505MOL0     H68133   8.658   4.105   4.016  1.4175  1.6596 -0.8370
  505MOL0     H68134   8.758   3.974   3.963 -0.8653 -2.5048 -3.3572
  505MOL0     H68135   8.653   3.771   3.925  0.2189  2.3942  1.7132
  505MOL0     H68136   8.512   3.548   4.175  2.1989 -1.7625 -0.2983
  505MOL0     H68137   8.519   3.476   4.012  0.2860  0.9491 -0.9752
  505MOL0     H68138   8.652   3.580   4.074  1.4680 -0.6740  3.3160
  505MOL0     H68139   8.033   3.412   4.010  0.0401  1.4940  0.9338
  505MOL0     H68140   7.904   3.238   4.136 -0.3853 -0.9445  2.6143
  505MOL0     H68141   7.769   3.192   4.292  1.8327  2.5124 -1.0443
  505MOL0     H68142   7.842   3.039   4.241 -2.7320 -1.8135  1.0919
  505MOL0     H68143   7.693   3.102   4.492  0.4102 -1.9079  1.3991
  505MOL0     H68144   7.676   2.961   4.401 -0.2053  0.1348  0.1423
  505MOL0     H68145   7.809   2.902   4.609  0.7129  1.7691  0.4563
  505MOL0     H68146   7.937   3.016   4.557 -0.3094 -1.3201  0.7626
  505MOL0     H68147   7.827   2.774   4.423 -1.2439 -0.1487  3.5196
  505MOL0     H68148   7.975   2.863   4.367  0.8462 -0.4615 -0.3345
  505MOL0     H68149   7.956   2.766   4.653 -1.6462  0.9350  0.1901
  505MOL0     H68150   8.094   2.790   4.559  0.0185 -2.0400  0.7757
  505MOL0     H68151   7.870   2.585   4.531 -0.3026  0.1042  1.1173
  505MOL0     H68152   8.023   2.574   4.431 -1.0273  2.6658 -0.7788
  505MOL0     H68153   8.003   2.527   4.734 -1.4171 -1.7072  0.1963
  505MOL0     H68154   8.154   2.539   4.635 -0.2841  1.3903  1.1669
  505MOL0     H68155   8.045   2.335   4.500  0.3473 -0.3749  1.1111
  505MOL0     H68156   7.943   2.316   4.640 -1.4139 -2.1550 -2.9872
  505MOL0     H68157   8.166   3.258   4.473  1.9105  0.2223 -0.2297
  505MOL0     H68158   8.336   3.379   4.318 -0.2492  0.6691 -0.5488
  505MOL0     H68159   8.200   3.895   4.036 -0.3189 -1.4999  0.1320
  505MOL0     H68160   8.338   4.053   3.925  2.0048  1.3250  3.6313
  505MOL0     H68161   8.454   5.592   3.770 -0.7422  1.0232  0.2221
  505MOL0     H68162   8.346   5.601   4.001 -0.0495 -2.5367 -0.5891
  505MOL0     H68163   8.360   5.761   4.424  2.1344 -0.1781  2.8554
  505MOL0     H68164   8.244   5.775   4.634 -2.8723  0.9992 -0.8538
  505MOL0     H68165   7.908   5.602   4.693 -0.9548 -2.5141 -0.0660
  505MOL0     H68166   7.961   5.447   4.758  3.1991 -0.1123 -0.3962
  505MOL0     H68167   7.922   5.710   4.911  3.6934 -0.0118  2.7470
  505MOL0     H68168   7.979   5.575   4.990 -0.3681 -0.6108 -0.7163
  505MOL0     H68169   7.780   5.432   4.914  0.2056  0.5857 -2.6355
  505MOL0     H68170   7.701   5.584   4.862 -2.7208 -2.2346  1.6880
  505MOL0     H68171   7.621   5.550   5.102 -0.7517  0.4725 -3.2595
  505MOL0     H68172   7.754   5.672   5.101 -1.1774  0.8772 -0.8359
  505MOL0     H68173   7.948   5.409   5.348  0.1052  0.0326 -0.3664
  505MOL0     H68174   8.119   5.356   4.610 -0.7343  0.3345 -0.3105
  505MOL0     H68175   8.237   5.342   4.395 -0.2469  0.0957 -0.3672
  506MOL0     O68176   1.904  10.745   0.072  0.4436  0.1211  0.5432
  506MOL0     C68177   1.877  10.635   0.017 -1.1610  0.9007 -0.3968
  506MOL0     O68178   1.871  10.517   0.082  0.2300  0.4328 -0.2924
  506MOL0     C68179   1.901  10.497   0.213  0.1604  0.6636  0.5018
  506MOL0     C68180   1.913  10.356   0.254  0.2068  0.1700  0.1395
  506MOL0     C68181   1.941  10.317   0.383  0.5850  0.1124 -0.4391
  506MOL0     C68182   1.972  10.422   0.474  0.1339  0.1629 -0.3891
  506MOL0     O68183   1.988  10.374   0.606  0.5215 -0.3537  0.2131
  506MOL0     C68184   2.030  10.454   0.714 -0.7096 -0.4723 -0.3566
  506MOL0     C68185   1.928  10.563   0.763  0.1380  0.0126 -0.0928
  506MOL0     C68186   1.929  10.579   0.916  0.2901 -0.0046 -0.9840
  506MOL0     C68187   1.886  10.728   0.956 -0.0641  0.9903  0.4446
  506MOL0     C68188   1.730  10.724   0.955 -0.3424 -0.8858 -0.5281
  506MOL0     C68189   1.674  10.857   0.997 -0.3313 -1.0163 -0.2213
  506MOL0     C68190   1.520  10.849   1.005  0.2143  0.6177 -0.1063
  506MOL0     C68191   1.461  10.961   1.095 -0.1594  0.5758 -1.1306
  506MOL0     N68192   1.319  10.940   1.093  0.2701 -0.3253  0.5124
  506MOL0     C68193   1.261  10.830   1.149  0.1343  0.5681 -0.1025
  506MOL0     C68194   1.156  10.789   1.078  0.1751  0.2343  0.5471
  506MOL0     C68195   1.071  10.663   1.071  0.2515 -0.3713 -0.5085
  506MOL0     C68196   0.964  10.649   0.967  0.0004  0.5659  1.0898
  506MOL0     C68197   0.830  10.724   0.964 -0.4588  0.3094 -0.1225
  506MOL0     C68198   0.723  10.665   0.868 -0.0132 -0.4971 -0.1486
  506MOL0     O68199   0.660  10.540   0.904 -0.3558 -0.5250  0.2814
  506MOL0     C68200   0.539  10.567   0.976  0.7631  0.0749  0.5666
  506MOL0     C68201   0.435  10.473   0.967 -0.5270  0.7731 -0.6547
  506MOL0     C68202   0.311  10.493   1.024  0.5698  0.3106  0.0129
  506MOL0     C68203   0.207  10.385   1.005  0.2773 -0.1224  0.4032
  506MOL0     C68204   0.269  10.610   1.096  0.2444 -0.3858 -0.5335
  506MOL0     C68205   0.133  10.646   1.158  0.6504 -0.1594  0.1277
  506MOL0     O68206   0.019  10.591   1.096  0.1175 -0.5916  0.8625
  506MOL0     C68207  -0.109  10.612   1.147 -1.0364 -1.3080 -0.0065
  506MOL0     C68208  -0.210  10.634   1.056  0.0494 -0.2215 -0.4241
  506MOL0     C68209  -0.346  10.668   1.089  0.1169  0.2098 -0.2621
  506MOL0     C68210  -0.379  10.660   1.227  0.6166 -0.2585 -0.0839
  506MOL0     O68211  -0.500  10.691   1.275  0.3447 -0.8654  0.2579
  506MOL0     C68212  -0.616  10.633   1.212  0.6431 -0.4890  0.4112
  506MOL0     C68213  -0.628  10.478   1.230 -0.5319  1.0831  0.4912
  506MOL0     C68214  -0.656  10.447   1.373  1.0147  0.1101  0.1952
  506MOL0     C68215  -0.667  10.292   1.397  0.4367 -0.5437 -0.2941
  506MOL0     C68216  -0.702  10.254   1.540 -0.1190 -0.8259  0.4602
  506MOL0     C68217  -0.782  10.121   1.543 -0.1477  0.2522  0.2189
  506MOL0     C68218  -0.928  10.134   1.507  0.1154  0.1951  0.2677
  506MOL0     C68219  -1.006   9.999   1.492 -0.1994 -0.2192  0.1220
  506MOL0    Cl68220  -1.029   9.926   1.660  0.0419 -0.0877  0.5365
  506MOL0     C68221  -0.280  10.646   1.319  0.1005 -0.3125  0.8427
  506MOL0     C68222  -0.147  10.612   1.283  0.7575 -0.6006  0.3505
  506MOL0     O68223   0.136  10.724   1.254 -0.2018  0.1397 -0.0559
  506MOL0     C68224   0.373  10.703   1.113 -0.8132  1.0042  0.2466
  506MOL0     C68225   0.500  10.681   1.050 -0.3747  0.0953 -1.0454
  506MOL0     N68226   1.135  10.889   0.980 -0.2819 -1.0269 -0.3656
  506MOL0     N68227   1.234  10.975   0.988 -0.3307 -0.0326 -0.4876
  506MOL0     C68228   1.961  10.558   0.431  0.4951  0.3576  0.1074
  506MOL0     C68229   1.935  10.590   0.308 -0.9445 -0.2953  0.4357
  506MOL0     C68230   1.831  10.642  -0.120 -0.2930  0.4031 -0.9162
  506MOL0     C68231   1.772  10.540  -0.188 -0.0335  1.5377 -0.9501
  506MOL0     C68232   1.728  10.553  -0.312  0.4454  0.1505  1.2174
  506MOL0     C68233   1.740  10.678  -0.380  0.3874  0.6240  0.7864
  506MOL0     O68234   1.686  10.697  -0.498 -0.4272 -0.7533 -0.0165
  506MOL0     C68235   1.550  10.749  -0.484 -0.6690 -0.2005  0.6113
  506MOL0     C68236   1.479  10.751  -0.616 -0.4839  0.4667 -0.0335
  506MOL0     C68237   1.475  10.619  -0.688 -1.2263 -0.1174 -0.0783
  506MOL0     C68238   1.382  10.626  -0.818  0.0552 -0.1805  1.2626
  506MOL0     C68239   1.356  10.490  -0.886  0.4162 -0.6092 -0.0689
  506MOL0     C68240   1.338  10.383  -0.936  0.2143 -0.9556  0.2260
  506MOL0     C68241   1.817  10.783  -0.323  0.7461 -0.6658  0.5536
  506MOL0     C68242   1.864  10.759  -0.196 -0.1543 -0.6556 -0.0582
  506MOL0     H68243   1.892  10.281   0.178  0.3339 -1.9999  2.1247
  506MOL0     H68244   1.944  10.216   0.423 -2.4455  0.4135  0.8117
  506MOL0     H68245   2.072  10.395   0.796 -0.8885  0.1119  0.1643
  506MOL0     H68246   2.106  10.508   0.658  0.1696 -2.3641 -1.0775
  506MOL0     H68247   1.961  10.652   0.710  0.2809 -1.5043 -2.6912
  506MOL0     H68248   1.825  10.554   0.728 -1.0387 -1.1721  3.2220
  506MOL0     H68249   1.860  10.513   0.969 -0.5191  1.8097  0.3264
  506MOL0     H68250   2.033  10.562   0.945 -0.0681  1.1796  1.2193
  506MOL0     H68251   1.913  10.745   1.060 -2.8866  1.5062  1.1740
  506MOL0     H68252   1.918  10.806   0.886 -2.7909  1.1497 -0.7601
  506MOL0     H68253   1.693  10.700   0.854  0.0727 -0.2639 -0.8288
  506MOL0     H68254   1.703  10.641   1.021  1.2808 -2.6579 -1.9668
  506MOL0     H68255   1.728  10.886   1.088  3.2355 -1.5114 -1.9973
  506MOL0     H68256   1.703  10.934   0.926 -0.9116 -0.5778  0.0069
  506MOL0     H68257   1.483  10.875   0.906 -0.0064  2.2817  0.3749
  506MOL0     H68258   1.489  10.749   1.035 -0.1976  0.8255  0.1726
  506MOL0     H68259   1.498  11.060   1.070 -1.6081  1.5976  0.5248
  506MOL0     H68260   1.508  10.955   1.193 -1.2695 -2.2448 -0.6632
  506MOL0     H68261   1.298  10.767   1.230  0.4372 -0.9468 -1.3735
  506MOL0     H68262   1.127  10.570   1.063 -0.8976 -0.9341 -3.2534
  506MOL0     H68263   1.013  10.662   1.164  0.8208 -1.0969 -0.1522
  506MOL0     H68264   0.940  10.543   0.960  0.2472  0.3415  3.1808
  506MOL0     H68265   1.021  10.682   0.880  1.4867 -1.5344  1.2122
  506MOL0     H68266   0.846  10.831   0.947 -0.3867  0.4661  0.8960
  506MOL0     H68267   0.780  10.707   1.060  0.5536 -2.7442 -0.0442
  506MOL0     H68268   0.784  10.659   0.777  1.6472  0.0474  0.8809
  506MOL0     H68269   0.653  10.749   0.855 -0.0115 -0.2763  1.1483
  506MOL0     H68270   0.440  10.380   0.910  2.0433 -0.1746  0.9834
  506MOL0     H68271   0.248  10.284   0.998 -1.3953 -0.7228 -1.5704
  506MOL0     H68272   0.134  10.392   1.086  0.6839  2.9428  0.6041
  506MOL0     H68273   0.157  10.393   0.909  1.9062  1.5063 -0.3714
  506MOL0     H68274  -0.189  10.647   0.950 -2.1434  2.0109 -0.6809
  506MOL0     H68275  -0.407  10.724   1.019  0.8275  0.6448 -0.5402
  506MOL0     H68276  -0.701  10.682   1.260  2.4246  0.5826  2.6736
  506MOL0     H68277  -0.610  10.651   1.104  0.9916  0.5911  0.5963
  506MOL0     H68278  -0.708  10.452   1.161  0.0110 -0.2816  0.3518
  506MOL0     H68279  -0.552  10.408   1.197 -4.0013 -2.4457 -0.7775
  506MOL0     H68280  -0.758  10.483   1.387  1.5407  2.4349 -1.3574
  506MOL0     H68281  -0.588  10.501   1.439 -0.6467  1.7313  0.6688
  506MOL0     H68282  -0.736  10.251   1.323  0.9971 -0.4521 -0.8765
  506MOL0     H68283  -0.564  10.257   1.384  0.0592 -1.8223  0.0489
  506MOL0     H68284  -0.772  10.325   1.585 -0.5833  1.0690 -2.9129
  506MOL0     H68285  -0.617  10.266   1.608 -0.8915 -1.6852  1.6120
  506MOL0     H68286  -0.739  10.037   1.487 -3.2956 -2.6556  1.7941
  506MOL0     H68287  -0.777  10.089   1.647  2.2794  2.1138  0.7540
  506MOL0     H68288  -0.933  10.167   1.403  0.1110 -1.2654 -0.2166
  506MOL0     H68289  -0.985  10.198   1.574  0.3153  0.5528  0.0962
  506MOL0     H68290  -0.944   9.930   1.433  0.6142  2.2355 -2.0842
  506MOL0     H68291  -1.097  10.030   1.440  0.7304  2.6291  0.0081
  506MOL0     H68292  -0.295  10.657   1.426 -0.0439 -0.2618  0.8173
  506MOL0     H68293  -0.074  10.587   1.359  1.1168 -0.5422  0.0301
  506MOL0     H68294   0.356  10.797   1.164 -2.6192  0.4377  0.7642
  506MOL0     H68295   0.566  10.764   1.071 -1.5342  0.4635  1.6376
  506MOL0     H68296   1.962  10.639   0.504 -1.3047  0.6753 -0.1773
  506MOL0     H68297   1.942  10.697   0.292  1.1332 -0.7715 -2.4687
  506MOL0     H68298   1.752  10.444  -0.140  1.1381  1.9714  0.4999
  506MOL0     H68299   1.677  10.467  -0.355  1.7104 -0.0905  0.1642
  506MOL0     H68300   1.494  10.677  -0.423  1.2381 -3.0260 -0.7867
  506MOL0     H68301   1.558  10.847  -0.436  0.5370 -1.4121  3.0988
  506MOL0     H68302   1.523  10.835  -0.670 -1.0853 -0.8298 -2.6917
  506MOL0     H68303   1.374  10.782  -0.609 -0.5350  0.3319 -0.2040
  506MOL0     H68304   1.445  10.535  -0.626 -0.7146 -3.4617 -3.9552
  506MOL0     H68305   1.576  10.597  -0.724 -0.1603  0.6927  2.2264
  506MOL0     H68306   1.426  10.699  -0.885 -0.9482  0.3191  1.1365
  506MOL0     H68307   1.288  10.661  -0.775 -2.2804 -0.4483 -3.0618
  506MOL0     H68308   1.302  10.301  -0.994 -4.6998 -0.4011  2.0249
  506MOL0     H68309   1.847  10.876  -0.372  0.5309 -1.4790 -1.2009
  506MOL0     H68310   1.912  10.843  -0.145 -0.2207 -0.7625  0.1827
  507MOL0     O68311   1.151   9.521   5.096 -0.5717  0.7276 -1.2564
  507MOL0     C68312   1.228   9.527   5.193  0.2014 -0.0152 -0.5893
  507MOL0     O68313   1.222   9.619   5.295  0.1210  0.3788 -0.2333
  507MOL0     C68314   1.103   9.678   5.325 -0.7544 -0.2002 -0.1602
  507MOL0     C68315   0.996   9.602   5.353  1.1565 -0.0951 -0.1567
  507MOL0     C68316   0.867   9.662   5.377  0.0281  0.7070 -0.6289
  507MOL0     C68317   0.858   9.806   5.360  0.8801 -0.1360  1.2203
  507MOL0     O68318   0.732   9.860   5.377 -0.1860  0.4048  0.2680
  507MOL0     C68319   0.715   9.993   5.338 -0.7936  0.1865 -0.7061
  507MOL0     C68320   0.574  10.039   5.366  0.0405  0.3131  0.6455
  507MOL0     C68321   0.464   9.937   5.324 -0.4366  0.0764 -1.0035
  507MOL0     C68322   0.492   9.868   5.188 -0.3061 -0.0309  0.4604
  507MOL0     C68323   0.360   9.838   5.103  0.6434  0.2098 -0.5174
  507MOL0     C68324   0.262   9.742   5.182  0.2582  0.4403  0.3125
  507MOL0     C68325   0.131   9.730   5.114 -0.6020 -0.2379  0.9031
  507MOL0     C68326   0.025   9.628   5.170  0.4463  0.0310  0.7930
  507MOL0     N68327   0.004   9.627   5.322  0.1905  0.3361 -0.7336
  507MOL0     C68328   0.083   9.576   5.420  0.5938 -1.0934 -1.0887
  507MOL0     C68329   0.030   9.621   5.540  0.0296 -0.3853  0.6681
  507MOL0     C68330   0.077   9.592   5.681 -0.3359 -0.7226  0.1008
  507MOL0     C68331   0.191   9.488   5.705 -1.1621 -0.0193  0.8190
  507MOL0     C68332   0.330   9.540   5.669 -0.9242  0.7805  0.2769
  507MOL0     C68333   0.426   9.421   5.656  0.1507 -0.1028 -0.7845
  507MOL0     O68334   0.559   9.444   5.616  0.4278 -0.3834  0.1559
  507MOL0     C68335   0.649   9.338   5.602 -0.5197 -0.2656 -0.7236
  507MOL0     C68336   0.787   9.375   5.600  0.5094 -0.6294  0.3085
  507MOL0     C68337   0.886   9.281   5.586 -0.4069  1.2607  0.1498
  507MOL0     C68338   1.028   9.338   5.580  0.1258  0.3670 -0.3803
  507MOL0     C68339   0.855   9.146   5.551 -1.0860  0.1351  0.1176
  507MOL0     C68340   0.959   9.043   5.514  0.1942  0.5713 -0.1833
  507MOL0     O68341   0.900   8.949   5.448  0.0077 -0.1924  0.8132
  507MOL0     C68342   0.973   8.867   5.367 -0.3230 -0.1162  0.1759
  507MOL0     C68343   1.108   8.888   5.326  1.2500 -0.2485 -0.1421
  507MOL0     C68344   1.173   8.795   5.243 -0.1351  0.3096  0.1629
  507MOL0     C68345   1.102   8.689   5.188 -0.3437 -0.0939 -0.4666
  507MOL0     O68346   1.157   8.589   5.118 -0.1348  0.7483 -0.4005
  507MOL0     C68347   1.230   8.632   4.993 -0.0612 -0.0117  0.0479
  507MOL0     C68348   1.146   8.684   4.881  0.5205  0.0537  0.3682
  507MOL0     C68349   1.227   8.701   4.757 -0.5896  0.0761  0.1061
  507MOL0     C68350   1.223   8.564   4.678 -0.0401  0.6413  0.6063
  507MOL0     C68351   1.320   8.550   4.564  0.1711  0.7038 -0.1428
  507MOL0     C68352   1.462   8.566   4.622 -0.3265  0.3205  1.0013
  507MOL0     C68353   1.570   8.516   4.519  0.8148 -0.9829  0.2848
  507MOL0     C68354   1.530   8.521   4.362  0.3684  0.8986 -0.6189
  507MOL0    Cl68355   1.520   8.693   4.315  0.1031  0.2667  0.2452
  507MOL0     C68356   0.969   8.678   5.217  0.1792 -0.2483 -0.5894
  507MOL0     C68357   0.905   8.760   5.312  0.3150  0.4742 -0.5560
  507MOL0     O68358   1.069   9.049   5.565 -0.1187  0.2533 -0.2800
  507MOL0     C68359   0.719   9.107   5.555  0.4479 -0.6896 -0.1178
  507MOL0     C68360   0.618   9.206   5.574 -0.3042  0.4370  0.7015
  507MOL0     N68361  -0.078   9.694   5.507  0.2194 -0.7344 -0.0726
  507MOL0     N68362  -0.099   9.699   5.379  0.2946 -0.5287 -0.2374
  507MOL0     C68363   0.966   9.889   5.320 -0.9504  0.3032  0.2795
  507MOL0     C68364   1.093   9.816   5.303  0.2096 -0.3496 -0.0066
  507MOL0     C68365   1.334   9.421   5.208  0.8782  0.1248  0.6891
  507MOL0     C68366   1.395   9.407   5.330 -0.1934  0.5371 -0.1743
  507MOL0     C68367   1.496   9.310   5.350  0.2300 -0.6632 -0.3305
  507MOL0     C68368   1.551   9.240   5.242 -0.1494 -0.9000 -0.5827
  507MOL0     O68369   1.631   9.133   5.255 -0.7257  0.1074  0.2685
  507MOL0     C68370   1.744   9.144   5.340 -0.0811  1.3925  0.9998
  507MOL0     C68371   1.848   9.259   5.308  0.5242 -0.2833  0.3467
  507MOL0     C68372   1.993   9.218   5.342  0.3378 -0.2611  0.0799
  507MOL0     C68373   2.002   9.244   5.493 -0.7431  0.3874  0.0716
  507MOL0     C68374   2.131   9.200   5.539 -0.4508  0.3857 -0.5220
  507MOL0     C68375   2.238   9.162   5.573 -0.8066 -0.4839  0.2240
  507MOL0     C68376   1.494   9.266   5.111  0.6723 -0.2240 -0.3100
  507MOL0     C68377   1.384   9.356   5.096 -0.6438 -0.6264 -0.0217
  507MOL0     H68378   1.015   9.496   5.368 -0.9476 -0.6294 -0.9592
  507MOL0     H68379   0.776   9.609   5.405 -0.0653  2.4769  3.0365
  507MOL0     H68380   0.782  10.060   5.393  0.4958 -0.8223 -1.0023
  507MOL0     H68381   0.736  10.003   5.231  3.3036  0.5123 -0.0187
  507MOL0     H68382   0.563  10.060   5.473 -0.6132  0.6425  0.5156
  507MOL0     H68383   0.559  10.130   5.309  0.9708 -0.4459 -0.8700
  507MOL0     H68384   0.461   9.865   5.406 -2.2631  0.7907 -0.3758
  507MOL0     H68385   0.368   9.990   5.319 -1.2499 -1.4031 -1.6933
  507MOL0     H68386   0.565   9.913   5.121 -1.4669 -0.8429 -1.4475
  507MOL0     H68387   0.529   9.769   5.217  2.2182  0.5364 -0.5896
  507MOL0     H68388   0.315   9.937   5.090 -0.7281 -0.3710 -0.3516
  507MOL0     H68389   0.373   9.780   5.011  0.2052 -1.4637  0.4258
  507MOL0     H68390   0.298   9.639   5.186 -2.1766 -0.4344  1.1166
  507MOL0     H68391   0.230   9.769   5.283 -2.9145 -1.4590 -0.0701
  507MOL0     H68392   0.095   9.832   5.103  1.7486  0.5852  0.3143
  507MOL0     H68393   0.161   9.702   5.012  0.1688 -2.9636  1.7981
  507MOL0     H68394   0.046   9.523   5.148 -1.1342  0.0573 -1.1839
  507MOL0     H68395  -0.062   9.650   5.106  2.5729  1.6317 -1.7405
  507MOL0     H68396   0.167   9.512   5.394  2.1928  1.5874 -3.0080
  507MOL0     H68397   0.111   9.687   5.722  0.3944 -1.6399  1.7425
  507MOL0     H68398  -0.018   9.564   5.730 -1.1986  2.4014  0.4138
  507MOL0     H68399   0.179   9.398   5.645  2.6611  1.6704 -3.0332
  507MOL0     H68400   0.194   9.455   5.809  2.2594  0.4364  0.9687
  507MOL0     H68401   0.362   9.613   5.744 -0.3164  2.1682 -1.2714
  507MOL0     H68402   0.337   9.591   5.573  0.0112 -0.5084 -0.3722
  507MOL0     H68403   0.372   9.370   5.576  0.2420  0.0259 -0.9302
  507MOL0     H68404   0.428   9.362   5.748  1.9155 -3.0219 -2.5231
  507MOL0     H68405   0.812   9.480   5.611 -0.2402 -0.4110  0.0060
  507MOL0     H68406   1.099   9.308   5.658  0.4139 -1.0496 -1.1375
  507MOL0     H68407   1.065   9.305   5.482 -3.4693 -1.2846 -1.3767
  507MOL0     H68408   1.038   9.446   5.588  1.5878  0.1230  1.9720
  507MOL0     H68409   1.163   8.977   5.358  1.1046  0.0292 -0.6401
  507MOL0     H68410   1.282   8.799   5.242 -0.1125  3.2693  1.9639
  507MOL0     H68411   1.297   8.716   5.015 -1.7143  1.8744 -1.7585
  507MOL0     H68412   1.294   8.550   4.960  0.0544  0.2631 -0.4200
  507MOL0     H68413   1.079   8.598   4.872 -0.0687 -0.0305  4.0679
  507MOL0     H68414   1.086   8.770   4.912  1.9223  0.1608  3.0432
  507MOL0     H68415   1.326   8.722   4.797 -1.6633  1.6429  2.1667
  507MOL0     H68416   1.213   8.788   4.692  0.7353  0.2273 -0.0037
  507MOL0     H68417   1.237   8.485   4.752  2.9654  0.0092 -0.5246
  507MOL0     H68418   1.124   8.542   4.637  1.0106  0.3234 -1.9193
  507MOL0     H68419   1.293   8.605   4.473 -0.7764  1.5655  0.6340
  507MOL0     H68420   1.315   8.446   4.531 -1.0229  0.0201  2.0138
  507MOL0     H68421   1.471   8.674   4.634 -1.0028  0.4764  0.1960
  507MOL0     H68422   1.479   8.514   4.716 -2.5546  0.2115  1.4119
  507MOL0     H68423   1.603   8.415   4.542 -6.0504 -3.7396  0.2642
  507MOL0     H68424   1.655   8.586   4.514 -1.8285  2.5861  1.0480
  507MOL0     H68425   1.442   8.460   4.338 -0.3060  0.6486  2.1258
  507MOL0     H68426   1.615   8.473   4.311  0.5319 -0.8335  1.1297
  507MOL0     H68427   0.917   8.587   5.186  0.6345 -0.3778 -0.9986
  507MOL0     H68428   0.807   8.726   5.345  0.7750  0.7565  1.2465
  507MOL0     H68429   0.683   9.007   5.534 -1.1360 -0.4891  1.4152
  507MOL0     H68430   0.514   9.176   5.573 -1.6397  4.4000 -1.3528
  507MOL0     H68431   0.950   9.995   5.302 -2.2315 -0.3160 -3.0083
  507MOL0     H68432   1.186   9.872   5.294  0.7260 -1.0355  0.9129
  507MOL0     H68433   1.348   9.444   5.421 -0.9577 -0.9909  0.0942
  507MOL0     H68434   1.546   9.308   5.447 -1.3466  0.7193  0.5745
  507MOL0     H68435   1.708   9.153   5.443 -2.6305 -1.4734  0.5069
  507MOL0     H68436   1.798   9.050   5.326 -2.1331  0.4760 -1.5796
  507MOL0     H68437   1.812   9.350   5.354 -2.8266 -1.6217  0.6227
  507MOL0     H68438   1.856   9.282   5.201  3.8234 -0.2003  0.4851
  507MOL0     H68439   2.069   9.274   5.287  0.6432  0.5684  1.3123
  507MOL0     H68440   2.013   9.113   5.319  1.4751  0.5531 -3.1937
  507MOL0     H68441   1.918   9.199   5.548 -1.2664  1.2650  0.0140
  507MOL0     H68442   2.009   9.352   5.509  2.6682  0.8495 -3.1882
  507MOL0     H68443   2.337   9.142   5.610  0.3285  0.8551 -1.8770
  507MOL0     H68444   1.534   9.202   5.033  2.7920 -1.1463  1.4461
  507MOL0     H68445   1.343   9.367   4.996  0.1012 -0.4028 -0.3135
  508MOL0     O68446   3.126   0.841   8.382 -0.2644 -0.6276 -0.1666
  508MOL0     C68447   3.180   0.932   8.319 -0.0468  0.0609  0.2774
  508MOL0     O68448   3.197   1.059   8.357 -0.1211  0.0170 -0.1841
  508MOL0     C68449   3.131   1.109   8.464  0.4624 -0.3387 -0.5274
  508MOL0     C68450   3.217   1.190   8.547  0.6432  0.3217  0.0761
  508MOL0     C68451   3.165   1.253   8.658  0.1955  0.2293 -0.9049
  508MOL0     C68452   3.040   1.225   8.708  0.9873 -1.0403 -0.3113
  508MOL0     O68453   3.004   1.285   8.823 -0.7285 -0.3068 -0.3830
  508MOL0     C68454   2.907   1.221   8.906  0.6626 -0.2085 -0.2074
  508MOL0     C68455   2.905   1.281   9.051 -0.1058 -0.2778  0.7015
  508MOL0     C68456   3.032   1.277   9.133 -0.8285 -0.8239 -0.3529
  508MOL0     C68457   3.040   1.343   9.270 -0.8749 -0.6477 -0.9145
  508MOL0     C68458   2.923   1.315   9.360  0.7383  0.1578 -0.3722
  508MOL0     C68459   2.933   1.393   9.501  1.3096  0.5401  0.1844
  508MOL0     C68460   2.790   1.411   9.553  0.3928 -0.2291 -0.7009
  508MOL0     C68461   2.722   1.282   9.608  0.2914 -0.6685 -0.4652
  508MOL0     N68462   2.579   1.302   9.639  0.1919  0.3932 -0.3157
  508MOL0     C68463   2.520   1.410   9.699 -0.1054  0.9337 -0.2901
  508MOL0     C68464   2.388   1.378   9.724  1.0144  0.0046  0.1510
  508MOL0     C68465   2.281   1.467   9.790  0.3931  0.6341 -0.0291
  508MOL0     C68466   2.186   1.532   9.690 -0.2313  0.8571  0.1881
  508MOL0     C68467   2.221   1.685   9.657 -0.5916  0.0501 -0.0912
  508MOL0     C68468   2.197   1.788   9.767  0.3613 -0.0914 -0.8124
  508MOL0     O68469   2.076   1.774   9.844 -0.2877  0.2359  0.5639
  508MOL0     C68470   2.055   1.846   9.954  0.5815 -0.8747  0.1106
  508MOL0     C68471   1.970   1.803  10.053 -0.1999 -0.2296  0.5706
  508MOL0     C68472   1.934   1.889  10.163  0.0255  0.8668  0.4777
  508MOL0     C68473   1.830   1.831  10.264 -0.3534 -0.1274 -0.0124
  508MOL0     C68474   1.994   2.019  10.172  0.1501  0.4192  0.1629
  508MOL0     C68475   1.960   2.126  10.267  0.1734 -0.5901  0.6298
  508MOL0     O68476   1.972   2.257  10.234 -0.0302  0.7270  0.2799
  508MOL0     C68477   2.018   2.345  10.325 -0.4635  0.0426 -0.0632
  508MOL0     C68478   2.127   2.327  10.410 -0.1484  0.3770  0.5666
  508MOL0     C68479   2.185   2.433  10.490 -0.1492  0.9396 -0.7175
  508MOL0     C68480   2.122   2.560  10.486 -1.3474 -0.3634  0.8389
  508MOL0     O68481   2.166   2.668  10.555  0.5495 -0.3387 -0.3836
  508MOL0     C68482   2.158   2.648  10.702 -0.2979  0.7245 -0.8692
  508MOL0     C68483   2.101   2.781  10.766 -0.1217  0.7559 -1.0062
  508MOL0     C68484   2.162   2.905  10.713  0.2306 -0.6974  0.1521
  508MOL0     C68485   2.086   3.034  10.768 -0.0559 -0.1803  0.0096
  508MOL0     C68486   2.097   3.059  10.916 -0.8746  0.1270  0.4112
  508MOL0     C68487   2.076   3.210  10.949 -0.7335  0.2001 -0.2797
  508MOL0     C68488   2.026   3.223  11.094 -0.4609  0.2115  0.4541
  508MOL0     C68489   2.032   3.376  11.116  0.1806  0.0219  0.6162
  508MOL0    Cl68490   1.978   3.417  11.291 -0.1079  0.6270 -0.2373
  508MOL0     C68491   2.018   2.582  10.388  0.6400 -0.1868  0.6205
  508MOL0     C68492   1.967   2.476  10.317  0.2061 -0.1293 -0.2229
  508MOL0     O68493   1.937   2.086  10.379  0.3852  0.0568 -0.4160
  508MOL0     C68494   2.076   2.055  10.070  0.4042 -0.1619 -0.1442
  508MOL0     C68495   2.107   1.975   9.967 -0.5967 -0.7813 -0.1708
  508MOL0     N68496   2.373   1.248   9.686 -1.0902  0.0725  0.3453
  508MOL0     N68497   2.484   1.205   9.634  0.6057 -0.3234 -0.3670
  508MOL0     C68498   2.949   1.145   8.629 -0.1967  0.3496  0.0509
  508MOL0     C68499   2.997   1.092   8.502  0.0460  0.5895  0.2222
  508MOL0     C68500   3.256   0.888   8.199  0.0262  0.3561  0.2108
  508MOL0     C68501   3.218   0.778   8.123 -0.1588  0.5675  0.3827
  508MOL0     C68502   3.305   0.730   8.023 -0.4284  0.0606 -0.2205
  508MOL0     C68503   3.408   0.801   7.961 -0.4405 -0.4980  0.2289
  508MOL0     O68504   3.477   0.751   7.854 -0.7351  0.4766 -0.1661
  508MOL0     C68505   3.585   0.659   7.886 -0.8183 -0.1808 -0.8675
  508MOL0     C68506   3.671   0.604   7.768 -0.3671  0.1302  0.0412
  508MOL0     C68507   3.742   0.714   7.695 -0.2224 -0.3275 -0.0680
  508MOL0     C68508   3.841   0.662   7.594 -0.4829  0.3976  0.4204
  508MOL0     C68509   3.808   0.544   7.513  0.7490 -0.4913  0.0270
  508MOL0     C68510   3.790   0.452   7.438 -0.6609  0.4700  0.6751
  508MOL0     C68511   3.429   0.926   8.020 -1.1744  0.4246  0.0542
  508MOL0     C68512   3.369   0.959   8.145  0.1473 -0.6519  0.1468
  508MOL0     H68513   3.321   1.210   8.525  0.8333  0.5798  1.1459
  508MOL0     H68514   3.229   1.319   8.716 -2.5504  0.4491  2.1567
  508MOL0     H68515   2.807   1.234   8.865  0.2130  0.4506  1.0644
  508MOL0     H68516   2.941   1.117   8.909 -0.2870 -0.5287 -0.4750
  508MOL0     H68517   2.885   1.388   9.044 -0.6213 -0.4214 -0.2185
  508MOL0     H68518   2.827   1.237   9.114 -4.0702  2.6685 -1.6787
  508MOL0     H68519   3.048   1.172   9.160  1.1866  0.2748  3.4530
  508MOL0     H68520   3.112   1.315   9.068 -0.3937 -1.9542 -0.5079
  508MOL0     H68521   3.139   1.326   9.314  0.4836  2.5056 -2.3893
  508MOL0     H68522   3.039   1.449   9.241  0.4120 -0.9475 -2.1552
  508MOL0     H68523   2.833   1.349   9.307  0.5591  1.4388  0.6905
  508MOL0     H68524   2.909   1.207   9.368  0.5694  0.2702  1.1338
  508MOL0     H68525   2.996   1.335   9.569  2.9179  1.2212 -0.6765
  508MOL0     H68526   2.973   1.494   9.488 -1.6564  2.2774  3.0821
  508MOL0     H68527   2.806   1.477   9.639 -0.7711  1.2450 -1.5635
  508MOL0     H68528   2.726   1.463   9.481  1.1792  3.7710  1.1572
  508MOL0     H68529   2.771   1.256   9.702 -0.9238  2.3865  1.1645
  508MOL0     H68530   2.733   1.205   9.531  2.1498 -1.6711  0.7347
  508MOL0     H68531   2.569   1.502   9.729 -1.3984  0.6239  3.1204
  508MOL0     H68532   2.209   1.405   9.845 -0.4173 -0.0812 -1.8303
  508MOL0     H68533   2.323   1.550   9.848 -0.1094  1.4125 -0.7691
  508MOL0     H68534   2.085   1.517   9.728  1.2140 -1.7312  3.5286
  508MOL0     H68535   2.192   1.474   9.597 -0.4698 -2.8964  2.3251
  508MOL0     H68536   2.168   1.700   9.563  0.8135 -0.3509 -0.9751
  508MOL0     H68537   2.327   1.673   9.630  0.2674 -1.4452  3.3504
  508MOL0     H68538   2.196   1.893   9.735 -2.1287  0.4464  0.6906
  508MOL0     H68539   2.285   1.793   9.831  0.1827 -0.9967 -0.4756
  508MOL0     H68540   1.923   1.705  10.047  1.0924 -0.9781  2.0009
  508MOL0     H68541   1.865   1.822  10.367  0.6964  0.2478 -0.3270
  508MOL0     H68542   1.759   1.914  10.265  0.1110  0.2998 -1.1331
  508MOL0     H68543   1.779   1.739  10.231  1.8039 -1.5011  0.2755
  508MOL0     H68544   2.186   2.237  10.409 -1.6239 -0.6185  0.1353
  508MOL0     H68545   2.277   2.411  10.542 -1.3293 -2.5107  0.1282
  508MOL0     H68546   2.079   2.573  10.715  1.5556 -1.2982 -0.6629
  508MOL0     H68547   2.256   2.621  10.742 -0.7757  1.9352  1.2953
  508MOL0     H68548   1.992   2.777  10.754 -0.7408  1.7871  2.9170
  508MOL0     H68549   2.110   2.766  10.874 -0.6625  1.2424 -0.8862
  508MOL0     H68550   2.140   2.912  10.606 -2.0032  1.0234  0.6619
  508MOL0     H68551   2.269   2.909  10.735  0.6349  2.4295 -1.8387
  508MOL0     H68552   2.140   3.115  10.719 -1.0090  0.0321 -0.7343
  508MOL0     H68553   1.982   3.039  10.734  0.9742  0.6989 -3.4286
  508MOL0     H68554   2.199   3.028  10.939 -1.0543 -2.3905 -1.7190
  508MOL0     H68555   2.030   2.991  10.969  1.9048 -0.7533  3.0877
  508MOL0     H68556   2.171   3.256  10.922 -1.1968 -0.1418 -2.7936
  508MOL0     H68557   2.004   3.248  10.876  0.7233  0.7292 -1.4889
  508MOL0     H68558   2.084   3.165  11.166 -2.5673 -2.3520  0.2452
  508MOL0     H68559   1.927   3.180  11.114  1.4335 -3.1417  3.9896
  508MOL0     H68560   1.955   3.420  11.051 -2.4300 -0.2677  3.2761
  508MOL0     H68561   2.133   3.408  11.088 -0.2846  0.0765 -1.1099
  508MOL0     H68562   1.967   2.677  10.374 -2.4520 -1.1727  3.6889
  508MOL0     H68563   1.896   2.490  10.236  1.4728  0.8122 -1.2244
  508MOL0     H68564   2.120   2.154  10.073 -1.5879  0.7392  0.9440
  508MOL0     H68565   2.171   2.013   9.888 -0.4066 -1.6443 -0.4433
  508MOL0     H68566   2.846   1.125   8.656  0.1296 -2.5610 -0.4659
  508MOL0     H68567   2.925   1.044   8.436  0.1737 -0.7077  0.9826
  508MOL0     H68568   3.141   0.712   8.159  0.0881 -1.4000 -2.4004
  508MOL0     H68569   3.273   0.639   7.973 -2.0663  1.0510 -1.0712
  508MOL0     H68570   3.640   0.716   7.960 -4.0638 -2.6021  3.9541
  508MOL0     H68571   3.557   0.584   7.960  3.0631  1.4165  2.5626
  508MOL0     H68572   3.610   0.546   7.698  4.0999 -0.2369 -4.0529
  508MOL0     H68573   3.741   0.530   7.808  1.3611  0.4910 -2.1086
  508MOL0     H68574   3.800   0.772   7.767 -0.3340 -1.0627  0.6398
  508MOL0     H68575   3.664   0.777   7.652  1.5893  2.1420  0.0505
  508MOL0     H68576   3.927   0.644   7.661 -1.1346  1.7202  1.6702
  508MOL0     H68577   3.854   0.744   7.523 -1.5203  1.2557  1.1808
  508MOL0     H68578   3.766   0.374   7.369 -1.8648  2.6207 -1.4928
  508MOL0     H68579   3.502   0.996   7.981 -2.4521  3.1237  2.1537
  508MOL0     H68580   3.400   1.049   8.198 -3.5505  1.3201 -0.6673
  509MOL0     O68581   7.586   6.792   4.793 -0.0543 -0.0573 -0.2928
  509MOL0     C68582   7.587   6.741   4.910  0.0640 -0.2167  0.8009
  509MOL0     O68583   7.484   6.753   4.996  0.0958  0.2652 -0.7059
  509MOL0     C68584   7.376   6.824   4.959  0.8130  0.5635  0.4532
  509MOL0     C68585   7.259   6.750   4.951  0.5466  0.2906 -0.3549
  509MOL0     C68586   7.142   6.822   4.916 -0.1324  0.7478  1.0033
  509MOL0     C68587   7.141   6.957   4.871 -0.0603  1.1897 -0.0999
  509MOL0     O68588   7.037   7.027   4.828 -0.3534 -0.2563 -0.0834
  509MOL0     C68589   6.912   6.971   4.801 -0.0747 -0.3529  0.3885
  509MOL0     C68590   6.825   7.093   4.746  0.2442 -0.7105 -0.3634
  509MOL0     C68591   6.855   7.165   4.606 -0.1335  0.3922 -0.0670
  509MOL0     C68592   6.842   7.061   4.494 -0.6337 -0.1538 -0.0222
  509MOL0     C68593   6.970   7.054   4.409 -0.6325  0.4024 -0.1288
  509MOL0     C68594   7.084   6.997   4.497 -0.2924  0.3831  1.2782
  509MOL0     C68595   7.216   7.043   4.419  0.6693 -0.7560 -0.1914
  509MOL0     C68596   7.341   6.975   4.489  1.1412  0.3859  0.0432
  509MOL0     N68597   7.463   7.051   4.475  0.7709  0.4606 -0.0470
  509MOL0     C68598   7.586   7.003   4.516  0.3277 -0.2977 -0.2869
  509MOL0     C68599   7.671   7.103   4.510  0.1508 -1.1304 -0.0641
  509MOL0     C68600   7.818   7.104   4.548  0.3394 -0.6439  0.9586
  509MOL0     C68601   7.895   7.032   4.448 -0.3663  0.1781 -0.0088
  509MOL0     C68602   7.983   7.115   4.355  0.3373 -0.9037 -0.1299
  509MOL0     C68603   8.110   7.168   4.422 -0.0104 -0.0447 -0.9981
  509MOL0     O68604   8.137   7.294   4.361 -0.1590  0.3345  0.2483
  509MOL0     C68605   8.254   7.361   4.395  0.1443  0.8953  0.2003
  509MOL0     C68606   8.251   7.495   4.383  0.3801 -0.3555  0.6241
  509MOL0     C68607   8.365   7.578   4.392 -0.1614  0.0623 -0.2660
  509MOL0     C68608   8.358   7.723   4.362 -0.7872  0.2039 -0.4991
  509MOL0     C68609   8.484   7.513   4.425 -1.5310  0.2074  0.2040
  509MOL0     C68610   8.621   7.579   4.439  0.6402  0.3367 -0.6124
  509MOL0     O68611   8.732   7.500   4.413  0.6171 -0.4874 -0.1791
  509MOL0     C68612   8.857   7.533   4.452 -0.2185 -0.1159 -1.2517
  509MOL0     C68613   8.892   7.528   4.585 -0.3297 -0.4807 -0.7043
  509MOL0     C68614   9.021   7.548   4.634  0.0246 -1.3748  0.3491
  509MOL0     C68615   9.125   7.552   4.537 -0.4346  0.5699  0.7819
  509MOL0     O68616   9.249   7.521   4.577  0.0330 -0.1829 -0.0844
  509MOL0     C68617   9.297   7.611   4.679 -1.2545  0.1291 -0.0829
  509MOL0     C68618   9.278   7.761   4.654  0.3892 -0.2473  0.3115
  509MOL0     C68619   9.342   7.821   4.532 -0.4769 -0.8300 -0.3031
  509MOL0     C68620   9.495   7.862   4.562 -0.1435 -0.2609 -0.2026
  509MOL0     C68621   9.588   7.861   4.434  1.3739 -0.9289 -0.8242
  509MOL0     C68622   9.645   7.730   4.396  0.0478 -0.2982 -0.8356
  509MOL0     C68623   9.746   7.741   4.272 -0.2304 -0.3166  0.0333
  509MOL0     C68624   9.886   7.690   4.327 -0.4956  0.9259  0.7794
  509MOL0    Cl68625   9.960   7.824   4.422 -0.0769 -0.1534  0.1887
  509MOL0     C68626   9.090   7.553   4.400  0.0429 -0.3508  0.5197
  509MOL0     C68627   8.956   7.542   4.356 -0.7880  0.9410  0.2043
  509MOL0     O68628   8.628   7.692   4.483  0.1937  0.1387  0.4926
  509MOL0     C68629   8.493   7.378   4.437  0.6526 -0.5108 -0.3893
  509MOL0     C68630   8.377   7.306   4.417  0.2409 -0.0807 -0.0771
  509MOL0     N68631   7.603   7.214   4.454  1.1409 -0.0023  0.0432
  509MOL0     N68632   7.479   7.174   4.425  0.4227 -0.3594 -0.2741
  509MOL0     C68633   7.265   7.027   4.883 -0.8716  0.1532  0.7050
  509MOL0     C68634   7.377   6.962   4.924  0.7302  0.3997 -0.0188
  509MOL0     C68635   7.699   6.653   4.961  0.4429 -0.2121  0.3528
  509MOL0     C68636   7.816   6.670   4.888  0.0477  0.4234  0.0084
  509MOL0     C68637   7.926   6.619   4.945  0.0354 -1.0397 -0.3761
  509MOL0     C68638   7.920   6.526   5.050 -1.3546 -0.0675 -0.8228
  509MOL0     O68639   8.031   6.474   5.110 -0.0701  0.7555  0.1905
  509MOL0     C68640   8.159   6.480   5.044  0.4993  1.0652 -0.0365
  509MOL0     C68641   8.237   6.359   5.092  0.9330  0.3429 -0.3755
  509MOL0     C68642   8.374   6.344   5.041  0.1945  1.0815 -0.2784
  509MOL0     C68643   8.421   6.199   5.054 -0.3656  0.1416 -0.6773
  509MOL0     C68644   8.554   6.189   4.998 -0.4231  0.2296 -0.2127
  509MOL0     C68645   8.665   6.173   4.937  0.0279 -0.2402 -0.5591
  509MOL0     C68646   7.801   6.503   5.107 -0.6220  1.1946 -1.2998
  509MOL0     C68647   7.690   6.570   5.066 -1.1643  0.2216 -1.0076
  509MOL0     H68648   7.248   6.649   4.989  0.4518  0.1476 -0.7572
  509MOL0     H68649   7.041   6.784   4.911  0.5075 -0.8928 -2.3792
  509MOL0     H68650   6.901   6.900   4.719 -1.0245  4.1221 -3.8269
  509MOL0     H68651   6.871   6.921   4.890 -2.1104 -1.2894 -0.9951
  509MOL0     H68652   6.723   7.057   4.736 -1.2538  2.0365  2.8540
  509MOL0     H68653   6.837   7.172   4.821  2.5601 -0.8500 -0.5134
  509MOL0     H68654   6.767   7.230   4.598 -1.5762 -1.4051  0.3325
  509MOL0     H68655   6.952   7.215   4.614 -1.2541  2.6110  0.4405
  509MOL0     H68656   6.809   6.963   4.529 -0.9140 -0.2205 -0.4754
  509MOL0     H68657   6.770   7.096   4.419 -0.1514  1.9037  0.4049
  509MOL0     H68658   6.954   6.999   4.315  3.5808 -0.4297 -0.5532
  509MOL0     H68659   6.993   7.159   4.386  1.4938  0.2796  1.1215
  509MOL0     H68660   7.088   7.035   4.600  1.2475 -1.2567  1.8745
  509MOL0     H68661   7.081   6.887   4.498 -0.4241  0.3835  2.5583
  509MOL0     H68662   7.223   7.005   4.317  1.5306 -1.1778  0.0179
  509MOL0     H68663   7.230   7.151   4.429  0.7114 -0.7656 -0.1502
  509MOL0     H68664   7.365   6.882   4.437  0.1630  0.9009 -1.4061
  509MOL0     H68665   7.316   6.948   4.592  1.1085  1.4644  0.3240
  509MOL0     H68666   7.605   6.903   4.555  2.5594  0.7408  1.5208
  509MOL0     H68667   7.849   7.209   4.547 -1.4120 -0.0843  0.9308
  509MOL0     H68668   7.840   7.058   4.644 -1.5951  1.2263  2.3951
  509MOL0     H68669   7.828   6.967   4.392 -2.1468  0.1027  2.0693
  509MOL0     H68670   7.958   6.959   4.499  0.5419  0.0368 -1.2758
  509MOL0     H68671   7.928   7.188   4.295 -1.6230 -0.6236  1.8886
  509MOL0     H68672   8.020   7.046   4.278 -0.8209  0.5169 -2.0527
  509MOL0     H68673   8.198   7.103   4.418 -0.2779 -0.3542 -2.4454
  509MOL0     H68674   8.087   7.187   4.527 -0.1241  3.3725 -1.5085
  509MOL0     H68675   8.159   7.545   4.353 -0.4962 -2.3943 -0.2430
  509MOL0     H68676   8.430   7.729   4.281  1.6379 -3.9379  1.0145
  509MOL0     H68677   8.259   7.763   4.338 -2.2999 -2.7227  0.2709
  509MOL0     H68678   8.400   7.789   4.439 -0.2527  0.9959 -1.4515
  509MOL0     H68679   8.810   7.507   4.653 -1.0216  0.0193 -1.3534
  509MOL0     H68680   9.041   7.544   4.740  0.1225 -0.9997  0.3493
  509MOL0     H68681   9.239   7.591   4.770  0.8496  2.3624  1.9196
  509MOL0     H68682   9.401   7.592   4.707 -0.7330  0.8733 -1.4353
  509MOL0     H68683   9.177   7.795   4.631  0.5897  1.5331  1.8547
  509MOL0     H68684   9.313   7.813   4.744  0.6247 -1.6862  1.0764
  509MOL0     H68685   9.286   7.908   4.495  0.5611 -0.1484 -0.2949
  509MOL0     H68686   9.330   7.757   4.445 -0.2430  1.6392 -2.2832
  509MOL0     H68687   9.498   7.955   4.619 -0.4079 -1.9006  2.6741
  509MOL0     H68688   9.544   7.802   4.640  2.7632  2.8517  0.6180
  509MOL0     H68689   9.668   7.935   4.443 -1.1225  1.8649  0.1418
  509MOL0     H68690   9.536   7.915   4.354  0.3768 -0.8459 -0.1262
  509MOL0     H68691   9.689   7.686   4.486 -0.9521  1.9208  0.8697
  509MOL0     H68692   9.565   7.658   4.376 -0.5689  0.8042 -2.5930
  509MOL0     H68693   9.744   7.840   4.226 -3.1101  0.1966  1.0213
  509MOL0     H68694   9.707   7.664   4.204  2.8453 -4.9940  2.9682
  509MOL0     H68695   9.955   7.674   4.244  1.1399  0.0701  2.2277
  509MOL0     H68696   9.865   7.592   4.370  2.4201 -0.6735 -1.1465
  509MOL0     H68697   9.169   7.538   4.328 -1.1402 -0.2012 -0.8458
  509MOL0     H68698   8.929   7.514   4.254  0.2165  2.0282 -0.3922
  509MOL0     H68699   8.572   7.313   4.473 -1.1182 -1.0357  2.9193
  509MOL0     H68700   8.389   7.200   4.438 -1.2220 -0.4238 -0.8091
  509MOL0     H68701   7.286   7.124   4.840  4.3430 -0.4323  1.2522
  509MOL0     H68702   7.478   6.999   4.927  1.5455 -1.6800  0.0683
  509MOL0     H68703   7.819   6.734   4.801  0.5823  0.8998  0.3643
  509MOL0     H68704   8.025   6.637   4.902  0.7591  0.3948  1.7342
  509MOL0     H68705   8.145   6.469   4.936 -0.0648 -3.7757  0.2759
  509MOL0     H68706   8.227   6.559   5.075  1.6384  1.1434 -2.5755
  509MOL0     H68707   8.184   6.272   5.050  0.2334  1.9057 -3.0117
  509MOL0     H68708   8.225   6.356   5.200 -0.1420  2.4513 -0.3745
  509MOL0     H68709   8.440   6.416   5.090 -1.2970  2.7791 -0.6630
  509MOL0     H68710   8.361   6.368   4.935 -1.7688  1.3247 -0.0096
  509MOL0     H68711   8.360   6.132   4.992  1.8790  0.1526 -3.0760
  509MOL0     H68712   8.427   6.172   5.160  2.3135  2.1003 -0.2529
  509MOL0     H68713   8.763   6.169   4.894  0.4853  1.4165  0.2138
  509MOL0     H68714   7.800   6.435   5.191  2.3847 -0.2542 -2.2958
  509MOL0     H68715   7.591   6.558   5.109 -0.8083 -2.3418 -0.7540
  510MOL0     O68716   5.497  10.396   4.536 -0.2648 -0.2449  0.9421
  510MOL0     C68717   5.467  10.283   4.541 -0.2713  0.3826 -0.5593
  510MOL0     O68718   5.429  10.205   4.431 -0.5862  0.0364  0.1279
  510MOL0     C68719   5.411  10.272   4.309 -0.0792 -0.3200  0.3893
  510MOL0     C68720   5.289  10.246   4.239 -0.1275  0.1802 -0.6503
  510MOL0     C68721   5.272  10.298   4.111 -0.0324  0.1735  0.0629
  510MOL0     C68722   5.360  10.389   4.059 -0.3387 -0.2947 -0.8223
  510MOL0     O68723   5.330  10.447   3.935  0.1566  0.1178 -0.4520
  510MOL0     C68724   5.228  10.548   3.944 -0.3823  0.0012  0.3773
  510MOL0     C68725   5.205  10.613   3.811 -0.7032 -0.0561  0.4053
  510MOL0     C68726   5.107  10.731   3.817 -0.4928  0.3455  0.6760
  510MOL0     C68727   5.087  10.789   3.676 -0.2136  0.7042 -0.1522
  510MOL0     C68728   4.966  10.876   3.648  0.3239  0.3347  0.1357
  510MOL0     C68729   4.931  10.893   3.495  0.5088  0.1001  1.2684
  510MOL0     C68730   4.877  11.033   3.461 -0.6741  0.5399  1.1700
  510MOL0     C68731   4.734  11.063   3.503 -0.2076 -1.1230 -0.7496
  510MOL0     N68732   4.687  11.197   3.482  0.6039 -1.2261  0.8320
  510MOL0     C68733   4.758  11.308   3.514  0.9226 -0.0695 -0.2219
  510MOL0     C68734   4.680  11.420   3.484  0.2254  0.3121 -0.0084
  510MOL0     C68735   4.726  11.565   3.484 -0.1679  0.5157 -0.6398
  510MOL0     C68736   4.827  11.597   3.595  0.0231  0.2634  1.6784
  510MOL0     C68737   4.857  11.733   3.624 -0.6714  0.8262  0.4231
  510MOL0     C68738   4.743  11.804   3.690  0.1216  0.0624 -0.3685
  510MOL0     O68739   4.799  11.899   3.781 -0.3564  1.2980  0.2723
  510MOL0     C68740   4.710  11.954   3.871 -0.0965 -1.0714 -0.2705
  510MOL0     C68741   4.768  12.030   3.979  0.2634  1.5272 -0.1807
  510MOL0     C68742   4.689  12.085   4.082 -0.3954 -0.1423  0.2731
  510MOL0     C68743   4.765  12.154   4.187 -0.0670 -0.6510  0.2265
  510MOL0     C68744   4.553  12.099   4.052 -0.2010 -0.4992 -0.4277
  510MOL0     C68745   4.446  12.160   4.147  0.5178 -0.0055 -0.7798
  510MOL0     O68746   4.320  12.112   4.137 -0.5474 -0.3746  0.8341
  510MOL0     C68747   4.217  12.160   4.204  0.7942  0.5081 -0.1675
  510MOL0     C68748   4.122  12.235   4.138  0.6057 -0.6198 -0.5384
  510MOL0     C68749   4.007  12.282   4.206  0.4966 -0.0554  0.1848
  510MOL0     C68750   3.983  12.243   4.344 -0.1269  0.7766 -0.1847
  510MOL0     O68751   3.864  12.269   4.409 -0.7491  0.1042 -0.0258
  510MOL0     C68752   3.760  12.340   4.340 -1.5374 -0.1472  0.9034
  510MOL0     C68753   3.648  12.379   4.438 -0.6134  0.3077  0.7150
  510MOL0     C68754   3.550  12.469   4.379  0.6401  0.7203  0.0234
  510MOL0     C68755   3.428  12.469   4.462 -0.4824  0.2544  0.1955
  510MOL0     C68756   3.322  12.364   4.412  0.1429  1.1882 -0.0100
  510MOL0     C68757   3.189  12.369   4.486 -0.0602 -0.5416  0.8001
  510MOL0     C68758   3.119  12.506   4.493 -0.9686  0.8115 -0.0512
  510MOL0     C68759   2.972  12.513   4.541  0.1311  0.1085 -0.0659
  510MOL0    Cl68760   2.862  12.385   4.471  0.5387  0.2078 -0.3999
  510MOL0     C68761   4.076  12.168   4.410 -0.0431  0.0272  0.1840
  510MOL0     C68762   4.195  12.125   4.342 -0.3700  0.2023  0.1141
  510MOL0     O68763   4.472  12.247   4.232 -0.6992  0.4630  1.1323
  510MOL0     C68764   4.500  12.028   3.944  0.5563 -0.5011  0.2812
  510MOL0     C68765   4.572  11.960   3.856  0.4151  0.0712 -0.0502
  510MOL0     N68766   4.553  11.360   3.444 -0.6654  0.0195 -0.1073
  510MOL0     N68767   4.561  11.231   3.454 -0.7782  0.2888  0.7337
  510MOL0     C68768   5.482  10.409   4.126 -0.2979  0.0072 -0.4509
  510MOL0     C68769   5.511  10.352   4.253 -0.8770 -0.4192  0.2211
  510MOL0     C68770   5.472  10.205   4.671  0.1308 -0.1442 -0.7596
  510MOL0     C68771   5.513  10.273   4.788 -0.1084  0.2264 -0.3675
  510MOL0     C68772   5.505  10.207   4.909 -0.2983  0.9186  0.6343
  510MOL0     C68773   5.475  10.069   4.902  0.3204  1.0274 -2.0590
  510MOL0     O68774   5.464   9.993   5.016 -0.4582  0.3401 -0.3693
  510MOL0     C68775   5.552  10.019   5.133  0.6414 -0.3181 -0.5998
  510MOL0     C68776   5.693  10.002   5.104 -0.1705  0.0044 -0.3008
  510MOL0     C68777   5.740   9.852   5.061  0.1717 -0.3554  1.0076
  510MOL0     C68778   5.889   9.842   5.046 -0.6319  0.5097 -0.2258
  510MOL0     C68779   5.948   9.839   5.180 -0.0989  0.4019 -1.2167
  510MOL0     C68780   5.994   9.839   5.294  0.6958 -0.4448 -0.0975
  510MOL0     C68781   5.429  10.005   4.791  0.3996 -0.4404  0.5169
  510MOL0     C68782   5.437  10.070   4.674 -0.0741  0.4749 -0.0279
  510MOL0     H68783   5.232  10.178   4.302  3.2972 -0.4263  2.0944
  510MOL0     H68784   5.177  10.272   4.066 -1.7702  0.0205  3.5057
  510MOL0     H68785   5.138  10.492   3.972  0.0984 -0.4953  0.9646
  510MOL0     H68786   5.249  10.616   4.027 -0.9280  0.8267 -0.1463
  510MOL0     H68787   5.307  10.645   3.787  1.8100 -2.9791  5.4992
  510MOL0     H68788   5.163  10.540   3.741 -1.1277  0.7935 -0.2478
  510MOL0     H68789   5.009  10.693   3.849 -0.9465  2.1761  1.5713
  510MOL0     H68790   5.128  10.808   3.891 -3.1507  0.5089  1.3545
  510MOL0     H68791   5.176  10.851   3.664 -0.3196  1.2858  1.8019
  510MOL0     H68792   5.081  10.700   3.611  1.5063  1.1130 -0.9196
  510MOL0     H68793   4.879  10.830   3.698 -2.7957  3.5969 -1.7878
  510MOL0     H68794   4.987  10.972   3.696 -1.8013  0.8617  0.1070
  510MOL0     H68795   5.031  10.880   3.454  0.6972  2.4290  0.9029
  510MOL0     H68796   4.863  10.813   3.465 -0.0301  0.5012  1.4110
  510MOL0     H68797   4.947  11.108   3.500 -1.0111  0.3667  2.1402
  510MOL0     H68798   4.889  11.051   3.354  0.6335  1.4567  1.4403
  510MOL0     H68799   4.722  11.030   3.607  1.7052  0.6071  0.0896
  510MOL0     H68800   4.671  11.006   3.434 -2.0644  1.1039 -1.0082
  510MOL0     H68801   4.856  11.323   3.557 -0.5605  3.9488  2.4123
  510MOL0     H68802   4.775  11.577   3.387 -0.8723  1.4964 -0.8933
  510MOL0     H68803   4.640  11.632   3.475 -1.9055 -1.6550 -1.1432
  510MOL0     H68804   4.924  11.556   3.565  0.9204  2.5793  1.2084
  510MOL0     H68805   4.799  11.553   3.691 -1.7290 -1.0527  0.6267
  510MOL0     H68806   4.870  11.788   3.530 -1.4988  0.5743  0.1535
  510MOL0     H68807   4.957  11.734   3.669 -0.6575 -2.4174  0.7087
  510MOL0     H68808   4.679  11.734   3.744 -0.2343 -0.4432 -1.4283
  510MOL0     H68809   4.671  11.852   3.623 -0.9753  0.6872  1.1784
  510MOL0     H68810   4.875  12.031   3.997  0.1010 -2.4283  2.1145
  510MOL0     H68811   4.704  12.224   4.245  0.0972 -0.3427  0.0299
  510MOL0     H68812   4.809  12.076   4.250 -0.3054 -0.8587  0.1393
  510MOL0     H68813   4.849  12.214   4.153 -1.2461  0.7547 -0.2912
  510MOL0     H68814   4.137  12.270   4.037  3.3766  3.3757  1.0046
  510MOL0     H68815   3.927  12.324   4.147  0.1620  0.4633  0.9959
  510MOL0     H68816   3.799  12.429   4.288  0.1715 -1.7737 -0.7624
  510MOL0     H68817   3.727  12.272   4.261 -0.5754 -1.4186  1.5721
  510MOL0     H68818   3.610  12.281   4.470  2.2727 -0.0551  3.6192
  510MOL0     H68819   3.688  12.416   4.533 -1.9789  0.8136  1.1093
  510MOL0     H68820   3.521  12.431   4.281 -4.0358  0.4540  1.2669
  510MOL0     H68821   3.593  12.569   4.372  0.1255  1.1040  1.8339
  510MOL0     H68822   3.455  12.433   4.562 -3.3376 -3.5786 -0.1879
  510MOL0     H68823   3.386  12.569   4.448  1.9678  1.1215 -1.6798
  510MOL0     H68824   3.364  12.263   4.422 -1.8079  0.2726 -0.5049
  510MOL0     H68825   3.300  12.362   4.305 -0.4982 -2.6980  0.0160
  510MOL0     H68826   3.119  12.293   4.449 -0.3394  0.5221 -0.9347
  510MOL0     H68827   3.210  12.344   4.591  2.0148 -0.1817  0.4999
  510MOL0     H68828   3.129  12.548   4.392  0.7985 -0.6605 -0.5299
  510MOL0     H68829   3.167  12.585   4.552 -2.3905  0.5675  1.5081
  510MOL0     H68830   2.936  12.615   4.526 -3.1538 -0.9239 -0.0801
  510MOL0     H68831   2.970  12.485   4.647  1.7757  0.5707  0.0993
  510MOL0     H68832   4.052  12.138   4.511  2.0911 -1.6652  0.2779
  510MOL0     H68833   4.264  12.073   4.407  2.2775  1.5781 -1.4472
  510MOL0     H68834   4.393  12.021   3.931  0.5654 -1.9134  0.7756
  510MOL0     H68835   4.527  11.917   3.767 -1.1832  0.5563  0.4979
  510MOL0     H68836   5.559  10.459   4.068 -1.9688 -0.9901 -3.7951
  510MOL0     H68837   5.603  10.370   4.308 -0.2767  0.0493 -0.9160
  510MOL0     H68838   5.544  10.377   4.781 -1.7040  0.6356 -2.1455
  510MOL0     H68839   5.530  10.260   5.000  1.4750  2.8003 -0.8659
  510MOL0     H68840   5.532  10.122   5.163 -0.8527 -0.5743 -0.6490
  510MOL0     H68841   5.517   9.950   5.210 -1.3112  3.0446  1.8313
  510MOL0     H68842   5.746  10.025   5.196 -0.2815  1.9786 -0.7021
  510MOL0     H68843   5.717  10.082   5.034 -0.7749  1.0509  0.6490
  510MOL0     H68844   5.689   9.832   4.967  0.7172 -4.2978  1.3983
  510MOL0     H68845   5.701   9.778   5.131  1.2699  0.4506  2.5340
  510MOL0     H68846   5.943   9.927   5.004  0.2279  2.3268  4.0493
  510MOL0     H68847   5.917   9.746   5.000  4.2521 -0.5000  3.8792
  510MOL0     H68848   6.025   9.841   5.397 -0.6747 -0.6026  0.3369
  510MOL0     H68849   5.405   9.900   4.807  0.5999 -0.5987 -0.1850
  510MOL0     H68850   5.409  10.017   4.584  0.9377 -0.2146  0.0426
  511MOL0     O68851   9.151   4.115   3.991  0.2566  0.8082  0.3143
  511MOL0     C68852   9.254   4.060   3.944  0.1720  0.3720 -0.3112
  511MOL0     O68853   9.269   3.924   3.909  0.0243  0.0935  1.1134
  511MOL0     C68854   9.185   3.834   3.957  0.1018  0.1385 -0.4941
  511MOL0     C68855   9.195   3.794   4.094 -0.2461 -0.4847  1.8241
  511MOL0     C68856   9.107   3.699   4.140 -0.6819 -0.3784  0.7976
  511MOL0     C68857   9.008   3.654   4.052  0.2596  0.3731  1.1422
  511MOL0     O68858   8.918   3.558   4.080 -0.4369 -0.9129  0.0825
  511MOL0     C68859   8.991   3.433   4.096  0.1072 -0.9519  0.3480
  511MOL0     C68860   8.885   3.322   4.095 -0.0048  0.5321  0.2683
  511MOL0     C68861   8.958   3.191   4.130  0.5500 -0.4839  0.0326
  511MOL0     C68862   8.949   3.182   4.283 -0.0594 -0.2841 -0.3963
  511MOL0     C68863   9.008   3.052   4.336 -0.1074 -0.6907 -0.2200
  511MOL0     C68864   9.011   3.046   4.484 -0.3006  0.0400 -0.7076
  511MOL0     C68865   9.107   2.941   4.538  0.0955  0.3346 -0.5202
  511MOL0     C68866   9.079   2.798   4.486 -0.3229  0.2509  0.2711
  511MOL0     N68867   9.146   2.702   4.571 -0.8127  0.9322 -0.9186
  511MOL0     C68868   9.082   2.604   4.647  1.3970 -0.3061  0.0076
  511MOL0     C68869   9.168   2.536   4.716  1.0189  0.5407  0.6236
  511MOL0     C68870   9.132   2.423   4.823 -0.4348  0.4810 -0.4081
  511MOL0     C68871   9.165   2.475   4.972  0.3879 -0.0932  0.4451
  511MOL0     C68872   9.312   2.524   5.008  0.2304  0.2148  1.1285
  511MOL0     C68873   9.412   2.417   4.959  0.4268  0.4615 -0.1274
  511MOL0     O68874   9.389   2.301   5.036  0.3279 -0.0085 -0.5381
  511MOL0     C68875   9.406   2.179   4.973  0.0040 -0.1353  0.1429
  511MOL0     C68876   9.377   2.063   5.050  0.2977 -0.7443  0.4909
  511MOL0     C68877   9.392   1.933   5.001 -1.1506 -0.7540 -0.4669
  511MOL0     C68878   9.342   1.815   5.087 -0.7543 -0.1661 -0.1118
  511MOL0     C68879   9.450   1.920   4.869  0.0674 -0.0697 -0.2595
  511MOL0     C68880   9.469   1.793   4.813 -0.5181 -0.4428  0.8607
  511MOL0     O68881   9.369   1.754   4.732  0.4935  0.2745 -0.1872
  511MOL0     C68882   9.362   1.634   4.682 -0.5210  0.5463  0.2603
  511MOL0     C68883   9.257   1.548   4.723  0.4336 -0.7025 -0.0316
  511MOL0     C68884   9.242   1.418   4.669  0.0971  0.2654  0.6298
  511MOL0     C68885   9.342   1.364   4.584 -0.5346 -0.1539  0.2651
  511MOL0     O68886   9.325   1.245   4.519  1.1310 -0.4410  0.0557
  511MOL0     C68887   9.199   1.181   4.514  0.2027 -0.8145  0.2889
  511MOL0     C68888   9.202   1.080   4.394 -0.4187 -0.4679  0.3713
  511MOL0     C68889   9.292   0.962   4.403  0.0727  0.3801 -0.8328
  511MOL0     C68890   9.432   1.007   4.420  0.4135  0.1179  0.1426
  511MOL0     C68891   9.535   0.883   4.397 -0.4327 -1.1346 -0.1964
  511MOL0     C68892   9.674   0.925   4.343 -0.1206 -0.3950 -0.4959
  511MOL0     C68893   9.734   1.024   4.446  0.7272  0.1200  0.0938
  511MOL0     C68894   9.858   1.105   4.391  0.0385  0.6255  0.8759
  511MOL0    Cl68895   9.967   0.997   4.292  0.6593  0.2936 -0.3627
  511MOL0     C68896   9.441   1.451   4.545 -0.2420  0.3647  0.0256
  511MOL0     C68897   9.457   1.581   4.591  1.0522  0.8074 -0.5226
  511MOL0     O68898   9.570   1.725   4.839  0.2405  0.4433  0.5983
  511MOL0     C68899   9.473   2.034   4.787 -0.4114  0.6832 -0.5380
  511MOL0     C68900   9.461   2.160   4.839  0.7227  0.4672  0.3282
  511MOL0     N68901   9.288   2.595   4.679  0.4752 -0.0099 -0.5279
  511MOL0     N68902   9.275   2.691   4.597  0.1318  0.5213 -0.8941
  511MOL0     C68903   8.993   3.702   3.929 -0.2938 -0.1391  0.1696
  511MOL0     C68904   9.083   3.792   3.876 -0.9209  0.3249 -0.6300
  511MOL0     C68905   9.362   4.157   3.921 -0.3731 -0.0797  0.5068
  511MOL0     C68906   9.492   4.108   3.895 -0.3377 -0.5268 -0.2361
  511MOL0     C68907   9.604   4.192   3.890 -0.9640  0.5219 -0.5181
  511MOL0     C68908   9.578   4.327   3.908 -0.0726 -0.4248  0.3641
  511MOL0     O68909   9.692   4.411   3.928  0.2633 -0.6243  0.1722
  511MOL0     C68910   9.804   4.356   4.001  0.0724 -0.8829 -0.4597
  511MOL0     C68911   9.905   4.472   4.044  0.4693  0.1779 -0.7683
  511MOL0     C68912   9.985   4.527   3.929  0.2047 -0.6199 -0.2465
  511MOL0     C68913  10.119   4.584   3.967 -0.6060 -0.4547  0.3961
  511MOL0     C68914  10.118   4.714   4.032 -0.5393  0.1601 -0.3425
  511MOL0     C68915  10.125   4.832   4.073  0.5146 -0.7899 -0.1115
  511MOL0     C68916   9.450   4.379   3.916 -0.0904  0.1532  0.6456
  511MOL0     C68917   9.344   4.292   3.909 -0.0558  0.9261 -0.1259
  511MOL0     H68918   9.282   3.834   4.146  1.8019 -0.1873 -1.5498
  511MOL0     H68919   9.110   3.654   4.238  0.1385 -3.1334 -0.3875
  511MOL0     H68920   9.066   3.419   4.018 -2.5093 -1.8950 -2.1596
  511MOL0     H68921   9.044   3.456   4.189  0.2657 -0.5189  0.1515
  511MOL0     H68922   8.807   3.342   4.168  0.2943  0.5307  0.5884
  511MOL0     H68923   8.841   3.310   3.995  1.3675 -1.3057 -0.1776
  511MOL0     H68924   8.896   3.113   4.084  0.6127  0.7318 -2.2896
  511MOL0     H68925   9.060   3.191   4.091  0.0621  1.2179 -1.3783
  511MOL0     H68926   8.983   3.274   4.332 -2.5243 -0.4449  1.8339
  511MOL0     H68927   8.842   3.194   4.306  0.1427  3.2165 -0.7492
  511MOL0     H68928   8.948   2.966   4.302  3.3981 -3.6854  0.5740
  511MOL0     H68929   9.103   3.037   4.285 -0.6315 -1.7304 -0.9167
  511MOL0     H68930   9.053   3.140   4.522  2.4160 -1.3523 -0.0278
  511MOL0     H68931   8.909   3.043   4.522  0.3879  4.8534  2.3877
  511MOL0     H68932   9.211   2.969   4.518 -0.1015  0.8070 -0.9035
  511MOL0     H68933   9.088   2.944   4.646 -0.1939  0.0706 -0.5614
  511MOL0     H68934   9.119   2.785   4.385  0.6548  1.1651  0.5219
  511MOL0     H68935   8.971   2.781   4.485 -1.1131  3.4796  4.0464
  511MOL0     H68936   8.974   2.589   4.648  1.4795 -0.9999 -0.8384
  511MOL0     H68937   9.024   2.406   4.827 -0.9275  2.8268 -1.8000
  511MOL0     H68938   9.185   2.333   4.791  0.9077  1.7722 -1.9622
  511MOL0     H68939   9.136   2.394   5.039 -1.5130  1.1278  1.1831
  511MOL0     H68940   9.095   2.558   4.990  0.6669  0.7906 -2.1894
  511MOL0     H68941   9.318   2.548   5.114 -1.6423  2.0147  0.8797
  511MOL0     H68942   9.321   2.619   4.955 -0.9777 -0.7354 -0.9232
  511MOL0     H68943   9.518   2.442   4.970  0.2326  0.6447  1.6477
  511MOL0     H68944   9.392   2.401   4.853  1.6293  1.0538 -0.4659
  511MOL0     H68945   9.329   2.071   5.147 -0.4543  2.8727 -0.0079
  511MOL0     H68946   9.312   1.844   5.188 -1.5686 -0.5406 -0.2389
  511MOL0     H68947   9.264   1.759   5.034  2.1291 -4.2883 -0.4905
  511MOL0     H68948   9.427   1.746   5.095 -0.2868 -0.4150 -4.5000
  511MOL0     H68949   9.181   1.593   4.786  0.2297  1.2172 -1.5376
  511MOL0     H68950   9.156   1.358   4.696  0.2797 -1.3037 -1.9199
  511MOL0     H68951   9.152   1.137   4.603 -2.7941 -0.1899 -0.8723
  511MOL0     H68952   9.119   1.253   4.495 -2.1082 -3.5155 -0.9711
  511MOL0     H68953   9.105   1.031   4.381 -0.1330 -1.4082  1.6025
  511MOL0     H68954   9.228   1.117   4.295 -1.2386 -3.4863 -1.0925
  511MOL0     H68955   9.296   0.907   4.308  1.9775  2.3748 -2.0293
  511MOL0     H68956   9.255   0.899   4.484  0.7184 -0.6552 -1.3138
  511MOL0     H68957   9.450   1.081   4.341  1.7968 -1.7485 -1.3729
  511MOL0     H68958   9.442   1.051   4.520  2.9823  0.6944 -0.3030
  511MOL0     H68959   9.486   0.824   4.319 -0.1015  0.0467 -1.3429
  511MOL0     H68960   9.551   0.829   4.490 -2.1679 -0.8064  0.3311
  511MOL0     H68961   9.736   0.837   4.323 -1.1282 -1.1178 -0.4994
  511MOL0     H68962   9.661   0.968   4.244 -3.5017 -0.7374 -0.3005
  511MOL0     H68963   9.751   0.964   4.536 -1.4446 -1.2004 -0.3210
  511MOL0     H68964   9.664   1.104   4.470  1.2215  0.9064 -1.0127
  511MOL0     H68965   9.907   1.165   4.467  2.4825 -1.3856  1.0166
  511MOL0     H68966   9.809   1.180   4.328  0.7154  2.6287  2.6476
  511MOL0     H68967   9.523   1.405   4.490 -1.3557 -0.6106 -0.8889
  511MOL0     H68968   9.533   1.649   4.554  2.6726 -0.8415 -0.3256
  511MOL0     H68969   9.516   2.040   4.688 -1.5480  0.2552 -1.0768
  511MOL0     H68970   9.499   2.245   4.783  1.2353  1.2946  1.8858
  511MOL0     H68971   8.907   3.676   3.868 -1.9372  1.6078  1.6120
  511MOL0     H68972   9.081   3.826   3.773  3.0311  2.1031 -0.3038
  511MOL0     H68973   9.507   4.000   3.900  3.3294 -0.0885  1.5085
  511MOL0     H68974   9.702   4.150   3.867 -1.4468 -1.1206  0.2724
  511MOL0     H68975   9.767   4.308   4.092 -0.3776  1.7829  0.8701
  511MOL0     H68976   9.855   4.277   3.945  4.0348  0.8480  0.4026
  511MOL0     H68977   9.968   4.412   4.110  0.9457 -0.7493 -2.0433
  511MOL0     H68978   9.862   4.554   4.104 -2.9398 -1.3187 -0.9218
  511MOL0     H68979   9.935   4.613   3.882 -1.0454 -1.4400 -0.4773
  511MOL0     H68980   9.982   4.456   3.846  0.2315 -0.6136 -0.2528
  511MOL0     H68981  10.202   4.579   3.895 -0.3083 -1.6455  0.7896
  511MOL0     H68982  10.158   4.521   4.048  2.3557  0.9676  0.2169
  511MOL0     H68983  10.121   4.933   4.106 -1.0289 -1.0538  0.6055
  511MOL0     H68984   9.442   4.487   3.922 -2.1874  0.1338 -0.9018
  511MOL0     H68985   9.243   4.334   3.913 -0.5605 -0.3332  1.8508
  512MOL0     O68986  10.730   2.104   5.037 -0.2970 -0.1353 -0.0732
  512MOL0     C68987  10.702   2.226   5.025  0.6082  0.7413 -0.7744
  512MOL0     O68988  10.763   2.311   4.939 -0.0558 -0.5110 -0.5232
  512MOL0     C68989  10.876   2.280   4.863 -0.3559  1.4229  0.4610
  512MOL0     C68990  10.912   2.147   4.816 -0.0338  0.4035 -0.6017
  512MOL0     C68991  11.035   2.118   4.757 -0.1658 -0.9764  0.4990
  512MOL0     C68992  11.124   2.227   4.733 -0.1308 -0.5107 -0.2501
  512MOL0     O68993  11.236   2.185   4.664 -0.6305 -0.6909 -0.1682
  512MOL0     C68994  11.316   2.288   4.608 -0.1994 -0.3296 -0.4562
  512MOL0     C68995  11.420   2.212   4.514  0.0992 -0.2600 -0.5905
  512MOL0     C68996  11.553   2.289   4.509 -0.2303 -0.3066 -0.6191
  512MOL0     C68997  11.628   2.278   4.371  0.4062  0.8594 -0.1783
  512MOL0     C68998  11.752   2.373   4.376 -0.2231 -0.1639  0.5714
  512MOL0     C68999  11.881   2.311   4.305  0.3063 -0.2396 -0.2449
  512MOL0     C69000  11.953   2.224   4.413  0.2041 -0.6940  0.0889
  512MOL0     C69001  12.097   2.184   4.362 -0.3540  0.7784  0.4936
  512MOL0     N69002  12.162   2.304   4.308  0.0663 -0.3396 -0.2178
  512MOL0     C69003  12.211   2.326   4.182 -0.6176  0.7745  0.4257
  512MOL0     C69004  12.272   2.439   4.184 -0.5554 -0.4009  0.9886
  512MOL0     C69005  12.322   2.509   4.068 -0.2072  0.0034 -0.0962
  512MOL0     C69006  12.433   2.427   3.993  0.1704  0.0933 -0.3482
  512MOL0     C69007  12.578   2.473   4.031  1.1429  1.2032  0.3833
  512MOL0     C69008  12.679   2.428   3.937 -1.9698 -0.1573  0.3717
  512MOL0     O69009  12.680   2.505   3.815  0.4225  1.3177  1.0122
  512MOL0     C69010  12.739   2.441   3.706  0.0990 -0.1918  0.7660
  512MOL0     C69011  12.786   2.304   3.702 -0.5473  0.2262  0.2731
  512MOL0     C69012  12.847   2.249   3.578 -0.0067 -0.1855 -0.3269
  512MOL0     C69013  12.901   2.106   3.582 -0.1928  0.2991  0.4292
  512MOL0     C69014  12.849   2.325   3.456 -0.3183  0.9177 -0.4988
  512MOL0     C69015  12.912   2.274   3.334  0.2983 -0.4814  0.9362
  512MOL0     O69016  13.016   2.186   3.331 -0.2501  0.5167  0.6158
  512MOL0     C69017  13.064   2.120   3.228 -0.8561  0.5745  0.2303
  512MOL0     C69018  13.015   2.105   3.095 -0.3957 -0.5126  0.7128
  512MOL0     C69019  13.086   2.039   2.999  0.7399  0.9491  0.2510
  512MOL0     C69020  13.203   1.966   3.028  0.8777 -0.7166  0.6902
  512MOL0     O69021  13.265   1.882   2.943  0.1862 -0.9169 -0.3898
  512MOL0     C69022  13.246   1.870   2.804  0.9789  0.0534  0.1651
  512MOL0     C69023  13.310   1.733   2.766 -0.1115  0.0844 -0.7923
  512MOL0     C69024  13.222   1.612   2.789 -0.3289  0.8533 -0.3016
  512MOL0     C69025  13.277   1.473   2.745 -1.0620 -0.5081  1.0672
  512MOL0     C69026  13.178   1.361   2.787  0.1144  0.5274 -0.1622
  512MOL0     C69027  13.252   1.222   2.770  0.0936 -0.1964 -0.3800
  512MOL0     C69028  13.176   1.107   2.840 -0.3117  0.6339  0.1313
  512MOL0     C69029  13.242   0.973   2.818  0.0161  0.1415  0.3538
  512MOL0    Cl69030  13.232   0.921   2.651  0.6786 -0.0283  0.1267
  512MOL0     C69031  13.252   1.978   3.160  1.5485 -0.5251  0.9550
  512MOL0     C69032  13.181   2.055   3.261 -1.8456  0.0431  0.6536
  512MOL0     O69033  12.856   2.325   3.231  0.2332 -0.1442  0.9549
  512MOL0     C69034  12.797   2.454   3.462  0.3675 -0.2900 -0.4909
  512MOL0     C69035  12.748   2.508   3.583  0.0383 -0.1650 -0.5954
  512MOL0     N69036  12.276   2.490   4.311  0.0542  0.6715  0.3810
  512MOL0     N69037  12.215   2.403   4.382 -0.0897 -0.4322  0.5561
  512MOL0     C69038  11.086   2.364   4.769  0.9338  0.2099 -0.5449
  512MOL0     C69039  10.964   2.386   4.841 -0.3423 -0.8303 -0.4634
  512MOL0     C69040  10.600   2.287   5.116  0.2301  0.9040 -0.0736
  512MOL0     C69041  10.591   2.426   5.124 -0.2247  0.4367 -0.4183
  512MOL0     C69042  10.501   2.483   5.216  1.1509 -0.0736 -1.0022
  512MOL0     C69043  10.427   2.407   5.309  0.6081 -1.4198 -0.3095
  512MOL0     O69044  10.362   2.484   5.402  0.3323 -0.5867  1.0931
  512MOL0     C69045  10.264   2.428   5.492 -0.1566  0.6204  0.2438
  512MOL0     C69046  10.134   2.377   5.433 -0.5181  0.2509  0.0404
  512MOL0     C69047  10.066   2.474   5.343  0.4151  0.1817  0.2187
  512MOL0     C69048  10.034   2.599   5.407 -0.0530  0.9203 -0.5522
  512MOL0     C69049   9.981   2.702   5.317 -0.1468 -0.7030  0.2597
  512MOL0     C69050   9.949   2.793   5.247 -0.3712  0.0038 -0.1095
  512MOL0     C69051  10.435   2.269   5.299 -0.3941  0.5728 -0.1073
  512MOL0     C69052  10.520   2.205   5.206  0.1600 -0.2479 -0.2431
  512MOL0     H69053  10.837   2.068   4.822  1.5514 -1.6241 -4.2018
  512MOL0     H69054  11.056   2.021   4.713  3.4700 -1.5709  3.0836
  512MOL0     H69055  11.255   2.344   4.537  0.7058 -3.1171 -3.6526
  512MOL0     H69056  11.360   2.354   4.684  1.2442 -0.1903 -1.3710
  512MOL0     H69057  11.435   2.112   4.556  1.8160  1.2545  2.8366
  512MOL0     H69058  11.376   2.198   4.415 -1.7579 -3.0584  0.4988
  512MOL0     H69059  11.537   2.395   4.532  1.9440  0.1590 -1.0445
  512MOL0     H69060  11.610   2.247   4.592 -1.1473 -1.6364 -0.6371
  512MOL0     H69061  11.663   2.176   4.354  3.4487  1.7710  0.0025
  512MOL0     H69062  11.561   2.294   4.286 -0.1978 -0.1489  0.0921
  512MOL0     H69063  11.714   2.464   4.327 -0.8881 -0.0068  1.3724
  512MOL0     H69064  11.780   2.401   4.478 -1.3375  2.5473  0.2323
  512MOL0     H69065  11.867   2.241   4.221 -5.1824 -2.8162  2.3107
  512MOL0     H69066  11.940   2.399   4.280  1.2644 -0.8687 -0.2272
  512MOL0     H69067  11.963   2.272   4.511  0.7213 -0.9119  0.1480
  512MOL0     H69068  11.883   2.141   4.421 -3.2759  1.6190 -3.2448
  512MOL0     H69069  12.090   2.103   4.289 -3.7282 -0.3987  1.9361
  512MOL0     H69070  12.153   2.146   4.448 -4.2058 -2.4098  1.8675
  512MOL0     H69071  12.176   2.273   4.095 -0.3971 -4.8282  3.2960
  512MOL0     H69072  12.240   2.540   4.003  0.7332  0.0978 -1.2831
  512MOL0     H69073  12.367   2.603   4.100 -1.7639  0.8313 -0.2295
  512MOL0     H69074  12.418   2.450   3.887  0.3387  0.3951 -0.3075
  512MOL0     H69075  12.428   2.318   3.995  0.7625  0.0208 -1.4779
  512MOL0     H69076  12.604   2.415   4.120  3.2199 -1.0643 -1.5726
  512MOL0     H69077  12.586   2.580   4.050  0.6896  0.7239  4.1333
  512MOL0     H69078  12.680   2.319   3.934  0.7411 -0.2934  2.3067
  512MOL0     H69079  12.776   2.462   3.977 -1.2354 -0.0967 -1.3698
  512MOL0     H69080  12.784   2.238   3.789  1.0995  0.4336  0.5014
  512MOL0     H69081  12.850   2.049   3.660  1.9929 -1.0335  0.9891
  512MOL0     H69082  12.887   2.062   3.484 -1.3790  4.2733 -1.3994
  512MOL0     H69083  13.007   2.111   3.610  0.5278 -0.9179 -1.8845
  512MOL0     H69084  12.924   2.164   3.085  1.5963  3.1124  1.9509
  512MOL0     H69085  13.050   2.053   2.897  1.2058  0.8561  0.0722
  512MOL0     H69086  13.140   1.863   2.778  1.6090 -2.9621 -2.1740
  512MOL0     H69087  13.284   1.964   2.762  0.5748  0.3456  0.4446
  512MOL0     H69088  13.323   1.727   2.658  0.6307  0.8184 -0.7529
  512MOL0     H69089  13.410   1.713   2.806 -0.3341  3.2101  1.7508
  512MOL0     H69090  13.138   1.620   2.719  0.0539  2.2996 -0.6234
  512MOL0     H69091  13.186   1.606   2.892 -2.3633 -2.3142 -1.0749
  512MOL0     H69092  13.299   1.475   2.638 -0.2516 -1.1644  1.2066
  512MOL0     H69093  13.374   1.445   2.788  0.0516  0.7778 -0.5143
  512MOL0     H69094  13.079   1.363   2.741 -0.7237 -0.0648  1.5502
  512MOL0     H69095  13.175   1.366   2.896 -1.2963 -1.5164 -0.0579
  512MOL0     H69096  13.248   1.197   2.664 -0.6813  1.0224 -0.6583
  512MOL0     H69097  13.353   1.228   2.813  0.4875  0.0349 -1.3024
  512MOL0     H69098  13.074   1.106   2.801  0.4863  1.2711 -2.0747
  512MOL0     H69099  13.177   1.135   2.946  0.4365  7.5695 -1.2346
  512MOL0     H69100  13.190   0.908   2.889  0.7752  0.1840  0.9664
  512MOL0     H69101  13.346   0.986   2.850 -1.2507  0.1252  5.3010
  512MOL0     H69102  13.339   1.922   3.193  2.0256 -0.8608 -0.7703
  512MOL0     H69103  13.206   2.057   3.367  0.8686  0.1974  0.0701
  512MOL0     H69104  12.779   2.513   3.373 -1.4683  1.6889  1.0729
  512MOL0     H69105  12.686   2.597   3.582 -2.1187 -1.5922 -0.5514
  512MOL0     H69106  11.174   2.428   4.766  1.9657 -0.8743  2.6009
  512MOL0     H69107  10.936   2.485   4.876 -1.7109 -1.8736  1.6077
  512MOL0     H69108  10.656   2.486   5.063 -0.7614  1.3624 -0.0969
  512MOL0     H69109  10.495   2.591   5.221  3.3532  0.0447  0.4676
  512MOL0     H69110  10.316   2.345   5.542  0.6963  0.2945 -1.1172
  512MOL0     H69111  10.254   2.492   5.580  0.8599  0.5660  0.4075
  512MOL0     H69112  10.063   2.357   5.513  1.6753 -4.4135  1.1627
  512MOL0     H69113  10.147   2.287   5.373  1.7246  2.2307 -2.7263
  512MOL0     H69114   9.971   2.430   5.309  0.6697 -1.1887  1.1924
  512MOL0     H69115  10.128   2.495   5.256 -0.3477  0.5790 -0.2430
  512MOL0     H69116  10.128   2.642   5.445  0.3508  1.3041 -1.9408
  512MOL0     H69117   9.965   2.585   5.491  1.8725  1.9781  1.3357
  512MOL0     H69118   9.939   2.874   5.177  1.7435 -0.5792 -1.1973
  512MOL0     H69119  10.378   2.202   5.362  4.3133 -3.4774  0.5335
  512MOL0     H69120  10.536   2.098   5.219  4.0649  0.0053 -1.7602
  513MOL0     O69121   3.550   3.852   7.697  0.2540  0.2038 -0.3527
  513MOL0     C69122   3.532   3.774   7.603  0.0637 -0.0392 -0.3014
  513MOL0     O69123   3.592   3.652   7.588 -0.0507  0.1404  0.1216
  513MOL0     C69124   3.689   3.612   7.680 -0.8740 -0.1252  0.3900
  513MOL0     C69125   3.783   3.526   7.624 -0.4338 -0.2007 -0.0073
  513MOL0     C69126   3.884   3.467   7.697 -0.0646  0.3262  0.6163
  513MOL0     C69127   3.900   3.500   7.831 -0.6243  0.0328 -0.0159
  513MOL0     O69128   4.013   3.454   7.889  0.1629 -0.3889 -0.2621
  513MOL0     C69129   4.053   3.505   8.018  0.1039 -0.1987  0.8240
  513MOL0     C69130   4.201   3.469   8.021 -0.3700  0.2077  0.3817
  513MOL0     C69131   4.270   3.561   8.118 -0.8450  0.8307 -0.7811
  513MOL0     C69132   4.422   3.530   8.155 -0.0151 -0.2986  1.3695
  513MOL0     C69133   4.531   3.573   8.053 -0.4374  0.9956 -0.0707
  513MOL0     C69134   4.524   3.728   8.030  0.1024  0.0578  0.0855
  513MOL0     C69135   4.568   3.817   8.153 -0.5703  0.0387  0.6167
  513MOL0     C69136   4.572   3.962   8.109 -0.4979  0.0367  0.4217
  513MOL0     N69137   4.601   4.044   8.225 -0.3168  0.2008 -0.5073
  513MOL0     C69138   4.505   4.130   8.286 -0.4557 -0.2074  0.1905
  513MOL0     C69139   4.579   4.217   8.356  0.3895 -0.2135 -0.6129
  513MOL0     C69140   4.525   4.328   8.451  0.1178  0.0913  1.0071
  513MOL0     C69141   4.495   4.459   8.374  0.4880  0.1505 -0.1415
  513MOL0     C69142   4.448   4.586   8.456  0.0314 -0.1478 -0.0651
  513MOL0     C69143   4.439   4.705   8.357  0.3825  0.1788  0.2936
  513MOL0     O69144   4.388   4.822   8.422 -0.5436 -0.0966  0.4126
  513MOL0     C69145   4.388   4.936   8.350  0.1052 -0.3251  0.0890
  513MOL0     C69146   4.398   5.058   8.410  0.6629 -0.1320 -0.5934
  513MOL0     C69147   4.379   5.178   8.338  0.1910  1.0015  0.0731
  513MOL0     C69148   4.352   5.304   8.414 -0.2144 -0.0942  0.1818
  513MOL0     C69149   4.353   5.175   8.195 -1.1487  0.1789 -0.2858
  513MOL0     C69150   4.310   5.284   8.119 -0.0633 -0.6208 -0.6085
  513MOL0     O69151   4.209   5.263   8.030 -0.5194 -0.1182  0.7560
  513MOL0     C69152   4.206   5.373   7.941  0.5430  1.4922 -0.4721
  513MOL0     C69153   4.103   5.470   7.947  0.0821 -0.5307 -0.2720
  513MOL0     C69154   4.085   5.560   7.838 -0.3180  0.8062 -0.8831
  513MOL0     C69155   4.175   5.568   7.747  0.0029 -0.9525  0.0232
  513MOL0     O69156   4.166   5.661   7.645  0.0954 -0.0003  0.5951
  513MOL0     C69157   4.111   5.789   7.664  0.8094 -0.1607  0.2938
  513MOL0     C69158   4.190   5.868   7.762  0.4048  0.9891  1.3082
  513MOL0     C69159   4.177   6.020   7.740  0.8420 -0.4592  0.1600
  513MOL0     C69160   4.266   6.103   7.832 -0.9670  1.0510  0.6696
  513MOL0     C69161   4.204   6.116   7.972  0.4282  0.2797 -0.2550
  513MOL0     C69162   4.070   6.178   7.974  0.7183 -0.4728 -0.3242
  513MOL0     C69163   3.963   6.075   8.001 -0.3819 -0.5578 -0.2483
  513MOL0     C69164   3.822   6.129   7.970  0.4613 -0.7994  0.0575
  513MOL0    Cl69165   3.708   6.005   8.004  0.2812  0.7457 -0.3609
  513MOL0     C69166   4.268   5.477   7.737  0.6686 -0.2163  0.3771
  513MOL0     C69167   4.291   5.374   7.833  0.6718 -0.9395  0.1905
  513MOL0     O69168   4.369   5.391   8.130 -0.1752 -0.7331 -0.3094
  513MOL0     C69169   4.369   5.057   8.131 -0.0954 -0.9894  1.3702
  513MOL0     C69170   4.367   4.938   8.207 -0.8904  0.9526  0.2828
  513MOL0     N69171   4.710   4.177   8.340 -0.0016 -0.3837 -0.3312
  513MOL0     N69172   4.728   4.083   8.248 -0.7398  0.3004 -0.1102
  513MOL0     C69173   3.800   3.567   7.904  0.8660  0.5690 -0.9986
  513MOL0     C69174   3.702   3.628   7.820 -0.3621 -0.1973  0.3765
  513MOL0     C69175   3.429   3.800   7.508  0.2997 -0.7872  0.3208
  513MOL0     C69176   3.315   3.883   7.548  0.0363  0.2455  0.4858
  513MOL0     C69177   3.209   3.906   7.460 -0.5618  0.0704 -0.7460
  513MOL0     C69178   3.219   3.867   7.324  0.4969  0.3120 -0.2565
  513MOL0     O69179   3.127   3.919   7.239 -0.3628  0.2770  0.1204
  513MOL0     C69180   3.101   3.852   7.118 -0.4872  0.6312  0.2331
  513MOL0     C69181   3.032   3.710   7.134  0.4063  0.5402 -0.2807
  513MOL0     C69182   2.900   3.703   7.215  0.0651 -0.9813 -0.2198
  513MOL0     C69183   2.812   3.821   7.182  0.1842 -1.0110 -0.5427
  513MOL0     C69184   2.764   3.824   7.043  0.4302 -0.4111  0.2259
  513MOL0     C69185   2.734   3.851   6.932 -0.2279 -0.4188  0.0742
  513MOL0     C69186   3.344   3.795   7.284 -0.1272  0.1625 -0.3444
  513MOL0     C69187   3.441   3.754   7.377 -0.0383  0.0389  0.6168
  513MOL0     H69188   3.795   3.517   7.516 -0.9148  4.5073 -0.6911
  513MOL0     H69189   3.958   3.414   7.638  1.8437  1.3520  1.9878
  513MOL0     H69190   4.051   3.614   8.017 -0.1976 -0.1361 -2.3284
  513MOL0     H69191   4.000   3.476   8.109  1.1604 -3.5986  0.5069
  513MOL0     H69192   4.206   3.367   8.061 -2.9655  0.8712  2.7473
  513MOL0     H69193   4.241   3.467   7.920  1.4105 -1.1899  1.0626
  513MOL0     H69194   4.274   3.662   8.075  0.6945  0.7351 -0.9095
  513MOL0     H69195   4.216   3.572   8.212  3.5312  0.0684  2.1365
  513MOL0     H69196   4.449   3.571   8.252  0.3469 -0.6543  1.4231
  513MOL0     H69197   4.442   3.423   8.168  1.6416 -0.4238 -1.3903
  513MOL0     H69198   4.625   3.548   8.101 -1.6353  1.9605  3.0241
  513MOL0     H69199   4.505   3.509   7.968  2.2617  0.5277 -0.6098
  513MOL0     H69200   4.590   3.738   7.944 -0.1504  0.9292 -0.0196
  513MOL0     H69201   4.428   3.764   7.993 -1.1995 -1.9556  1.3381
  513MOL0     H69202   4.501   3.824   8.240  2.8828  1.0347  3.4341
  513MOL0     H69203   4.666   3.782   8.186  1.4058  2.3181 -2.3516
  513MOL0     H69204   4.483   3.992   8.054 -1.2344 -0.5046  1.2945
  513MOL0     H69205   4.657   3.969   8.040 -0.3178  1.8624  0.7823
  513MOL0     H69206   4.397   4.132   8.269 -0.6884  1.7907  1.5142
  513MOL0     H69207   4.439   4.283   8.501 -0.0209  0.4066  1.0610
  513MOL0     H69208   4.607   4.351   8.520  0.0678  0.8034  0.8463
  513MOL0     H69209   4.409   4.446   8.307 -1.1710 -1.4743  2.1540
  513MOL0     H69210   4.580   4.485   8.310 -1.1178  3.9355 -0.9946
  513MOL0     H69211   4.515   4.614   8.538 -1.1474  2.3474  0.1381
  513MOL0     H69212   4.350   4.559   8.496  0.3002 -0.0740  0.6592
  513MOL0     H69213   4.379   4.664   8.276  1.1893 -1.5652  0.5368
  513MOL0     H69214   4.539   4.729   8.321  0.6937 -2.9435 -1.2439
  513MOL0     H69215   4.405   5.063   8.518  1.5075  0.9742 -0.6716
  513MOL0     H69216   4.335   5.277   8.518 -1.5828  2.1939  0.6253
  513MOL0     H69217   4.437   5.371   8.400 -0.1261 -0.4201 -0.9813
  513MOL0     H69218   4.273   5.369   8.374  0.4415  1.1003  0.7586
  513MOL0     H69219   4.031   5.473   8.028  0.1621 -0.8390 -0.1899
  513MOL0     H69220   4.004   5.633   7.839  0.4949  1.7401 -0.5683
  513MOL0     H69221   4.122   5.841   7.568  1.0980  2.3896  1.6175
  513MOL0     H69222   4.003   5.792   7.675  0.6760 -0.7962 -0.7821
  513MOL0     H69223   4.169   5.824   7.860  0.5450 -4.6808 -0.8692
  513MOL0     H69224   4.293   5.834   7.746 -0.2891 -0.4291 -0.4665
  513MOL0     H69225   4.071   6.049   7.746  0.1277 -1.9928 -2.6751
  513MOL0     H69226   4.204   6.041   7.636  1.3097  2.6248  0.8162
  513MOL0     H69227   4.367   6.062   7.844  0.2826  2.6119 -3.1602
  513MOL0     H69228   4.271   6.202   7.788 -0.5708  2.2846  3.3123
  513MOL0     H69229   4.266   6.167   8.046 -0.6876 -2.9546  3.1846
  513MOL0     H69230   4.194   6.020   8.023  1.7260 -0.1939 -0.8432
  513MOL0     H69231   4.059   6.251   8.055  1.6942  2.0095 -2.3070
  513MOL0     H69232   4.051   6.235   7.883 -0.6696  1.2882  0.9844
  513MOL0     H69233   3.969   6.051   8.108  1.5010  2.3938  0.4379
  513MOL0     H69234   3.983   5.994   7.931 -1.0642 -1.4849  0.5856
  513MOL0     H69235   3.818   6.174   7.870 -0.1348  1.0600  0.8800
  513MOL0     H69236   3.789   6.210   8.035 -2.5017  0.7296 -3.0089
  513MOL0     H69237   4.331   5.485   7.648  1.7456  2.9837  1.2778
  513MOL0     H69238   4.376   5.306   7.839  2.1209  0.9111  3.0071
  513MOL0     H69239   4.355   5.038   8.026 -1.8310 -0.6965  1.5250
  513MOL0     H69240   4.368   4.840   8.160  2.7891 -0.2014  2.3148
  513MOL0     H69241   3.792   3.570   8.012 -3.9323  0.1759 -1.1399
  513MOL0     H69242   3.626   3.683   7.875  1.4348 -0.0175  2.9235
  513MOL0     H69243   3.323   3.923   7.648  0.8237 -0.0105  0.5299
  513MOL0     H69244   3.133   3.977   7.493  0.2456  2.7561 -4.1053
  513MOL0     H69245   3.021   3.903   7.062 -1.8917 -0.1502  1.4593
  513MOL0     H69246   3.180   3.841   7.043 -3.0563  1.0097 -2.7943
  513MOL0     H69247   3.104   3.648   7.188 -1.7251 -1.3325  0.5364
  513MOL0     H69248   3.009   3.658   7.040  1.8609 -2.4030  0.8642
  513MOL0     H69249   2.927   3.722   7.319 -0.6025 -0.2029 -0.1758
  513MOL0     H69250   2.859   3.602   7.200  1.7414 -1.3768 -2.9672
  513MOL0     H69251   2.865   3.915   7.197  1.4692 -1.6791 -0.8026
  513MOL0     H69252   2.723   3.818   7.247 -0.1399  2.7448 -0.5711
  513MOL0     H69253   2.699   3.873   6.833 -0.0925 -1.3540 -0.1875
  513MOL0     H69254   3.359   3.763   7.181  2.1586 -3.1738  0.8374
  513MOL0     H69255   3.527   3.697   7.342 -2.2663 -3.6485  0.6980
  514MOL0     O69256   4.565  10.514   6.036  0.6008  0.3195 -0.2439
  514MOL0     C69257   4.562  10.498   6.159  0.4741  0.4009 -0.5535
  514MOL0     O69258   4.672  10.439   6.236 -0.6183  0.1398  0.3876
  514MOL0     C69259   4.763  10.373   6.159 -0.1855  0.3948  0.0097
  514MOL0     C69260   4.735  10.242   6.098 -0.2495  0.8744  0.1169
  514MOL0     C69261   4.816  10.191   6.002  0.3007  0.5350  0.9607
  514MOL0     C69262   4.917  10.257   5.946 -0.6955 -0.4609 -0.0774
  514MOL0     O69263   4.993  10.211   5.847 -0.3331  0.0367  0.4592
  514MOL0     C69264   5.049  10.078   5.847  0.5584 -0.2353 -0.4901
  514MOL0     C69265   4.975   9.990   5.745 -0.0746  0.6430 -0.2797
  514MOL0     C69266   5.019   9.845   5.750 -0.0046  0.5447 -0.2183
  514MOL0     C69267   5.155   9.816   5.693 -1.0430 -0.4174 -0.0947
  514MOL0     C69268   5.172   9.871   5.547  0.2253  0.3694  0.3965
  514MOL0     C69269   5.306   9.819   5.485  0.1027 -0.2903  0.6962
  514MOL0     C69270   5.285   9.689   5.409  0.2443 -0.1996  0.1685
  514MOL0     C69271   5.416   9.638   5.346 -0.6410 -0.1308 -0.5165
  514MOL0     N69272   5.530   9.676   5.420 -0.0608 -0.6385  0.5271
  514MOL0     C69273   5.578   9.619   5.535  0.2477  0.5109  0.1465
  514MOL0     C69274   5.688   9.700   5.576  0.4489 -0.0921  1.0975
  514MOL0     C69275   5.776   9.678   5.698  0.8575 -0.2748 -0.7049
  514MOL0     C69276   5.918   9.696   5.677 -0.0069  0.7909  0.1721
  514MOL0     C69277   5.970   9.825   5.749  0.1118 -0.0898 -0.0055
  514MOL0     C69278   5.905   9.953   5.717 -0.3971 -0.5488 -1.0950
  514MOL0     O69279   5.859  10.017   5.839 -0.3102  0.0806  0.0738
  514MOL0     C69280   5.940  10.103   5.903  0.0753  0.5068 -0.8974
  514MOL0     C69281   6.075  10.134   5.871  0.5600  0.5240 -0.6885
  514MOL0     C69282   6.143  10.228   5.940  0.4742 -0.8882 -0.4848
  514MOL0     C69283   6.291  10.239   5.901 -0.1438  0.7781  0.1110
  514MOL0     C69284   6.083  10.289   6.051 -0.1581 -0.2160  0.8509
  514MOL0     C69285   6.139  10.397   6.134  0.5363  0.7667 -0.4566
  514MOL0     O69286   6.141  10.381   6.277 -0.1550  0.1177  0.6080
  514MOL0     C69287   6.218  10.468   6.353  0.0458 -0.7292  0.2371
  514MOL0     C69288   6.307  10.418   6.450  0.0802 -0.0896  0.1494
  514MOL0     C69289   6.370  10.495   6.546 -0.0683 -0.1340 -0.3219
  514MOL0     C69290   6.343  10.634   6.548 -0.6571 -0.4192  0.3832
  514MOL0     O69291   6.405  10.729   6.629  0.8122  0.0998  0.1801
  514MOL0     C69292   6.527  10.689   6.705  0.4956 -0.3182 -0.6334
  514MOL0     C69293   6.581  10.798   6.805 -0.6157  0.0691  0.0539
  514MOL0     C69294   6.605  10.928   6.727  0.3886  0.4647  0.0450
  514MOL0     C69295   6.629  11.046   6.816  0.8194 -0.2515 -0.6775
  514MOL0     C69296   6.657  11.177   6.747  0.7262 -0.4370 -0.0990
  514MOL0     C69297   6.813  11.179   6.708  0.2564 -0.0611  1.0266
  514MOL0     C69298   6.854  11.280   6.592  0.4654  0.5033 -0.5255
  514MOL0     C69299   7.002  11.328   6.614  0.3518 -0.4797 -0.4690
  514MOL0    Cl69300   7.096  11.181   6.610  0.0693  0.0898  0.0993
  514MOL0     C69301   6.271  10.686   6.437 -0.1506 -1.0507 -0.1733
  514MOL0     C69302   6.209  10.598   6.348  0.0908  0.4573 -0.5145
  514MOL0     O69303   6.169  10.495   6.068 -0.4793 -0.6004  0.3093
  514MOL0     C69304   5.951  10.254   6.086 -0.1567 -0.1573 -0.4013
  514MOL0     C69305   5.881  10.151   6.014  0.0991 -0.4487 -0.0066
  514MOL0     N69306   5.696   9.806   5.482 -0.3281  1.2204 -0.4386
  514MOL0     N69307   5.614   9.785   5.392  0.6358 -0.4531  0.7332
  514MOL0     C69308   4.945  10.382   5.992  0.5012  0.3334  0.2752
  514MOL0     C69309   4.880  10.437   6.114 -0.4197 -0.1978 -1.0436
  514MOL0     C69310   4.428  10.520   6.217 -0.8583 -0.6104  0.3742
  514MOL0     C69311   4.393  10.457   6.341  0.1388 -0.0858  0.8994
  514MOL0     C69312   4.260  10.468   6.396 -0.8016  0.1477 -0.0505
  514MOL0     C69313   4.160  10.534   6.335  0.4016  0.2971 -0.4447
  514MOL0     O69314   4.033  10.522   6.392 -0.3248  0.5055 -0.4562
  514MOL0     C69315   3.924  10.537   6.289  0.4658  0.1732 -0.3259
  514MOL0     C69316   3.795  10.457   6.341 -0.2887  0.3177 -0.5679
  514MOL0     C69317   3.745  10.511   6.479  0.2846 -0.1494  0.7833
  514MOL0     C69318   3.617  10.432   6.532 -0.0917 -0.0913  0.1694
  514MOL0     C69319   3.495  10.490   6.468  0.0040  0.1666  0.1593
  514MOL0     C69320   3.381  10.516   6.428  0.2727  0.0761 -0.1520
  514MOL0     C69321   4.192  10.609   6.218 -0.2749 -1.0755  0.1290
  514MOL0     C69322   4.316  10.598   6.160 -0.4574 -0.7398 -0.4057
  514MOL0     H69323   4.651  10.186   6.136 -0.0684 -1.2829 -2.3667
  514MOL0     H69324   4.803  10.089   5.968  3.7633 -0.3775  1.8950
  514MOL0     H69325   5.154  10.091   5.819  0.9154  0.8648  1.2492
  514MOL0     H69326   5.034  10.041   5.948 -0.6901 -0.6666 -0.8134
  514MOL0     H69327   4.872  10.000   5.780 -0.6989 -3.3776 -0.4889
  514MOL0     H69328   4.982  10.024   5.641  2.9505  0.5586 -0.1870
  514MOL0     H69329   5.007   9.800   5.849 -0.5481 -2.7901 -1.6448
  514MOL0     H69330   4.943   9.783   5.701 -1.1362  1.7875 -0.0591
  514MOL0     H69331   5.247   9.846   5.746 -0.6463 -1.3251 -0.2489
  514MOL0     H69332   5.153   9.707   5.688 -2.6519 -0.3524 -3.3916
  514MOL0     H69333   5.089   9.831   5.488 -1.2571 -0.5134  2.8863
  514MOL0     H69334   5.164   9.980   5.541 -1.1118  0.4146  2.0021
  514MOL0     H69335   5.347   9.902   5.428  0.4570 -0.8386  0.1434
  514MOL0     H69336   5.377   9.805   5.567  0.1658  1.1782  0.9099
  514MOL0     H69337   5.244   9.610   5.473 -3.1967  0.6002 -0.8071
  514MOL0     H69338   5.206   9.705   5.335 -1.5601 -2.0573  1.5764
  514MOL0     H69339   5.429   9.686   5.249  0.8830  0.8053  0.1105
  514MOL0     H69340   5.412   9.530   5.331  3.2454 -0.4622 -0.2052
  514MOL0     H69341   5.537   9.532   5.584 -0.3539 -1.1059 -2.9712
  514MOL0     H69342   5.731   9.738   5.777  0.5213 -2.1618  0.5964
  514MOL0     H69343   5.757   9.575   5.728  1.2448  0.0070  0.5575
  514MOL0     H69344   5.936   9.714   5.570 -0.2085  0.6459  0.1138
  514MOL0     H69345   5.987   9.623   5.719  0.6298  0.8376 -0.7480
  514MOL0     H69346   6.077   9.833   5.730  0.1810 -1.9717 -0.5778
  514MOL0     H69347   5.957   9.801   5.855 -0.3283 -1.9634 -0.4472
  514MOL0     H69348   5.810   9.947   5.663 -1.4875  1.2175  0.5155
  514MOL0     H69349   5.980  10.008   5.660  1.0775 -1.3102  0.0369
  514MOL0     H69350   6.133  10.088   5.791  1.6047 -0.0867  0.3788
  514MOL0     H69351   6.351  10.147   5.905 -0.3973  0.4243 -2.4233
  514MOL0     H69352   6.301  10.282   5.801 -1.6370 -2.1967 -1.4481
  514MOL0     H69353   6.336  10.305   5.976 -0.6484  0.2914  0.8604
  514MOL0     H69354   6.319  10.310   6.457  1.3023  0.1246  2.1254
  514MOL0     H69355   6.430  10.465   6.632  0.5586  2.7933  0.3706
  514MOL0     H69356   6.496  10.595   6.752  0.1743  0.0087 -0.1942
  514MOL0     H69357   6.595  10.674   6.620 -0.9286  4.0145 -2.8209
  514MOL0     H69358   6.521  10.817   6.895 -0.0965 -2.5716  1.0552
  514MOL0     H69359   6.673  10.752   6.844 -2.2458 -1.2573  2.5906
  514MOL0     H69360   6.515  10.941   6.666  0.4628 -0.0960 -0.1960
  514MOL0     H69361   6.689  10.910   6.659  0.9064  1.6154  0.3632
  514MOL0     H69362   6.537  11.057   6.874 -1.0051 -0.6794 -3.3047
  514MOL0     H69363   6.716  11.008   6.871 -0.2363 -2.7220 -0.5950
  514MOL0     H69364   6.639  11.264   6.811  0.8083 -1.5426  1.4837
  514MOL0     H69365   6.601  11.185   6.653 -1.3771  2.9396  1.2440
  514MOL0     H69366   6.869  11.202   6.799 -2.3193  0.8652  2.4578
  514MOL0     H69367   6.844  11.079   6.678 -0.1496 -0.0247  0.4764
  514MOL0     H69368   6.786  11.366   6.585 -0.2499  0.2039  1.9290
  514MOL0     H69369   6.845  11.236   6.492  1.7299  0.6042 -0.6925
  514MOL0     H69370   7.018  11.385   6.706 -2.0149 -1.0070  0.3369
  514MOL0     H69371   7.020  11.395   6.529 -0.2350 -0.5522 -0.6548
  514MOL0     H69372   6.245  10.791   6.445  1.5769 -0.7076  1.4852
  514MOL0     H69373   6.131  10.625   6.277 -2.0256 -1.3224  0.9960
  514MOL0     H69374   5.890  10.308   6.158 -1.7730 -1.5188 -0.7045
  514MOL0     H69375   5.779  10.129   6.044  1.2218 -3.7289  1.9715
  514MOL0     H69376   5.027  10.432   5.941  3.4731 -0.2681  3.9687
  514MOL0     H69377   4.906  10.535   6.154 -1.7779 -0.0450 -0.5045
  514MOL0     H69378   4.464  10.392   6.392  2.2163  2.1835  1.0955
  514MOL0     H69379   4.247  10.412   6.488  1.3425  0.6204  0.5910
  514MOL0     H69380   3.916  10.644   6.269 -0.7863 -0.1885 -1.9664
  514MOL0     H69381   3.948  10.503   6.188  1.5952  1.1737 -0.4205
  514MOL0     H69382   3.821  10.351   6.353  0.1017  0.4375 -0.3107
  514MOL0     H69383   3.712  10.467   6.272 -0.0612  0.9966 -0.7517
  514MOL0     H69384   3.720  10.617   6.473  1.5850  0.2117  1.2694
  514MOL0     H69385   3.829  10.502   6.549 -0.2485  2.5329  1.9097
  514MOL0     H69386   3.599  10.436   6.640 -5.5322  2.4367 -0.5088
  514MOL0     H69387   3.623  10.328   6.499 -4.4866 -0.0259 -1.5583
  514MOL0     H69388   3.295  10.531   6.366  2.3525  1.5308 -2.8917
  514MOL0     H69389   4.116  10.673   6.174  1.0672  0.2638 -0.2994
  514MOL0     H69390   4.331  10.653   6.068 -0.5697  0.3025  0.1736
  515MOL0     O69391   6.781   4.249   7.201 -0.2461 -0.8087 -0.2769
  515MOL0     C69392   6.809   4.317   7.103  0.0189 -0.6471 -0.5610
  515MOL0     O69393   6.781   4.447   7.085 -1.4109  0.6749 -0.4953
  515MOL0     C69394   6.672   4.500   7.136  0.8560 -0.3365  1.0172
  515MOL0     C69395   6.548   4.436   7.115 -0.0744 -0.2134 -0.3365
  515MOL0     C69396   6.426   4.494   7.153  0.0125  0.1500 -0.6340
  515MOL0     C69397   6.433   4.623   7.227  0.4558  0.1125 -0.5939
  515MOL0     O69398   6.325   4.695   7.276 -0.5154 -0.5516 -0.6742
  515MOL0     C69399   6.196   4.689   7.210 -1.0968  0.2423  0.4470
  515MOL0     C69400   6.202   4.772   7.077 -0.5542  0.1679 -0.1729
  515MOL0     C69401   6.269   4.915   7.115 -0.1446 -0.4242  1.5873
  515MOL0     C69402   6.309   4.983   6.989 -0.6645  0.8940  0.6291
  515MOL0     C69403   6.369   5.131   7.003 -0.9160  0.3117  1.3736
  515MOL0     C69404   6.322   5.241   7.104  0.6435  0.6925 -0.2726
  515MOL0     C69405   6.222   5.347   7.059  0.0224 -0.2295  0.8452
  515MOL0     C69406   6.199   5.465   7.159 -0.3758  0.0114  0.2923
  515MOL0     N69407   6.053   5.501   7.173 -0.6082 -0.8557 -0.7354
  515MOL0     C69408   5.986   5.550   7.069  0.0132  0.1160 -0.4158
  515MOL0     C69409   5.853   5.572   7.108  0.0234  0.5869  0.3718
  515MOL0     C69410   5.734   5.626   7.032 -1.2944 -0.8488  0.1224
  515MOL0     C69411   5.763   5.750   6.939  1.0479 -0.0184  0.3036
  515MOL0     C69412   5.640   5.810   6.873 -0.2621 -0.1977  0.4349
  515MOL0     C69413   5.679   5.902   6.754  0.3410  0.1132  0.0946
  515MOL0     O69414   5.791   5.978   6.774  0.0874  0.2492 -0.3438
  515MOL0     C69415   5.830   6.067   6.675  0.0444 -0.7830  0.6534
  515MOL0     C69416   5.828   6.036   6.540  0.1750 -0.9671 -0.9004
  515MOL0     C69417   5.854   6.125   6.442 -0.3637  0.0048 -0.3874
  515MOL0     C69418   5.862   6.061   6.303 -0.5026 -0.9736 -0.4968
  515MOL0     C69419   5.884   6.260   6.478  0.6014  0.1914  0.3187
  515MOL0     C69420   5.931   6.349   6.367  0.0273 -0.8671  0.2018
  515MOL0     O69421   6.060   6.394   6.374  0.0263 -0.4236  0.0002
  515MOL0     C69422   6.103   6.460   6.261 -0.2901 -0.4131 -0.2950
  515MOL0     C69423   6.111   6.392   6.144  0.1270 -0.5474 -0.2159
  515MOL0     C69424   6.164   6.453   6.032 -0.0255 -0.8150 -0.0917
  515MOL0     C69425   6.194   6.591   6.036 -0.8021  0.5936 -0.0574
  515MOL0     O69426   6.231   6.648   5.917 -0.0211  0.2472  0.4865
  515MOL0     C69427   6.252   6.781   5.910  0.0019 -0.0915  0.0230
  515MOL0     C69428   6.305   6.792   5.771 -0.2533  0.0191 -0.4985
  515MOL0     C69429   6.211   6.778   5.653  0.4009  0.8769  0.7198
  515MOL0     C69430   6.280   6.824   5.526 -0.4872  0.0674 -0.6910
  515MOL0     C69431   6.413   6.760   5.479 -0.4834  0.4273  0.3620
  515MOL0     C69432   6.368   6.631   5.413  0.2469  0.5991 -0.1411
  515MOL0     C69433   6.495   6.553   5.372  0.3083  0.2690 -0.7896
  515MOL0     C69434   6.474   6.425   5.294  0.5305  0.2430 -0.8095
  515MOL0    Cl69435   6.626   6.360   5.219  0.0636  0.5215  0.1448
  515MOL0     C69436   6.182   6.656   6.152 -0.1740  0.1856 -0.7314
  515MOL0     C69437   6.147   6.592   6.271  0.4602  0.2317 -0.4702
  515MOL0     O69438   5.850   6.370   6.274 -0.2146 -0.4822 -0.1329
  515MOL0     C69439   5.874   6.307   6.613 -1.1557  0.2483  0.5602
  515MOL0     C69440   5.844   6.208   6.713  1.1796 -0.2764  0.2313
  515MOL0     N69441   5.846   5.527   7.238  1.1099  0.8808  0.0535
  515MOL0     N69442   5.968   5.490   7.275  0.2021  0.9423  0.3379
  515MOL0     C69443   6.558   4.681   7.235 -0.0971  0.0542 -0.0268
  515MOL0     C69444   6.678   4.626   7.193  1.0200  0.0690  0.1877
  515MOL0     C69445   6.911   4.257   7.016  0.1494  0.3009 -0.3849
  515MOL0     C69446   6.948   4.319   6.900 -0.4648  0.6515 -0.3590
  515MOL0     C69447   7.016   4.231   6.808  0.5258  0.7477 -0.9547
  515MOL0     C69448   7.076   4.110   6.838 -0.5528 -1.2794 -0.6013
  515MOL0     O69449   7.148   4.059   6.731 -0.3312  0.8441  0.5357
  515MOL0     C69450   7.207   3.932   6.738 -1.0347 -0.1841 -0.1408
  515MOL0     C69451   7.341   3.933   6.827  0.5433  0.7449  0.3636
  515MOL0     C69452   7.429   3.813   6.821 -1.0288 -0.1497 -0.0069
  515MOL0     C69453   7.366   3.689   6.881  0.4628  0.6802 -0.3056
  515MOL0     C69454   7.299   3.605   6.782 -0.5089 -0.1084  1.3566
  515MOL0     C69455   7.245   3.544   6.690  0.2429 -0.3119  0.2398
  515MOL0     C69456   7.062   4.057   6.968  0.4461 -0.0678  0.5610
  515MOL0     C69457   6.982   4.137   7.054 -0.5785  1.2880 -0.5441
  515MOL0     H69458   6.558   4.340   7.067  4.2657 -0.0690 -0.1084
  515MOL0     H69459   6.335   4.442   7.123  0.2775  0.9287 -3.0915
  515MOL0     H69460   6.172   4.585   7.186 -0.5255 -0.0068  0.9330
  515MOL0     H69461   6.121   4.726   7.280  2.6992  0.4214  4.8704
  515MOL0     H69462   6.275   4.726   7.009  1.5818 -2.2272  3.4152
  515MOL0     H69463   6.099   4.782   7.044 -0.9064 -0.4602  0.6950
  515MOL0     H69464   6.195   4.965   7.177 -1.5591  1.4152 -1.3737
  515MOL0     H69465   6.366   4.895   7.161  2.0304 -0.9682 -2.7360
  515MOL0     H69466   6.378   4.919   6.935 -0.3781 -2.1422  4.1752
  515MOL0     H69467   6.223   4.989   6.922  0.9582 -1.6143 -1.8564
  515MOL0     H69468   6.476   5.111   7.007 -1.1262 -1.3541  0.0067
  515MOL0     H69469   6.355   5.169   6.901 -2.7399  1.8975  2.1421
  515MOL0     H69470   6.280   5.180   7.184  1.0757  1.6154  0.6810
  515MOL0     H69471   6.407   5.294   7.148  0.2081 -0.2563  1.8465
  515MOL0     H69472   6.268   5.391   6.969  2.8753 -4.0073  0.2131
  515MOL0     H69473   6.135   5.289   7.030  1.3529 -2.7262  1.5936
  515MOL0     H69474   6.257   5.553   7.131 -0.4891 -0.1596 -0.5000
  515MOL0     H69475   6.233   5.432   7.257  2.3680  2.9541  0.5035
  515MOL0     H69476   6.035   5.586   6.978 -0.1224 -0.7210 -0.8283
  515MOL0     H69477   5.701   5.543   6.968 -1.0167 -0.9638  0.1261
  515MOL0     H69478   5.648   5.644   7.097 -1.0066  3.2844 -0.4098
  515MOL0     H69479   5.838   5.724   6.864  2.7754 -1.2365  2.3326
  515MOL0     H69480   5.814   5.829   6.995 -1.5099  1.2409  1.0129
  515MOL0     H69481   5.595   5.880   6.944  2.0652  2.1318 -0.2399
  515MOL0     H69482   5.571   5.732   6.840 -3.2224  1.6739  1.7970
  515MOL0     H69483   5.589   5.962   6.733  1.1364  1.3575  0.1218
  515MOL0     H69484   5.699   5.849   6.661 -0.4576  2.0248 -1.2416
  515MOL0     H69485   5.818   5.932   6.513 -1.9532 -1.0786  0.1075
  515MOL0     H69486   5.785   6.121   6.253 -0.4386 -0.2641  0.2326
  515MOL0     H69487   5.957   6.083   6.253 -1.3999 -0.5915 -2.1019
  515MOL0     H69488   5.837   5.955   6.296  2.7073 -1.9280  0.5278
  515MOL0     H69489   6.076   6.289   6.139  3.0325 -1.6626  0.3305
  515MOL0     H69490   6.168   6.402   5.936  1.6463 -0.1808 -0.3902
  515MOL0     H69491   6.155   6.830   5.915 -0.3216 -0.5215 -1.6074
  515MOL0     H69492   6.316   6.826   5.987  1.3441  0.5151 -1.3904
  515MOL0     H69493   6.338   6.895   5.765  0.5303 -0.0181  1.9490
  515MOL0     H69494   6.401   6.740   5.772  0.3986  1.0968  2.0246
  515MOL0     H69495   6.117   6.833   5.657 -0.0240  0.1672  0.6059
  515MOL0     H69496   6.189   6.671   5.644 -0.0440  1.0486 -0.3140
  515MOL0     H69497   6.212   6.803   5.443 -0.5644 -3.8538  0.2013
  515MOL0     H69498   6.306   6.930   5.541 -2.6077  0.6636 -0.8597
  515MOL0     H69499   6.467   6.730   5.569 -0.9613 -1.7492 -0.0222
  515MOL0     H69500   6.466   6.836   5.421 -1.6127  1.7294  0.9713
  515MOL0     H69501   6.303   6.562   5.469 -0.3834  0.1428 -1.3965
  515MOL0     H69502   6.319   6.650   5.317 -0.1329 -2.2904 -0.6200
  515MOL0     H69503   6.543   6.534   5.468  0.2724  1.2865 -0.5576
  515MOL0     H69504   6.557   6.622   5.316 -0.3342  0.8414 -0.8077
  515MOL0     H69505   6.400   6.440   5.215  1.5970  2.7289 -1.4311
  515MOL0     H69506   6.427   6.351   5.359  1.0205  1.5659  1.1366
  515MOL0     H69507   6.198   6.762   6.162  0.7730  0.1870 -1.9877
  515MOL0     H69508   6.135   6.640   6.368 -1.4063  0.8213 -0.9565
  515MOL0     H69509   5.889   6.412   6.636  0.6901  1.0941 -3.5061
  515MOL0     H69510   5.837   6.236   6.818  0.7634 -2.4539  0.8441
  515MOL0     H69511   6.558   4.783   7.272  0.3121  0.6255 -1.5533
  515MOL0     H69512   6.772   4.679   7.192 -0.0632  2.1609 -2.1553
  515MOL0     H69513   6.911   4.416   6.870  0.9422  1.3364  0.0195
  515MOL0     H69514   7.036   4.273   6.710 -2.0440  3.2451 -0.5553
  515MOL0     H69515   7.146   3.853   6.782  0.6951 -1.6494 -0.2397
  515MOL0     H69516   7.252   3.902   6.642  3.6068  1.7204  1.1571
  515MOL0     H69517   7.324   3.929   6.935  1.6969  0.3851  0.5396
  515MOL0     H69518   7.401   4.023   6.810  1.0821  0.2158 -0.6117
  515MOL0     H69519   7.509   3.845   6.888 -1.3122  1.4466 -0.3836
  515MOL0     H69520   7.467   3.793   6.720  4.2780 -0.6240  1.7602
  515MOL0     H69521   7.291   3.717   6.955  1.2575  1.4318  0.2350
  515MOL0     H69522   7.434   3.635   6.947  1.1187  2.3628  0.4473
  515MOL0     H69523   7.203   3.501   6.601 -1.3290 -1.4403  1.4715
  515MOL0     H69524   7.098   3.958   6.995  0.7118 -0.2303 -0.3676
  515MOL0     H69525   6.961   4.090   7.150 -0.9401  0.5740 -0.9611
  516MOL0     O69526   4.779   4.415   6.182 -0.1563 -0.1925  0.0659
  516MOL0     C69527   4.719   4.468   6.274  0.5315 -1.1559 -0.9209
  516MOL0     O69528   4.741   4.450   6.409  0.3734 -0.5535 -0.4030
  516MOL0     C69529   4.857   4.380   6.427  0.1364  0.8817  0.0282
  516MOL0     C69530   4.980   4.443   6.461 -0.5741 -0.3734  0.0392
  516MOL0     C69531   5.101   4.361   6.487  0.6632  0.8325 -0.6301
  516MOL0     C69532   5.100   4.226   6.470  0.7868  0.0412 -0.2242
  516MOL0     O69533   5.214   4.144   6.487  0.8157  0.9264  0.3438
  516MOL0     C69534   5.336   4.211   6.458  0.1300 -0.0068  1.0694
  516MOL0     C69535   5.429   4.092   6.445  1.0090  0.2545  0.4934
  516MOL0     C69536   5.571   4.141   6.435 -0.7690  0.0140 -0.1735
  516MOL0     C69537   5.671   4.019   6.442  0.1485  0.5639 -0.0006
  516MOL0     C69538   5.819   4.068   6.435 -0.1479 -0.6634  0.3992
  516MOL0     C69539   5.854   4.164   6.554  0.0970 -0.1417 -0.0932
  516MOL0     C69540   6.004   4.211   6.561 -0.6097 -0.2747  0.5309
  516MOL0     C69541   6.017   4.320   6.667  0.2297  0.9019 -0.2020
  516MOL0     N69542   6.041   4.460   6.616 -0.0461  0.0225 -0.0472
  516MOL0     C69543   6.120   4.548   6.688  0.1625  0.3338 -0.2752
  516MOL0     C69544   6.110   4.665   6.627  0.3378  0.4685 -1.1006
  516MOL0     C69545   6.180   4.788   6.688  0.3640 -0.5122  0.0697
  516MOL0     C69546   6.280   4.853   6.591 -0.4105 -0.1452  0.3689
  516MOL0     C69547   6.205   4.915   6.482 -0.1518 -0.0205  0.0026
  516MOL0     C69548   6.295   5.003   6.396  0.1642  0.1575 -0.2318
  516MOL0     O69549   6.322   5.132   6.446 -0.0977  0.3567  0.0287
  516MOL0     C69550   6.225   5.221   6.487  0.9250  0.2049  0.1172
  516MOL0     C69551   6.118   5.254   6.400 -1.1207  0.1582 -0.9110
  516MOL0     C69552   6.016   5.342   6.433  0.4059 -0.8416  0.6684
  516MOL0     C69553   5.903   5.340   6.323  0.1890  0.0911  0.7749
  516MOL0     C69554   6.013   5.406   6.558  0.9385  0.0520  0.3678
  516MOL0     C69555   5.897   5.477   6.607  0.1446 -0.5492  0.3833
  516MOL0     O69556   5.809   5.525   6.512  0.2687 -0.1412  0.7575
  516MOL0     C69557   5.671   5.556   6.533  0.5922 -0.3237 -0.8125
  516MOL0     C69558   5.587   5.494   6.625 -0.6261  0.1413  0.0691
  516MOL0     C69559   5.453   5.515   6.649  0.2622 -0.2355 -0.7973
  516MOL0     C69560   5.391   5.617   6.577  0.5240  0.1589 -0.2336
  516MOL0     O69561   5.265   5.644   6.622  0.2355  1.3914 -0.7988
  516MOL0     C69562   5.155   5.668   6.533 -0.3857 -0.5616 -0.8877
  516MOL0     C69563   5.031   5.574   6.574  0.4531  0.4781  0.1528
  516MOL0     C69564   5.049   5.414   6.570  0.4748 -0.1645 -0.3205
  516MOL0     C69565   4.925   5.363   6.642  0.2052  0.6375  0.4344
  516MOL0     C69566   4.936   5.336   6.789  0.6303 -0.5309  0.8785
  516MOL0     C69567   4.799   5.317   6.863 -0.3385 -0.1185 -0.1298
  516MOL0     C69568   4.727   5.189   6.818  0.1598 -0.2521  0.2280
  516MOL0     C69569   4.628   5.216   6.696  1.3458 -0.1085 -0.5572
  516MOL0    Cl69570   4.566   5.069   6.616  0.4719  0.1772  0.3125
  516MOL0     C69571   5.460   5.682   6.474 -0.0073 -0.2018  0.3986
  516MOL0     C69572   5.597   5.652   6.453 -0.5208  0.2455 -0.1489
  516MOL0     O69573   5.878   5.490   6.725  0.8796  0.0133 -0.5343
  516MOL0     C69574   6.124   5.381   6.644  0.4973  0.3948  0.3080
  516MOL0     C69575   6.219   5.284   6.615  0.7491  0.3619 -0.0323
  516MOL0     N69576   6.017   4.649   6.524 -0.5309  0.3273  0.3172
  516MOL0     N69577   5.969   4.527   6.527  0.7998  0.1369  0.4200
  516MOL0     C69578   4.976   4.169   6.448  0.6970  0.3954 -0.5829
  516MOL0     C69579   4.856   4.240   6.421  1.0083 -0.7803 -0.4731
  516MOL0     C69580   4.602   4.563   6.236  0.4121  0.6055  0.1280
  516MOL0     C69581   4.534   4.638   6.330 -0.5073 -0.5331 -0.6331
  516MOL0     C69582   4.424   4.722   6.298 -0.2308  0.9302  0.2160
  516MOL0     C69583   4.387   4.747   6.168  0.2324 -0.8031  0.4219
  516MOL0     O69584   4.267   4.819   6.147  0.1006  0.0692  0.3301
  516MOL0     C69585   4.204   4.816   6.022  0.4811 -0.3854 -1.0690
  516MOL0     C69586   4.081   4.908   6.040  0.2020 -0.2532  1.0845
  516MOL0     C69587   3.964   4.864   5.956  0.1250  0.0035 -0.8557
  516MOL0     C69588   3.831   4.948   5.981 -0.3119  0.4101 -0.0031
  516MOL0     C69589   3.856   5.077   5.918  0.5985 -1.0825  1.3229
  516MOL0     C69590   3.886   5.185   5.871 -0.4499  1.2019 -0.1096
  516MOL0     C69591   4.470   4.679   6.069 -0.6724  0.2965 -0.1880
  516MOL0     C69592   4.569   4.585   6.102  0.9541  0.1516 -0.8457
  516MOL0     H69593   4.978   4.551   6.470  0.2594 -0.5115  2.8994
  516MOL0     H69594   5.182   4.419   6.530 -0.1935 -0.0673  2.4847
  516MOL0     H69595   5.346   4.282   6.375  0.6404  1.2341  2.1534
  516MOL0     H69596   5.359   4.277   6.542  2.4490  3.5620 -2.0209
  516MOL0     H69597   5.422   4.020   6.527  1.2595 -3.3747 -2.4043
  516MOL0     H69598   5.401   4.038   6.354  1.7527 -0.8926  0.9172
  516MOL0     H69599   5.591   4.184   6.336 -1.6613  0.7421 -0.0473
  516MOL0     H69600   5.593   4.215   6.513  1.3518 -1.8244  1.0975
  516MOL0     H69601   5.650   3.975   6.540 -3.7056 -1.7677 -1.5941
  516MOL0     H69602   5.665   3.945   6.361  1.5486 -0.0383  0.4152
  516MOL0     H69603   5.891   3.989   6.414 -1.0350 -1.2669 -0.4529
  516MOL0     H69604   5.820   4.135   6.348 -1.4530 -0.6929  0.3326
  516MOL0     H69605   5.799   4.259   6.559 -0.2611 -0.3866  0.9136
  516MOL0     H69606   5.835   4.106   6.645  0.6806  1.8216  1.3507
  516MOL0     H69607   6.072   4.129   6.584  1.1199  0.8043 -0.4274
  516MOL0     H69608   6.033   4.242   6.460 -4.1709  1.8358 -0.0121
  516MOL0     H69609   6.112   4.300   6.718  0.4870  0.8172 -0.7080
  516MOL0     H69610   5.935   4.323   6.740  0.1986  2.3133 -0.2835
  516MOL0     H69611   6.159   4.528   6.787 -0.6634 -0.4910 -0.0980
  516MOL0     H69612   6.118   4.868   6.727  0.4203 -2.3884  4.5473
  516MOL0     H69613   6.240   4.756   6.774  4.4737  1.8201 -1.6167
  516MOL0     H69614   6.348   4.776   6.554  1.0752  1.3860 -0.2487
  516MOL0     H69615   6.327   4.942   6.635  0.2979 -0.6526  0.6623
  516MOL0     H69616   6.119   4.978   6.507  0.2755  1.4262 -1.9798
  516MOL0     H69617   6.172   4.826   6.428 -2.0392 -0.1980  1.3657
  516MOL0     H69618   6.245   5.024   6.301  2.8014  4.1436 -1.0050
  516MOL0     H69619   6.391   4.958   6.370  3.5438  4.9736  2.2920
  516MOL0     H69620   6.112   5.205   6.303  4.3304 -2.7764 -0.1433
  516MOL0     H69621   5.908   5.434   6.267 -1.4102 -0.3889 -0.2386
  516MOL0     H69622   5.915   5.256   6.254  2.9068 -1.3358  2.7961
  516MOL0     H69623   5.802   5.338   6.364  0.3741  0.2059  1.2510
  516MOL0     H69624   5.641   5.424   6.688  1.2718 -0.5319 -2.1775
  516MOL0     H69625   5.402   5.462   6.730  0.3747  1.0745  0.1613
  516MOL0     H69626   5.130   5.769   6.565 -1.0332 -1.0545  0.2752
  516MOL0     H69627   5.178   5.669   6.427  2.4334 -1.8434 -0.3845
  516MOL0     H69628   4.995   5.614   6.669 -1.1507  1.0270 -0.6356
  516MOL0     H69629   4.955   5.612   6.505 -2.2722  2.5157  3.9368
  516MOL0     H69630   5.136   5.387   6.629 -0.2735  0.1442  0.9568
  516MOL0     H69631   5.042   5.384   6.465  0.3851 -0.4206 -0.2415
  516MOL0     H69632   4.838   5.430   6.633  0.5938  1.5059  2.6644
  516MOL0     H69633   4.896   5.279   6.578 -2.2784  2.6796 -1.3574
  516MOL0     H69634   4.982   5.426   6.832 -0.9752  1.5819 -1.5432
  516MOL0     H69635   5.010   5.260   6.814 -0.1265 -3.2471 -4.0707
  516MOL0     H69636   4.791   5.304   6.971 -1.3915 -2.5317 -0.4302
  516MOL0     H69637   4.732   5.401   6.841  0.4412  0.2935 -1.0317
  516MOL0     H69638   4.680   5.135   6.901  1.6840 -0.8100  0.7626
  516MOL0     H69639   4.807   5.122   6.785  0.5989 -0.5391  1.7939
  516MOL0     H69640   4.680   5.276   6.620 -1.9453  0.7837 -2.2907
  516MOL0     H69641   4.541   5.272   6.731  0.1323 -1.1456 -1.7845
  516MOL0     H69642   5.409   5.764   6.424  0.5832  1.6667  2.6314
  516MOL0     H69643   5.646   5.702   6.370  1.5409 -2.4327 -0.6672
  516MOL0     H69644   6.134   5.436   6.737 -0.5198  1.2228 -0.0505
  516MOL0     H69645   6.292   5.261   6.692  0.0047 -1.9327  0.0558
  516MOL0     H69646   4.965   4.061   6.446  2.5409  0.1747 -2.3597
  516MOL0     H69647   4.762   4.192   6.398  0.2064 -0.5783  2.0372
  516MOL0     H69648   4.543   4.630   6.438 -0.9392  2.7524 -0.2443
  516MOL0     H69649   4.376   4.765   6.384 -1.0820 -2.5833  1.6801
  516MOL0     H69650   4.266   4.857   5.942  0.4329  0.2593 -0.7772
  516MOL0     H69651   4.174   4.715   5.991 -2.4477  0.2174 -0.4941
  516MOL0     H69652   4.108   5.012   6.018  2.1838 -0.9403 -0.0803
  516MOL0     H69653   4.048   4.917   6.143  3.3632 -0.5941  2.2273
  516MOL0     H69654   3.951   4.762   5.993  6.1167 -0.2539  1.6118
  516MOL0     H69655   3.997   4.855   5.852  2.2831 -2.0096 -0.0834
  516MOL0     H69656   3.818   4.984   6.083 -2.4604  1.6504 -0.6499
  516MOL0     H69657   3.740   4.891   5.961  0.8724 -1.7936  0.5430
  516MOL0     H69658   3.909   5.283   5.835  0.1852 -0.0313 -3.3629
  516MOL0     H69659   4.447   4.697   5.965 -0.9564  0.9939 -0.0129
  516MOL0     H69660   4.625   4.546   6.017  2.8528 -0.6286  0.6804
  517MOL0     O69661   9.639   7.992   7.232  0.1014  0.7954 -0.0811
  517MOL0     C69662   9.742   7.929   7.212  0.1882  0.1937  0.7872
  517MOL0     O69663   9.826   7.954   7.113 -0.2017 -0.5499 -0.1896
  517MOL0     C69664   9.815   8.060   7.043  0.3224 -0.0002 -0.5800
  517MOL0     C69665   9.881   8.170   7.088  0.9132 -0.3524 -0.6948
  517MOL0     C69666   9.887   8.289   7.017 -0.7689  0.3144  0.4987
  517MOL0     C69667   9.829   8.286   6.890 -0.0521 -0.3141  0.2798
  517MOL0     O69668   9.818   8.394   6.808  0.1522 -0.4390 -0.0143
  517MOL0     C69669   9.843   8.537   6.844  0.4377 -0.1463  0.3728
  517MOL0     C69670   9.747   8.619   6.759 -0.0348  0.0706 -0.3065
  517MOL0     C69671   9.746   8.763   6.799 -0.0831  0.6338  0.3725
  517MOL0     C69672   9.868   8.833   6.747  1.2377 -0.0693  0.0648
  517MOL0     C69673   9.900   8.961   6.809  0.4888 -0.5325 -0.3010
  517MOL0     C69674  10.028   9.016   6.744 -0.0576 -0.8947  0.5977
  517MOL0     C69675  10.084   9.126   6.827  0.6138 -0.3026 -0.3447
  517MOL0     C69676  10.236   9.136   6.818 -0.1329 -0.3510 -0.1766
  517MOL0     N69677  10.285   9.246   6.902  0.1322 -0.0072  0.4745
  517MOL0     C69678  10.283   9.375   6.877 -0.3211 -0.6770 -0.3667
  517MOL0     C69679  10.321   9.440   6.993 -0.5050 -0.2900  0.3941
  517MOL0     C69680  10.350   9.575   7.010  0.0040 -0.7366  0.4192
  517MOL0     C69681  10.491   9.599   6.964 -0.6786  0.0863  0.7259
  517MOL0     C69682  10.523   9.575   6.812 -0.3768 -0.1026  0.0859
  517MOL0     C69683  10.654   9.638   6.763  0.5213  0.1374  0.2145
  517MOL0     O69684  10.761   9.587   6.834  0.1632 -0.0062  0.2580
  517MOL0     C69685  10.881   9.648   6.818  0.1993 -0.3656  0.5967
  517MOL0     C69686  10.925   9.719   6.707 -0.5346 -1.3549  0.1021
  517MOL0     C69687  11.051   9.787   6.697 -0.1893 -0.0158 -0.0117
  517MOL0     C69688  11.081   9.863   6.570  0.6509  0.5301 -0.4519
  517MOL0     C69689  11.148   9.768   6.802 -0.8305  0.1336  0.4141
  517MOL0     C69690  11.289   9.808   6.803 -0.4118 -0.1223  0.2069
  517MOL0     O69691  11.373   9.749   6.902 -0.4370 -0.3951  0.4503
  517MOL0     C69692  11.507   9.789   6.898  0.0269 -0.8540  0.0249
  517MOL0     C69693  11.616   9.694   6.896  0.3891  0.0781 -0.7280
  517MOL0     C69694  11.750   9.740   6.908 -0.2560 -0.1744 -0.8476
  517MOL0     C69695  11.778   9.877   6.933 -0.1146 -0.0718 -0.0222
  517MOL0     O69696  11.908   9.926   6.947  0.4526  0.6567 -0.0686
  517MOL0     C69697  11.931  10.021   7.050  0.7306  0.0215  0.0395
  517MOL0     C69698  12.061   9.985   7.121 -0.4743  0.8259 -0.4683
  517MOL0     C69699  12.070   9.852   7.206  0.1186  0.2407  0.2077
  517MOL0     C69700  12.183   9.858   7.304 -0.2112  0.1618 -1.1312
  517MOL0     C69701  12.157   9.756   7.424  0.2144  0.0423 -1.0356
  517MOL0     C69702  12.285   9.713   7.498 -0.2516  0.2727 -0.5822
  517MOL0     C69703  12.252   9.664   7.642 -0.5914 -0.0837 -0.6879
  517MOL0     C69704  12.381   9.609   7.703 -0.3795 -0.4228 -0.5458
  517MOL0    Cl69705  12.353   9.491   7.817 -0.2539  0.0963 -0.1561
  517MOL0     C69706  11.666   9.964   6.948  0.0127  0.5108  0.8020
  517MOL0     C69707  11.539   9.919   6.936 -0.0252 -1.1995 -0.6739
  517MOL0     O69708  11.326   9.901   6.729 -0.2739  0.1510 -1.0896
  517MOL0     C69709  11.101   9.697   6.915  0.4243  0.2801  0.4457
  517MOL0     C69710  10.975   9.635   6.918  0.2525 -0.6714  0.2666
  517MOL0     N69711  10.336   9.337   7.084  0.5340  0.5371 -0.5317
  517MOL0     N69712  10.319   9.224   7.030  0.1684  0.0862 -0.6998
  517MOL0     C69713   9.772   8.175   6.841 -0.4543 -0.2338  0.5646
  517MOL0     C69714   9.764   8.061   6.917 -0.4285 -0.8809 -0.9094
  517MOL0     C69715   9.762   7.812   7.304 -0.4105  0.5327  0.1121
  517MOL0     C69716   9.672   7.778   7.403  0.1541  0.1585 -0.5723
  517MOL0     C69717   9.698   7.668   7.493 -0.2258 -0.5490 -0.8247
  517MOL0     C69718   9.820   7.606   7.484  0.7572 -0.5327 -0.5903
  517MOL0     O69719   9.857   7.502   7.568  0.3611 -0.8355  0.1684
  517MOL0     C69720   9.767   7.398   7.571  0.0863  0.5110 -0.4502
  517MOL0     C69721   9.765   7.342   7.710 -1.1674 -0.1594  0.3937
  517MOL0     C69722   9.892   7.247   7.722  1.0054  0.3834  0.1060
  517MOL0     C69723   9.872   7.095   7.725 -0.9669  0.3534  0.2730
  517MOL0     C69724   9.774   7.047   7.632 -0.4526  0.2593  0.3053
  517MOL0     C69725   9.695   7.014   7.550 -0.4090  0.4862  1.2199
  517MOL0     C69726   9.906   7.639   7.385 -0.4033 -0.5057 -0.7412
  517MOL0     C69727   9.876   7.736   7.288 -0.1758  0.8499 -0.3421
  517MOL0     H69728   9.932   8.171   7.184  0.1970  1.5593 -0.2880
  517MOL0     H69729   9.946   8.372   7.056  3.5227 -2.2485  0.1842
  517MOL0     H69730   9.815   8.548   6.949  0.2944 -1.3682  0.4794
  517MOL0     H69731   9.945   8.571   6.821  0.7958 -0.6125  1.2398
  517MOL0     H69732   9.753   8.593   6.653 -0.6966 -3.2670  0.3816
  517MOL0     H69733   9.651   8.577   6.789 -0.0811  1.2549  1.3562
  517MOL0     H69734   9.665   8.810   6.742  1.0801 -0.5214 -2.4171
  517MOL0     H69735   9.750   8.765   6.909  3.2315  0.2304  0.3387
  517MOL0     H69736   9.954   8.772   6.778  0.8688 -1.5558 -1.6380
  517MOL0     H69737   9.870   8.836   6.638  1.4160  4.1116  0.0286
  517MOL0     H69738   9.814   9.029   6.806 -3.3949 -4.9974 -2.2231
  517MOL0     H69739   9.915   8.941   6.915 -1.2515 -0.0382  0.0725
  517MOL0     H69740  10.100   8.933   6.739  0.0365 -0.7523 -2.8028
  517MOL0     H69741  10.013   9.046   6.640  1.3348  0.9398  0.8765
  517MOL0     H69742  10.028   9.215   6.798 -3.5178 -1.7718  2.2547
  517MOL0     H69743  10.068   9.114   6.935 -1.2151  3.3689 -0.0445
  517MOL0     H69744  10.263   9.137   6.712 -1.6565 -3.0705 -0.6785
  517MOL0     H69745  10.270   9.045   6.868 -0.3507  1.4769  3.6632
  517MOL0     H69746  10.275   9.425   6.781 -1.1985  0.7278  0.4070
  517MOL0     H69747  10.282   9.626   6.942 -0.3567 -1.0405  0.5473
  517MOL0     H69748  10.327   9.609   7.111  0.1512 -0.6477  0.4239
  517MOL0     H69749  10.548   9.532   7.028 -2.0273 -0.0042  1.8782
  517MOL0     H69750  10.526   9.699   6.995 -1.5590  0.1705  1.4706
  517MOL0     H69751  10.437   9.600   6.748 -0.6363 -1.8021 -0.2661
  517MOL0     H69752  10.528   9.466   6.805  0.1665 -0.0047 -1.6441
  517MOL0     H69753  10.657   9.746   6.781  2.2310  0.1599 -0.0892
  517MOL0     H69754  10.662   9.603   6.659 -0.5299 -1.9903  0.7985
  517MOL0     H69755  10.857   9.723   6.622  0.5838  1.8696 -0.7742
  517MOL0     H69756  11.148   9.950   6.570 -1.9796  2.6869  0.2525
  517MOL0     H69757  11.134   9.784   6.514 -0.4474 -1.9401  1.8145
  517MOL0     H69758  10.989   9.900   6.525  1.0696 -1.5434 -3.3375
  517MOL0     H69759  11.581   9.592   6.893 -3.3879  1.1218  1.6415
  517MOL0     H69760  11.828   9.665   6.912  0.0164  0.1598  1.0806
  517MOL0     H69761  11.938  10.124   7.014  0.0823 -0.0993 -0.4508
  517MOL0     H69762  11.843  10.005   7.113  0.1678 -2.3446 -1.2085
  517MOL0     H69763  12.134   9.986   7.039  1.8994 -0.5167  1.4998
  517MOL0     H69764  12.092  10.063   7.190 -0.9785 -1.3404  2.4232
  517MOL0     H69765  12.078   9.776   7.128 -1.4189 -0.1201  0.3645
  517MOL0     H69766  11.972   9.842   7.254 -1.0764  0.4203 -2.0730
  517MOL0     H69767  12.281   9.835   7.263  1.1371  0.0518  1.9120
  517MOL0     H69768  12.181   9.950   7.363 -0.8599 -0.6259  0.1168
  517MOL0     H69769  12.117   9.663   7.385 -0.6873  0.8170 -2.0102
  517MOL0     H69770  12.076   9.798   7.485  0.7150  0.7114 -0.8205
  517MOL0     H69771  12.345   9.643   7.439 -1.0489 -1.5914  0.7333
  517MOL0     H69772  12.344   9.806   7.503 -0.7684  0.6719 -1.6578
  517MOL0     H69773  12.190   9.575   7.626  1.4249 -1.5789 -0.5962
  517MOL0     H69774  12.212   9.737   7.713  0.7577  0.4360 -0.4443
  517MOL0     H69775  12.434   9.692   7.751  0.1135  0.2116 -2.1493
  517MOL0     H69776  12.442   9.559   7.627  1.5225  1.7661 -0.5540
  517MOL0     H69777  11.692  10.065   6.981  1.9423 -0.9548  4.3239
  517MOL0     H69778  11.457   9.990   6.938  2.1880  1.6093 -2.0366
  517MOL0     H69779  11.167   9.673   6.998 -1.2517 -0.0311  1.7511
  517MOL0     H69780  10.961   9.579   7.010  0.0896  3.5438  3.0908
  517MOL0     H69781   9.742   8.165   6.738  1.7887  1.8597 -0.3889
  517MOL0     H69782   9.714   7.972   6.881  0.8778 -1.7931 -0.5794
  517MOL0     H69783   9.588   7.840   7.430 -0.3287 -1.3744  1.7225
  517MOL0     H69784   9.631   7.641   7.573 -2.1434  2.7165 -1.1203
  517MOL0     H69785   9.670   7.443   7.548 -0.6323  0.2595  1.8879
  517MOL0     H69786   9.781   7.313   7.504  2.0549  0.0972  0.4287
  517MOL0     H69787   9.668   7.304   7.743 -1.1868  0.9042  1.6605
  517MOL0     H69788   9.787   7.428   7.774 -2.4691  3.0047 -3.0514
  517MOL0     H69789   9.928   7.267   7.823 -2.3872  0.1821  1.4582
  517MOL0     H69790   9.962   7.273   7.642 -0.9031 -0.1346 -1.8336
  517MOL0     H69791   9.838   7.066   7.824 -2.4514 -2.4673 -0.9614
  517MOL0     H69792   9.968   7.042   7.720 -2.4506 -2.3828 -1.0364
  517MOL0     H69793   9.619   6.975   7.486 -1.6166  1.1578  2.1913
  517MOL0     H69794   9.992   7.573   7.374  0.5419  0.4460  0.5625
  517MOL0     H69795   9.933   7.766   7.202 -2.1954 -0.9451 -2.4583
  518MOL0     O69796   6.505   8.126   8.207 -0.0250  0.4862 -0.5057
  518MOL0     C69797   6.544   8.190   8.115 -0.7199  0.1622 -0.4642
  518MOL0     O69798   6.652   8.271   8.115  0.2511 -0.5164 -0.3245
  518MOL0     C69799   6.698   8.312   8.237 -0.1628  0.0959  0.3111
  518MOL0     C69800   6.635   8.417   8.304  0.2348 -0.0671  1.1765
  518MOL0     C69801   6.676   8.438   8.435  0.3135 -1.1424  0.2106
  518MOL0     C69802   6.779   8.378   8.503 -0.6226  0.4535  1.0859
  518MOL0     O69803   6.815   8.421   8.626  0.9239 -0.4674 -0.2368
  518MOL0     C69804   6.934   8.505   8.616  0.1592  0.6701 -0.7386
  518MOL0     C69805   7.065   8.428   8.614 -1.1087 -0.7111  0.2420
  518MOL0     C69806   7.084   8.332   8.731  0.2612  0.2222  0.2542
  518MOL0     C69807   7.225   8.278   8.723 -0.2186  0.1332  0.8095
  518MOL0     C69808   7.274   8.223   8.853  0.2727  0.4701  1.0996
  518MOL0     C69809   7.403   8.147   8.854  0.4619 -0.9516 -1.0094
  518MOL0     C69810   7.411   8.063   8.984 -0.8117 -0.5717 -1.2884
  518MOL0     C69811   7.535   7.974   8.978 -0.1403  0.1187 -0.8827
  518MOL0     N69812   7.516   7.868   8.882 -0.1490  0.0746 -0.7924
  518MOL0     C69813   7.427   7.764   8.896  0.0226 -0.3061 -0.7103
  518MOL0     C69814   7.433   7.687   8.787 -0.3380  0.2520  0.0073
  518MOL0     C69815   7.354   7.567   8.741 -1.4003 -0.0455 -0.3316
  518MOL0     C69816   7.355   7.457   8.839  0.1156  0.8319  0.1732
  518MOL0     C69817   7.467   7.359   8.809 -0.9338  0.1231 -0.6556
  518MOL0     C69818   7.491   7.252   8.917  1.1096  1.1425  0.5622
  518MOL0     O69819   7.369   7.162   8.916 -0.0462  0.5919  1.1536
  518MOL0     C69820   7.384   7.040   8.971  0.5112  0.5020 -0.9378
  518MOL0     C69821   7.323   7.001   9.094 -0.6316 -0.0305  0.4574
  518MOL0     C69822   7.326   6.866   9.140  0.4669 -0.1533 -0.6347
  518MOL0     C69823   7.253   6.847   9.279 -0.0690 -0.7732 -0.4158
  518MOL0     C69824   7.407   6.766   9.084  0.8134  0.3309 -0.7494
  518MOL0     C69825   7.424   6.626   9.134 -0.5290 -0.4115  0.9448
  518MOL0     O69826   7.450   6.542   9.032  0.1789 -0.1618  0.3098
  518MOL0     C69827   7.463   6.406   9.056  0.0289 -0.6870 -0.0196
  518MOL0     C69828   7.518   6.342   9.172  0.5700 -0.1783  0.5290
  518MOL0     C69829   7.516   6.206   9.179 -0.3555 -0.3378 -0.7260
  518MOL0     C69830   7.469   6.116   9.090 -0.1207  0.0089  0.3524
  518MOL0     O69831   7.478   5.986   9.119  0.4779  0.0301 -0.2088
  518MOL0     C69832   7.364   5.903   9.090  0.0833 -0.5110 -0.5907
  518MOL0     C69833   7.382   5.759   9.152 -0.7237 -0.7902  0.1158
  518MOL0     C69834   7.517   5.691   9.105 -0.6653 -0.5376  0.0973
  518MOL0     C69835   7.645   5.732   9.181 -0.0902  0.1649 -0.1696
  518MOL0     C69836   7.762   5.640   9.155  0.0181  0.3364  1.1227
  518MOL0     C69837   7.817   5.651   9.013 -0.1286 -0.7482  0.2448
  518MOL0     C69838   7.962   5.579   9.003  0.8051  0.7135 -0.2940
  518MOL0     C69839   8.015   5.577   8.863  0.8421  0.4359  0.6001
  518MOL0    Cl69840   7.941   5.454   8.748 -0.1522 -0.0720 -0.2082
  518MOL0     C69841   7.421   6.175   8.972 -0.0426 -0.5167  0.1544
  518MOL0     C69842   7.421   6.315   8.951  0.6464  0.1030 -0.2741
  518MOL0     O69843   7.402   6.600   9.254 -0.4733 -0.9641 -0.1672
  518MOL0     C69844   7.457   6.806   8.958 -1.0825 -0.3989  0.3176
  518MOL0     C69845   7.457   6.939   8.901  0.0834 -0.5774 -0.2834
  518MOL0     N69846   7.545   7.728   8.718 -0.0404 -0.1095  0.0244
  518MOL0     N69847   7.584   7.842   8.767  0.3439 -0.1611  0.1132
  518MOL0     C69848   6.841   8.273   8.430 -0.1248 -0.2027  0.9904
  518MOL0     C69849   6.806   8.244   8.296  0.1825  0.2198  0.5454
  518MOL0     C69850   6.457   8.187   7.994  0.2147  0.9309  0.3776
  518MOL0     C69851   6.486   8.276   7.888 -0.4877  0.4388 -1.1672
  518MOL0     C69852   6.417   8.265   7.762 -0.4546  0.3475 -0.2627
  518MOL0     C69853   6.315   8.172   7.749  0.1647 -0.1892 -0.4780
  518MOL0     O69854   6.239   8.147   7.639 -0.2842  0.4919 -0.0418
  518MOL0     C69855   6.178   8.263   7.573  0.1470 -0.4944 -0.0839
  518MOL0     C69856   6.042   8.316   7.628  0.1738  1.0390 -0.0846
  518MOL0     C69857   6.070   8.387   7.762  0.1757 -0.0410  0.0155
  518MOL0     C69858   5.968   8.505   7.783 -0.1092  0.3342 -0.5341
  518MOL0     C69859   6.029   8.627   7.727 -0.5091  0.6455 -0.3194
  518MOL0     C69860   6.081   8.728   7.689  0.3090  0.1242 -0.6938
  518MOL0     C69861   6.286   8.083   7.848 -0.0567  0.0964  0.0881
  518MOL0     C69862   6.362   8.086   7.962  1.3916 -0.1094 -0.0766
  518MOL0     H69863   6.542   8.465   8.275 -0.6008 -2.2335  0.0441
  518MOL0     H69864   6.628   8.520   8.488  0.6230 -0.8372  0.0214
  518MOL0     H69865   6.931   8.574   8.530 -0.6110  1.3085 -0.2132
  518MOL0     H69866   6.940   8.575   8.699  0.0909  1.1113 -1.0998
  518MOL0     H69867   7.082   8.396   8.511 -1.6050  3.3806 -1.2747
  518MOL0     H69868   7.143   8.502   8.634 -1.6969 -0.5916  2.3691
  518MOL0     H69869   7.058   8.383   8.825  0.7723  0.4737  0.2623
  518MOL0     H69870   7.011   8.251   8.722 -0.0291  0.4801  0.2670
  518MOL0     H69871   7.218   8.201   8.645 -2.1934  1.3128 -0.2734
  518MOL0     H69872   7.303   8.349   8.695 -1.1877  0.8174 -0.2223
  518MOL0     H69873   7.276   8.308   8.923 -0.4467  1.4506 -0.0229
  518MOL0     H69874   7.198   8.155   8.892  0.5977  0.2921  1.4251
  518MOL0     H69875   7.426   8.083   8.769  1.2466 -1.4979 -0.4107
  518MOL0     H69876   7.482   8.222   8.866  0.1687 -0.8346  0.4086
  518MOL0     H69877   7.425   8.143   9.056 -1.3229 -2.5774  1.1978
  518MOL0     H69878   7.313   8.028   9.018 -2.3873  2.8079 -1.9188
  518MOL0     H69879   7.568   7.928   9.072  0.8193  1.0730 -0.7319
  518MOL0     H69880   7.616   8.041   8.948  0.5871 -0.9478 -1.3444
  518MOL0     H69881   7.346   7.743   8.965  0.5441  2.8544  1.0832
  518MOL0     H69882   7.256   7.612   8.728  0.4288  4.5280 -0.2488
  518MOL0     H69883   7.389   7.530   8.644 -3.5781 -0.0598 -1.1537
  518MOL0     H69884   7.267   7.392   8.834 -0.0515  0.9982  0.9040
  518MOL0     H69885   7.357   7.493   8.942 -0.5459 -0.8946  0.8263
  518MOL0     H69886   7.556   7.422   8.804 -0.2063 -0.7154  0.8621
  518MOL0     H69887   7.469   7.322   8.706 -0.3552  0.7294 -0.8735
  518MOL0     H69888   7.501   7.292   9.018 -1.6734 -1.8851  2.2245
  518MOL0     H69889   7.577   7.190   8.892 -0.2950 -0.8003  0.2832
  518MOL0     H69890   7.272   7.081   9.146  0.7385  0.2364  1.4248
  518MOL0     H69891   7.327   6.850   9.360 -3.0744  1.1926  2.5466
  518MOL0     H69892   7.185   6.931   9.290  1.0424 -0.1157  2.2489
  518MOL0     H69893   7.196   6.754   9.273 -1.1293 -0.0462 -2.0036
  518MOL0     H69894   7.551   6.395   9.262  0.6545 -1.2416  1.1416
  518MOL0     H69895   7.585   6.180   9.259  0.7771  2.7340 -0.5714
  518MOL0     H69896   7.274   5.945   9.134  3.1445  3.4224  2.6135
  518MOL0     H69897   7.349   5.900   8.981 -1.6324  2.1189 -0.4966
  518MOL0     H69898   7.383   5.758   9.261  0.6954 -0.7452  0.1184
  518MOL0     H69899   7.302   5.690   9.122 -0.2825 -1.6394  0.8410
  518MOL0     H69900   7.532   5.710   8.998  1.8754 -4.3054 -0.4143
  518MOL0     H69901   7.509   5.583   9.122 -1.4172 -0.6934 -1.1334
  518MOL0     H69902   7.682   5.830   9.149  2.2879  0.9220  4.1744
  518MOL0     H69903   7.611   5.743   9.284 -1.2516  0.2926 -0.5470
  518MOL0     H69904   7.730   5.537   9.170 -1.6063  0.5788 -0.2850
  518MOL0     H69905   7.838   5.648   9.233 -0.1470 -2.2557  1.6397
  518MOL0     H69906   7.741   5.613   8.944 -1.5757  1.2205  0.6947
  518MOL0     H69907   7.836   5.756   8.989  0.3509 -1.1368 -1.2360
  518MOL0     H69908   7.950   5.478   9.042  1.6570 -0.2321 -2.3282
  518MOL0     H69909   8.033   5.636   9.064  0.1044 -1.1822  2.5083
  518MOL0     H69910   8.123   5.557   8.868  0.4356 -1.7904  1.8907
  518MOL0     H69911   8.007   5.680   8.826 -2.0321 -0.6316 -2.2520
  518MOL0     H69912   7.401   6.117   8.882 -0.8032 -1.5979  0.9995
  518MOL0     H69913   7.398   6.357   8.854 -2.9196 -0.2893  0.2958
  518MOL0     H69914   7.515   6.738   8.898  0.8848  3.5124 -2.7015
  518MOL0     H69915   7.507   6.955   8.807  0.9864  0.8226  0.4076
  518MOL0     H69916   6.920   8.216   8.478 -0.5959 -3.1143 -1.3740
  518MOL0     H69917   6.855   8.162   8.245  0.0272 -0.2907  1.1942
  518MOL0     H69918   6.561   8.351   7.910 -0.3255 -0.6547  2.9420
  518MOL0     H69919   6.452   8.324   7.678 -0.8430  2.8322  1.2182
  518MOL0     H69920   6.247   8.347   7.562 -0.2388 -0.1090  0.4036
  518MOL0     H69921   6.150   8.245   7.469 -2.6695 -2.8705  0.9406
  518MOL0     H69922   5.966   8.238   7.634 -1.4279  2.5396  0.0096
  518MOL0     H69923   6.009   8.392   7.556 -1.0822 -1.1564 -1.9451
  518MOL0     H69924   6.170   8.432   7.761  0.2281 -0.1652 -0.7236
  518MOL0     H69925   6.066   8.312   7.842  1.5462 -3.0974 -2.5692
  518MOL0     H69926   5.946   8.523   7.888 -0.5684  4.5758 -1.1781
  518MOL0     H69927   5.871   8.487   7.736  0.0201 -0.3098 -0.5730
  518MOL0     H69928   6.133   8.813   7.651 -0.8546  0.8049 -0.7971
  518MOL0     H69929   6.212   8.004   7.845 -1.4200  1.3158  0.1396
  518MOL0     H69930   6.341   8.027   8.050  4.3103 -0.3341  0.5623
  519MOL0     O69931   7.395   6.802   4.062 -0.3782 -0.2964 -0.6337
  519MOL0     C69932   7.483   6.793   3.975 -0.5362  0.6508 -0.6893
  519MOL0     O69933   7.483   6.697   3.874  0.1776  0.7430 -0.4681
  519MOL0     C69934   7.373   6.601   3.870 -0.4973  0.0070  0.8338
  519MOL0     C69935   7.306   6.537   3.980 -0.3528  0.1516  0.7967
  519MOL0     C69936   7.214   6.445   3.951 -0.0622  0.8426 -0.2608
  519MOL0     C69937   7.182   6.403   3.816  0.1174 -0.0067 -0.6016
  519MOL0     O69938   7.083   6.317   3.787  0.3756  0.0102  0.0752
  519MOL0     C69939   7.008   6.338   3.668  0.3717  0.1438  0.2009
  519MOL0     C69940   6.879   6.263   3.657  0.0021  0.3046 -1.0205
  519MOL0     C69941   6.789   6.312   3.543  0.1695  0.0143 -0.0631
  519MOL0     C69942   6.712   6.198   3.462  0.0725  0.3045 -0.0772
  519MOL0     C69943   6.593   6.250   3.374  1.1926  0.5923  1.1723
  519MOL0     C69944   6.548   6.146   3.262  0.6596  0.1217 -0.0559
  519MOL0     C69945   6.449   6.202   3.162 -0.5773  0.9307  0.8020
  519MOL0     C69946   6.304   6.210   3.209 -0.4955  0.3982  0.5068
  519MOL0     N69947   6.236   6.079   3.211 -0.0815 -0.2766  0.7326
  519MOL0     C69948   6.225   6.005   3.324 -0.3972  0.1029  1.0479
  519MOL0     C69949   6.143   5.900   3.291  0.5849  0.0473  0.4548
  519MOL0     C69950   6.088   5.805   3.397  0.1994  0.5334  0.2795
  519MOL0     C69951   6.111   5.665   3.356  0.4216 -0.3912  0.0581
  519MOL0     C69952   6.015   5.617   3.248 -0.1504 -0.2057 -0.2543
  519MOL0     C69953   5.897   5.525   3.291  0.7465  0.6987 -0.3283
  519MOL0     O69954   5.924   5.423   3.396  0.3534  0.1055 -0.3328
  519MOL0     C69955   5.972   5.300   3.353 -0.6490  0.0546 -0.2263
  519MOL0     C69956   5.954   5.238   3.230  0.3970  0.2734  0.3087
  519MOL0     C69957   5.998   5.104   3.201 -0.5196 -0.1998  0.1524
  519MOL0     C69958   5.966   5.047   3.063  0.0646 -0.6610 -0.6506
  519MOL0     C69959   6.055   5.022   3.303 -0.8127 -0.2483 -0.5726
  519MOL0     C69960   6.112   4.885   3.280 -0.2020  0.4291 -0.0750
  519MOL0     O69961   6.107   4.836   3.153 -0.6715  0.1233 -0.1257
  519MOL0     C69962   6.170   4.721   3.112 -0.1709  0.0440 -0.3442
  519MOL0     C69963   6.272   4.726   3.015  0.3480 -0.4061 -0.2630
  519MOL0     C69964   6.334   4.608   2.964 -0.5998  0.1536  0.0186
  519MOL0     C69965   6.313   4.489   3.034  0.1364 -0.1102  0.3276
  519MOL0     O69966   6.399   4.379   2.992 -0.1470  0.0800  0.1748
  519MOL0     C69967   6.317   4.271   2.955 -0.0485  0.6859  0.6439
  519MOL0     C69968   6.398   4.177   2.878  0.0057 -0.2543 -0.5048
  519MOL0     C69969   6.500   4.106   2.962 -0.1124 -0.0234 -0.5438
  519MOL0     C69970   6.503   3.957   2.924  0.2432 -0.5405  0.9448
  519MOL0     C69971   6.605   3.883   3.000  0.2675  0.3909 -0.7775
  519MOL0     C69972   6.566   3.838   3.150 -0.5557 -0.5656  0.0683
  519MOL0     C69973   6.633   3.711   3.213 -0.3489 -0.3518 -1.0331
  519MOL0     C69974   6.778   3.746   3.253 -0.5855 -0.7763 -0.4098
  519MOL0    Cl69975   6.881   3.767   3.114  0.1767  0.1748  0.2144
  519MOL0     C69976   6.214   4.481   3.148 -0.5739 -0.4288  0.0526
  519MOL0     C69977   6.138   4.596   3.167  0.4430 -0.3270 -0.5646
  519MOL0     O69978   6.163   4.822   3.372  0.3475  0.2250 -0.2699
  519MOL0     C69979   6.055   5.077   3.428 -0.5331  0.1419 -0.1827
  519MOL0     C69980   6.017   5.218   3.457  0.9741 -0.4586 -0.2429
  519MOL0     N69981   6.108   5.907   3.162 -0.4983  0.6756 -0.2391
  519MOL0     N69982   6.160   6.015   3.120 -0.3286 -0.1872  0.4500
  519MOL0     C69983   7.252   6.465   3.714  0.5779 -0.4738  0.4601
  519MOL0     C69984   7.343   6.567   3.736 -0.2942 -0.6176 -1.1154
  519MOL0     C69985   7.586   6.892   3.976 -0.3975  0.8049 -0.1130
  519MOL0     C69986   7.691   6.899   3.888  0.1938 -0.5474 -0.8611
  519MOL0     C69987   7.785   7.006   3.895  0.4713  0.1500 -0.1165
  519MOL0     C69988   7.769   7.109   3.985 -0.6660  0.0509 -0.3767
  519MOL0     O69989   7.864   7.211   3.983  0.3649  0.1733 -0.2729
  519MOL0     C69990   7.834   7.335   4.050 -0.5736  0.0051 -0.0418
  519MOL0     C69991   7.961   7.403   4.072  0.0259 -0.4740 -0.2432
  519MOL0     C69992   8.051   7.431   3.954 -0.3056 -0.1261  0.3849
  519MOL0     C69993   8.153   7.317   3.919 -0.5990  0.1627  0.5939
  519MOL0     C69994   8.219   7.337   3.790 -0.3039 -0.2022  0.3778
  519MOL0     C69995   8.289   7.352   3.692 -0.6429 -0.0021  0.3316
  519MOL0     C69996   7.659   7.102   4.069  0.1588  0.0040 -0.6782
  519MOL0     C69997   7.574   6.991   4.076 -0.7730  0.6892  0.3120
  519MOL0     H69998   7.324   6.555   4.085 -0.3383  0.1287  0.7983
  519MOL0     H69999   7.163   6.395   4.032  2.2472  1.5515  1.7480
  519MOL0     H70000   6.992   6.446   3.659 -0.8369 -0.1425 -1.5743
  519MOL0     H70001   7.066   6.299   3.585 -1.5977  1.1275 -1.7266
  519MOL0     H70002   6.917   6.163   3.636 -0.9057 -0.0650 -0.9448
  519MOL0     H70003   6.845   6.273   3.760  3.1859  0.0744  0.1303
  519MOL0     H70004   6.722   6.390   3.579  1.5112  0.3394  1.9278
  519MOL0     H70005   6.857   6.359   3.472  1.2615  0.3511  1.1651
  519MOL0     H70006   6.772   6.138   3.393 -3.3689 -0.7329 -2.4395
  519MOL0     H70007   6.676   6.124   3.534 -1.2884 -1.7020 -2.6527
  519MOL0     H70008   6.510   6.277   3.438 -1.0513 -3.9094  0.5935
  519MOL0     H70009   6.628   6.340   3.323  0.2678  0.0564 -0.5008
  519MOL0     H70010   6.628   6.113   3.196  0.7645  0.8114 -0.2787
  519MOL0     H70011   6.503   6.057   3.308  2.1977  0.1346  1.6015
  519MOL0     H70012   6.471   6.307   3.140  0.8357  0.9264  2.0332
  519MOL0     H70013   6.460   6.141   3.073  0.2296 -0.0857  1.5715
  519MOL0     H70014   6.250   6.272   3.136 -1.3001  0.0592  0.8076
  519MOL0     H70015   6.307   6.264   3.304  2.5808  2.1912 -0.4730
  519MOL0     H70016   6.270   6.031   3.419  0.2783 -1.6179  1.2283
  519MOL0     H70017   6.135   5.812   3.495 -0.8367 -0.4343  0.8667
  519MOL0     H70018   5.983   5.826   3.419 -0.4488 -2.5477  0.5872
  519MOL0     H70019   6.108   5.601   3.445  1.1333 -0.6223 -0.0860
  519MOL0     H70020   6.210   5.653   3.313  0.6610 -0.6521  0.6730
  519MOL0     H70021   6.077   5.562   3.176 -1.0919 -0.5492 -0.8147
  519MOL0     H70022   5.973   5.702   3.194 -1.7292 -1.2275 -0.7205
  519MOL0     H70023   5.847   5.482   3.204 -0.2042 -1.1102  1.0589
  519MOL0     H70024   5.823   5.597   3.327 -1.7610 -1.6453 -0.5511
  519MOL0     H70025   5.899   5.284   3.148  2.7223 -1.2124 -2.2656
  519MOL0     H70026   6.053   5.027   3.000 -0.3647  2.5059 -2.4363
  519MOL0     H70027   5.908   4.956   3.085 -0.8344  0.2862  1.1446
  519MOL0     H70028   5.910   5.117   3.001 -1.2620 -0.1139  1.0719
  519MOL0     H70029   6.287   4.826   2.976 -0.4129  0.2442  1.0208
  519MOL0     H70030   6.421   4.613   2.899 -0.5900  3.2937  0.1281
  519MOL0     H70031   6.281   4.224   3.048  0.5894 -3.8406 -1.1326
  519MOL0     H70032   6.233   4.295   2.890 -0.4421 -2.2704 -0.1003
  519MOL0     H70033   6.329   4.108   2.829  0.2822  1.4200 -3.4669
  519MOL0     H70034   6.440   4.238   2.798 -2.1346 -0.8986 -2.1933
  519MOL0     H70035   6.494   4.105   3.072 -0.8565 -4.4810 -0.3991
  519MOL0     H70036   6.596   4.141   2.923  0.1016  0.8676  0.7141
  519MOL0     H70037   6.399   3.922   2.924 -1.0493  2.8823 -0.2579
  519MOL0     H70038   6.531   3.943   2.819 -2.0776 -3.2971  0.5374
  519MOL0     H70039   6.697   3.942   3.000  2.0089 -2.0505  1.5860
  519MOL0     H70040   6.623   3.790   2.946  1.2413  0.2965 -0.3133
  519MOL0     H70041   6.570   3.921   3.222 -2.9732 -1.6977  1.6459
  519MOL0     H70042   6.462   3.802   3.153 -0.9921  0.6589  0.0191
  519MOL0     H70043   6.641   3.632   3.139 -1.3161 -0.9320 -0.5432
  519MOL0     H70044   6.590   3.674   3.307  3.5366 -2.9062 -0.0380
  519MOL0     H70045   6.826   3.673   3.319 -0.3194 -1.2563 -1.1298
  519MOL0     H70046   6.774   3.844   3.302 -0.5482 -1.1481  0.3532
  519MOL0     H70047   6.199   4.391   3.205  1.4774 -0.0703  1.2297
  519MOL0     H70048   6.063   4.590   3.245 -0.2290  0.1409 -1.1592
  519MOL0     H70049   6.106   5.026   3.509 -1.6783 -0.3524  0.2405
  519MOL0     H70050   6.037   5.266   3.552  3.1500 -2.6071  0.4735
  519MOL0     H70051   7.232   6.449   3.609  1.5761  1.4724 -0.0759
  519MOL0     H70052   7.396   6.621   3.658 -0.9339  1.5458 -0.1350
  519MOL0     H70053   7.711   6.832   3.805  1.6806 -2.0538  0.6208
  519MOL0     H70054   7.870   7.027   3.831 -0.0091 -2.7631 -1.9197
  519MOL0     H70055   7.773   7.402   3.989  1.6134  2.9317  0.7802
  519MOL0     H70056   7.787   7.329   4.149 -0.4121  2.5691  0.2699
  519MOL0     H70057   8.016   7.342   4.144 -3.0796  0.1197  2.9137
  519MOL0     H70058   7.949   7.498   4.124 -0.4653  0.1691 -1.4853
  519MOL0     H70059   8.112   7.520   3.970 -2.2446  1.2637  0.4923
  519MOL0     H70060   7.996   7.446   3.860 -0.4571  0.0952  0.5060
  519MOL0     H70061   8.108   7.218   3.930 -1.2719  0.5246  1.1486
  519MOL0     H70062   8.230   7.321   3.996  2.0530 -2.4159 -1.6593
  519MOL0     H70063   8.359   7.357   3.612 -0.0846  0.9632  0.8646
  519MOL0     H70064   7.639   7.166   4.155 -1.5921 -0.9657 -0.3145
  519MOL0     H70065   7.500   6.986   4.155 -0.9188  0.8947  0.1909
  520MOL0     O70066   7.446   0.637   4.191  0.9490 -0.4505  0.0731
  520MOL0     C70067   7.390   0.539   4.251 -0.5525  0.4281  0.4036
  520MOL0     O70068   7.459   0.457   4.328  0.3206  0.6562  0.0605
  520MOL0     C70069   7.600   0.468   4.327 -0.2077 -0.3964  0.4438
  520MOL0     C70070   7.679   0.388   4.249  0.2493 -0.2245  0.1743
  520MOL0     C70071   7.818   0.393   4.273  0.5497 -0.0599 -0.1428
  520MOL0     C70072   7.874   0.484   4.373 -0.1819  0.2387  0.3450
  520MOL0     O70073   8.007   0.501   4.399 -0.4351  0.2200  0.5033
  520MOL0     C70074   8.107   0.410   4.335  0.2006  0.4707 -1.1489
  520MOL0     C70075   8.244   0.468   4.370  0.2273 -1.2157 -0.0131
  520MOL0     C70076   8.357   0.373   4.334  0.1067 -0.1973  0.0691
  520MOL0     C70077   8.492   0.413   4.402 -0.5165  0.1294  0.0699
  520MOL0     C70078   8.488   0.406   4.550  0.3697 -0.2444  1.4255
  520MOL0     C70079   8.614   0.443   4.628 -0.3938  0.2938 -0.5219
  520MOL0     C70080   8.721   0.335   4.611 -0.5599  0.0426  0.3017
  520MOL0     C70081   8.863   0.354   4.671  0.7616  1.2719 -0.2031
  520MOL0     N70082   8.927   0.215   4.661 -0.1133 -0.1649  0.2502
  520MOL0     C70083   8.897   0.111   4.743 -0.2751 -0.5794 -0.6126
  520MOL0     C70084   8.976   0.009   4.703  1.1809 -0.6536  0.3877
  520MOL0     C70085   8.976  -0.123   4.779  0.3107 -0.3879 -0.4329
  520MOL0     C70086   9.116  -0.148   4.832  0.4286  0.9452 -0.4181
  520MOL0     C70087   9.181  -0.042   4.920  0.0596 -0.2713 -0.8281
  520MOL0     C70088   9.298  -0.092   5.008 -0.2048 -0.1970  0.3062
  520MOL0     O70089   9.404  -0.149   4.925  0.0527  0.1193 -0.0020
  520MOL0     C70090   9.526  -0.159   4.977 -0.5381  0.5368  0.1055
  520MOL0     C70091   9.627  -0.205   4.889 -0.0637 -0.0418 -0.3741
  520MOL0     C70092   9.756  -0.248   4.940 -0.8056 -0.5331 -1.2406
  520MOL0     C70093   9.853  -0.290   4.838 -1.0667  0.4377  0.6936
  520MOL0     C70094   9.786  -0.245   5.079  0.1874  1.5463  0.2427
  520MOL0     C70095   9.916  -0.294   5.133 -0.2271 -0.4424  0.7345
  520MOL0     O70096  10.030  -0.282   5.056 -0.5510  0.3991  0.9881
  520MOL0     C70097  10.149  -0.315   5.120 -0.4361 -0.6543  0.1755
  520MOL0     C70098  10.169  -0.432   5.197 -0.5156 -0.1746  0.1768
  520MOL0     C70099  10.292  -0.463   5.242 -0.0430 -0.3070 -0.6812
  520MOL0     C70100  10.402  -0.387   5.217 -0.7158  0.2279  0.6901
  520MOL0     O70101  10.517  -0.423   5.287  0.0597  1.0372 -0.0919
  520MOL0     C70102  10.571  -0.319   5.372 -0.1930  0.1640 -0.5400
  520MOL0     C70103  10.692  -0.381   5.436  0.3366 -0.2927  0.0188
  520MOL0     C70104  10.792  -0.417   5.329  0.3871 -0.2496 -0.5143
  520MOL0     C70105  10.927  -0.369   5.384 -0.6628 -0.0291  0.0553
  520MOL0     C70106  10.982  -0.458   5.499 -0.5607 -0.3214 -0.9274
  520MOL0     C70107  11.110  -0.415   5.572 -0.2685 -0.1351 -0.2366
  520MOL0     C70108  11.131  -0.488   5.712 -0.6017  0.5220 -0.2450
  520MOL0     C70109  11.044  -0.432   5.811 -0.0495  0.6714 -0.9467
  520MOL0    Cl70110  11.044  -0.512   5.968  0.0091 -0.0216  0.5355
  520MOL0     C70111  10.388  -0.278   5.138 -0.4877 -0.9985  0.3266
  520MOL0     C70112  10.272  -0.235   5.088 -0.7676  0.4768  0.2069
  520MOL0     O70113   9.908  -0.317   5.253 -0.5738 -0.3538 -1.1251
  520MOL0     C70114   9.681  -0.201   5.167  1.2656 -0.2588 -0.3734
  520MOL0     C70115   9.553  -0.144   5.114 -0.0783 -0.2687  0.0990
  520MOL0     N70116   9.054   0.051   4.591  0.1243  0.2141 -0.8767
  520MOL0     N70117   9.015   0.170   4.567 -0.2003 -1.1523  0.1558
  520MOL0     C70118   7.787   0.576   4.428  1.6601  0.0534  0.2659
  520MOL0     C70119   7.648   0.565   4.413 -0.9576  0.2271 -0.0393
  520MOL0     C70120   7.248   0.491   4.229  0.5123 -0.3186  0.5332
  520MOL0     C70121   7.196   0.501   4.099 -0.1023 -0.4395  0.6352
  520MOL0     C70122   7.068   0.457   4.069  0.1876  0.5313  0.6178
  520MOL0     C70123   6.992   0.380   4.166 -0.4035 -0.3968  0.2759
  520MOL0     O70124   6.880   0.297   4.157 -0.7856  0.1960  0.6914
  520MOL0     C70125   6.817   0.299   4.025 -0.8822 -1.5147  0.3563
  520MOL0     C70126   6.663   0.258   4.021 -0.4999  0.5502  0.1368
  520MOL0     C70127   6.637   0.231   3.870  0.0111  0.2171 -0.8040
  520MOL0     C70128   6.494   0.190   3.831  0.0687 -0.0083  0.7360
  520MOL0     C70129   6.438   0.109   3.944 -0.5904  1.5538 -0.0781
  520MOL0     C70130   6.387   0.053   4.041 -0.1127  0.4473  0.3924
  520MOL0     C70131   7.041   0.377   4.294 -0.2586  0.0054  0.4611
  520MOL0     C70132   7.159   0.437   4.336 -0.6122 -0.2661 -0.1052
  520MOL0     H70133   7.630   0.309   4.193  0.5262 -1.8050  2.0508
  520MOL0     H70134   7.877   0.318   4.223 -2.4542 -1.8771 -1.2693
  520MOL0     H70135   8.099   0.308   4.376 -0.6096  0.5870 -0.9944
  520MOL0     H70136   8.080   0.409   4.229 -1.6224 -2.6103 -0.7885
  520MOL0     H70137   8.259   0.569   4.331 -1.4867 -0.7078  0.5606
  520MOL0     H70138   8.232   0.480   4.478 -1.0021 -0.8395 -0.1770
  520MOL0     H70139   8.330   0.269   4.357  4.4874 -2.4271 -3.3657
  520MOL0     H70140   8.361   0.372   4.225  1.0546  1.7195  0.0498
  520MOL0     H70141   8.578   0.356   4.365 -1.4830 -2.2293  1.2595
  520MOL0     H70142   8.515   0.519   4.384 -3.1058  1.3509  3.0961
  520MOL0     H70143   8.399   0.465   4.575 -0.7915  0.7174 -3.7688
  520MOL0     H70144   8.470   0.309   4.596  0.2226  0.5942  3.2706
  520MOL0     H70145   8.653   0.541   4.602 -0.6635 -0.0411 -2.2744
  520MOL0     H70146   8.593   0.454   4.735  0.3635  6.2858 -0.6399
  520MOL0     H70147   8.684   0.248   4.665 -2.0054  0.0089 -0.7013
  520MOL0     H70148   8.729   0.299   4.508  0.4177 -1.5562  0.9084
  520MOL0     H70149   8.863   0.379   4.778 -3.6482  2.8965 -0.3818
  520MOL0     H70150   8.916   0.436   4.622  2.6699 -0.4502 -1.2112
  520MOL0     H70151   8.812   0.097   4.810 -0.8178  1.2128 -0.8708
  520MOL0     H70152   8.909  -0.119   4.865 -0.4756 -2.8785 -0.8430
  520MOL0     H70153   8.940  -0.209   4.720  0.1916 -0.3389 -0.4327
  520MOL0     H70154   9.186  -0.162   4.749 -0.1836 -3.2095 -0.4162
  520MOL0     H70155   9.114  -0.247   4.877  4.1137  0.0921 -1.7766
  520MOL0     H70156   9.125   0.016   4.993  1.2008 -0.2004  0.0318
  520MOL0     H70157   9.222   0.031   4.850  2.6893 -0.6354  0.1802
  520MOL0     H70158   9.260  -0.163   5.081 -0.3886  1.7451  2.2158
  520MOL0     H70159   9.333  -0.003   5.062 -0.5241  1.5219 -2.1197
  520MOL0     H70160   9.601  -0.195   4.784  0.3793 -1.3214 -0.6208
  520MOL0     H70161   9.901  -0.380   4.879  1.3758  0.8124 -1.1368
  520MOL0     H70162   9.814  -0.319   4.740 -2.1554  1.7854  0.7013
  520MOL0     H70163   9.934  -0.219   4.816 -1.4384  0.5619 -0.3561
  520MOL0     H70164  10.082  -0.497   5.206  0.1627 -1.5393 -2.0809
  520MOL0     H70165  10.300  -0.547   5.310 -1.2925  0.2852  0.2361
  520MOL0     H70166  10.594  -0.230   5.313 -2.5273  0.3328 -1.2917
  520MOL0     H70167  10.499  -0.295   5.451 -1.4308  1.0809 -1.9002
  520MOL0     H70168  10.724  -0.319   5.520  1.2243  1.7098 -1.6792
  520MOL0     H70169  10.660  -0.478   5.473  4.1923 -2.8819 -2.5999
  520MOL0     H70170  10.776  -0.374   5.230 -0.6218 -2.7104 -1.5072
  520MOL0     H70171  10.794  -0.525   5.312  1.8010 -0.2871 -0.2572
  520MOL0     H70172  11.002  -0.369   5.304 -1.6942  2.2583 -1.0152
  520MOL0     H70173  10.906  -0.266   5.416 -4.0366 -0.1943 -1.2662
  520MOL0     H70174  10.998  -0.555   5.452  1.9630 -0.1340 -0.5918
  520MOL0     H70175  10.902  -0.464   5.574 -3.1140  1.1582 -3.3352
  520MOL0     H70176  11.194  -0.435   5.506  1.7221 -0.2947  2.1946
  520MOL0     H70177  11.114  -0.306   5.581 -3.1089  0.2564 -2.4115
  520MOL0     H70178  11.235  -0.474   5.742 -1.4559  1.8761  2.3874
  520MOL0     H70179  11.122  -0.595   5.693  1.0067  0.5397 -1.2860
  520MOL0     H70180  10.942  -0.425   5.774  0.9222  0.1264 -3.9783
  520MOL0     H70181  11.075  -0.328   5.822  0.3154  0.4631  0.1821
  520MOL0     H70182  10.480  -0.233   5.102  1.1528 -4.2894  0.0035
  520MOL0     H70183  10.270  -0.155   5.015  1.2252  0.8038  0.4768
  520MOL0     H70184   9.696  -0.185   5.274 -1.2055  0.7167 -0.1061
  520MOL0     H70185   9.483  -0.092   5.178  2.4053  0.8099  2.1742
  520MOL0     H70186   7.822   0.666   4.478  1.8235  0.4934 -0.6280
  520MOL0     H70187   7.587   0.642   4.460 -0.8703  0.2981 -0.0427
  520MOL0     H70188   7.255   0.544   4.019 -2.4004 -1.8511 -2.0420
  520MOL0     H70189   7.037   0.470   3.966 -2.1745  2.4662  1.4670
  520MOL0     H70190   6.826   0.403   3.993  3.6572 -1.5054  0.9855
  520MOL0     H70191   6.872   0.235   3.956 -0.4265 -1.2254  0.4440
  520MOL0     H70192   6.594   0.333   4.059 -2.8322  0.2486 -3.1238
  520MOL0     H70193   6.652   0.164   4.075  0.3779  1.6324  2.3371
  520MOL0     H70194   6.704   0.150   3.837  1.8798  1.6060 -0.5647
  520MOL0     H70195   6.676   0.313   3.809  0.1213  0.9934  0.2824
  520MOL0     H70196   6.509   0.135   3.738  1.1429  3.1973 -1.1553
  520MOL0     H70197   6.428   0.276   3.818 -0.1658 -0.4230 -1.0846
  520MOL0     H70198   6.322   0.003   4.111 -1.5369  0.2957 -0.9746
  520MOL0     H70199   6.990   0.315   4.367 -1.6949  0.4066 -0.1756
  520MOL0     H70200   7.200   0.433   4.437 -1.2131  2.0237  0.2894
  521MOL0     O70201   3.133   1.222   6.859 -0.1154  0.0169  0.4906
  521MOL0     C70202   3.156   1.108   6.808  0.1133 -0.5805 -0.3877
  521MOL0     O70203   3.151   0.988   6.886  0.3666 -0.5092  0.4485
  521MOL0     C70204   3.121   1.022   7.018  0.1245  0.5949 -0.7183
  521MOL0     C70205   2.987   1.023   7.059 -0.8819 -0.4956  0.1735
  521MOL0     C70206   2.957   1.066   7.192  0.3464 -0.2094  0.8510
  521MOL0     C70207   3.055   1.081   7.291 -0.5260 -0.2056  1.1367
  521MOL0     O70208   3.020   1.126   7.412  0.2064  0.3310  0.2004
  521MOL0     C70209   3.058   1.038   7.516 -0.7378 -0.0229 -0.3260
  521MOL0     C70210   3.000   1.091   7.640 -0.0265  0.9162 -0.0922
  521MOL0     C70211   3.030   0.996   7.750  0.4187  1.0128  0.9357
  521MOL0     C70212   2.917   1.021   7.854 -0.2826  0.0504 -0.4111
  521MOL0     C70213   2.964   0.969   7.985 -0.2794  1.0151  0.7389
  521MOL0     C70214   2.876   0.990   8.109  0.5606 -0.0492  0.3548
  521MOL0     C70215   2.721   0.974   8.079 -0.2463  0.6271 -0.4729
  521MOL0     C70216   2.656   0.838   8.098  0.9220  0.6541  0.5440
  521MOL0     N70217   2.676   0.745   7.987 -0.1840 -0.3881 -0.1580
  521MOL0     C70218   2.774   0.649   7.975  0.5251 -0.2247 -0.0550
  521MOL0     C70219   2.742   0.583   7.864  0.3738  0.7198  0.1345
  521MOL0     C70220   2.812   0.468   7.807  0.0915  0.1765 -0.0861
  521MOL0     C70221   2.874   0.492   7.669  0.7746 -0.4709 -0.1029
  521MOL0     C70222   2.964   0.615   7.673  0.3202  0.7767  0.4021
  521MOL0     C70223   3.078   0.612   7.772  0.1909  0.1094 -0.1666
  521MOL0     O70224   3.152   0.492   7.764 -0.1523  0.0185 -0.1037
  521MOL0     C70225   3.232   0.471   7.644 -0.3436  0.2257 -0.7172
  521MOL0     C70226   3.292   0.577   7.574  0.5996 -1.3910 -1.2288
  521MOL0     C70227   3.366   0.546   7.456 -0.3840 -0.1671 -0.1260
  521MOL0     C70228   3.427   0.663   7.383 -0.1298 -1.0729  0.2370
  521MOL0     C70229   3.370   0.416   7.417  0.0307 -0.3730 -1.0898
  521MOL0     C70230   3.451   0.375   7.306  1.4288 -0.1280  0.2148
  521MOL0     O70231   3.405   0.258   7.253 -0.8500 -0.2439 -0.1420
  521MOL0     C70232   3.478   0.194   7.161 -0.5157  0.5160 -0.0853
  521MOL0     C70233   3.604   0.137   7.192 -0.1519 -0.4326  0.5423
  521MOL0     C70234   3.690   0.092   7.080  0.1247  0.3185  0.4857
  521MOL0     C70235   3.647   0.100   6.951 -0.0315 -0.3948  0.9807
  521MOL0     O70236   3.720   0.050   6.841  0.3957 -0.0066 -0.0612
  521MOL0     C70237   3.750   0.135   6.723  0.1715  0.5974  0.2593
  521MOL0     C70238   3.787   0.034   6.613  0.2324  0.0363  0.0784
  521MOL0     C70239   3.834   0.131   6.492 -0.8854 -0.0321 -0.4051
  521MOL0     C70240   3.736   0.122   6.379 -0.6453 -0.4472  0.6721
  521MOL0     C70241   3.782   0.215   6.263 -0.8637 -0.0539  0.6345
  521MOL0     C70242   3.758   0.359   6.296  0.6015  0.2178  0.0530
  521MOL0     C70243   3.739   0.432   6.169 -0.2390 -1.4933 -0.0193
  521MOL0     C70244   3.732   0.586   6.201 -0.6715 -0.1485  0.0884
  521MOL0    Cl70245   3.887   0.639   6.269 -0.3771 -0.0874  0.0673
  521MOL0     C70246   3.525   0.163   6.928  0.2234 -0.8589  0.2002
  521MOL0     C70247   3.441   0.202   7.025 -1.0119 -0.3687  0.5682
  521MOL0     O70248   3.541   0.443   7.255  0.4377 -0.2226 -0.9880
  521MOL0     C70249   3.297   0.312   7.478  0.4043 -0.0594 -0.1808
  521MOL0     C70250   3.241   0.346   7.596 -0.1131  0.7964  0.3156
  521MOL0     N70251   2.622   0.630   7.809 -0.0921 -0.3685  0.1392
  521MOL0     N70252   2.587   0.735   7.880 -0.1077 -0.1098 -0.0810
  521MOL0     C70253   3.190   1.073   7.244 -0.0910 -0.0255  0.8178
  521MOL0     C70254   3.220   1.049   7.106 -0.7193  0.4022  0.1611
  521MOL0     C70255   3.203   1.093   6.671  0.4512 -1.3950  0.6701
  521MOL0     C70256   3.267   1.208   6.609  0.2916 -0.3865 -0.4315
  521MOL0     C70257   3.304   1.198   6.478 -0.9552 -0.4745  0.6263
  521MOL0     C70258   3.300   1.090   6.398 -0.4039  0.5003 -0.2931
  521MOL0     O70259   3.349   1.107   6.262  0.1970  0.5222 -0.3580
  521MOL0     C70260   3.406   0.998   6.184  0.5143  0.1019 -0.4481
  521MOL0     C70261   3.526   0.937   6.255  1.1693  0.0445 -0.4670
  521MOL0     C70262   3.650   1.017   6.239 -0.1859  1.0712 -0.7004
  521MOL0     C70263   3.654   1.153   6.315 -0.0992  0.6910 -0.6840
  521MOL0     C70264   3.781   1.221   6.273  0.1530 -0.9798  0.1580
  521MOL0     C70265   3.884   1.272   6.235 -0.4638  0.1804 -0.5055
  521MOL0     C70266   3.241   0.979   6.462 -0.1636  1.2458 -0.7324
  521MOL0     C70267   3.191   0.970   6.598  0.1081 -0.0065 -0.3263
  521MOL0     H70268   2.909   1.004   6.985 -1.2771 -2.5811  1.0681
  521MOL0     H70269   2.857   1.100   7.218  0.8058  2.5441 -0.5607
  521MOL0     H70270   3.017   0.940   7.489 -1.1677 -0.1740  0.8206
  521MOL0     H70271   3.165   1.027   7.533 -0.2636  2.1617 -1.5550
  521MOL0     H70272   3.036   1.191   7.667 -2.7306  1.5650  1.4845
  521MOL0     H70273   2.892   1.102   7.625 -0.2548 -2.3754 -1.6267
  521MOL0     H70274   3.015   0.894   7.713  1.8482 -0.3678  3.8387
  521MOL0     H70275   3.133   0.999   7.788  0.8095 -2.0924  0.3727
  521MOL0     H70276   2.897   1.125   7.881 -0.8662 -0.7331  2.6447
  521MOL0     H70277   2.823   0.972   7.827 -1.0392  1.1143  0.2309
  521MOL0     H70278   2.974   0.862   7.967  2.8773  1.3701 -0.2811
  521MOL0     H70279   3.064   1.013   7.998  1.4383 -1.6262 -2.0848
  521MOL0     H70280   2.902   0.931   8.197 -0.8165 -0.1392  0.7125
  521MOL0     H70281   2.886   1.095   8.139  0.1020 -0.2992  1.4017
  521MOL0     H70282   2.663   1.040   8.144  0.3812  3.3744 -2.4981
  521MOL0     H70283   2.697   1.008   7.978 -2.2476 -0.5243 -0.4410
  521MOL0     H70284   2.549   0.849   8.117  0.2411 -2.5910 -0.8055
  521MOL0     H70285   2.693   0.790   8.190 -2.2719 -0.1892  1.5145
  521MOL0     H70286   2.853   0.629   8.047 -0.8454  2.8009  2.5793
  521MOL0     H70287   2.891   0.439   7.876 -0.1477 -0.2824 -0.0035
  521MOL0     H70288   2.750   0.377   7.803  0.3438 -0.0108  0.2228
  521MOL0     H70289   2.794   0.501   7.594 -0.2237  0.0052  0.9859
  521MOL0     H70290   2.936   0.407   7.638  1.2192  0.1643 -1.0064
  521MOL0     H70291   2.901   0.702   7.693  1.7314  1.3706  2.6341
  521MOL0     H70292   3.004   0.630   7.573  0.9399 -2.4034  0.0390
  521MOL0     H70293   3.044   0.628   7.874  1.9051  1.5233  0.2369
  521MOL0     H70294   3.138   0.702   7.755  0.1152  0.4857  1.3999
  521MOL0     H70295   3.292   0.677   7.616  0.5836 -1.6893 -0.4986
  521MOL0     H70296   3.533   0.668   7.407 -0.7743  0.3860  3.2926
  521MOL0     H70297   3.411   0.645   7.276  2.0945 -0.9481 -0.1530
  521MOL0     H70298   3.381   0.760   7.404 -2.0767 -1.2075 -2.7596
  521MOL0     H70299   3.646   0.140   7.292 -1.2964 -1.9172  1.0898
  521MOL0     H70300   3.779   0.031   7.097 -1.2997 -1.3870  2.3902
  521MOL0     H70301   3.653   0.173   6.687  1.0808 -0.0603 -3.2489
  521MOL0     H70302   3.817   0.218   6.746  0.3352  0.4739  0.2291
  521MOL0     H70303   3.870  -0.029   6.645  1.0521  1.6349  1.2150
  521MOL0     H70304   3.704  -0.032   6.585 -3.8503  4.1174  1.5199
  521MOL0     H70305   3.928   0.090   6.453  0.6817  1.4373  1.6090
  521MOL0     H70306   3.856   0.232   6.528 -0.6463 -1.3134  3.5312
  521MOL0     H70307   3.743   0.018   6.348  4.6952  0.0716 -1.0014
  521MOL0     H70308   3.635   0.152   6.407 -0.1498 -0.8202  3.1298
  521MOL0     H70309   3.752   0.167   6.169  0.7917 -2.7566  1.3827
  521MOL0     H70310   3.887   0.188   6.247 -1.1827 -0.5641 -0.7439
  521MOL0     H70311   3.662   0.365   6.348  1.3365 -3.1499  2.1531
  521MOL0     H70312   3.837   0.396   6.362  2.0298 -2.7896  0.2440
  521MOL0     H70313   3.656   0.404   6.104 -0.6899  2.8742 -1.6941
  521MOL0     H70314   3.826   0.418   6.106  0.0109  1.8202 -0.6073
  521MOL0     H70315   3.644   0.616   6.257  0.8270  1.3546  1.7588
  521MOL0     H70316   3.727   0.650   6.112 -4.8246  1.5256  1.3036
  521MOL0     H70317   3.499   0.180   6.824 -1.9419 -1.0469  0.6746
  521MOL0     H70318   3.353   0.261   6.998 -0.0357  0.7383 -0.3390
  521MOL0     H70319   3.287   0.212   7.437  2.4352 -0.0903 -0.6866
  521MOL0     H70320   3.186   0.271   7.651  0.9626 -0.2727 -0.0393
  521MOL0     H70321   3.270   1.102   7.312 -1.6024  0.8486  2.2972
  521MOL0     H70322   3.320   1.045   7.063  0.5210 -1.3784  2.9608
  521MOL0     H70323   3.283   1.308   6.648  2.5182 -1.1475  0.7698
  521MOL0     H70324   3.335   1.293   6.436 -2.0601 -0.2385  0.3202
  521MOL0     H70325   3.332   0.918   6.175  0.9406 -0.1723 -1.6615
  521MOL0     H70326   3.439   1.025   6.084  1.9774  1.7757  0.4209
  521MOL0     H70327   3.547   0.843   6.203  0.1374  0.2673 -1.3362
  521MOL0     H70328   3.515   0.915   6.362 -4.6059 -0.1715 -0.7646
  521MOL0     H70329   3.684   1.045   6.139  0.6328  1.0481 -0.4367
  521MOL0     H70330   3.737   0.961   6.273 -1.1530 -1.2410 -1.7792
  521MOL0     H70331   3.649   1.142   6.424  0.1633  2.0919 -0.5221
  521MOL0     H70332   3.570   1.221   6.300 -0.4798  0.9908  2.1742
  521MOL0     H70333   3.979   1.319   6.220 -0.4972  1.1837  2.0840
  521MOL0     H70334   3.254   0.883   6.413  2.8168 -0.4943  2.9840
  521MOL0     H70335   3.145   0.878   6.634  1.1172  0.5985  2.7035
  522MOL0     O70336   6.956   7.507   4.951  0.6261 -0.5818  0.6728
  522MOL0     C70337   7.061   7.456   4.903  0.1559 -0.6867  0.2316
  522MOL0     O70338   7.161   7.380   4.970 -0.1697  0.2882 -0.3987
  522MOL0     C70339   7.150   7.336   5.102  0.7973  0.6279  0.4436
  522MOL0     C70340   7.267   7.279   5.154 -0.4062 -0.1052 -0.3941
  522MOL0     C70341   7.266   7.220   5.284  0.1363 -1.0002  0.0857
  522MOL0     C70342   7.149   7.215   5.359 -0.2947 -0.1613 -0.2284
  522MOL0     O70343   7.164   7.153   5.480 -0.8542 -0.1445 -0.5941
  522MOL0     C70344   7.050   7.142   5.555  0.3888 -1.7430 -0.2833
  522MOL0     C70345   7.084   7.082   5.691 -0.6269 -0.5919  0.1104
  522MOL0     C70346   7.083   6.926   5.685 -0.1457 -0.1663 -1.1964
  522MOL0     C70347   6.947   6.870   5.701 -0.0867 -0.6930 -0.1057
  522MOL0     C70348   6.935   6.723   5.742 -0.2109  0.5870  0.0946
  522MOL0     C70349   6.941   6.616   5.623 -0.3695 -1.2133  1.0907
  522MOL0     C70350   6.894   6.474   5.662 -0.0883 -0.0168 -0.2301
  522MOL0     C70351   7.009   6.411   5.737 -0.2054 -0.0244  0.7119
  522MOL0     N70352   6.981   6.270   5.775 -0.4384 -0.1430 -0.0610
  522MOL0     C70353   6.984   6.205   5.892 -0.4337  0.3948 -0.6733
  522MOL0     C70354   6.909   6.089   5.888 -0.4624 -1.1279  1.0699
  522MOL0     C70355   6.884   5.999   6.002  0.3097  0.3502 -0.1806
  522MOL0     C70356   6.787   6.059   6.102 -0.1981  0.2026  0.3174
  522MOL0     C70357   6.760   5.957   6.211  0.2129  0.0682 -0.1013
  522MOL0     C70358   6.707   6.015   6.342  0.2493 -0.0699 -0.0859
  522MOL0     O70359   6.588   6.082   6.326 -0.6742 -0.1651 -0.0745
  522MOL0     C70360   6.555   6.179   6.417 -0.5440  1.2746  0.0418
  522MOL0     C70361   6.615   6.192   6.545 -1.1984 -1.1040  0.6051
  522MOL0     C70362   6.573   6.286   6.630  0.1618 -1.2783  0.6426
  522MOL0     C70363   6.656   6.320   6.757 -0.3062 -0.1090 -0.2701
  522MOL0     C70364   6.442   6.351   6.594 -0.2311  0.0342  0.6044
  522MOL0     C70365   6.369   6.427   6.691 -0.5968  0.0453 -0.6404
  522MOL0     O70366   6.420   6.554   6.713 -0.3682 -0.4440  0.6014
  522MOL0     C70367   6.366   6.622   6.811 -0.0133  0.1846 -0.2827
  522MOL0     C70368   6.373   6.582   6.952  0.7773  0.2866 -0.5970
  522MOL0     C70369   6.317   6.655   7.051  0.2071 -0.1871 -0.9343
  522MOL0     C70370   6.252   6.775   7.022 -0.2864 -0.0177  0.1903
  522MOL0     O70371   6.173   6.830   7.129  0.3860 -0.0710 -0.4563
  522MOL0     C70372   6.078   6.937   7.097  0.3419  0.7241  0.3040
  522MOL0     C70373   5.999   6.958   7.227  1.5386 -0.1253  0.2362
  522MOL0     C70374   6.090   7.011   7.345  0.3804 -0.0668 -0.4017
  522MOL0     C70375   5.987   7.036   7.464 -0.0750  0.4931 -0.6550
  522MOL0     C70376   6.045   7.061   7.597 -0.1450 -0.6003 -0.2722
  522MOL0     C70377   6.104   7.204   7.604 -0.2211  1.4467 -0.3951
  522MOL0     C70378   6.234   7.210   7.695  0.4498  0.2225  1.1965
  522MOL0     C70379   6.188   7.176   7.835  0.2976 -0.3029 -0.8656
  522MOL0    Cl70380   6.316   7.185   7.964 -0.1657  0.0177 -0.3390
  522MOL0     C70381   6.236   6.813   6.885 -0.2391 -0.3267  0.8554
  522MOL0     C70382   6.294   6.735   6.785  0.1755 -0.5022  0.1182
  522MOL0     O70383   6.261   6.385   6.735 -0.5819  0.0219 -0.4485
  522MOL0     C70384   6.371   6.325   6.473  0.1115  0.0808  0.1798
  522MOL0     C70385   6.434   6.235   6.386  0.5727  0.3987  0.5239
  522MOL0     N70386   6.872   6.075   5.754 -0.4027 -0.1802  0.9296
  522MOL0     N70387   6.911   6.179   5.691 -0.2481  0.4245  0.6760
  522MOL0     C70388   7.034   7.273   5.303 -0.5092  0.0390 -0.0927
  522MOL0     C70389   7.034   7.331   5.181 -0.5610 -0.6185 -0.3429
  522MOL0     C70390   7.096   7.487   4.762  0.6997  0.5220 -0.2218
  522MOL0     C70391   7.019   7.576   4.684  0.7861 -0.6501  0.1595
  522MOL0     C70392   7.054   7.602   4.558  0.4251 -0.3017 -0.7173
  522MOL0     C70393   7.173   7.549   4.502  0.1724 -0.0959 -1.0754
  522MOL0     O70394   7.218   7.600   4.378 -0.4562 -0.2376 -0.4706
  522MOL0     C70395   7.337   7.545   4.309  0.1276 -0.4884 -0.5056
  522MOL0     C70396   7.304   7.507   4.170 -0.4529  0.6968  1.1328
  522MOL0     C70397   7.415   7.412   4.116  0.1275 -0.2146  0.9021
  522MOL0     C70398   7.372   7.333   3.999  0.5472 -0.3682  0.5729
  522MOL0     C70399   7.298   7.403   3.893  0.4000 -0.9801  0.5804
  522MOL0     C70400   7.232   7.469   3.809 -0.4652  0.2439  0.1580
  522MOL0     C70401   7.243   7.453   4.580 -0.3297  0.4934 -0.4948
  522MOL0     C70402   7.201   7.418   4.703  0.6163  0.0307 -0.1758
  522MOL0     H70403   7.356   7.285   5.092  0.2935  0.2476  0.6186
  522MOL0     H70404   7.361   7.176   5.312  0.3232  1.3019  3.7568
  522MOL0     H70405   7.011   7.242   5.576  0.7954 -0.2386 -5.4765
  522MOL0     H70406   6.976   7.075   5.510  1.5659 -2.0168 -1.9194
  522MOL0     H70407   7.182   7.117   5.724  0.0265 -0.0241 -2.2463
  522MOL0     H70408   7.016   7.126   5.765 -0.5236 -1.0073  0.4579
  522MOL0     H70409   7.130   6.903   5.589 -0.6927 -1.0110 -1.2718
  522MOL0     H70410   7.140   6.885   5.769 -1.5228 -1.2962 -0.7744
  522MOL0     H70411   6.898   6.936   5.774 -3.2340 -2.3219 -0.5724
  522MOL0     H70412   6.886   6.875   5.610 -0.3004  0.2042  0.0758
  522MOL0     H70413   7.018   6.704   5.812  0.8730 -1.0826 -1.5364
  522MOL0     H70414   6.843   6.712   5.799  0.6662  3.5623  2.3571
  522MOL0     H70415   6.876   6.646   5.540  0.2137  0.9717  1.3633
  522MOL0     H70416   7.037   6.620   5.571 -0.7241 -2.8135  0.2353
  522MOL0     H70417   6.803   6.485   5.722 -1.2626  2.3361 -2.2499
  522MOL0     H70418   6.872   6.421   5.568 -0.3405 -1.0225  0.3801
  522MOL0     H70419   7.028   6.468   5.829  1.3715  0.8331 -0.0983
  522MOL0     H70420   7.102   6.421   5.680  0.2524  2.0138  1.7013
  522MOL0     H70421   7.041   6.242   5.977 -1.2513  4.0194 -1.5284
  522MOL0     H70422   6.846   5.905   5.961 -0.6377  0.9235 -0.6470
  522MOL0     H70423   6.966   5.962   6.065 -0.5164  0.6870  1.1229
  522MOL0     H70424   6.696   6.094   6.051  0.7771  0.8816 -1.0205
  522MOL0     H70425   6.832   6.138   6.162 -3.0491  2.1597  0.0940
  522MOL0     H70426   6.849   5.894   6.221 -1.1247 -1.8429  0.5135
  522MOL0     H70427   6.681   5.890   6.175 -0.5241  0.6078  0.4792
  522MOL0     H70428   6.785   6.076   6.388  1.4388 -1.8971  0.4300
  522MOL0     H70429   6.684   5.940   6.418  0.9322  0.4246  0.6225
  522MOL0     H70430   6.696   6.133   6.586 -0.8297  0.1417  1.7332
  522MOL0     H70431   6.691   6.223   6.795 -1.6170 -0.4771  0.0556
  522MOL0     H70432   6.746   6.370   6.723 -0.6754  0.6270 -0.1922
  522MOL0     H70433   6.606   6.376   6.837 -1.9954 -0.5683 -0.9580
  522MOL0     H70434   6.428   6.497   6.990 -1.2980 -0.7828  0.1881
  522MOL0     H70435   6.328   6.631   7.156  2.2809 -3.3052 -1.6988
  522MOL0     H70436   6.129   7.032   7.075  0.6230  0.9358  1.7318
  522MOL0     H70437   6.008   6.919   7.016 -1.6290  1.2828  1.7992
  522MOL0     H70438   5.912   7.023   7.216 -1.2567 -3.5291  0.4213
  522MOL0     H70439   5.951   6.861   7.244  1.1402 -0.2406 -1.4003
  522MOL0     H70440   6.148   7.102   7.328 -0.0640  0.2527 -0.2225
  522MOL0     H70441   6.161   6.929   7.359  2.3778  1.7127  0.4862
  522MOL0     H70442   5.907   7.105   7.434 -0.4276  0.0350 -0.7844
  522MOL0     H70443   5.931   6.942   7.467  0.5706  0.0302 -2.0466
  522MOL0     H70444   6.122   6.985   7.611 -2.5467 -3.7463 -2.5938
  522MOL0     H70445   5.968   7.046   7.674 -0.9795 -1.2881 -1.2138
  522MOL0     H70446   6.137   7.226   7.502  1.0111 -2.8182 -1.1154
  522MOL0     H70447   6.030   7.274   7.645 -0.8611 -0.2449  1.5476
  522MOL0     H70448   6.276   7.312   7.692  2.0694 -0.3981 -2.8967
  522MOL0     H70449   6.298   7.137   7.646 -0.8006 -0.6812  0.8829
  522MOL0     H70450   6.143   7.076   7.835 -0.5315 -0.0896  2.7366
  522MOL0     H70451   6.118   7.256   7.860  2.1826  1.6551 -1.5003
  522MOL0     H70452   6.167   6.894   6.863  1.0952  0.6937  0.2657
  522MOL0     H70453   6.279   6.771   6.684  3.6969 -2.0486 -1.0955
  522MOL0     H70454   6.277   6.378   6.462 -1.1826 -2.3638 -1.5486
  522MOL0     H70455   6.402   6.210   6.286  4.4394  0.7621 -0.9877
  522MOL0     H70456   6.949   7.274   5.371  0.2907  0.5892  0.9300
  522MOL0     H70457   6.944   7.372   5.138  0.6569  1.1459 -1.3314
  522MOL0     H70458   6.936   7.637   4.721  0.5170 -0.5259 -0.6097
  522MOL0     H70459   7.003   7.676   4.498  0.3157 -0.9427 -1.4278
  522MOL0     H70460   7.419   7.616   4.323  1.9505 -2.1011 -2.3763
  522MOL0     H70461   7.376   7.452   4.352  2.3967  0.2150 -0.9040
  522MOL0     H70462   7.288   7.595   4.107 -0.9196 -0.5033 -0.4963
  522MOL0     H70463   7.212   7.448   4.166  1.5542 -2.6085 -1.2267
  522MOL0     H70464   7.434   7.341   4.197  0.8248  0.7170  1.5804
  522MOL0     H70465   7.507   7.468   4.100 -0.3028  0.4842  0.8360
  522MOL0     H70466   7.304   7.259   4.042 -1.1968 -0.3100 -1.8808
  522MOL0     H70467   7.461   7.282   3.959  0.3154  1.1287 -2.0985
  522MOL0     H70468   7.183   7.513   3.725  1.9644  1.5506 -0.6864
  522MOL0     H70469   7.338   7.403   4.561  1.4798  1.9332  3.6534
  522MOL0     H70470   7.253   7.337   4.753 -2.4402  0.5533  4.4322
  523MOL0     O70471   4.970   0.010   9.232 -0.4059 -0.1427 -0.1598
  523MOL0     C70472   5.063   0.053   9.170  0.3514 -0.0052  0.0799
  523MOL0     O70473   5.124  -0.015   9.061  0.4995  1.1995 -0.4526
  523MOL0     C70474   5.075  -0.135   9.026 -0.1089  0.4168 -0.0655
  523MOL0     C70475   5.169  -0.229   9.008 -1.2676  0.1459 -0.3465
  523MOL0     C70476   5.139  -0.358   8.980  0.1106 -0.2455 -0.4691
  523MOL0     C70477   5.007  -0.409   8.994 -0.1453 -0.7416 -0.0782
  523MOL0     O70478   4.956  -0.531   8.977 -0.5787  0.9205 -0.3637
  523MOL0     C70479   5.035  -0.610   8.885  0.8591  0.9608 -0.8891
  523MOL0     C70480   4.979  -0.752   8.879  0.0716  0.4408  0.9595
  523MOL0     C70481   4.981  -0.821   9.013 -0.3824 -0.0040 -0.1046
  523MOL0     C70482   4.886  -0.947   9.000 -0.7842 -0.0004 -0.2433
  523MOL0     C70483   4.871  -1.011   9.132  0.9274 -0.2339  0.4949
  523MOL0     C70484   4.746  -1.105   9.140  0.1707  0.1258 -0.2122
  523MOL0     C70485   4.776  -1.236   9.218  0.9272 -0.4952 -0.3275
  523MOL0     C70486   4.765  -1.221   9.363  0.5085 -0.0778 -0.2537
  523MOL0     N70487   4.797  -1.346   9.428 -0.3503  0.2805  0.8957
  523MOL0     C70488   4.866  -1.344   9.545  0.4119 -0.2600 -0.7361
  523MOL0     C70489   4.881  -1.475   9.589 -0.5879 -0.2566  0.0788
  523MOL0     C70490   4.958  -1.518   9.703  0.0910  0.2779  0.3592
  523MOL0     C70491   5.091  -1.596   9.675 -0.5193  0.1743  0.2253
  523MOL0     C70492   5.076  -1.748   9.689  0.1658 -0.4242 -0.8523
  523MOL0     C70493   5.053  -1.781   9.846 -0.1203 -0.4288  0.1615
  523MOL0     O70494   5.000  -1.910   9.858 -0.4455 -0.3614  0.3222
  523MOL0     C70495   4.905  -1.933   9.957 -0.0302 -0.5658 -0.2943
  523MOL0     C70496   4.906  -1.866  10.089 -0.0135 -0.8760  0.5496
  523MOL0     C70497   4.808  -1.881  10.176  0.0517  0.7609 -0.4839
  523MOL0     C70498   4.833  -1.836  10.314  0.3694 -0.0233  0.3656
  523MOL0     C70499   4.692  -1.961  10.141  0.2992 -0.2113 -0.3423
  523MOL0     C70500   4.573  -1.972  10.235 -0.3836 -0.0316  0.4048
  523MOL0     O70501   4.494  -2.085  10.218 -0.1104 -0.0399 -0.4712
  523MOL0     C70502   4.381  -2.084  10.300  0.5145 -0.2645  0.5953
  523MOL0     C70503   4.390  -2.093  10.441 -0.6253 -0.5050  0.1318
  523MOL0     C70504   4.279  -2.119  10.518 -0.1431 -0.6751  0.1631
  523MOL0     C70505   4.155  -2.125  10.466 -0.2609 -0.1999  0.0962
  523MOL0     O70506   4.051  -2.138  10.547 -0.2039  0.3884  0.5228
  523MOL0     C70507   3.913  -2.131  10.499 -0.5341 -0.5320 -0.2743
  523MOL0     C70508   3.818  -2.152  10.613 -0.4006 -0.2508  0.2217
  523MOL0     C70509   3.841  -2.070  10.742  0.3415 -0.0446  0.1972
  523MOL0     C70510   3.742  -2.111  10.850 -0.3272 -0.3755 -1.0014
  523MOL0     C70511   3.595  -2.093  10.804 -0.6847  0.2255 -1.2858
  523MOL0     C70512   3.507  -2.076  10.918  0.7384 -0.3933 -0.3587
  523MOL0     C70513   3.360  -2.075  10.880 -1.1900 -0.6158  0.5538
  523MOL0     C70514   3.261  -2.123  10.989 -1.1040  0.6819 -0.1494
  523MOL0    Cl70515   3.295  -2.303  11.029 -0.5295  0.2197 -0.0523
  523MOL0     C70516   4.137  -2.091  10.325 -0.3989  0.2573 -0.7060
  523MOL0     C70517   4.255  -2.068  10.251 -0.8641  0.9430  0.0252
  523MOL0     O70518   4.549  -1.873  10.302  0.4860 -0.4866 -0.0233
  523MOL0     C70519   4.699  -2.042  10.025 -0.5408  0.3162  0.3908
  523MOL0     C70520   4.803  -2.030   9.932 -0.2521 -0.4044 -1.3178
  523MOL0     N70521   4.825  -1.557   9.487 -1.4922 -0.9407 -0.3376
  523MOL0     N70522   4.784  -1.476   9.386 -0.0361 -1.5616 -0.5987
  523MOL0     C70523   4.905  -0.309   9.032  0.0393  0.4424 -0.1892
  523MOL0     C70524   4.938  -0.176   9.042  0.0956 -0.1276 -0.3016
  523MOL0     C70525   5.100   0.194   9.189  0.2502  0.5998 -0.1351
  523MOL0     C70526   5.018   0.289   9.252  0.3499  0.0863  0.4033
  523MOL0     C70527   5.058   0.428   9.270  0.1954  0.9018  0.0970
  523MOL0     C70528   5.188   0.474   9.222  0.9304 -0.3908  0.0372
  523MOL0     O70529   5.214   0.612   9.241  0.0583  0.7895  0.3020
  523MOL0     C70530   5.311   0.669   9.140 -0.7857 -0.0090  0.0100
  523MOL0     C70531   5.333   0.819   9.163 -0.0493  0.1064 -0.4112
  523MOL0     C70532   5.408   0.851   9.294  0.0416 -0.7549 -0.8566
  523MOL0     C70533   5.330   0.865   9.421  0.9599 -0.2966  0.6958
  523MOL0     C70534   5.420   0.908   9.527 -0.4431 -0.2466  0.5522
  523MOL0     C70535   5.478   0.947   9.628  0.2849  0.6012  0.6787
  523MOL0     C70536   5.262   0.377   9.155  0.0295  0.3340 -0.0656
  523MOL0     C70537   5.225   0.243   9.142 -0.2561 -0.1946  0.1312
  523MOL0     H70538   5.274  -0.202   9.000 -1.3439  0.5571 -0.0114
  523MOL0     H70539   5.221  -0.429   8.966 -0.4817 -1.1440  0.5153
  523MOL0     H70540   5.029  -0.560   8.788  1.8107  2.4565 -0.2063
  523MOL0     H70541   5.139  -0.626   8.915  0.5275  0.0812 -0.1660
  523MOL0     H70542   4.878  -0.741   8.837  0.2505 -1.2139  0.0201
  523MOL0     H70543   5.030  -0.818   8.809 -1.9162 -1.9472  1.5984
  523MOL0     H70544   5.078  -0.866   9.037 -1.2109 -1.1588  1.3358
  523MOL0     H70545   4.945  -0.752   9.090  0.5854  0.4024 -0.0007
  523MOL0     H70546   4.790  -0.919   8.955 -1.3971  1.4330  1.8316
  523MOL0     H70547   4.929  -1.028   8.939 -1.1555  0.4670 -1.1495
  523MOL0     H70548   4.958  -1.077   9.148  0.7704 -0.2018  1.5819
  523MOL0     H70549   4.867  -0.940   9.215 -0.5829  1.2510 -0.7748
  523MOL0     H70550   4.666  -1.060   9.199  0.0097 -2.0068  1.2809
  523MOL0     H70551   4.719  -1.140   9.040  0.4265 -0.8566  0.0511
  523MOL0     H70552   4.709  -1.316   9.186  1.7167 -1.1424 -0.3964
  523MOL0     H70553   4.875  -1.276   9.190 -0.0953 -4.2737  0.8658
  523MOL0     H70554   4.657  -1.210   9.380  0.4068 -1.6937  0.4162
  523MOL0     H70555   4.804  -1.127   9.402 -0.4906  1.4308 -2.7281
  523MOL0     H70556   4.914  -1.261   9.596  1.6188 -2.5031  2.1574
  523MOL0     H70557   4.989  -1.424   9.750  0.5217  1.0961 -1.4541
  523MOL0     H70558   4.900  -1.576   9.774  2.6234 -2.5197  0.3447
  523MOL0     H70559   5.164  -1.553   9.744 -2.0933  3.4603  0.0284
  523MOL0     H70560   5.127  -1.573   9.574  1.1366 -1.3412  0.4169
  523MOL0     H70561   5.164  -1.787   9.637  1.3713  2.3465 -1.0862
  523MOL0     H70562   4.985  -1.771   9.632 -0.8977  0.5742  0.3737
  523MOL0     H70563   4.977  -1.712   9.883  3.0367  4.7807 -1.8705
  523MOL0     H70564   5.146  -1.755   9.896  0.3923  2.8989 -2.1802
  523MOL0     H70565   4.993  -1.803  10.102 -0.8386  1.9384 -4.6673
  523MOL0     H70566   4.934  -1.796  10.333  0.7727 -0.6178 -0.4379
  523MOL0     H70567   4.766  -1.752  10.335  0.9436  0.4240  0.4390
  523MOL0     H70568   4.801  -1.917  10.379  0.6092 -0.4602 -0.0555
  523MOL0     H70569   4.488  -2.111  10.484  0.6849  0.5754 -2.2409
  523MOL0     H70570   4.273  -2.135  10.625 -2.1564 -0.5690  0.1030
  523MOL0     H70571   3.898  -2.026  10.470  0.8885 -0.7079 -1.8546
  523MOL0     H70572   3.878  -2.190  10.414 -4.0781 -0.7722  1.1993
  523MOL0     H70573   3.720  -2.120  10.578 -0.1605 -1.5003 -1.7966
  523MOL0     H70574   3.818  -2.260  10.635  2.0126 -0.1482  1.0492
  523MOL0     H70575   3.821  -1.966  10.715 -2.4570 -0.0043  2.0422
  523MOL0     H70576   3.941  -2.092  10.782 -0.1648 -5.1085 -0.5710
  523MOL0     H70577   3.762  -2.215  10.877 -0.4977 -0.1235  0.1530
  523MOL0     H70578   3.755  -2.050  10.940 -0.5882  0.6354 -1.6411
  523MOL0     H70579   3.560  -2.171  10.737 -1.2192  0.7345 -1.6069
  523MOL0     H70580   3.588  -1.998  10.749  0.2487  0.7906 -0.4717
  523MOL0     H70581   3.512  -2.159  10.988 -0.3393  0.8348  1.2664
  523MOL0     H70582   3.530  -1.987  10.978  0.8988 -0.7237  0.0700
  523MOL0     H70583   3.348  -2.137  10.791  1.4477  0.8763 -0.9867
  523MOL0     H70584   3.344  -1.972  10.846 -2.1452 -1.6734 -2.6156
  523MOL0     H70585   3.156  -2.114  10.962 -0.3348  1.6478 -3.2610
  523MOL0     H70586   3.280  -2.065  11.081 -2.9033  3.6443 -1.4912
  523MOL0     H70587   4.044  -2.088  10.269 -0.5875  0.8562 -0.3669
  523MOL0     H70588   4.245  -2.054  10.144 -0.5306 -0.4220 -0.2071
  523MOL0     H70589   4.618  -2.106   9.991 -1.5340  0.6889  1.9331
  523MOL0     H70590   4.802  -2.095   9.845 -1.2693 -0.2204 -1.4613
  523MOL0     H70591   4.799  -0.333   9.035  0.5554 -2.2970 -0.9457
  523MOL0     H70592   4.853  -0.108   9.043 -0.3548 -0.6109 -1.9981
  523MOL0     H70593   4.923   0.254   9.291 -0.0838 -1.9281 -2.1459
  523MOL0     H70594   4.993   0.495   9.325  0.3804  2.2188 -1.2076
  523MOL0     H70595   5.413   0.631   9.147 -1.7741 -2.6852  2.1377
  523MOL0     H70596   5.261   0.646   9.045 -3.1966 -2.1965  1.6375
  523MOL0     H70597   5.236   0.871   9.167  1.0186  2.0886  1.8705
  523MOL0     H70598   5.389   0.864   9.080 -1.0563 -0.1003 -1.2309
  523MOL0     H70599   5.463   0.945   9.282  0.6006 -0.5765  2.2588
  523MOL0     H70600   5.486   0.777   9.312 -0.5221 -0.7827  1.9351
  523MOL0     H70601   5.288   0.766   9.444 -0.2554 -0.3855 -1.6256
  523MOL0     H70602   5.249   0.934   9.399  0.7156 -0.7230  0.2357
  523MOL0     H70603   5.521   0.984   9.719 -0.9996 -0.7749  1.8863
  523MOL0     H70604   5.359   0.407   9.115 -0.9294  2.5066 -0.9395
  523MOL0     H70605   5.295   0.175   9.095 -0.6216 -0.8437  0.5058
  524MOL0     O70606   2.244   4.111   7.557  0.1426 -0.6314  0.0345
  524MOL0     C70607   2.300   4.022   7.620 -0.6371 -0.2283 -0.1439
  524MOL0     O70608   2.441   4.013   7.632 -0.2612  0.2243 -0.3401
  524MOL0     C70609   2.525   4.119   7.611 -0.5457 -0.3434  0.6642
  524MOL0     C70610   2.654   4.085   7.567 -0.4923 -0.1162 -0.4823
  524MOL0     C70611   2.750   4.185   7.548  0.1812  0.0952 -0.4591
  524MOL0     C70612   2.718   4.325   7.575  0.1010 -0.0255 -0.0612
  524MOL0     O70613   2.795   4.427   7.529  0.4318 -0.1011  0.0776
  524MOL0     C70614   2.937   4.414   7.571  0.1256 -0.3751  0.3590
  524MOL0     C70615   3.002   4.554   7.533  0.4402 -0.2602 -0.8636
  524MOL0     C70616   3.143   4.553   7.600 -0.0266 -0.0055 -0.1480
  524MOL0     C70617   3.206   4.687   7.565  0.1374 -0.7227  0.9823
  524MOL0     C70618   3.358   4.709   7.578 -0.3630 -0.2667  0.4054
  524MOL0     C70619   3.390   4.822   7.491 -0.0478 -0.1731  0.6287
  524MOL0     C70620   3.541   4.850   7.491  0.4631  0.0918  0.3253
  524MOL0     C70621   3.599   4.931   7.609  0.2782  0.1458 -0.7790
  524MOL0     N70622   3.587   5.070   7.591  0.0016 -0.2963  0.8594
  524MOL0     C70623   3.615   5.146   7.477 -0.1686 -0.5497 -0.7107
  524MOL0     C70624   3.560   5.257   7.504  0.6810 -0.2266  0.7865
  524MOL0     C70625   3.552   5.378   7.426  0.2984 -0.2515  0.2637
  524MOL0     C70626   3.501   5.375   7.280 -0.1227 -0.4051 -0.1163
  524MOL0     C70627   3.533   5.492   7.189  0.0307 -0.5940  0.8509
  524MOL0     C70628   3.475   5.628   7.245 -0.8792  0.0389  0.4798
  524MOL0     O70629   3.354   5.661   7.185  0.3158 -0.6050  0.1223
  524MOL0     C70630   3.274   5.758   7.247  0.2508  0.1260  0.5034
  524MOL0     C70631   3.313   5.833   7.355 -0.0598 -0.6797 -0.0951
  524MOL0     C70632   3.231   5.944   7.403 -0.5098  0.0743  0.6738
  524MOL0     C70633   3.287   6.038   7.496 -0.0621 -0.4921 -0.4664
  524MOL0     C70634   3.100   5.963   7.345 -0.2003  0.2911  0.4643
  524MOL0     C70635   3.003   6.069   7.377 -0.5459 -0.1900 -0.6275
  524MOL0     O70636   2.891   6.070   7.309  0.0278  0.2126  0.0218
  524MOL0     C70637   2.798   6.166   7.324  0.0857  0.4405 -0.1879
  524MOL0     C70638   2.839   6.297   7.290  0.9201 -0.0762  0.0138
  524MOL0     C70639   2.740   6.402   7.292 -0.4624 -0.0543  0.8178
  524MOL0     C70640   2.609   6.357   7.318  1.4082 -0.0265  1.0395
  524MOL0     O70641   2.513   6.461   7.321  0.3310  0.1251 -0.0749
  524MOL0     C70642   2.382   6.438   7.268  1.3535  0.4445  0.4164
  524MOL0     C70643   2.282   6.549   7.300 -0.0119  0.1884  0.2268
  524MOL0     C70644   2.351   6.681   7.294  0.5381 -0.2975  0.7213
  524MOL0     C70645   2.243   6.796   7.281 -0.5554  0.1527 -0.5661
  524MOL0     C70646   2.285   6.935   7.213 -0.1568  0.6349  0.4666
  524MOL0     C70647   2.326   7.041   7.319  0.7978 -1.0243 -0.3094
  524MOL0     C70648   2.448   7.006   7.408  0.1838  0.9507  0.6067
  524MOL0     C70649   2.581   6.984   7.326  0.5000 -0.4257 -0.8648
  524MOL0    Cl70650   2.612   7.121   7.217  0.1457  0.2768 -0.0492
  524MOL0     C70651   2.581   6.225   7.352 -0.3166  0.1874  0.6012
  524MOL0     C70652   2.673   6.125   7.347  0.2027 -0.3715 -0.5365
  524MOL0     O70653   3.023   6.139   7.474  0.2308  0.2184  0.5127
  524MOL0     C70654   3.067   5.875   7.237 -0.7230  0.0716  0.6786
  524MOL0     C70655   3.151   5.781   7.194  0.5406 -0.1490  0.1896
  524MOL0     N70656   3.472   5.246   7.618 -0.2401 -0.1355  0.4428
  524MOL0     N70657   3.496   5.137   7.668  0.5705 -0.3289 -0.7221
  524MOL0     C70658   2.594   4.348   7.624 -0.8524  0.6625  0.2315
  524MOL0     C70659   2.495   4.247   7.656 -0.3245 -0.5873  1.2448
  524MOL0     C70660   2.209   3.919   7.682  0.7981  0.6907 -0.8726
  524MOL0     C70661   2.085   3.951   7.725  0.2011 -1.3099 -0.4111
  524MOL0     C70662   1.991   3.859   7.765  0.0233 -0.1049  0.2147
  524MOL0     C70663   2.028   3.718   7.774 -0.4264  0.0178 -0.1089
  524MOL0     O70664   1.954   3.612   7.814 -0.3127  0.7986  0.1672
  524MOL0     C70665   1.856   3.641   7.914  0.3574  1.2483  1.0702
  524MOL0     C70666   1.706   3.635   7.866 -0.0180 -0.2699 -0.1828
  524MOL0     C70667   1.655   3.495   7.825  0.4008 -0.3722  0.0476
  524MOL0     C70668   1.501   3.492   7.781 -0.7570  0.4333 -0.4800
  524MOL0     C70669   1.419   3.503   7.896 -1.0970 -0.2714 -0.2851
  524MOL0     C70670   1.354   3.510   7.996  0.3262  0.3958  0.0072
  524MOL0     C70671   2.157   3.686   7.744 -0.3761 -0.0301  0.0759
  524MOL0     C70672   2.246   3.784   7.699 -0.2427  0.8904  0.6880
  524MOL0     H70673   2.682   3.980   7.563  0.5151  0.0786  0.8507
  524MOL0     H70674   2.849   4.156   7.514  1.7177  1.0493  2.7763
  524MOL0     H70675   2.936   4.403   7.680 -3.1911 -1.7741  0.2891
  524MOL0     H70676   2.984   4.334   7.513 -1.7671 -0.5465 -1.0082
  524MOL0     H70677   3.026   4.562   7.426  2.8944 -0.2998 -0.3680
  524MOL0     H70678   2.939   4.637   7.565  1.6210  0.2231  0.2969
  524MOL0     H70679   3.141   4.543   7.709 -2.4357 -0.3007 -0.1610
  524MOL0     H70680   3.211   4.471   7.576 -2.5425 -3.3353  3.0062
  524MOL0     H70681   3.179   4.703   7.461  2.0969  3.9728  0.9163
  524MOL0     H70682   3.150   4.766   7.616 -1.3294 -0.5072 -0.8725
  524MOL0     H70683   3.368   4.743   7.681 -3.4113  1.7686  0.1527
  524MOL0     H70684   3.420   4.622   7.554 -1.3095 -0.7287 -0.4525
  524MOL0     H70685   3.354   4.802   7.390 -0.4644 -0.8139  0.8988
  524MOL0     H70686   3.321   4.899   7.527  0.5306 -0.6166  2.8023
  524MOL0     H70687   3.590   4.752   7.490  1.7328  0.6158  3.1444
  524MOL0     H70688   3.570   4.890   7.393 -1.8946 -0.2433 -0.5893
  524MOL0     H70689   3.705   4.906   7.604  0.0040 -0.8499 -2.0744
  524MOL0     H70690   3.549   4.893   7.698 -0.2942 -0.3458 -1.2998
  524MOL0     H70691   3.684   5.122   7.397  1.2626  0.7223  0.0868
  524MOL0     H70692   3.493   5.445   7.489  1.3180 -0.0259  1.0027
  524MOL0     H70693   3.649   5.429   7.422 -0.5156  1.2945 -0.8418
  524MOL0     H70694   3.394   5.357   7.293 -1.0232  4.6349  1.6886
  524MOL0     H70695   3.546   5.292   7.225  0.6536  0.7661 -1.3258
  524MOL0     H70696   3.469   5.479   7.101 -0.6678 -0.8862  1.3949
  524MOL0     H70697   3.640   5.498   7.165  0.5596  2.6482  3.2820
  524MOL0     H70698   3.552   5.706   7.237  0.9925 -1.7120  0.7487
  524MOL0     H70699   3.458   5.605   7.350 -2.9348  1.3981  0.5013
  524MOL0     H70700   3.407   5.819   7.406  0.7001  0.0545 -1.2574
  524MOL0     H70701   3.379   5.994   7.536 -1.9611 -3.0755  1.4555
  524MOL0     H70702   3.303   6.136   7.451  0.5237  0.3596  1.4652
  524MOL0     H70703   3.222   6.045   7.584  0.4880  2.1274 -0.1782
  524MOL0     H70704   2.942   6.304   7.256 -0.5802  2.2465 -4.8232
  524MOL0     H70705   2.768   6.503   7.264 -0.2158  0.0799  1.5175
  524MOL0     H70706   2.392   6.413   7.162  4.6115 -1.4078  1.0115
  524MOL0     H70707   2.339   6.345   7.307 -2.0724  1.5601 -0.3730
  524MOL0     H70708   2.216   6.545   7.213 -1.2288  3.6278  0.8439
  524MOL0     H70709   2.235   6.517   7.393  0.5338  1.3780  0.9240
  524MOL0     H70710   2.412   6.683   7.204 -0.2994 -2.8509  0.0191
  524MOL0     H70711   2.420   6.704   7.377  1.0603  0.4981  0.0812
  524MOL0     H70712   2.174   6.757   7.205  1.2883 -0.7710 -1.8537
  524MOL0     H70713   2.201   6.819   7.379  0.5846  0.4737 -0.1405
  524MOL0     H70714   2.194   6.968   7.162 -0.5625 -2.6478 -1.2451
  524MOL0     H70715   2.370   6.914   7.147  0.1982 -2.7108  1.7947
  524MOL0     H70716   2.333   7.141   7.277 -2.5287 -0.0592  1.1063
  524MOL0     H70717   2.248   7.054   7.395 -1.0727 -2.8657 -1.7933
  524MOL0     H70718   2.419   6.908   7.447 -2.5768  0.3124 -2.6525
  524MOL0     H70719   2.460   7.087   7.480  0.0454  1.4246  0.0949
  524MOL0     H70720   2.565   6.886   7.280 -2.2539  0.3704 -1.8178
  524MOL0     H70721   2.666   6.979   7.395 -1.1075 -2.1510  1.1652
  524MOL0     H70722   2.480   6.185   7.358 -0.1391 -1.0199 -2.5402
  524MOL0     H70723   2.646   6.021   7.359 -1.4022  0.1325  0.6336
  524MOL0     H70724   2.969   5.867   7.190 -0.5963 -2.5995  0.7064
  524MOL0     H70725   3.119   5.719   7.110  0.9237  0.5318 -0.4724
  524MOL0     H70726   2.579   4.455   7.638 -2.3168  1.2086 -4.0465
  524MOL0     H70727   2.396   4.278   7.688  0.7954  1.9066  2.5889
  524MOL0     H70728   2.061   4.057   7.716  0.5169 -1.3527 -1.8535
  524MOL0     H70729   1.891   3.893   7.790 -1.0072 -2.5267 -0.3319
  524MOL0     H70730   1.870   3.565   7.993  5.2569 -1.5471 -1.9438
  524MOL0     H70731   1.873   3.739   7.960 -1.9389  1.3766  1.7702
  524MOL0     H70732   1.693   3.698   7.777 -1.6431  1.9794  1.5405
  524MOL0     H70733   1.655   3.668   7.957 -0.4437  1.6669 -1.0785
  524MOL0     H70734   1.669   3.425   7.908  0.1442 -1.9654 -1.2168
  524MOL0     H70735   1.726   3.462   7.749  2.1436 -1.3651  2.0074
  524MOL0     H70736   1.492   3.390   7.744  2.1518  1.1775 -3.8085
  524MOL0     H70737   1.479   3.570   7.707 -1.7883  2.2485  1.6118
  524MOL0     H70738   1.297   3.511   8.087  1.3508  1.2928  0.6548
  524MOL0     H70739   2.184   3.585   7.772 -3.6599 -0.5952  1.7240
  524MOL0     H70740   2.353   3.768   7.686 -0.3692  0.2541  0.4034
  525MOL0     O70741  10.337   5.896  10.727  0.1080 -0.8402  0.1531
  525MOL0     C70742  10.396   5.905  10.838 -2.0103  0.5976  0.6764
  525MOL0     O70743  10.479   5.807  10.887  0.1350 -1.0430 -0.6152
  525MOL0     C70744  10.570   5.749  10.809 -1.2827  0.0207  0.1723
  525MOL0     C70745  10.621   5.796  10.692  1.5275  1.2218 -0.1548
  525MOL0     C70746  10.721   5.714  10.628  0.6261  0.2566 -0.2844
  525MOL0     C70747  10.774   5.601  10.682  0.3514  0.9432  0.5418
  525MOL0     O70748  10.877   5.538  10.613  0.2185 -0.4655  0.2330
  525MOL0     C70749  10.920   5.418  10.662 -0.3744  0.1095  0.6090
  525MOL0     C70750  11.012   5.352  10.561  0.4506 -0.0831 -0.8428
  525MOL0     C70751  11.138   5.438  10.521  0.4925 -0.3664 -0.9021
  525MOL0     C70752  11.190   5.389  10.385 -0.4109  0.4170  0.0600
  525MOL0     C70753  11.344   5.432  10.370  0.9123 -0.1083 -0.4661
  525MOL0     C70754  11.454   5.349  10.434 -0.1536  0.4090  0.8044
  525MOL0     C70755  11.589   5.383  10.379 -0.0903 -0.2709 -0.1753
  525MOL0     C70756  11.707   5.299  10.418 -0.6638 -0.2912  0.9472
  525MOL0     N70757  11.828   5.364  10.366 -0.0495  0.4397 -0.3779
  525MOL0     C70758  11.907   5.452  10.440  0.6556 -0.3114  0.2833
  525MOL0     C70759  12.033   5.426  10.401  0.7742  0.0976  0.2971
  525MOL0     C70760  12.133   5.510  10.461 -0.2956 -0.2104 -0.1497
  525MOL0     C70761  12.233   5.409  10.508  0.1045 -0.2828 -0.1919
  525MOL0     C70762  12.383   5.463  10.515  0.4533 -0.1820 -0.1544
  525MOL0     C70763  12.413   5.543  10.647  0.1643 -0.6994 -0.2904
  525MOL0     O70764  12.426   5.466  10.772  0.5707  0.7886  0.2208
  525MOL0     C70765  12.546   5.406  10.800  0.0556 -1.0437  0.3483
  525MOL0     C70766  12.539   5.336  10.928  0.4448  0.7088  0.6210
  525MOL0     C70767  12.643   5.262  10.979 -0.2477  0.1741 -0.2722
  525MOL0     C70768  12.610   5.176  11.097  0.8558 -0.4264  0.5796
  525MOL0     C70769  12.767   5.282  10.922 -0.0666  0.1965 -0.5554
  525MOL0     C70770  12.890   5.220  10.976  0.0762 -0.2566  0.5338
  525MOL0     O70771  12.990   5.203  10.876 -0.2670 -0.7068 -0.3143
  525MOL0     C70772  13.125   5.196  10.915 -0.2590 -0.1086 -0.3032
  525MOL0     C70773  13.187   5.310  10.952  0.3687 -0.8292 -0.5158
  525MOL0     C70774  13.314   5.317  11.015  0.4012  0.4754 -0.1146
  525MOL0     C70775  13.389   5.202  11.029  0.5883 -1.0505 -0.3006
  525MOL0     O70776  13.514   5.217  11.075 -0.6059 -0.2969 -0.1531
  525MOL0     C70777  13.537   5.274  11.209  0.3854  0.1311 -0.0027
  525MOL0     C70778  13.690   5.299  11.219  0.2725  0.2773 -0.1781
  525MOL0     C70779  13.736   5.351  11.367 -0.0337  0.3101 -0.0433
  525MOL0     C70780  13.850   5.458  11.368 -0.2148  0.2427  0.3227
  525MOL0     C70781  13.908   5.471  11.509 -0.3297 -0.6224 -0.7618
  525MOL0     C70782  13.825   5.564  11.601 -0.2367  0.1991 -1.0672
  525MOL0     C70783  13.826   5.707  11.563 -0.6366  0.5078  0.3994
  525MOL0     C70784  13.753   5.786  11.664 -0.1273 -0.1266  0.1242
  525MOL0    Cl70785  13.742   5.963  11.627 -0.1376  0.2208  0.0286
  525MOL0     C70786  13.336   5.077  10.985  0.5037 -0.5154  0.7549
  525MOL0     C70787  13.203   5.076  10.925  0.8096  0.8777  0.0311
  525MOL0     O70788  12.902   5.201  11.099 -0.5260  0.0980  0.5407
  525MOL0     C70789  12.775   5.364  10.800  0.2372 -0.1403 -0.3964
  525MOL0     C70790  12.664   5.408  10.724 -0.1456  0.6850 -0.3522
  525MOL0     N70791  12.028   5.345  10.291 -0.3519 -0.0342 -0.9150
  525MOL0     N70792  11.910   5.299  10.284  0.2282 -0.4249 -0.4116
  525MOL0     C70793  10.713   5.556  10.802  0.0040 -0.9092 -1.5672
  525MOL0     C70794  10.619   5.635  10.873  0.0822  0.8987  0.9018
  525MOL0     C70795  10.362   6.020  10.933 -0.4350  0.4046 -0.3808
  525MOL0     C70796  10.415   6.031  11.066 -0.1127 -0.4399 -0.5545
  525MOL0     C70797  10.361   6.134  11.154  0.1772  0.1446  0.5562
  525MOL0     C70798  10.258   6.221  11.116  0.3646 -0.7038  0.3275
  525MOL0     O70799  10.228   6.320  11.206  0.7624  0.7208  0.4588
  525MOL0     C70800  10.124   6.412  11.180  0.5458 -0.1764  0.6662
  525MOL0     C70801   9.988   6.349  11.210  0.6118 -0.8309  0.0320
  525MOL0     C70802   9.870   6.444  11.185  0.2491  0.0588 -0.1568
  525MOL0     C70803   9.860   6.558  11.295  0.7678  0.8084  0.6106
  525MOL0     C70804   9.717   6.571  11.339 -0.5154  0.2292  0.7433
  525MOL0     C70805   9.604   6.589  11.386 -0.1153 -0.6106 -0.3078
  525MOL0     C70806  10.208   6.212  10.980  0.6126  1.0479 -0.3090
  525MOL0     C70807  10.270   6.115  10.894 -0.1100 -0.7453 -0.5033
  525MOL0     H70808  10.579   5.883  10.642  0.3250  0.2996 -0.8117
  525MOL0     H70809  10.774   5.753  10.541 -1.2076 -0.8150 -1.9737
  525MOL0     H70810  10.962   5.421  10.763 -1.1790 -1.6873  1.0412
  525MOL0     H70811  10.834   5.351  10.665  0.8604 -1.6237 -0.4294
  525MOL0     H70812  11.044   5.257  10.603 -0.6018  1.0183  2.7725
  525MOL0     H70813  10.952   5.325  10.474 -3.5764 -1.3477  2.0311
  525MOL0     H70814  11.104   5.542  10.518  1.1539 -0.1325 -0.5451
  525MOL0     H70815  11.202   5.430  10.609  1.2149 -1.3099 -1.4921
  525MOL0     H70816  11.186   5.280  10.376  2.3256  0.3878 -2.4160
  525MOL0     H70817  11.136   5.427  10.298 -0.6303  0.5258  0.2414
  525MOL0     H70818  11.364   5.445  10.263  1.9387  1.9881 -0.0870
  525MOL0     H70819  11.352   5.537  10.401 -1.6892  0.6316 -1.9297
  525MOL0     H70820  11.468   5.385  10.536 -2.5660  3.2422  0.2809
  525MOL0     H70821  11.430   5.244  10.413  0.9964  0.6170 -2.0674
  525MOL0     H70822  11.581   5.386  10.270 -1.2498  0.7888 -0.0845
  525MOL0     H70823  11.621   5.485  10.405  1.3413 -0.0571 -2.4840
  525MOL0     H70824  11.688   5.198  10.382 -0.6354 -0.4435  1.3552
  525MOL0     H70825  11.707   5.304  10.527  0.2227 -2.5192  1.0981
  525MOL0     H70826  11.875   5.519  10.519 -0.8166  1.2388 -1.5346
  525MOL0     H70827  12.173   5.583  10.390 -0.9786  1.3127  0.9658
  525MOL0     H70828  12.092   5.570  10.544  2.1041  0.9390  0.3145
  525MOL0     H70829  12.241   5.331  10.431  1.8951  0.7560 -1.1222
  525MOL0     H70830  12.200   5.351  10.594  1.6752  0.1165  0.7156
  525MOL0     H70831  12.404   5.525  10.428 -2.9503 -0.9707 -1.6941
  525MOL0     H70832  12.451   5.377  10.511  0.6151 -0.1867  1.5876
  525MOL0     H70833  12.335   5.617  10.663  0.1352 -0.9320  0.6960
  525MOL0     H70834  12.511   5.591  10.642  1.0887 -2.0361  2.5571
  525MOL0     H70835  12.442   5.332  10.977 -0.2725 -1.5031 -0.8380
  525MOL0     H70836  12.590   5.243  11.182  1.5807 -1.4243  1.5713
  525MOL0     H70837  12.515   5.130  11.068  0.6483  1.6275 -2.4373
  525MOL0     H70838  12.675   5.092  11.120  0.1665 -2.0685 -2.9099
  525MOL0     H70839  13.129   5.397  10.926  1.7617 -0.4710 -2.7059
  525MOL0     H70840  13.345   5.417  11.045  0.7174  1.4636 -3.2593
  525MOL0     H70841  13.482   5.366  11.229 -1.3961 -0.5888 -1.2965
  525MOL0     H70842  13.510   5.194  11.280  0.5762 -0.8478 -0.9978
  525MOL0     H70843  13.742   5.207  11.191  1.1152  0.8513 -0.5538
  525MOL0     H70844  13.729   5.369  11.145  1.5173 -2.4800 -2.3218
  525MOL0     H70845  13.754   5.263  11.429 -0.6976  0.5502  0.5090
  525MOL0     H70846  13.644   5.392  11.412 -0.2367  0.8067 -0.8862
  525MOL0     H70847  13.931   5.407  11.316  1.7981  1.3650  2.1777
  525MOL0     H70848  13.829   5.556  11.324  2.5571 -0.4607 -2.9207
  525MOL0     H70849  14.013   5.500  11.505  0.2539 -2.5173 -0.2140
  525MOL0     H70850  13.920   5.372  11.554  3.0690 -1.3432 -2.9196
  525MOL0     H70851  13.724   5.524  11.596  0.4677 -1.6061 -5.8207
  525MOL0     H70852  13.872   5.549  11.699 -0.3199  1.0268 -0.8898
  525MOL0     H70853  13.773   5.719  11.468  0.6379  2.1686 -0.1549
  525MOL0     H70854  13.928   5.742  11.546 -0.9624  0.8839 -0.9054
  525MOL0     H70855  13.797   5.785  11.764  1.0274  3.6895 -0.1860
  525MOL0     H70856  13.648   5.755  11.675 -1.4204  3.8272  0.8225
  525MOL0     H70857  13.404   4.992  10.990  0.9128 -0.2930 -0.7146
  525MOL0     H70858  13.151   4.983  10.904  1.4960  0.5082 -0.0538
  525MOL0     H70859  12.878   5.385  10.772  1.3549 -2.5467  1.6229
  525MOL0     H70860  12.674   5.448  10.623  3.2573 -2.4889 -1.4988
  525MOL0     H70861  10.752   5.465  10.847  0.1078 -0.8363 -1.5084
  525MOL0     H70862  10.588   5.586  10.965  0.3217 -2.1329 -0.5362
  525MOL0     H70863  10.497   5.978  11.112 -0.9953 -0.9426  0.4840
  525MOL0     H70864  10.411   6.144  11.250  0.7398 -1.8185  0.5148
  525MOL0     H70865  10.147   6.499  11.242 -1.4041 -0.2154  1.5207
  525MOL0     H70866  10.125   6.441  11.075  1.4130  1.8100  1.1777
  525MOL0     H70867   9.980   6.308  11.311 -0.6846 -3.4814 -1.0377
  525MOL0     H70868   9.973   6.265  11.142 -1.1056  0.1800 -0.9191
  525MOL0     H70869   9.779   6.384  11.189  1.4839 -1.8554  1.7256
  525MOL0     H70870   9.874   6.488  11.085  1.4510  1.9051  0.6508
  525MOL0     H70871   9.897   6.652  11.254  2.2562  0.2494  0.6131
  525MOL0     H70872   9.923   6.547  11.384  1.1741 -2.2385  0.0828
  525MOL0     H70873   9.501   6.587  11.418  0.3085 -2.9894  1.1312
  525MOL0     H70874  10.143   6.287  10.935  1.4745  1.0913 -1.5236
  525MOL0     H70875  10.215   6.116  10.800 -4.0177 -3.0408  1.5013
  526MOL0     O70876   6.373   6.293  10.224 -0.0058  1.4746  0.6742
  526MOL0     C70877   6.472   6.259  10.153 -0.6195  0.0237  0.4901
  526MOL0     O70878   6.462   6.165  10.054 -0.7456 -0.6414  0.2239
  526MOL0     C70879   6.355   6.084  10.027 -0.5744 -0.3435  0.2214
  526MOL0     C70880   6.358   6.034   9.898  0.0478  0.1840 -0.3891
  526MOL0     C70881   6.242   5.972   9.842  0.9993 -1.0229  0.6525
  526MOL0     C70882   6.127   5.948   9.924  0.0107 -0.1482  1.0718
  526MOL0     O70883   6.028   5.882   9.853  0.1363  0.1558 -0.4986
  526MOL0     C70884   5.909   5.840   9.923  0.5240 -0.1639 -0.4107
  526MOL0     C70885   5.854   5.712   9.839 -0.2493 -0.2541  0.0134
  526MOL0     C70886   5.970   5.610   9.827  0.6757  0.3930  0.0494
  526MOL0     C70887   6.013   5.546   9.958  0.9390 -0.5687  0.3551
  526MOL0     C70888   6.111   5.431   9.948  0.0145  0.3736 -0.7078
  526MOL0     C70889   6.227   5.466   9.842  0.4728 -0.4663 -0.1357
  526MOL0     C70890   6.349   5.375   9.847  0.3088  0.5480  0.8469
  526MOL0     C70891   6.310   5.233   9.805  0.0367 -0.7026  0.8975
  526MOL0     N70892   6.419   5.153   9.766 -1.4441  0.4841 -0.6146
  526MOL0     C70893   6.443   5.090   9.645 -0.3587 -0.6304  0.2257
  526MOL0     C70894   6.551   5.014   9.674  0.2906  0.3487 -1.0765
  526MOL0     C70895   6.589   4.901   9.594  0.2412  0.2829  0.4275
  526MOL0     C70896   6.740   4.908   9.547  0.3949 -0.1953  0.9297
  526MOL0     C70897   6.749   4.831   9.414  1.2645 -0.1581  0.6461
  526MOL0     C70898   6.840   4.705   9.428  0.1074  1.6807 -0.1424
  526MOL0     O70899   6.777   4.601   9.504 -0.4459 -0.1991 -0.0088
  526MOL0     C70900   6.849   4.494   9.541 -0.2283 -0.7923  0.2309
  526MOL0     C70901   6.980   4.449   9.496 -0.0005  0.2727  0.4544
  526MOL0     C70902   7.036   4.323   9.525  0.4359 -0.0607  0.5152
  526MOL0     C70903   7.153   4.273   9.447 -0.9433  0.1093  0.2393
  526MOL0     C70904   6.957   4.241   9.611 -0.0642  0.4429 -0.5987
  526MOL0     C70905   7.009   4.108   9.673 -0.3657 -0.3100 -0.6573
  526MOL0     O70906   7.140   4.084   9.668 -1.4836 -0.6810  0.1582
  526MOL0     C70907   7.197   3.979   9.733 -0.1015  0.9544  0.2833
  526MOL0     C70908   7.236   3.986   9.866 -0.2770 -0.3229  0.8940
  526MOL0     C70909   7.306   3.890   9.935  0.4657  0.1857  0.1283
  526MOL0     C70910   7.354   3.779   9.867  1.3203 -0.0469  0.4697
  526MOL0     O70911   7.403   3.663   9.925  1.0769 -0.2655  0.4773
  526MOL0     C70912   7.475   3.690  10.043 -0.0837  0.5402 -0.3991
  526MOL0     C70913   7.610   3.752  10.039 -0.3943  0.1655  0.0536
  526MOL0     C70914   7.702   3.679   9.938 -0.4307 -1.0615  0.9336
  526MOL0     C70915   7.746   3.785   9.830 -0.4957  0.5381 -0.4476
  526MOL0     C70916   7.822   3.725   9.699 -0.1353 -0.5175  0.8165
  526MOL0     C70917   7.763   3.601   9.632 -0.1749  0.1479  0.0916
  526MOL0     C70918   7.627   3.626   9.579  0.0889 -0.0926 -0.0243
  526MOL0     C70919   7.572   3.502   9.515  0.8932  0.4159  0.0928
  526MOL0    Cl70920   7.407   3.543   9.436 -0.4558  0.1409  0.4710
  526MOL0     C70921   7.318   3.777   9.724  0.3655  0.6734  0.5476
  526MOL0     C70922   7.237   3.870   9.662 -0.0102  0.0462  0.9940
  526MOL0     O70923   6.923   4.027   9.710 -0.3464 -0.7114 -0.1022
  526MOL0     C70924   6.838   4.285   9.678 -0.0366 -0.3301  0.7816
  526MOL0     C70925   6.793   4.418   9.644 -0.9973  0.2333  0.3542
  526MOL0     N70926   6.596   5.028   9.804  0.0653 -0.2080  0.2011
  526MOL0     N70927   6.510   5.103   9.856  0.2744 -0.5362 -0.1386
  526MOL0     C70928   6.132   5.999  10.059  0.6390  0.7024  0.1506
  526MOL0     C70929   6.240   6.071  10.111  0.3811  0.7005 -0.6712
  526MOL0     C70930   6.603   6.326  10.168  0.4099 -0.4858 -0.6766
  526MOL0     C70931   6.623   6.398  10.283 -0.4598  1.0852 -0.2979
  526MOL0     C70932   6.757   6.443  10.309  0.4376  0.8740  0.3803
  526MOL0     C70933   6.862   6.419  10.218 -0.5571  0.4996 -0.1709
  526MOL0     O70934   6.992   6.475  10.223  0.1494  0.7697  0.4562
  526MOL0     C70935   7.081   6.387  10.295 -0.0958  0.7059 -0.4687
  526MOL0     C70936   7.102   6.434  10.440 -0.6929  0.7173 -0.4869
  526MOL0     C70937   7.153   6.570  10.450 -0.6940 -0.0896 -0.2578
  526MOL0     C70938   7.305   6.583  10.421  0.6594 -0.0711 -0.2781
  526MOL0     C70939   7.389   6.528  10.526 -0.4549 -0.4457  0.5011
  526MOL0     C70940   7.464   6.503  10.611  0.2750  0.0662 -0.3935
  526MOL0     C70941   6.828   6.350  10.102  0.2263  0.0378 -0.6477
  526MOL0     C70942   6.700   6.312  10.069 -0.4987 -0.3407  0.7611
  526MOL0     H70943   6.440   6.047   9.827 -0.2319 -0.8905 -0.9399
  526MOL0     H70944   6.253   5.934   9.741 -0.5186  0.2819 -0.0502
  526MOL0     H70945   5.947   5.810  10.021  1.5259 -1.0589 -1.0473
  526MOL0     H70946   5.825   5.909   9.926 -0.4230 -1.1646 -2.0402
  526MOL0     H70947   5.772   5.659   9.890  0.1480 -1.8947 -0.9795
  526MOL0     H70948   5.814   5.736   9.740 -1.2947 -1.4052  0.1214
  526MOL0     H70949   5.935   5.527   9.765 -2.3272  0.0368  2.0204
  526MOL0     H70950   6.059   5.657   9.783  0.3688 -1.0602 -2.2731
  526MOL0     H70951   6.072   5.623  10.008  3.5922 -2.6873  0.7378
  526MOL0     H70952   5.920   5.521  10.008  2.8554 -1.7454  3.6347
  526MOL0     H70953   6.169   5.426  10.040  1.6150  1.1148 -1.6371
  526MOL0     H70954   6.063   5.333   9.937  1.0256 -0.2992  0.6669
  526MOL0     H70955   6.186   5.449   9.742  2.2244  0.2269 -1.0191
  526MOL0     H70956   6.255   5.570   9.862  1.0054 -0.9734  2.0750
  526MOL0     H70957   6.420   5.410   9.771 -1.3848  0.9035 -0.6349
  526MOL0     H70958   6.389   5.366   9.948  0.2048  1.4961  0.9824
  526MOL0     H70959   6.228   5.231   9.732 -2.7877 -0.7497  3.8493
  526MOL0     H70960   6.256   5.192   9.891  0.6347 -1.3751  0.9691
  526MOL0     H70961   6.380   5.076   9.558  0.7129 -1.0126 -0.5082
  526MOL0     H70962   6.571   4.808   9.649 -4.0737 -1.2980 -3.1099
  526MOL0     H70963   6.542   4.895   9.495 -0.9701 -0.8638  1.0406
  526MOL0     H70964   6.809   4.858   9.616  0.6103 -3.6275 -1.4803
  526MOL0     H70965   6.764   5.014   9.537 -0.4297 -0.0903 -0.0713
  526MOL0     H70966   6.793   4.893   9.335  2.2329 -2.2429 -0.5505
  526MOL0     H70967   6.654   4.793   9.373  1.6325 -1.7787  1.1933
  526MOL0     H70968   6.929   4.733   9.485 -0.6822 -0.0379  2.0703
  526MOL0     H70969   6.868   4.667   9.330 -1.6561 -0.0932 -0.0131
  526MOL0     H70970   7.042   4.505   9.427 -0.0747  0.7401  0.7630
  526MOL0     H70971   7.240   4.266   9.514 -0.4145 -0.3862 -0.4806
  526MOL0     H70972   7.121   4.176   9.407 -1.4892  0.4159 -0.0673
  526MOL0     H70973   7.167   4.348   9.369 -1.2284  2.7600  2.5914
  526MOL0     H70974   7.218   4.082   9.912  2.2165  1.8344 -2.2260
  526MOL0     H70975   7.326   3.922  10.037 -0.4073 -0.3855  0.4937
  526MOL0     H70976   7.415   3.732  10.125  0.6952 -2.5349  1.9077
  526MOL0     H70977   7.486   3.589  10.084  2.5253  0.3443 -1.4087
  526MOL0     H70978   7.593   3.854  10.003 -0.0604 -0.8508 -3.3492
  526MOL0     H70979   7.652   3.740  10.139  0.5140 -0.3646 -0.3738
  526MOL0     H70980   7.648   3.596   9.891 -0.1025 -0.9453  0.3359
  526MOL0     H70981   7.795   3.651   9.988  1.8696  2.8945 -0.6688
  526MOL0     H70982   7.651   3.829   9.798 -1.6046 -0.6977  0.9908
  526MOL0     H70983   7.813   3.847   9.890  0.0258 -1.6331  1.3500
  526MOL0     H70984   7.926   3.708   9.730 -0.3875 -1.3589  1.2477
  526MOL0     H70985   7.813   3.802   9.622 -0.0993 -2.2059 -0.9465
  526MOL0     H70986   7.820   3.576   9.542 -1.8871  0.6687 -1.1741
  526MOL0     H70987   7.761   3.516   9.702 -1.1266  0.0069 -0.0940
  526MOL0     H70988   7.649   3.697   9.498  3.3083 -2.4183 -1.3619
  526MOL0     H70989   7.546   3.654   9.647 -1.4796  1.2833 -2.2753
  526MOL0     H70990   7.565   3.428   9.596  0.6336 -0.2238 -0.5006
  526MOL0     H70991   7.620   3.448   9.433 -2.5862 -3.5676  0.3396
  526MOL0     H70992   7.356   3.690   9.671 -1.2549  0.7427 -0.7952
  526MOL0     H70993   7.208   3.876   9.558 -3.6123 -0.2839  1.8426
  526MOL0     H70994   6.796   4.231   9.762  0.0504  0.2957  1.2376
  526MOL0     H70995   6.705   4.452   9.698 -2.0367 -4.0042  1.7384
  526MOL0     H70996   6.050   5.987  10.129  2.0052 -0.1188  1.6689
  526MOL0     H70997   6.228   6.116  10.209  1.6134 -1.7259  0.6809
  526MOL0     H70998   6.550   6.428  10.357 -1.8198 -2.3349 -0.0582
  526MOL0     H70999   6.767   6.511  10.393 -0.2029  2.4115 -0.7479
  526MOL0     H71000   7.034   6.290  10.313 -2.6365  2.3524  2.9963
  526MOL0     H71001   7.176   6.383  10.240 -0.5177 -2.5070 -1.1787
  526MOL0     H71002   7.168   6.358  10.484  1.2700  1.3563 -2.1561
  526MOL0     H71003   7.006   6.429  10.492  0.0629 -1.4525  0.8525
  526MOL0     H71004   7.152   6.612  10.551  0.2010  2.2255 -1.1466
  526MOL0     H71005   7.081   6.628  10.391  0.4867 -0.2850 -1.9367
  526MOL0     H71006   7.328   6.689  10.403 -0.5233  0.3292  0.4305
  526MOL0     H71007   7.325   6.522  10.333 -1.6086  1.6421 -2.1003
  526MOL0     H71008   7.530   6.484  10.694  1.6128  2.9878 -0.6762
  526MOL0     H71009   6.911   6.336  10.035  1.4580  3.4243 -0.0195
  526MOL0     H71010   6.680   6.259   9.976 -2.2175 -0.2122  1.0289
  527MOL0     O71011   7.794   6.896   9.588 -0.5277 -0.2608  0.2832
  527MOL0     C71012   7.702   6.832   9.536  0.0989 -0.1604  1.0698
  527MOL0     O71013   7.602   6.888   9.445 -0.2582 -0.6444 -0.7117
  527MOL0     C71014   7.639   7.008   9.386 -0.1614 -0.0950 -0.4226
  527MOL0     C71015   7.721   7.009   9.275 -0.4272 -0.9300 -0.0295
  527MOL0     C71016   7.754   7.123   9.206  0.6008  0.1529 -0.6776
  527MOL0     C71017   7.695   7.244   9.244 -0.4318 -0.6954 -0.4912
  527MOL0     O71018   7.742   7.356   9.174 -0.3496 -0.3693 -0.2236
  527MOL0     C71019   7.660   7.479   9.165 -0.6115 -0.4076 -0.2350
  527MOL0     C71020   7.727   7.597   9.104  0.2974  0.6934  0.2034
  527MOL0     C71021   7.771   7.572   8.961 -0.7917 -1.2564  0.0589
  527MOL0     C71022   7.888   7.665   8.922 -0.1353 -0.5798 -0.4040
  527MOL0     C71023   7.910   7.653   8.780 -0.9164 -0.3413 -0.7708
  527MOL0     C71024   7.945   7.511   8.718 -0.1175 -0.4696  0.8768
  527MOL0     C71025   7.817   7.429   8.680 -0.2443 -0.2374  0.1045
  527MOL0     C71026   7.847   7.346   8.556  0.0836  0.6238  0.5808
  527MOL0     N71027   7.749   7.234   8.530  0.5564  0.3137  0.2081
  527MOL0     C71028   7.639   7.235   8.444  0.7538  0.3383 -0.6616
  527MOL0     C71029   7.573   7.120   8.474  1.1644 -0.3262 -0.6720
  527MOL0     C71030   7.441   7.061   8.420  0.2610 -0.2811  0.5585
  527MOL0     C71031   7.307   7.088   8.514  0.2609 -0.4957  0.6971
  527MOL0     C71032   7.241   7.216   8.475 -0.6947  0.1552 -0.4224
  527MOL0     C71033   7.097   7.229   8.522  1.1637 -0.2782 -0.2772
  527MOL0     O71034   7.094   7.216   8.664  0.4249  0.4002  0.1256
  527MOL0     C71035   6.973   7.222   8.725 -0.1057 -0.2791  0.3525
  527MOL0     C71036   6.851   7.264   8.680  0.3706 -0.0231 -0.4190
  527MOL0     C71037   6.729   7.262   8.751  0.3213 -0.6046  0.4551
  527MOL0     C71038   6.609   7.299   8.674 -0.5736  0.9777  0.8071
  527MOL0     C71039   6.726   7.208   8.885  0.4537  0.2925  0.5619
  527MOL0     C71040   6.612   7.211   8.974  0.5519  0.0420  1.1588
  527MOL0     O71041   6.494   7.277   8.933 -0.0741  0.1999  0.5142
  527MOL0     C71042   6.366   7.267   8.990  0.5608  0.4243 -0.0258
  527MOL0     C71043   6.273   7.372   8.956  0.0051  0.0736 -0.6104
  527MOL0     C71044   6.143   7.367   9.013 -0.3563 -0.3466  0.4393
  527MOL0     C71045   6.104   7.275   9.101  1.4621  0.2217 -0.1532
  527MOL0     O71046   5.977   7.290   9.149 -0.2254  0.2365  0.4997
  527MOL0     C71047   5.917   7.177   9.220 -0.1988 -0.4677 -0.0763
  527MOL0     C71048   5.766   7.184   9.241 -1.0290 -0.8404  0.4093
  527MOL0     C71049   5.720   7.291   9.348 -0.1164 -0.2639  0.0680
  527MOL0     C71050   5.569   7.278   9.362 -0.5577  0.1744 -0.6126
  527MOL0     C71051   5.544   7.191   9.480 -0.6353  0.1106 -0.9843
  527MOL0     C71052   5.395   7.157   9.505  0.7534 -0.1958 -0.3739
  527MOL0     C71053   5.386   7.077   9.632 -0.0817 -0.3717 -0.2729
  527MOL0     C71054   5.450   6.940   9.625  0.5029  1.2465  1.0592
  527MOL0    Cl71055   5.377   6.840   9.495  0.7432  0.1021  0.9763
  527MOL0     C71056   6.197   7.175   9.131 -0.7974  0.9080 -0.5972
  527MOL0     C71057   6.326   7.166   9.077  0.4510 -0.4156 -0.7296
  527MOL0     O71058   6.616   7.151   9.080  0.4639  0.2421  0.2847
  527MOL0     C71059   6.847   7.159   8.932 -0.1578  0.9173 -0.4315
  527MOL0     C71060   6.961   7.168   8.847  0.2273  0.4428 -1.1977
  527MOL0     N71061   7.645   7.059   8.573 -0.2130  0.0420  0.2021
  527MOL0     N71062   7.747   7.121   8.603 -0.0226 -0.0544 -0.9508
  527MOL0     C71063   7.598   7.242   9.351 -1.0813 -0.3227 -0.6352
  527MOL0     C71064   7.571   7.127   9.420 -0.2305 -0.0420 -0.9386
  527MOL0     C71065   7.689   6.689   9.568 -0.4502  0.9102  1.0598
  527MOL0     C71066   7.580   6.610   9.527 -0.5197  0.3195  0.3497
  527MOL0     C71067   7.582   6.465   9.556  0.2115 -1.2172 -0.1147
  527MOL0     C71068   7.690   6.401   9.624  0.5085 -1.0271  0.8010
  527MOL0     O71069   7.713   6.267   9.645 -0.2779 -0.3397  0.3980
  527MOL0     C71070   7.611   6.183   9.577  0.3766 -1.2125  0.1375
  527MOL0     C71071   7.652   6.041   9.610  0.1852  0.5222  0.5832
  527MOL0     C71072   7.781   5.994   9.546 -1.1102 -0.7425  0.3418
  527MOL0     C71073   7.823   6.015   9.402 -0.0392  0.5783 -0.2928
  527MOL0     C71074   7.966   5.983   9.386 -0.2125  0.9272 -0.4705
  527MOL0     C71075   8.081   5.947   9.403  0.9645  0.0892 -0.6339
  527MOL0     C71076   7.789   6.489   9.672  0.9722 -0.9879 -0.8158
  527MOL0     C71077   7.785   6.634   9.648  0.1163  0.3687  1.4439
  527MOL0     H71078   7.772   6.919   9.242 -2.0259 -1.6725 -0.6214
  527MOL0     H71079   7.834   7.125   9.133 -1.4250  1.3619 -3.0284
  527MOL0     H71080   7.577   7.458   9.097  1.7674 -2.8722 -2.6264
  527MOL0     H71081   7.622   7.502   9.265 -1.7637 -1.1389 -0.4840
  527MOL0     H71082   7.669   7.690   9.104 -2.4126 -0.8827 -1.0152
  527MOL0     H71083   7.813   7.617   9.170  1.0246 -2.1317  0.2126
  527MOL0     H71084   7.796   7.465   8.962 -0.1725 -1.1152  1.9079
  527MOL0     H71085   7.695   7.588   8.884  1.9218  1.0031 -2.4026
  527MOL0     H71086   7.870   7.772   8.940  0.5970 -0.5959  0.4915
  527MOL0     H71087   7.985   7.647   8.969 -0.4377  1.8532  1.3303
  527MOL0     H71088   7.823   7.687   8.723  0.0398  0.1020 -2.0259
  527MOL0     H71089   7.986   7.726   8.750 -0.4870 -0.9115 -1.0942
  527MOL0     H71090   8.002   7.536   8.628  1.1933 -0.0796  1.7752
  527MOL0     H71091   8.006   7.450   8.785  2.2223 -1.6360 -2.0590
  527MOL0     H71092   7.780   7.369   8.764 -2.9261 -1.3285 -1.7217
  527MOL0     H71093   7.745   7.509   8.662  2.4111  2.0653 -0.9134
  527MOL0     H71094   7.943   7.299   8.583  0.6131  2.4761  2.1666
  527MOL0     H71095   7.859   7.418   8.474 -1.0433  2.0860  1.6436
  527MOL0     H71096   7.615   7.304   8.364  0.2312 -0.6295 -1.3691
  527MOL0     H71097   7.423   7.098   8.319 -2.9712  1.8431  1.7293
  527MOL0     H71098   7.463   6.954   8.420  3.8556  0.3099 -1.0639
  527MOL0     H71099   7.334   7.082   8.620 -1.1298  4.2428  1.5612
  527MOL0     H71100   7.233   7.008   8.502  2.3875 -2.6340  1.1146
  527MOL0     H71101   7.245   7.239   8.368  2.0107 -0.1386 -0.4407
  527MOL0     H71102   7.293   7.295   8.529 -1.1523  2.4073 -3.0398
  527MOL0     H71103   7.042   7.143   8.483 -0.3832  1.0209 -1.0701
  527MOL0     H71104   7.056   7.324   8.486 -1.5564 -1.8280 -1.5910
  527MOL0     H71105   6.847   7.318   8.586  1.3731 -2.9310 -2.2381
  527MOL0     H71106   6.639   7.313   8.569  2.2841 -0.7656  1.2694
  527MOL0     H71107   6.546   7.211   8.659  5.1549 -3.4213 -1.4004
  527MOL0     H71108   6.561   7.383   8.724  1.3661  0.0970  4.5245
  527MOL0     H71109   6.311   7.445   8.885  2.3411 -2.2639 -1.9144
  527MOL0     H71110   6.073   7.445   8.984 -1.6900 -1.7464 -0.2030
  527MOL0     H71111   5.933   7.086   9.161  1.6344 -0.5823  0.5240
  527MOL0     H71112   5.980   7.155   9.307 -0.1588  2.2485  0.6623
  527MOL0     H71113   5.726   7.211   9.144 -0.2781 -1.1236  0.0122
  527MOL0     H71114   5.724   7.090   9.278  0.3727 -0.8768  2.0496
  527MOL0     H71115   5.741   7.392   9.313  3.9362 -0.5029  1.2649
  527MOL0     H71116   5.772   7.285   9.444 -2.4883  1.7032  1.5920
  527MOL0     H71117   5.527   7.378   9.371  0.5040  0.5043  1.2885
  527MOL0     H71118   5.528   7.231   9.272  3.0568  0.9790 -2.8889
  527MOL0     H71119   5.589   7.242   9.566  1.6616  0.9309 -2.5780
  527MOL0     H71120   5.603   7.100   9.469  0.7514  0.4410  2.4498
  527MOL0     H71121   5.338   7.249   9.526 -0.8863 -1.4321  0.9243
  527MOL0     H71122   5.349   7.099   9.425  0.2107  0.9878 -0.9542
  527MOL0     H71123   5.281   7.064   9.657  0.2025 -0.0177  1.1688
  527MOL0     H71124   5.427   7.133   9.717  0.1901 -2.4761  1.0327
  527MOL0     H71125   5.425   6.904   9.725 -1.0666  3.3017  1.4852
  527MOL0     H71126   5.558   6.944   9.612  0.4047  1.8689  0.3416
  527MOL0     H71127   6.180   7.098   9.205 -0.7656  0.2064 -1.2997
  527MOL0     H71128   6.387   7.084   9.112 -2.1725 -2.4409 -0.5748
  527MOL0     H71129   6.842   7.107   9.027 -2.5562 -0.1442 -1.0710
  527MOL0     H71130   7.050   7.144   8.905 -0.8053 -1.2518 -0.2230
  527MOL0     H71131   7.542   7.327   9.387 -0.2545  0.6373 -1.5448
  527MOL0     H71132   7.482   7.127   9.482 -0.4437 -1.6954 -1.1905
  527MOL0     H71133   7.503   6.652   9.463 -3.8700 -3.5392  1.3798
  527MOL0     H71134   7.503   6.408   9.508  1.4921 -2.1392 -1.1915
  527MOL0     H71135   7.509   6.201   9.613  0.1298  1.9524 -1.7281
  527MOL0     H71136   7.612   6.195   9.468  0.3408 -5.4061 -0.4875
  527MOL0     H71137   7.574   5.978   9.567  0.4787  0.4366  0.1629
  527MOL0     H71138   7.637   6.037   9.718 -1.4208 -0.1860  0.3554
  527MOL0     H71139   7.797   5.887   9.565  3.4309 -0.2267  0.4386
  527MOL0     H71140   7.850   6.055   9.604  1.6504 -2.3462 -1.0471
  527MOL0     H71141   7.798   6.118   9.376  0.5325  1.5563  2.6637
  527MOL0     H71142   7.782   5.943   9.331  1.0461 -0.7397  0.3550
  527MOL0     H71143   8.175   5.906   9.373  1.6974  1.2657 -0.0148
  527MOL0     H71144   7.862   6.441   9.737  1.4115 -2.5686 -2.3858
  527MOL0     H71145   7.875   6.688   9.676  1.9251 -1.7856  0.0759
  528MOL0     O71146   6.593   3.109   4.751  0.0420 -0.5699 -0.6455
  528MOL0     C71147   6.690   3.172   4.718  0.3880  0.3263 -0.0159
  528MOL0     O71148   6.705   3.265   4.619 -0.4850  0.0940  0.3665
  528MOL0     C71149   6.595   3.298   4.546 -0.9074  0.2148 -0.1838
  528MOL0     C71150   6.607   3.297   4.404  0.1232  0.3735  0.4052
  528MOL0     C71151   6.503   3.343   4.325  0.0889  0.4646 -0.1890
  528MOL0     C71152   6.385   3.393   4.388 -0.1787 -0.2079 -0.0932
  528MOL0     O71153   6.272   3.451   4.328 -0.1327 -0.6898 -0.0729
  528MOL0     C71154   6.280   3.465   4.189  0.3849  0.6169 -0.0275
  528MOL0     C71155   6.169   3.547   4.134  0.1157 -0.8029 -0.2852
  528MOL0     C71156   6.032   3.493   4.125  0.8842  0.2000  0.7000
  528MOL0     C71157   5.982   3.458   3.982  0.1755  0.2489  0.2289
  528MOL0     C71158   6.020   3.310   3.951  0.0387  0.5009  0.1509
  528MOL0     C71159   5.967   3.252   3.821  0.1382  0.3146  0.2724
  528MOL0     C71160   5.996   3.320   3.687 -0.6163  0.6065 -0.2508
  528MOL0     C71161   5.913   3.250   3.581 -0.7791 -0.0987 -0.1446
  528MOL0     N71162   5.930   3.319   3.454  0.0771  0.1102  0.6394
  528MOL0     C71163   6.007   3.269   3.354  0.1234  0.4305 -0.7240
  528MOL0     C71164   5.990   3.356   3.251  0.1509 -0.2381 -0.6972
  528MOL0     C71165   6.062   3.358   3.120  0.6991 -0.7343 -0.9721
  528MOL0     C71166   6.005   3.270   3.006 -0.7712 -0.3396 -0.4010
  528MOL0     C71167   5.877   3.325   2.945 -0.5692  0.1733  0.1047
  528MOL0     C71168   5.767   3.237   2.887 -0.9247 -0.6662  0.2804
  528MOL0     O71169   5.690   3.317   2.801  0.2865  0.2228  0.0708
  528MOL0     C71170   5.587   3.257   2.733  0.0729 -0.3344 -0.3218
  528MOL0     C71171   5.478   3.340   2.693 -0.8696  0.7314 -0.2562
  528MOL0     C71172   5.374   3.288   2.621 -0.0853  0.3218 -0.7665
  528MOL0     C71173   5.260   3.377   2.584  0.0920  0.0373 -0.5310
  528MOL0     C71174   5.375   3.148   2.592 -0.3937  0.4455 -0.4888
  528MOL0     C71175   5.261   3.077   2.527 -0.2869 -1.3441 -0.5900
  528MOL0     O71176   5.298   2.983   2.444  0.3679  0.3236  0.2435
  528MOL0     C71177   5.210   2.887   2.401 -0.4642  0.0458 -0.3865
  528MOL0     C71178   5.104   2.836   2.480 -0.5665 -0.2852 -0.3400
  528MOL0     C71179   5.031   2.721   2.456  0.5227  0.2448  0.1513
  528MOL0     C71180   5.061   2.648   2.340  0.0465  0.1955 -0.0270
  528MOL0     O71181   4.988   2.527   2.325  0.2625 -0.6384 -1.0378
  528MOL0     C71182   5.012   2.452   2.212 -0.1165  0.0804  0.1936
  528MOL0     C71183   4.938   2.312   2.229 -0.1793 -0.2798  0.1474
  528MOL0     C71184   4.783   2.332   2.221  0.4933  0.6185  0.2160
  528MOL0     C71185   4.717   2.194   2.219  0.3539  0.4698 -0.2772
  528MOL0     C71186   4.575   2.192   2.166  0.6037  0.5816  0.7406
  528MOL0     C71187   4.495   2.058   2.201 -0.4750 -0.6011 -0.0167
  528MOL0     C71188   4.361   2.063   2.115  0.6754  0.9481 -0.0342
  528MOL0     C71189   4.292   1.921   2.129  0.0104 -0.1643  1.1735
  528MOL0    Cl71190   4.167   1.891   2.004  0.0886  0.0289 -0.1550
  528MOL0     C71191   5.171   2.687   2.256  0.7875 -0.4702 -0.7355
  528MOL0     C71192   5.241   2.804   2.291 -0.1837  0.3375 -0.1681
  528MOL0     O71193   5.149   3.116   2.556  0.0382 -0.0887  1.4595
  528MOL0     C71194   5.485   3.064   2.634  0.4429 -0.8039  0.2843
  528MOL0     C71195   5.587   3.122   2.706  0.2416  0.4274 -0.2542
  528MOL0     N71196   5.892   3.457   3.290 -0.1731 -0.2750 -0.3324
  528MOL0     N71197   5.869   3.440   3.411  0.0884 -0.2003  0.6224
  528MOL0     C71198   6.372   3.381   4.524  0.7246  0.6617  0.0687
  528MOL0     C71199   6.475   3.340   4.599 -0.2089  0.5304 -0.3845
  528MOL0     C71200   6.806   3.160   4.814 -0.3121 -0.6605  0.6084
  528MOL0     C71201   6.904   3.261   4.820 -0.3237  0.6589  0.0472
  528MOL0     C71202   7.023   3.238   4.891  0.1317 -0.1558  0.2371
  528MOL0     C71203   7.052   3.117   4.961 -0.1347  0.2303  0.3393
  528MOL0     O71204   7.172   3.097   5.029  0.8670  0.3696  0.3268
  528MOL0     C71205   7.249   3.203   5.084  0.4317 -0.4910  0.4879
  528MOL0     C71206   7.188   3.281   5.201  0.0939 -0.0716 -0.8870
  528MOL0     C71207   7.287   3.372   5.270 -0.0241  0.3350  0.5962
  528MOL0     C71208   7.235   3.457   5.381  0.8950  0.4125  0.3074
  528MOL0     C71209   7.150   3.564   5.323 -0.0155  0.7681  0.6685
  528MOL0     C71210   7.101   3.663   5.270  0.4406  1.5730 -1.0531
  528MOL0     C71211   6.954   3.019   4.956 -0.5135 -0.4963 -0.0248
  528MOL0     C71212   6.835   3.037   4.886  0.0608  0.2572 -0.1170
  528MOL0     H71213   6.709   3.270   4.375  0.1245  0.0262  0.7389
  528MOL0     H71214   6.532   3.334   4.220 -4.3286 -2.8956 -1.4397
  528MOL0     H71215   6.372   3.506   4.149 -0.7936  1.8366 -1.6155
  528MOL0     H71216   6.263   3.364   4.150 -5.3252  1.5825 -0.9277
  528MOL0     H71217   6.164   3.638   4.196 -2.0455 -0.1372 -1.3456
  528MOL0     H71218   6.201   3.577   4.034 -0.9452  1.9124  0.0916
  528MOL0     H71219   6.017   3.401   4.182 -0.6730  0.1576  0.2634
  528MOL0     H71220   5.962   3.567   4.165  0.2522 -0.3316  0.5980
  528MOL0     H71221   5.873   3.468   3.979  0.1127  0.3038  1.7835
  528MOL0     H71222   6.022   3.519   3.900  0.7984 -1.5656 -0.8697
  528MOL0     H71223   6.127   3.285   3.951 -0.1616 -0.4309  0.7387
  528MOL0     H71224   5.977   3.244   4.027  0.6289 -0.5492 -0.3943
  528MOL0     H71225   6.003   3.151   3.803 -0.5771  0.2246 -0.6895
  528MOL0     H71226   5.859   3.242   3.828  0.1436  0.6456  0.9596
  528MOL0     H71227   5.971   3.425   3.702 -1.7695  0.1148  1.7728
  528MOL0     H71228   6.102   3.313   3.663 -0.3410  4.6036 -0.8567
  528MOL0     H71229   5.809   3.262   3.613  0.2128  1.0897  3.0068
  528MOL0     H71230   5.930   3.143   3.567  2.0239  0.5477 -2.7058
  528MOL0     H71231   6.063   3.176   3.352 -0.9453 -0.2414 -0.4778
  528MOL0     H71232   6.076   3.464   3.095  1.5239 -0.8657 -1.1067
  528MOL0     H71233   6.163   3.323   3.145  1.1186  0.3319 -1.1096
  528MOL0     H71234   5.980   3.173   3.050 -0.0262 -0.5445 -0.4129
  528MOL0     H71235   6.079   3.271   2.925  0.4575  1.0652  0.6687
  528MOL0     H71236   5.909   3.386   2.860 -2.4611 -1.2767 -1.7741
  528MOL0     H71237   5.833   3.388   3.023  1.9722  0.3628  1.4724
  528MOL0     H71238   5.720   3.188   2.972  1.6507 -3.0736  0.4667
  528MOL0     H71239   5.821   3.157   2.835  1.8660  1.6516 -0.6993
  528MOL0     H71240   5.464   3.445   2.720  0.8066  0.9776 -0.2391
  528MOL0     H71241   5.244   3.362   2.477  0.9041 -0.7175 -0.5549
  528MOL0     H71242   5.164   3.355   2.632 -1.2162 -2.3999 -3.8777
  528MOL0     H71243   5.286   3.483   2.593 -1.8911  0.4935  0.6246
  528MOL0     H71244   5.074   2.887   2.571  3.6990  2.4661 -0.2292
  528MOL0     H71245   4.958   2.694   2.531 -1.1788  0.8890 -1.1962
  528MOL0     H71246   5.002   2.506   2.117  0.4398  0.4267  0.3283
  528MOL0     H71247   5.116   2.416   2.210 -0.8383 -2.1557 -1.0951
  528MOL0     H71248   4.970   2.241   2.152 -0.2495  1.9991 -2.1126
  528MOL0     H71249   4.960   2.260   2.322 -0.8375  0.8017  0.9297
  528MOL0     H71250   4.747   2.368   2.124  0.2820 -4.7442 -2.0258
  528MOL0     H71251   4.736   2.396   2.297 -0.8568  0.1455 -0.2004
  528MOL0     H71252   4.781   2.126   2.163 -1.8898 -0.6804 -1.5686
  528MOL0     H71253   4.700   2.153   2.319  0.2490 -0.0562 -0.5082
  528MOL0     H71254   4.578   2.213   2.059  1.4976 -3.4297 -0.1866
  528MOL0     H71255   4.512   2.267   2.215 -0.8171 -0.4609  0.6049
  528MOL0     H71256   4.569   1.982   2.175 -1.8590 -2.8256  2.1622
  528MOL0     H71257   4.469   2.054   2.307 -1.8028  4.7839  0.1489
  528MOL0     H71258   4.380   2.077   2.008 -0.4379  1.1733 -0.2129
  528MOL0     H71259   4.294   2.139   2.155  0.7693 -0.4476  3.0347
  528MOL0     H71260   4.251   1.908   2.230  0.7623  0.4408  1.5670
  528MOL0     H71261   4.373   1.852   2.104  1.5958  2.2739 -0.8670
  528MOL0     H71262   5.196   2.622   2.173  1.6564  2.3536 -2.8322
  528MOL0     H71263   5.321   2.835   2.224 -0.5391  4.1453  0.9298
  528MOL0     H71264   5.493   2.956   2.621  0.2081 -0.8710  0.6748
  528MOL0     H71265   5.657   3.054   2.754 -0.8898 -0.9322 -0.4463
  528MOL0     H71266   6.273   3.406   4.561  0.5215 -1.1626  0.9216
  528MOL0     H71267   6.461   3.334   4.707  2.0697 -1.1660 -0.1106
  528MOL0     H71268   6.881   3.352   4.765 -2.4938 -1.4054 -2.7807
  528MOL0     H71269   7.087   3.326   4.892  0.8723 -0.6643 -0.5044
  528MOL0     H71270   7.342   3.156   5.116  1.6088  0.1537 -1.8125
  528MOL0     H71271   7.271   3.277   5.006  1.4846 -0.4924  0.7638
  528MOL0     H71272   7.148   3.214   5.277  0.0985 -1.1023 -1.7719
  528MOL0     H71273   7.107   3.337   5.154 -3.1032 -2.5566  1.2405
  528MOL0     H71274   7.342   3.432   5.197 -1.4996 -0.6826 -1.4226
  528MOL0     H71275   7.358   3.308   5.325  1.5390  1.4041 -0.0900
  528MOL0     H71276   7.318   3.495   5.441 -2.9388  3.2751  4.3992
  528MOL0     H71277   7.168   3.397   5.444  2.8914 -0.8739  1.3011
  528MOL0     H71278   7.068   3.735   5.199 -2.5204 -1.6806 -3.3147
  528MOL0     H71279   6.968   2.927   5.011 -2.4852 -0.7443  0.1430
  528MOL0     H71280   6.777   2.948   4.867 -0.1231  1.0652 -4.3700
  529MOL0     O71281   9.544   8.790   2.639 -1.0421 -0.3240  0.3407
  529MOL0     C71282   9.591   8.706   2.562 -0.1264  0.3167  0.3009
  529MOL0     O71283   9.724   8.692   2.537 -0.3027 -0.3885  0.1046
  529MOL0     C71284   9.812   8.762   2.610 -0.2391 -0.2487 -0.1083
  529MOL0     C71285   9.832   8.901   2.585  0.0386  0.1715 -0.4323
  529MOL0     C71286   9.919   8.971   2.669 -0.5269  0.3579  0.1281
  529MOL0     C71287  10.008   8.903   2.755 -0.2995  0.7688 -0.1246
  529MOL0     O71288  10.101   8.966   2.830  0.7719 -0.1489 -0.5659
  529MOL0     C71289  10.208   9.031   2.759 -0.0690 -0.4321  0.5429
  529MOL0     C71290  10.305   8.936   2.682 -0.0227 -0.2130  0.7540
  529MOL0     C71291  10.430   8.922   2.762 -0.8502 -0.8166 -0.2700
  529MOL0     C71292  10.528   8.852   2.674  0.0740 -0.9577 -0.1625
  529MOL0     C71293  10.666   8.856   2.736  0.1880  0.1280 -0.5449
  529MOL0     C71294  10.677   8.750   2.849  0.8457  0.3330  0.6520
  529MOL0     C71295  10.809   8.702   2.896 -0.1674  0.3086 -0.3418
  529MOL0     C71296  10.898   8.818   2.969 -0.4198 -0.2502 -0.2148
  529MOL0     N71297  11.037   8.788   2.944 -0.1678 -0.5035 -0.8911
  529MOL0     C71298  11.119   8.685   2.991  0.2829  0.3710  0.1719
  529MOL0     C71299  11.241   8.707   2.947  0.3262  0.0167 -0.3629
  529MOL0     C71300  11.365   8.621   2.961  0.7174 -0.5584 -0.0130
  529MOL0     C71301  11.341   8.500   3.054 -0.1178  0.7107  0.4007
  529MOL0     C71302  11.470   8.452   3.112 -0.8927 -0.1149 -0.1595
  529MOL0     C71303  11.454   8.306   3.166  0.1941 -0.0909 -0.7405
  529MOL0     O71304  11.581   8.257   3.219 -0.3738 -0.5347 -0.2528
  529MOL0     C71305  11.586   8.131   3.275 -0.2923  0.6107  1.2548
  529MOL0     C71306  11.701   8.087   3.339 -0.5438 -0.2945 -0.0290
  529MOL0     C71307  11.730   7.962   3.398 -0.6546 -0.1224 -1.1000
  529MOL0     C71308  11.867   7.929   3.441  0.2512  0.5516 -0.7371
  529MOL0     C71309  11.635   7.867   3.374  0.7531  0.1738  0.8021
  529MOL0     C71310  11.658   7.723   3.395 -0.0684  0.7233 -0.2062
  529MOL0     O71311  11.730   7.693   3.511 -0.3917  0.1462  0.3480
  529MOL0     C71312  11.750   7.557   3.528  0.6220 -0.4977 -0.3541
  529MOL0     C71313  11.879   7.515   3.535 -0.8181  0.6095 -0.5141
  529MOL0     C71314  11.897   7.382   3.564  0.0126  0.4941  0.4287
  529MOL0     C71315  11.791   7.286   3.569  0.4810 -0.1335  0.7216
  529MOL0     O71316  11.826   7.157   3.576  0.2952  1.1914 -0.2621
  529MOL0     C71317  11.717   7.063   3.562  0.2380 -0.6473 -0.7249
  529MOL0     C71318  11.792   6.925   3.562  0.2456 -0.1247 -0.2197
  529MOL0     C71319  11.721   6.809   3.637  0.1470 -0.5613  0.5494
  529MOL0     C71320  11.590   6.790   3.562 -0.9081 -0.4517 -0.4170
  529MOL0     C71321  11.502   6.704   3.639 -0.2419 -0.8012  0.3570
  529MOL0     C71322  11.449   6.764   3.774  0.0303  0.4894  0.6294
  529MOL0     C71323  11.387   6.655   3.855 -0.2836  0.0440 -0.4749
  529MOL0     C71324  11.393   6.678   4.013  0.3036  0.9272 -0.2879
  529MOL0    Cl71325  11.256   6.800   4.042 -0.8111  0.2648 -0.2796
  529MOL0     C71326  11.659   7.330   3.556 -0.4916  0.5304 -0.2225
  529MOL0     C71327  11.631   7.472   3.536 -0.4297  0.1872  0.3971
  529MOL0     O71328  11.612   7.648   3.311 -0.4443  0.0965 -0.2489
  529MOL0     C71329  11.509   7.902   3.310 -0.1234  0.2608  1.0393
  529MOL0     C71330  11.493   8.029   3.259 -0.0282  0.2711  0.2093
  529MOL0     N71331  11.235   8.813   2.865 -0.3219  0.5359  1.0677
  529MOL0     N71332  11.115   8.862   2.865  0.3575 -0.2905  0.1334
  529MOL0     C71333  10.011   8.763   2.754  0.6331  0.6000 -0.5738
  529MOL0     C71334   9.905   8.692   2.691 -0.6544  1.1109  0.8472
  529MOL0     C71335   9.505   8.608   2.502 -0.1609 -0.0475  0.8715
  529MOL0     C71336   9.552   8.491   2.430  0.6721 -0.0258 -0.5394
  529MOL0     C71337   9.458   8.391   2.387 -0.2640 -0.0306  0.8727
  529MOL0     C71338   9.324   8.390   2.430  0.0767  0.1281  0.1825
  529MOL0     O71339   9.237   8.278   2.408 -0.0520  0.1985 -0.4909
  529MOL0     C71340   9.297   8.166   2.339 -0.9041  0.1104 -0.3448
  529MOL0     C71341   9.192   8.060   2.314  0.0151  0.6911  0.2498
  529MOL0     C71342   9.118   7.998   2.429 -0.8557 -0.2473  0.1520
  529MOL0     C71343   8.981   7.924   2.386 -0.3624 -0.1314  0.2912
  529MOL0     C71344   8.994   7.796   2.310  0.2032 -0.6395  0.5755
  529MOL0     C71345   8.998   7.701   2.239 -0.1428 -0.4761  0.0727
  529MOL0     C71346   9.282   8.502   2.507  0.5323  0.3530 -0.0367
  529MOL0     C71347   9.366   8.601   2.535  0.3076 -0.3147  0.0604
  529MOL0     H71348   9.764   8.951   2.516 -0.4004 -0.5041 -0.4998
  529MOL0     H71349   9.951   9.075   2.665 -0.7355  0.4237  0.1713
  529MOL0     H71350  10.167   9.100   2.685  1.6078 -0.5458 -0.5422
  529MOL0     H71351  10.270   9.079   2.836  3.1703 -1.9800 -0.9337
  529MOL0     H71352  10.262   8.836   2.676  1.3490 -0.7696 -0.6008
  529MOL0     H71353  10.330   8.976   2.583  1.0870 -1.6031  0.4337
  529MOL0     H71354  10.474   9.020   2.784 -2.7923  0.5504 -2.1076
  529MOL0     H71355  10.411   8.865   2.853  1.0939 -0.3357  0.4987
  529MOL0     H71356  10.494   8.753   2.642  0.4816 -0.7866 -1.1656
  529MOL0     H71357  10.531   8.910   2.580 -3.7486 -1.3560 -0.6815
  529MOL0     H71358  10.748   8.835   2.667  1.5053  0.3606  0.8855
  529MOL0     H71359  10.694   8.952   2.782  1.2824 -0.0997 -0.6915
  529MOL0     H71360  10.613   8.781   2.932 -1.0347 -4.2843  1.2246
  529MOL0     H71361  10.625   8.662   2.810 -2.8949  1.8228  1.8365
  529MOL0     H71362  10.793   8.619   2.965  2.7371 -0.2433 -0.2156
  529MOL0     H71363  10.860   8.658   2.810 -0.9541  2.0365 -1.7923
  529MOL0     H71364  10.887   8.809   3.077 -0.3535 -0.3996 -0.2199
  529MOL0     H71365  10.861   8.918   2.944 -0.5295 -0.0109  0.8770
  529MOL0     H71366  11.090   8.603   3.056  1.4362  2.1550  3.1996
  529MOL0     H71367  11.399   8.598   2.860  1.8088  0.8764 -0.0046
  529MOL0     H71368  11.446   8.684   2.998  0.7064  0.8177 -2.1116
  529MOL0     H71369  11.271   8.430   3.007  0.5809  0.2838 -0.0175
  529MOL0     H71370  11.294   8.542   3.144  1.3580 -0.5141  1.8109
  529MOL0     H71371  11.507   8.506   3.200  2.2260 -1.2629 -0.6474
  529MOL0     H71372  11.540   8.450   3.028  1.7958 -2.2774  1.9201
  529MOL0     H71373  11.406   8.251   3.084 -4.2461  2.3010 -0.0461
  529MOL0     H71374  11.375   8.281   3.238  0.4035  0.3028 -0.3751
  529MOL0     H71375  11.780   8.160   3.325 -3.4210  2.7510 -1.9076
  529MOL0     H71376  11.887   7.943   3.548  1.7111  1.1969 -1.0588
  529MOL0     H71377  11.905   7.835   3.399 -3.9124 -1.4291 -0.5343
  529MOL0     H71378  11.927   8.006   3.390 -1.3384  3.0029  0.8570
  529MOL0     H71379  11.958   7.590   3.529 -1.1893  1.1028  0.5991
  529MOL0     H71380  12.000   7.349   3.574  0.6325  2.2044  0.0328
  529MOL0     H71381  11.652   7.081   3.648 -0.2261 -0.0367 -1.1909
  529MOL0     H71382  11.670   7.078   3.464 -0.9142 -1.6013 -0.3426
  529MOL0     H71383  11.822   6.900   3.460 -0.8738  0.8981 -0.8342
  529MOL0     H71384  11.888   6.936   3.613  1.3602  0.8686 -2.4112
  529MOL0     H71385  11.719   6.825   3.746  2.3158  0.2279  0.5200
  529MOL0     H71386  11.781   6.719   3.620  3.5093  1.7090 -0.7388
  529MOL0     H71387  11.548   6.891   3.557  2.5002  1.1526  0.3672
  529MOL0     H71388  11.606   6.751   3.462  0.3150 -1.9096  0.3171
  529MOL0     H71389  11.545   6.607   3.664 -0.8566 -1.7527 -1.9618
  529MOL0     H71390  11.413   6.686   3.578 -0.4732 -2.5957  1.1533
  529MOL0     H71391  11.521   6.813   3.841  0.0243 -0.9458  1.7359
  529MOL0     H71392  11.387   6.849   3.741 -1.0530 -0.1996  0.8293
  529MOL0     H71393  11.448   6.568   3.834  1.4424  1.9182 -4.0958
  529MOL0     H71394  11.287   6.636   3.814  0.6571  1.2805 -3.6324
  529MOL0     H71395  11.486   6.718   4.056  0.7006  1.4534 -1.5840
  529MOL0     H71396  11.378   6.585   4.067 -0.6883  0.8028 -0.7627
  529MOL0     H71397  11.572   7.267   3.566  0.7694 -1.2718  0.0119
  529MOL0     H71398  11.533   7.508   3.508 -0.7567 -0.6251  0.4687
  529MOL0     H71399  11.428   7.836   3.281  0.8417  0.0312 -1.2812
  529MOL0     H71400  11.407   8.039   3.195 -0.0130  0.7530  0.2601
  529MOL0     H71401  10.075   8.712   2.824  0.6317 -2.1283 -2.4327
  529MOL0     H71402   9.908   8.587   2.720  5.1656  1.2829  2.2140
  529MOL0     H71403   9.657   8.483   2.402  1.0248  3.0319 -0.4297
  529MOL0     H71404   9.496   8.300   2.341 -4.4328 -1.0027 -1.1613
  529MOL0     H71405   9.337   8.213   2.249 -0.0593  4.2049  1.9082
  529MOL0     H71406   9.383   8.130   2.398 -1.7207 -0.8409  0.3068
  529MOL0     H71407   9.252   7.975   2.279  1.9978  0.1653  4.2679
  529MOL0     H71408   9.117   8.097   2.244  0.9179  1.8733 -0.1212
  529MOL0     H71409   9.091   8.084   2.491  1.5869  0.5714  0.1952
  529MOL0     H71410   9.175   7.925   2.488 -0.2797 -2.0000 -2.3944
  529MOL0     H71411   8.915   7.998   2.340  0.6394 -0.0931 -1.1525
  529MOL0     H71412   8.932   7.893   2.479 -1.8396  2.2785  0.4104
  529MOL0     H71413   8.996   7.619   2.169 -0.4300 -2.6066  2.4396
  529MOL0     H71414   9.182   8.512   2.548 -0.0015  2.8830 -1.7514
  529MOL0     H71415   9.331   8.685   2.594  1.8426  0.7382 -0.4367
  530MOL0     O71416   2.566   0.362   4.665 -0.9553  0.3816  0.4941
  530MOL0     C71417   2.587   0.293   4.565 -0.5244  0.8572  1.2020
  530MOL0     O71418   2.693   0.306   4.481  0.3930 -0.1427  0.1225
  530MOL0     C71419   2.801   0.376   4.533  1.6939 -0.2838  0.0736
  530MOL0     C71420   2.914   0.295   4.547 -0.3126  0.3654 -0.5803
  530MOL0     C71421   3.035   0.353   4.597  0.6899  0.0460  0.5839
  530MOL0     C71422   3.033   0.487   4.642 -0.2463  0.8755 -0.5357
  530MOL0     O71423   3.150   0.550   4.698  1.2556  0.3577  0.6540
  530MOL0     C71424   3.264   0.474   4.728  0.2957 -0.8462  0.6188
  530MOL0     C71425   3.362   0.544   4.834  0.0622  0.8641  0.0376
  530MOL0     C71426   3.451   0.654   4.776  0.8969 -1.1719  0.3782
  530MOL0     C71427   3.549   0.695   4.886 -0.1824 -0.7755 -0.5299
  530MOL0     C71428   3.641   0.821   4.880  0.3651  0.2164  0.0543
  530MOL0     C71429   3.780   0.794   4.844  0.3784  0.1465  0.4072
  530MOL0     C71430   3.850   0.927   4.820  0.3052  0.4508 -0.1475
  530MOL0     C71431   3.989   0.923   4.755  0.6045 -0.1351 -0.4650
  530MOL0     N71432   4.067   0.821   4.826 -0.5261  0.6191 -0.8175
  530MOL0     C71433   4.081   0.687   4.793 -0.0667 -0.2553  0.0982
  530MOL0     C71434   4.169   0.644   4.890 -0.1339 -0.6788  0.0066
  530MOL0     C71435   4.219   0.512   4.918  0.4389 -0.6155  0.1265
  530MOL0     C71436   4.109   0.413   4.874  0.2273  0.5233  0.1527
  530MOL0     C71437   3.971   0.433   4.945 -0.4366  0.4959 -0.7338
  530MOL0     C71438   3.857   0.359   4.866 -0.3944  0.0431 -0.3486
  530MOL0     O71439   3.853   0.425   4.738 -1.1874 -0.3771 -0.1505
  530MOL0     C71440   3.755   0.380   4.646 -0.1605 -0.4280  0.3733
  530MOL0     C71441   3.757   0.415   4.514  0.2551 -0.2163  0.0029
  530MOL0     C71442   3.658   0.375   4.415  0.1078  0.5764 -0.1791
  530MOL0     C71443   3.665   0.431   4.272 -0.0201 -0.2383  0.1976
  530MOL0     C71444   3.544   0.308   4.459 -0.3226 -0.4987  0.9936
  530MOL0     C71445   3.440   0.265   4.369  0.7687  0.0388  0.0551
  530MOL0     O71446   3.389   0.146   4.413 -0.1518 -0.7658  0.0370
  530MOL0     C71447   3.325   0.075   4.312 -0.1001  0.1962 -0.3439
  530MOL0     C71448   3.190   0.050   4.319  0.3660  0.3939  0.4719
  530MOL0     C71449   3.123  -0.017   4.209 -0.0783  0.1213  0.3468
  530MOL0     C71450   3.198  -0.058   4.092 -0.4977  0.7263 -0.2092
  530MOL0     O71451   3.124  -0.101   3.985  0.1653 -0.0266 -0.9507
  530MOL0     C71452   3.182  -0.215   3.903 -0.0344 -0.1252 -0.0833
  530MOL0     C71453   3.239  -0.332   3.987 -0.0482  0.8824 -0.2149
  530MOL0     C71454   3.298  -0.434   3.889  0.0756  0.3854 -0.5283
  530MOL0     C71455   3.444  -0.401   3.865 -0.5911  0.6851  1.3344
  530MOL0     C71456   3.528  -0.521   3.814 -0.5073  0.5445 -0.4774
  530MOL0     C71457   3.578  -0.606   3.930  0.4098 -0.2527 -0.7278
  530MOL0     C71458   3.624  -0.735   3.868  0.3881  0.8367 -0.3700
  530MOL0     C71459   3.665  -0.849   3.961 -0.2155  0.3108 -0.9360
  530MOL0    Cl71460   3.810  -0.790   4.055  0.0482  0.2088  0.0643
  530MOL0     C71461   3.340  -0.050   4.092  0.3804  0.2068  0.4397
  530MOL0     C71462   3.390   0.015   4.202 -0.1243 -0.5304 -0.9784
  530MOL0     O71463   3.380   0.341   4.297  0.1558 -0.6372  1.0581
  530MOL0     C71464   3.546   0.267   4.592  0.7481  0.0674  0.4936
  530MOL0     C71465   3.648   0.297   4.685 -1.0348  0.1397  0.3739
  530MOL0     N71466   4.203   0.754   4.974  0.2591  0.7184 -0.6025
  530MOL0     N71467   4.145   0.862   4.929  0.5854  0.3103 -0.3586
  530MOL0     C71468   2.918   0.559   4.643  0.1496  0.9927  0.3685
  530MOL0     C71469   2.805   0.512   4.566 -0.5474  0.1563  0.2088
  530MOL0     C71470   2.479   0.190   4.525 -0.3384 -0.2750  0.7389
  530MOL0     C71471   2.512   0.072   4.444  0.6807  0.6978 -0.6598
  530MOL0     C71472   2.402  -0.017   4.425 -0.7814 -0.2906  0.2681
  530MOL0     C71473   2.277   0.003   4.458  0.4134 -0.0718  0.0880
  530MOL0     O71474   2.190  -0.093   4.414 -0.2446  0.1693 -0.2917
  530MOL0     C71475   2.064  -0.116   4.474 -0.3493  0.5458 -0.5248
  530MOL0     C71476   2.069  -0.208   4.594  0.1360  0.6964  0.0689
  530MOL0     C71477   1.936  -0.279   4.625 -0.3542  0.3654  0.4210
  530MOL0     C71478   1.967  -0.386   4.716  0.8655  0.0770 -0.1700
  530MOL0     C71479   2.054  -0.486   4.658  1.3741 -0.1901 -0.6182
  530MOL0     C71480   2.114  -0.559   4.583  0.0131 -0.0279  0.2925
  530MOL0     C71481   2.250   0.115   4.536  0.3168  1.1491 -0.1480
  530MOL0     C71482   2.347   0.211   4.570 -0.3092  1.3866  0.0420
  530MOL0     H71483   2.913   0.192   4.514 -0.2199 -0.1778  0.9919
  530MOL0     H71484   3.123   0.289   4.603  1.7109  1.5482  3.6070
  530MOL0     H71485   3.238   0.379   4.775 -1.3098 -0.9881 -0.4676
  530MOL0     H71486   3.323   0.444   4.641  1.2898  0.3920  0.8375
  530MOL0     H71487   3.310   0.586   4.921 -0.1214  1.5091 -0.3823
  530MOL0     H71488   3.420   0.459   4.872 -2.2043  0.1724  2.1798
  530MOL0     H71489   3.514   0.632   4.690  0.1635 -1.8455 -0.0020
  530MOL0     H71490   3.385   0.737   4.747  0.0468 -2.2655 -0.9506
  530MOL0     H71491   3.514   0.688   4.990  2.5831  0.5935  0.6090
  530MOL0     H71492   3.620   0.611   4.881  0.0514 -0.6038 -0.1641
  530MOL0     H71493   3.603   0.899   4.813  0.3797 -0.6968 -1.0547
  530MOL0     H71494   3.632   0.861   4.981  0.3175  1.0724 -0.2842
  530MOL0     H71495   3.832   0.745   4.927  1.4673  2.0127  0.8980
  530MOL0     H71496   3.770   0.727   4.758  0.5420  0.9507 -0.2533
  530MOL0     H71497   3.787   0.993   4.760  0.2939 -0.8094 -1.5790
  530MOL0     H71498   3.856   0.982   4.915  1.2626 -0.3381  0.2656
  530MOL0     H71499   4.040   1.017   4.775 -1.2734  0.7695  0.3991
  530MOL0     H71500   3.985   0.911   4.647  2.3517 -1.1560 -0.4507
  530MOL0     H71501   4.029   0.632   4.715  0.5200 -2.2671  1.0669
  530MOL0     H71502   4.319   0.491   4.879  0.5909 -1.1069  0.7576
  530MOL0     H71503   4.228   0.500   5.027 -1.4521  0.1506  0.4013
  530MOL0     H71504   4.162   0.327   4.916  3.0096  2.8362  1.7405
  530MOL0     H71505   4.114   0.411   4.764 -1.4688  3.0314 -0.0405
  530MOL0     H71506   3.936   0.537   4.940 -2.2643  0.0104  0.7669
  530MOL0     H71507   3.980   0.404   5.050  4.4577 -2.0752 -1.5522
  530MOL0     H71508   3.773   0.378   4.933  0.6106 -0.1550  1.0231
  530MOL0     H71509   3.871   0.251   4.877 -2.3437 -0.3610 -1.5119
  530MOL0     H71510   3.835   0.485   4.486  2.6062 -0.7936  4.3099
  530MOL0     H71511   3.627   0.355   4.203  2.3272 -0.0507 -1.4228
  530MOL0     H71512   3.610   0.522   4.247 -0.1356  0.0819  1.5265
  530MOL0     H71513   3.768   0.436   4.236  0.5001 -2.0717  1.3044
  530MOL0     H71514   3.135   0.092   4.402  0.9545 -2.1480  2.2403
  530MOL0     H71515   3.015  -0.025   4.211 -0.4494  3.5632  1.0079
  530MOL0     H71516   3.110  -0.259   3.833  1.3395  2.0553 -3.0622
  530MOL0     H71517   3.258  -0.163   3.845  1.1906 -1.1290  0.5726
  530MOL0     H71518   3.305  -0.308   4.070  0.4933  1.0426 -0.6882
  530MOL0     H71519   3.152  -0.376   4.038  1.0042  0.5510  1.3612
  530MOL0     H71520   3.242  -0.437   3.794  0.5610  0.2606 -0.8126
  530MOL0     H71521   3.296  -0.534   3.934  0.9447  1.9845  3.4194
  530MOL0     H71522   3.435  -0.347   3.770  0.5305 -2.9170 -1.0097
  530MOL0     H71523   3.499  -0.347   3.942  2.0480 -1.5102  1.1272
  530MOL0     H71524   3.610  -0.494   3.747 -0.5955 -2.5954 -2.0166
  530MOL0     H71525   3.455  -0.578   3.755 -0.5537  0.5494 -0.4238
  530MOL0     H71526   3.655  -0.562   3.995 -2.9994  1.5719  2.4243
  530MOL0     H71527   3.497  -0.633   3.998  0.7436  4.2543  1.8786
  530MOL0     H71528   3.713  -0.717   3.807 -0.2221 -0.7729 -1.8417
  530MOL0     H71529   3.552  -0.773   3.794  1.9323 -1.5303 -0.7760
  530MOL0     H71530   3.699  -0.928   3.894  0.2604  1.4919 -2.1613
  530MOL0     H71531   3.584  -0.888   4.023  1.1046 -0.0669  0.6039
  530MOL0     H71532   3.411  -0.085   4.017 -1.9294 -1.2005 -1.2173
  530MOL0     H71533   3.495   0.041   4.191 -0.9506  3.5207 -1.0516
  530MOL0     H71534   3.481   0.196   4.641  0.1910 -0.8521 -1.4606
  530MOL0     H71535   3.644   0.276   4.791  2.2588  0.1727  0.6059
  530MOL0     H71536   2.912   0.662   4.678 -1.6952  0.3612  2.0915
  530MOL0     H71537   2.720   0.578   4.551  0.8668  1.4487 -2.8762
  530MOL0     H71538   2.616   0.055   4.421  0.9210 -3.0945  2.1868
  530MOL0     H71539   2.409  -0.106   4.364  1.2996  0.6958 -1.0762
  530MOL0     H71540   2.023  -0.019   4.504 -0.4725 -0.0194  1.1836
  530MOL0     H71541   1.993  -0.160   4.403 -2.2138  3.1053 -0.3939
  530MOL0     H71542   2.109  -0.160   4.683 -2.4247  0.3132  1.5161
  530MOL0     H71543   2.137  -0.282   4.549  1.5485  2.9071 -1.6746
  530MOL0     H71544   1.882  -0.315   4.537  1.4989 -1.7514  0.0612
  530MOL0     H71545   1.874  -0.205   4.677 -0.2796 -0.5379  1.8571
  530MOL0     H71546   1.877  -0.433   4.755 -0.1029  3.4935  2.1529
  530MOL0     H71547   2.023  -0.340   4.798  2.5764  0.5239 -1.5072
  530MOL0     H71548   2.168  -0.631   4.525  0.6040  0.8015 -0.2048
  530MOL0     H71549   2.151   0.142   4.569 -0.1611  0.5337 -1.0200
  530MOL0     H71550   2.322   0.308   4.611 -2.7195  1.3042 -1.0511
  531MOL0     O71551   8.388  10.185   0.403 -0.1688  0.0709  0.0923
  531MOL0     C71552   8.413  10.085   0.333  0.1757 -0.4656 -0.6405
  531MOL0     O71553   8.372   9.961   0.368 -0.2969  0.4601  0.4567
  531MOL0     C71554   8.298   9.947   0.481  0.8265 -0.7624  0.7684
  531MOL0     C71555   8.176  10.003   0.491 -0.0716 -0.2203 -0.3232
  531MOL0     C71556   8.092   9.976   0.594  0.3691  0.0819  1.4009
  531MOL0     C71557   8.126   9.888   0.694 -0.3025 -0.0868  0.0695
  531MOL0     O71558   8.026   9.852   0.786  0.1867 -0.2798 -0.4702
  531MOL0     C71559   8.046   9.792   0.918 -0.1615 -0.7944  0.7751
  531MOL0     C71560   7.915   9.804   0.991 -0.3297 -0.2307  0.4117
  531MOL0     C71561   7.937   9.769   1.142  0.9880 -0.3333 -0.3681
  531MOL0     C71562   7.798   9.774   1.221 -1.0887 -0.6760 -0.8764
  531MOL0     C71563   7.842   9.764   1.373  0.1111  0.2724 -0.6721
  531MOL0     C71564   7.727   9.760   1.467 -0.4521  0.3081  0.0168
  531MOL0     C71565   7.686   9.624   1.536 -0.4125  1.3270 -0.3437
  531MOL0     C71566   7.768   9.609   1.666 -0.3232 -0.0539 -0.6038
  531MOL0     N71567   7.706   9.523   1.768 -0.1630  0.0760 -0.4112
  531MOL0     C71568   7.601   9.563   1.848 -0.5839  0.4071 -0.6196
  531MOL0     C71569   7.604   9.488   1.959 -0.6608 -0.1110  0.3393
  531MOL0     C71570   7.513   9.488   2.082 -0.0640 -0.5108  0.6068
  531MOL0     C71571   7.570   9.551   2.208  0.8209 -0.9264  0.6719
  531MOL0     C71572   7.644   9.449   2.294  0.3588 -0.5694  0.6977
  531MOL0     C71573   7.563   9.358   2.380 -0.0572 -0.8158  0.4345
  531MOL0     O71574   7.639   9.273   2.469  0.0103  0.2862 -0.3554
  531MOL0     C71575   7.732   9.182   2.429  0.3180  0.4067  0.1894
  531MOL0     C71576   7.817   9.130   2.521  0.3872 -0.5451 -0.7917
  531MOL0     C71577   7.909   9.030   2.489 -0.3198  0.6683  0.1665
  531MOL0     C71578   7.984   8.978   2.602 -0.9616  0.5364 -0.3460
  531MOL0     C71579   7.924   8.980   2.362 -0.6699 -0.4245 -0.2841
  531MOL0     C71580   8.009   8.861   2.315  0.5908 -0.0744  0.0790
  531MOL0     O71581   7.947   8.789   2.214 -0.0591 -0.0019 -0.2996
  531MOL0     C71582   8.019   8.683   2.170 -0.3847  0.3828 -0.0082
  531MOL0     C71583   8.079   8.697   2.051  0.5832  0.3559  0.5306
  531MOL0     C71584   8.169   8.596   1.994 -0.1234  0.5155 -0.3124
  531MOL0     C71585   8.205   8.479   2.066 -0.4385 -0.2582 -0.1601
  531MOL0     O71586   8.295   8.396   2.010 -0.0652 -0.0090 -0.6538
  531MOL0     C71587   8.252   8.255   2.012 -0.4342 -0.4528  0.8869
  531MOL0     C71588   8.369   8.165   1.969  0.5705  0.1351 -0.0752
  531MOL0     C71589   8.489   8.165   2.062 -0.2443 -0.3934 -0.0996
  531MOL0     C71590   8.581   8.039   2.053  0.0778  0.6835 -0.4979
  531MOL0     C71591   8.521   7.915   2.096  0.1458 -0.1675  0.0082
  531MOL0     C71592   8.609   7.790   2.079  0.5054 -0.3257  0.2546
  531MOL0     C71593   8.552   7.665   2.155 -0.6319  0.8340  0.2477
  531MOL0     C71594   8.660   7.561   2.174  0.3368 -0.8262 -0.1767
  531MOL0    Cl71595   8.719   7.500   2.011 -0.2335 -0.0817 -0.4231
  531MOL0     C71596   8.145   8.467   2.189 -0.1757 -0.0609 -0.9743
  531MOL0     C71597   8.056   8.561   2.238  0.4690 -0.0952 -0.2351
  531MOL0     O71598   8.116   8.835   2.364 -0.3876  0.3805 -0.1542
  531MOL0     C71599   7.846   9.042   2.263  0.4116 -0.5590 -0.4576
  531MOL0     C71600   7.752   9.139   2.294 -0.2210 -0.4345  0.2646
  531MOL0     N71601   7.697   9.398   1.936  0.3348  0.5505 -0.6712
  531MOL0     N71602   7.760   9.414   1.828 -0.7849  0.5139 -0.0912
  531MOL0     C71603   8.267   9.835   0.700  0.6693  0.0036  0.0198
  531MOL0     C71604   8.348   9.864   0.582  1.3454 -0.0624 -0.6484
  531MOL0     C71605   8.502  10.110   0.213 -0.7383  0.7235 -0.2908
  531MOL0     C71606   8.503  10.029   0.099  0.7157  0.3484  0.2272
  531MOL0     C71607   8.582  10.059  -0.007  0.2194  0.7022  0.5724
  531MOL0     C71608   8.667  10.170  -0.007  0.7690  0.3393  0.3074
  531MOL0     O71609   8.758  10.186  -0.105  0.4839 -0.1658  0.2612
  531MOL0     C71610   8.686  10.231  -0.214 -0.5058 -0.8825  0.7796
  531MOL0     C71611   8.768  10.215  -0.347 -0.7252  0.4961 -0.4408
  531MOL0     C71612   8.917  10.264  -0.326  0.4070  0.9068 -0.4668
  531MOL0     C71613   8.949  10.413  -0.320 -1.3748 -0.3781  0.9576
  531MOL0     C71614   8.903  10.457  -0.450 -0.0398  0.3063 -0.7489
  531MOL0     C71615   8.878  10.485  -0.558 -0.5016  0.0838 -0.1051
  531MOL0     C71616   8.672  10.251   0.100  0.5413  0.6997  0.5233
  531MOL0     C71617   8.593  10.224   0.215  0.6795  0.3354  0.3147
  531MOL0     H71618   8.143  10.080   0.422  1.8654  1.4563  0.5036
  531MOL0     H71619   7.992  10.015   0.579  0.3710 -0.4981 -0.3668
  531MOL0     H71620   8.077   9.687   0.910  1.4533 -0.5296  2.9260
  531MOL0     H71621   8.123   9.847   0.971 -0.0155  2.0987 -2.1244
  531MOL0     H71622   7.872   9.904   0.983 -0.0648 -0.1380  0.1273
  531MOL0     H71623   7.839   9.740   0.944  2.3581 -1.9940 -1.8241
  531MOL0     H71624   7.989   9.673   1.153 -2.2433 -1.9820  2.2583
  531MOL0     H71625   8.005   9.839   1.190  2.8170 -1.7159 -0.8197
  531MOL0     H71626   7.751   9.871   1.200  1.8141  0.8237 -0.9073
  531MOL0     H71627   7.729   9.693   1.194 -0.1861 -2.6283  2.2498
  531MOL0     H71628   7.906   9.677   1.388  2.4968  1.7533 -1.7483
  531MOL0     H71629   7.909   9.845   1.400 -1.1405  0.0922  3.8394
  531MOL0     H71630   7.743   9.834   1.546  3.7168  1.3999 -1.5841
  531MOL0     H71631   7.634   9.799   1.424 -0.6061  0.1990  0.2445
  531MOL0     H71632   7.580   9.636   1.560 -0.2287  1.3752  0.5061
  531MOL0     H71633   7.695   9.549   1.457  0.4503 -1.4552  2.2079
  531MOL0     H71634   7.787   9.706   1.712 -0.6162 -0.1237 -0.3273
  531MOL0     H71635   7.862   9.559   1.644  0.3850  1.1219 -0.3175
  531MOL0     H71636   7.531   9.645   1.842  3.0652  3.9011  0.2820
  531MOL0     H71637   7.412   9.523   2.061  1.0264  1.6816 -1.4341
  531MOL0     H71638   7.501   9.381   2.098  2.6860 -0.9174  0.4563
  531MOL0     H71639   7.497   9.616   2.257  2.3129  3.7393 -2.5480
  531MOL0     H71640   7.646   9.624   2.178  0.4435 -1.3580 -1.5236
  531MOL0     H71641   7.712   9.502   2.362  0.1206 -1.4418  1.6345
  531MOL0     H71642   7.702   9.392   2.221  0.1174 -2.5304  1.9891
  531MOL0     H71643   7.493   9.298   2.320 -0.4167  0.9137 -0.9571
  531MOL0     H71644   7.504   9.424   2.443  2.4828  2.7858 -0.6630
  531MOL0     H71645   7.808   9.165   2.624  3.2010  2.0750 -1.2848
  531MOL0     H71646   7.979   8.869   2.612  2.3676  0.2469 -0.8864
  531MOL0     H71647   8.092   8.989   2.593 -0.2878 -2.1090  2.6554
  531MOL0     H71648   7.962   9.023   2.699 -1.7837  2.1172 -1.2155
  531MOL0     H71649   8.057   8.789   1.999  2.3878  1.4842  1.6719
  531MOL0     H71650   8.222   8.609   1.901 -1.3366 -1.7749 -1.4289
  531MOL0     H71651   8.210   8.237   2.111 -1.7439 -4.4057 -0.2203
  531MOL0     H71652   8.170   8.241   1.940 -0.0094  1.4973 -0.0571
  531MOL0     H71653   8.326   8.067   1.949  1.1340  0.3407 -2.8189
  531MOL0     H71654   8.401   8.193   1.868 -0.5390 -0.7729 -0.6930
  531MOL0     H71655   8.452   8.184   2.163 -2.4955  1.2521 -1.1624
  531MOL0     H71656   8.556   8.244   2.026 -0.5640 -0.5846 -1.1628
  531MOL0     H71657   8.594   8.034   1.944 -2.4640  0.0340 -0.8376
  531MOL0     H71658   8.681   8.036   2.098  0.1092  0.3555 -0.5870
  531MOL0     H71659   8.432   7.900   2.033 -1.2907  0.2354  1.8557
  531MOL0     H71660   8.490   7.923   2.201  1.2106 -0.1796  0.3277
  531MOL0     H71661   8.598   7.772   1.971 -0.9252  0.2844  0.2863
  531MOL0     H71662   8.716   7.807   2.097  0.3225 -0.0697  1.1505
  531MOL0     H71663   8.469   7.626   2.095  0.0692 -0.9949  0.4072
  531MOL0     H71664   8.510   7.693   2.253  0.9867 -1.5406  1.7393
  531MOL0     H71665   8.619   7.474   2.226 -2.6128 -1.2144 -2.8538
  531MOL0     H71666   8.739   7.610   2.231 -0.4543 -1.0848  1.1788
  531MOL0     H71667   8.162   8.381   2.253 -2.6035  1.1038  1.4386
  531MOL0     H71668   8.040   8.540   2.344  2.4098  1.4043  0.4045
  531MOL0     H71669   7.819   9.005   2.165 -3.3185 -1.2738  0.6663
  531MOL0     H71670   7.690   9.176   2.213  2.0585 -1.2629 -1.9641
  531MOL0     H71671   8.305   9.766   0.774  2.5028 -0.0490 -0.9144
  531MOL0     H71672   8.450   9.831   0.566  1.2257 -0.6771 -0.1738
  531MOL0     H71673   8.441   9.939   0.095 -2.7252  2.4348  1.5214
  531MOL0     H71674   8.581   9.991  -0.092 -0.1773 -0.4768  1.4883
  531MOL0     H71675   8.591  10.184  -0.237 -0.2971 -0.5131 -0.9324
  531MOL0     H71676   8.660  10.337  -0.202 -3.1263 -1.5326  1.5076
  531MOL0     H71677   8.723  10.268  -0.431 -4.6482 -0.8828  0.5803
  531MOL0     H71678   8.766  10.115  -0.391 -0.3721  0.4230 -0.2938
  531MOL0     H71679   8.980  10.217  -0.402 -1.0640 -0.6285 -0.7961
  531MOL0     H71680   8.964  10.225  -0.235 -1.4726  1.7324  0.9287
  531MOL0     H71681   9.056  10.427  -0.306 -1.4054  0.0988  0.7259
  531MOL0     H71682   8.890  10.454  -0.238 -3.0706  1.4079 -1.0187
  531MOL0     H71683   8.849  10.530  -0.651  1.0107 -1.5256 -1.4113
  531MOL0     H71684   8.744  10.332   0.098  0.5403  0.7921  2.4378
  531MOL0     H71685   8.602  10.282   0.306 -0.8415  1.9926 -0.5282
  532MOL0     O71686   5.920   9.493  11.010  0.2690 -0.2760  0.8883
  532MOL0     C71687   5.951   9.495  11.129 -0.4959 -0.4102 -0.5384
  532MOL0     O71688   6.018   9.601  11.193 -0.6084 -0.0774  0.8890
  532MOL0     C71689   6.031   9.712  11.107  0.1830  0.4617  0.4081
  532MOL0     C71690   5.928   9.808  11.106  0.2078 -0.3107 -0.0860
  532MOL0     C71691   5.953   9.915  11.017 -0.0097 -0.4572 -0.5717
  532MOL0     C71692   6.071   9.924  10.942  0.4610 -0.6172  0.9845
  532MOL0     O71693   6.111  10.030  10.860  0.2574 -0.0569 -0.7291
  532MOL0     C71694   5.995  10.098  10.793  0.0487 -0.3652 -0.2784
  532MOL0     C71695   5.950  10.209  10.881  0.2559 -0.7923 -1.3197
  532MOL0     C71696   5.941  10.349  10.803 -0.2134 -0.6844 -0.1033
  532MOL0     C71697   6.076  10.396  10.760  0.0979  0.7060 -0.8732
  532MOL0     C71698   6.076  10.535  10.708 -1.0816 -0.3072  0.3819
  532MOL0     C71699   6.209  10.609  10.691  0.6047 -0.0948 -0.3342
  532MOL0     C71700   6.311  10.545  10.591  0.3550  0.2977  0.6702
  532MOL0     C71701   6.445  10.626  10.586 -0.0541 -0.3056  0.8474
  532MOL0     N71702   6.433  10.763  10.530 -0.5919  0.1956 -0.2061
  532MOL0     C71703   6.490  10.799  10.411 -0.0367 -0.2585  0.2267
  532MOL0     C71704   6.462  10.931  10.393 -0.0198 -0.7500 -0.7293
  532MOL0     C71705   6.484  11.020  10.269  0.5680  0.5777 -0.5005
  532MOL0     C71706   6.360  11.100  10.224  0.4322  0.0395  0.0758
  532MOL0     C71707   6.267  11.026  10.127  0.0818  0.3340 -0.2128
  532MOL0     C71708   6.328  10.959  10.003 -0.4276 -0.2310 -0.3851
  532MOL0     O71709   6.372  11.061   9.919 -0.0880 -0.2312  0.0424
  532MOL0     C71710   6.491  11.057   9.843 -0.0321  0.0251  0.0583
  532MOL0     C71711   6.563  11.173   9.836  0.6742  1.3825 -0.9901
  532MOL0     C71712   6.691  11.175   9.775  0.4904 -0.7435 -0.1659
  532MOL0     C71713   6.775  11.294   9.813 -0.1813 -0.1838  0.4745
  532MOL0     C71714   6.741  11.062   9.710  0.0996 -0.4914 -0.3136
  532MOL0     C71715   6.874  11.056   9.654  0.1196 -0.3197 -0.2970
  532MOL0     O71716   6.926  11.170   9.603  0.5322 -0.5846  0.1397
  532MOL0     C71717   6.949  11.164   9.467  0.0327 -0.4532  0.6958
  532MOL0     C71718   6.888  11.264   9.378  0.4280 -0.2361  0.0519
  532MOL0     C71719   6.901  11.263   9.241  0.5534 -0.1431 -0.6229
  532MOL0     C71720   6.973  11.165   9.180 -0.7695  0.0026  0.3582
  532MOL0     O71721   6.981  11.152   9.043  0.8071  0.4690 -1.3144
  532MOL0     C71722   6.871  11.169   8.963 -0.4460 -0.5804 -0.0085
  532MOL0     C71723   6.916  11.254   8.845  0.4010  0.3330 -0.4460
  532MOL0     C71724   6.810  11.283   8.735 -1.0788  0.0521 -0.1090
  532MOL0     C71725   6.732  11.166   8.682  0.9157  0.3384 -0.1194
  532MOL0     C71726   6.602  11.221   8.613  1.1965  0.7225 -0.1321
  532MOL0     C71727   6.616  11.321   8.500 -0.9834  0.3281  0.0545
  532MOL0     C71728   6.480  11.370   8.451 -0.0855 -0.1667  0.0142
  532MOL0     C71729   6.491  11.454   8.322  0.7119  0.0942  0.5224
  532MOL0    Cl71730   6.613  11.580   8.319  0.0748 -0.4824 -0.2345
  532MOL0     C71731   7.042  11.076   9.260 -0.0214  0.0772  0.1579
  532MOL0     C71732   7.032  11.067   9.399  0.2771 -0.3109 -0.3417
  532MOL0     O71733   6.930  10.942   9.649  0.4528  0.0830 -0.4875
  532MOL0     C71734   6.663  10.938   9.717 -0.0074 -0.3652 -0.6978
  532MOL0     C71735   6.538  10.940   9.784 -0.4638 -0.2222  0.1173
  532MOL0     N71736   6.411  10.977  10.513  0.7078  0.9384  0.0483
  532MOL0     N71737   6.391  10.874  10.590  0.0159  0.2288 -0.6960
  532MOL0     C71738   6.167   9.826  10.942  0.6781 -0.3650 -0.2022
  532MOL0     C71739   6.144   9.719  11.026 -0.8447 -0.2737 -0.5774
  532MOL0     C71740   5.925   9.372  11.212 -0.3718  0.2665  0.9370
  532MOL0     C71741   5.875   9.254  11.142  0.5414 -0.8116  0.2276
  532MOL0     C71742   5.872   9.125  11.203  0.8686 -0.3035  0.8655
  532MOL0     C71743   5.910   9.112  11.345  0.3694 -0.4494 -0.3371
  532MOL0     O71744   5.895   9.005  11.425 -0.2862 -0.4934  0.1332
  532MOL0     C71745   5.898   8.872  11.372 -0.8224  0.0732  0.9412
  532MOL0     C71746   5.961   8.782  11.477  0.8180  0.5755 -0.2669
  532MOL0     C71747   6.104   8.838  11.536 -0.0821 -0.6795  0.1965
  532MOL0     C71748   6.146   8.725  11.633  0.2942 -0.5472  0.2060
  532MOL0     C71749   6.093   8.752  11.767 -0.4271  0.5736  0.6465
  532MOL0     C71750   6.032   8.767  11.869  0.3047  0.1268 -0.2242
  532MOL0     C71751   5.956   9.221  11.405  0.1120 -0.2496 -0.3934
  532MOL0     C71752   5.965   9.351  11.347 -0.3591 -0.4579 -0.2035
  532MOL0     H71753   5.841   9.788  11.167  0.3916  1.8707  0.9759
  532MOL0     H71754   5.871   9.984  11.001  1.1151  1.2041  0.4754
  532MOL0     H71755   6.047  10.139  10.706  0.7884  0.8296  0.6882
  532MOL0     H71756   5.919  10.025  10.763 -0.1031 -1.5471  2.6662
  532MOL0     H71757   5.852  10.197  10.927  1.1089  1.9297  1.5647
  532MOL0     H71758   6.019  10.212  10.966  0.9105  0.0867 -1.8623
  532MOL0     H71759   5.863  10.349  10.725 -2.8229 -2.3808  2.3362
  532MOL0     H71760   5.911  10.427  10.873  0.9181  1.6238 -2.0316
  532MOL0     H71761   6.139  10.388  10.850  0.6752  0.3674 -1.3013
  532MOL0     H71762   6.114  10.335  10.678  0.0121  1.2655 -1.3387
  532MOL0     H71763   6.020  10.531  10.614  1.9330 -3.3795 -1.5210
  532MOL0     H71764   6.015  10.596  10.775 -1.2802 -0.9900  0.8236
  532MOL0     H71765   6.174  10.708  10.661  1.2082  0.0425 -0.6022
  532MOL0     H71766   6.254  10.647  10.784  0.7291  0.1761 -0.4998
  532MOL0     H71767   6.326  10.445  10.633  0.8220  1.0695  2.4441
  532MOL0     H71768   6.278  10.535  10.487  0.3786  1.2861  0.5653
  532MOL0     H71769   6.521  10.573  10.529  1.1824  1.6549  0.5641
  532MOL0     H71770   6.479  10.629  10.690 -1.8010 -0.1947  1.4559
  532MOL0     H71771   6.529  10.729  10.337  2.4980 -0.5418  1.7087
  532MOL0     H71772   6.556  11.098  10.296 -1.3780  1.1202  3.9323
  532MOL0     H71773   6.522  10.955  10.190  0.0129  1.1985 -1.2952
  532MOL0     H71774   6.396  11.187  10.168 -0.6640  0.1126 -0.5453
  532MOL0     H71775   6.296  11.127  10.308 -3.1820 -1.0871 -2.0840
  532MOL0     H71776   6.189  11.095  10.093  0.3752  1.8814  2.0237
  532MOL0     H71777   6.216  10.954  10.192 -0.0338 -1.9601 -2.6331
  532MOL0     H71778   6.251  10.901   9.952 -0.1469 -1.0737  0.1307
  532MOL0     H71779   6.407  10.889  10.031 -1.6448 -1.5441 -0.0812
  532MOL0     H71780   6.524  11.255   9.897  0.7228 -1.2278  2.8884
  532MOL0     H71781   6.778  11.369   9.733  1.6284 -1.7392 -1.0087
  532MOL0     H71782   6.717  11.344   9.891  0.6884  2.7299 -0.6215
  532MOL0     H71783   6.878  11.279   9.849  1.0653 -0.6485 -2.8449
  532MOL0     H71784   6.831  11.338   9.432  1.0775  0.3173 -0.0021
  532MOL0     H71785   6.854  11.343   9.185  1.2562  1.7752  1.3976
  532MOL0     H71786   6.837  11.067   8.941  0.3854 -1.5820  2.9190
  532MOL0     H71787   6.785  11.216   9.013 -0.8604 -1.7215  0.3952
  532MOL0     H71788   6.944  11.355   8.875  1.1363  0.5276 -1.7407
  532MOL0     H71789   7.008  11.215   8.801  2.6701  3.5724  1.0068
  532MOL0     H71790   6.865  11.335   8.656 -0.6071  1.0351  0.8396
  532MOL0     H71791   6.746  11.351   8.792 -1.6901 -1.5859  1.2252
  532MOL0     H71792   6.793  11.114   8.608  1.7382 -0.7005  1.2548
  532MOL0     H71793   6.716  11.097   8.764  3.4305  0.5481  0.6201
  532MOL0     H71794   6.561  11.274   8.700 -0.5965  1.9369 -1.6502
  532MOL0     H71795   6.543  11.132   8.587 -0.6900  1.3858  1.5916
  532MOL0     H71796   6.674  11.407   8.535  0.2182 -1.0837  1.7192
  532MOL0     H71797   6.674  11.274   8.419 -0.5166  0.5257  0.2729
  532MOL0     H71798   6.446  11.432   8.534 -0.6360 -1.3948  0.7410
  532MOL0     H71799   6.402  11.293   8.449 -1.4786  1.2016  0.0473
  532MOL0     H71800   6.394  11.501   8.304  1.2176  1.6358  1.5896
  532MOL0     H71801   6.490  11.385   8.237 -2.2283 -1.8551  1.9442
  532MOL0     H71802   7.107  11.007   9.207 -0.9938  0.9775 -2.3870
  532MOL0     H71803   7.072  10.982   9.453  3.1716  1.5254  0.6212
  532MOL0     H71804   6.690  10.853   9.654  2.2308  0.3377 -0.7975
  532MOL0     H71805   6.479  10.849   9.790  0.2296 -0.6413  0.6919
  532MOL0     H71806   6.254   9.834  10.877 -0.9149 -0.0569 -2.3955
  532MOL0     H71807   6.204   9.630  11.038 -1.4999 -0.4204  2.5797
  532MOL0     H71808   5.830   9.257  11.043  0.3682 -2.1673  0.2475
  532MOL0     H71809   5.835   9.038  11.150  1.2078  1.2563 -2.1662
  532MOL0     H71810   5.798   8.837  11.349  0.7229 -3.3100 -1.4421
  532MOL0     H71811   5.963   8.877  11.285 -2.6849 -0.4454 -0.5375
  532MOL0     H71812   5.972   8.678  11.444  0.7270 -0.5108  2.8016
  532MOL0     H71813   5.892   8.771  11.562 -0.6080 -1.1728 -1.5570
  532MOL0     H71814   6.103   8.934  11.588 -4.0178 -0.4887  0.0168
  532MOL0     H71815   6.180   8.849  11.457  1.1021 -1.7707  1.1424
  532MOL0     H71816   6.255   8.724  11.630  0.2756 -0.4243 -1.2748
  532MOL0     H71817   6.129   8.625  11.592  3.5154 -1.4727  0.8492
  532MOL0     H71818   5.973   8.775  11.958 -1.2032  1.1443 -1.2684
  532MOL0     H71819   5.984   9.220  11.510 -3.2858  0.6148  0.6366
  532MOL0     H71820   6.010   9.433  11.402  0.2270 -2.3193  2.2160
  533MOL0     O71821   3.515   6.775   4.613  0.5188 -0.9202  0.3869
  533MOL0     C71822   3.519   6.684   4.531 -0.0719  0.7892 -0.8641
  533MOL0     O71823   3.485   6.556   4.564  0.2287 -0.4399 -0.3076
  533MOL0     C71824   3.444   6.521   4.688 -0.0303  0.2847 -0.7070
  533MOL0     C71825   3.339   6.439   4.691  0.9081 -0.1992  0.6108
  533MOL0     C71826   3.279   6.391   4.806 -0.1420 -0.6219  0.2986
  533MOL0     C71827   3.324   6.435   4.932  0.3405 -0.7672 -0.2707
  533MOL0     O71828   3.289   6.409   5.060  0.2221  0.2306 -0.4783
  533MOL0     C71829   3.156   6.353   5.081  0.0578  0.2826 -0.8130
  533MOL0     C71830   3.134   6.290   5.219 -0.7377  0.1263  0.5893
  533MOL0     C71831   3.236   6.173   5.241  0.2780 -0.5655 -0.1960
  533MOL0     C71832   3.258   6.161   5.399  0.5878  0.8036 -0.1194
  533MOL0     C71833   3.383   6.072   5.418 -0.3202 -0.1234 -0.6722
  533MOL0     C71834   3.368   5.923   5.381  0.2360 -0.2041  1.1155
  533MOL0     C71835   3.475   5.825   5.430  0.0510  0.5465 -0.5925
  533MOL0     C71836   3.609   5.878   5.477  0.8436 -0.4104  0.4860
  533MOL0     N71837   3.698   5.771   5.511  0.4272 -0.9469  0.3164
  533MOL0     C71838   3.703   5.642   5.458  0.2701  0.0307 -0.4966
  533MOL0     C71839   3.813   5.587   5.504 -0.1064  0.5165  0.9893
  533MOL0     C71840   3.864   5.455   5.454  0.4725 -0.6630 -0.9145
  533MOL0     C71841   3.850   5.343   5.554  0.6674  0.8723  0.1952
  533MOL0     C71842   3.710   5.291   5.574  0.8853 -0.1128 -0.8753
  533MOL0     C71843   3.632   5.258   5.445 -0.2544  0.0012 -0.5024
  533MOL0     O71844   3.522   5.183   5.490 -0.0584 -0.5210 -0.6741
  533MOL0     C71845   3.441   5.109   5.411 -0.1130 -0.2353  0.1382
  533MOL0     C71846   3.470   5.042   5.291 -0.0568 -0.0306 -0.3373
  533MOL0     C71847   3.367   4.985   5.210  0.2562 -0.2309 -0.4746
  533MOL0     C71848   3.409   4.926   5.083  0.4038  0.7166 -0.7248
  533MOL0     C71849   3.239   4.975   5.266  0.1081  0.4390 -0.4486
  533MOL0     C71850   3.118   4.915   5.203 -0.0043  0.5458 -0.2029
  533MOL0     O71851   3.107   4.951   5.062 -0.0646 -0.3664 -0.0278
  533MOL0     C71852   2.999   4.893   5.007  0.0727  0.3197 -0.3687
  533MOL0     C71853   3.010   4.788   4.909 -0.8711 -0.2688  0.2381
  533MOL0     C71854   2.885   4.763   4.833 -0.2611  0.1440 -0.7733
  533MOL0     C71855   2.757   4.825   4.865 -0.3226  0.8605 -0.1247
  533MOL0     O71856   2.632   4.801   4.814  0.3703  0.0791  0.4312
  533MOL0     C71857   2.626   4.769   4.675  0.1423 -0.4515 -0.4190
  533MOL0     C71858   2.505   4.844   4.631  0.0262 -0.2561  0.2404
  533MOL0     C71859   2.488   4.822   4.484  0.6896  1.1108  0.0658
  533MOL0     C71860   2.338   4.825   4.437  1.0918  0.9671 -0.3084
  533MOL0     C71861   2.307   4.828   4.289 -0.5512  0.3720 -0.1707
  533MOL0     C71862   2.161   4.852   4.265  0.6593  0.0058  0.4683
  533MOL0     C71863   2.115   4.841   4.118  0.5535  0.5885  0.3084
  533MOL0     C71864   1.963   4.833   4.101  0.6751  1.0568  0.9579
  533MOL0    Cl71865   1.873   4.928   4.224 -0.0756 -0.1703 -0.2515
  533MOL0     C71866   2.760   4.911   4.973  0.3981 -0.5561  0.1601
  533MOL0     C71867   2.876   4.949   5.031  0.1318 -0.0057 -0.0169
  533MOL0     O71868   3.025   4.844   5.266 -1.3109 -0.4109 -0.3482
  533MOL0     C71869   3.211   5.041   5.388  0.2023  0.3642 -0.4051
  533MOL0     C71870   3.309   5.104   5.459 -0.7023  0.3715 -0.5449
  533MOL0     N71871   3.878   5.673   5.582  1.1403  0.2795 -0.4182
  533MOL0     N71872   3.807   5.781   5.587  0.6434 -1.0425 -0.2563
  533MOL0     C71873   3.443   6.525   4.938  0.1936  0.2766  0.7998
  533MOL0     C71874   3.499   6.565   4.815  0.4350 -0.0019 -0.1316
  533MOL0     C71875   3.545   6.722   4.390  0.0489  0.2424  1.4830
  533MOL0     C71876   3.562   6.851   4.343 -0.0718  0.5364 -0.1222
  533MOL0     C71877   3.585   6.881   4.204 -0.1492 -0.0349  0.8594
  533MOL0     C71878   3.588   6.770   4.108 -0.0962 -1.2325  0.7163
  533MOL0     O71879   3.608   6.802   3.980 -1.1485 -0.7487  0.4374
  533MOL0     C71880   3.512   6.739   3.888  0.4532  0.2260  0.6086
  533MOL0     C71881   3.541   6.783   3.746  0.7182 -0.8884 -0.5153
  533MOL0     C71882   3.502   6.923   3.728  0.0560  0.5253  0.9349
  533MOL0     C71883   3.608   7.008   3.661  0.0743  0.4969  0.6829
  533MOL0     C71884   3.573   7.142   3.641 -0.0713 -0.2395 -0.4401
  533MOL0     C71885   3.572   7.260   3.611 -1.0506  0.6372 -0.0207
  533MOL0     C71886   3.587   6.638   4.162 -0.0152 -0.3563  0.2208
  533MOL0     C71887   3.563   6.620   4.295  0.6265  0.5083  0.8182
  533MOL0     H71888   3.304   6.413   4.593  0.6067 -1.9000  1.1477
  533MOL0     H71889   3.205   6.312   4.792 -1.7122  0.5352  1.6691
  533MOL0     H71890   3.083   6.432   5.062 -0.4177  0.4503  1.5012
  533MOL0     H71891   3.136   6.266   5.017  0.1238 -1.6200  1.6059
  533MOL0     H71892   3.160   6.367   5.293  0.4106 -0.2724  0.6168
  533MOL0     H71893   3.029   6.262   5.232 -1.6727  3.9374  2.8490
  533MOL0     H71894   3.188   6.089   5.190 -3.0039 -0.1580  1.9528
  533MOL0     H71895   3.334   6.197   5.198 -0.6590 -0.1368 -2.2298
  533MOL0     H71896   3.278   6.256   5.449  1.3848  0.5441  0.0754
  533MOL0     H71897   3.172   6.113   5.446 -0.8378  2.1124 -1.2938
  533MOL0     H71898   3.469   6.107   5.360 -0.7390 -1.1143 -1.9287
  533MOL0     H71899   3.404   6.088   5.525 -0.1480 -0.0309 -0.7192
  533MOL0     H71900   3.269   5.895   5.420 -0.1751  0.7310  0.7941
  533MOL0     H71901   3.361   5.908   5.273 -1.2774 -0.6141  1.2412
  533MOL0     H71902   3.425   5.776   5.515  0.7807  2.9609  1.3437
  533MOL0     H71903   3.487   5.749   5.352  1.8803  2.1576 -1.9910
  533MOL0     H71904   3.587   5.949   5.557  0.9017 -0.3103  0.4144
  533MOL0     H71905   3.655   5.934   5.394 -0.4320 -0.1969 -0.1030
  533MOL0     H71906   3.628   5.593   5.397 -1.0611 -0.4138  1.3872
  533MOL0     H71907   3.823   5.436   5.354  3.9276 -0.6101 -2.4938
  533MOL0     H71908   3.971   5.468   5.435  0.6837 -1.4533 -0.3095
  533MOL0     H71909   3.870   5.379   5.655 -0.0534 -1.4166  1.2175
  533MOL0     H71910   3.920   5.266   5.521 -0.8817  0.3398 -2.0589
  533MOL0     H71911   3.665   5.382   5.616 -2.0163 -1.4295 -0.9233
  533MOL0     H71912   3.704   5.217   5.654 -1.4607 -1.0244 -1.8243
  533MOL0     H71913   3.695   5.198   5.379 -2.5876 -0.9467 -2.0041
  533MOL0     H71914   3.594   5.353   5.405  0.0141 -0.2176 -1.2951
  533MOL0     H71915   3.567   5.045   5.243 -0.4160 -1.0339 -1.1739
  533MOL0     H71916   3.488   4.984   5.034 -0.5235 -0.0778 -3.3497
  533MOL0     H71917   3.461   4.831   5.103  0.8771  1.4632  1.9332
  533MOL0     H71918   3.330   4.923   5.007 -0.9817  3.3368  0.4990
  533MOL0     H71919   3.100   4.733   4.886 -2.4817 -3.0465  0.1972
  533MOL0     H71920   2.895   4.681   4.763 -1.0219 -1.6502  1.0894
  533MOL0     H71921   2.718   4.803   4.626  1.3755 -2.9580 -0.0428
  533MOL0     H71922   2.616   4.660   4.663  1.4116 -0.7434  0.7914
  533MOL0     H71923   2.421   4.816   4.694  0.7393 -0.8316  0.9658
  533MOL0     H71924   2.525   4.950   4.653  2.7311 -0.2826 -1.5031
  533MOL0     H71925   2.523   4.723   4.452 -1.2676  0.4771 -0.2431
  533MOL0     H71926   2.541   4.898   4.425 -0.6066  2.6784  0.8304
  533MOL0     H71927   2.290   4.733   4.472  3.9982 -1.4758 -2.2884
  533MOL0     H71928   2.283   4.913   4.474  0.2371  0.2909  0.0653
  533MOL0     H71929   2.332   4.727   4.253  2.9934  0.6113  1.2769
  533MOL0     H71930   2.375   4.892   4.233 -0.8084 -0.9547 -2.1000
  533MOL0     H71931   2.102   4.787   4.331  2.1864 -0.6728  1.1961
  533MOL0     H71932   2.129   4.951   4.299  1.0438 -0.2500  1.5945
  533MOL0     H71933   2.156   4.744   4.087 -0.7589 -0.3499  1.4027
  533MOL0     H71934   2.152   4.932   4.071 -1.9277  3.5682  3.6192
  533MOL0     H71935   1.937   4.728   4.117 -0.1474  1.5100  2.9235
  533MOL0     H71936   1.912   4.858   4.007 -1.0131  0.1501  1.5794
  533MOL0     H71937   2.667   4.954   5.009  0.9782 -0.2944  1.3777
  533MOL0     H71938   2.858   5.017   5.113 -3.1301  0.8180 -1.2565
  533MOL0     H71939   3.111   5.055   5.427  1.1055  0.0299  2.2259
  533MOL0     H71940   3.287   5.171   5.542 -0.1740 -2.0054  1.6707
  533MOL0     H71941   3.476   6.567   5.032 -2.1425 -0.8708  2.2094
  533MOL0     H71942   3.576   6.640   4.827 -0.4906  0.7079  1.5952
  533MOL0     H71943   3.572   6.928   4.419  0.6828  0.7742 -0.4474
  533MOL0     H71944   3.605   6.986   4.185  2.9773 -0.3369  1.9056
  533MOL0     H71945   3.537   6.632   3.882  2.0871  0.6446 -3.2311
  533MOL0     H71946   3.408   6.750   3.920  0.7300 -1.6664  2.4128
  533MOL0     H71947   3.461   6.735   3.689 -0.6544  2.0535 -1.2738
  533MOL0     H71948   3.635   6.762   3.693  0.7572  1.2863 -1.4123
  533MOL0     H71949   3.474   6.977   3.818 -0.1850  1.0309  0.5612
  533MOL0     H71950   3.413   6.925   3.664  1.0446  1.1269 -0.4843
  533MOL0     H71951   3.627   6.964   3.563  2.6199  2.3275  0.2488
  533MOL0     H71952   3.693   7.005   3.730  0.0375 -0.6926  0.6982
  533MOL0     H71953   3.588   7.353   3.562 -1.1280  0.5765 -0.1626
  533MOL0     H71954   3.611   6.550   4.104  3.2301  1.5130 -1.5417
  533MOL0     H71955   3.547   6.517   4.326 -2.7257 -0.3869 -3.0100
  534MOL0     O71956   1.230   0.439   7.296 -0.1334 -0.7036 -0.3913
  534MOL0     C71957   1.169   0.517   7.372  1.2045 -0.7191  0.3333
  534MOL0     O71958   1.200   0.657   7.403 -0.3668  0.1279  0.2376
  534MOL0     C71959   1.295   0.736   7.329 -0.4205  0.2531  0.2783
  534MOL0     C71960   1.291   0.877   7.333 -0.2772 -0.2603  1.1320
  534MOL0     C71961   1.394   0.955   7.269  0.3003 -0.4877 -0.3740
  534MOL0     C71962   1.489   0.893   7.194 -1.3212 -0.5034  0.0749
  534MOL0     O71963   1.596   0.959   7.129  0.5206 -0.1121  0.3876
  534MOL0     C71964   1.556   1.067   7.032 -1.1881  1.0657 -0.8597
  534MOL0     C71965   1.701   1.126   7.000 -0.0910 -0.1342  0.4911
  534MOL0     C71966   1.726   1.195   7.125 -0.7435 -0.6661 -0.7254
  534MOL0     C71967   1.881   1.238   7.138 -0.2154 -0.5348 -0.0753
  534MOL0     C71968   1.932   1.327   7.015  0.1907  0.4875 -0.2449
  534MOL0     C71969   2.070   1.388   7.043  0.1877 -0.3917 -0.2902
  534MOL0     C71970   2.136   1.443   6.925 -0.5123  0.3651 -0.4673
  534MOL0     C71971   2.056   1.549   6.851  0.2975 -0.0080  0.6466
  534MOL0     N71972   1.977   1.488   6.745 -0.9085 -0.1593 -0.3515
  534MOL0     C71973   2.023   1.388   6.657  0.4416  0.7051 -0.7309
  534MOL0     C71974   1.919   1.367   6.577 -0.3708 -0.2453  1.3185
  534MOL0     C71975   1.911   1.273   6.448  0.5578 -0.3012  0.1374
  534MOL0     C71976   1.865   1.354   6.327  0.2633  0.4565  0.0407
  534MOL0     C71977   1.838   1.271   6.200 -0.0102 -0.6169  0.6495
  534MOL0     C71978   1.701   1.195   6.219 -0.6931 -0.3217  1.2533
  534MOL0     O71979   1.684   1.067   6.159  0.7929 -0.3102  0.2948
  534MOL0     C71980   1.575   0.992   6.196 -0.1916  0.1703 -0.7453
  534MOL0     C71981   1.439   1.021   6.163  0.0546  0.7140  0.0204
  534MOL0     C71982   1.328   0.946   6.216  0.4628  0.2757  0.5821
  534MOL0     C71983   1.185   0.992   6.179 -0.2582 -0.6318 -0.5625
  534MOL0     C71984   1.354   0.823   6.284 -0.3950  0.6117 -0.2611
  534MOL0     C71985   1.245   0.737   6.339 -0.2935 -0.1760  1.1632
  534MOL0     O71986   1.282   0.602   6.331 -0.1022  0.1014  0.2202
  534MOL0     C71987   1.189   0.504   6.365  0.4653 -0.8219 -0.9073
  534MOL0     C71988   1.212   0.377   6.303 -0.6032  0.0709  0.1779
  534MOL0     C71989   1.118   0.277   6.329 -0.3603  0.1654 -0.1188
  534MOL0     C71990   1.004   0.289   6.410  0.1100  0.0706 -0.4068
  534MOL0     O71991   0.917   0.189   6.446  0.0974 -0.6302 -0.9468
  534MOL0     C71992   0.900   0.083   6.357 -0.4639  0.1890 -0.0819
  534MOL0     C71993   0.847   0.119   6.221 -0.2313  0.0985  0.3699
  534MOL0     C71994   0.716   0.201   6.219 -0.0689 -0.4116 -0.2041
  534MOL0     C71995   0.589   0.118   6.192  0.2840 -0.1073 -0.6284
  534MOL0     C71996   0.457   0.169   6.248  0.1585  0.4764 -0.1225
  534MOL0     C71997   0.340   0.080   6.212  0.1114  0.3225  0.0038
  534MOL0     C71998   0.363  -0.062   6.261  0.1914 -0.0473 -0.2746
  534MOL0     C71999   0.325  -0.154   6.142  0.3333  0.1995  0.1408
  534MOL0    Cl72000   0.131  -0.165   6.135  0.2642 -0.6614 -0.1708
  534MOL0     C72001   0.990   0.419   6.474  0.7688  0.3689  0.0928
  534MOL0     C72002   1.079   0.522   6.452 -0.2546  0.2661  0.6170
  534MOL0     O72003   1.134   0.779   6.362  0.2046 -0.5748 -0.7913
  534MOL0     C72004   1.493   0.792   6.300  0.1190 -0.0141 -1.2361
  534MOL0     C72005   1.593   0.876   6.258 -0.5504  0.1144 -0.4274
  534MOL0     N72006   1.810   1.444   6.618 -0.1192 -0.0641  0.2467
  534MOL0     N72007   1.844   1.508   6.722 -0.6580 -0.3574  0.5611
  534MOL0     C72008   1.500   0.759   7.196 -0.9308  0.5595 -0.6452
  534MOL0     C72009   1.407   0.674   7.258 -0.0489  0.0103  0.0916
  534MOL0     C72010   1.051   0.443   7.447  0.3783 -0.1667 -0.0235
  534MOL0     C72011   1.027   0.495   7.568  0.3913  0.0906  0.3009
  534MOL0     C72012   0.920   0.450   7.640  1.0191 -0.0423 -0.7827
  534MOL0     C72013   0.834   0.351   7.591 -0.3207  0.1566  0.1730
  534MOL0     O72014   0.739   0.321   7.680  0.1558  0.0651 -0.0230
  534MOL0     C72015   0.736   0.182   7.729  0.2647 -0.6961  0.1046
  534MOL0     C72016   0.629   0.136   7.826  1.4242 -0.1668 -0.0879
  534MOL0     C72017   0.544   0.024   7.772  0.9633 -0.3094  0.1774
  534MOL0     C72018   0.433  -0.003   7.883  0.3158  0.7349 -0.1724
  534MOL0     C72019   0.355  -0.119   7.843 -0.2436  1.3249 -0.1400
  534MOL0     C72020   0.289  -0.216   7.797 -0.0032  0.8841  0.4706
  534MOL0     C72021   0.865   0.284   7.471 -0.0849 -0.3729 -0.0182
  534MOL0     C72022   0.962   0.342   7.395 -0.3603  0.7644 -0.8292
  534MOL0     H72023   1.230   0.945   7.392  1.0260  2.3655 -0.3415
  534MOL0     H72024   1.398   1.063   7.273 -3.1723 -0.1851 -1.5760
  534MOL0     H72025   1.501   1.027   6.946  0.1283  3.5191 -2.9680
  534MOL0     H72026   1.486   1.137   7.078 -2.1881 -1.2067  1.3495
  534MOL0     H72027   1.771   1.045   6.981  3.8263  2.8402  1.0592
  534MOL0     H72028   1.705   1.196   6.916 -0.0754  0.2599  0.8182
  534MOL0     H72029   1.651   1.275   7.132  0.0048 -0.1185  2.8322
  534MOL0     H72030   1.710   1.142   7.219 -0.3296  1.3813  0.5645
  534MOL0     H72031   1.908   1.293   7.228  2.1903  0.1671 -1.1434
  534MOL0     H72032   1.944   1.148   7.138  2.3190  1.1235 -0.8346
  534MOL0     H72033   1.927   1.275   6.919  1.9977 -0.6319  0.2313
  534MOL0     H72034   1.853   1.403   7.017  0.9429  1.2814  1.4065
  534MOL0     H72035   2.050   1.460   7.123 -1.2040 -1.6413  0.5462
  534MOL0     H72036   2.131   1.312   7.093 -1.5390  0.3263  3.2845
  534MOL0     H72037   2.226   1.499   6.953 -3.1883  3.8525  2.0519
  534MOL0     H72038   2.160   1.359   6.860  2.6631  0.5644  0.2778
  534MOL0     H72039   2.125   1.623   6.810 -0.5738  1.4047  1.6242
  534MOL0     H72040   2.004   1.615   6.921 -0.4711  0.0773  0.0072
  534MOL0     H72041   2.119   1.338   6.649 -0.4460 -0.9353 -1.8072
  534MOL0     H72042   2.006   1.222   6.432 -0.8968 -2.5051 -2.1935
  534MOL0     H72043   1.845   1.191   6.479  2.9669 -1.5015  2.5582
  534MOL0     H72044   1.947   1.421   6.296  1.3493  0.0394  1.8780
  534MOL0     H72045   1.788   1.429   6.347  1.8522  2.1367  0.1791
  534MOL0     H72046   1.909   1.192   6.176  0.7801 -0.1861  1.4844
  534MOL0     H72047   1.842   1.336   6.112 -0.2845 -1.7543 -0.2288
  534MOL0     H72048   1.617   1.255   6.182 -0.1276 -0.8291 -1.0519
  534MOL0     H72049   1.679   1.170   6.323 -4.1833 -0.7156  0.5696
  534MOL0     H72050   1.421   1.113   6.109 -1.2414  0.2523 -0.3735
  534MOL0     H72051   1.146   1.034   6.273 -0.3077  0.1725 -0.9345
  534MOL0     H72052   1.179   1.074   6.107 -4.2439 -0.8600 -0.6949
  534MOL0     H72053   1.119   0.910   6.152 -2.2611  0.9542 -0.7590
  534MOL0     H72054   1.308   0.362   6.255  1.2493 -2.0172  4.0916
  534MOL0     H72055   1.125   0.185   6.271 -0.2994 -1.7829  2.7831
  534MOL0     H72056   0.999   0.035   6.351 -0.0590  0.7110  1.8442
  534MOL0     H72057   0.830   0.015   6.407  1.0776  0.4145  2.5823
  534MOL0     H72058   0.925   0.181   6.177  2.3265 -1.0326  2.9456
  534MOL0     H72059   0.853   0.026   6.163  0.7970 -0.5858  1.5345
  534MOL0     H72060   0.721   0.275   6.139  2.0713 -0.9583 -0.6496
  534MOL0     H72061   0.709   0.259   6.311  1.9800 -1.2008  0.5167
  534MOL0     H72062   0.582   0.104   6.084  0.0150  1.0726 -0.7712
  534MOL0     H72063   0.624   0.025   6.238  4.2597  0.1388 -2.6961
  534MOL0     H72064   0.440   0.261   6.191 -1.7728  2.2352  2.9813
  534MOL0     H72065   0.465   0.192   6.355 -1.5316  1.0380 -0.0929
  534MOL0     H72066   0.246   0.105   6.262 -1.1481 -0.9525 -1.6239
  534MOL0     H72067   0.315   0.086   6.106  0.1897 -2.2081 -0.2016
  534MOL0     H72068   0.281  -0.087   6.329 -0.5360  2.3207 -0.1896
  534MOL0     H72069   0.453  -0.090   6.316 -0.9647 -3.1829  0.2678
  534MOL0     H72070   0.369  -0.251   6.169  0.9481  0.5614  0.4687
  534MOL0     H72071   0.371  -0.133   6.045 -0.9693 -0.6782 -0.6974
  534MOL0     H72072   0.905   0.445   6.537  0.2652 -1.4171  0.2076
  534MOL0     H72073   1.062   0.613   6.508 -0.1750  1.3912 -1.1342
  534MOL0     H72074   1.520   0.691   6.329  0.8746 -1.0965 -5.1217
  534MOL0     H72075   1.691   0.835   6.279 -1.5536 -2.1205  0.2368
  534MOL0     H72076   1.575   0.704   7.140  1.1925  0.3149  2.2484
  534MOL0     H72077   1.421   0.567   7.263  1.1237  0.2189  3.8220
  534MOL0     H72078   1.065   0.576   7.630 -1.5610 -1.5406  3.9435
  534MOL0     H72079   0.899   0.500   7.734  1.3514  1.1107 -1.2969
  534MOL0     H72080   0.714   0.125   7.639 -0.7665  0.4955 -0.4352
  534MOL0     H72081   0.831   0.156   7.776 -0.1915  1.7649  2.7157
  534MOL0     H72082   0.561   0.220   7.844 -0.1040 -1.5226  0.7505
  534MOL0     H72083   0.682   0.107   7.917  0.2614  0.9167  0.9794
  534MOL0     H72084   0.609  -0.062   7.753 -0.3783 -1.3842  0.2637
  534MOL0     H72085   0.492   0.044   7.678  1.8058 -1.4700 -0.5610
  534MOL0     H72086   0.358   0.077   7.880  0.6384  1.0122 -1.0593
  534MOL0     H72087   0.462  -0.027   7.985 -2.5678 -0.4460  0.4723
  534MOL0     H72088   0.230  -0.296   7.756  1.8616  0.1886 -0.9606
  534MOL0     H72089   0.807   0.199   7.436 -0.1949  0.2368 -1.3958
  534MOL0     H72090   0.978   0.321   7.289 -2.2514 -0.2282 -0.9503
  535MOL0     O72091   3.022  10.532   5.778 -0.1090 -0.6029  0.7186
  535MOL0     C72092   2.996  10.450   5.871 -0.3898 -0.2653  0.1074
  535MOL0     O72093   3.042  10.462   5.994  0.1536  0.4340 -0.1348
  535MOL0     C72094   3.084  10.579   6.055  0.6119  0.3220 -0.8421
  535MOL0     C72095   2.991  10.666   6.118  0.4848  0.1384  0.2550
  535MOL0     C72096   3.041  10.791   6.169 -0.0335  0.7912 -0.6252
  535MOL0     C72097   3.181  10.813   6.181 -0.5660  0.6827 -0.1929
  535MOL0     O72098   3.233  10.931   6.226 -0.1832 -0.3380 -0.1603
  535MOL0     C72099   3.194  10.982   6.349  0.0583  0.4013 -1.0590
  535MOL0     C72100   3.213  10.875   6.460  0.4174  0.8816 -0.1924
  535MOL0     C72101   3.364  10.847   6.486  0.2778  0.6360 -0.0461
  535MOL0     C72102   3.429  10.963   6.567 -0.6716 -0.4953 -0.2509
  535MOL0     C72103   3.565  10.917   6.625  0.4671  0.2521  1.1218
  535MOL0     C72104   3.659  11.026   6.677 -0.2100  0.2889  1.0582
  535MOL0     C72105   3.731  11.077   6.554 -0.1795 -0.3310 -0.1158
  535MOL0     C72106   3.852  11.162   6.590 -0.1836  0.4566  0.1324
  535MOL0     N72107   3.936  11.188   6.470 -1.3944 -1.4547  0.0423
  535MOL0     C72108   4.036  11.099   6.417 -0.6158  0.0971  1.0278
  535MOL0     C72109   4.103  11.174   6.318  0.8156  0.2075  1.1428
  535MOL0     C72110   4.224  11.134   6.236  0.2791 -0.4833  0.0020
  535MOL0     C72111   4.174  11.115   6.091  1.0385 -0.4651  0.8896
  535MOL0     C72112   4.296  11.070   6.006  0.4700  0.4307 -0.7346
  535MOL0     C72113   4.254  11.030   5.861  0.2444 -0.8665 -0.1738
  535MOL0     O72114   4.144  10.945   5.846  0.2691 -0.7994  0.1696
  535MOL0     C72115   4.163  10.814   5.814  0.3742 -0.1275  0.2483
  535MOL0     C72116   4.055  10.730   5.772  0.7550 -0.5870  0.3150
  535MOL0     C72117   4.066  10.597   5.733  0.5053  0.3472  0.5302
  535MOL0     C72118   3.947  10.520   5.680 -0.8987  0.4468  0.2395
  535MOL0     C72119   4.200  10.538   5.746  0.0403  0.3874  0.0191
  535MOL0     C72120   4.237  10.403   5.695  0.4043 -0.8747 -0.9569
  535MOL0     O72121   4.366  10.364   5.677  0.3652 -0.2802 -1.0251
  535MOL0     C72122   4.413  10.245   5.737  1.1194 -0.0440  0.4570
  535MOL0     C72123   4.355  10.188   5.851  0.6692  0.4060  0.6707
  535MOL0     C72124   4.400  10.066   5.907 -0.2387  0.6836  0.6666
  535MOL0     C72125   4.516  10.009   5.854  0.0821 -0.4537 -0.5981
  535MOL0     O72126   4.583   9.904   5.899  0.5925 -0.5398 -0.3589
  535MOL0     C72127   4.508   9.801   5.964 -0.4111  0.3680 -1.5190
  535MOL0     C72128   4.550   9.660   5.921  0.1472 -0.6604  0.1843
  535MOL0     C72129   4.709   9.637   5.905  0.0850  0.0625 -0.5189
  535MOL0     C72130   4.752   9.505   5.961 -0.0776  0.1469 -0.2198
  535MOL0     C72131   4.701   9.381   5.883 -0.6158  0.5097  1.1748
  535MOL0     C72132   4.770   9.364   5.744  0.1920  0.2821  0.2379
  535MOL0     C72133   4.775   9.225   5.685 -0.2388 -0.4291 -0.3608
  535MOL0     C72134   4.871   9.220   5.575  0.2255 -0.2398 -0.3728
  535MOL0    Cl72135   4.831   9.078   5.473  0.6386  0.1111  0.5145
  535MOL0     C72136   4.584  10.077   5.753  0.6738  0.4798 -0.0540
  535MOL0     C72137   4.530  10.192   5.688  0.3524  0.6040 -0.5194
  535MOL0     O72138   4.144  10.324   5.694  0.4865  0.6132  1.1578
  535MOL0     C72139   4.306  10.622   5.782 -0.9304  0.4453 -0.6589
  535MOL0     C72140   4.286  10.750   5.823 -0.7631  0.3156 -0.5898
  535MOL0     N72141   4.042  11.293   6.312  1.1081  0.2905  0.1790
  535MOL0     N72142   3.950  11.300   6.404  0.4346  0.1091 -0.4315
  535MOL0     C72143   3.266  10.712   6.129 -0.1166 -0.2942 -0.5479
  535MOL0     C72144   3.215  10.606   6.057  1.0681  0.2126 -0.4503
  535MOL0     C72145   2.948  10.321   5.829 -0.5142  0.5658  0.8911
  535MOL0     C72146   2.843  10.309   5.733 -0.0285 -0.0604 -0.0048
  535MOL0     C72147   2.779  10.192   5.707  0.3028  0.0526 -0.5674
  535MOL0     C72148   2.823  10.079   5.779 -0.6557  0.0292 -1.0060
  535MOL0     O72149   2.784   9.951   5.755 -0.1790  0.2535  0.4097
  535MOL0     C72150   2.664   9.939   5.684  0.1899  0.3454  0.0249
  535MOL0     C72151   2.623   9.805   5.729 -0.5616 -0.0684  0.7766
  535MOL0     C72152   2.528   9.748   5.610 -0.4161 -0.1524  0.4395
  535MOL0     C72153   2.457   9.621   5.670 -0.3868 -0.4713 -0.4551
  535MOL0     C72154   2.491   9.507   5.581  0.6000 -0.1098 -0.2272
  535MOL0     C72155   2.518   9.417   5.509 -0.7765  0.6921 -0.1618
  535MOL0     C72156   2.940  10.072   5.852  1.1545 -0.1713 -0.1423
  535MOL0     C72157   3.003  10.197   5.880 -0.1202 -0.4661 -0.6262
  535MOL0     H72158   2.886  10.639   6.122  0.7581 -1.3869 -1.3863
  535MOL0     H72159   2.967  10.858   6.212 -2.0178 -1.6719  0.0433
  535MOL0     H72160   3.257  11.068   6.373  0.8295 -0.3150 -0.4429
  535MOL0     H72161   3.089  11.012   6.341 -0.3358 -1.1918 -2.2372
  535MOL0     H72162   3.181  10.925   6.552  3.5510  2.0704  0.4012
  535MOL0     H72163   3.155  10.786   6.435 -0.6372  2.2909 -3.2340
  535MOL0     H72164   3.374  10.759   6.551 -0.6288 -1.0545 -2.0815
  535MOL0     H72165   3.420  10.823   6.395  0.2462 -2.0564  0.5602
  535MOL0     H72166   3.437  11.045   6.495  1.5024  2.7893  3.3576
  535MOL0     H72167   3.359  10.994   6.645 -0.7125 -3.1789  0.9005
  535MOL0     H72168   3.541  10.858   6.714 -0.5416 -2.4592 -0.8058
  535MOL0     H72169   3.600  10.854   6.542 -5.1624 -1.5885 -0.3386
  535MOL0     H72170   3.592  11.104   6.715 -0.4840  0.7894 -0.3964
  535MOL0     H72171   3.734  10.997   6.751  2.3911  0.1462 -1.4475
  535MOL0     H72172   3.760  10.990   6.494  1.2629  1.3297 -1.9865
  535MOL0     H72173   3.672  11.143   6.490  3.8072  2.6461 -1.1934
  535MOL0     H72174   3.923  11.108   6.653  1.0204  0.6941 -0.9694
  535MOL0     H72175   3.822  11.258   6.632 -0.2278  0.9762 -1.0545
  535MOL0     H72176   4.052  10.999   6.455  1.3910  0.0536  0.2342
  535MOL0     H72177   4.302  11.210   6.244  1.0563 -1.1843 -0.6846
  535MOL0     H72178   4.274  11.043   6.271 -0.8502 -1.5407 -1.0450
  535MOL0     H72179   4.143  11.217   6.066  0.3661 -0.6753  0.8303
  535MOL0     H72180   4.090  11.046   6.082  2.6279 -2.2054 -2.0551
  535MOL0     H72181   4.331  10.972   6.039 -2.3750 -0.4926 -0.2009
  535MOL0     H72182   4.371  11.150   6.001  0.1404  0.6891 -3.5454
  535MOL0     H72183   4.341  11.000   5.803  3.3770  4.8380  0.8762
  535MOL0     H72184   4.232  11.125   5.812  2.3537 -0.4060 -0.3029
  535MOL0     H72185   3.959  10.779   5.762  1.5213  0.7121 -0.9766
  535MOL0     H72186   3.926  10.429   5.739  2.4329 -1.6003 -1.4296
  535MOL0     H72187   3.855  10.574   5.704 -0.1078  1.5170  0.9706
  535MOL0     H72188   3.946  10.496   5.573  0.4675 -0.1711  0.3511
  535MOL0     H72189   4.267  10.249   5.872 -0.1013  0.7546 -2.8979
  535MOL0     H72190   4.349  10.035   5.998 -0.2143  0.6891  0.6817
  535MOL0     H72191   4.538   9.812   6.069  1.0319  1.2018 -1.9856
  535MOL0     H72192   4.399   9.809   5.963 -0.4107  0.9921  0.1143
  535MOL0     H72193   4.510   9.582   5.988 -1.6678 -0.0152 -0.0939
  535MOL0     H72194   4.507   9.634   5.825  2.4071  1.6965 -1.6188
  535MOL0     H72195   4.748   9.718   5.968 -2.9559  1.1423  0.1061
  535MOL0     H72196   4.736   9.648   5.800  1.1712  2.1702 -0.0858
  535MOL0     H72197   4.861   9.509   5.969 -0.0981  0.9946 -0.2674
  535MOL0     H72198   4.712   9.489   6.062  0.2616 -0.9737 -0.2460
  535MOL0     H72199   4.594   9.393   5.863 -0.7135 -2.8083 -0.8882
  535MOL0     H72200   4.713   9.285   5.934 -0.0985 -0.2968 -0.3987
  535MOL0     H72201   4.709   9.433   5.685 -1.3620 -0.3221  1.1021
  535MOL0     H72202   4.876   9.391   5.747 -0.0541  1.2718  0.3345
  535MOL0     H72203   4.677   9.199   5.644 -1.3141 -0.3011  1.9837
  535MOL0     H72204   4.801   9.162   5.770 -0.8893  1.2705  1.1628
  535MOL0     H72205   4.971   9.222   5.620 -0.1417  0.6730  0.4447
  535MOL0     H72206   4.860   9.303   5.504 -1.4176 -2.8607 -3.4132
  535MOL0     H72207   4.682  10.039   5.724 -0.2702 -2.9476  0.8196
  535MOL0     H72208   4.588  10.244   5.613  0.2280  1.2853 -0.1462
  535MOL0     H72209   4.403  10.576   5.794 -1.9387 -2.2994 -2.0843
  535MOL0     H72210   4.371  10.807   5.860 -1.3455  0.4337  0.6130
  535MOL0     H72211   3.371  10.739   6.121 -0.0235 -0.3781  0.2840
  535MOL0     H72212   3.274  10.528   6.010 -0.6095 -1.0748 -0.4957
  535MOL0     H72213   2.809  10.405   5.694  0.3875 -0.3720 -1.1529
  535MOL0     H72214   2.703  10.183   5.630  0.7351 -2.8666 -0.7659
  535MOL0     H72215   2.585  10.009   5.710 -0.9132 -1.4387  1.7802
  535MOL0     H72216   2.697   9.946   5.580  0.3135  2.1551  0.1654
  535MOL0     H72217   2.573   9.813   5.825 -0.6484  1.0247  0.6611
  535MOL0     H72218   2.713   9.744   5.724  0.4468  1.2281  2.1026
  535MOL0     H72219   2.595   9.724   5.526  0.0071 -2.5297  1.3886
  535MOL0     H72220   2.457   9.825   5.578 -1.1977 -2.2939 -3.7996
  535MOL0     H72221   2.350   9.639   5.681  0.2430  2.2042  3.3506
  535MOL0     H72222   2.487   9.580   5.767 -1.3206 -3.0500 -1.1770
  535MOL0     H72223   2.552   9.337   5.446  1.2098  1.5655 -0.2761
  535MOL0     H72224   2.984   9.981   5.892  0.5282 -0.0588  0.8396
  535MOL0     H72225   3.087  10.192   5.950 -1.3646  1.8940  1.1929
  536MOL0     O72226  10.919   4.635  10.523 -0.1632 -0.9344 -0.3096
  536MOL0     C72227  10.981   4.532  10.514  0.8428 -0.1789 -0.3800
  536MOL0     O72228  11.012   4.472  10.396 -0.1903 -0.2814  0.1169
  536MOL0     C72229  11.006   4.553  10.287 -0.0353  0.6207 -0.2522
  536MOL0     C72230  11.066   4.681  10.283 -0.7671  0.3693  0.1873
  536MOL0     C72231  11.045   4.763  10.172 -0.8186  0.0476  0.0282
  536MOL0     C72232  10.984   4.718  10.050 -0.5255  0.3333  0.2178
  536MOL0     O72233  10.964   4.797   9.939  0.2638 -0.4051  0.0103
  536MOL0     C72234  11.051   4.908   9.910 -0.1181  1.3287  0.9688
  536MOL0     C72235  11.192   4.848   9.885 -0.3082 -0.6134  0.1469
  536MOL0     C72236  11.279   4.934   9.799  0.2324  0.3934  0.3863
  536MOL0     C72237  11.428   4.887   9.791 -1.1770  0.1771 -0.5522
  536MOL0     C72238  11.492   4.956   9.658 -0.5463 -0.2399 -0.0805
  536MOL0     C72239  11.524   5.100   9.661 -0.7031  0.2203 -0.6811
  536MOL0     C72240  11.582   5.149   9.531  0.3981 -0.4077  0.0448
  536MOL0     C72241  11.630   5.292   9.560  0.8189  0.5336 -0.6083
  536MOL0     N72242  11.597   5.384   9.452  0.0400  0.2669  0.1830
  536MOL0     C72243  11.690   5.406   9.357  0.3995 -0.6250  0.2015
  536MOL0     C72244  11.601   5.442   9.258  0.0440  0.3065  0.4372
  536MOL0     C72245  11.649   5.475   9.118 -0.2304  0.0618 -0.4861
  536MOL0     C72246  11.715   5.350   9.059 -0.3727  0.6838  0.0406
  536MOL0     C72247  11.609   5.237   9.059  0.2411 -0.7228 -0.2142
  536MOL0     C72248  11.640   5.131   8.948 -0.1328 -0.0647 -0.7057
  536MOL0     O72249  11.569   5.006   8.995 -0.6155  0.5097  0.4372
  536MOL0     C72250  11.617   4.928   9.092 -1.0209 -0.0493  0.7160
  536MOL0     C72251  11.542   4.833   9.152  0.4684  0.2907 -0.9203
  536MOL0     C72252  11.579   4.750   9.262  0.4874  0.3290  0.3175
  536MOL0     C72253  11.481   4.650   9.329 -0.3881  0.1817 -0.0032
  536MOL0     C72254  11.712   4.764   9.303  0.0049  0.0352 -0.1037
  536MOL0     C72255  11.772   4.690   9.418  0.1959  0.0030 -0.0488
  536MOL0     O72256  11.914   4.687   9.415  0.2218  0.2600  0.5569
  536MOL0     C72257  11.978   4.616   9.512 -0.2651  0.2593  0.2296
  536MOL0     C72258  12.024   4.684   9.635 -0.3821 -0.2528  0.2292
  536MOL0     C72259  12.083   4.603   9.733  0.0927  0.0198 -0.0597
  536MOL0     C72260  12.099   4.465   9.724  0.1987 -0.1520 -0.4098
  536MOL0     O72261  12.152   4.393   9.829  0.1214 -0.2129  0.4029
  536MOL0     C72262  12.164   4.442   9.960  0.5386  0.4667 -0.2046
  536MOL0     C72263  12.201   4.333  10.068  0.9776  0.8124  0.5081
  536MOL0     C72264  12.066   4.261  10.101 -0.0430  0.8417 -0.9719
  536MOL0     C72265  12.089   4.122  10.173  0.2152  0.3044 -0.4794
  536MOL0     C72266  12.100   4.150  10.326 -0.7294 -0.3052 -0.1160
  536MOL0     C72267  12.117   4.016  10.413  0.8278 -0.6538 -0.5600
  536MOL0     C72268  11.990   3.927  10.419 -0.6852  0.0501  1.5976
  536MOL0     C72269  12.026   3.805  10.508  0.1535  0.5297  0.1747
  536MOL0    Cl72270  12.171   3.718  10.471  0.0005  0.0860 -0.0562
  536MOL0     C72271  12.072   4.405   9.599 -0.0058  0.0882  0.7537
  536MOL0     C72272  12.013   4.480   9.499  0.2679 -0.1630 -0.0343
  536MOL0     O72273  11.707   4.639   9.507 -0.3757  0.1568  0.2913
  536MOL0     C72274  11.799   4.858   9.236 -0.0232 -0.3364 -1.1387
  536MOL0     C72275  11.748   4.939   9.135  0.0024  0.3790 -0.7687
  536MOL0     N72276  11.469   5.436   9.298  0.5409  0.5857  0.0810
  536MOL0     N72277  11.465   5.396   9.419 -0.6706  0.4196  0.2392
  536MOL0     C72278  10.942   4.585  10.052 -0.5134  0.0974  0.0816
  536MOL0     C72279  10.955   4.504  10.167 -0.0835  1.0529  0.1355
  536MOL0     C72280  11.002   4.458  10.639 -0.2651 -0.1928 -0.4245
  536MOL0     C72281  10.987   4.518  10.762 -0.0483 -1.1100 -0.2850
  536MOL0     C72282  10.995   4.448  10.879 -0.1946  0.2948  0.8215
  536MOL0     C72283  11.018   4.307  10.887 -1.5612  1.1105 -0.2039
  536MOL0     O72284  11.029   4.252  11.003  0.0237  0.6094 -0.1563
  536MOL0     C72285  11.005   4.110  11.022  0.5237  0.3788  0.7191
  536MOL0     C72286  11.086   4.064  11.141  0.8753  0.7933  1.2285
  536MOL0     C72287  11.093   3.911  11.166 -0.3622 -0.8272  0.0459
  536MOL0     C72288  10.986   3.858  11.260  0.1373  1.0712 -0.1741
  536MOL0     C72289  10.852   3.873  11.209 -0.0254 -0.1064  0.0959
  536MOL0     C72290  10.743   3.889  11.169  0.3432 -0.7151 -1.1522
  536MOL0     C72291  11.040   4.239  10.760  0.0802 -0.1179  0.4902
  536MOL0     C72292  11.031   4.317  10.645  0.5142  0.9183  0.2256
  536MOL0     H72293  11.116   4.729  10.366 -3.0055 -0.5455  2.1618
  536MOL0     H72294  11.091   4.861  10.176 -0.7441 -0.0032  0.5146
  536MOL0     H72295  11.011   4.956   9.820 -1.1293  1.2769  1.3877
  536MOL0     H72296  11.034   4.978   9.992 -3.5788 -2.9815  4.4050
  536MOL0     H72297  11.243   4.826   9.979  0.4841  0.4381 -0.0135
  536MOL0     H72298  11.168   4.757   9.830  1.1283 -1.7210  1.2832
  536MOL0     H72299  11.244   4.930   9.696 -1.7455  1.3735  0.9668
  536MOL0     H72300  11.263   5.036   9.833 -1.4010 -0.6981  3.2585
  536MOL0     H72301  11.480   4.913   9.884  2.4457 -1.2913 -2.0052
  536MOL0     H72302  11.427   4.778   9.780 -0.6946  0.3576 -2.9868
  536MOL0     H72303  11.581   4.894   9.641  0.9842  1.6140  0.7238
  536MOL0     H72304  11.429   4.941   9.570  0.8603  2.4046 -1.6703
  536MOL0     H72305  11.441   5.168   9.683 -0.0842 -0.0331  3.0442
  536MOL0     H72306  11.594   5.109   9.744 -0.9559 -1.6321 -0.2329
  536MOL0     H72307  11.665   5.084   9.502  2.0260  1.4685  0.3018
  536MOL0     H72308  11.500   5.140   9.459 -0.4196  0.4078  0.8558
  536MOL0     H72309  11.736   5.290   9.586  0.6167  1.1465  0.3252
  536MOL0     H72310  11.583   5.325   9.653 -0.1936  0.8126 -1.1991
  536MOL0     H72311  11.797   5.388   9.349  1.2151  3.8402 -3.8332
  536MOL0     H72312  11.567   5.510   9.054 -3.2364 -2.0792  1.8894
  536MOL0     H72313  11.723   5.555   9.110 -0.6900  0.5274 -0.1648
  536MOL0     H72314  11.798   5.328   9.126 -0.8185  1.4918  0.8802
  536MOL0     H72315  11.750   5.386   8.962  0.8192  1.7417  0.8453
  536MOL0     H72316  11.507   5.272   9.038  0.3631  0.6119  1.2276
  536MOL0     H72317  11.601   5.201   9.162 -0.8804  3.7378  1.4929
  536MOL0     H72318  11.746   5.115   8.929 -0.2854 -2.6348  0.2195
  536MOL0     H72319  11.591   5.154   8.853 -1.0890  0.8139 -0.0201
  536MOL0     H72320  11.440   4.830   9.113  0.5272  1.0238 -1.1468
  536MOL0     H72321  11.462   4.684   9.431  0.8503  0.0623  0.2900
  536MOL0     H72322  11.382   4.643   9.284 -1.6104  0.2527  2.5334
  536MOL0     H72323  11.532   4.553   9.324  1.5267  1.1991 -1.6321
  536MOL0     H72324  12.023   4.791   9.651 -1.6768 -0.0515 -0.9885
  536MOL0     H72325  12.114   4.656   9.823 -1.8449 -0.4289  0.9317
  536MOL0     H72326  12.244   4.516   9.969 -1.6463  2.7642  2.1651
  536MOL0     H72327  12.068   4.489   9.981  0.3322  3.3368 -5.7154
  536MOL0     H72328  12.285   4.278  10.023  0.2113 -1.0488  1.2302
  536MOL0     H72329  12.240   4.387  10.154 -0.9085  1.8262  0.7707
  536MOL0     H72330  12.015   4.241  10.007 -0.1768  0.0160 -0.7296
  536MOL0     H72331  11.993   4.317  10.159  2.4529  0.5539  2.8156
  536MOL0     H72332  12.003   4.057  10.152 -0.2431  0.4681  0.8002
  536MOL0     H72333  12.176   4.071  10.132  1.5335  2.6678 -0.7893
  536MOL0     H72334  12.018   4.215  10.357 -0.0474  1.1679 -1.2619
  536MOL0     H72335  12.193   4.205  10.340 -1.9427  1.6814  0.5206
  536MOL0     H72336  12.203   3.961  10.375  0.2323 -1.1026 -1.2694
  536MOL0     H72337  12.145   4.052  10.513 -0.6828  2.9200 -1.2563
  536MOL0     H72338  11.960   3.902  10.317 -0.7922  3.5348  0.6687
  536MOL0     H72339  11.905   3.973  10.471 -1.0248  0.4147  0.7309
  536MOL0     H72340  11.942   3.736  10.507  0.8562 -0.3632  1.3801
  536MOL0     H72341  12.051   3.859  10.600 -2.4471  2.0726  0.0836
  536MOL0     H72342  12.079   4.299   9.580 -2.0779  0.0821 -0.3183
  536MOL0     H72343  11.971   4.437   9.409  0.6707  0.4928 -0.5468
  536MOL0     H72344  11.898   4.877   9.277  0.1740 -2.2207 -0.6577
  536MOL0     H72345  11.819   5.012   9.099  1.8134 -0.2560  1.2812
  536MOL0     H72346  10.889   4.558   9.962 -0.0237  0.9454 -0.4826
  536MOL0     H72347  10.909   4.406  10.160  0.0081  0.8619  1.7260
  536MOL0     H72348  10.982   4.626  10.769  0.8026 -1.1085  0.5599
  536MOL0     H72349  10.974   4.504  10.970 -2.4431 -3.0743  2.5890
  536MOL0     H72350  10.897   4.107  11.036  0.2090 -0.9159 -1.5188
  536MOL0     H72351  11.032   4.055  10.931 -0.6349  2.1335 -0.7616
  536MOL0     H72352  11.066   4.114  11.237  0.1456 -2.2177  2.7529
  536MOL0     H72353  11.188   4.090  11.110  0.2596  0.3938 -1.3998
  536MOL0     H72354  11.189   3.877  11.206 -0.5899 -1.9506 -0.3260
  536MOL0     H72355  11.092   3.852  11.073  0.1516  0.6535 -0.9315
  536MOL0     H72356  11.001   3.907  11.357  0.6596  1.5882 -0.5076
  536MOL0     H72357  11.001   3.750  11.266 -0.1253  0.9862 -0.9465
  536MOL0     H72358  10.640   3.904  11.143 -0.0118  0.1785  0.5793
  536MOL0     H72359  11.055   4.134  10.738  2.6759  0.0001  1.3376
  536MOL0     H72360  11.037   4.257  10.555 -0.0060  0.8911  0.2089
  537MOL0     O72361   5.741   0.666   2.938 -0.1701  0.0809  0.5517
  537MOL0     C72362   5.790   0.782   2.931 -0.7259 -0.8902  0.1299
  537MOL0     O72363   5.834   0.847   2.824  0.2153 -0.4342  0.0702
  537MOL0     C72364   5.767   0.827   2.710 -0.0756  0.3277 -0.1704
  537MOL0     C72365   5.846   0.821   2.596  0.8957 -0.3572  0.6561
  537MOL0     C72366   5.783   0.809   2.460 -0.6686  0.4210  0.3923
  537MOL0     C72367   5.643   0.798   2.450  0.2893 -0.5108  0.3162
  537MOL0     O72368   5.576   0.783   2.330 -0.1247  0.4317 -0.8273
  537MOL0     C72369   5.635   0.845   2.214 -0.0426 -0.2690  0.4469
  537MOL0     C72370   5.641   0.745   2.089 -0.4023 -0.1105 -0.8452
  537MOL0     C72371   5.675   0.812   1.955 -0.0835 -0.0883  0.4030
  537MOL0     C72372   5.707   0.698   1.856 -0.2205  0.2061  0.0910
  537MOL0     C72373   5.736   0.753   1.721  0.2177  0.3058  0.1872
  537MOL0     C72374   5.632   0.849   1.669  0.8772  0.6781 -0.4762
  537MOL0     C72375   5.497   0.778   1.652  0.1062  0.8068  0.5968
  537MOL0     C72376   5.392   0.879   1.608  0.0245 -0.7354  0.0137
  537MOL0     N72377   5.383   0.896   1.460 -0.5135 -0.4680  0.3158
  537MOL0     C72378   5.308   0.819   1.374 -0.0757  0.4362  0.6996
  537MOL0     C72379   5.316   0.874   1.253 -0.5702 -1.0513 -0.3699
  537MOL0     C72380   5.254   0.833   1.120  0.1833  0.4077  0.4996
  537MOL0     C72381   5.121   0.753   1.135  0.1628 -0.7216 -0.2451
  537MOL0     C72382   5.066   0.713   1.004  0.6356 -0.2178  0.5120
  537MOL0     C72383   4.925   0.659   1.008  0.0451  0.1385 -0.3099
  537MOL0     O72384   4.834   0.758   1.059 -0.4723  0.2172 -0.1835
  537MOL0     C72385   4.735   0.728   1.152  0.0867  0.4589  1.1087
  537MOL0     C72386   4.691   0.595   1.159  0.6151  0.5324  0.0872
  537MOL0     C72387   4.596   0.553   1.251  0.4404  0.3579 -0.1836
  537MOL0     C72388   4.566   0.410   1.256 -0.3497 -0.1979  0.8756
  537MOL0     C72389   4.536   0.653   1.334  0.4822 -0.0228 -1.0021
  537MOL0     C72390   4.434   0.630   1.434  0.0881  0.8151  0.3384
  537MOL0     O72391   4.372   0.507   1.437 -0.3589  0.1136  0.2753
  537MOL0     C72392   4.282   0.492   1.543  0.3272  0.6353 -1.0308
  537MOL0     C72393   4.146   0.456   1.506 -0.6889 -0.6904  0.6614
  537MOL0     C72394   4.045   0.435   1.596 -0.7165 -0.9927 -0.3018
  537MOL0     C72395   4.071   0.455   1.726 -0.1944 -0.4992 -0.3143
  537MOL0     O72396   3.984   0.441   1.836 -0.3248 -0.3182  0.2995
  537MOL0     C72397   3.851   0.492   1.816 -0.3847 -0.2427  0.3379
  537MOL0     C72398   3.777   0.533   1.947 -0.8837 -0.4195  0.8403
  537MOL0     C72399   3.836   0.671   1.987 -0.1474  0.9156  0.3277
  537MOL0     C72400   3.878   0.681   2.135  0.3006 -0.0568  0.7078
  537MOL0     C72401   3.892   0.823   2.166  1.3054 -0.1020  0.6126
  537MOL0     C72402   3.942   0.851   2.310  0.6705  0.1786  0.0170
  537MOL0     C72403   3.964   1.002   2.321 -0.4957  0.4562  0.6377
  537MOL0     C72404   4.038   1.045   2.452  0.3680 -0.3324  0.2906
  537MOL0    Cl72405   4.171   0.945   2.480 -0.4609  0.9773  0.0024
  537MOL0     C72406   4.205   0.495   1.766 -0.0998 -0.3950 -0.0465
  537MOL0     C72407   4.306   0.512   1.679  0.1088  0.5831  0.1843
  537MOL0     O72408   4.395   0.723   1.507 -0.2114  0.4429  0.2240
  537MOL0     C72409   4.577   0.791   1.317 -0.1299 -0.0638  0.0926
  537MOL0     C72410   4.675   0.825   1.224  0.8099 -0.6019 -0.5380
  537MOL0     N72411   5.390   0.994   1.262 -0.0811  0.5588 -0.5907
  537MOL0     N72412   5.435   0.992   1.387 -0.1648 -0.8394  0.5276
  537MOL0     C72413   5.564   0.796   2.558 -0.3183 -0.0981 -0.8792
  537MOL0     C72414   5.622   0.809   2.692  0.3955 -0.5436  0.1266
  537MOL0     C72415   5.829   0.851   3.055  1.1745 -0.0212  0.2247
  537MOL0     C72416   5.833   0.789   3.187 -0.4881 -0.6472  0.6730
  537MOL0     C72417   5.874   0.860   3.301 -0.7354  0.4744 -0.1269
  537MOL0     C72418   5.926   0.997   3.285  0.4783  0.1655 -0.7937
  537MOL0     O72419   5.986   1.062   3.398  0.5780 -0.2291  0.7781
  537MOL0     C72420   6.013   1.204   3.400 -0.3291 -0.5592  0.4111
  537MOL0     C72421   6.020   1.249   3.543 -0.5684  0.4334  0.1683
  537MOL0     C72422   5.998   1.408   3.547 -0.0822  0.5102 -0.6089
  537MOL0     C72423   6.054   1.467   3.674  0.9841 -0.0539  0.0021
  537MOL0     C72424   6.195   1.471   3.686 -0.2696 -1.0614 -0.0560
  537MOL0     C72425   6.316   1.467   3.697  0.4210  0.0411  0.1555
  537MOL0     C72426   5.927   1.055   3.157  0.0370 -0.5905  0.0593
  537MOL0     C72427   5.857   0.991   3.056  0.2087 -0.3260  0.4843
  537MOL0     H72428   5.951   0.848   2.603  1.1710 -1.1029 -0.3749
  537MOL0     H72429   5.852   0.809   2.376 -1.8832 -0.1668 -0.6378
  537MOL0     H72430   5.584   0.938   2.188  3.2583  1.5122 -0.2154
  537MOL0     H72431   5.737   0.877   2.241  0.2279 -1.7216  1.2315
  537MOL0     H72432   5.709   0.661   2.103 -1.3635 -0.4219  3.2161
  537MOL0     H72433   5.543   0.698   2.077 -0.9295  0.6638  0.2901
  537MOL0     H72434   5.582   0.868   1.946 -0.6022 -0.1164  3.9377
  537MOL0     H72435   5.762   0.878   1.964  0.2057  0.3055 -3.7088
  537MOL0     H72436   5.776   0.618   1.884 -0.8172  0.1150  1.3368
  537MOL0     H72437   5.613   0.642   1.848  0.9335 -2.0526  1.4725
  537MOL0     H72438   5.835   0.798   1.708  0.5770 -0.8996 -1.8075
  537MOL0     H72439   5.725   0.663   1.659 -2.6148  0.4678  0.3479
  537MOL0     H72440   5.614   0.935   1.734  2.4136 -0.7481  1.9960
  537MOL0     H72441   5.663   0.891   1.573  4.0983 -1.7082 -0.6392
  537MOL0     H72442   5.514   0.693   1.584 -2.8788 -0.3780  1.1344
  537MOL0     H72443   5.463   0.732   1.745 -1.5884  1.4632  0.3520
  537MOL0     H72444   5.411   0.973   1.660  1.8535 -0.1459 -1.5944
  537MOL0     H72445   5.301   0.831   1.644  1.0287 -1.8242  1.1788
  537MOL0     H72446   5.273   0.718   1.390 -0.1040  0.9521  5.0457
  537MOL0     H72447   5.230   0.906   1.042  1.4902 -2.7724 -3.2308
  537MOL0     H72448   5.326   0.772   1.065 -0.6817  2.6212 -3.4940
  537MOL0     H72449   5.054   0.810   1.199  0.1978  2.8221 -3.0353
  537MOL0     H72450   5.134   0.658   1.188  2.1572 -0.1441  0.3915
  537MOL0     H72451   5.127   0.648   0.941  2.1565  1.8217 -0.2593
  537MOL0     H72452   5.051   0.799   0.937  2.5191 -1.5244 -1.7192
  537MOL0     H72453   4.934   0.568   1.068  2.4633  0.0567 -0.7095
  537MOL0     H72454   4.907   0.626   0.905  3.4051 -0.4518 -0.8117
  537MOL0     H72455   4.719   0.513   1.093  0.9045  1.5060 -1.0254
  537MOL0     H72456   4.515   0.368   1.343 -1.1234 -1.2721 -0.0701
  537MOL0     H72457   4.490   0.399   1.179 -1.8126  2.5600  1.7665
  537MOL0     H72458   4.657   0.364   1.218 -0.3235  1.1819 -0.8716
  537MOL0     H72459   4.122   0.453   1.400 -2.6064  2.6476  0.8620
  537MOL0     H72460   3.945   0.413   1.560 -0.0275 -1.0188 -2.3400
  537MOL0     H72461   3.860   0.577   1.748  2.3382 -1.1210 -0.5237
  537MOL0     H72462   3.796   0.415   1.761  1.2545 -1.7794  0.7813
  537MOL0     H72463   3.671   0.536   1.924 -1.0200  1.2251  1.5466
  537MOL0     H72464   3.789   0.462   2.029 -1.8135 -1.2823  0.2548
  537MOL0     H72465   3.759   0.736   1.944  0.7785  0.9821 -1.3608
  537MOL0     H72466   3.918   0.686   1.915  0.5840  0.0875  0.9628
  537MOL0     H72467   3.795   0.650   2.199  1.5316  0.4807  2.6571
  537MOL0     H72468   3.965   0.620   2.160 -0.3337  0.0791  3.6619
  537MOL0     H72469   3.793   0.867   2.154  0.6339 -1.8314 -0.5493
  537MOL0     H72470   3.960   0.866   2.092  0.9123 -0.2111  0.1875
  537MOL0     H72471   3.877   0.813   2.390  1.0977 -1.1358 -0.2247
  537MOL0     H72472   4.036   0.795   2.320  2.8625  2.9846 -2.8532
  537MOL0     H72473   3.869   1.048   2.295 -0.5426 -0.0864 -0.2035
  537MOL0     H72474   4.032   1.028   2.239  0.5555  0.0271  1.3411
  537MOL0     H72475   3.969   1.040   2.537 -1.9187 -2.3234 -1.5006
  537MOL0     H72476   4.067   1.150   2.440 -0.4408 -0.1045  0.2687
  537MOL0     H72477   4.235   0.488   1.870 -1.6020 -2.1004  0.3406
  537MOL0     H72478   4.403   0.543   1.717 -0.2122  3.1343 -0.8574
  537MOL0     H72479   4.548   0.875   1.378 -0.2303  1.6374 -2.1554
  537MOL0     H72480   4.700   0.931   1.227  1.1221 -0.6858  1.1920
  537MOL0     H72481   5.460   0.780   2.530 -0.2824  0.0320 -1.0846
  537MOL0     H72482   5.559   0.824   2.779  0.8014 -0.2147  0.3722
  537MOL0     H72483   5.791   0.690   3.201 -2.2265  0.3521  3.2917
  537MOL0     H72484   5.861   0.811   3.398 -4.4742 -2.2067 -1.7255
  537MOL0     H72485   6.100   1.230   3.339 -0.9602 -0.4421 -0.4633
  537MOL0     H72486   5.924   1.260   3.372 -0.5032 -0.6494  0.7857
  537MOL0     H72487   6.109   1.211   3.593 -1.2830 -0.1076  1.0710
  537MOL0     H72488   5.942   1.206   3.607 -1.0442 -0.0549 -0.7208
  537MOL0     H72489   5.890   1.418   3.560 -0.3963 -2.5919 -0.0372
  537MOL0     H72490   6.035   1.471   3.465  4.1758  0.2780  0.8749
  537MOL0     H72491   6.024   1.390   3.746 -0.2930 -0.4530 -0.9175
  537MOL0     H72492   6.014   1.564   3.705  1.9900 -0.3665  2.4803
  537MOL0     H72493   6.420   1.464   3.722  0.6346  1.9370 -0.3641
  537MOL0     H72494   5.970   1.154   3.148 -0.2036 -0.5719 -0.9586
  537MOL0     H72495   5.832   1.050   2.969 -0.5349  2.3139  2.3517
  538MOL0     O72496   8.901   6.408   4.282  0.6422 -0.2956  0.2059
  538MOL0     C72497   9.024   6.417   4.275  0.0380 -0.4452  0.0259
  538MOL0     O72498   9.082   6.537   4.270  0.0471 -0.3144 -0.0454
  538MOL0     C72499   9.016   6.650   4.292  0.2082  0.4081  0.5726
  538MOL0     C72500   8.958   6.665   4.418  0.2856  0.6896 -0.9335
  538MOL0     C72501   8.874   6.773   4.453  0.5770 -0.4144 -0.1111
  538MOL0     C72502   8.844   6.866   4.356 -1.0432 -0.3495 -0.0639
  538MOL0     O72503   8.743   6.960   4.372 -0.0256  0.8001  0.0398
  538MOL0     C72504   8.786   7.092   4.369  0.4357 -0.4719 -0.3158
  538MOL0     C72505   8.819   7.141   4.514 -0.0275  0.4476 -0.7815
  538MOL0     C72506   8.976   7.119   4.537  0.4165 -0.2605  0.2553
  538MOL0     C72507   9.006   7.166   4.679  0.1010 -0.7422 -0.8530
  538MOL0     C72508   9.154   7.188   4.714  0.0306  0.5263  1.0208
  538MOL0     C72509   9.160   7.271   4.845 -0.6679 -1.2505  0.0527
  538MOL0     C72510   9.310   7.269   4.895  1.0625  0.6461 -0.2668
  538MOL0     C72511   9.342   7.135   4.959  0.9524  0.2921 -0.9385
  538MOL0     N72512   9.461   7.130   5.041  0.8151  0.7818  0.3663
  538MOL0     C72513   9.492   7.012   5.101 -0.2954  1.0829 -0.0085
  538MOL0     C72514   9.611   7.043   5.162  0.2703  0.5685 -0.4388
  538MOL0     C72515   9.697   6.951   5.239 -1.0704  0.3839  0.6386
  538MOL0     C72516   9.633   6.916   5.380  0.1728  0.4773 -0.4593
  538MOL0     C72517   9.726   6.847   5.478 -0.9943 -0.8237 -1.4657
  538MOL0     C72518   9.868   6.917   5.506 -0.4228 -0.6028 -0.2187
  538MOL0     O72519   9.856   7.055   5.534  0.0189 -0.2615 -0.1562
  538MOL0     C72520   9.942   7.130   5.459  0.3580 -0.3350  0.2635
  538MOL0     C72521   9.893   7.234   5.377 -0.1878  0.5462  0.4910
  538MOL0     C72522   9.975   7.326   5.323 -0.2610 -0.7289  0.0488
  538MOL0     C72523   9.898   7.430   5.244 -0.4492  0.2455 -0.5882
  538MOL0     C72524  10.119   7.329   5.354 -0.0128  0.3058  0.3926
  538MOL0     C72525  10.206   7.436   5.306  0.1499  0.0925  0.9945
  538MOL0     O72526  10.161   7.526   5.206 -1.0234 -0.4606  0.0760
  538MOL0     C72527  10.261   7.616   5.153  0.6394  0.0718  0.7254
  538MOL0     C72528  10.368   7.550   5.096 -1.3145 -0.7478 -0.2816
  538MOL0     C72529  10.472   7.621   5.036 -0.5636 -0.5758  0.3674
  538MOL0     C72530  10.471   7.759   5.010  0.4621 -0.2728  0.5829
  538MOL0     O72531  10.578   7.830   4.960  0.1271 -0.2028  0.3341
  538MOL0     C72532  10.574   7.968   4.928 -0.8006 -0.4956 -0.4007
  538MOL0     C72533  10.687   8.000   4.830  0.0481  0.4036  0.2512
  538MOL0     C72534  10.820   7.968   4.898  0.0728 -0.0822  0.5132
  538MOL0     C72535  10.926   8.048   4.809 -0.0884  0.4246 -0.9722
  538MOL0     C72536  10.925   8.007   4.656 -0.6441  0.0841 -0.9649
  538MOL0     C72537  11.057   8.055   4.589  0.7144 -0.1223  0.4742
  538MOL0     C72538  11.068   8.019   4.439  0.2267  0.2481 -0.2726
  538MOL0     C72539  11.081   7.872   4.404 -0.1421  0.8476 -0.3036
  538MOL0    Cl72540  11.202   7.786   4.502  0.0098  0.5267  0.3540
  538MOL0     C72541  10.349   7.821   5.056  0.4478 -0.6369  0.3812
  538MOL0     C72542  10.253   7.754   5.129  0.7168 -0.5335 -0.1815
  538MOL0     O72543  10.317   7.434   5.358  0.1835 -0.8012 -0.0342
  538MOL0     C72544  10.168   7.219   5.427 -0.5820  0.8929  0.8256
  538MOL0     C72545  10.078   7.124   5.472 -0.6550  0.1800 -0.8808
  538MOL0     N72546   9.639   7.177   5.144  0.3935 -0.0377 -0.5239
  538MOL0     N72547   9.554   7.227   5.063 -0.8105  0.8234 -0.7406
  538MOL0     C72548   8.907   6.861   4.228 -0.3935 -0.2739  0.4876
  538MOL0     C72549   9.003   6.759   4.196  1.4805 -0.1244 -0.6413
  538MOL0     C72550   9.115   6.300   4.274  0.3091  0.2900  0.6427
  538MOL0     C72551   9.076   6.177   4.325 -0.0745  0.6467  0.1162
  538MOL0     C72552   9.162   6.065   4.323  0.0104 -0.8623  0.4719
  538MOL0     C72553   9.294   6.082   4.255 -0.2593  0.7070  0.0995
  538MOL0     O72554   9.379   5.979   4.247 -0.1620 -0.1641 -0.1851
  538MOL0     C72555   9.361   5.867   4.330 -0.0066 -0.8995 -0.0111
  538MOL0     C72556   9.466   5.763   4.314 -0.1722  0.3880  0.2260
  538MOL0     C72557   9.597   5.791   4.390  0.5437 -0.3693 -0.8447
  538MOL0     C72558   9.563   5.755   4.545 -0.1134  1.2680 -0.6093
  538MOL0     C72559   9.701   5.768   4.594  0.0026  0.6654  0.1052
  538MOL0     C72560   9.816   5.767   4.637 -0.1046  0.7994 -0.5920
  538MOL0     C72561   9.333   6.210   4.212  0.2812 -0.0097 -0.1740
  538MOL0     C72562   9.241   6.309   4.222 -0.0650 -1.2170  1.0915
  538MOL0     H72563   8.972   6.593   4.498  0.1845  0.3211 -1.2435
  538MOL0     H72564   8.822   6.794   4.545 -1.7351  0.6758 -1.5735
  538MOL0     H72565   8.856   7.113   4.288  0.0018  1.2115 -0.2837
  538MOL0     H72566   8.696   7.149   4.347  1.8001  1.8317 -0.2664
  538MOL0     H72567   8.819   7.250   4.525  5.1574  0.5540  0.4873
  538MOL0     H72568   8.761   7.092   4.593 -0.6277  1.1226 -0.7885
  538MOL0     H72569   8.997   7.011   4.534 -0.0917 -0.3425 -0.7795
  538MOL0     H72570   9.032   7.175   4.462 -1.4731 -0.0350 -1.0611
  538MOL0     H72571   8.965   7.267   4.693  1.3821 -0.3337  0.1454
  538MOL0     H72572   8.963   7.095   4.750 -0.8757 -1.5453 -2.1956
  538MOL0     H72573   9.215   7.098   4.718  0.8281  0.8808 -1.2631
  538MOL0     H72574   9.190   7.254   4.634 -1.0687 -0.3591 -0.2694
  538MOL0     H72575   9.125   7.375   4.844  1.2264 -0.5265 -2.8505
  538MOL0     H72576   9.099   7.218   4.919  0.4090 -0.4814  1.5582
  538MOL0     H72577   9.376   7.296   4.813  1.2505 -1.8437 -1.0036
  538MOL0     H72578   9.322   7.349   4.969 -0.9040 -0.7612  1.7042
  538MOL0     H72579   9.340   7.058   4.880 -2.2212 -1.2522  0.4666
  538MOL0     H72580   9.261   7.103   5.025  0.2944  1.7591 -1.0029
  538MOL0     H72581   9.439   6.922   5.128  2.1026  0.5938  4.0483
  538MOL0     H72582   9.716   6.862   5.178 -0.0649  2.0533 -1.6079
  538MOL0     H72583   9.796   6.996   5.243 -1.5896  1.5657  0.8193
  538MOL0     H72584   9.547   6.852   5.356 -1.3917  2.6969 -1.1605
  538MOL0     H72585   9.590   7.008   5.421 -2.7355 -1.1296  0.4004
  538MOL0     H72586   9.742   6.743   5.447  2.0913 -0.3996 -1.6209
  538MOL0     H72587   9.675   6.841   5.574  3.3673  2.1923  1.4417
  538MOL0     H72588   9.938   6.894   5.425  1.3308 -2.8436  1.7859
  538MOL0     H72589   9.913   6.865   5.591 -0.2296 -0.2156 -0.0806
  538MOL0     H72590   9.789   7.254   5.354  0.8689  3.5955 -2.4382
  538MOL0     H72591   9.940   7.416   5.144  3.0169 -1.1176  0.8818
  538MOL0     H72592   9.790   7.414   5.242 -0.1831 -2.9084  1.8247
  538MOL0     H72593   9.917   7.529   5.286 -2.0093 -0.8877  3.2804
  538MOL0     H72594  10.385   7.443   5.096  1.0472 -0.7581 -6.2168
  538MOL0     H72595  10.559   7.562   5.010 -0.7810 -0.2219 -1.2326
  538MOL0     H72596  10.473   7.985   4.889 -2.0737 -0.0128  2.7746
  538MOL0     H72597  10.593   8.031   5.015  1.6186 -1.1162 -0.4178
  538MOL0     H72598  10.672   7.942   4.738  0.1680 -2.5614  1.9573
  538MOL0     H72599  10.673   8.105   4.804  1.9189  0.9637  1.2997
  538MOL0     H72600  10.847   7.862   4.890 -0.3361 -0.0439 -4.6288
  538MOL0     H72601  10.829   7.990   5.005 -1.6717 -3.0250  1.3603
  538MOL0     H72602  10.908   8.156   4.812  1.4244  0.7055 -1.1543
  538MOL0     H72603  11.020   8.022   4.858  0.4063  1.6186 -1.2584
  538MOL0     H72604  10.847   8.068   4.609  0.8342  0.9746 -2.3135
  538MOL0     H72605  10.899   7.901   4.645 -2.9848  0.6732 -1.7525
  538MOL0     H72606  11.064   8.164   4.585 -3.6459  0.3108 -0.2454
  538MOL0     H72607  11.143   8.011   4.641  0.8701 -1.0737 -0.5453
  538MOL0     H72608  11.155   8.074   4.402  0.9487  0.9658  2.2928
  538MOL0     H72609  10.978   8.057   4.389  0.5701  1.0084 -0.3299
  538MOL0     H72610  11.111   7.875   4.298  0.0759 -1.3385 -0.3474
  538MOL0     H72611  10.984   7.823   4.414 -0.8576  2.4364  0.9390
  538MOL0     H72612  10.348   7.930   5.049  0.3229 -0.5650  1.4103
  538MOL0     H72613  10.158   7.797   5.159  0.5085 -1.9236  1.3259
  538MOL0     H72614  10.275   7.216   5.448 -0.1490  0.0416 -1.2505
  538MOL0     H72615  10.120   7.048   5.537 -2.8884 -2.7930 -2.7011
  538MOL0     H72616   8.874   6.925   4.147 -0.6373 -1.5608 -0.4688
  538MOL0     H72617   9.042   6.751   4.095  3.2707  1.9040 -0.1753
  538MOL0     H72618   8.977   6.174   4.369 -0.2826  5.1847  0.4385
  538MOL0     H72619   9.111   5.980   4.366 -0.9948 -1.5762 -1.9543
  538MOL0     H72620   9.368   5.913   4.429 -0.7027  1.4946 -0.9829
  538MOL0     H72621   9.262   5.822   4.312  0.1294 -0.7491 -1.2286
  538MOL0     H72622   9.498   5.759   4.210  1.7706  2.4636  0.6390
  538MOL0     H72623   9.419   5.666   4.329 -0.0608  0.1234 -1.0325
  538MOL0     H72624   9.635   5.892   4.373 -0.3546  0.7146  2.7101
  538MOL0     H72625   9.672   5.720   4.355  0.8248 -0.2990 -0.3842
  538MOL0     H72626   9.513   5.660   4.569  0.5601  1.3675  1.3536
  538MOL0     H72627   9.489   5.821   4.591 -2.3380 -0.6389 -1.2422
  538MOL0     H72628   9.902   5.770   4.700 -2.2053  1.5768  2.4942
  538MOL0     H72629   9.436   6.230   4.185 -0.0707  1.3258 -0.5977
  538MOL0     H72630   9.271   6.399   4.170 -2.0150 -0.7624  0.6873
  539MOL0     O72631   2.138  10.086   9.924  0.3647 -0.0738  0.0592
  539MOL0     C72632   2.195   9.991   9.985  1.0340 -0.4557  0.4261
  539MOL0     O72633   2.141   9.914  10.086 -0.0526  0.6809 -0.2371
  539MOL0     C72634   2.031   9.965  10.152 -0.7663 -0.5284  0.2024
  539MOL0     C72635   1.908   9.973  10.089  0.5793  1.4064  0.1522
  539MOL0     C72636   1.798   9.994  10.173  0.3340 -0.4200  0.0654
  539MOL0     C72637   1.795  10.021  10.315  0.0027  0.2270  0.4307
  539MOL0     O72638   1.679  10.031  10.394 -0.2302 -0.2009  0.1938
  539MOL0     C72639   1.547  10.020  10.327  0.0886  0.9154 -1.2048
  539MOL0     C72640   1.430  10.060  10.420  1.2371  1.3948  0.8274
  539MOL0     C72641   1.375   9.943  10.515 -0.6082 -0.4255 -0.0787
  539MOL0     C72642   1.216   9.941  10.544  0.1290  0.0354 -0.0174
  539MOL0     C72643   1.175  10.052  10.647  0.1654  0.4803  0.5712
  539MOL0     C72644   1.020  10.047  10.673  0.4692 -0.4278  0.7592
  539MOL0     C72645   0.937  10.077  10.547  0.6835  1.4098  1.1978
  539MOL0     C72646   0.831  10.177  10.578  0.5069  0.0385  0.0703
  539MOL0     N72647   0.717  10.133  10.655 -0.3990 -0.2285  0.2289
  539MOL0     C72648   0.638  10.229  10.714 -0.6792  0.3932  0.2297
  539MOL0     C72649   0.548  10.159  10.789  0.3263 -0.2508  0.5876
  539MOL0     C72650   0.425  10.221  10.839  1.7615  0.0597  0.2528
  539MOL0     C72651   0.306  10.240  10.735  1.2308 -0.0080  0.1985
  539MOL0     C72652   0.173  10.149  10.757 -0.3244 -0.3105  1.5771
  539MOL0     C72653   0.048  10.191  10.676 -0.9737  1.1129  0.2380
  539MOL0     O72654  -0.015  10.296  10.750 -0.0250  0.0661 -0.8256
  539MOL0     C72655  -0.133  10.348  10.706  0.1625  0.4431  0.9979
  539MOL0     C72656  -0.204  10.415  10.810 -0.0451  1.1307  2.1386
  539MOL0     C72657  -0.321  10.483  10.772 -0.9055 -0.4334  0.1793
  539MOL0     C72658  -0.400  10.559  10.884 -0.2369 -0.3425 -0.1770
  539MOL0     C72659  -0.368  10.480  10.634 -0.3249 -0.0444 -0.6726
  539MOL0     C72660  -0.505  10.527  10.594 -0.0861  1.9581  0.4808
  539MOL0     O72661  -0.576  10.440  10.509 -0.1584  0.0359 -0.6855
  539MOL0     C72662  -0.693  10.484  10.445 -0.1389  0.6663  0.2322
  539MOL0     C72663  -0.801  10.551  10.506 -0.3924  0.1748 -0.8529
  539MOL0     C72664  -0.912  10.592  10.438  0.0814 -0.0928 -0.0858
  539MOL0     C72665  -0.927  10.552  10.303  0.0122 -0.0563  0.1883
  539MOL0     O72666  -1.030  10.587  10.219  0.2045 -0.2293 -0.4985
  539MOL0     C72667  -1.154  10.623  10.286 -0.0686  0.1884  0.6854
  539MOL0     C72668  -1.280  10.621  10.202 -0.2279 -0.0522 -0.3025
  539MOL0     C72669  -1.412  10.612  10.286 -0.1821  0.9389  0.0865
  539MOL0     C72670  -1.448  10.731  10.372  0.1456 -0.6715  1.0545
  539MOL0     C72671  -1.590  10.728  10.433 -0.3370  1.2233 -0.0285
  539MOL0     C72672  -1.615  10.843  10.528  0.4552  0.6773 -0.2424
  539MOL0     C72673  -1.735  10.823  10.624  0.2211 -1.0987  0.4753
  539MOL0     C72674  -1.873  10.789  10.551 -0.3951 -0.4029 -0.8645
  539MOL0    Cl72675  -1.987  10.725  10.664  0.0745  0.0695  0.4804
  539MOL0     C72676  -0.820  10.484  10.239  0.0729 -0.3265 -0.3096
  539MOL0     C72677  -0.711  10.446  10.310  0.3784  0.5800  0.4231
  539MOL0     O72678  -0.529  10.640  10.620  0.9403  0.3385 -0.0366
  539MOL0     C72679  -0.287  10.422  10.540  0.0225 -0.7014  0.3374
  539MOL0     C72680  -0.173  10.357  10.566  0.6901  0.7521  0.2791
  539MOL0     N72681   0.576  10.026  10.791  1.0014 -0.0999  0.2101
  539MOL0     N72682   0.678  10.018  10.715  0.6272  0.4937 -0.5126
  539MOL0     C72683   1.923  10.025  10.376  0.6327  0.2519  0.2962
  539MOL0     C72684   2.039   9.987  10.294  0.3521 -0.4055 -0.6286
  539MOL0     C72685   2.331   9.966   9.944  0.0075  0.7066  0.5536
  539MOL0     C72686   2.413   9.890  10.031  0.6992 -0.0629 -0.0793
  539MOL0     C72687   2.548   9.879   9.998 -0.9531 -1.3961 -0.7736
  539MOL0     C72688   2.609   9.931   9.887 -0.0337 -0.3428  0.1274
  539MOL0     O72689   2.743   9.900   9.857 -0.0674  0.1461 -0.4581
  539MOL0     C72690   2.806   9.996   9.766 -0.0730  0.2050  0.0954
  539MOL0     C72691   2.963   9.999   9.777  0.1824  1.1993  0.7603
  539MOL0     C72692   3.026  10.072   9.903  0.8296  0.7578 -0.1685
  539MOL0     C72693   3.183  10.065   9.903 -0.3180 -0.3379 -0.4701
  539MOL0     C72694   3.235   9.930   9.913 -0.4864 -0.4415 -0.4200
  539MOL0     C72695   3.288   9.826   9.911  0.2140 -0.0922  0.5295
  539MOL0     C72696   2.528  10.004   9.808  0.1641  0.2778 -0.2191
  539MOL0     C72697   2.387  10.020   9.832  0.6980  0.6513  0.7061
  539MOL0     H72698   1.895   9.946   9.985 -4.1290 -2.1993  1.3020
  539MOL0     H72699   1.703   9.975  10.124  0.5659 -0.7944 -0.2511
  539MOL0     H72700   1.527  10.078  10.237 -1.9900  0.8435 -0.8267
  539MOL0     H72701   1.538   9.912  10.310  3.6007  0.5991 -1.9390
  539MOL0     H72702   1.454  10.139  10.492  2.4307  0.4723  1.4788
  539MOL0     H72703   1.347  10.091  10.357  1.2161  0.7696  0.5430
  539MOL0     H72704   1.391   9.855  10.452 -0.7564 -1.0483  0.7377
  539MOL0     H72705   1.437   9.940  10.605 -1.1306  1.3035  0.3746
  539MOL0     H72706   1.167   9.967  10.449  0.2966  0.3122 -0.0294
  539MOL0     H72707   1.181   9.841  10.572  0.1305 -0.5291 -1.8579
  539MOL0     H72708   1.237  10.033  10.734 -1.6290 -2.5373  1.3141
  539MOL0     H72709   1.200  10.153  10.612 -1.1196  1.5057  2.4206
  539MOL0     H72710   0.994   9.951  10.718  0.7094 -0.1758  1.4456
  539MOL0     H72711   0.997  10.115  10.756 -0.6336 -0.6574  0.6660
  539MOL0     H72712   1.002  10.125  10.473  0.8518 -1.7565 -0.8625
  539MOL0     H72713   0.907   9.987  10.493  2.3303  0.8130  1.2059
  539MOL0     H72714   0.798  10.216  10.481 -2.6701 -0.3662  0.8889
  539MOL0     H72715   0.880  10.263  10.625 -0.6585  0.4723  0.5150
  539MOL0     H72716   0.637  10.333  10.681  1.3133  1.1080  2.2169
  539MOL0     H72717   0.387  10.169  10.927 -1.2588  2.0818  0.3246
  539MOL0     H72718   0.457  10.324  10.858  0.9868  1.0903 -3.2422
  539MOL0     H72719   0.347  10.211  10.637  0.3562  2.9499 -1.1275
  539MOL0     H72720   0.272  10.343  10.727  0.4166 -0.3133 -0.3360
  539MOL0     H72721   0.159  10.156  10.866 -0.3289 -0.7902  1.6111
  539MOL0     H72722   0.201  10.046  10.730 -4.7014 -1.1016 -0.8165
  539MOL0     H72723  -0.024  10.112  10.655 -0.3120  0.2883  1.0023
  539MOL0     H72724   0.076  10.211  10.572 -0.4130 -1.5098 -0.1882
  539MOL0     H72725  -0.184  10.394  10.914  0.5674 -1.5369  1.5560
  539MOL0     H72726  -0.340  10.641  10.925  2.4873 -0.9645 -2.6839
  539MOL0     H72727  -0.492  10.605  10.847  0.9081  0.1926 -2.5396
  539MOL0     H72728  -0.431  10.491  10.964 -0.5591  0.0710  0.0602
  539MOL0     H72729  -0.793  10.575  10.612  0.3340 -0.2842 -0.7991
  539MOL0     H72730  -0.986  10.643  10.500 -3.3321 -0.7452 -3.2713
  539MOL0     H72731  -1.172  10.554  10.369  3.6337 -0.9359  0.7437
  539MOL0     H72732  -1.147  10.723  10.329  0.9044 -0.7091  2.7438
  539MOL0     H72733  -1.284  10.710  10.140  1.0071  1.8003  2.1229
  539MOL0     H72734  -1.277  10.535  10.134  1.5263  2.7710 -4.1970
  539MOL0     H72735  -1.402  10.536  10.363  1.8776  4.3507  3.5823
  539MOL0     H72736  -1.487  10.591  10.209 -1.0264  3.2459  0.1978
  539MOL0     H72737  -1.376  10.724  10.454  2.3389 -0.0089 -0.7101
  539MOL0     H72738  -1.438  10.826  10.317  1.8063 -1.0659  0.6031
  539MOL0     H72739  -1.606  10.632  10.482 -4.3273 -0.5982 -4.1414
  539MOL0     H72740  -1.656  10.731  10.346 -0.8753 -3.6150 -0.0579
  539MOL0     H72741  -1.531  10.857  10.596  1.6272 -0.3798 -1.3994
  539MOL0     H72742  -1.627  10.932  10.466 -0.4830  1.4889  1.0591
  539MOL0     H72743  -1.750  10.917  10.679 -0.8913 -0.6364 -0.5610
  539MOL0     H72744  -1.711  10.753  10.705  0.3592  0.3415  1.7303
  539MOL0     H72745  -1.857  10.714  10.474 -0.8160  1.5199 -2.9496
  539MOL0     H72746  -1.912  10.876  10.497  2.4330  1.1074 -0.6768
  539MOL0     H72747  -0.830  10.454  10.135 -1.3898 -1.2450  0.0657
  539MOL0     H72748  -0.635  10.390  10.257  0.5460  1.9288 -0.8199
  539MOL0     H72749  -0.332  10.405  10.443 -1.9706  0.5352  0.9812
  539MOL0     H72750  -0.126  10.316  10.477 -2.3351  0.2335 -1.2176
  539MOL0     H72751   1.926  10.062  10.478  0.9392  0.1004  0.3440
  539MOL0     H72752   2.135   9.981  10.344  0.2003 -0.1162 -0.2947
  539MOL0     H72753   2.376   9.845  10.122 -0.1124  1.5737  0.4184
  539MOL0     H72754   2.615   9.823  10.063  0.0704  0.3380 -0.2945
  539MOL0     H72755   2.776  10.000   9.661  2.0152  0.3978 -0.5268
  539MOL0     H72756   2.775  10.091   9.812  1.7331  0.7175  0.3207
  539MOL0     H72757   2.993  10.056   9.688 -1.2843 -2.1250 -2.1092
  539MOL0     H72758   3.001   9.898   9.760 -2.0367  0.6225 -1.4641
  539MOL0     H72759   2.978  10.024   9.989 -0.5479 -2.2681 -2.4235
  539MOL0     H72760   2.997  10.177   9.913 -0.1875  0.3583  1.5631
  539MOL0     H72761   3.210  10.113   9.997  1.9206 -2.5098  0.0926
  539MOL0     H72762   3.228  10.122   9.821  1.7442 -1.2757 -0.0515
  539MOL0     H72763   3.339   9.732   9.920 -0.0925 -0.5424 -1.8549
  539MOL0     H72764   2.564  10.018   9.706  1.2036  0.7250  0.1977
  539MOL0     H72765   2.320  10.056   9.754 -1.0329  0.3929  2.0118
  540MOL0     O72766   0.551   3.299   4.532  0.1321 -0.2615  0.4645
  540MOL0     C72767   0.577   3.386   4.614  0.4098 -0.8173 -0.6556
  540MOL0     O72768   0.497   3.429   4.714  0.9382  0.0322  0.1280
  540MOL0     C72769   0.363   3.375   4.719 -0.7609 -0.6853 -0.2747
  540MOL0     C72770   0.345   3.285   4.834 -0.0390 -0.0207 -0.1383
  540MOL0     C72771   0.234   3.210   4.848 -0.6471 -1.1580  0.6212
  540MOL0     C72772   0.130   3.230   4.752 -0.8561  0.3447  0.0533
  540MOL0     O72773   0.007   3.160   4.769  0.0320  0.1440  0.4249
  540MOL0     C72774  -0.111   3.238   4.736  0.5737 -0.1883 -0.5187
  540MOL0     C72775  -0.121   3.354   4.843 -0.1196 -0.1653 -0.2494
  540MOL0     C72776  -0.098   3.310   4.990  0.6529 -0.1956 -0.1742
  540MOL0     C72777  -0.122   3.428   5.089 -0.0967 -0.3141 -0.5870
  540MOL0     C72778  -0.041   3.396   5.216  0.2862  1.0079 -0.3147
  540MOL0     C72779  -0.103   3.271   5.288  0.5397 -0.6270  0.5456
  540MOL0     C72780  -0.065   3.269   5.435  0.3839  0.8132  0.1577
  540MOL0     C72781   0.080   3.229   5.438  0.7070 -0.4247  0.1924
  540MOL0     N72782   0.131   3.227   5.572 -0.1267  0.0665 -0.0685
  540MOL0     C72783   0.174   3.329   5.645 -0.0334  0.7157  0.8001
  540MOL0     C72784   0.194   3.280   5.766 -0.7757 -0.3358 -0.6537
  540MOL0     C72785   0.230   3.360   5.885  0.2890 -1.1996 -0.1090
  540MOL0     C72786   0.118   3.460   5.925 -0.2801 -0.6875  0.0394
  540MOL0     C72787   0.009   3.378   5.998  0.0161 -0.1907 -0.0913
  540MOL0     C72788  -0.112   3.453   6.035  0.6460  0.4445  0.1175
  540MOL0     O72789  -0.162   3.519   5.914  0.7680  0.7662 -0.2874
  540MOL0     C72790  -0.233   3.632   5.921 -0.5946  0.1926 -0.1212
  540MOL0     C72791  -0.367   3.649   5.872 -0.1270  0.8919  0.3553
  540MOL0     C72792  -0.444   3.761   5.894 -0.2712  0.3337 -0.0788
  540MOL0     C72793  -0.588   3.765   5.842  0.5370  0.3003  1.7457
  540MOL0     C72794  -0.376   3.865   5.962  0.2732 -0.1364  0.5865
  540MOL0     C72795  -0.443   3.999   5.985 -0.0407 -0.1369 -0.6064
  540MOL0     O72796  -0.363   4.108   5.942 -0.6567 -0.7895  0.1819
  540MOL0     C72797  -0.437   4.224   5.933  0.7646  0.6255 -0.4017
  540MOL0     C72798  -0.432   4.316   6.039  0.4919 -1.1572  0.0471
  540MOL0     C72799  -0.510   4.432   6.028 -1.1675 -0.1727 -0.1875
  540MOL0     C72800  -0.577   4.463   5.917  0.8384  0.0586  1.1813
  540MOL0     O72801  -0.656   4.573   5.906 -0.0126  0.5481 -0.5834
  540MOL0     C72802  -0.796   4.557   5.890 -0.1660 -0.2696  0.6862
  540MOL0     C72803  -0.860   4.494   6.016 -1.0110  0.0679 -0.1569
  540MOL0     C72804  -1.000   4.548   6.045  1.3284  0.0430 -0.6572
  540MOL0     C72805  -1.100   4.501   5.940 -0.4707 -0.1607  0.4598
  540MOL0     C72806  -1.234   4.564   5.969  0.4639  0.5131 -0.5245
  540MOL0     C72807  -1.350   4.465   5.926 -1.3711 -0.2682  0.7138
  540MOL0     C72808  -1.362   4.457   5.774  0.7731  0.5709 -0.0714
  540MOL0     C72809  -1.500   4.417   5.727 -0.1501  0.4628 -0.7752
  540MOL0    Cl72810  -1.626   4.533   5.777 -0.1133  0.5415  0.2899
  540MOL0     C72811  -0.574   4.385   5.809 -0.4040 -0.2922  0.0513
  540MOL0     C72812  -0.508   4.256   5.816  0.4289 -0.7979  0.6899
  540MOL0     O72813  -0.545   4.005   6.053 -1.1028 -0.2921 -0.2775
  540MOL0     C72814  -0.249   3.850   6.005 -0.4184 -0.2640  0.1367
  540MOL0     C72815  -0.170   3.737   5.983  0.7011 -0.1117 -0.9423
  540MOL0     N72816   0.146   3.148   5.772  0.0149 -0.5130  0.7976
  540MOL0     N72817   0.120   3.118   5.651 -0.6041  0.2813  0.4672
  540MOL0     C72818   0.147   3.325   4.639  0.3537  0.4708 -1.1328
  540MOL0     C72819   0.265   3.394   4.621 -0.1896 -0.5884 -0.4021
  540MOL0     C72820   0.715   3.445   4.600 -0.9695 -0.7556  0.1253
  540MOL0     C72821   0.781   3.448   4.468  0.5702 -0.6509 -0.3846
  540MOL0     C72822   0.907   3.505   4.460 -0.3555  0.0459  0.9234
  540MOL0     C72823   0.972   3.553   4.579  0.6518 -0.3441  0.6773
  540MOL0     O72824   1.103   3.602   4.561  0.0888  0.8760 -0.0499
  540MOL0     C72825   1.189   3.637   4.672  0.6912  1.0493  0.4072
  540MOL0     C72826   1.243   3.504   4.740 -0.3392  0.3752 -0.3704
  540MOL0     C72827   1.376   3.540   4.811 -0.5991  0.2731 -0.4696
  540MOL0     C72828   1.502   3.486   4.737 -0.4492 -0.2168 -0.0871
  540MOL0     C72829   1.524   3.584   4.623 -0.0312  0.5448 -0.5154
  540MOL0     C72830   1.543   3.673   4.542 -0.8818  0.3617  0.9915
  540MOL0     C72831   0.907   3.554   4.699  0.3314  0.7009  0.9610
  540MOL0     C72832   0.778   3.499   4.705  0.5607  0.8468 -0.0863
  540MOL0     H72833   0.428   3.264   4.902 -0.4806  1.9067  1.0607
  540MOL0     H72834   0.235   3.135   4.926  2.4916 -3.0865 -1.0448
  540MOL0     H72835  -0.134   3.245   4.629  1.5933  2.9441 -0.6418
  540MOL0     H72836  -0.192   3.171   4.765  1.1209 -1.2492 -1.3461
  540MOL0     H72837  -0.054   3.439   4.825  1.0471 -1.2152 -1.0586
  540MOL0     H72838  -0.224   3.389   4.840 -0.0559 -0.0212 -0.7836
  540MOL0     H72839  -0.185   3.244   4.996 -0.8435  1.6885  0.0729
  540MOL0     H72840  -0.005   3.259   5.015  0.6151  0.2129  0.8741
  540MOL0     H72841  -0.095   3.520   5.036 -1.2350  0.2271 -0.2549
  540MOL0     H72842  -0.228   3.438   5.115 -0.1106  0.8138 -1.0303
  540MOL0     H72843   0.064   3.388   5.185  1.2324 -1.0090  2.9132
  540MOL0     H72844  -0.048   3.483   5.282 -0.4885 -0.6203  1.8951
  540MOL0     H72845  -0.210   3.292   5.280  0.2926 -1.0237  2.3147
  540MOL0     H72846  -0.081   3.172   5.248 -3.3261 -0.9014 -1.3580
  540MOL0     H72847  -0.076   3.362   5.491  1.3686  0.9062  0.2070
  540MOL0     H72848  -0.126   3.189   5.478  1.4587 -2.3262 -3.5856
  540MOL0     H72849   0.139   3.301   5.380  0.1087 -0.9052 -1.0446
  540MOL0     H72850   0.096   3.127   5.402  0.4730 -0.3022 -0.2717
  540MOL0     H72851   0.169   3.433   5.613  0.3957  0.1862 -1.1535
  540MOL0     H72852   0.263   3.293   5.965 -0.0190 -1.0863  0.1108
  540MOL0     H72853   0.317   3.418   5.852  1.4326 -2.7364  0.1242
  540MOL0     H72854   0.089   3.517   5.836  1.0332 -1.5663 -0.9835
  540MOL0     H72855   0.166   3.532   5.992  0.3143  1.2471 -2.3268
  540MOL0     H72856   0.054   3.324   6.081  1.5572  0.5132 -0.4311
  540MOL0     H72857  -0.036   3.309   5.926  0.5062  0.7694 -1.3511
  540MOL0     H72858  -0.082   3.525   6.112  1.0270 -2.5914  3.0037
  540MOL0     H72859  -0.187   3.392   6.086  2.0186 -1.2976  0.1594
  540MOL0     H72860  -0.410   3.565   5.819 -0.2845  2.5733 -2.3616
  540MOL0     H72861  -0.625   3.868   5.837  0.4001  0.1903 -1.1859
  540MOL0     H72862  -0.620   3.712   5.752 -1.1519  0.2814  2.3272
  540MOL0     H72863  -0.642   3.707   5.918  0.2690 -0.7258  0.7908
  540MOL0     H72864  -0.384   4.298   6.135  0.1758 -3.3685 -0.1619
  540MOL0     H72865  -0.508   4.505   6.108 -0.3326  0.3522 -0.6677
  540MOL0     H72866  -0.836   4.656   5.868  0.4698 -0.1919 -0.1710
  540MOL0     H72867  -0.815   4.495   5.801 -0.7417  2.6807 -1.3777
  540MOL0     H72868  -0.854   4.387   5.999 -0.4796  0.4483 -2.7701
  540MOL0     H72869  -0.801   4.507   6.107  0.1314  1.0908 -1.0050
  540MOL0     H72870  -0.989   4.657   6.042 -3.0644  0.6578 -0.2655
  540MOL0     H72871  -1.041   4.526   6.143 -2.7552 -0.7822 -2.3582
  540MOL0     H72872  -1.059   4.525   5.841 -1.2011 -0.3951  0.0925
  540MOL0     H72873  -1.109   4.392   5.940  0.1346 -0.2251 -0.4801
  540MOL0     H72874  -1.238   4.657   5.912  2.2928 -1.1139 -3.5503
  540MOL0     H72875  -1.252   4.584   6.075  0.6602 -3.5310  0.4359
  540MOL0     H72876  -1.338   4.362   5.960 -0.6444  0.2997  2.2991
  540MOL0     H72877  -1.444   4.494   5.973 -0.6328  1.6786  1.1101
  540MOL0     H72878  -1.290   4.385   5.735  1.8221  1.9729 -0.8169
  540MOL0     H72879  -1.328   4.555   5.740  2.7269  0.4505  1.3606
  540MOL0     H72880  -1.540   4.321   5.760  2.2080 -0.0348  0.7850
  540MOL0     H72881  -1.488   4.421   5.618  0.5757  0.9821 -0.6832
  540MOL0     H72882  -0.614   4.423   5.716 -1.2774 -2.8930 -0.7157
  540MOL0     H72883  -0.506   4.197   5.725 -2.9098  0.7270 -0.5456
  540MOL0     H72884  -0.193   3.928   6.055  1.9154 -1.8248  0.1185
  540MOL0     H72885  -0.064   3.730   6.007 -0.0757 -0.2280  3.3509
  540MOL0     H72886   0.065   3.349   4.571 -1.5065 -0.7352  0.5618
  540MOL0     H72887   0.278   3.470   4.544 -1.2041  0.3098  0.2736
  540MOL0     H72888   0.744   3.407   4.375  1.2914 -0.8755 -0.5779
  540MOL0     H72889   0.964   3.503   4.367  2.2646 -0.6576  2.4543
  540MOL0     H72890   1.273   3.699   4.638  0.9382  0.1447 -0.7021
  540MOL0     H72891   1.139   3.703   4.742  0.3747  1.0240  0.2089
  540MOL0     H72892   1.251   3.426   4.664  2.8240  1.5904 -1.4230
  540MOL0     H72893   1.172   3.475   4.819 -0.3402 -2.6463 -1.3653
  540MOL0     H72894   1.364   3.501   4.913 -1.7003  3.7149  0.8662
  540MOL0     H72895   1.385   3.648   4.824 -0.8577  0.2863 -0.3866
  540MOL0     H72896   1.489   3.383   4.702 -2.2888 -1.0050  2.6480
  540MOL0     H72897   1.583   3.471   4.809 -0.6126 -0.1788  0.1047
  540MOL0     H72898   1.556   3.752   4.470 -1.6963  0.3381  0.8070
  540MOL0     H72899   0.939   3.603   4.791  0.5672  0.5881  0.9389
  540MOL0     H72900   0.715   3.511   4.793  0.7954  0.3612  0.1491
  541MOL0     O72901  10.113   2.674  10.272 -0.3139 -0.1541 -0.2259
  541MOL0     C72902  10.231   2.708  10.255  0.4756  0.1773 -0.5743
  541MOL0     O72903  10.339   2.655  10.315  0.0313 -0.3516  0.3252
  541MOL0     C72904  10.327   2.563  10.415 -0.2203  0.9375 -0.2804
  541MOL0     C72905  10.226   2.570  10.507  0.1177 -0.5948 -0.6575
  541MOL0     C72906  10.227   2.491  10.618  0.7336 -0.1810  0.1716
  541MOL0     C72907  10.328   2.388  10.625 -0.8203  0.8067 -0.3178
  541MOL0     O72908  10.340   2.299  10.737 -0.5169 -0.4338 -0.0021
  541MOL0     C72909  10.241   2.323  10.840  0.4123  0.5428 -0.6588
  541MOL0     C72910  10.286   2.251  10.965 -0.4083 -0.8656  0.5587
  541MOL0     C72911  10.219   2.112  10.992  0.7092  0.0952 -0.2861
  541MOL0     C72912  10.248   2.057  11.136  0.1277  0.3090 -0.7009
  541MOL0     C72913  10.152   1.941  11.170  0.2346  0.6190  0.2097
  541MOL0     C72914  10.138   1.912  11.318 -0.6377 -0.6832 -0.4808
  541MOL0     C72915  10.083   1.778  11.331  0.0500 -0.5245 -0.3501
  541MOL0     C72916  10.195   1.664  11.353 -1.4439 -0.3431  0.7140
  541MOL0     N72917  10.153   1.530  11.328  0.2180  0.0590 -0.6487
  541MOL0     C72918  10.105   1.449  11.427  0.6802 -0.0965  0.0384
  541MOL0     C72919  10.111   1.321  11.376 -0.5641 -0.5508  0.3230
  541MOL0     C72920  10.089   1.190  11.440 -0.2761  0.1800 -0.1118
  541MOL0     C72921   9.941   1.144  11.447  0.3878 -0.4544  0.4406
  541MOL0     C72922   9.862   1.199  11.324 -0.7267 -0.4016 -0.1044
  541MOL0     C72923   9.723   1.140  11.308 -0.8096  0.1945  0.7580
  541MOL0     O72924   9.722   1.001  11.354 -0.6802  0.1454  0.1241
  541MOL0     C72925   9.607   0.927  11.337  0.8170 -0.5313  0.0007
  541MOL0     C72926   9.506   0.966  11.248  0.3406 -0.5178 -0.2700
  541MOL0     C72927   9.387   0.898  11.240 -0.1186  0.1595 -0.2114
  541MOL0     C72928   9.304   0.943  11.125 -0.8073 -0.6212 -0.1399
  541MOL0     C72929   9.360   0.789  11.326 -0.1969 -0.5041  0.0621
  541MOL0     C72930   9.231   0.712  11.319 -0.3719 -0.2688  0.2751
  541MOL0     O72931   9.232   0.585  11.364 -1.1694 -0.5094  0.2959
  541MOL0     C72932   9.114   0.536  11.399 -0.1618  0.2730 -0.1274
  541MOL0     C72933   9.072   0.569  11.533  0.1392 -0.4840 -0.1625
  541MOL0     C72934   8.954   0.509  11.581  0.3370  0.2576  0.3853
  541MOL0     C72935   8.873   0.420  11.511  0.3339  0.1698 -0.7540
  541MOL0     O72936   8.745   0.389  11.554 -0.6762  0.3531  0.7850
  541MOL0     C72937   8.704   0.255  11.523  0.7026 -0.7896  0.7405
  541MOL0     C72938   8.562   0.257  11.468 -0.4893  0.2760 -0.3889
  541MOL0     C72939   8.505   0.120  11.474  0.6338  0.1858 -0.0945
  541MOL0     C72940   8.360   0.121  11.431 -1.0697 -0.2209 -0.0161
  541MOL0     C72941   8.266   0.009  11.478 -0.2553 -0.2743 -1.2299
  541MOL0     C72942   8.144  -0.003  11.388 -0.8981  1.5506 -0.3521
  541MOL0     C72943   8.066  -0.137  11.407 -0.5935  0.6654 -1.1167
  541MOL0     C72944   7.929  -0.116  11.347  0.5424 -0.5021  0.4650
  541MOL0    Cl72945   7.919  -0.056  11.174 -0.2650 -0.4273  0.0456
  541MOL0     C72946   8.917   0.393  11.380  0.0268  0.1699  0.0056
  541MOL0     C72947   9.036   0.447  11.323 -0.1923 -0.0543  0.2168
  541MOL0     O72948   9.126   0.767  11.287  0.3549  0.1615 -0.1907
  541MOL0     C72949   9.455   0.756  11.425  0.5385  0.0423  0.1146
  541MOL0     C72950   9.579   0.826  11.433  0.6274 -0.0264 -0.6250
  541MOL0     N72951  10.147   1.330  11.245  0.0416  0.4018 -0.3982
  541MOL0     N72952  10.185   1.455  11.220  0.4980  0.1558 -0.1518
  541MOL0     C72953  10.430   2.386  10.530 -0.3728  0.6968  0.3373
  541MOL0     C72954  10.431   2.469  10.423 -1.1183 -0.4241 -0.0078
  541MOL0     C72955  10.244   2.834  10.167 -0.3322 -0.8703  1.0238
  541MOL0     C72956  10.132   2.906  10.110  0.2116 -0.0145 -0.5455
  541MOL0     C72957  10.151   3.034  10.052 -0.3809 -0.3912  0.0935
  541MOL0     C72958  10.283   3.089  10.049  0.3457 -0.2419  0.1914
  541MOL0     O72959  10.285   3.215   9.998 -0.1047 -0.3132 -0.3829
  541MOL0     C72960  10.412   3.270   9.949 -0.2262 -0.8396 -0.5779
  541MOL0     C72961  10.379   3.402   9.878  0.1660  0.2089  0.2436
  541MOL0     C72962  10.304   3.370   9.745 -0.3955 -0.8715  0.6204
  541MOL0     C72963  10.275   3.490   9.657  0.1689  0.0053 -0.1496
  541MOL0     C72964  10.394   3.569   9.613  0.5165  0.3683  0.0092
  541MOL0     C72965  10.493   3.629   9.586 -1.2427 -1.3098 -0.5427
  541MOL0     C72966  10.391   3.007  10.078 -0.0495 -0.4509 -0.0914
  541MOL0     C72967  10.370   2.878  10.143 -0.9250  0.1778  0.8340
  541MOL0     H72968  10.166   2.660  10.503 -1.5969 -1.7209 -1.7994
  541MOL0     H72969  10.153   2.499  10.697  2.7912 -1.5726  2.3610
  541MOL0     H72970  10.236   2.430  10.860  0.9449  0.2853  0.9384
  541MOL0     H72971  10.135   2.311  10.814  0.0842  1.6599  0.1079
  541MOL0     H72972  10.395   2.249  10.952 -0.5357  2.7340 -3.4249
  541MOL0     H72973  10.273   2.310  11.056 -1.5122  0.0948 -0.2042
  541MOL0     H72974  10.110   2.117  10.983  0.6424  4.1799  0.8682
  541MOL0     H72975  10.259   2.043  10.917 -1.9461 -1.2662 -0.5642
  541MOL0     H72976  10.353   2.027  11.141  1.0563  2.5208 -3.8012
  541MOL0     H72977  10.241   2.135  11.213  2.7205  2.6741 -2.6487
  541MOL0     H72978  10.056   1.965  11.124  0.2250  0.3685  0.0930
  541MOL0     H72979  10.186   1.854  11.111 -2.0053 -0.8951  1.0203
  541MOL0     H72980  10.241   1.918  11.353 -1.3758 -2.7380  2.3857
  541MOL0     H72981  10.079   1.992  11.365  0.4685  0.7051 -1.3521
  541MOL0     H72982  10.019   1.777  11.419  1.6793 -3.6579  0.9486
  541MOL0     H72983  10.017   1.748  11.249 -0.5680 -2.5075  0.8084
  541MOL0     H72984  10.232   1.671  11.455  0.9346 -0.2929 -0.1042
  541MOL0     H72985  10.282   1.683  11.290 -1.1283 -2.4596  0.4537
  541MOL0     H72986  10.085   1.479  11.529 -1.2904 -2.4223  0.4074
  541MOL0     H72987  10.151   1.124  11.378  0.3276  1.1371 -0.5557
  541MOL0     H72988  10.115   1.196  11.546 -2.7737 -6.3216  1.3723
  541MOL0     H72989   9.900   1.173  11.544 -0.0850 -3.2208  1.1550
  541MOL0     H72990   9.942   1.035  11.447  1.4210 -0.4607 -0.6659
  541MOL0     H72991   9.916   1.177  11.231 -3.2197 -0.5843 -1.5928
  541MOL0     H72992   9.849   1.306  11.342 -1.3370 -1.0088  3.7796
  541MOL0     H72993   9.707   1.145  11.200  0.7077 -2.6741  0.3044
  541MOL0     H72994   9.647   1.205  11.352 -2.1083 -1.3774  0.9671
  541MOL0     H72995   9.513   1.060  11.194  1.0856 -1.5592 -2.0542
  541MOL0     H72996   9.366   0.964  11.038 -0.9222 -4.9147 -1.4680
  541MOL0     H72997   9.237   0.869  11.081 -0.3375 -0.2334 -1.5769
  541MOL0     H72998   9.238   1.023  11.158 -2.1086 -1.1691 -1.3201
  541MOL0     H72999   9.129   0.634  11.599  1.1395 -2.1133  0.6426
  541MOL0     H73000   8.904   0.544  11.671 -1.9151 -0.1009 -0.6573
  541MOL0     H73001   8.772   0.206  11.453  1.4204  1.0768  0.0907
  541MOL0     H73002   8.707   0.193  11.614 -0.3059 -2.0163 -0.0225
  541MOL0     H73003   8.508   0.333  11.524  0.7990  1.3200 -0.4977
  541MOL0     H73004   8.561   0.294  11.365 -1.2255  4.4939  0.9489
  541MOL0     H73005   8.519   0.092  11.579  0.9704  0.4983 -0.0552
  541MOL0     H73006   8.565   0.044  11.422  0.4751  1.4969 -2.2931
  541MOL0     H73007   8.322   0.215  11.471  0.8504 -1.1017  4.4972
  541MOL0     H73008   8.369   0.102  11.324 -0.0400  1.1941 -0.2032
  541MOL0     H73009   8.230   0.034  11.578 -1.1984 -1.4995 -1.2498
  541MOL0     H73010   8.322  -0.085  11.480  0.5414  0.1654 -1.7781
  541MOL0     H73011   8.081   0.086  11.396  1.0802  3.3191 -2.6937
  541MOL0     H73012   8.170   0.002  11.282  2.8470 -0.9757  0.2406
  541MOL0     H73013   8.072  -0.164  11.513  2.3372  2.5647 -0.6638
  541MOL0     H73014   8.112  -0.222  11.356 -0.9177  0.9432 -1.8972
  541MOL0     H73015   7.867  -0.055  11.413 -2.5087 -4.1340  1.2863
  541MOL0     H73016   7.880  -0.214  11.348 -0.3839 -0.0427  0.8975
  541MOL0     H73017   8.868   0.332  11.305  1.2107 -0.9188  0.0783
  541MOL0     H73018   9.047   0.438  11.215 -1.6850 -1.5239  0.1399
  541MOL0     H73019   9.423   0.685  11.501 -0.5677 -2.8744 -2.8489
  541MOL0     H73020   9.664   0.811  11.500  2.9679  2.8093 -2.6826
  541MOL0     H73021  10.504   2.308  10.545 -3.2086 -2.9037 -2.1649
  541MOL0     H73022  10.508   2.461  10.346 -0.4990 -0.6915  0.6281
  541MOL0     H73023  10.029   2.878  10.134 -0.6966  1.2953 -2.6256
  541MOL0     H73024  10.064   3.094  10.026 -0.6031 -0.6679  0.1920
  541MOL0     H73025  10.498   3.276  10.016  0.4135  0.3513 -1.4777
  541MOL0     H73026  10.454   3.211   9.867  1.1389  0.7455 -1.0546
  541MOL0     H73027  10.467   3.455   9.840  0.8196 -2.8419 -3.0112
  541MOL0     H73028  10.317   3.461   9.946 -0.3095 -1.4712  1.3321
  541MOL0     H73029  10.207   3.328   9.774 -1.6013  2.6038  2.0773
  541MOL0     H73030  10.368   3.298   9.693 -1.9009 -1.7090 -0.1166
  541MOL0     H73031  10.219   3.564   9.716  1.3689  0.1142  0.8852
  541MOL0     H73032  10.216   3.452   9.573 -2.5947  0.6805  1.3603
  541MOL0     H73033  10.586   3.677   9.564  0.0612  0.1007  6.1152
  541MOL0     H73034  10.493   3.026  10.045 -0.0487  2.9552  1.3966
  541MOL0     H73035  10.452   2.808  10.150 -0.9859  0.0894  0.6696
  542MOL0     O73036   7.419   6.664   5.767  0.2581  1.0730  0.5112
  542MOL0     C73037   7.538   6.660   5.813  0.2328 -0.2811 -0.3648
  542MOL0     O73038   7.619   6.768   5.838  0.1437  0.4449 -0.2696
  542MOL0     C73039   7.566   6.895   5.842  0.1040 -0.1090  0.2340
  542MOL0     C73040   7.514   6.949   5.726  0.4379  0.2746  0.1408
  542MOL0     C73041   7.464   7.078   5.730  0.4912 -0.7797 -0.6852
  542MOL0     C73042   7.450   7.143   5.855 -0.3179 -0.6347  0.9976
  542MOL0     O73043   7.373   7.252   5.865  0.0837 -0.4191  0.6470
  542MOL0     C73044   7.393   7.353   5.770  0.0616 -0.5432  0.0798
  542MOL0     C73045   7.268   7.451   5.797  0.0371 -0.4918 -0.4998
  542MOL0     C73046   7.241   7.535   5.671 -0.1847 -0.1775 -0.1587
  542MOL0     C73047   7.341   7.646   5.640 -1.0687 -0.6484  0.0331
  542MOL0     C73048   7.340   7.713   5.502 -0.2041 -0.9874 -0.7120
  542MOL0     C73049   7.295   7.625   5.393  0.2021  0.1242  0.1677
  542MOL0     C73050   7.293   7.703   5.254  0.5060  0.3644 -0.5669
  542MOL0     C73051   7.185   7.814   5.246  0.7835 -0.4568  0.3697
  542MOL0     N73052   7.050   7.796   5.303 -0.2171  0.0385  0.5127
  542MOL0     C73053   6.940   7.756   5.230  0.0506 -0.5419 -0.0542
  542MOL0     C73054   6.831   7.802   5.295  0.4674  0.1281 -0.1015
  542MOL0     C73055   6.685   7.769   5.270  0.5370 -0.5977  0.4180
  542MOL0     C73056   6.641   7.620   5.317 -0.3976 -0.0071  0.4497
  542MOL0     C73057   6.651   7.603   5.477 -0.6929  0.2681  0.3641
  542MOL0     C73058   6.772   7.514   5.513  0.7720  0.6135  1.1099
  542MOL0     O73059   6.753   7.381   5.479  0.2782  0.8962 -0.1660
  542MOL0     C73060   6.646   7.314   5.532  0.0953 -0.4853  0.3467
  542MOL0     C73061   6.651   7.302   5.675  0.0159 -0.0986  0.5649
  542MOL0     C73062   6.541   7.254   5.748  0.5041 -0.0061 -0.3912
  542MOL0     C73063   6.546   7.243   5.903 -0.2598  1.5116 -0.9864
  542MOL0     C73064   6.429   7.229   5.680  0.6027  0.0869 -0.5890
  542MOL0     C73065   6.300   7.202   5.753  1.3825  0.8555 -0.1942
  542MOL0     O73066   6.188   7.238   5.688 -0.6124  0.2353  0.5777
  542MOL0     C73067   6.070   7.240   5.756  0.6623  0.5126 -0.2482
  542MOL0     C73068   5.999   7.116   5.771 -0.3588  0.6759  0.7135
  542MOL0     C73069   5.867   7.116   5.821  0.4863  0.5054 -0.0090
  542MOL0     C73070   5.802   7.241   5.847  0.5841  0.2663 -0.0649
  542MOL0     O73071   5.669   7.241   5.874  0.3655  0.3931  0.1186
  542MOL0     C73072   5.576   7.216   5.774  0.2130 -0.7624  0.3222
  542MOL0     C73073   5.429   7.262   5.823 -0.1512 -0.5402  0.6582
  542MOL0     C73074   5.380   7.202   5.960  0.8726 -0.0733  0.6292
  542MOL0     C73075   5.408   7.054   5.972  0.1654  0.3640 -0.0268
  542MOL0     C73076   5.354   6.996   6.111  0.5283  0.7352 -0.9206
  542MOL0     C73077   5.203   7.022   6.149 -0.1794  0.0514  1.6275
  542MOL0     C73078   5.164   6.964   6.284  0.4393  0.3234  0.0285
  542MOL0     C73079   5.138   6.809   6.283  0.6624  0.0988 -0.1783
  542MOL0    Cl73080   5.006   6.768   6.388 -0.2481  0.2658  0.2959
  542MOL0     C73081   5.871   7.355   5.833  0.1883 -0.3148 -0.8963
  542MOL0     C73082   6.006   7.357   5.794  0.2167 -0.4355  0.7401
  542MOL0     O73083   6.302   7.149   5.863 -0.0172 -0.6924 -0.4659
  542MOL0     C73084   6.424   7.227   5.537 -0.0725 -0.0114 -0.6742
  542MOL0     C73085   6.532   7.274   5.469 -0.4178  0.1712  0.3596
  542MOL0     N73086   6.876   7.859   5.416  0.6605 -0.3633  0.4692
  542MOL0     N73087   7.006   7.853   5.417  0.0813  0.7991 -0.1710
  542MOL0     C73088   7.518   7.093   5.964 -0.2527  0.9849  0.2964
  542MOL0     C73089   7.582   6.967   5.956 -0.4188 -1.2519  0.0738
  542MOL0     C73090   7.598   6.518   5.836  0.0599 -0.0157 -0.2869
  542MOL0     C73091   7.724   6.503   5.881 -0.6980  0.4278 -0.5404
  542MOL0     C73092   7.788   6.372   5.868 -0.5350 -0.6706 -0.0474
  542MOL0     C73093   7.718   6.267   5.813 -0.5954  0.9536  0.3287
  542MOL0     O73094   7.766   6.140   5.790  0.3471 -0.1215  0.1708
  542MOL0     C73095   7.878   6.104   5.870 -0.1680 -0.5890  0.1767
  542MOL0     C73096   7.925   5.956   5.848 -0.0784  0.3315 -0.2003
  542MOL0     C73097   7.973   5.925   5.708  0.0017 -0.0671 -0.8678
  542MOL0     C73098   8.045   5.788   5.704  0.2246  0.7216 -0.4752
  542MOL0     C73099   7.949   5.675   5.721 -0.3568  0.3450 -0.6727
  542MOL0     C73100   7.868   5.581   5.732 -1.0092 -1.5419  0.9587
  542MOL0     C73101   7.579   6.278   5.786  0.0117 -0.1621  0.4395
  542MOL0     C73102   7.523   6.406   5.788 -0.4503  0.5948  0.4265
  542MOL0     H73103   7.517   6.897   5.631 -0.0271 -0.0161  0.2821
  542MOL0     H73104   7.409   7.111   5.642 -0.3284 -2.0772 -0.7015
  542MOL0     H73105   7.482   7.414   5.790 -0.8057  0.4691  1.0204
  542MOL0     H73106   7.387   7.321   5.665 -1.0446 -0.3272  0.0663
  542MOL0     H73107   7.177   7.395   5.821 -1.1310  1.9324  1.1235
  542MOL0     H73108   7.292   7.517   5.880  0.0028  2.0525 -2.3691
  542MOL0     H73109   7.231   7.466   5.587  2.4996  1.5606 -2.0874
  542MOL0     H73110   7.146   7.586   5.686 -0.5470 -0.7298 -0.5397
  542MOL0     H73111   7.347   7.726   5.714 -0.5320  0.6487 -1.3389
  542MOL0     H73112   7.438   7.596   5.638 -0.4837  0.4245  0.5968
  542MOL0     H73113   7.267   7.794   5.504 -0.0450 -0.8134 -1.4598
  542MOL0     H73114   7.442   7.748   5.481  0.4432 -0.1274  3.0488
  542MOL0     H73115   7.352   7.531   5.386 -1.4249 -1.2588  3.1310
  542MOL0     H73116   7.191   7.591   5.407  0.0167  1.2102  1.6929
  542MOL0     H73117   7.386   7.760   5.258  2.0968 -2.1462  1.8730
  542MOL0     H73118   7.293   7.639   5.166 -1.7795  1.4134 -1.4138
  542MOL0     H73119   7.163   7.835   5.141  2.6771 -0.6194 -0.0923
  542MOL0     H73120   7.240   7.896   5.294 -1.0275 -1.5154  4.7836
  542MOL0     H73121   6.936   7.711   5.131  1.2739  3.1287 -1.9397
  542MOL0     H73122   6.626   7.848   5.318 -0.4131 -0.1200 -1.4539
  542MOL0     H73123   6.670   7.777   5.162  5.7637  4.3843 -0.4074
  542MOL0     H73124   6.706   7.548   5.265  0.8776  1.4221 -0.0213
  542MOL0     H73125   6.538   7.610   5.280 -2.0933  0.2902  4.5951
  542MOL0     H73126   6.553   7.558   5.495 -0.3088 -1.7056 -1.9534
  542MOL0     H73127   6.670   7.695   5.534  0.6871 -0.6447  1.4614
  542MOL0     H73128   6.796   7.531   5.618  0.8125 -0.0310  1.2033
  542MOL0     H73129   6.851   7.551   5.447  0.7062  0.4280  0.9238
  542MOL0     H73130   6.742   7.314   5.733  0.2747 -4.0784  1.2604
  542MOL0     H73131   6.542   7.140   5.937 -3.3396  2.2705  1.4276
  542MOL0     H73132   6.632   7.298   5.943  0.6572 -1.1526  0.9409
  542MOL0     H73133   6.470   7.293   5.964 -1.2817 -2.6751  1.4902
  542MOL0     H73134   6.045   7.024   5.737 -3.6814 -1.4699  1.6373
  542MOL0     H73135   5.810   7.025   5.840  2.6197 -1.4736 -2.4172
  542MOL0     H73136   5.587   7.265   5.677  0.7212 -2.9185 -0.7725
  542MOL0     H73137   5.576   7.108   5.754 -0.0912 -1.3457  3.0784
  542MOL0     H73138   5.424   7.370   5.834 -0.1953 -0.4227 -0.4105
  542MOL0     H73139   5.367   7.217   5.745  2.0895 -2.2744 -0.2744
  542MOL0     H73140   5.274   7.222   5.979  0.7829 -0.5268  0.6116
  542MOL0     H73141   5.422   7.252   6.048 -0.1611 -3.6534  3.4115
  542MOL0     H73142   5.372   7.003   5.882  0.8176  0.9150 -0.6154
  542MOL0     H73143   5.517   7.047   5.974  0.1363 -0.2727 -0.2125
  542MOL0     H73144   5.422   7.033   6.188  2.3987  0.3547 -2.3311
  542MOL0     H73145   5.360   6.887   6.107 -2.7594  0.4830 -3.6800
  542MOL0     H73146   5.181   7.128   6.164  3.2625  0.9017  1.5926
  542MOL0     H73147   5.146   6.980   6.065 -0.1604  1.5685  0.8182
  542MOL0     H73148   5.068   7.007   6.314  0.0238  1.2250 -2.3812
  542MOL0     H73149   5.224   7.011   6.363 -1.4827  2.1217  0.5360
  542MOL0     H73150   5.229   6.754   6.305 -1.2643 -3.1438  0.3077
  542MOL0     H73151   5.110   6.786   6.179  0.8521 -1.0958  0.0165
  542MOL0     H73152   5.824   7.451   5.853  1.4086  0.0313  0.5065
  542MOL0     H73153   6.053   7.449   5.760 -0.6524 -0.2850 -0.0916
  542MOL0     H73154   6.331   7.215   5.482  1.0806  0.4470 -2.8529
  542MOL0     H73155   6.542   7.291   5.363  1.1520  3.5010  0.9112
  542MOL0     H73156   7.525   7.154   6.054  3.2338  1.6794 -0.3207
  542MOL0     H73157   7.626   6.920   6.044  2.0593  0.9458  0.1027
  542MOL0     H73158   7.783   6.589   5.912 -0.0773  0.4364 -1.7048
  542MOL0     H73159   7.890   6.362   5.903  0.0642 -0.4000 -1.6398
  542MOL0     H73160   7.958   6.171   5.836  0.6331 -1.1004  0.9894
  542MOL0     H73161   7.863   6.111   5.978 -1.4006  0.4871 -0.0495
  542MOL0     H73162   7.843   5.889   5.875  0.6950 -0.5905 -0.0640
  542MOL0     H73163   8.004   5.941   5.922 -2.9930  1.1132  3.3932
  542MOL0     H73164   8.047   6.002   5.681  1.0270 -0.9942 -0.7762
  542MOL0     H73165   7.885   5.936   5.644 -1.8783 -0.8169  1.4766
  542MOL0     H73166   8.111   5.781   5.791 -2.5601 -0.1254  1.7054
  542MOL0     H73167   8.104   5.760   5.616  0.5239  0.5891 -0.2352
  542MOL0     H73168   7.804   5.495   5.728 -0.1503 -2.1604 -1.2966
  542MOL0     H73169   7.526   6.196   5.739  4.0210 -1.0245 -3.3232
  542MOL0     H73170   7.425   6.422   5.744 -0.6339  0.1009  0.6470
  543MOL0     O73171   8.915   5.328   9.641 -0.3829  0.0503  0.2050
  543MOL0     C73172   9.007   5.281   9.710 -0.1356 -0.6834  0.3087
  543MOL0     O73173   9.140   5.278   9.662  0.1831 -0.2552 -0.3841
  543MOL0     C73174   9.165   5.320   9.532  0.2330  0.2170 -0.6620
  543MOL0     C73175   9.225   5.448   9.532 -0.1565  0.3144  1.0451
  543MOL0     C73176   9.246   5.510   9.405 -0.1320 -0.7080 -0.6661
  543MOL0     C73177   9.227   5.436   9.290 -0.5825  0.3838 -0.0334
  543MOL0     O73178   9.272   5.485   9.166  0.3428  0.6372 -0.1755
  543MOL0     C73179   9.214   5.618   9.135 -0.0673  0.2252  0.1074
  543MOL0     C73180   9.261   5.694   9.006  0.2293  0.6989  0.6916
  543MOL0     C73181   9.292   5.581   8.902 -0.0402 -0.2359 -0.3219
  543MOL0     C73182   9.337   5.649   8.766 -0.5647 -0.1310  0.0180
  543MOL0     C73183   9.336   5.565   8.640  0.0973 -0.4465  1.2869
  543MOL0     C73184   9.413   5.630   8.520 -0.1346 -0.1347 -0.0323
  543MOL0     C73185   9.559   5.587   8.530  0.3162  0.1321  0.1665
  543MOL0     C73186   9.642   5.619   8.411  1.0178 -0.1644 -0.7408
  543MOL0     N73187   9.782   5.596   8.428  0.5635 -0.6080  0.4687
  543MOL0     C73188   9.843   5.481   8.427 -0.0344 -0.4947 -0.5535
  543MOL0     C73189   9.975   5.517   8.399  0.0435  0.5059  0.5704
  543MOL0     C73190  10.091   5.426   8.382 -0.9313 -0.7763  0.7015
  543MOL0     C73191  10.199   5.466   8.285 -0.3993  0.4201  0.1812
  543MOL0     C73192  10.166   5.447   8.137  0.0002  0.6809  0.7041
  543MOL0     C73193  10.168   5.308   8.077  0.2023  0.7030  0.5536
  543MOL0     O73194  10.073   5.226   8.145 -0.0919 -0.1073  0.7419
  543MOL0     C73195  10.027   5.127   8.067  0.6867 -0.3029 -0.0608
  543MOL0     C73196   9.911   5.069   8.117  0.3276 -0.5471  0.7498
  543MOL0     C73197   9.844   4.966   8.055 -0.2204 -0.2383  0.4834
  543MOL0     C73198   9.723   4.912   8.124  0.3298  0.5454  0.4363
  543MOL0     C73199   9.892   4.921   7.931  0.7802  0.5085  1.0689
  543MOL0     C73200   9.821   4.818   7.851 -0.0355 -0.0230  0.4534
  543MOL0     O73201   9.688   4.840   7.842  0.4557  0.2859  0.8102
  543MOL0     C73202   9.627   4.772   7.736  0.3631 -0.6476 -1.3064
  543MOL0     C73203   9.662   4.782   7.603 -0.1770 -0.0207 -0.1485
  543MOL0     C73204   9.584   4.718   7.508 -0.3676  0.0720 -0.2143
  543MOL0     C73205   9.468   4.649   7.545 -0.0332  0.3629  0.5889
  543MOL0     O73206   9.395   4.596   7.443  0.0821 -0.5781  0.3873
  543MOL0     C73207   9.289   4.685   7.407  0.5443 -0.0235  0.2351
  543MOL0     C73208   9.193   4.611   7.311  0.0453 -0.0473  0.7110
  543MOL0     C73209   9.153   4.477   7.371  0.0576  1.2746  0.9017
  543MOL0     C73210   9.068   4.484   7.499  0.3633 -0.0828 -0.4708
  543MOL0     C73211   9.044   4.352   7.573 -0.1966  0.5438  0.0083
  543MOL0     C73212   8.940   4.257   7.513 -0.4893 -0.6351 -0.4709
  543MOL0     C73213   8.959   4.110   7.562 -0.3848  0.3952 -1.4432
  543MOL0     C73214   8.964   4.101   7.721 -0.1373 -0.0707 -0.2473
  543MOL0    Cl73215   8.819   4.189   7.780 -0.2322  0.2969  0.2438
  543MOL0     C73216   9.437   4.634   7.679  0.4856  0.8961  0.2769
  543MOL0     C73217   9.520   4.689   7.778  0.3181  0.4328  0.6851
  543MOL0     O73218   9.878   4.727   7.791  0.3396 -0.7123  0.0075
  543MOL0     C73219  10.009   4.977   7.875  0.2756  1.0126  0.0897
  543MOL0     C73220  10.076   5.083   7.944  0.5111  0.1112 -0.1790
  543MOL0     N73221   9.977   5.652   8.367 -0.5756  0.2579  0.0643
  543MOL0     N73222   9.870   5.699   8.397 -0.2038  0.0521 -0.6973
  543MOL0     C73223   9.166   5.306   9.293  0.2634 -0.7715  0.2542
  543MOL0     C73224   9.131   5.250   9.421 -0.3742  0.4243 -0.5492
  543MOL0     C73225   8.967   5.210   9.836  0.1653 -0.2110 -0.0364
  543MOL0     C73226   8.841   5.229   9.897  0.0548 -0.5601  0.1325
  543MOL0     C73227   8.806   5.174  10.016  0.0756  0.4541  0.7510
  543MOL0     C73228   8.889   5.080  10.077 -0.3443  0.5117 -0.8762
  543MOL0     O73229   8.841   5.011  10.185  0.4702 -0.0068  1.1564
  543MOL0     C73230   8.833   5.082  10.308  0.1307 -1.5429  0.1730
  543MOL0     C73231   8.938   5.036  10.410 -0.1827 -0.1570  0.6564
  543MOL0     C73232   9.075   5.091  10.364 -0.5783 -1.4276  0.0386
  543MOL0     C73233   9.199   5.072  10.460  0.0375 -0.8032  0.1585
  543MOL0     C73234   9.173   5.139  10.592 -0.2237  0.1569  0.2881
  543MOL0     C73235   9.148   5.198  10.696  0.1897 -0.3949 -0.6370
  543MOL0     C73236   9.001   5.038  10.008  0.0940 -1.3749 -0.1259
  543MOL0     C73237   9.039   5.104   9.891 -1.2823  0.0500  0.6917
  543MOL0     H73238   9.248   5.503   9.622 -1.5504  1.5785  0.6635
  543MOL0     H73239   9.298   5.605   9.407  1.3719 -1.5167 -0.0613
  543MOL0     H73240   9.106   5.619   9.114  0.2316  1.0256 -1.4929
  543MOL0     H73241   9.241   5.694   9.209  1.5088 -0.4449  0.2438
  543MOL0     H73242   9.176   5.748   8.964  1.6584  1.9758 -0.6553
  543MOL0     H73243   9.342   5.765   9.023 -1.7276  3.1372  0.3391
  543MOL0     H73244   9.372   5.520   8.944  1.0740  0.9130 -0.6890
  543MOL0     H73245   9.208   5.513   8.887  0.3522 -0.8007  0.0121
  543MOL0     H73246   9.287   5.745   8.748  1.0199  0.6395 -0.3880
  543MOL0     H73247   9.440   5.664   8.799 -0.4678 -1.8795  0.6110
  543MOL0     H73248   9.388   5.474   8.669 -1.0025 -0.4843  3.3201
  543MOL0     H73249   9.232   5.539   8.618 -0.2743 -1.9777  4.3606
  543MOL0     H73250   9.382   5.581   8.427  1.4642 -0.5993 -0.3522
  543MOL0     H73251   9.404   5.739   8.515  0.6701 -0.0906 -0.6546
  543MOL0     H73252   9.596   5.639   8.620 -3.1349 -0.2793  2.0033
  543MOL0     H73253   9.581   5.484   8.559  1.3519  0.6979  1.5106
  543MOL0     H73254   9.620   5.726   8.412 -0.7150 -0.2988  3.9067
  543MOL0     H73255   9.608   5.579   8.315 -0.9079 -1.0754  0.2539
  543MOL0     H73256   9.799   5.382   8.432  1.3445 -1.2226 -1.9408
  543MOL0     H73257  10.140   5.423   8.480  1.3205  1.1020 -0.2615
  543MOL0     H73258  10.047   5.327   8.367 -5.2829  0.9643  0.4818
  543MOL0     H73259  10.292   5.410   8.300  0.7455  1.5871 -2.0668
  543MOL0     H73260  10.218   5.573   8.293  0.2375  0.7416 -3.7075
  543MOL0     H73261  10.237   5.509   8.081  0.0437  2.1518  2.3014
  543MOL0     H73262  10.067   5.484   8.106 -1.2384 -1.8045  1.4486
  543MOL0     H73263  10.264   5.258   8.093  1.4726  2.2876 -1.6652
  543MOL0     H73264  10.162   5.319   7.968  2.1894 -1.3215  0.1586
  543MOL0     H73265   9.885   5.103   8.216 -1.7177  0.9568 -0.2326
  543MOL0     H73266   9.721   4.923   8.233  0.4271  0.1602  0.4799
  543MOL0     H73267   9.633   4.967   8.097 -0.1227  0.7639  2.3048
  543MOL0     H73268   9.713   4.807   8.094 -2.7073  0.9150 -0.1559
  543MOL0     H73269   9.743   4.846   7.571 -0.6822  2.1041  2.4212
  543MOL0     H73270   9.614   4.732   7.405 -2.7657  1.4991 -0.7792
  543MOL0     H73271   9.233   4.720   7.494 -1.7463 -3.2979  0.2470
  543MOL0     H73272   9.338   4.770   7.359  2.3825 -1.4441 -0.5146
  543MOL0     H73273   9.108   4.677   7.293 -1.0974 -1.8947 -1.1207
  543MOL0     H73274   9.241   4.594   7.214  1.0130  0.0133  1.1716
  543MOL0     H73275   9.236   4.407   7.378 -0.5020  0.5431  0.3816
  543MOL0     H73276   9.078   4.440   7.300 -2.1160  4.9121  1.0025
  543MOL0     H73277   9.137   4.547   7.557  2.5696 -1.1138 -1.8219
  543MOL0     H73278   8.972   4.535   7.490 -0.5207 -0.8281  3.0512
  543MOL0     H73279   9.033   4.370   7.680  3.0418  0.0254  0.5122
  543MOL0     H73280   9.135   4.291   7.573  1.2395  2.5431  1.4641
  543MOL0     H73281   8.851   4.300   7.560  0.2035  3.2810 -2.3523
  543MOL0     H73282   8.925   4.260   7.404 -2.8751 -3.0627 -0.3192
  543MOL0     H73283   9.051   4.072   7.516 -0.5465  2.2539 -3.4212
  543MOL0     H73284   8.874   4.046   7.537  1.6883 -4.4681  2.2347
  543MOL0     H73285   9.056   4.151   7.753  1.3256 -1.2113 -2.4014
  543MOL0     H73286   8.978   3.997   7.752  0.4962  0.1022  0.0830
  543MOL0     H73287   9.346   4.583   7.708  1.9012 -0.6618  2.2372
  543MOL0     H73288   9.514   4.675   7.885 -0.1316 -0.7385  0.5219
  543MOL0     H73289  10.047   4.938   7.781 -2.4255 -3.2792  0.4979
  543MOL0     H73290  10.173   5.112   7.907  0.8534 -2.3112 -1.4025
  543MOL0     H73291   9.137   5.263   9.198 -0.7203  3.1469 -1.4158
  543MOL0     H73292   9.088   5.153   9.440 -2.5476  1.7291  1.8387
  543MOL0     H73293   8.765   5.288   9.847 -0.9289 -2.4222 -0.6529
  543MOL0     H73294   8.715   5.195  10.071  0.8771  2.2251  1.4677
  543MOL0     H73295   8.844   5.190  10.292  1.5643 -1.9069 -1.7348
  543MOL0     H73296   8.735   5.075  10.354 -1.0940  0.8767 -1.8048
  543MOL0     H73297   8.954   4.930  10.429 -0.3633 -0.7585 -2.1085
  543MOL0     H73298   8.906   5.079  10.505  0.4132  0.5032  0.5706
  543MOL0     H73299   9.073   5.199  10.345 -0.5366 -1.0531  1.9392
  543MOL0     H73300   9.097   5.034  10.273 -2.2537 -2.0641 -0.0081
  543MOL0     H73301   9.290   5.123  10.426 -0.5814  1.4798  1.7036
  543MOL0     H73302   9.227   4.967  10.477  3.6568 -0.1835 -0.9963
  543MOL0     H73303   9.106   5.233  10.789  1.8182  0.0380 -0.0377
  543MOL0     H73304   9.060   4.954  10.044 -1.3464 -3.0027 -1.3302
  543MOL0     H73305   9.128   5.075   9.837 -2.8101 -0.4341 -1.7420
  544MOL0     O73306   8.789   5.342   0.452  0.4964 -0.1837 -0.0796
  544MOL0     C73307   8.800   5.316   0.568  0.2900  0.2715 -0.1656
  544MOL0     O73308   8.816   5.189   0.616  0.0125 -0.1378  0.4474
  544MOL0     C73309   8.871   5.096   0.533  1.0353 -0.7742  0.4096
  544MOL0     C73310   9.007   5.095   0.519  0.9997  0.4220  0.4324
  544MOL0     C73311   9.062   5.021   0.411  0.1046 -0.1477  0.3863
  544MOL0     C73312   8.987   4.956   0.319 -0.1062 -0.5554  0.2864
  544MOL0     O73313   9.045   4.883   0.223  0.0448  0.2600 -0.0406
  544MOL0     C73314   8.992   4.888   0.088  0.1186  0.2078  0.2590
  544MOL0     C73315   9.115   4.863   0.002  0.2694  0.1377 -0.3502
  544MOL0     C73316   9.099   4.885  -0.149 -0.4218 -0.6019  0.3190
  544MOL0     C73317   8.959   4.846  -0.207  0.3203  0.6879 -0.1326
  544MOL0     C73318   8.950   4.850  -0.363  0.9406 -0.5440 -0.9231
  544MOL0     C73319   8.952   4.992  -0.415 -0.2575  0.2411 -0.9134
  544MOL0     C73320   8.845   5.074  -0.353  0.7432  0.0951 -0.5115
  544MOL0     C73321   8.761   5.164  -0.450 -0.4747 -0.6176 -0.7527
  544MOL0     N73322   8.844   5.279  -0.481  0.0123  0.4222  0.5164
  544MOL0     C73323   8.841   5.400  -0.413 -0.4279  0.3234 -0.2300
  544MOL0     C73324   8.903   5.487  -0.494  0.0646  0.7557  0.5016
  544MOL0     C73325   8.907   5.636  -0.463 -0.1796 -0.6325 -0.4097
  544MOL0     C73326   8.911   5.710  -0.599 -0.5189 -0.6005 -0.0116
  544MOL0     C73327   8.773   5.685  -0.664  0.8501  0.1055 -0.3412
  544MOL0     C73328   8.754   5.772  -0.789  0.5462  0.7867 -1.5421
  544MOL0     O73329   8.692   5.681  -0.876  0.1713 -0.6763  0.0454
  544MOL0     C73330   8.644   5.741  -0.994  0.0042 -0.2480 -0.7506
  544MOL0     C73331   8.551   5.656  -1.049  0.1621 -0.3988  0.6778
  544MOL0     C73332   8.478   5.692  -1.163  0.0634 -0.8334  0.6554
  544MOL0     C73333   8.376   5.600  -1.220  0.0769  0.7497  0.7254
  544MOL0     C73334   8.516   5.812  -1.229 -0.2715  0.0039 -0.8143
  544MOL0     C73335   8.477   5.851  -1.360  0.3895 -0.1330  0.2041
  544MOL0     O73336   8.445   5.979  -1.372 -0.0843 -0.3803  0.2433
  544MOL0     C73337   8.414   6.024  -1.498  0.4305 -0.3461  0.0221
  544MOL0     C73338   8.292   5.999  -1.560  0.2643 -0.2366  0.6672
  544MOL0     C73339   8.247   6.068  -1.672 -1.1595 -0.3128 -0.7067
  544MOL0     C73340   8.336   6.163  -1.737  0.0075  1.3262 -0.5997
  544MOL0     O73341   8.313   6.239  -1.839 -0.0959  0.2356  0.4199
  544MOL0     C73342   8.175   6.277  -1.856  0.5539 -0.7519  0.1374
  544MOL0     C73343   8.160   6.394  -1.961 -0.1338 -0.5951  0.0367
  544MOL0     C73344   8.174   6.533  -1.899 -0.2018 -0.4395 -0.8754
  544MOL0     C73345   8.205   6.629  -2.011  1.1514 -0.2698  0.2898
  544MOL0     C73346   8.250   6.764  -1.961  0.5090 -0.2832 -0.7888
  544MOL0     C73347   8.286   6.857  -2.074  0.1885 -0.0478 -0.0139
  544MOL0     C73348   8.172   6.928  -2.145 -0.5109  0.0065  0.2977
  544MOL0     C73349   8.229   6.994  -2.274  0.0892  0.4547 -0.3126
  544MOL0    Cl73350   8.099   7.067  -2.357 -0.0628  0.0354  0.1497
  544MOL0     C73351   8.464   6.175  -1.693  0.2406 -1.0621 -0.1993
  544MOL0     C73352   8.506   6.112  -1.570 -0.0256 -0.2306  0.8152
  544MOL0     O73353   8.469   5.767  -1.450 -0.1839  0.1014 -0.4219
  544MOL0     C73354   8.618   5.895  -1.177 -0.0204  0.6267 -0.7309
  544MOL0     C73355   8.675   5.860  -1.055  0.1873  0.6751 -0.9406
  544MOL0     N73356   8.945   5.416  -0.618 -0.4217 -0.2434 -0.1205
  544MOL0     N73357   8.906   5.299  -0.601  0.0053  1.0565 -0.4141
  544MOL0     C73358   8.847   4.945   0.346 -0.2709 -0.9744 -0.3094
  544MOL0     C73359   8.793   5.013   0.450  0.1075  0.5117 -0.1973
  544MOL0     C73360   8.780   5.430   0.656  0.7359 -0.0897  0.8601
  544MOL0     C73361   8.837   5.431   0.777  0.2140 -1.1494  0.2643
  544MOL0     C73362   8.856   5.546   0.854  0.5900  1.0963 -0.0015
  544MOL0     C73363   8.807   5.672   0.809 -0.2319 -0.1578 -0.4372
  544MOL0     O73364   8.822   5.790   0.869  0.4710  0.3926 -0.3431
  544MOL0     C73365   8.728   5.837   0.965 -0.4850 -0.0359 -1.3727
  544MOL0     C73366   8.776   5.840   1.103  0.4044 -0.6384  0.0183
  544MOL0     C73367   8.698   5.938   1.185 -0.3450 -0.0632 -0.3525
  544MOL0     C73368   8.691   5.910   1.333  0.3929 -0.3584  0.4483
  544MOL0     C73369   8.615   5.788   1.368 -0.5010 -0.0945 -0.4526
  544MOL0     C73370   8.549   5.690   1.408 -0.4565 -0.3007  0.0582
  544MOL0     C73371   8.745   5.675   0.681 -0.3203 -0.2742 -0.2725
  544MOL0     C73372   8.721   5.553   0.622  0.4836  0.2905  1.2867
  544MOL0     H73373   9.070   5.155   0.584  0.1730  1.4666  0.2952
  544MOL0     H73374   9.170   5.021   0.405  0.0785  1.0256 -0.2657
  544MOL0     H73375   8.917   4.809   0.073  1.9495 -1.1674 -2.6255
  544MOL0     H73376   8.939   4.983   0.074 -0.9995 -0.4686 -0.2724
  544MOL0     H73377   9.192   4.937   0.027  1.7512 -1.6446  0.6063
  544MOL0     H73378   9.160   4.768   0.031 -1.6183 -1.0642 -1.2258
  544MOL0     H73379   9.111   4.992  -0.165 -1.3309 -0.5277  0.0401
  544MOL0     H73380   9.176   4.837  -0.209 -0.9478  0.7638 -1.5281
  544MOL0     H73381   8.932   4.747  -0.167 -3.8682  1.0241 -1.6738
  544MOL0     H73382   8.890   4.917  -0.160  0.0879 -0.2335  0.9760
  544MOL0     H73383   9.038   4.794  -0.394  1.4946 -0.7601  0.9676
  544MOL0     H73384   8.863   4.797  -0.403  0.2341 -3.0319  3.3640
  544MOL0     H73385   9.054   5.023  -0.393  0.6590 -4.0602  2.3019
  544MOL0     H73386   8.943   5.006  -0.523  3.8393  2.7445 -1.1302
  544MOL0     H73387   8.765   5.023  -0.299  1.0928  1.0588  1.0052
  544MOL0     H73388   8.885   5.144  -0.278 -0.2856  4.3802 -3.5910
  544MOL0     H73389   8.664   5.189  -0.407 -0.2370  0.0458 -0.5898
  544MOL0     H73390   8.740   5.095  -0.532 -0.7166  0.2580 -1.4474
  544MOL0     H73391   8.789   5.423  -0.320 -1.7185 -0.1876 -0.7915
  544MOL0     H73392   8.833   5.684  -0.398  1.0591  0.0849  0.5367
  544MOL0     H73393   8.997   5.647  -0.401 -1.3399 -2.8974  1.8647
  544MOL0     H73394   8.987   5.668  -0.666  0.4567 -0.3854  0.9277
  544MOL0     H73395   8.922   5.816  -0.576  1.5175 -0.5299 -1.0917
  544MOL0     H73396   8.691   5.712  -0.597  2.1046  3.2689  0.0766
  544MOL0     H73397   8.768   5.578  -0.687  0.9573 -0.2128  0.9964
  544MOL0     H73398   8.849   5.820  -0.812  0.3749  2.3875  0.7197
  544MOL0     H73399   8.680   5.850  -0.767  0.1760 -0.1286  0.7528
  544MOL0     H73400   8.522   5.557  -1.015 -0.1199 -0.5556 -0.0038
  544MOL0     H73401   8.378   5.503  -1.169 -0.9717 -2.0564 -3.9096
  544MOL0     H73402   8.275   5.641  -1.222 -0.3222 -0.1945 -0.6326
  544MOL0     H73403   8.405   5.572  -1.322 -0.4794  3.4098 -0.2255
  544MOL0     H73404   8.224   5.923  -1.522 -0.7439 -0.6292 -1.7354
  544MOL0     H73405   8.162   6.027  -1.726 -2.5753 -2.9075  3.0203
  544MOL0     H73406   8.128   6.190  -1.903 -0.4754 -1.2601  1.9919
  544MOL0     H73407   8.126   6.300  -1.761  3.8536  2.9051  1.2215
  544MOL0     H73408   8.220   6.372  -2.050 -0.1815 -0.3479 -0.0568
  544MOL0     H73409   8.061   6.389  -2.007 -0.7947 -2.9189  1.5007
  544MOL0     H73410   8.253   6.530  -1.823 -2.1685 -0.1543  1.3005
  544MOL0     H73411   8.088   6.565  -1.839  1.3049 -1.0707  1.8261
  544MOL0     H73412   8.267   6.590  -2.092  1.4317  2.5896 -0.9828
  544MOL0     H73413   8.105   6.639  -2.055  0.4511 -1.0336  1.6129
  544MOL0     H73414   8.343   6.744  -1.906  0.5224  0.2083 -0.6244
  544MOL0     H73415   8.179   6.813  -1.894  0.7504 -2.6207  1.3257
  544MOL0     H73416   8.345   6.939  -2.033 -3.0231  3.2055 -1.4399
  544MOL0     H73417   8.350   6.800  -2.142 -0.1007  0.2708 -0.5623
  544MOL0     H73418   8.130   6.999  -2.073  0.4444  0.7015  0.1912
  544MOL0     H73419   8.089   6.862  -2.171  0.2667 -0.9290  0.1547
  544MOL0     H73420   8.281   6.925  -2.341 -1.3832 -2.5237  1.4310
  544MOL0     H73421   8.301   7.073  -2.248 -1.0944  1.8152 -1.0726
  544MOL0     H73422   8.529   6.247  -1.741  0.0694 -0.1003  0.9584
  544MOL0     H73423   8.602   6.138  -1.527  1.2354  0.8242 -2.3761
  544MOL0     H73424   8.653   5.975  -1.243  0.8445 -0.4855 -1.6604
  544MOL0     H73425   8.747   5.919  -0.998 -0.4562 -0.4023  1.1105
  544MOL0     H73426   8.773   4.898   0.282  0.1927  1.5256 -2.9131
  544MOL0     H73427   8.686   5.016   0.471  0.3254 -0.8092  1.2395
  544MOL0     H73428   8.873   5.335   0.811 -1.4728 -1.1778  2.1821
  544MOL0     H73429   8.913   5.532   0.945  1.6572  0.7950 -0.7052
  544MOL0     H73430   8.690   5.935   0.937 -2.6264 -0.5295 -0.4522
  544MOL0     H73431   8.646   5.766   0.949 -0.3888  0.3092 -3.8867
  544MOL0     H73432   8.880   5.872   1.105 -0.7590  3.9174 -0.3983
  544MOL0     H73433   8.771   5.738   1.141  2.9622 -0.9491 -0.3512
  544MOL0     H73434   8.597   5.949   1.142 -0.3369  1.9501  0.0497
  544MOL0     H73435   8.737   6.040   1.177  2.3362 -1.0506 -0.8081
  544MOL0     H73436   8.652   5.998   1.385 -2.5465 -0.8493 -0.7423
  544MOL0     H73437   8.791   5.900   1.377  0.0962  0.6727  1.4039
  544MOL0     H73438   8.491   5.617   1.461 -0.0812  2.5657  5.1123
  544MOL0     H73439   8.723   5.773   0.639 -1.5054 -0.7144 -0.7102
  544MOL0     H73440   8.653   5.552   0.538  1.5813  0.7089  0.3764
  545MOL0     O73441  11.386   9.683   7.550 -0.3121  0.4561 -0.4763
  545MOL0     C73442  11.454   9.783   7.537 -0.7226 -0.2678  0.1619
  545MOL0     O73443  11.548   9.809   7.443 -0.0174  0.6817 -0.3687
  545MOL0     C73444  11.594   9.703   7.359  0.3770  0.7806  0.1639
  545MOL0     C73445  11.515   9.607   7.290 -0.0236 -0.5555  0.7868
  545MOL0     C73446  11.573   9.520   7.192  0.6744 -0.6239  0.4601
  545MOL0     C73447  11.715   9.516   7.182  0.1917  0.1094  0.1587
  545MOL0     O73448  11.791   9.435   7.098 -0.2374 -0.8854  0.3074
  545MOL0     C73449  11.749   9.301   7.094  0.2318 -0.1448 -0.3790
  545MOL0     C73450  11.798   9.240   6.958  0.0220  0.4292  0.5864
  545MOL0     C73451  11.723   9.312   6.839  0.9880  0.4947  0.1968
  545MOL0     C73452  11.724   9.237   6.710  0.0138  0.0207 -0.1861
  545MOL0     C73453  11.861   9.214   6.647 -0.0470 -0.9822  0.4189
  545MOL0     C73454  11.838   9.146   6.509 -0.8251  0.9154 -0.0324
  545MOL0     C73455  11.956   9.128   6.413  0.1022 -0.0811  0.4500
  545MOL0     C73456  12.077   9.078   6.499  0.2586  0.1622  1.2002
  545MOL0     N73457  12.173   9.008   6.416 -0.1341  0.6100 -0.0862
  545MOL0     C73458  12.154   8.874   6.382  0.1172 -0.7500  0.4635
  545MOL0     C73459  12.273   8.845   6.316  0.5212 -1.0276 -0.3675
  545MOL0     C73460  12.290   8.720   6.233  0.7185  0.0502 -0.3245
  545MOL0     C73461  12.168   8.627   6.215  0.5317  0.0108 -0.3101
  545MOL0     C73462  12.195   8.498   6.135  0.7684 -0.2265  0.7320
  545MOL0     C73463  12.269   8.489   6.000  0.2841 -0.4759  1.5446
  545MOL0     O73464  12.218   8.564   5.894  0.1348 -0.2720  0.3897
  545MOL0     C73465  12.119   8.514   5.809 -0.6266  0.3742 -0.5808
  545MOL0     C73466  12.080   8.590   5.700  0.7377  1.2796  0.5562
  545MOL0     C73467  11.968   8.560   5.610 -0.8024 -0.1041  2.0094
  545MOL0     C73468  11.960   8.655   5.498 -0.7474 -0.5753 -0.3754
  545MOL0     C73469  11.898   8.440   5.636 -1.0892  0.9337  0.4524
  545MOL0     C73470  11.777   8.399   5.563  0.6856  0.1785  0.4133
  545MOL0     O73471  11.738   8.275   5.588  0.0137  1.4280 -0.6673
  545MOL0     C73472  11.641   8.237   5.505  0.1274 -0.3324 -0.0229
  545MOL0     C73473  11.503   8.270   5.529  0.7271  0.6391 -0.6199
  545MOL0     C73474  11.407   8.231   5.429  0.4826  0.1778  0.7881
  545MOL0     C73475  11.444   8.155   5.314 -0.4573 -0.4503 -0.2625
  545MOL0     O73476  11.356   8.109   5.225 -0.2048 -0.0145 -0.0684
  545MOL0     C73477  11.307   8.206   5.135  1.7264  0.6674  0.4689
  545MOL0     C73478  11.264   8.143   4.996  0.1940 -0.6236 -0.7087
  545MOL0     C73479  11.383   8.104   4.924  0.5399 -0.2406 -0.0577
  545MOL0     C73480  11.366   8.147   4.778 -0.5443 -0.5092  0.4561
  545MOL0     C73481  11.464   8.062   4.700  0.5519 -0.3699  0.6860
  545MOL0     C73482  11.432   8.063   4.549  0.0054 -0.2563 -0.8124
  545MOL0     C73483  11.506   7.944   4.473  0.7809 -0.2707  0.1794
  545MOL0     C73484  11.481   7.936   4.324 -1.5118  0.2420  1.2290
  545MOL0    Cl73485  11.501   7.759   4.271 -0.0163 -0.4495  0.0606
  545MOL0     C73486  11.581   8.122   5.300  0.5140 -0.3559 -0.6981
  545MOL0     C73487  11.673   8.171   5.390  0.6198 -1.1115  0.5120
  545MOL0     O73488  11.720   8.485   5.495 -0.4996  0.7457  0.0384
  545MOL0     C73489  11.937   8.364   5.744  0.6793 -0.8162 -0.5516
  545MOL0     C73490  12.039   8.406   5.824  0.1826 -0.6239  0.1753
  545MOL0     N73491  12.367   8.935   6.358  0.3488  0.1429  0.4165
  545MOL0     N73492  12.300   9.032   6.407 -0.2576 -0.5540 -0.3700
  545MOL0     C73493  11.797   9.613   7.255  0.2977 -0.1301 -0.3885
  545MOL0     C73494  11.732   9.701   7.346 -0.5463 -0.1073  0.6142
  545MOL0     C73495  11.427   9.894   7.636  1.0603  0.0088  0.2139
  545MOL0     C73496  11.307   9.899   7.711 -1.2706 -0.0438  1.0613
  545MOL0     C73497  11.280   9.995   7.805 -0.1878  0.3074  0.2951
  545MOL0     C73498  11.369  10.101   7.831 -0.0882 -0.3621  0.2835
  545MOL0     O73499  11.358  10.182   7.940  0.8538 -0.0481  0.9914
  545MOL0     C73500  11.236  10.187   8.027 -0.0460  0.3397  0.3690
  545MOL0     C73501  11.122  10.263   7.953  0.2128 -0.6138  0.2620
  545MOL0     C73502  10.992  10.282   8.036  0.5415  1.1014  1.1377
  545MOL0     C73503  10.930  10.135   8.042 -0.3949 -0.4457  0.0827
  545MOL0     C73504  10.799  10.126   8.116 -0.4135  0.1177  0.1058
  545MOL0     C73505  10.707  10.111   8.194  0.5600 -0.6163  0.9078
  545MOL0     C73506  11.482  10.115   7.745  0.3092  0.4175  0.6406
  545MOL0     C73507  11.514  10.002   7.659  0.4738 -0.5654 -1.0493
  545MOL0     H73508  11.408   9.610   7.306  0.3290 -0.4926  3.8347
  545MOL0     H73509  11.513   9.463   7.121 -0.3386  2.9950 -1.8196
  545MOL0     H73510  11.782   9.242   7.180 -0.4078  1.1131  0.7705
  545MOL0     H73511  11.639   9.296   7.090  0.2635 -0.1704 -2.4833
  545MOL0     H73512  11.906   9.259   6.951  0.1217 -0.8669 -3.7960
  545MOL0     H73513  11.776   9.133   6.952 -4.3996  0.9873  2.7638
  545MOL0     H73514  11.619   9.328   6.869  1.9291  1.4542  3.3750
  545MOL0     H73515  11.768   9.410   6.824 -1.4691  1.7624  0.4514
  545MOL0     H73516  11.677   9.140   6.732 -0.0384  0.0584 -0.1315
  545MOL0     H73517  11.659   9.295   6.643 -0.2349 -0.7442 -0.6285
  545MOL0     H73518  11.905   9.312   6.627  0.4035 -1.3101 -0.1981
  545MOL0     H73519  11.920   9.149   6.713  3.3004  1.4816  0.1062
  545MOL0     H73520  11.798   9.049   6.539 -0.4972  1.2767  1.6467
  545MOL0     H73521  11.749   9.189   6.460 -2.0176  2.0361  2.8860
  545MOL0     H73522  11.936   9.059   6.331 -0.3013  1.5715 -0.9055
  545MOL0     H73523  11.981   9.218   6.356 -1.5193 -2.5651 -4.8826
  545MOL0     H73524  12.045   9.008   6.577 -0.5643  1.1864  1.8172
  545MOL0     H73525  12.130   9.160   6.548  1.1848 -0.1617  0.7602
  545MOL0     H73526  12.070   8.805   6.376  0.9051 -1.7205  0.3671
  545MOL0     H73527  12.325   8.746   6.133 -3.0595  1.3520 -1.4895
  545MOL0     H73528  12.365   8.660   6.286  1.8080  0.9752 -0.7832
  545MOL0     H73529  12.098   8.683   6.153  0.3632 -1.3592 -1.4165
  545MOL0     H73530  12.127   8.601   6.313  0.1406  2.7521  0.3320
  545MOL0     H73531  12.095   8.467   6.105 -0.5092  2.7368  1.6096
  545MOL0     H73532  12.225   8.424   6.211 -2.2810 -0.6800  1.6476
  545MOL0     H73533  12.277   8.382   5.978 -4.5591 -0.9985  1.3225
  545MOL0     H73534  12.368   8.534   6.014  0.9308 -0.3806 -2.2950
  545MOL0     H73535  12.141   8.677   5.675  2.0023  0.5917  1.1375
  545MOL0     H73536  11.861   8.702   5.500 -0.2960  0.3896  0.3444
  545MOL0     H73537  12.040   8.730   5.501 -1.9759  0.7518  0.9456
  545MOL0     H73538  11.968   8.608   5.400 -5.2412 -0.1248 -1.1774
  545MOL0     H73539  11.464   8.318   5.619 -1.9538 -0.3663 -1.1365
  545MOL0     H73540  11.303   8.256   5.450  0.0469 -0.8137 -0.0906
  545MOL0     H73541  11.213   8.246   5.173  0.9595 -0.2528 -0.3904
  545MOL0     H73542  11.372   8.291   5.112  2.9660 -0.2854  0.3742
  545MOL0     H73543  11.201   8.054   5.010  0.9341 -1.3470 -1.7221
  545MOL0     H73544  11.205   8.214   4.937 -2.8579 -3.3118 -1.2088
  545MOL0     H73545  11.368   7.996   4.922  0.8024 -0.2855  0.3230
  545MOL0     H73546  11.483   8.127   4.963 -0.1076 -1.0941  2.2130
  545MOL0     H73547  11.261   8.140   4.750 -0.8193 -2.8145  1.8634
  545MOL0     H73548  11.403   8.249   4.763  1.6336 -1.2776  0.1577
  545MOL0     H73549  11.454   7.958   4.731 -0.9737 -0.6047 -0.4614
  545MOL0     H73550  11.564   8.102   4.720  1.9076 -2.6860 -0.9372
  545MOL0     H73551  11.324   8.077   4.537  0.2364  3.4725  0.0417
  545MOL0     H73552  11.475   8.159   4.516  0.6319 -0.7668 -1.5263
  545MOL0     H73553  11.464   7.850   4.511 -0.2440 -0.2000 -0.6992
  545MOL0     H73554  11.614   7.946   4.485  0.6809 -0.0642  1.0910
  545MOL0     H73555  11.551   8.001   4.271  0.8342 -0.9778  2.6314
  545MOL0     H73556  11.380   7.974   4.311 -1.2415  0.5747 -0.0134
  545MOL0     H73557  11.620   8.073   5.212  2.0378  2.8245 -1.9187
  545MOL0     H73558  11.775   8.145   5.366  1.5298  2.6363 -0.2844
  545MOL0     H73559  11.895   8.267   5.767  2.0647 -0.6557  3.4637
  545MOL0     H73560  12.059   8.334   5.903 -0.5176 -0.1922  0.7647
  545MOL0     H73561  11.901   9.621   7.226  1.4256 -0.4997  3.1599
  545MOL0     H73562  11.791   9.775   7.399 -2.1991  1.6564  0.1152
  545MOL0     H73563  11.241   9.813   7.702 -1.7517  0.2340  1.8841
  545MOL0     H73564  11.201   9.989   7.880 -1.6728  1.7447 -1.0792
  545MOL0     H73565  11.207  10.086   8.058 -3.3625 -0.1615 -3.5303
  545MOL0     H73566  11.250  10.253   8.114 -1.4456  2.8187 -1.1553
  545MOL0     H73567  11.097  10.227   7.853 -1.8395  1.1737  0.0474
  545MOL0     H73568  11.163  10.363   7.933  1.9138 -0.9007  2.0265
  545MOL0     H73569  10.923  10.350   7.985  0.0079 -1.3062 -1.6063
  545MOL0     H73570  11.006  10.323   8.136 -1.9722  1.9634  1.1996
  545MOL0     H73571  10.995  10.069   8.100 -3.1257 -1.9637  1.6492
  545MOL0     H73572  10.927  10.099   7.939 -2.1508 -1.1254  0.3328
  545MOL0     H73573  10.634  10.106   8.272 -3.0499  0.3726 -2.1016
  545MOL0     H73574  11.559  10.189   7.768  1.9374 -1.4028  1.3311
  545MOL0     H73575  11.608  10.006   7.605  1.4104  0.2513  0.5494
  546MOL0     O73576   6.884   6.044   8.333 -0.7048  0.3101  0.6195
  546MOL0     C73577   6.810   6.109   8.259 -0.2770 -0.9933 -0.1441
  546MOL0     O73578   6.725   6.055   8.165 -0.7907 -0.5389  0.0073
  546MOL0     C73579   6.723   5.918   8.148  0.1387 -0.9490  0.1308
  546MOL0     C73580   6.701   5.826   8.249 -0.2913 -0.0599 -0.6111
  546MOL0     C73581   6.696   5.690   8.225 -0.5279  0.2772 -0.5911
  546MOL0     C73582   6.708   5.642   8.100  0.1952  0.4209  0.6694
  546MOL0     O73583   6.697   5.510   8.096 -0.0634 -0.1392  0.4384
  546MOL0     C73584   6.682   5.439   7.975 -0.3133 -0.4937  0.1371
  546MOL0     C73585   6.529   5.429   7.947 -0.6727 -0.1422 -0.6626
  546MOL0     C73586   6.443   5.374   8.061  0.2214  0.4170  0.5575
  546MOL0     C73587   6.469   5.224   8.083  0.2276 -0.2489  0.4791
  546MOL0     C73588   6.409   5.141   8.187  0.7779  2.3373 -1.1746
  546MOL0     C73589   6.257   5.164   8.204  0.4231  0.5431 -0.0783
  546MOL0     C73590   6.174   5.071   8.301 -0.8477 -0.0552 -0.8767
  546MOL0     C73591   6.133   4.938   8.251  0.9260 -0.5145 -0.1568
  546MOL0     N73592   6.059   4.939   8.122 -1.4981 -0.2500 -0.7519
  546MOL0     C73593   5.923   4.919   8.123 -0.6870 -0.0641  0.4331
  546MOL0     C73594   5.894   4.925   7.991 -0.4001  0.1553 -0.3531
  546MOL0     C73595   5.759   4.904   7.921 -0.5087  0.0936  0.6173
  546MOL0     C73596   5.782   4.883   7.765  0.8544  0.8127  0.2479
  546MOL0     C73597   5.654   4.835   7.694  1.0239  0.7072  1.0439
  546MOL0     C73598   5.626   4.942   7.582  0.2423 -0.0896 -0.2578
  546MOL0     O73599   5.491   4.913   7.539 -0.1192  0.4422  1.0349
  546MOL0     C73600   5.477   4.935   7.405  0.4733  0.0369  0.0059
  546MOL0     C73601   5.423   4.821   7.338  0.7809  0.4137 -0.4100
  546MOL0     C73602   5.381   4.837   7.205  0.7059 -0.7472  0.3372
  546MOL0     C73603   5.335   4.715   7.124  0.5371 -0.1732 -0.2334
  546MOL0     C73604   5.398   4.961   7.138  0.1649 -0.3473 -0.8717
  546MOL0     C73605   5.360   4.993   7.003  0.9567 -0.3086 -0.2020
  546MOL0     O73606   5.247   4.941   6.955 -0.5927  0.1979 -0.3912
  546MOL0     C73607   5.198   4.936   6.835  0.2440  0.4381 -0.9026
  546MOL0     C73608   5.086   4.855   6.824 -0.5758  0.0006  0.0671
  546MOL0     C73609   5.011   4.859   6.708 -0.1035 -0.0989 -0.5296
  546MOL0     C73610   5.045   4.951   6.605  0.5355 -0.8259 -0.5448
  546MOL0     O73611   4.959   4.975   6.500  0.6078  0.3127  0.2965
  546MOL0     C73612   4.880   4.859   6.445 -0.1440  0.5074  0.2814
  546MOL0     C73613   4.827   4.879   6.297 -0.3545  0.0382 -0.4592
  546MOL0     C73614   4.717   4.988   6.295 -0.1530  0.1014 -0.3377
  546MOL0     C73615   4.676   5.007   6.153  0.2994 -0.2516  0.7870
  546MOL0     C73616   4.551   5.104   6.137  0.6569 -0.1055 -0.0609
  546MOL0     C73617   4.486   5.116   5.995  0.0435  0.1982  0.1537
  546MOL0     C73618   4.353   5.179   5.999 -0.5335 -0.7878  0.0765
  546MOL0     C73619   4.269   5.162   5.872 -0.9713  0.1641 -0.6693
  546MOL0    Cl73620   4.344   5.213   5.725 -0.5232 -0.1065 -0.3433
  546MOL0     C73621   5.161   5.022   6.618  0.2210  0.7153  0.2816
  546MOL0     C73622   5.238   5.017   6.726 -0.1747  0.0860  0.2009
  546MOL0     O73623   5.427   5.074   6.943 -0.2033 -0.2261 -0.3124
  546MOL0     C73624   5.439   5.075   7.215 -0.2339  0.1560  0.0250
  546MOL0     C73625   5.483   5.058   7.342  0.0909 -0.7469 -0.1437
  546MOL0     N73626   6.014   4.946   7.919 -0.3375  0.6624 -0.4014
  546MOL0     N73627   6.112   4.948   7.993  0.1796 -0.8571  0.0188
  546MOL0     C73628   6.721   5.733   7.994  0.8108 -0.3182  0.0056
  546MOL0     C73629   6.720   5.870   8.020 -0.4976 -1.1950  0.5431
  546MOL0     C73630   6.814   6.257   8.269  0.3272  0.0270  0.3108
  546MOL0     C73631   6.736   6.345   8.185  0.3887  0.4208 -0.3062
  546MOL0     C73632   6.754   6.486   8.206  0.9149 -0.3264  0.0225
  546MOL0     C73633   6.847   6.536   8.299 -0.5897  0.2060  0.0599
  546MOL0     O73634   6.857   6.682   8.307 -0.0664 -0.1973  0.3596
  546MOL0     C73635   6.827   6.739   8.438 -0.1389 -0.3387 -0.6021
  546MOL0     C73636   6.679   6.727   8.468  1.0110 -0.2688 -0.0488
  546MOL0     C73637   6.639   6.801   8.592 -0.7992 -0.3722  0.2405
  546MOL0     C73638   6.501   6.759   8.639 -0.0431 -0.1406  0.1557
  546MOL0     C73639   6.480   6.839   8.768 -0.0926  0.3258  0.6164
  546MOL0     C73640   6.452   6.884   8.874 -0.2710  0.2241 -1.6059
  546MOL0     C73641   6.929   6.448   8.375 -0.8128  1.3327  0.7748
  546MOL0     C73642   6.910   6.310   8.357 -0.8081 -0.1980  0.3112
  546MOL0     H73643   6.692   5.862   8.351  2.7674  2.0499 -0.9379
  546MOL0     H73644   6.686   5.615   8.303  1.9752  0.5192  0.0532
  546MOL0     H73645   6.740   5.485   7.895 -2.2299 -0.4949 -1.3188
  546MOL0     H73646   6.716   5.337   7.989  2.2733  0.2819 -0.0945
  546MOL0     H73647   6.500   5.531   7.922  1.2039  0.5151 -0.3151
  546MOL0     H73648   6.505   5.360   7.865  2.3517 -2.4559  0.1816
  546MOL0     H73649   6.468   5.432   8.150  1.1180  2.6613 -1.0702
  546MOL0     H73650   6.337   5.391   8.039  0.4865 -0.4654 -1.6981
  546MOL0     H73651   6.443   5.179   7.986 -0.1355 -0.8923  0.8631
  546MOL0     H73652   6.576   5.215   8.102  0.2203  2.0958  2.0409
  546MOL0     H73653   6.413   5.036   8.153 -3.4176  2.0564 -1.2673
  546MOL0     H73654   6.453   5.140   8.287 -0.0233 -0.6486 -0.7352
  546MOL0     H73655   6.230   5.267   8.227  0.3626  0.3329  0.8504
  546MOL0     H73656   6.222   5.146   8.102  1.5894 -0.7630 -0.2730
  546MOL0     H73657   6.229   5.055   8.394  0.9608 -0.3399 -1.9364
  546MOL0     H73658   6.089   5.129   8.338 -0.4403 -0.0521  0.0747
  546MOL0     H73659   6.073   4.885   8.326 -2.0130  1.1733 -1.1569
  546MOL0     H73660   6.211   4.862   8.241 -0.4452 -1.7597 -2.0773
  546MOL0     H73661   5.865   4.887   8.209 -0.9826 -2.8064 -0.6914
  546MOL0     H73662   5.712   4.812   7.958  2.9211 -1.3097  1.9380
  546MOL0     H73663   5.699   4.993   7.942  1.0075  1.3139 -0.0275
  546MOL0     H73664   5.863   4.812   7.743  3.1523  3.2308  0.4161
  546MOL0     H73665   5.817   4.977   7.721 -1.4573  2.0811  0.9318
  546MOL0     H73666   5.565   4.822   7.756  0.3843  0.4037  0.0913
  546MOL0     H73667   5.668   4.736   7.649 -3.9167  1.2269 -2.4181
  546MOL0     H73668   5.701   4.928   7.503  1.0790 -2.6583  0.8831
  546MOL0     H73669   5.637   5.047   7.608 -0.3372  0.2341 -1.2242
  546MOL0     H73670   5.418   4.723   7.384 -0.0675  0.1860 -0.9645
  546MOL0     H73671   5.373   4.729   7.023 -3.1396  0.4085 -1.6811
  546MOL0     H73672   5.353   4.625   7.184  0.8561  1.0587  1.6151
  546MOL0     H73673   5.229   4.735   7.109 -0.0083 -0.7482  2.3758
  546MOL0     H73674   5.048   4.799   6.909 -4.0158  1.1472 -0.5433
  546MOL0     H73675   4.915   4.808   6.701  1.4403 -3.2157 -0.4788
  546MOL0     H73676   4.937   4.766   6.447 -1.4974 -0.4068 -1.3431
  546MOL0     H73677   4.786   4.845   6.498 -3.0025  0.7373 -4.1743
  546MOL0     H73678   4.921   4.912   6.251 -0.8761  0.8625 -0.9531
  546MOL0     H73679   4.795   4.779   6.266  1.5615 -1.0383  0.8200
  546MOL0     H73680   4.751   5.081   6.339 -1.5094  1.0565 -1.2386
  546MOL0     H73681   4.624   4.955   6.341 -1.1399  0.3419 -2.0565
  546MOL0     H73682   4.755   5.032   6.081 -3.4854  0.7987 -3.4303
  546MOL0     H73683   4.647   4.912   6.108 -1.3579  1.9631 -3.3622
  546MOL0     H73684   4.565   5.205   6.177  3.3768 -1.0698  1.6750
  546MOL0     H73685   4.472   5.061   6.199  1.3089 -0.6254  0.4202
  546MOL0     H73686   4.536   5.187   5.928  0.1171  0.6601  0.6872
  546MOL0     H73687   4.492   5.017   5.949  1.0138  1.9018 -3.8292
  546MOL0     H73688   4.379   5.283   6.022 -2.0814  0.4067 -2.9712
  546MOL0     H73689   4.293   5.146   6.084 -2.7220  3.4654  0.4575
  546MOL0     H73690   4.184   5.231   5.879 -0.7740  0.6991 -2.9167
  546MOL0     H73691   4.236   5.058   5.858 -1.5609  0.4530 -1.5412
  546MOL0     H73692   5.173   5.094   6.537  1.0708 -0.3640 -0.5928
  546MOL0     H73693   5.329   5.075   6.716  0.4925 -0.9135  0.3407
  546MOL0     H73694   5.442   5.176   7.177 -2.1128 -0.3222 -1.5950
  546MOL0     H73695   5.525   5.136   7.406 -0.7503  2.0777 -2.7723
  546MOL0     H73696   6.735   5.694   7.894  0.7211  1.5454 -0.7584
  546MOL0     H73697   6.744   5.939   7.939  0.0147 -2.0364 -0.0461
  546MOL0     H73698   6.670   6.303   8.111 -1.0198 -3.2549  2.7562
  546MOL0     H73699   6.714   6.564   8.142  1.2015  1.8938  2.3927
  546MOL0     H73700   6.880   6.677   8.512  1.1122 -0.3095 -1.4526
  546MOL0     H73701   6.865   6.841   8.438  0.6679 -0.6356 -0.7778
  546MOL0     H73702   6.639   6.627   8.484 -0.8832  0.6813  1.5792
  546MOL0     H73703   6.619   6.777   8.392 -1.8741 -0.2821  2.0631
  546MOL0     H73704   6.639   6.909   8.576 -3.1842 -0.4246 -0.5182
  546MOL0     H73705   6.709   6.768   8.669  1.2168  1.3171 -0.7799
  546MOL0     H73706   6.479   6.655   8.662  4.2705 -0.7840  2.3647
  546MOL0     H73707   6.420   6.796   8.575 -0.2772  0.0282  0.5449
  546MOL0     H73708   6.416   6.924   8.967 -3.1342  0.5921 -2.7701
  546MOL0     H73709   7.022   6.486   8.415 -1.1480  2.7341  0.2785
  546MOL0     H73710   6.983   6.253   8.413 -1.3688  0.7605  2.0966
  547MOL0     O73711  10.193   7.835   2.551  1.1345 -0.0618 -0.0899
  547MOL0     C73712  10.279   7.835   2.466  0.1286 -0.7277  1.5066
  547MOL0     O73713  10.406   7.783   2.479  0.3629  0.4974 -0.5128
  547MOL0     C73714  10.413   7.680   2.573 -0.1685  0.0972 -0.2789
  547MOL0     C73715  10.325   7.577   2.582 -0.0810 -0.2363 -0.3240
  547MOL0     C73716  10.323   7.479   2.689  0.0040  0.1440  0.0570
  547MOL0     C73717  10.435   7.483   2.778 -0.5974 -0.1978 -0.4720
  547MOL0     O73718  10.441   7.389   2.874 -0.2123 -0.4840  0.0364
  547MOL0     C73719  10.531   7.399   2.984  0.5551  0.1129 -0.0681
  547MOL0     C73720  10.494   7.311   3.099 -0.0886 -0.3694 -0.1233
  547MOL0     C73721  10.594   7.322   3.211  0.2678 -0.3616  0.5059
  547MOL0     C73722  10.515   7.254   3.330  0.0681  0.4294  0.2197
  547MOL0     C73723  10.591   7.231   3.449 -0.2569  0.3397  0.3174
  547MOL0     C73724  10.505   7.175   3.568  0.3655  0.0669  0.1722
  547MOL0     C73725  10.594   7.142   3.681  0.4566  0.3647 -1.0281
  547MOL0     C73726  10.525   7.056   3.793  0.6255  0.5259 -0.1293
  547MOL0     N73727  10.459   6.928   3.756  0.2581  0.2224  0.1303
  547MOL0     C73728  10.524   6.802   3.754  0.7604  0.6269 -0.9706
  547MOL0     C73729  10.420   6.711   3.719  0.1711  0.1903  0.1163
  547MOL0     C73730  10.432   6.560   3.717 -0.7419 -0.1099  0.2241
  547MOL0     C73731  10.487   6.500   3.847 -0.3627 -0.3621 -0.4342
  547MOL0     C73732  10.419   6.540   3.981  0.0935 -0.0897  0.6260
  547MOL0     C73733  10.507   6.488   4.094  0.2425  0.8612 -0.1028
  547MOL0     O73734  10.587   6.587   4.164 -0.7777  0.7570 -0.2941
  547MOL0     C73735  10.676   6.551   4.267  0.3396 -0.6761  0.4103
  547MOL0     C73736  10.791   6.627   4.279  0.7774  0.4414  0.2134
  547MOL0     C73737  10.883   6.582   4.378  0.2444  0.0461 -0.2835
  547MOL0     C73738  11.006   6.670   4.399  0.2921  0.9590  0.1790
  547MOL0     C73739  10.851   6.479   4.469 -0.3266  0.2653  1.2337
  547MOL0     C73740  10.946   6.448   4.583 -0.4744 -0.0323 -0.0808
  547MOL0     O73741  11.074   6.395   4.556  0.4485  0.3830 -0.0952
  547MOL0     C73742  11.116   6.334   4.440 -0.1699  0.2992  0.2551
  547MOL0     C73743  11.028   6.235   4.382 -0.7420 -0.1109 -0.5298
  547MOL0     C73744  11.064   6.183   4.256  0.0562 -0.2800  0.4247
  547MOL0     C73745  11.183   6.222   4.190  0.0963  0.6707  0.5144
  547MOL0     O73746  11.215   6.170   4.072 -0.5874 -0.7488 -0.4192
  547MOL0     C73747  11.231   6.028   4.058 -0.0028  0.1354  0.6835
  547MOL0     C73748  11.382   5.983   4.038 -0.3299 -0.8192 -0.1520
  547MOL0     C73749  11.447   5.997   3.901  0.7148 -0.8659  0.8866
  547MOL0     C73750  11.443   6.138   3.843 -0.2821 -0.0213  0.1942
  547MOL0     C73751  11.505   6.144   3.701 -0.2039 -0.3652  0.3410
  547MOL0     C73752  11.495   6.282   3.640 -0.1091 -0.1888  0.2768
  547MOL0     C73753  11.563   6.285   3.499  0.0653 -0.0189  0.4143
  547MOL0     C73754  11.505   6.393   3.410 -0.4473 -0.6635 -0.0561
  547MOL0    Cl73755  11.608   6.409   3.257 -0.0039  0.1154 -0.3834
  547MOL0     C73756  11.271   6.312   4.256  0.4000 -0.2932 -0.3643
  547MOL0     C73757  11.237   6.375   4.375  0.2107  0.4868 -0.3398
  547MOL0     O73758  10.904   6.463   4.694  0.3429  0.7749 -0.2240
  547MOL0     C73759  10.735   6.416   4.455 -0.1820  1.1043  0.2616
  547MOL0     C73760  10.651   6.444   4.348 -0.8914  0.0131 -0.8958
  547MOL0     N73761  10.311   6.786   3.693  0.2464  0.2153  0.0728
  547MOL0     N73762  10.333   6.915   3.702  0.1899 -0.5027  0.2165
  547MOL0     C73763  10.532   7.585   2.757  0.4464  0.8560 -0.0270
  547MOL0     C73764  10.522   7.684   2.663  0.5079 -0.2424 -0.0565
  547MOL0     C73765  10.234   7.877   2.329 -0.2758  0.6167 -0.2193
  547MOL0     C73766  10.136   7.973   2.312  0.1138 -0.2375 -0.2966
  547MOL0     C73767  10.117   8.035   2.187  0.5262 -0.2787  0.7190
  547MOL0     C73768  10.179   7.986   2.071 -0.7322 -0.0533  0.0710
  547MOL0     O73769  10.177   8.059   1.957  0.3665 -0.4119  1.1836
  547MOL0     C73770  10.187   7.981   1.839 -0.6541  0.9975  0.7597
  547MOL0     C73771  10.072   7.890   1.824 -0.3265 -0.9906 -0.0736
  547MOL0     C73772  10.080   7.803   1.694  0.5399 -0.1346  0.4892
  547MOL0     C73773   9.929   7.761   1.650  0.7305  0.2953 -0.9599
  547MOL0     C73774   9.873   7.866   1.568 -0.1641  0.4463 -0.3515
  547MOL0     C73775   9.808   7.942   1.500  0.1901 -0.9778 -0.0569
  547MOL0     C73776  10.241   7.862   2.085 -0.3312  0.6505  0.2308
  547MOL0     C73777  10.274   7.812   2.214 -0.5625  0.7669 -0.0809
  547MOL0     H73778  10.239   7.565   2.518 -0.1947 -1.8181  0.0697
  547MOL0     H73779  10.248   7.403   2.711 -0.7693  0.3107 -1.8181
  547MOL0     H73780  10.633   7.389   2.947  0.4858  1.8305 -0.8304
  547MOL0     H73781  10.529   7.504   3.013  0.8464  0.3270 -0.8081
  547MOL0     H73782  10.396   7.339   3.140 -0.7632 -0.3422 -1.6955
  547MOL0     H73783  10.477   7.211   3.058  0.2406 -1.5636  2.4655
  547MOL0     H73784  10.682   7.266   3.178  0.4214  0.9194 -1.3460
  547MOL0     H73785  10.626   7.423   3.236 -1.9604  0.6781 -0.5807
  547MOL0     H73786  10.429   7.316   3.358 -0.3266  0.0303 -0.1020
  547MOL0     H73787  10.473   7.159   3.294  0.7674  0.0754  0.3191
  547MOL0     H73788  10.660   7.155   3.413 -2.3731 -1.4377 -0.1810
  547MOL0     H73789  10.634   7.330   3.472  2.5485 -0.4894 -0.8802
  547MOL0     H73790  10.427   7.245   3.598 -0.1409  0.7338 -2.4891
  547MOL0     H73791  10.450   7.087   3.533 -1.3150 -0.1669  3.0369
  547MOL0     H73792  10.687   7.093   3.649 -0.2852 -3.2730  1.7014
  547MOL0     H73793  10.629   7.242   3.708 -0.5792  0.5680 -0.4155
  547MOL0     H73794  10.445   7.125   3.823  2.3161  2.5367 -0.0595
  547MOL0     H73795  10.598   7.038   3.872  0.1622 -0.1132  0.1600
  547MOL0     H73796  10.615   6.770   3.804  0.5091 -0.9002 -1.4375
  547MOL0     H73797  10.344   6.504   3.682  0.2615 -0.8826 -1.1781
  547MOL0     H73798  10.509   6.541   3.642  0.2967  2.2312  0.6449
  547MOL0     H73799  10.595   6.513   3.859 -0.5975  0.3631  1.1885
  547MOL0     H73800  10.472   6.392   3.833 -3.1823 -0.0455 -0.5499
  547MOL0     H73801  10.320   6.494   3.983  0.9708 -2.0730  0.4586
  547MOL0     H73802  10.404   6.649   3.982  1.2848  0.0974  1.9788
  547MOL0     H73803  10.559   6.396   4.067 -0.0533  0.7650 -0.3507
  547MOL0     H73804  10.435   6.467   4.174  2.0044  1.9284  1.8649
  547MOL0     H73805  10.809   6.699   4.200 -2.3929 -0.7135 -1.7366
  547MOL0     H73806  11.015   6.742   4.318  3.8599 -1.6574 -2.0443
  547MOL0     H73807  11.011   6.715   4.499  1.6759 -1.5075  1.3168
  547MOL0     H73808  11.095   6.606   4.390  0.4119  1.4116 -2.3699
  547MOL0     H73809  10.938   6.203   4.433  0.7757  0.6088  2.8662
  547MOL0     H73810  10.997   6.116   4.203  1.2519 -0.9396 -0.2919
  547MOL0     H73811  11.194   5.975   4.146 -3.1752  1.1171  0.0600
  547MOL0     H73812  11.174   5.981   3.977  0.3171 -2.0360  1.6614
  547MOL0     H73813  11.447   6.032   4.111  2.0985 -0.6782 -2.2414
  547MOL0     H73814  11.389   5.878   4.068  1.5026 -0.5498  0.5068
  547MOL0     H73815  11.399   5.929   3.829  0.6909  0.1099 -0.0490
  547MOL0     H73816  11.552   5.968   3.895 -0.3409 -5.5503  1.0101
  547MOL0     H73817  11.337   6.167   3.836 -0.1847  0.0405 -1.3952
  547MOL0     H73818  11.501   6.204   3.908  1.4773 -0.8105 -0.5171
  547MOL0     H73819  11.451   6.068   3.644  1.5355  0.6806 -3.0162
  547MOL0     H73820  11.611   6.117   3.712  0.9641  2.6813 -1.8727
  547MOL0     H73821  11.390   6.313   3.643  0.3565  1.4819  2.7961
  547MOL0     H73822  11.537   6.355   3.710 -3.1407  2.3775 -0.3652
  547MOL0     H73823  11.549   6.187   3.451 -4.1795  0.7347 -0.3245
  547MOL0     H73824  11.670   6.298   3.519  0.6490  1.3721 -3.0135
  547MOL0     H73825  11.477   6.486   3.460  0.2517 -1.4228  1.8082
  547MOL0     H73826  11.405   6.360   3.383 -2.5684  2.9093  2.5063
  547MOL0     H73827  11.362   6.349   4.211  0.2378  2.0072  1.0623
  547MOL0     H73828  11.307   6.451   4.407 -0.1470  0.6329  0.1006
  547MOL0     H73829  10.702   6.347   4.532 -1.8387  1.7912  0.2146
  547MOL0     H73830  10.557   6.390   4.358 -1.1707  0.9035  2.7997
  547MOL0     H73831  10.619   7.583   2.821 -0.8704  0.0966  1.8395
  547MOL0     H73832  10.595   7.765   2.667  2.9009 -2.2322 -1.0781
  547MOL0     H73833  10.085   8.020   2.395  3.8708  2.2320  0.9054
  547MOL0     H73834  10.052   8.120   2.203 -1.7720 -2.1871  2.2405
  547MOL0     H73835  10.187   8.046   1.750  0.5144 -0.6671 -0.5076
  547MOL0     H73836  10.279   7.923   1.826 -2.7446 -2.3353 -0.3758
  547MOL0     H73837   9.980   7.948   1.820 -0.0176 -0.4980 -0.0996
  547MOL0     H73838  10.049   7.819   1.904 -2.9074 -0.0827  0.0822
  547MOL0     H73839  10.140   7.713   1.710 -1.1108 -0.9378  2.5877
  547MOL0     H73840  10.110   7.871   1.613 -1.8643 -0.3867 -0.7032
  547MOL0     H73841   9.875   7.752   1.744 -0.3031  2.1384 -1.3501
  547MOL0     H73842   9.935   7.671   1.588  0.2400 -1.7286  1.7572
  547MOL0     H73843   9.759   8.006   1.430  1.6688  1.0022  0.6232
  547MOL0     H73844  10.280   7.807   2.000  1.0658  1.0022  0.6269
  547MOL0     H73845  10.330   7.720   2.217 -0.1770  0.9456 -1.3727
  548MOL0     O73846   0.890   2.320   2.882 -0.0600 -0.4408 -0.2888
  548MOL0     C73847   0.993   2.349   2.943  0.2947  0.4478  0.0451
  548MOL0     O73848   1.115   2.307   2.931  0.0043 -0.0887 -0.8234
  548MOL0     C73849   1.130   2.206   2.839 -0.0765  0.0502 -1.1020
  548MOL0     C73850   1.107   2.076   2.890 -0.3772 -0.4429 -0.2258
  548MOL0     C73851   1.098   1.966   2.808 -0.4807 -0.8082  0.1708
  548MOL0     C73852   1.140   1.981   2.667 -0.0862  0.4549 -0.9075
  548MOL0     O73853   1.178   1.865   2.602  0.0622 -0.4949 -0.0537
  548MOL0     C73854   1.312   1.865   2.580 -0.4003  0.9695 -0.7600
  548MOL0     C73855   1.354   1.718   2.553 -0.4311 -0.2546 -0.4500
  548MOL0     C73856   1.269   1.642   2.451  0.1903  0.3292 -0.2723
  548MOL0     C73857   1.311   1.497   2.435  0.3079  0.5220 -0.4091
  548MOL0     C73858   1.207   1.418   2.350  1.7725 -0.8362 -0.8973
  548MOL0     C73859   1.263   1.288   2.310 -0.1193 -0.0549  0.7183
  548MOL0     C73860   1.157   1.187   2.259 -1.0718 -0.5729  1.6403
  548MOL0     C73861   1.062   1.238   2.145  0.7119 -0.3875  0.3241
  548MOL0     N73862   1.018   1.130   2.053  0.8808 -0.7825 -0.6276
  548MOL0     C73863   0.944   1.023   2.097  1.2329  0.6490  0.1478
  548MOL0     C73864   0.915   0.953   1.983 -0.0715  0.2819 -0.2296
  548MOL0     C73865   0.831   0.820   1.985  0.2581 -0.5544  0.1482
  548MOL0     C73866   0.689   0.850   2.044  0.3573 -0.9168 -1.5982
  548MOL0     C73867   0.596   0.905   1.945 -0.1093 -0.2877  0.6856
  548MOL0     C73868   0.638   1.040   1.881 -0.5346 -0.5735 -0.3066
  548MOL0     O73869   0.530   1.114   1.814  0.1874  0.0591 -0.7477
  548MOL0     C73870   0.562   1.248   1.811 -0.2088  0.1757 -0.6326
  548MOL0     C73871   0.543   1.320   1.923  1.2185 -0.2044 -0.2600
  548MOL0     C73872   0.574   1.455   1.942  0.0332 -0.3252  0.0336
  548MOL0     C73873   0.520   1.533   2.069  0.4212 -0.4113 -0.3287
  548MOL0     C73874   0.637   1.523   1.833  0.4100 -0.2133  0.3573
  548MOL0     C73875   0.669   1.663   1.833  0.3364 -0.6387 -0.0778
  548MOL0     O73876   0.551   1.742   1.846 -0.1674 -0.6775 -0.1663
  548MOL0     C73877   0.569   1.876   1.864 -0.3123 -0.2088 -0.1400
  548MOL0     C73878   0.487   1.927   1.962  0.0146  0.7456 -0.4423
  548MOL0     C73879   0.497   2.058   2.004 -1.1353 -0.1978 -0.1019
  548MOL0     C73880   0.576   2.146   1.925 -0.8297 -0.6575 -0.2384
  548MOL0     O73881   0.570   2.283   1.938  0.6832 -0.1801  1.0578
  548MOL0     C73882   0.603   2.324   2.070  0.4351  0.2414  0.0011
  548MOL0     C73883   0.631   2.473   2.091 -0.8591 -0.5037  1.3499
  548MOL0     C73884   0.549   2.571   2.014 -0.1903  0.3315 -0.2769
  548MOL0     C73885   0.578   2.717   2.056  0.0725 -0.5133 -0.3585
  548MOL0     C73886   0.486   2.830   1.988 -0.0707 -0.0242  0.0470
  548MOL0     C73887   0.505   2.836   1.836  0.6638  0.1162 -0.1939
  548MOL0     C73888   0.607   2.943   1.790 -0.6333 -1.1786 -0.7754
  548MOL0     C73889   0.744   2.903   1.744 -0.5937  0.8953 -0.4153
  548MOL0    Cl73890   0.743   2.807   1.592  0.3908  0.2611 -0.3238
  548MOL0     C73891   0.661   2.097   1.830 -0.2375  0.8669 -0.3956
  548MOL0     C73892   0.658   1.963   1.796  0.0090 -0.3958  0.8612
  548MOL0     O73893   0.783   1.706   1.830 -0.1964 -0.2513 -0.0724
  548MOL0     C73894   0.646   1.448   1.711  0.4696  0.4770  0.0646
  548MOL0     C73895   0.612   1.311   1.701  0.1117  0.4189  0.8746
  548MOL0     N73896   0.984   1.016   1.877  0.3811 -0.2821  0.5053
  548MOL0     N73897   1.050   1.122   1.919  0.0292  0.1620  0.1471
  548MOL0     C73898   1.169   2.110   2.625 -0.1975 -0.4831 -0.2137
  548MOL0     C73899   1.163   2.225   2.712 -0.0865 -0.9221 -0.2472
  548MOL0     C73900   0.965   2.464   3.030 -0.4896 -0.5422 -0.3049
  548MOL0     C73901   1.078   2.525   3.091  0.8588  0.6549 -0.7482
  548MOL0     C73902   1.058   2.636   3.182  0.2959 -0.3847  0.4701
  548MOL0     C73903   0.935   2.694   3.212  0.0032  0.4678 -0.5054
  548MOL0     O73904   0.903   2.802   3.285  0.2881  0.8767  0.0078
  548MOL0     C73905   1.009   2.895   3.314  0.3746  0.1522 -0.5529
  548MOL0     C73906   0.958   3.023   3.395 -0.1107  0.1094  0.1165
  548MOL0     C73907   0.849   3.101   3.323 -0.6973 -0.5301  0.5718
  548MOL0     C73908   0.724   3.095   3.407 -0.8723  0.2729 -0.9670
  548MOL0     C73909   0.739   3.170   3.526 -0.4964 -0.9260  0.6899
  548MOL0     C73910   0.746   3.247   3.618 -0.6626  0.6618 -1.0138
  548MOL0     C73911   0.829   2.617   3.160  0.0090  0.4193  0.1741
  548MOL0     C73912   0.837   2.506   3.077 -0.8817 -0.8935  1.0170
  548MOL0     H73913   1.079   2.068   2.995 -0.6634 -1.8611 -0.3916
  548MOL0     H73914   1.082   1.862   2.837 -2.2640 -1.0255 -1.3884
  548MOL0     H73915   1.328   1.919   2.486 -0.0481 -0.6632 -1.6821
  548MOL0     H73916   1.367   1.905   2.666  0.5445 -0.7449 -0.5222
  548MOL0     H73917   1.459   1.700   2.531 -0.7125 -1.8286 -0.6130
  548MOL0     H73918   1.346   1.676   2.654  2.7617  1.8639  0.8370
  548MOL0     H73919   1.168   1.628   2.489  1.3025 -3.1852  1.9569
  548MOL0     H73920   1.267   1.695   2.356  3.3244  1.4354  0.1459
  548MOL0     H73921   1.403   1.485   2.376  0.2794 -1.0741 -0.1785
  548MOL0     H73922   1.322   1.443   2.529 -1.0271 -1.6763 -1.4321
  548MOL0     H73923   1.105   1.411   2.389  1.9423 -0.7790 -0.4418
  548MOL0     H73924   1.189   1.480   2.261 -1.7366  2.9774  2.0870
  548MOL0     H73925   1.332   1.310   2.228 -0.4590  3.9085  1.2565
  548MOL0     H73926   1.319   1.242   2.391  4.0710  1.9495 -0.7691
  548MOL0     H73927   1.210   1.096   2.228  1.9297  0.8037  2.3571
  548MOL0     H73928   1.093   1.170   2.346 -3.8996 -0.7530 -0.3691
  548MOL0     H73929   1.111   1.313   2.083 -1.3125  1.1940  0.5061
  548MOL0     H73930   0.977   1.289   2.192  2.5630  1.7517  1.5505
  548MOL0     H73931   0.915   0.998   2.199 -1.7262  1.9218 -0.2662
  548MOL0     H73932   0.826   0.780   1.884 -0.7722 -1.1083  0.4105
  548MOL0     H73933   0.888   0.758   2.055  2.4900  0.5902 -0.5676
  548MOL0     H73934   0.684   0.912   2.134  0.5979 -1.6624 -1.0586
  548MOL0     H73935   0.649   0.754   2.077 -0.4156  0.0940  0.5986
  548MOL0     H73936   0.496   0.899   1.989 -0.0201 -3.0761  0.6956
  548MOL0     H73937   0.598   0.830   1.866 -0.3360 -0.4107  0.7949
  548MOL0     H73938   0.727   1.032   1.817  1.3771  2.9552  1.5844
  548MOL0     H73939   0.668   1.104   1.965 -0.5171 -2.4997  1.2367
  548MOL0     H73940   0.491   1.271   2.004  2.4182  1.1645  1.4079
  548MOL0     H73941   0.414   1.555   2.048 -0.0870 -0.6424  1.7583
  548MOL0     H73942   0.546   1.471   2.155 -0.7631 -2.0206 -1.0747
  548MOL0     H73943   0.568   1.628   2.095 -1.8025 -0.1004  3.5595
  548MOL0     H73944   0.415   1.858   2.006 -2.0608  1.7587 -2.0684
  548MOL0     H73945   0.435   2.089   2.087  1.4796  1.6563  1.2841
  548MOL0     H73946   0.512   2.309   2.130  1.6351  0.2523  1.8959
  548MOL0     H73947   0.686   2.266   2.110  0.8684  1.8853  1.6733
  548MOL0     H73948   0.626   2.503   2.196 -0.4665  1.9493  0.7386
  548MOL0     H73949   0.739   2.478   2.073 -0.3816  0.9651  4.0307
  548MOL0     H73950   0.446   2.552   2.044 -0.3659 -0.3391 -1.2469
  548MOL0     H73951   0.558   2.559   1.905 -2.3227 -0.6658 -0.3823
  548MOL0     H73952   0.568   2.714   2.165  0.7763 -3.0276 -0.2913
  548MOL0     H73953   0.681   2.746   2.036 -0.1405  2.0338  1.7692
  548MOL0     H73954   0.506   2.929   2.030  0.6846  1.5143 -3.5247
  548MOL0     H73955   0.386   2.792   2.010  0.8686 -1.5091  2.0965
  548MOL0     H73956   0.517   2.736   1.793 -1.4529 -0.5970  0.7294
  548MOL0     H73957   0.408   2.872   1.800  0.2505 -0.9293 -0.1511
  548MOL0     H73958   0.630   3.013   1.871 -0.4098  0.0719 -1.8805
  548MOL0     H73959   0.567   2.997   1.703 -1.7803  1.2190  1.1150
  548MOL0     H73960   0.791   2.840   1.821  2.2354  1.7154 -1.3288
  548MOL0     H73961   0.805   2.993   1.733 -2.3505  2.3109  0.9717
  548MOL0     H73962   0.727   2.164   1.775 -1.3420  1.6040 -0.8385
  548MOL0     H73963   0.718   1.934   1.710  0.2842  1.5476  0.3477
  548MOL0     H73964   0.674   1.515   1.631 -2.7751  0.0770 -1.6111
  548MOL0     H73965   0.618   1.263   1.604 -2.1022 -0.3940  1.0616
  548MOL0     H73966   1.216   2.114   2.527  0.9803  1.1930  0.3753
  548MOL0     H73967   1.171   2.330   2.687 -0.2465 -0.7101  0.5763
  548MOL0     H73968   1.180   2.492   3.075  0.6057 -0.1687 -0.7532
  548MOL0     H73969   1.142   2.693   3.221  0.8881 -0.7970 -0.1789
  548MOL0     H73970   1.087   2.837   3.365  0.9273  2.2578  1.1370
  548MOL0     H73971   1.046   2.926   3.216 -1.9049  1.6523 -1.0128
  548MOL0     H73972   1.051   3.081   3.392  1.4659 -2.2782 -3.2273
  548MOL0     H73973   0.941   3.007   3.502 -0.7330  0.9695  0.1556
  548MOL0     H73974   0.825   3.062   3.224 -1.4716 -0.9906  0.9368
  548MOL0     H73975   0.886   3.204   3.320 -1.6322 -0.2066 -1.3735
  548MOL0     H73976   0.697   2.998   3.450  2.9996  0.0005  1.4049
  548MOL0     H73977   0.628   3.124   3.363 -3.2592  0.6783  3.8491
  548MOL0     H73978   0.740   3.311   3.704  1.4969  0.1853 -0.4541
  548MOL0     H73979   0.725   2.643   3.177 -0.1511 -0.1622  0.0845
  548MOL0     H73980   0.749   2.462   3.032  0.6535 -1.7431 -1.2907
  549MOL0     O73981  10.386  11.362   0.903 -0.7388 -0.0405 -0.0603
  549MOL0     C73982  10.422  11.327   0.792  0.2778 -0.5770  1.0723
  549MOL0     O73983  10.335  11.255   0.702  0.0905 -0.0858  0.5933
  549MOL0     C73984  10.199  11.233   0.717 -0.3767 -1.2043  0.2965
  549MOL0     C73985  10.128  11.206   0.832  0.2884 -0.7141  0.4436
  549MOL0     C73986   9.992  11.184   0.854  0.4923 -0.3946 -0.2097
  549MOL0     C73987   9.909  11.192   0.741 -0.2688 -0.1343  0.2036
  549MOL0     O73988   9.761  11.184   0.739 -0.2308 -0.2226  0.3423
  549MOL0     C73989   9.690  11.182   0.864  0.6972  1.0689 -1.1341
  549MOL0     C73990   9.534  11.181   0.843 -0.4406  0.0759  0.7037
  549MOL0     C73991   9.449  11.143   0.975  0.2107 -0.4323  0.9816
  549MOL0     C73992   9.479  11.230   1.096  0.2580  0.1755 -0.6016
  549MOL0     C73993   9.376  11.200   1.196 -0.4707 -0.1761 -0.5821
  549MOL0     C73994   9.346  11.317   1.288 -0.6452  0.1542  0.0548
  549MOL0     C73995   9.254  11.273   1.407  0.0381 -0.8231 -0.2106
  549MOL0     C73996   9.318  11.173   1.513  0.0094 -0.7628  0.0723
  549MOL0     N73997   9.449  11.230   1.550 -0.6989  0.3645  0.6602
  549MOL0     C73998   9.476  11.320   1.636  1.0898 -0.1269  0.2526
  549MOL0     C73999   9.603  11.341   1.623  0.3570  0.2093  0.4112
  549MOL0     C74000   9.689  11.428   1.712 -0.5487 -0.3421 -0.3142
  549MOL0     C74001   9.732  11.354   1.837 -0.1010 -0.0367  0.5901
  549MOL0     C74002   9.876  11.296   1.820 -0.4630  0.5450  1.1698
  549MOL0     C74003   9.915  11.232   1.955  0.1232  0.5543  0.2905
  549MOL0     O74004  10.009  11.127   1.915 -0.4423 -0.2318  0.6345
  549MOL0     C74005  10.078  11.072   2.015 -0.8327  0.6155 -0.4939
  549MOL0     C74006  10.050  11.082   2.159 -0.0679  0.2160  0.7202
  549MOL0     C74007  10.118  11.001   2.252  0.5836 -0.0858 -0.2198
  549MOL0     C74008  10.071  11.006   2.400 -0.3478  0.0023  0.2343
  549MOL0     C74009  10.218  10.916   2.199  0.4162  0.7246  0.6765
  549MOL0     C74010  10.309  10.835   2.287 -0.5176 -0.5146 -0.0908
  549MOL0     O74011  10.376  10.905   2.395 -0.0087 -0.2533  0.2642
  549MOL0     C74012  10.457  10.838   2.487 -1.5196  0.1372  0.3699
  549MOL0     C74013  10.587  10.789   2.450 -0.5086  0.5303  0.7114
  549MOL0     C74014  10.659  10.707   2.542 -0.6569 -1.2063 -0.2452
  549MOL0     C74015  10.617  10.688   2.677 -0.1343 -0.4884  0.4948
  549MOL0     O74016  10.713  10.619   2.751  0.3261 -0.6159  0.0366
  549MOL0     C74017  10.658  10.582   2.875 -0.4737 -0.2184  0.6086
  549MOL0     C74018  10.757  10.485   2.936 -0.1098 -0.6647 -1.2210
  549MOL0     C74019  10.864  10.568   3.008 -0.4771 -0.0516  0.0104
  549MOL0     C74020  10.863  10.574   3.158  0.0582 -0.0515 -0.0240
  549MOL0     C74021  10.958  10.668   3.241 -0.4341 -0.3515  0.0407
  549MOL0     C74022  11.109  10.616   3.217  0.2688 -0.6819  1.1464
  549MOL0     C74023  11.223  10.660   3.302 -0.4844  0.1108 -0.7671
  549MOL0     C74024  11.364  10.582   3.268 -0.4105 -0.4056  0.9234
  549MOL0    Cl74025  11.416  10.625   3.099 -0.3784  0.0359 -0.4449
  549MOL0     C74026  10.508  10.760   2.714 -0.1552  1.1827 -0.2341
  549MOL0     C74027  10.430  10.827   2.625  0.5776 -0.0937  0.1968
  549MOL0     O74028  10.302  10.711   2.284  0.5066  0.2775 -0.6283
  549MOL0     C74029  10.236  10.897   2.062 -0.6192  0.0273  0.2465
  549MOL0     C74030  10.168  10.981   1.976  0.2161 -0.1464  0.4697
  549MOL0     N74031   9.658  11.261   1.529  0.0135  0.4724  0.0287
  549MOL0     N74032   9.561  11.197   1.480 -0.3132 -0.7641 -0.3948
  549MOL0     C74033   9.976  11.230   0.623  0.0298 -0.0501 -0.7743
  549MOL0     C74034  10.115  11.248   0.604  0.2965 -0.5922 -0.3635
  549MOL0     C74035  10.549  11.380   0.741  0.4101 -1.2117  0.6037
  549MOL0     C74036  10.615  11.326   0.635  0.4012 -0.6990 -0.0753
  549MOL0     C74037  10.733  11.384   0.588  0.1406 -0.4765  0.0681
  549MOL0     C74038  10.785  11.493   0.650 -0.0858  1.1329  0.3821
  549MOL0     O74039  10.884  11.575   0.608 -0.4937  0.3382 -0.5272
  549MOL0     C74040  10.963  11.541   0.491 -0.2155  0.1885 -0.9676
  549MOL0     C74041  11.111  11.604   0.500 -0.5288  0.1807 -0.2389
  549MOL0     C74042  11.187  11.540   0.618 -0.3744  0.0488  0.0897
  549MOL0     C74043  11.334  11.587   0.613  0.2993 -0.9137  0.6701
  549MOL0     C74044  11.422  11.520   0.702  0.7469  0.2414  0.1998
  549MOL0     C74045  11.502  11.479   0.782 -0.6636  0.3353  0.0673
  549MOL0     C74046  10.719  11.545   0.759 -0.3579 -0.5606 -1.3556
  549MOL0     C74047  10.604  11.482   0.809  0.6646 -0.8666 -0.9636
  549MOL0     H74048  10.188  11.194   0.922 -1.5390  0.1251  1.8551
  549MOL0     H74049   9.950  11.150   0.948  2.5383 -4.7661 -0.6463
  549MOL0     H74050   9.717  11.097   0.927 -1.8796  0.2681 -0.9947
  549MOL0     H74051   9.721  11.266   0.928 -1.4476  1.9541 -1.1433
  549MOL0     H74052   9.498  11.275   0.802 -2.0870 -2.5935 -5.0806
  549MOL0     H74053   9.501  11.109   0.767  1.3947 -0.0783 -0.0039
  549MOL0     H74054   9.344  11.167   0.955  0.4925  0.0750  0.1115
  549MOL0     H74055   9.453  11.035   0.991 -2.1057 -1.1024 -2.1866
  549MOL0     H74056   9.581  11.206   1.126  0.0453  0.7103  0.6261
  549MOL0     H74057   9.468  11.334   1.065  0.2288 -0.3376 -2.4164
  549MOL0     H74058   9.279  11.165   1.159 -1.5889  1.5330  0.5770
  549MOL0     H74059   9.424  11.118   1.251 -0.5788  0.2790  0.2024
  549MOL0     H74060   9.440  11.354   1.330 -1.9264 -2.2202  6.0944
  549MOL0     H74061   9.295  11.398   1.235  0.4145  1.7489  1.3853
  549MOL0     H74062   9.229  11.365   1.462  1.3767  0.1449 -1.1529
  549MOL0     H74063   9.162  11.228   1.369  0.0298 -1.6069  0.7060
  549MOL0     H74064   9.323  11.074   1.467  1.2628 -1.0019  0.6629
  549MOL0     H74065   9.252  11.167   1.600  1.0989 -2.8145  0.8296
  549MOL0     H74066   9.405  11.364   1.706  0.8830  2.4771 -1.4576
  549MOL0     H74067   9.781  11.454   1.660 -0.1347 -2.1968 -0.5852
  549MOL0     H74068   9.633  11.516   1.744  1.3341 -0.4068  3.9080
  549MOL0     H74069   9.657  11.283   1.873 -0.3614 -1.3089 -2.1469
  549MOL0     H74070   9.726  11.433   1.912 -3.4493 -0.3313  0.8107
  549MOL0     H74071   9.939  11.381   1.792 -1.2159  1.2790  1.6793
  549MOL0     H74072   9.873  11.224   1.737 -3.4022 -0.9501  2.4630
  549MOL0     H74073   9.831  11.184   2.006  1.2676  1.2148  2.9851
  549MOL0     H74074   9.963  11.306   2.019  0.5493  2.3968 -2.0131
  549MOL0     H74075   9.976  11.151   2.200 -0.0068  1.3892 -1.0251
  549MOL0     H74076  10.068  11.112   2.428 -1.1058  0.0790 -0.1052
  549MOL0     H74077   9.974  10.954   2.397 -0.1538 -0.5550  2.2425
  549MOL0     H74078  10.144  10.942   2.450 -3.3833 -5.0875 -1.0168
  549MOL0     H74079  10.622  10.798   2.348 -2.2440  0.6681  0.1033
  549MOL0     H74080  10.747  10.659   2.503 -0.3324  0.1536 -1.2597
  549MOL0     H74081  10.650  10.666   2.943 -3.7064 -0.7740  1.0473
  549MOL0     H74082  10.560  10.538   2.856 -2.0359  4.1917 -3.5689
  549MOL0     H74083  10.696  10.443   3.017  0.2011  1.7831  0.3769
  549MOL0     H74084  10.798  10.398   2.884  2.2227 -0.2619 -0.1877
  549MOL0     H74085  10.871  10.675   2.985  1.8380 -0.3692 -1.0415
  549MOL0     H74086  10.964  10.536   2.979 -0.7572 -0.4528 -0.5307
  549MOL0     H74087  10.761  10.583   3.197 -0.5874 -3.4819 -0.6464
  549MOL0     H74088  10.903  10.479   3.195  1.1746  1.4032  2.8171
  549MOL0     H74089  10.939  10.674   3.348 -0.0140  5.0475  0.0829
  549MOL0     H74090  10.947  10.772   3.210 -4.7198  0.1966  2.7223
  549MOL0     H74091  11.105  10.506   3.212  0.2176 -0.6392 -0.2263
  549MOL0     H74092  11.131  10.642   3.113 -1.0184  0.1482  1.0580
  549MOL0     H74093  11.198  10.622   3.402  0.2882  1.5134 -0.0219
  549MOL0     H74094  11.241  10.767   3.305 -0.7161  0.2339 -2.5526
  549MOL0     H74095  11.362  10.477   3.297  1.6099 -0.1711  2.0575
  549MOL0     H74096  11.448  10.627   3.321  0.3175 -0.2720 -0.2997
  549MOL0     H74097  10.475  10.762   2.818 -1.0451  2.2087 -0.5242
  549MOL0     H74098  10.348  10.890   2.656 -0.6043  0.1723 -3.0930
  549MOL0     H74099  10.299  10.827   2.008 -2.4227  0.3325 -2.4131
  549MOL0     H74100  10.184  10.962   1.870 -2.2071  0.6084 -0.0785
  549MOL0     H74101   9.914  11.254   0.537 -1.8883 -1.3836  0.1404
  549MOL0     H74102  10.158  11.269   0.507  0.9345  0.7816  0.1878
  549MOL0     H74103  10.575  11.241   0.580  0.8034 -2.3149  2.0238
  549MOL0     H74104  10.770  11.342   0.495 -0.6439 -0.9626 -0.0272
  549MOL0     H74105  10.966  11.431   0.484 -1.2179  0.0538  0.4095
  549MOL0     H74106  10.912  11.572   0.400 -1.9582  0.2213 -0.0180
  549MOL0     H74107  11.109  11.713   0.507 -2.7191  0.2409 -1.0541
  549MOL0     H74108  11.172  11.574   0.415  0.5652 -0.6268  0.8042
  549MOL0     H74109  11.183  11.431   0.615 -0.9292  0.0843 -1.4038
  549MOL0     H74110  11.138  11.556   0.714  1.4793 -2.1655  1.5228
  549MOL0     H74111  11.337  11.694   0.637  1.7838 -0.0040 -2.9124
  549MOL0     H74112  11.377  11.576   0.514 -1.3370  0.9947 -0.3260
  549MOL0     H74113  11.573  11.449   0.856 -1.4321 -1.4650  0.1317
  549MOL0     H74114  10.747  11.636   0.812 -3.8094  0.0952 -0.4149
  549MOL0     H74115  10.556  11.532   0.892 -1.4391 -0.0777 -2.5357
  550MOL0     O74116   5.373   2.836   9.272 -0.4088  0.5551 -0.5563
  550MOL0     C74117   5.472   2.780   9.319 -0.3106 -0.5440 -0.1391
  550MOL0     O74118   5.491   2.753   9.452 -0.3584 -0.1526 -0.0532
  550MOL0     C74119   5.401   2.796   9.551 -0.1136  0.4803 -0.4781
  550MOL0     C74120   5.446   2.745   9.672  0.2351 -0.4632 -0.5044
  550MOL0     C74121   5.379   2.781   9.796  0.5059  0.0425  0.6009
  550MOL0     C74122   5.270   2.872   9.790 -0.3102 -0.7383 -0.2302
  550MOL0     O74123   5.189   2.912   9.892 -0.0012 -0.0543  0.6247
  550MOL0     C74124   5.265   2.965   9.997 -0.6336  0.6703  0.1377
  550MOL0     C74125   5.217   2.887  10.122  0.3728 -0.1198 -0.1526
  550MOL0     C74126   5.080   2.931  10.171  1.2880  0.2393  0.1408
  550MOL0     C74127   5.047   2.833  10.291  0.1308  0.1412  0.5699
  550MOL0     C74128   4.909   2.865  10.349  0.4086 -1.8124  0.5240
  550MOL0     C74129   4.920   2.977  10.450 -1.1644  0.5069 -0.4916
  550MOL0     C74130   4.978   2.933  10.586 -0.0188 -0.3990 -0.3015
  550MOL0     C74131   4.869   2.895  10.689 -0.5186  0.3211 -0.5718
  550MOL0     N74132   4.920   2.870  10.825 -0.1605 -0.0112 -0.0372
  550MOL0     C74133   4.860   2.908  10.939  0.2472 -0.2220  0.0467
  550MOL0     C74134   4.940   2.854  11.036  0.0357  1.0903  0.5675
  550MOL0     C74135   4.916   2.855  11.186  0.1806 -0.2904  0.4890
  550MOL0     C74136   4.860   2.717  11.236 -0.3593  0.1868 -0.8373
  550MOL0     C74137   4.839   2.711  11.383 -0.1250  0.6354 -0.8508
  550MOL0     C74138   4.811   2.567  11.435 -0.0651  0.4479  0.0692
  550MOL0     O74139   4.685   2.532  11.364  0.1565 -0.8520 -0.4690
  550MOL0     C74140   4.658   2.396  11.346 -0.0771  0.0378  0.6272
  550MOL0     C74141   4.621   2.311  11.446 -0.4698 -0.8121  0.5013
  550MOL0     C74142   4.590   2.175  11.432 -0.6851 -1.2752 -0.1882
  550MOL0     C74143   4.545   2.119  11.556 -0.0200 -0.3689 -0.7510
  550MOL0     C74144   4.612   2.112  11.308 -0.2496 -0.2074 -0.5523
  550MOL0     C74145   4.584   1.968  11.281  0.0887  0.3170  0.1048
  550MOL0     O74146   4.503   1.935  11.168 -0.6985 -0.0770  0.4775
  550MOL0     C74147   4.491   1.807  11.130  0.7591  0.5100 -0.0174
  550MOL0     C74148   4.599   1.732  11.085  0.2352 -0.5032  0.3749
  550MOL0     C74149   4.576   1.595  11.061 -0.4456  0.4879 -1.1084
  550MOL0     C74150   4.454   1.537  11.087 -0.3724 -0.0969  0.4912
  550MOL0     O74151   4.449   1.402  11.063 -0.0509  0.7577 -0.7970
  550MOL0     C74152   4.412   1.313  11.174  0.7824  0.1408  0.0073
  550MOL0     C74153   4.265   1.305  11.207  1.5216 -0.4458  0.7043
  550MOL0     C74154   4.226   1.176  11.278 -0.2285  0.4315 -0.2009
  550MOL0     C74155   4.079   1.128  11.255  0.1734 -0.6813  0.2708
  550MOL0     C74156   3.978   1.223  11.314 -0.0922  0.8035 -0.7884
  550MOL0     C74157   3.844   1.143  11.329  0.5154  0.3301  0.0090
  550MOL0     C74158   3.737   1.224  11.408 -0.0922 -0.0564 -0.5185
  550MOL0     C74159   3.610   1.137  11.434  0.5816 -0.3464 -0.3119
  550MOL0    Cl74160   3.657   0.974  11.525 -0.0060  0.2449  0.2070
  550MOL0     C74161   4.347   1.612  11.139 -0.8281  0.8181  0.4672
  550MOL0     C74162   4.369   1.746  11.164  1.2592  1.3157 -0.3036
  550MOL0     O74163   4.642   1.887  11.358  1.3700  0.4620  0.0167
  550MOL0     C74164   4.649   2.201  11.195  0.1721 -0.7443  0.2319
  550MOL0     C74165   4.675   2.344  11.214  0.1956 -0.0550  0.3190
  550MOL0     N74166   5.042   2.781  10.977  0.4283  1.2232  0.0575
  550MOL0     N74167   5.034   2.802  10.850  0.7132 -0.1959  0.3366
  550MOL0     C74168   5.223   2.909   9.665 -0.4029 -0.1067  1.3640
  550MOL0     C74169   5.282   2.865   9.546 -0.7371  0.4149 -0.0440
  550MOL0     C74170   5.570   2.748   9.216 -0.0583  0.4690 -0.5063
  550MOL0     C74171   5.702   2.734   9.263  0.1511  0.2748 -1.5031
  550MOL0     C74172   5.802   2.705   9.170 -0.4191 -0.6707  1.1663
  550MOL0     C74173   5.773   2.697   9.031 -0.2690 -0.8655 -0.1577
  550MOL0     O74174   5.876   2.677   8.944 -0.6607  0.2763  1.0737
  550MOL0     C74175   5.845   2.679   8.798  0.4304 -0.4505 -0.2873
  550MOL0     C74176   5.968   2.647   8.715  0.7614  1.0360 -0.1929
  550MOL0     C74177   6.083   2.744   8.749  0.2467  0.8474  0.0184
  550MOL0     C74178   6.069   2.887   8.709  0.3998  0.9074  0.1888
  550MOL0     C74179   6.098   2.883   8.563 -1.2566  0.3211 -0.0331
  550MOL0     C74180   6.102   2.864   8.446 -0.3780  1.6807  0.2453
  550MOL0     C74181   5.636   2.717   8.989  0.0650  0.4268  1.6513
  550MOL0     C74182   5.536   2.740   9.081 -0.2702  0.0932  0.8165
  550MOL0     H74183   5.533   2.681   9.672  0.1955 -0.5575  1.2145
  550MOL0     H74184   5.414   2.737   9.888 -2.1791  0.2222  1.8141
  550MOL0     H74185   5.372   2.942   9.987 -0.8784 -0.4535 -0.0633
  550MOL0     H74186   5.247   3.073  10.001 -1.8776  0.4986 -0.6386
  550MOL0     H74187   5.207   2.781  10.096  0.5360 -0.3888  0.8459
  550MOL0     H74188   5.291   2.889  10.202 -0.5562  1.0455  0.7040
  550MOL0     H74189   5.082   3.035  10.205  1.5787  0.8845 -1.7381
  550MOL0     H74190   5.014   2.902  10.089  1.2125 -1.2307  0.6907
  550MOL0     H74191   5.031   2.734  10.246  0.9240  1.0752 -1.9627
  550MOL0     H74192   5.126   2.836  10.366  0.5930 -0.7574  0.1338
  550MOL0     H74193   4.834   2.889  10.273 -0.6217 -1.1131  1.7224
  550MOL0     H74194   4.881   2.780  10.411 -0.1836  0.4503  3.5661
  550MOL0     H74195   4.988   3.052  10.410  3.0536 -3.7292 -2.1657
  550MOL0     H74196   4.823   3.021  10.475 -0.3741  3.7165 -2.4925
  550MOL0     H74197   5.048   2.850  10.576  0.4226  0.0482 -1.0070
  550MOL0     H74198   5.052   3.009  10.612  1.3524 -1.5331 -0.7526
  550MOL0     H74199   4.812   2.809  10.652 -2.2556  1.5317 -0.8287
  550MOL0     H74200   4.799   2.977  10.706  1.1851  1.6108  0.5697
  550MOL0     H74201   4.769   2.966  10.949 -0.4868 -1.2540 -0.4334
  550MOL0     H74202   5.007   2.889  11.237  0.9010  2.7831 -2.4865
  550MOL0     H74203   4.838   2.929  11.209 -0.0943 -0.7360  1.0197
  550MOL0     H74204   4.925   2.634  11.206  0.4701 -0.0396  1.4318
  550MOL0     H74205   4.764   2.699  11.186 -0.3698 -0.1654 -0.6949
  550MOL0     H74206   4.766   2.779  11.427 -0.9897 -1.5201  1.2290
  550MOL0     H74207   4.932   2.738  11.435  1.0607 -1.2243 -1.8892
  550MOL0     H74208   4.800   2.582  11.543  0.1057  3.9052 -0.2845
  550MOL0     H74209   4.894   2.500  11.409 -0.3103  0.5594 -1.0420
  550MOL0     H74210   4.601   2.358  11.542 -1.8698 -3.7223  1.7793
  550MOL0     H74211   4.589   2.021  11.575  1.0507 -0.1152 -1.8235
  550MOL0     H74212   4.566   2.184  11.642 -3.5725 -2.1192  1.7052
  550MOL0     H74213   4.436   2.112  11.552  0.0786 -1.7384 -1.2959
  550MOL0     H74214   4.704   1.754  11.075  1.1839 -4.9396 -2.4678
  550MOL0     H74215   4.655   1.534  11.017  1.5041  1.9487  0.1850
  550MOL0     H74216   4.457   1.216  11.149  0.4392  0.8919 -4.1224
  550MOL0     H74217   4.466   1.348  11.262 -0.0243 -1.4877  1.2105
  550MOL0     H74218   4.243   1.393  11.268 -0.2148  0.1846 -0.7485
  550MOL0     H74219   4.206   1.306  11.115 -1.9990  1.9363  2.7880
  550MOL0     H74220   4.225   1.205  11.384  0.3384 -0.4200  0.0488
  550MOL0     H74221   4.296   1.093  11.263 -3.6340 -2.2728 -2.6817
  550MOL0     H74222   4.056   1.105  11.150  1.1058  1.2236 -0.4023
  550MOL0     H74223   4.072   1.033  11.309 -1.0202  0.9857  3.2089
  550MOL0     H74224   3.966   1.316  11.258 -2.3428  1.4642  0.6281
  550MOL0     H74225   4.010   1.255  11.414  0.9947 -4.0424  0.6616
  550MOL0     H74226   3.808   1.115  11.230 -0.1438 -1.6535  0.7513
  550MOL0     H74227   3.875   1.051  11.380  1.8299  0.1123 -1.1134
  550MOL0     H74228   3.723   1.317  11.353 -0.4623 -1.6889 -3.3535
  550MOL0     H74229   3.777   1.259  11.504 -1.9477  2.7386 -0.6442
  550MOL0     H74230   3.565   1.111  11.338 -1.4650 -0.1033  0.5084
  550MOL0     H74231   3.537   1.198  11.489  2.7234  0.8870  1.2850
  550MOL0     H74232   4.251   1.562  11.153  0.2052 -1.8502 -1.2068
  550MOL0     H74233   4.290   1.804  11.210  1.7296  0.9727  0.9796
  550MOL0     H74234   4.669   2.177  11.091 -3.0723 -0.1685 -0.6387
  550MOL0     H74235   4.702   2.401  11.125 -0.7505  0.8452  0.5852
  550MOL0     H74236   5.147   2.985   9.646  2.2664  2.3037 -0.6887
  550MOL0     H74237   5.245   2.895   9.448  1.3610  0.0783 -0.9809
  550MOL0     H74238   5.729   2.729   9.368  1.5886  1.8142 -1.7582
  550MOL0     H74239   5.904   2.670   9.185  0.3626 -0.5650 -2.7232
  550MOL0     H74240   5.757   2.624   8.761 -0.3248 -0.5121  1.4665
  550MOL0     H74241   5.813   2.781   8.775  1.0554  0.4295  2.3569
  550MOL0     H74242   5.941   2.668   8.612  0.1256  0.4792 -0.1457
  550MOL0     H74243   6.001   2.543   8.712  2.4749  1.5416 -0.2725
  550MOL0     H74244   6.179   2.713   8.707 -1.6571 -1.4236 -3.0434
  550MOL0     H74245   6.103   2.732   8.856  0.4348 -2.2710 -0.2708
  550MOL0     H74246   6.146   2.947   8.758  2.1717  1.0026 -2.4736
  550MOL0     H74247   5.971   2.932   8.731 -1.1934 -2.6480  1.0871
  550MOL0     H74248   6.068   2.844   8.346 -1.6669  0.4163  0.9037
  550MOL0     H74249   5.603   2.721   8.886 -0.1420  2.6908  1.7725
  550MOL0     H74250   5.436   2.748   9.038  0.4154 -0.8374 -1.0696
  551MOL0     O74251   9.660   2.141   5.901 -0.1553  0.3795 -0.4299
  551MOL0     C74252   9.649   2.259   5.863  0.6417  0.8629 -0.4088
  551MOL0     O74253   9.750   2.335   5.811  0.1964  0.4768  0.0677
  551MOL0     C74254   9.868   2.271   5.785 -0.2783 -0.0868 -0.1483
  551MOL0     C74255   9.901   2.182   5.679 -0.4697  0.2238 -0.7724
  551MOL0     C74256  10.027   2.126   5.660  0.9078 -0.1902 -0.0972
  551MOL0     C74257  10.132   2.159   5.752  0.0401  0.1661  0.1497
  551MOL0     O74258  10.262   2.113   5.750 -0.1231 -0.4457 -0.1211
  551MOL0     C74259  10.280   2.010   5.653  0.5173 -0.7206 -0.6427
  551MOL0     C74260  10.422   1.963   5.675  0.3099 -0.1807  0.4676
  551MOL0     C74261  10.517   2.064   5.606 -0.4754  0.1749 -0.4322
  551MOL0     C74262  10.665   2.011   5.627  0.2586  0.1754  0.4376
  551MOL0     C74263  10.762   2.070   5.526 -0.1890 -1.6094 -0.1662
  551MOL0     C74264  10.871   1.971   5.482  0.3776  1.1725  0.2119
  551MOL0     C74265  10.996   2.029   5.426  0.7528 -0.6587  0.3805
  551MOL0     C74266  10.964   2.116   5.299  0.2432  0.3515  0.2635
  551MOL0     N74267  11.080   2.122   5.210 -0.3681  0.1517 -0.6401
  551MOL0     C74268  11.101   2.053   5.095 -1.2460  0.0183  0.2438
  551MOL0     C74269  11.229   2.077   5.076 -0.3173 -0.2566 -0.3835
  551MOL0     C74270  11.304   2.003   4.967  0.4449 -0.1318  0.0155
  551MOL0     C74271  11.352   1.869   5.031 -1.5204  0.2788 -0.0110
  551MOL0     C74272  11.378   1.758   4.921  0.1657 -0.8359 -1.1557
  551MOL0     C74273  11.455   1.631   4.975  0.1937 -0.4710 -1.1067
  551MOL0     O74274  11.458   1.542   4.864 -0.6207 -0.0861  1.0287
  551MOL0     C74275  11.531   1.431   4.886 -1.0131  0.7855 -0.0138
  551MOL0     C74276  11.603   1.389   4.997  0.5189 -1.0169  0.1727
  551MOL0     C74277  11.681   1.274   4.994  1.0704  0.8129  0.1479
  551MOL0     C74278  11.753   1.242   5.123  0.0248  0.3295 -0.6388
  551MOL0     C74279  11.673   1.192   4.870 -0.5750 -0.3478 -0.2849
  551MOL0     C74280  11.769   1.075   4.850 -0.2888  0.7750 -0.7788
  551MOL0     O74281  11.847   1.022   4.950  0.5224  0.7890 -0.4044
  551MOL0     C74282  11.873   0.889   4.938 -1.0737  0.7353  0.7377
  551MOL0     C74283  11.807   0.801   5.021  0.6917 -0.3600  0.2064
  551MOL0     C74284  11.833   0.662   5.019 -0.6867  1.6819  0.5345
  551MOL0     C74285  11.923   0.608   4.924 -0.6882  1.4887  0.3975
  551MOL0     O74286  11.931   0.470   4.926 -0.3949 -0.1906 -0.1973
  551MOL0     C74287  11.896   0.400   4.808 -0.1182 -0.3630  0.1533
  551MOL0     C74288  11.954   0.259   4.816  0.0958  0.1599  0.4870
  551MOL0     C74289  11.961   0.177   4.690 -0.4818 -0.2470 -0.1166
  551MOL0     C74290  11.826   0.139   4.626  0.1049  1.0127 -0.1417
  551MOL0     C74291  11.790  -0.004   4.677 -0.0310 -0.0300 -0.4096
  551MOL0     C74292  11.806  -0.102   4.569  0.1813  0.7005  1.1678
  551MOL0     C74293  11.723  -0.228   4.600 -0.5095  0.6709 -0.3282
  551MOL0     C74294  11.721  -0.315   4.483 -0.4242  0.4063  0.6990
  551MOL0    Cl74295  11.854  -0.437   4.471  0.5007  0.3665  0.1085
  551MOL0     C74296  11.993   0.690   4.837 -0.7925 -0.4813  0.1212
  551MOL0     C74297  11.966   0.830   4.845  0.6307  0.8891 -0.4536
  551MOL0     O74298  11.756   1.022   4.741  0.2065 -0.3229 -0.7502
  551MOL0     C74299  11.595   1.231   4.767  0.6313 -0.9678  0.0406
  551MOL0     C74300  11.535   1.352   4.769 -0.0904 -0.5676 -0.4121
  551MOL0     N74301  11.293   2.150   5.178  0.5897  0.8883  0.2350
  551MOL0     N74302  11.196   2.184   5.258  0.4316  1.1934 -0.1423
  551MOL0     C74303  10.106   2.254   5.852  0.4768  0.5467 -0.3203
  551MOL0     C74304   9.979   2.313   5.862 -1.0251 -0.1899 -0.0598
  551MOL0     C74305   9.512   2.315   5.874  0.2627  0.5843  0.6241
  551MOL0     C74306   9.484   2.455   5.869  0.1092  0.4300  0.5190
  551MOL0     C74307   9.351   2.500   5.873  0.4101 -0.2302  0.2817
  551MOL0     C74308   9.246   2.411   5.899 -0.2931  0.6362 -0.1487
  551MOL0     O74309   9.113   2.461   5.906 -0.1244 -0.8157  0.1840
  551MOL0     C74310   9.092   2.587   5.972  0.3979  0.0042 -1.0237
  551MOL0     C74311   8.950   2.583   6.033 -0.4030 -0.5187 -0.1130
  551MOL0     C74312   8.911   2.698   6.128 -1.0850  0.4372 -0.3586
  551MOL0     C74313   8.934   2.840   6.062  0.3241 -0.7597 -0.1901
  551MOL0     C74314   8.881   2.944   6.163  0.1007 -0.4449  0.6940
  551MOL0     C74315   8.841   3.022   6.242  0.1285 -0.1324 -0.6661
  551MOL0     C74316   9.274   2.278   5.927  0.4535 -0.1070  0.4161
  551MOL0     C74317   9.402   2.235   5.908 -0.4209  0.5543 -0.6537
  551MOL0     H74318   9.820   2.153   5.613  0.4910 -0.9481 -1.4763
  551MOL0     H74319  10.037   2.051   5.582 -0.0713 -0.1805 -0.2398
  551MOL0     H74320  10.210   1.927   5.665  1.6435 -1.5853  0.1916
  551MOL0     H74321  10.282   2.054   5.553  1.9410 -2.0551 -1.2445
  551MOL0     H74322  10.445   1.956   5.781  0.7125  0.5643  0.4318
  551MOL0     H74323  10.438   1.863   5.634 -0.0822 -1.1724  2.6282
  551MOL0     H74324  10.503   2.072   5.497  3.4509  2.1472 -0.9636
  551MOL0     H74325  10.487   2.163   5.641 -0.2223 -0.8369  2.9743
  551MOL0     H74326  10.680   2.037   5.732 -0.2762  0.5153  0.4375
  551MOL0     H74327  10.650   1.905   5.605  0.5968  0.3829 -0.8367
  551MOL0     H74328  10.715   2.118   5.440 -2.4166 -1.9211  0.8268
  551MOL0     H74329  10.818   2.157   5.563  1.5238 -1.7156 -2.3224
  551MOL0     H74330  10.896   1.911   5.570  0.0563 -0.0837 -0.5360
  551MOL0     H74331  10.828   1.897   5.414  2.1404  1.2722 -1.0864
  551MOL0     H74332  11.032   2.097   5.504 -3.4393  1.9642  0.3120
  551MOL0     H74333  11.073   1.955   5.402  2.6917  1.6725 -0.9498
  551MOL0     H74334  10.956   2.216   5.341 -0.8095  0.3448  0.0943
  551MOL0     H74335  10.872   2.089   5.246  0.2297 -1.0653  0.9488
  551MOL0     H74336  11.036   2.007   5.022 -1.0677  0.5070 -0.2321
  551MOL0     H74337  11.237   1.976   4.884  3.7621 -1.6696 -2.3800
  551MOL0     H74338  11.391   2.057   4.929 -0.6322  0.8987 -1.1233
  551MOL0     H74339  11.269   1.825   5.087 -1.8401 -0.0432 -0.7267
  551MOL0     H74340  11.437   1.883   5.098 -0.7400  1.3640 -1.1826
  551MOL0     H74341  11.420   1.805   4.832 -0.3353  2.2514  0.1049
  551MOL0     H74342  11.284   1.728   4.874  0.3299 -0.0582 -2.0025
  551MOL0     H74343  11.400   1.584   5.057 -0.6374  2.7803  0.3609
  551MOL0     H74344  11.553   1.654   5.017 -1.7764 -0.8461  4.6691
  551MOL0     H74345  11.602   1.455   5.083 -0.8410 -0.4830 -0.2288
  551MOL0     H74346  11.859   1.262   5.108  0.0696 -0.8230 -2.0633
  551MOL0     H74347  11.709   1.297   5.207  1.2598  1.4417 -0.6880
  551MOL0     H74348  11.745   1.135   5.146 -0.7470  0.3932 -0.5664
  551MOL0     H74349  11.731   0.826   5.095  0.4681  3.2984 -1.0569
  551MOL0     H74350  11.776   0.594   5.082 -1.5990 -0.0347 -1.9740
  551MOL0     H74351  11.787   0.400   4.810 -0.1065 -0.4659  1.4211
  551MOL0     H74352  11.925   0.452   4.716 -0.6386  0.7499  0.5928
  551MOL0     H74353  12.056   0.262   4.854  0.7092  0.0080 -1.0637
  551MOL0     H74354  11.889   0.198   4.879 -1.4561 -3.8186 -4.3020
  551MOL0     H74355  12.020   0.088   4.716  3.1494  1.8003 -0.5646
  551MOL0     H74356  12.021   0.240   4.623 -0.2665  1.8304  1.8891
  551MOL0     H74357  11.742   0.198   4.663 -0.9800 -0.1944 -0.5697
  551MOL0     H74358  11.832   0.129   4.517  0.6442 -1.8028  0.0674
  551MOL0     H74359  11.690  -0.004   4.722 -0.3329  0.8480 -1.0630
  551MOL0     H74360  11.855  -0.035   4.759  1.0984  0.4285 -1.1195
  551MOL0     H74361  11.765  -0.066   4.474 -0.0418  0.4838  1.1827
  551MOL0     H74362  11.908  -0.139   4.572  0.1167 -0.0867 -2.1066
  551MOL0     H74363  11.621  -0.212   4.637 -1.4354 -0.4573 -2.2752
  551MOL0     H74364  11.779  -0.284   4.675 -0.8275  0.5012 -0.2144
  551MOL0     H74365  11.709  -0.264   4.387 -2.2494  0.7781  1.0756
  551MOL0     H74366  11.629  -0.373   4.498  0.2294 -0.7046  0.5031
  551MOL0     H74367  12.075   0.659   4.773  0.7596  1.6821  0.9428
  551MOL0     H74368  12.008   0.897   4.771 -0.6605  0.0021 -2.0438
  551MOL0     H74369  11.599   1.181   4.671  3.2565  1.0938 -1.0464
  551MOL0     H74370  11.482   1.396   4.685 -0.1731 -1.0719 -0.6329
  551MOL0     H74371  10.185   2.279   5.921 -0.6352 -0.3853  1.3493
  551MOL0     H74372   9.975   2.387   5.942 -1.3208 -0.8802  0.5740
  551MOL0     H74373   9.568   2.521   5.850  0.9017  0.0105  2.3019
  551MOL0     H74374   9.329   2.605   5.860  3.6477  0.4715 -0.3428
  551MOL0     H74375   9.164   2.599   6.054  2.0490 -0.4576 -2.3508
  551MOL0     H74376   9.102   2.668   5.899  2.7171 -2.5460 -3.7437
  551MOL0     H74377   8.954   2.494   6.097  1.4224 -0.1891  0.2784
  551MOL0     H74378   8.873   2.574   5.956 -1.0117  1.4260  0.2317
  551MOL0     H74379   8.981   2.689   6.212 -2.8034 -3.9127  0.8900
  551MOL0     H74380   8.809   2.685   6.165 -0.4796  0.6550  1.4916
  551MOL0     H74381   8.885   2.847   5.964 -0.5372  3.8153  0.3226
  551MOL0     H74382   9.039   2.851   6.033  0.1502 -2.0406 -1.3937
  551MOL0     H74383   8.809   3.087   6.321  0.9518 -1.1217  0.5284
  551MOL0     H74384   9.208   2.199   5.962  0.1487 -0.3006 -0.5878
  551MOL0     H74385   9.415   2.127   5.911 -1.8337  0.3553  2.0866
  552MOL0     O74386   4.437   0.224   3.649  0.9139 -0.3100 -0.0675
  552MOL0     C74387   4.313   0.222   3.646 -0.2264 -0.8226  0.2738
  552MOL0     O74388   4.237   0.206   3.758 -1.0045  0.7751 -0.1379
  552MOL0     C74389   4.301   0.201   3.882  0.0657 -0.4194 -0.0471
  552MOL0     C74390   4.245   0.278   3.982 -0.3441  0.6964  0.1904
  552MOL0     C74391   4.313   0.280   4.102 -0.6278 -0.0072 -0.0259
  552MOL0     C74392   4.431   0.216   4.128  0.7602 -0.5332  0.3118
  552MOL0     O74393   4.488   0.223   4.251  0.3601 -0.0574  0.2050
  552MOL0     C74394   4.630   0.246   4.254  0.8689 -0.5034 -0.0966
  552MOL0     C74395   4.680   0.327   4.376 -0.1423 -1.0778 -0.4583
  552MOL0     C74396   4.587   0.437   4.425 -0.2883 -0.1259 -0.2230
  552MOL0     C74397   4.632   0.477   4.567 -0.1344 -0.5679  0.6453
  552MOL0     C74398   4.546   0.603   4.614 -0.6343 -0.0674  0.0710
  552MOL0     C74399   4.620   0.727   4.555 -0.4027 -0.0148  0.6058
  552MOL0     C74400   4.565   0.864   4.593  0.1169 -0.9991 -0.0744
  552MOL0     C74401   4.412   0.875   4.595 -0.3296 -0.3809  0.3759
  552MOL0     N74402   4.367   1.010   4.569 -0.0344  0.5026  0.4277
  552MOL0     C74403   4.387   1.087   4.460 -0.5667  0.5460  0.0154
  552MOL0     C74404   4.338   1.208   4.494 -0.2272 -0.1647 -0.4118
  552MOL0     C74405   4.345   1.335   4.410 -0.2567  0.8321 -0.6298
  552MOL0     C74406   4.447   1.320   4.287  0.8664  0.2711 -0.2721
  552MOL0     C74407   4.434   1.437   4.186  0.5676  0.2813  0.2088
  552MOL0     C74408   4.530   1.429   4.069 -0.5972 -0.1601 -0.3106
  552MOL0     O74409   4.671   1.415   4.111  0.7668 -0.2474 -0.2015
  552MOL0     C74410   4.737   1.529   4.152  0.5750 -0.1912 -0.4319
  552MOL0     C74411   4.762   1.638   4.072  0.1937  0.2985  0.0415
  552MOL0     C74412   4.824   1.747   4.134  0.0094  0.1810  1.0181
  552MOL0     C74413   4.825   1.873   4.052  0.3213 -0.3605 -0.3031
  552MOL0     C74414   4.877   1.740   4.266  0.0135  0.0268  0.6193
  552MOL0     C74415   4.978   1.832   4.323  0.5998  0.1586  0.9550
  552MOL0     O74416   4.977   1.859   4.464  0.1954  0.8161 -0.4623
  552MOL0     C74417   5.084   1.889   4.539 -0.3899 -0.7567  0.8899
  552MOL0     C74418   5.048   1.940   4.667  0.0502 -1.0867  0.6229
  552MOL0     C74419   5.150   1.962   4.766  0.1784  0.2482  0.5687
  552MOL0     C74420   5.281   1.929   4.731 -0.7226 -0.2258 -0.8778
  552MOL0     O74421   5.380   1.927   4.831  0.5327  0.6330 -0.6072
  552MOL0     C74422   5.369   2.024   4.939 -0.5544 -0.6030 -0.0219
  552MOL0     C74423   5.491   2.040   5.035 -0.1571 -0.0922  0.2448
  552MOL0     C74424   5.617   2.040   4.956 -0.7665 -0.0708  1.2760
  552MOL0     C74425   5.626   2.175   4.872  0.5999  0.5919  0.1031
  552MOL0     C74426   5.746   2.171   4.785  0.3780 -0.5281 -0.5808
  552MOL0     C74427   5.873   2.205   4.863 -1.4907 -0.1695  0.1379
  552MOL0     C74428   5.991   2.232   4.762  0.2540 -0.7334  0.2615
  552MOL0     C74429   6.117   2.227   4.848  0.3829  0.9608  0.8627
  552MOL0    Cl74430   6.155   2.377   4.944  0.2851 -0.4396  0.4144
  552MOL0     C74431   5.312   1.880   4.602  0.6473  0.5002  0.9039
  552MOL0     C74432   5.215   1.858   4.509 -0.3864  0.3323 -0.1236
  552MOL0     O74433   5.044   1.896   4.235 -0.1339  0.0425 -0.8004
  552MOL0     C74434   4.836   1.630   4.338 -0.0110  0.1777  0.2840
  552MOL0     C74435   4.764   1.525   4.284 -0.7186  0.5640 -1.0820
  552MOL0     N74436   4.284   1.200   4.613  0.3234  0.3174  0.3053
  552MOL0     N74437   4.300   1.079   4.653  0.3035 -0.8266 -0.1220
  552MOL0     C74438   4.483   0.135   4.028 -0.4099  0.5274  0.6347
  552MOL0     C74439   4.416   0.117   3.909  0.1215 -0.1806  0.6217
  552MOL0     C74440   4.238   0.250   3.527  0.1861 -0.9987  0.4788
  552MOL0     C74441   4.308   0.313   3.418  0.5717 -0.1273 -0.5577
  552MOL0     C74442   4.240   0.346   3.303  0.3417  0.3658  0.3182
  552MOL0     C74443   4.108   0.310   3.285  0.4651  0.5604  0.0043
  552MOL0     O74444   4.042   0.330   3.165 -0.0384  0.4226 -0.4230
  552MOL0     C74445   4.096   0.409   3.059 -0.5863 -0.4118  0.6764
  552MOL0     C74446   4.194   0.326   2.968 -0.5484  0.3068 -0.5128
  552MOL0     C74447   4.120   0.233   2.869  0.0701 -0.1732  0.4987
  552MOL0     C74448   4.021   0.136   2.930  0.0208 -0.5161 -0.0405
  552MOL0     C74449   4.001   0.023   2.836 -1.1468  0.1047 -0.3445
  552MOL0     C74450   3.996  -0.076   2.770  0.1752 -0.2711  0.8928
  552MOL0     C74451   4.043   0.230   3.385 -0.6317  0.6902  0.6529
  552MOL0     C74452   4.105   0.210   3.508 -0.1108  0.2949  0.0824
  552MOL0     H74453   4.153   0.334   3.973 -1.4575 -0.9523  0.8708
  552MOL0     H74454   4.275   0.348   4.177 -0.9399  1.0899 -1.1559
  552MOL0     H74455   4.669   0.145   4.268 -0.8379 -0.8256  3.4429
  552MOL0     H74456   4.672   0.296   4.167 -0.2259 -1.0197 -0.9345
  552MOL0     H74457   4.687   0.261   4.464 -3.8026 -0.5427  0.4074
  552MOL0     H74458   4.780   0.352   4.339 -0.8224 -0.1168 -1.7175
  552MOL0     H74459   4.570   0.527   4.364  1.1197 -0.2568 -0.8412
  552MOL0     H74460   4.488   0.393   4.434 -0.3254  0.2550  1.6925
  552MOL0     H74461   4.605   0.392   4.630 -2.7690  0.9661  1.7884
  552MOL0     H74462   4.739   0.494   4.581 -0.0456 -2.4163  2.8660
  552MOL0     H74463   4.447   0.580   4.574  0.5598 -1.3355 -2.3820
  552MOL0     H74464   4.547   0.621   4.722 -0.8596 -0.4498  0.1352
  552MOL0     H74465   4.722   0.743   4.590  0.4290  0.4140 -1.8166
  552MOL0     H74466   4.617   0.728   4.445 -1.3207  0.9941  0.6249
  552MOL0     H74467   4.595   0.886   4.696  1.9777 -1.0088 -0.5927
  552MOL0     H74468   4.611   0.946   4.538  0.2658 -0.2126  1.1887
  552MOL0     H74469   4.376   0.842   4.693 -3.7282 -4.7950 -1.9537
  552MOL0     H74470   4.362   0.811   4.521  1.2294  2.3885 -3.3766
  552MOL0     H74471   4.430   1.052   4.367  2.3803  0.5575  1.2380
  552MOL0     H74472   4.241   1.354   4.381 -2.3649  1.0974  5.5775
  552MOL0     H74473   4.376   1.412   4.481 -1.0436 -0.4292  1.1480
  552MOL0     H74474   4.438   1.223   4.236  3.4861 -0.2068  0.0034
  552MOL0     H74475   4.547   1.327   4.332  0.5128  1.2020  0.3834
  552MOL0     H74476   4.441   1.538   4.228  1.7453  0.4383 -0.3261
  552MOL0     H74477   4.332   1.449   4.149 -0.0045 -0.4208  1.4922
  552MOL0     H74478   4.519   1.516   4.005 -0.1214 -0.2687 -0.5436
  552MOL0     H74479   4.502   1.342   4.009 -0.0496 -0.0811 -0.6898
  552MOL0     H74480   4.710   1.645   3.977  1.7154  0.5081 -0.8117
  552MOL0     H74481   4.730   1.885   4.000  0.1740 -1.8161 -0.4211
  552MOL0     H74482   4.829   1.957   4.121  0.5043  0.5552 -1.4101
  552MOL0     H74483   4.893   1.871   3.966 -1.7867 -1.7649 -2.0655
  552MOL0     H74484   4.943   1.963   4.682 -1.4071 -4.5275 -2.4650
  552MOL0     H74485   5.121   1.989   4.867 -2.3438  0.6099 -0.1813
  552MOL0     H74486   5.359   2.122   4.892 -0.1802 -0.0450  1.0321
  552MOL0     H74487   5.280   2.014   5.002 -0.4810  3.3150  0.9649
  552MOL0     H74488   5.493   2.127   5.101  1.9099  0.0700  0.0375
  552MOL0     H74489   5.492   1.947   5.093  2.9467  0.5993  1.4501
  552MOL0     H74490   5.616   1.957   4.885  0.3774  0.5678  0.4860
  552MOL0     H74491   5.712   2.029   5.009  1.7296  1.8248 -2.3873
  552MOL0     H74492   5.539   2.177   4.806  1.8919 -1.8549 -1.8422
  552MOL0     H74493   5.630   2.261   4.940 -1.4067  1.6351 -1.0176
  552MOL0     H74494   5.737   2.245   4.704 -1.0233 -0.4460 -0.3799
  552MOL0     H74495   5.749   2.072   4.739  1.4475 -1.0542  0.5654
  552MOL0     H74496   5.861   2.291   4.930 -3.0551 -2.2393  2.6876
  552MOL0     H74497   5.893   2.109   4.910  0.7292  1.9098  4.0010
  552MOL0     H74498   5.986   2.321   4.699 -1.8723 -2.8554 -2.8781
  552MOL0     H74499   5.973   2.159   4.683  2.0740 -0.1868 -0.7157
  552MOL0     H74500   6.196   2.217   4.772 -1.1879 -2.4946 -0.5076
  552MOL0     H74501   6.117   2.131   4.899 -2.4753  1.2961  1.6362
  552MOL0     H74502   5.418   1.868   4.584  0.5129 -0.9750  0.9979
  552MOL0     H74503   5.242   1.817   4.412  0.1757  0.7847 -0.1584
  552MOL0     H74504   4.871   1.618   4.440 -0.6213  2.9178  0.9125
  552MOL0     H74505   4.738   1.440   4.347  0.2522  0.9017 -0.1790
  552MOL0     H74506   4.572   0.076   4.049 -1.7042 -0.6122  3.3230
  552MOL0     H74507   4.468   0.059   3.833  0.7556  0.0794  0.8495
  552MOL0     H74508   4.413   0.342   3.421  0.1173  1.7027 -1.3619
  552MOL0     H74509   4.293   0.401   3.227 -1.9604 -0.7473 -2.2584
  552MOL0     H74510   4.016   0.453   3.000  1.4483 -0.4922 -2.3620
  552MOL0     H74511   4.155   0.492   3.100 -0.9300  0.0625  0.2213
  552MOL0     H74512   4.254   0.270   3.040 -3.4987  2.9769  4.6081
  552MOL0     H74513   4.262   0.393   2.915  1.1675  1.1671  2.4975
  552MOL0     H74514   4.196   0.184   2.808 -0.5422 -0.5360  0.0145
  552MOL0     H74515   4.068   0.292   2.792  2.0545  0.7660 -0.1855
  552MOL0     H74516   3.926   0.190   2.942  0.3970  0.4990 -1.4068
  552MOL0     H74517   4.055   0.100   3.027 -0.8541  0.8876  0.8259
  552MOL0     H74518   4.013  -0.157   2.701 -1.6595 -0.3469  0.4809
  552MOL0     H74519   3.948   0.178   3.370 -0.2372  0.5717 -1.7664
  552MOL0     H74520   4.068   0.157   3.596  0.9590  1.8081  1.4958
  553MOL0     O74521   0.805   7.215   7.416 -0.5408  0.1578 -0.3852
  553MOL0     C74522   0.744   7.230   7.306 -0.5257 -0.1501  0.3019
  553MOL0     O74523   0.699   7.346   7.262  0.7408  0.1194 -0.1077
  553MOL0     C74524   0.735   7.451   7.338 -0.1784 -0.6005  0.2435
  553MOL0     C74525   0.858   7.515   7.316 -0.2573 -0.1376 -0.4414
  553MOL0     C74526   0.895   7.632   7.394  0.4549  0.9875  1.3183
  553MOL0     C74527   0.801   7.673   7.495 -0.5796 -0.3134 -0.5559
  553MOL0     O74528   0.825   7.791   7.562 -0.0726 -0.3235 -0.6610
  553MOL0     C74529   0.828   7.792   7.707 -0.6873 -0.1729 -0.0701
  553MOL0     C74530   0.812   7.941   7.753 -0.5446  0.2786  0.4418
  553MOL0     C74531   0.937   8.022   7.732 -0.8814 -0.2467  0.4212
  553MOL0     C74532   0.941   8.174   7.772 -0.0997 -0.0385  0.1904
  553MOL0     C74533   0.923   8.191   7.925 -0.9301  0.3488  0.2455
  553MOL0     C74534   1.017   8.114   8.020  0.9079  0.2389  1.3236
  553MOL0     C74535   0.925   8.071   8.136 -0.5379  0.2061  0.2849
  553MOL0     C74536   1.007   7.999   8.248  0.6324 -1.1248  1.0524
  553MOL0     N74537   1.130   8.057   8.296 -0.2535  1.0478 -0.2393
  553MOL0     C74538   1.115   8.168   8.367 -0.2465  0.0300 -0.0835
  553MOL0     C74539   1.236   8.229   8.379  0.2832  0.4378 -0.2864
  553MOL0     C74540   1.262   8.364   8.450 -0.5576  0.8243 -0.1477
  553MOL0     C74541   1.254   8.364   8.600 -0.0909 -1.0630 -0.0815
  553MOL0     C74542   1.296   8.495   8.665  0.1427  0.3939  0.1935
  553MOL0     C74543   1.181   8.600   8.653 -0.4286 -0.2979 -0.5478
  553MOL0     O74544   1.213   8.690   8.545 -0.1171  0.1933 -0.0127
  553MOL0     C74545   1.130   8.790   8.520  0.2547 -0.6466 -0.4000
  553MOL0     C74546   1.000   8.809   8.573  0.4064 -0.2679 -0.2158
  553MOL0     C74547   0.918   8.913   8.538 -0.5637 -0.2290  0.0044
  553MOL0     C74548   0.788   8.905   8.611 -0.1855 -0.1265  0.1439
  553MOL0     C74549   0.955   8.993   8.422 -0.6297 -0.1832  0.0731
  553MOL0     C74550   0.859   9.095   8.362 -0.2917  0.8663 -0.0759
  553MOL0     O74551   0.920   9.189   8.289  0.2700  0.5517  0.1811
  553MOL0     C74552   0.833   9.295   8.257 -0.2185 -0.7683  0.3636
  553MOL0     C74553   0.771   9.292   8.131  0.6277  0.0763  0.3802
  553MOL0     C74554   0.692   9.395   8.079 -0.6157  0.4989  0.9496
  553MOL0     C74555   0.655   9.496   8.164 -0.8207 -0.1375  0.7718
  553MOL0     O74556   0.568   9.592   8.138 -0.4358 -0.2037 -0.3412
  553MOL0     C74557   0.579   9.665   8.007 -0.9213  0.5967 -1.1345
  553MOL0     C74558   0.542   9.806   8.020  0.0666 -0.8138 -0.2000
  553MOL0     C74559   0.631   9.862   8.139 -0.0596  0.1948  0.9773
  553MOL0     C74560   0.690   9.993   8.089  0.4908 -0.4767  0.5249
  553MOL0     C74561   0.743  10.088   8.201 -0.5098 -0.5722 -0.0807
  553MOL0     C74562   0.850  10.189   8.153  0.7195 -0.4113 -1.2084
  553MOL0     C74563   0.885  10.273   8.278  0.1800 -0.4925  0.2276
  553MOL0     C74564   0.916  10.414   8.252  0.3852 -0.1308  0.4240
  553MOL0    Cl74565   0.965  10.503   8.406  0.0551  0.0418  0.2571
  553MOL0     C74566   0.710   9.496   8.296  0.1672 -0.6458  0.6200
  553MOL0     C74567   0.797   9.394   8.340  0.0031  0.6926  1.0976
  553MOL0     O74568   0.739   9.076   8.356  0.4161 -0.4631 -0.0462
  553MOL0     C74569   1.081   8.973   8.364 -0.9752  0.1360 -0.2586
  553MOL0     C74570   1.164   8.867   8.415  0.0934 -0.8087  0.2693
  553MOL0     N74571   1.328   8.150   8.313  0.3107  0.3840  0.5340
  553MOL0     N74572   1.261   8.053   8.266 -0.0228  0.7031  0.3265
  553MOL0     C74573   0.676   7.609   7.508 -0.4014 -0.0214  0.8678
  553MOL0     C74574   0.640   7.507   7.423 -0.4572 -0.1336  0.8566
  553MOL0     C74575   0.716   7.117   7.211  0.7768 -0.1983  0.0399
  553MOL0     C74576   0.772   6.992   7.234  1.4320 -0.4648  0.4269
  553MOL0     C74577   0.761   6.887   7.146  0.2212 -0.9796 -0.6674
  553MOL0     C74578   0.676   6.898   7.040 -0.3138 -0.2555 -0.9790
  553MOL0     O74579   0.621   6.790   6.980  0.1371 -0.2675  0.0507
  553MOL0     C74580   0.591   6.665   7.044  0.0390  0.1206 -0.0149
  553MOL0     C74581   0.480   6.593   6.971  0.6988  1.3085  0.4318
  553MOL0     C74582   0.335   6.641   7.001  0.1009 -1.1690 -0.2258
  553MOL0     C74583   0.290   6.788   6.959  0.2693  1.1250 -0.3767
  553MOL0     C74584   0.270   6.787   6.812 -0.5370  0.6969  0.6220
  553MOL0     C74585   0.245   6.806   6.693 -0.8514 -0.4592  0.2876
  553MOL0     C74586   0.630   7.029   7.011  0.5019  0.0735  0.7069
  553MOL0     C74587   0.653   7.140   7.087 -0.0319 -0.2266  0.1642
  553MOL0     H74588   0.921   7.504   7.228 -3.4629  0.6048 -3.0359
  553MOL0     H74589   0.985   7.685   7.363  0.4673  1.2908  1.8581
  553MOL0     H74590   0.741   7.731   7.732 -2.2995  0.1956 -4.0419
  553MOL0     H74591   0.919   7.747   7.748  0.1137  0.2060 -1.3761
  553MOL0     H74592   0.733   7.995   7.699 -0.9330 -0.3954  0.3314
  553MOL0     H74593   0.791   7.952   7.860 -1.1122  3.1340  0.1299
  553MOL0     H74594   1.019   7.971   7.784  1.1697 -0.0805 -2.4480
  553MOL0     H74595   0.944   8.029   7.624 -4.6020  1.3636  0.1333
  553MOL0     H74596   1.040   8.216   7.752  0.2430  1.6850  4.4047
  553MOL0     H74597   0.860   8.226   7.720  0.5770 -3.0804 -4.4747
  553MOL0     H74598   0.934   8.296   7.955  2.9759  0.7299 -1.9541
  553MOL0     H74599   0.818   8.166   7.945  0.1450 -2.3331  3.3915
  553MOL0     H74600   1.060   8.020   7.986 -0.3091  0.7047 -1.8240
  553MOL0     H74601   1.101   8.181   8.041 -1.3262  2.4847  3.9130
  553MOL0     H74602   0.882   8.162   8.180 -3.0323 -1.0372  0.5634
  553MOL0     H74603   0.846   8.000   8.110 -0.7485  0.3415  0.5568
  553MOL0     H74604   1.047   7.912   8.195 -0.5050  0.8192 -3.5904
  553MOL0     H74605   0.943   7.975   8.333  2.5104 -1.6582  2.3823
  553MOL0     H74606   1.025   8.201   8.419  0.8279 -0.9836  2.5949
  553MOL0     H74607   1.363   8.403   8.434 -0.5600  0.2727 -1.7023
  553MOL0     H74608   1.197   8.439   8.404 -0.9427 -0.7863 -2.3876
  553MOL0     H74609   1.330   8.289   8.625 -0.2867 -1.4906 -0.7411
  553MOL0     H74610   1.158   8.336   8.643 -0.8856  1.3002 -0.1397
  553MOL0     H74611   1.391   8.537   8.631 -1.3276  4.0175  0.1364
  553MOL0     H74612   1.320   8.472   8.769  1.7383  4.0533  0.7913
  553MOL0     H74613   1.177   8.661   8.744 -0.8165  1.0849 -1.4567
  553MOL0     H74614   1.084   8.549   8.642 -0.9445 -0.2380  2.5726
  553MOL0     H74615   0.970   8.737   8.649  2.5519 -0.5302  0.4331
  553MOL0     H74616   0.718   8.844   8.553  0.7531 -1.4039  0.3126
  553MOL0     H74617   0.791   8.848   8.704 -0.7680  2.4326  1.8445
  553MOL0     H74618   0.746   9.005   8.624 -3.6000 -1.1703 -1.6233
  553MOL0     H74619   0.785   9.205   8.067 -0.5130  1.2900 -1.6237
  553MOL0     H74620   0.662   9.392   7.975 -0.8649  2.8601  0.8970
  553MOL0     H74621   0.680   9.662   7.965 -1.6887 -1.0270 -2.9980
  553MOL0     H74622   0.521   9.609   7.934 -0.3207 -3.3442  1.1136
  553MOL0     H74623   0.552   9.862   7.927  1.7512 -2.0077 -0.7888
  553MOL0     H74624   0.439   9.815   8.055 -0.2926 -1.0063 -1.1818
  553MOL0     H74625   0.721   9.801   8.157 -0.5993 -1.0087 -0.2154
  553MOL0     H74626   0.578   9.861   8.234 -0.4571 -1.3541  0.7604
  553MOL0     H74627   0.762   9.965   8.012  0.7454 -0.0725  0.6157
  553MOL0     H74628   0.599  10.033   8.042  1.3661 -1.1405 -1.8878
  553MOL0     H74629   0.788  10.027   8.280 -1.9938  0.6599  1.8012
  553MOL0     H74630   0.656  10.132   8.251 -0.9297 -3.3752  1.9211
  553MOL0     H74631   0.943  10.141   8.122  0.2709 -2.8421  0.9355
  553MOL0     H74632   0.809  10.253   8.074 -0.8743  0.6688  0.4294
  553MOL0     H74633   0.969  10.231   8.334  1.9481  2.3099 -0.1006
  553MOL0     H74634   0.804  10.256   8.349  1.8349 -0.2440  2.2553
  553MOL0     H74635   0.825  10.458   8.211  1.3511  2.3012  0.6970
  553MOL0     H74636   0.998  10.417   8.179 -1.2915  1.4465 -1.5279
  553MOL0     H74637   0.687   9.575   8.367  3.3155  2.6971 -1.7293
  553MOL0     H74638   0.831   9.384   8.443 -1.4582  1.3550  1.6630
  553MOL0     H74639   1.117   9.024   8.276  1.6628  0.7387  1.0926
  553MOL0     H74640   1.262   8.849   8.372 -0.0603 -1.1181  0.0434
  553MOL0     H74641   0.602   7.657   7.572  1.5458  1.6065  1.9989
  553MOL0     H74642   0.544   7.457   7.432  0.4693 -2.3039 -0.4673
  553MOL0     H74643   0.833   6.979   7.323  2.2749  1.5936  0.2121
  553MOL0     H74644   0.799   6.787   7.159  1.7905 -0.3150  0.1247
  553MOL0     H74645   0.687   6.614   7.038 -1.7147 -3.3300 -2.9098
  553MOL0     H74646   0.555   6.677   7.147  3.1326 -1.1005  1.3201
  553MOL0     H74647   0.481   6.486   6.993 -1.7191  1.0253 -0.4213
  553MOL0     H74648   0.496   6.601   6.863 -0.2487 -0.0198  0.1646
  553MOL0     H74649   0.328   6.638   7.110 -2.0288  1.7434 -0.1795
  553MOL0     H74650   0.265   6.574   6.951 -0.0060 -1.7402  0.6709
  553MOL0     H74651   0.370   6.852   6.997 -0.2821  2.4153 -1.3347
  553MOL0     H74652   0.202   6.823   7.014  2.5323  3.4603  2.0779
  553MOL0     H74653   0.226   6.812   6.588 -1.4628 -3.1961  0.1499
  553MOL0     H74654   0.571   7.047   6.921  1.2154  0.3775  0.2960
  553MOL0     H74655   0.620   7.238   7.054  1.5411  0.6303  1.0030
  554MOL0     O74656   7.036   9.908   5.762  0.6338  0.3252 -0.4541
  554MOL0     C74657   7.155   9.884   5.782 -0.0465  0.2114 -0.5673
  554MOL0     O74658   7.202   9.825   5.898  0.0197  0.4990  0.4482
  554MOL0     C74659   7.121   9.836   6.006 -0.1041 -0.2553  0.3428
  554MOL0     C74660   7.060   9.718   6.047  0.2316  0.6521 -0.2581
  554MOL0     C74661   6.981   9.717   6.168 -0.4219 -0.0790  0.2101
  554MOL0     C74662   6.965   9.837   6.245  0.0944 -0.1604  0.1502
  554MOL0     O74663   6.898   9.851   6.366  0.1576 -0.2236  0.1943
  554MOL0     C74664   6.815   9.748   6.410  0.1153  0.8127  0.1786
  554MOL0     C74665   6.723   9.810   6.510 -0.8270 -0.4944 -0.2940
  554MOL0     C74666   6.614   9.892   6.463 -0.2905  0.3332  0.2280
  554MOL0     C74667   6.657  10.025   6.379 -0.9237  0.6048  0.1401
  554MOL0     C74668   6.539  10.127   6.344 -0.1936  0.2115  0.0420
  554MOL0     C74669   6.411  10.052   6.292  0.1342  0.9567 -0.9947
  554MOL0     C74670   6.456   9.979   6.161 -0.3450 -0.3968  0.0896
  554MOL0     C74671   6.321   9.909   6.108  0.7408 -0.4652  1.1656
  554MOL0     N74672   6.360   9.775   6.072  0.1026 -0.5120  0.8981
  554MOL0     C74673   6.382   9.742   5.940 -0.8380  0.0708 -0.2887
  554MOL0     C74674   6.393   9.606   5.932 -0.4424  0.2521 -0.1502
  554MOL0     C74675   6.408   9.520   5.804  0.0667  0.1740 -0.6072
  554MOL0     C74676   6.547   9.463   5.781  0.2329  0.5601 -0.0780
  554MOL0     C74677   6.583   9.400   5.648  0.4181 -0.4909 -0.1759
  554MOL0     C74678   6.538   9.255   5.642  1.2208 -0.1350  0.0308
  554MOL0     O74679   6.395   9.268   5.634 -0.2253  0.5029 -0.3658
  554MOL0     C74680   6.321   9.153   5.612 -0.2411  0.3455 -0.0187
  554MOL0     C74681   6.370   9.021   5.614  1.0231 -0.3304 -0.3457
  554MOL0     C74682   6.292   8.916   5.568 -0.0985 -0.0967 -0.1216
  554MOL0     C74683   6.356   8.781   5.577 -0.0142  0.4921  0.0871
  554MOL0     C74684   6.165   8.938   5.520  0.7045  0.3715 -0.3239
  554MOL0     C74685   6.080   8.823   5.473  0.4341 -0.2098 -1.1816
  554MOL0     O74686   5.967   8.790   5.537  0.9080 -0.3169  0.2846
  554MOL0     C74687   5.959   8.822   5.666 -0.4065 -0.2149 -0.4382
  554MOL0     C74688   6.001   8.744   5.768  0.6737  0.0127 -0.9222
  554MOL0     C74689   5.973   8.777   5.902 -1.0976  0.6878 -0.2430
  554MOL0     C74690   5.893   8.892   5.926 -1.3814  0.8597  0.6383
  554MOL0     O74691   5.873   8.916   6.061  0.0374 -0.3940 -0.1715
  554MOL0     C74692   5.771   9.017   6.090 -0.0637 -0.6093  0.3885
  554MOL0     C74693   5.744   9.023   6.234  0.2019 -0.1705  0.1496
  554MOL0     C74694   5.659   8.899   6.284  0.1049  0.3397 -0.1900
  554MOL0     C74695   5.652   8.884   6.431 -0.2252 -0.6089  0.4502
  554MOL0     C74696   5.576   8.754   6.465 -0.0621 -0.1992 -0.2699
  554MOL0     C74697   5.575   8.730   6.615 -0.2524 -0.1285 -1.3079
  554MOL0     C74698   5.520   8.857   6.696 -0.8369 -0.9343 -0.1237
  554MOL0     C74699   5.481   8.829   6.840  0.8294  0.1127 -0.2152
  554MOL0    Cl74700   5.614   8.762   6.935 -0.3549  0.2754 -0.7797
  554MOL0     C74701   5.848   8.975   5.828 -0.3587 -0.2418  0.7899
  554MOL0     C74702   5.880   8.941   5.696 -1.2627 -0.1412 -0.5216
  554MOL0     O74703   6.100   8.795   5.355  0.0469 -0.6754 -0.0602
  554MOL0     C74704   6.111   9.062   5.519  0.2789  0.0619 -0.1718
  554MOL0     C74705   6.189   9.171   5.568  0.0821  0.8675 -0.0419
  554MOL0     N74706   6.351   9.557   6.055  0.4479 -0.0478  0.6839
  554MOL0     N74707   6.335   9.654   6.137  0.5867  0.4847 -0.2061
  554MOL0     C74708   7.044   9.950   6.203  0.7676 -0.7464 -0.5437
  554MOL0     C74709   7.110   9.953   6.081  0.9041 -0.8865  0.0172
  554MOL0     C74710   7.252   9.920   5.678  0.7135 -0.7576  0.3456
  554MOL0     C74711   7.377   9.925   5.714  0.1591 -0.1427  0.3473
  554MOL0     C74712   7.469   9.987   5.637 -0.9091  0.5300  0.1086
  554MOL0     C74713   7.441  10.045   5.511  0.0495  1.1466 -0.3759
  554MOL0     O74714   7.541  10.103   5.434  0.1422 -0.0745 -0.3827
  554MOL0     C74715   7.677  10.116   5.477  0.8453  0.0406 -0.3325
  554MOL0     C74716   7.754  10.185   5.357 -0.7099  0.2855  0.2573
  554MOL0     C74717   7.710  10.322   5.325 -0.7847 -0.3929 -0.4134
  554MOL0     C74718   7.756  10.384   5.186  0.1145  0.1971  0.8799
  554MOL0     C74719   7.907  10.392   5.173 -0.2684 -0.5039 -0.1949
  554MOL0     C74720   8.030  10.404   5.168 -0.9306  1.1169 -0.9629
  554MOL0     C74721   7.304  10.035   5.467 -0.3230 -0.0889  0.8850
  554MOL0     C74722   7.210   9.968   5.553  0.8641 -0.5226 -0.1505
  554MOL0     H74723   7.069   9.633   5.980 -2.6293 -0.1173  0.2060
  554MOL0     H74724   6.926   9.629   6.199  2.4550 -2.3175 -0.5632
  554MOL0     H74725   6.760   9.689   6.336 -0.0043  0.4386  0.5597
  554MOL0     H74726   6.892   9.683   6.453  1.7319  1.9721 -0.8333
  554MOL0     H74727   6.675   9.725   6.561 -1.9533  0.3216  0.0385
  554MOL0     H74728   6.773   9.871   6.585 -1.6421  2.0302 -1.6840
  554MOL0     H74729   6.564   9.832   6.387 -1.0671  1.4805 -0.1952
  554MOL0     H74730   6.550   9.927   6.544  0.4745  0.6739  0.7052
  554MOL0     H74731   6.735  10.076   6.437  1.2429 -0.8704 -1.3500
  554MOL0     H74732   6.719   9.993   6.295  2.4273  0.3667  2.4825
  554MOL0     H74733   6.508  10.178   6.436 -1.0488 -0.2987  0.0493
  554MOL0     H74734   6.578  10.208   6.282  0.8680  0.6364  1.2172
  554MOL0     H74735   6.384   9.979   6.369  0.7798  0.6383 -1.0654
  554MOL0     H74736   6.326  10.118   6.275 -2.4186 -0.9861  2.8319
  554MOL0     H74737   6.493  10.047   6.084 -3.0071  1.2760  0.1925
  554MOL0     H74738   6.535   9.908   6.187  0.2627  0.4564  0.6570
  554MOL0     H74739   6.280   9.969   6.026 -0.0309 -0.5729  1.4634
  554MOL0     H74740   6.242   9.904   6.183 -2.9758  2.3777 -2.0794
  554MOL0     H74741   6.397   9.817   5.864  0.5183  0.4090  0.2776
  554MOL0     H74742   6.318   9.458   5.805 -0.3958  0.8244 -0.5814
  554MOL0     H74743   6.386   9.582   5.717  0.6015  0.4270 -0.5658
  554MOL0     H74744   6.578   9.403   5.867 -1.6151  2.3379  1.9393
  554MOL0     H74745   6.616   9.548   5.787  1.5308 -0.5198  0.8845
  554MOL0     H74746   6.692   9.403   5.637  0.1605  1.5028 -3.3879
  554MOL0     H74747   6.541   9.448   5.560 -5.4983 -1.5603  1.6194
  554MOL0     H74748   6.572   9.210   5.736 -0.3961  0.4012  0.9084
  554MOL0     H74749   6.574   9.208   5.549  2.1574  0.5001  0.0612
  554MOL0     H74750   6.473   9.003   5.642  2.0595  2.4305 -1.9691
  554MOL0     H74751   6.317   8.722   5.660  2.0186  0.8603  1.4021
  554MOL0     H74752   6.346   8.730   5.480  1.2707 -0.1406  0.2599
  554MOL0     H74753   6.464   8.781   5.599  0.2085 -1.8602 -0.7699
  554MOL0     H74754   6.044   8.652   5.732  1.3194  0.1739 -0.5771
  554MOL0     H74755   6.014   8.711   5.978 -0.5822  1.6641  0.3409
  554MOL0     H74756   5.809   9.115   6.061  0.3025 -0.7323  0.4513
  554MOL0     H74757   5.675   9.001   6.038  0.5423  0.1251 -0.9998
  554MOL0     H74758   5.838   9.027   6.289  0.1177  1.8332  0.2193
  554MOL0     H74759   5.691   9.118   6.252  2.8067  1.7828 -1.7297
  554MOL0     H74760   5.693   8.801   6.247 -2.2514 -0.9041  0.7215
  554MOL0     H74761   5.559   8.909   6.242 -0.5722 -0.5410  1.1452
  554MOL0     H74762   5.752   8.878   6.476 -0.4034 -1.5740  0.7416
  554MOL0     H74763   5.613   8.976   6.475  3.0909  0.6225  1.1505
  554MOL0     H74764   5.627   8.667   6.421  1.8177 -0.2275  1.8068
  554MOL0     H74765   5.479   8.759   6.414  0.6874 -0.4267 -1.7798
  554MOL0     H74766   5.515   8.641   6.638  3.8144 -2.4646  1.4658
  554MOL0     H74767   5.671   8.697   6.655 -0.6496 -1.7428 -1.6062
  554MOL0     H74768   5.435   8.901   6.643  1.3016 -0.3589 -3.3673
  554MOL0     H74769   5.591   8.940   6.687 -1.2503 -0.7504 -2.6368
  554MOL0     H74770   5.398   8.759   6.833  2.0089 -1.2197 -1.3579
  554MOL0     H74771   5.443   8.922   6.883  1.0502  0.0850  0.0457
  554MOL0     H74772   5.810   9.075   5.847 -1.2100 -1.0958  4.4454
  554MOL0     H74773   5.860   9.005   5.610  1.8328  2.1230  0.2270
  554MOL0     H74774   6.013   9.081   5.477 -0.2206  0.3312  1.0768
  554MOL0     H74775   6.149   9.271   5.571 -0.9626  0.5839  4.6030
  554MOL0     H74776   7.044  10.033   6.274  2.8726 -1.0940 -0.0700
  554MOL0     H74777   7.133  10.046   6.029 -4.1145  1.5480  1.4811
  554MOL0     H74778   7.409   9.887   5.811 -0.5943  2.1242  1.5676
  554MOL0     H74779   7.571   9.996   5.672 -0.1783 -0.7459 -1.5425
  554MOL0     H74780   7.691  10.173   5.569 -2.4117 -1.0397  0.9769
  554MOL0     H74781   7.727  10.020   5.493 -0.6493 -0.3898  2.2398
  554MOL0     H74782   7.753  10.125   5.266  4.5987  0.4996 -0.2031
  554MOL0     H74783   7.861  10.173   5.373 -0.5446  0.4758 -0.6756
  554MOL0     H74784   7.749  10.379   5.410 -0.9871 -3.1120  1.6509
  554MOL0     H74785   7.602  10.339   5.331 -0.1461  4.8952  0.7182
  554MOL0     H74786   7.717  10.486   5.176  1.6046  0.7990  0.9186
  554MOL0     H74787   7.720  10.320   5.105  1.8695  0.2961 -0.0405
  554MOL0     H74788   8.136  10.401   5.157 -0.5160 -2.3155  1.9799
  554MOL0     H74789   7.280  10.078   5.371 -1.8934 -0.8740  0.8996
  554MOL0     H74790   7.106   9.958   5.524  1.3247 -1.3154 -1.6048
  555MOL0     O74791   2.575   3.420   1.225  0.3167  0.0353 -0.0030
  555MOL0     C74792   2.516   3.361   1.136  0.2367 -0.3557  0.1482
  555MOL0     O74793   2.394   3.402   1.083 -0.0412 -0.3372  0.5043
  555MOL0     C74794   2.353   3.532   1.092 -0.9741 -0.7008  0.4589
  555MOL0     C74795   2.231   3.554   1.157 -0.1568 -0.7388 -0.1111
  555MOL0     C74796   2.194   3.688   1.186 -0.7641 -0.4472 -0.1770
  555MOL0     C74797   2.268   3.792   1.143 -1.1225 -1.1737  0.1457
  555MOL0     O74798   2.225   3.910   1.178  0.7556 -0.2936 -0.2860
  555MOL0     C74799   2.188   3.994   1.072 -0.4119  0.6591 -0.4649
  555MOL0     C74800   2.315   4.087   1.063 -0.5787 -0.1340 -0.7127
  555MOL0     C74801   2.398   4.112   1.191 -0.4585  0.0047 -0.4779
  555MOL0     C74802   2.540   4.167   1.151 -0.3928  0.1330 -0.5250
  555MOL0     C74803   2.630   4.165   1.278 -0.3071 -0.9132 -0.2258
  555MOL0     C74804   2.784   4.193   1.245 -0.6263 -0.3548  0.3921
  555MOL0     C74805   2.865   4.153   1.363  0.2375  0.5095 -0.0944
  555MOL0     C74806   2.842   4.223   1.497  0.1900 -0.4369 -0.9947
  555MOL0     N74807   2.978   4.258   1.556  0.6887  0.2377 -0.6561
  555MOL0     C74808   3.047   4.373   1.529  0.2947 -0.0578 -0.1758
  555MOL0     C74809   3.161   4.368   1.601  0.0680  0.1384 -0.6443
  555MOL0     C74810   3.265   4.469   1.585 -0.8171  0.1747 -0.0211
  555MOL0     C74811   3.227   4.586   1.683  0.1702  0.9938 -0.1942
  555MOL0     C74812   3.335   4.693   1.652  0.2121  0.3249 -0.3338
  555MOL0     C74813   3.360   4.775   1.771  0.6602  0.2793  0.2772
  555MOL0     O74814   3.248   4.858   1.794  0.2852  0.4342 -0.0522
  555MOL0     C74815   3.255   4.899   1.923 -0.9572  0.5970 -0.8059
  555MOL0     C74816   3.192   4.835   2.026 -0.1802  0.7124  0.0142
  555MOL0     C74817   3.187   4.880   2.162  0.3825 -0.0332  0.0414
  555MOL0     C74818   3.091   4.802   2.254  0.5807 -0.0512  0.4885
  555MOL0     C74819   3.253   5.005   2.193 -0.0423  0.2809 -0.4784
  555MOL0     C74820   3.254   5.054   2.334 -0.8519 -0.7869 -0.2519
  555MOL0     O74821   3.336   5.160   2.351  0.0787 -0.3369  0.0865
  555MOL0     C74822   3.352   5.219   2.475  0.3290  0.0998 -0.6070
  555MOL0     C74823   3.461   5.187   2.550  0.2068  0.1192 -0.4159
  555MOL0     C74824   3.467   5.231   2.679 -0.0737 -0.1431 -0.0371
  555MOL0     C74825   3.366   5.308   2.738 -0.5572 -1.1452  0.0060
  555MOL0     O74826   3.359   5.333   2.875  0.4878 -0.3093 -0.2837
  555MOL0     C74827   3.461   5.285   2.963  0.4993  0.2981  0.1843
  555MOL0     C74828   3.571   5.381   2.979 -0.6182 -0.6040 -0.4594
  555MOL0     C74829   3.568   5.482   3.089 -0.0246  0.3335 -0.7017
  555MOL0     C74830   3.647   5.600   3.070  0.9674 -0.5185  0.5583
  555MOL0     C74831   3.796   5.575   3.076 -0.0111  0.8565 -0.6038
  555MOL0     C74832   3.880   5.700   3.052  1.0895 -0.0072  0.2382
  555MOL0     C74833   4.023   5.681   3.055 -0.0767  0.5109 -0.4843
  555MOL0     C74834   4.091   5.813   3.004 -0.4866  0.1818  0.1164
  555MOL0    Cl74835   4.055   5.944   3.118  0.1462 -0.0037  0.0099
  555MOL0     C74836   3.256   5.340   2.657 -0.8406 -0.8867 -0.8987
  555MOL0     C74837   3.246   5.300   2.529 -0.4019  1.4350  0.4102
  555MOL0     O74838   3.189   5.003   2.428  0.1438 -0.7063 -0.0099
  555MOL0     C74839   3.322   5.069   2.081  0.3968 -0.4294  0.0066
  555MOL0     C74840   3.321   5.018   1.953  0.8539  0.7513  1.0867
  555MOL0     N74841   3.166   4.241   1.664 -0.2424  0.1347  0.5485
  555MOL0     N74842   3.052   4.186   1.646 -0.3280  0.1164 -0.0973
  555MOL0     C74843   2.376   3.769   1.070  0.5783  0.0561 -0.0764
  555MOL0     C74844   2.419   3.646   1.038  0.1884  0.2627  0.4944
  555MOL0     C74845   2.587   3.254   1.070 -0.0643  0.6687  0.9119
  555MOL0     C74846   2.546   3.196   0.943  0.7438  0.1765  0.2590
  555MOL0     C74847   2.623   3.088   0.891  1.4927  0.2490  0.3613
  555MOL0     C74848   2.733   3.037   0.949  0.0168 -0.3376 -1.0658
  555MOL0     O74849   2.781   2.926   0.887 -0.4769  0.4453  0.1158
  555MOL0     C74850   2.907   2.883   0.920  0.1933  0.3706 -0.0877
  555MOL0     C74851   2.959   2.775   0.828  0.3622 -0.4779  1.2560
  555MOL0     C74852   3.097   2.718   0.860 -0.0022  0.5749  0.2804
  555MOL0     C74853   3.122   2.577   0.784  0.5989 -0.4921 -0.5653
  555MOL0     C74854   3.061   2.462   0.846 -0.2582 -0.3603  0.3361
  555MOL0     C74855   3.012   2.360   0.901  0.5865 -1.0596  0.0987
  555MOL0     C74856   2.778   3.096   1.063  0.0613 -0.7768 -0.1313
  555MOL0     C74857   2.708   3.196   1.118 -0.0049 -0.9336 -0.5206
  555MOL0     H74858   2.172   3.468   1.189 -0.7790 -0.7921 -1.3387
  555MOL0     H74859   2.102   3.700   1.243  1.2141  0.7046  3.0100
  555MOL0     H74860   2.170   3.936   0.981 -2.7384 -0.8208  0.8101
  555MOL0     H74861   2.102   4.057   1.096  0.9743  2.1224  0.8713
  555MOL0     H74862   2.391   4.042   0.998  1.7567 -1.7182  2.7671
  555MOL0     H74863   2.282   4.181   1.019  1.3068  0.5702 -0.7227
  555MOL0     H74864   2.353   4.194   1.248  0.4012 -0.3053  0.6762
  555MOL0     H74865   2.402   4.021   1.252 -0.6888 -2.1096 -3.4017
  555MOL0     H74866   2.594   4.098   1.086 -2.6202 -0.5561 -1.7351
  555MOL0     H74867   2.521   4.259   1.094 -4.6736  0.9160  1.7095
  555MOL0     H74868   2.582   4.241   1.340 -3.6826 -1.3176 -2.1039
  555MOL0     H74869   2.627   4.071   1.334  1.9339 -0.0603  1.5080
  555MOL0     H74870   2.818   4.137   1.157 -1.8965 -1.3867  0.5324
  555MOL0     H74871   2.783   4.297   1.213  2.1673 -0.6048 -0.8100
  555MOL0     H74872   2.841   4.048   1.380 -4.5951  1.2043 -0.9752
  555MOL0     H74873   2.968   4.170   1.333  0.0114 -0.1143 -1.2885
  555MOL0     H74874   2.788   4.156   1.565 -0.2048 -0.4444 -1.3095
  555MOL0     H74875   2.772   4.306   1.489 -0.1879 -0.6111  0.3472
  555MOL0     H74876   3.007   4.449   1.462 -1.6588  1.1892  2.2443
  555MOL0     H74877   3.359   4.414   1.593 -0.6408  0.6262  1.2009
  555MOL0     H74878   3.263   4.516   1.486  2.9672  0.2306 -0.2109
  555MOL0     H74879   3.240   4.544   1.784 -0.3782 -2.8088 -1.5569
  555MOL0     H74880   3.127   4.627   1.666 -0.4135 -1.3975 -3.5149
  555MOL0     H74881   3.300   4.764   1.577 -4.8132  1.2626  2.4342
  555MOL0     H74882   3.432   4.651   1.623  1.3823  3.5703 -1.5789
  555MOL0     H74883   3.455   4.830   1.765  0.2011  0.9501 -2.4183
  555MOL0     H74884   3.375   4.707   1.855  2.8894 -2.2830 -1.9894
  555MOL0     H74885   3.150   4.736   2.009  0.4745  0.3880  0.2714
  555MOL0     H74886   3.033   4.878   2.307  1.8617  1.7328 -0.5530
  555MOL0     H74887   3.030   4.741   2.187  0.8851  0.0131  0.1489
  555MOL0     H74888   3.141   4.735   2.325 -1.2022 -2.8426 -0.7500
  555MOL0     H74889   3.538   5.136   2.493  0.8259  1.7123 -1.0714
  555MOL0     H74890   3.550   5.214   2.747  0.0224 -0.9170 -0.3413
  555MOL0     H74891   3.420   5.264   3.062  1.4459 -0.3553  0.4582
  555MOL0     H74892   3.490   5.183   2.934  2.5293  0.2396  2.1373
  555MOL0     H74893   3.658   5.316   2.988 -0.6829 -0.4308  2.4846
  555MOL0     H74894   3.571   5.439   2.886 -1.8134  6.4846  3.2098
  555MOL0     H74895   3.600   5.427   3.178  0.3791  1.8534  0.1163
  555MOL0     H74896   3.470   5.525   3.113 -1.4986 -3.0335  0.0569
  555MOL0     H74897   3.620   5.658   2.981  1.6743  0.3579  0.8993
  555MOL0     H74898   3.627   5.670   3.152  1.6156  0.2644  0.0730
  555MOL0     H74899   3.810   5.509   2.990  2.9321 -1.6937  1.5920
  555MOL0     H74900   3.828   5.527   3.169  1.3645 -0.1326 -1.5347
  555MOL0     H74901   3.844   5.744   2.958  1.0111 -1.0395 -0.2248
  555MOL0     H74902   3.859   5.776   3.128 -1.0093 -1.2327  0.9755
  555MOL0     H74903   4.056   5.596   2.994 -0.9873  0.6145 -1.1535
  555MOL0     H74904   4.047   5.664   3.160  0.6562 -0.2288 -0.7631
  555MOL0     H74905   4.071   5.838   2.900 -0.0940 -2.0979 -0.5577
  555MOL0     H74906   4.200   5.798   2.998  0.3377  4.9159 -0.7969
  555MOL0     H74907   3.176   5.399   2.701  0.2419 -0.2319  0.2799
  555MOL0     H74908   3.163   5.329   2.465 -0.5846 -1.1052 -0.6436
  555MOL0     H74909   3.365   5.165   2.105  2.3462  0.1148 -4.5901
  555MOL0     H74910   3.377   5.067   1.874  2.2002 -0.3403  1.3376
  555MOL0     H74911   2.435   3.854   1.038 -0.5592  0.8993  0.0131
  555MOL0     H74912   2.508   3.625   0.979  2.3478 -0.6066  3.8147
  555MOL0     H74913   2.466   3.250   0.894 -1.4568 -2.1544  1.1010
  555MOL0     H74914   2.590   3.034   0.803  0.3898  0.4971  0.6146
  555MOL0     H74915   2.978   2.965   0.911  1.1875 -0.4901 -0.2793
  555MOL0     H74916   2.914   2.855   1.026 -2.5580  0.6743  0.2357
  555MOL0     H74917   2.959   2.813   0.725 -3.8138  0.8826  1.5471
  555MOL0     H74918   2.891   2.690   0.837  1.3243 -1.4065 -0.0250
  555MOL0     H74919   3.115   2.708   0.968 -0.4483 -0.4970  0.2600
  555MOL0     H74920   3.177   2.781   0.820  1.6889 -2.5604 -1.7107
  555MOL0     H74921   3.226   2.550   0.764  1.3135  0.7267  1.2905
  555MOL0     H74922   3.089   2.587   0.680  1.3208 -0.6328 -0.8122
  555MOL0     H74923   2.972   2.278   0.957  2.1694 -2.4975 -0.7895
  555MOL0     H74924   2.870   3.056   1.106 -0.1867 -0.3700  0.8088
  555MOL0     H74925   2.745   3.248   1.206 -0.6421 -3.2991  1.2676
  556MOL0     O74926   1.908  10.937   3.499  1.1025 -0.0333  0.4360
  556MOL0     C74927   2.019  10.905   3.511 -0.5615 -0.0785 -0.3623
  556MOL0     O74928   2.072  10.855   3.627 -0.4048  0.5957 -0.2793
  556MOL0     C74929   1.997  10.835   3.743  0.1627  0.4147 -0.2682
  556MOL0     C74930   2.062  10.895   3.857 -0.3479  0.4919 -0.1008
  556MOL0     C74931   2.009  10.861   3.983 -0.2016 -0.5190  1.0173
  556MOL0     C74932   1.895  10.774   3.997 -0.3450 -0.3964 -0.2321
  556MOL0     O74933   1.850  10.720   4.116  0.4829  0.3663  0.6078
  556MOL0     C74934   1.836  10.816   4.214  0.2609  0.1252  0.3986
  556MOL0     C74935   1.736  10.744   4.320 -0.7119 -0.4581  0.7411
  556MOL0     C74936   1.724  10.826   4.441  0.0873  0.3145 -0.6101
  556MOL0     C74937   1.641  10.763   4.556 -1.0736  1.0484  0.0632
  556MOL0     C74938   1.604  10.854   4.663 -0.7286  0.4757  0.1311
  556MOL0     C74939   1.484  10.943   4.633  0.5816  0.4893  0.9043
  556MOL0     C74940   1.408  10.986   4.758 -0.8385 -0.7960  0.0126
  556MOL0     C74941   1.323  10.879   4.840  0.7903 -0.1070 -0.1472
  556MOL0     N74942   1.192  10.853   4.778 -0.0667 -0.1935  0.3076
  556MOL0     C74943   1.080  10.930   4.795 -0.1789 -0.3339 -1.1039
  556MOL0     C74944   0.984  10.858   4.736  0.2747 -0.9040 -0.0584
  556MOL0     C74945   0.847  10.901   4.708 -0.5492 -1.1633  0.1744
  556MOL0     C74946   0.823  11.042   4.751  0.3876 -0.3441  0.5317
  556MOL0     C74947   0.672  11.095   4.750  0.6142 -0.1044  0.2304
  556MOL0     C74948   0.657  11.237   4.807  0.2441 -0.2960 -0.5280
  556MOL0     O74949   0.642  11.234   4.954  0.7262  0.0261 -0.2983
  556MOL0     C74950   0.655  11.342   5.030  0.5808 -0.5705 -0.0430
  556MOL0     C74951   0.648  11.328   5.170  0.7740  0.7318  0.0998
  556MOL0     C74952   0.634  11.436   5.255 -0.0329 -0.5550 -0.8843
  556MOL0     C74953   0.648  11.410   5.400  0.4762 -0.1378 -0.4355
  556MOL0     C74954   0.620  11.568   5.206 -0.1483 -0.6173 -0.4672
  556MOL0     C74955   0.584  11.682   5.292 -0.9595 -0.3302 -0.4650
  556MOL0     O74956   0.660  11.790   5.273 -0.1620  0.5934  1.1255
  556MOL0     C74957   0.617  11.902   5.330 -0.4706 -0.3085  0.8913
  556MOL0     C74958   0.643  11.943   5.463 -0.2928 -0.6499  0.4158
  556MOL0     C74959   0.618  12.068   5.516  0.7088  0.3741  0.5382
  556MOL0     C74960   0.545  12.159   5.449 -0.3511  0.1042  0.7986
  556MOL0     O74961   0.501  12.272   5.518 -0.0954 -0.1549  0.1809
  556MOL0     C74962   0.464  12.382   5.430  0.6791  0.3231 -0.2287
  556MOL0     C74963   0.480  12.516   5.515 -0.7260 -0.2454  0.1863
  556MOL0     C74964   0.465  12.638   5.417  0.0148  0.4893  0.2580
  556MOL0     C74965   0.602  12.687   5.371  0.1452  0.0211 -0.4181
  556MOL0     C74966   0.644  12.817   5.445 -0.1227  0.6291  0.6062
  556MOL0     C74967   0.774  12.885   5.393  0.3722 -0.3271  0.6387
  556MOL0     C74968   0.905  12.825   5.435 -0.4748 -0.4515 -0.1203
  556MOL0     C74969   0.996  12.803   5.314  0.9184  0.4605 -0.0041
  556MOL0    Cl74970   1.153  12.794   5.392 -0.3064 -0.2100  0.1617
  556MOL0     C74971   0.490  12.115   5.320 -0.1994  0.3124 -0.9886
  556MOL0     C74972   0.527  11.991   5.264 -0.5404  0.0459 -0.1665
  556MOL0     O74973   0.498  11.678   5.376 -0.3108 -1.1210  0.1740
  556MOL0     C74974   0.637  11.585   5.065 -0.1323 -0.2357 -0.2861
  556MOL0     C74975   0.656  11.474   4.980  0.0059  0.0059  0.6857
  556MOL0     N74976   1.030  10.732   4.692  0.2726 -0.1800 -0.8126
  556MOL0     N74977   1.158  10.734   4.716 -0.0934  0.1712  0.1033
  556MOL0     C74978   1.828  10.743   3.882 -0.1286  0.6865  0.8140
  556MOL0     C74979   1.880  10.765   3.750  0.1628 -0.1832 -0.8847
  556MOL0     C74980   2.112  10.958   3.401 -0.0519  0.2184 -0.3631
  556MOL0     C74981   2.252  10.947   3.418  1.3335 -0.3914 -0.6620
  556MOL0     C74982   2.336  10.982   3.315  0.9918 -1.1458  0.6702
  556MOL0     C74983   2.286  11.039   3.193 -0.0471 -0.1812 -0.7683
  556MOL0     O74984   2.360  11.093   3.100 -0.0374 -0.7753  0.0312
  556MOL0     C74985   2.471  11.024   3.052 -0.0734  0.4245  0.5799
  556MOL0     C74986   2.517  11.083   2.917  0.5766 -0.2408 -0.4416
  556MOL0     C74987   2.504  11.241   2.915 -0.9672 -0.0389  0.5916
  556MOL0     C74988   2.542  11.292   2.774  0.2579  0.1385 -0.2382
  556MOL0     C74989   2.680  11.277   2.741 -0.3189  0.7727  0.5217
  556MOL0     C74990   2.797  11.282   2.714  0.0472 -0.1421 -0.6559
  556MOL0     C74991   2.145  11.051   3.185 -0.6159 -0.5642 -0.6352
  556MOL0     C74992   2.057  11.007   3.280 -1.5181 -1.2106 -0.2771
  556MOL0     H74993   2.153  10.954   3.845 -0.4968  0.4570 -1.7386
  556MOL0     H74994   2.062  10.879   4.076 -1.4247 -1.6832  1.9746
  556MOL0     H74995   1.932  10.835   4.263  1.1487  1.6627 -1.8299
  556MOL0     H74996   1.800  10.913   4.179 -0.0797  0.1103  0.7011
  556MOL0     H74997   1.637  10.736   4.274 -1.3819 -0.4256  2.1356
  556MOL0     H74998   1.775  10.646   4.350  2.8882  1.4895  3.1640
  556MOL0     H74999   1.824  10.846   4.479  0.8380 -1.8443 -1.2881
  556MOL0     H75000   1.674  10.913   4.398  0.2661  0.8552  0.2532
  556MOL0     H75001   1.548  10.726   4.513 -0.6454  0.0504 -0.0185
  556MOL0     H75002   1.695  10.673   4.586 -0.6626  0.6060 -1.9103
  556MOL0     H75003   1.583  10.797   4.754 -0.0006 -0.3924 -0.2270
  556MOL0     H75004   1.684  10.925   4.687 -4.4156  4.5555  1.6536
  556MOL0     H75005   1.527  11.016   4.564  0.2785 -2.1432 -2.3872
  556MOL0     H75006   1.420  10.881   4.568  0.8222  1.7020 -0.5392
  556MOL0     H75007   1.480  11.032   4.827  3.1533  0.2615 -4.3792
  556MOL0     H75008   1.346  11.073   4.734  0.4148 -0.0918 -0.7483
  556MOL0     H75009   1.315  10.913   4.944  5.3081  1.0738  0.0334
  556MOL0     H75010   1.377  10.784   4.834  1.9578  0.6115 -1.5643
  556MOL0     H75011   1.087  11.035   4.822  0.7677 -0.5121 -0.5780
  556MOL0     H75012   0.813  10.899   4.604 -1.0740  1.6017  0.2004
  556MOL0     H75013   0.778  10.840   4.767 -1.6148  0.8269  1.1047
  556MOL0     H75014   0.882  11.112   4.691 -0.5323  0.1725  0.2107
  556MOL0     H75015   0.860  11.048   4.854  0.6066  0.0247  0.4306
  556MOL0     H75016   0.600  11.033   4.804 -0.6191  0.1643 -1.0713
  556MOL0     H75017   0.629  11.103   4.650 -4.0018 -0.8687  1.9241
  556MOL0     H75018   0.586  11.309   4.766 -2.0908 -0.9080  2.1557
  556MOL0     H75019   0.752  11.285   4.781  0.1630  0.5162  0.5839
  556MOL0     H75020   0.642  11.228   5.211  1.8217  0.3223 -0.7043
  556MOL0     H75021   0.556  11.428   5.455 -1.0489 -0.5341 -2.7257
  556MOL0     H75022   0.690  11.312   5.423 -0.1507 -0.1903  0.5023
  556MOL0     H75023   0.716  11.487   5.438 -0.2516 -0.3728  1.4610
  556MOL0     H75024   0.703  11.883   5.530 -0.0351 -1.6293 -0.6761
  556MOL0     H75025   0.661  12.083   5.614  0.7047 -0.7834  0.7294
  556MOL0     H75026   0.548  12.401   5.363  3.7854  1.2750  3.5668
  556MOL0     H75027   0.375  12.372   5.368  2.5724  1.1380 -3.2954
  556MOL0     H75028   0.418  12.509   5.605  0.5197 -1.6205  0.9772
  556MOL0     H75029   0.579  12.520   5.559 -0.8215  0.3490  0.3484
  556MOL0     H75030   0.405  12.724   5.448 -1.2672 -0.0476 -0.6587
  556MOL0     H75031   0.404  12.595   5.337 -0.9965  1.7172  0.3451
  556MOL0     H75032   0.667  12.599   5.381 -0.0238 -0.0753 -0.1344
  556MOL0     H75033   0.608  12.708   5.264  3.5238  1.0262 -0.1550
  556MOL0     H75034   0.641  12.803   5.553 -2.5221 -2.2418  0.2847
  556MOL0     H75035   0.561  12.883   5.419  1.0472  1.9443  0.0746
  556MOL0     H75036   0.767  12.909   5.287  3.2262  0.3751  0.5103
  556MOL0     H75037   0.770  12.988   5.431 -2.6026 -0.2702  0.4135
  556MOL0     H75038   0.892  12.728   5.485 -1.6739 -0.4978 -0.4949
  556MOL0     H75039   0.952  12.883   5.515 -0.3707 -0.6030 -0.0708
  556MOL0     H75040   0.993  12.886   5.243 -0.9211  0.8868  0.5198
  556MOL0     H75041   0.961  12.716   5.258 -2.9635 -0.0167  2.7842
  556MOL0     H75042   0.421  12.175   5.261  2.2138  1.9325 -2.3781
  556MOL0     H75043   0.489  11.973   5.164  0.0680  0.3175 -0.4556
  556MOL0     H75044   0.622  11.687   5.032  2.3117  0.9622  1.9373
  556MOL0     H75045   0.665  11.506   4.877  2.9654 -0.8025  0.5980
  556MOL0     H75046   1.737  10.685   3.893  0.4818 -0.4399  0.1296
  556MOL0     H75047   1.820  10.730   3.666 -0.1497  1.2961 -1.3183
  556MOL0     H75048   2.282  10.909   3.514 -0.1128 -1.2806 -0.5244
  556MOL0     H75049   2.441  10.962   3.333  0.3055 -3.0383  3.1598
  556MOL0     H75050   2.553  11.042   3.122 -0.4668  3.4211  0.4388
  556MOL0     H75051   2.447  10.918   3.048 -2.6573  0.8994  1.3933
  556MOL0     H75052   2.447  11.052   2.839 -3.2304 -0.0707  2.6505
  556MOL0     H75053   2.616  11.045   2.889  0.7399 -0.6473  0.6368
  556MOL0     H75054   2.571  11.278   2.993  3.8408  1.5988 -3.7072
  556MOL0     H75055   2.403  11.279   2.932 -0.5362  0.7855  1.3950
  556MOL0     H75056   2.500  11.392   2.761  1.7176  0.9326  0.8824
  556MOL0     H75057   2.497  11.216   2.709  0.1913 -0.8185  0.8872
  556MOL0     H75058   2.904  11.285   2.718  0.0171  0.0261  2.8804
  556MOL0     H75059   2.095  11.097   3.101  3.2916  2.4775 -1.6011
  556MOL0     H75060   1.959  11.050   3.263 -1.8279 -2.4626 -1.8888
  557MOL0     O75061   4.506   9.232   4.098 -0.2545  0.6196  0.0764
  557MOL0     C75062   4.392   9.237   4.150 -1.1299  0.1546  0.2574
  557MOL0     O75063   4.311   9.129   4.159  0.1234 -0.2464  0.0947
  557MOL0     C75064   4.342   9.008   4.105  0.2374  0.5409 -0.0919
  557MOL0     C75065   4.292   8.893   4.171  0.1451 -0.3699 -0.7152
  557MOL0     C75066   4.298   8.767   4.110 -0.2333  0.4557  0.3243
  557MOL0     C75067   4.355   8.752   3.984 -0.9275 -0.0418  0.2587
  557MOL0     O75068   4.355   8.627   3.929  0.6848 -0.3489 -0.3191
  557MOL0     C75069   4.397   8.616   3.788  0.4785  0.2748  0.6168
  557MOL0     C75070   4.378   8.468   3.745 -0.2569 -1.2166 -0.8203
  557MOL0     C75071   4.236   8.431   3.685 -0.3130  0.8016 -0.2766
  557MOL0     C75072   4.228   8.275   3.667  1.0101 -0.0768  0.0409
  557MOL0     C75073   4.265   8.239   3.516 -0.7580  0.8342  0.0636
  557MOL0     C75074   4.296   8.092   3.496 -0.0589 -0.4725  0.2567
  557MOL0     C75075   4.390   8.093   3.375  0.8036  0.1775  0.5604
  557MOL0     C75076   4.445   7.961   3.336  0.1887  1.2159  0.8081
  557MOL0     N75077   4.524   7.968   3.207  0.7349  0.3649 -0.2125
  557MOL0     C75078   4.491   8.000   3.078  0.7398 -0.1265  0.5023
  557MOL0     C75079   4.596   8.052   3.015 -0.0020  0.1326  0.0473
  557MOL0     C75080   4.602   8.118   2.875 -0.3962 -1.3549 -0.3616
  557MOL0     C75081   4.667   8.271   2.893  0.4398 -0.0147 -0.7340
  557MOL0     C75082   4.599   8.364   3.004  0.5052  0.0655  0.8017
  557MOL0     C75083   4.701   8.478   3.047 -0.3313  0.0688 -0.1136
  557MOL0     O75084   4.740   8.558   2.938 -0.3242 -0.2729  0.8580
  557MOL0     C75085   4.732   8.697   2.956  0.1174 -0.0200  0.8932
  557MOL0     C75086   4.713   8.774   2.846  0.2416 -0.0886  0.3350
  557MOL0     C75087   4.745   8.915   2.838  0.1307 -0.3586 -0.5963
  557MOL0     C75088   4.744   8.984   2.698  0.2588 -0.5989 -0.3080
  557MOL0     C75089   4.767   8.988   2.961 -0.2917  0.0486 -0.1162
  557MOL0     C75090   4.776   9.141   2.979  0.2422 -0.7949  0.9933
  557MOL0     O75091   4.730   9.217   2.874 -0.2854 -0.0487  0.1712
  557MOL0     C75092   4.754   9.350   2.863  0.0752 -0.8510  0.4661
  557MOL0     C75093   4.760   9.441   2.965 -0.0408  0.8877 -0.6949
  557MOL0     C75094   4.795   9.571   2.946  1.1514  1.8600 -0.0665
  557MOL0     C75095   4.814   9.626   2.821  0.6962 -0.5687 -0.8905
  557MOL0     O75096   4.831   9.761   2.821  0.0410 -0.1204 -0.1078
  557MOL0     C75097   4.846   9.833   2.693  0.3438 -0.0076 -0.3844
  557MOL0     C75098   4.713   9.897   2.658  0.4897  0.5111  0.1275
  557MOL0     C75099   4.602   9.799   2.623 -0.5645  0.5072  0.0629
  557MOL0     C75100   4.481   9.868   2.552 -0.2850  1.1581  0.1931
  557MOL0     C75101   4.427   9.987   2.639 -0.1621  0.4412  0.1945
  557MOL0     C75102   4.284  10.044   2.629 -0.1710 -0.4450 -0.0074
  557MOL0     C75103   4.245  10.067   2.483 -0.1251 -0.9436  0.6183
  557MOL0     C75104   4.112  10.126   2.474  0.1162 -0.9658  0.4706
  557MOL0    Cl75105   4.094  10.214   2.306 -0.3273  0.0507  0.3426
  557MOL0     C75106   4.825   9.533   2.705 -0.1425  0.4258 -0.5416
  557MOL0     C75107   4.788   9.394   2.732 -0.1168 -0.4079 -0.0021
  557MOL0     O75108   4.830   9.184   3.086 -0.4747  1.3195  0.3616
  557MOL0     C75109   4.788   8.907   3.071  0.1231 -1.2277  0.0670
  557MOL0     C75110   4.779   8.763   3.067  0.0146 -0.1238 -0.0057
  557MOL0     N75111   4.693   8.041   3.102 -0.6551 -0.0667 -0.1278
  557MOL0     N75112   4.654   7.995   3.217  0.0357  0.2413  0.7829
  557MOL0     C75113   4.408   8.862   3.925  1.0644 -0.3740  0.9011
  557MOL0     C75114   4.399   8.991   3.976 -0.0078 -0.2867 -0.8236
  557MOL0     C75115   4.363   9.366   4.218  0.5539 -0.0093  1.2683
  557MOL0     C75116   4.268   9.365   4.321 -0.8477 -0.7447  0.0813
  557MOL0     C75117   4.230   9.483   4.380  0.9721 -1.2502 -0.0233
  557MOL0     C75118   4.293   9.607   4.354  0.4829 -0.0593 -0.0738
  557MOL0     O75119   4.258   9.713   4.434  0.5077 -0.1825  0.5397
  557MOL0     C75120   4.254   9.832   4.366 -0.0292 -0.3092 -0.2677
  557MOL0     C75121   4.189   9.944   4.451 -0.5610 -0.6196  0.3638
  557MOL0     C75122   4.286  10.015   4.547  0.2339  0.7609 -0.2538
  557MOL0     C75123   4.217  10.084   4.672 -0.1646 -0.2586 -0.1016
  557MOL0     C75124   4.144   9.983   4.756  0.3961  0.7362  0.8324
  557MOL0     C75125   4.099   9.915   4.840  0.1200  0.8155  0.1275
  557MOL0     C75126   4.393   9.606   4.253  0.3329  0.0500  0.1189
  557MOL0     C75127   4.425   9.490   4.192 -0.0211 -0.6440 -0.4917
  557MOL0     H75128   4.257   8.917   4.271 -1.4338  2.2514 -1.7816
  557MOL0     H75129   4.267   8.690   4.180 -2.1418 -2.2806 -3.1946
  557MOL0     H75130   4.345   8.676   3.712  2.0246 -0.8088 -1.3816
  557MOL0     H75131   4.500   8.652   3.775 -0.1459  1.3498 -2.0207
  557MOL0     H75132   4.455   8.447   3.670 -1.6320  1.8512 -3.3279
  557MOL0     H75133   4.391   8.405   3.833 -0.6597  1.8141  1.5776
  557MOL0     H75134   4.171   8.478   3.759 -0.8282 -0.6963  0.2698
  557MOL0     H75135   4.212   8.481   3.591  2.0889 -0.1686 -1.4981
  557MOL0     H75136   4.304   8.226   3.728  0.3434 -0.1850  0.8052
  557MOL0     H75137   4.129   8.235   3.695  1.5371  0.9289  3.9800
  557MOL0     H75138   4.181   8.265   3.452 -1.5149 -1.4339  0.0390
  557MOL0     H75139   4.351   8.304   3.493  0.3910 -0.5183  0.3915
  557MOL0     H75140   4.367   8.052   3.569  2.0061 -2.6671 -2.6992
  557MOL0     H75141   4.209   8.028   3.487  1.0348 -1.9531 -0.1886
  557MOL0     H75142   4.327   8.134   3.296  0.9512  1.3791  1.0527
  557MOL0     H75143   4.468   8.168   3.390  1.4934 -0.7338  1.7748
  557MOL0     H75144   4.364   7.887   3.329 -0.3967  1.9098  0.1082
  557MOL0     H75145   4.498   7.911   3.418 -3.0123 -2.6560  0.8601
  557MOL0     H75146   4.387   8.007   3.047  0.1175  1.1452  2.6803
  557MOL0     H75147   4.657   8.050   2.810 -1.3705 -3.0697  0.5303
  557MOL0     H75148   4.505   8.113   2.825  0.2667  1.6131 -2.1928
  557MOL0     H75149   4.648   8.321   2.798 -4.4535  2.0094  0.9715
  557MOL0     H75150   4.772   8.263   2.923  0.1898  0.3126  0.2655
  557MOL0     H75151   4.575   8.300   3.090  3.5533 -0.6280  1.2742
  557MOL0     H75152   4.513   8.416   2.961  0.3307 -1.4149 -0.7289
  557MOL0     H75153   4.792   8.428   3.080 -1.3164 -2.2504 -0.7621
  557MOL0     H75154   4.651   8.526   3.132  1.6430  0.5893  0.8079
  557MOL0     H75155   4.708   8.722   2.751 -4.4213 -1.7371  1.2478
  557MOL0     H75156   4.840   9.028   2.671 -0.3537 -1.0501 -3.6659
  557MOL0     H75157   4.724   8.918   2.614  2.0858 -0.6506 -0.7571
  557MOL0     H75158   4.678   9.070   2.685  0.8623 -0.3351 -1.8181
  557MOL0     H75159   4.731   9.407   3.063  0.9921  1.4044 -0.2008
  557MOL0     H75160   4.797   9.640   3.030 -3.0560  0.7961  1.1528
  557MOL0     H75161   4.925   9.906   2.713 -0.4275  0.9565 -0.8201
  557MOL0     H75162   4.886   9.773   2.610  0.5586  1.5849 -1.4692
  557MOL0     H75163   4.684   9.965   2.739 -1.6189  0.8826 -0.8785
  557MOL0     H75164   4.727   9.957   2.568  3.6056 -2.1335 -1.3449
  557MOL0     H75165   4.563   9.758   2.716  1.1821  0.1696  0.6959
  557MOL0     H75166   4.645   9.717   2.565 -1.9764 -2.6725  3.1247
  557MOL0     H75167   4.516   9.905   2.455  1.8332 -1.6071 -0.2240
  557MOL0     H75168   4.402   9.795   2.534  0.5319  0.0949  0.7745
  557MOL0     H75169   4.501  10.066   2.628  0.3607 -0.0767 -0.0922
  557MOL0     H75170   4.430   9.957   2.745  1.2572 -1.7976 -0.4139
  557MOL0     H75171   4.211   9.978   2.678 -1.1500  0.7022  0.1013
  557MOL0     H75172   4.284  10.137   2.687 -0.6203 -0.3314 -0.1874
  557MOL0     H75173   4.238   9.973   2.427  2.3428  0.3877 -2.2250
  557MOL0     H75174   4.312  10.135   2.428 -2.3061 -0.6770 -1.8687
  557MOL0     H75175   4.108  10.200   2.555  1.1862 -0.2722 -0.0900
  557MOL0     H75176   4.030  10.054   2.483 -2.0562  1.2723 -0.4327
  557MOL0     H75177   4.854   9.564   2.605  2.5446 -3.7043 -1.2905
  557MOL0     H75178   4.784   9.322   2.651  1.7566  1.0968 -1.5393
  557MOL0     H75179   4.804   8.952   3.169 -2.3216  1.3466 -0.5800
  557MOL0     H75180   4.825   8.712   3.151  4.8078  2.2664 -0.8198
  557MOL0     H75181   4.448   8.863   3.824  2.9529 -0.1803  1.6045
  557MOL0     H75182   4.425   9.075   3.913  0.0385  0.9995  0.8528
  557MOL0     H75183   4.211   9.278   4.349 -1.7345 -1.5415 -3.7231
  557MOL0     H75184   4.146   9.492   4.447 -0.5455  2.8080 -2.1480
  557MOL0     H75185   4.355   9.854   4.329  0.7484 -2.9370  0.1192
  557MOL0     H75186   4.197   9.823   4.273 -2.8495 -1.4437  1.4561
  557MOL0     H75187   4.100   9.903   4.500  0.1840 -0.4649  1.9023
  557MOL0     H75188   4.161  10.018   4.376  1.6688  1.6044  1.5829
  557MOL0     H75189   4.336  10.097   4.494 -0.0941  1.1037 -0.0409
  557MOL0     H75190   4.356   9.938   4.582  0.6527  0.7567 -1.0831
  557MOL0     H75191   4.152  10.171   4.654 -0.6103 -0.6051 -0.1937
  557MOL0     H75192   4.295  10.132   4.731 -1.1645  1.6008 -0.1884
  557MOL0     H75193   4.046   9.855   4.912 -1.1709 -0.3667 -1.7183
  557MOL0     H75194   4.456   9.686   4.216 -0.4140 -0.2426 -1.8741
  557MOL0     H75195   4.505   9.474   4.121  0.9634 -0.5295  0.5650
  558MOL0     O75196   0.416   0.998   6.570  0.6071  0.0802  0.2370
  558MOL0     C75197   0.402   1.125   6.563  0.0598 -0.1131  0.2806
  558MOL0     O75198   0.512   1.215   6.551  0.4916  0.1388 -0.3219
  558MOL0     C75199   0.639   1.167   6.567 -0.7174 -0.9642 -0.0710
  558MOL0     C75200   0.692   1.066   6.658 -0.3038  0.0611  1.1090
  558MOL0     C75201   0.828   1.045   6.663 -0.5194  0.1364  0.3495
  558MOL0     C75202   0.919   1.113   6.580  0.8904 -0.7826  0.1325
  558MOL0     O75203   1.055   1.100   6.592  0.2085  0.4245  0.5444
  558MOL0     C75204   1.102   1.014   6.702  0.1058 -0.5832 -0.6710
  558MOL0     C75205   1.243   0.991   6.667  0.8525 -0.1349  0.2546
  558MOL0     C75206   1.317   0.897   6.752 -0.5948 -0.2904 -0.5870
  558MOL0     C75207   1.322   0.742   6.712 -0.1905  0.2895  0.2830
  558MOL0     C75208   1.384   0.656   6.821 -0.1825 -0.2034 -0.2994
  558MOL0     C75209   1.283   0.607   6.924 -0.0817  0.1738 -0.3964
  558MOL0     C75210   1.227   0.472   6.866 -0.2147 -1.0386  0.3113
  558MOL0     C75211   1.121   0.431   6.966 -0.4550 -0.4024  0.5527
  558MOL0     N75212   0.989   0.438   6.906  0.0606 -0.7994 -0.8566
  558MOL0     C75213   0.923   0.549   6.864  0.2891 -0.2734 -0.2667
  558MOL0     C75214   0.822   0.510   6.783 -0.3223 -0.7511  0.3724
  558MOL0     C75215   0.722   0.585   6.698  0.3365 -0.5946 -0.7226
  558MOL0     C75216   0.606   0.649   6.778 -0.0929 -0.3646  1.0183
  558MOL0     C75217   0.493   0.551   6.800  0.0250 -0.4368 -0.3951
  558MOL0     C75218   0.417   0.531   6.675 -0.4826  0.3980 -0.0618
  558MOL0     O75219   0.318   0.443   6.722 -0.2314  0.3501 -0.2283
  558MOL0     C75220   0.344   0.311   6.690  0.2880  0.1646  0.8175
  558MOL0     C75221   0.468   0.249   6.646  0.3370 -0.7583 -0.1462
  558MOL0     C75222   0.473   0.108   6.626  1.0767 -0.4966 -0.3275
  558MOL0     C75223   0.610   0.065   6.574 -0.4478 -0.2079 -0.2325
  558MOL0     C75224   0.364   0.018   6.641 -0.3719 -0.2323 -0.2766
  558MOL0     C75225   0.347  -0.128   6.613 -0.1075  0.5299  0.8930
  558MOL0     O75226   0.220  -0.180   6.636 -0.2682  0.0238  0.2326
  558MOL0     C75227   0.182  -0.308   6.609 -0.4805  0.7174  0.7287
  558MOL0     C75228   0.222  -0.377   6.498  0.4742 -0.8730  0.6187
  558MOL0     C75229   0.158  -0.504   6.470  0.1199 -0.0316  0.6771
  558MOL0     C75230   0.057  -0.554   6.546  0.0780  0.4379  0.9536
  558MOL0     O75231  -0.001  -0.673   6.502  0.4416  0.7803  0.5766
  558MOL0     C75232  -0.139  -0.689   6.533 -0.0526  0.5650  0.9366
  558MOL0     C75233  -0.191  -0.826   6.496  0.7186  0.7891 -0.8113
  558MOL0     C75234  -0.156  -0.924   6.613  0.9440  0.0372  0.6682
  558MOL0     C75235  -0.265  -1.025   6.619  0.3848  0.0402  0.1886
  558MOL0     C75236  -0.272  -1.119   6.748  0.8154 -0.0797  0.6840
  558MOL0     C75237  -0.385  -1.228   6.730  0.2142 -0.0162  0.1913
  558MOL0     C75238  -0.398  -1.301   6.860  0.2886  0.2465 -0.3962
  558MOL0     C75239  -0.534  -1.376   6.889 -1.3917  0.0107  0.0367
  558MOL0    Cl75240  -0.534  -1.440   7.055 -0.8288  0.1985 -0.4564
  558MOL0     C75241   0.016  -0.479   6.661 -0.5619  0.4349  0.7733
  558MOL0     C75242   0.083  -0.360   6.694 -0.1832  0.2777  0.1759
  558MOL0     O75243   0.447  -0.192   6.577 -0.5476  0.4033  0.2742
  558MOL0     C75244   0.249   0.091   6.683  0.6728 -0.1958  0.0375
  558MOL0     C75245   0.235   0.230   6.710 -0.2333 -1.0372 -0.1310
  558MOL0     N75246   0.834   0.372   6.772  0.3453  0.6364 -0.2264
  558MOL0     N75247   0.921   0.332   6.854 -0.1854  0.9941 -0.2442
  558MOL0     C75248   0.874   1.210   6.495  0.2536 -0.5685 -0.4724
  558MOL0     C75249   0.732   1.239   6.488 -0.1604 -0.5740 -0.1668
  558MOL0     C75250   0.272   1.190   6.555  1.3272 -0.4175 -0.7544
  558MOL0     C75251   0.163   1.108   6.546  0.2843  0.2493  0.2038
  558MOL0     C75252   0.032   1.167   6.561  0.6045  0.4628 -0.0209
  558MOL0     C75253   0.007   1.304   6.580 -0.1084  0.0280 -0.3431
  558MOL0     O75254  -0.114   1.358   6.615  0.3146 -0.5287  0.4687
  558MOL0     C75255  -0.227   1.268   6.574 -0.1805  0.5511 -0.1710
  558MOL0     C75256  -0.266   1.174   6.691 -0.4229 -0.3924 -1.2866
  558MOL0     C75257  -0.363   1.248   6.787  0.2594 -1.0117 -0.4239
  558MOL0     C75258  -0.356   1.183   6.920  0.5253  0.4063  0.3931
  558MOL0     C75259  -0.378   1.039   6.912 -0.3478 -0.1274  0.6122
  558MOL0     C75260  -0.384   0.920   6.900 -0.0414  0.6791 -0.4462
  558MOL0     C75261   0.123   1.387   6.586 -0.6270  1.2053  0.2543
  558MOL0     C75262   0.256   1.337   6.561  0.6478 -0.7054 -0.2011
  558MOL0     H75263   0.627   1.003   6.718 -3.2587  1.7466 -0.1064
  558MOL0     H75264   0.852   0.957   6.721  0.3261  0.4001  0.4100
  558MOL0     H75265   1.096   1.068   6.797  0.1806  0.4488 -1.2352
  558MOL0     H75266   1.059   0.915   6.714  3.4162 -2.7161 -3.9714
  558MOL0     H75267   1.254   0.953   6.565  1.4451 -3.4231  1.4398
  558MOL0     H75268   1.300   1.084   6.673 -1.3188  1.6649 -3.4061
  558MOL0     H75269   1.419   0.933   6.763 -0.1328 -1.7397  0.1437
  558MOL0     H75270   1.266   0.907   6.848  0.0849  1.1011 -0.3615
  558MOL0     H75271   1.225   0.694   6.693  0.0089 -0.1019  0.2582
  558MOL0     H75272   1.384   0.746   6.622 -2.2291  2.6830 -1.1419
  558MOL0     H75273   1.433   0.565   6.786 -4.2337 -2.1005 -1.6497
  558MOL0     H75274   1.453   0.727   6.869 -0.0440 -1.5702  1.6172
  558MOL0     H75275   1.336   0.586   7.018 -1.7670  2.0493  1.0653
  558MOL0     H75276   1.209   0.686   6.936  0.2228  0.2053  1.8129
  558MOL0     H75277   1.186   0.484   6.765  2.1220 -1.0908 -0.7118
  558MOL0     H75278   1.308   0.398   6.858  0.8953  0.3518 -3.7299
  558MOL0     H75279   1.121   0.494   7.056 -3.6920 -1.0733  1.1381
  558MOL0     H75280   1.137   0.327   6.994 -1.3219 -0.8860 -0.6716
  558MOL0     H75281   0.947   0.650   6.896  0.1680 -0.7643  1.5059
  558MOL0     H75282   0.789   0.667   6.673 -0.6617  0.3760 -0.3009
  558MOL0     H75283   0.687   0.525   6.613  3.9759 -3.8433 -0.1940
  558MOL0     H75284   0.568   0.731   6.717  1.8122  1.0488  1.6490
  558MOL0     H75285   0.634   0.704   6.868 -1.5122  1.6914  0.2882
  558MOL0     H75286   0.440   0.590   6.887  0.2154 -3.8487  1.4323
  558MOL0     H75287   0.531   0.457   6.842 -0.3612 -0.2527  0.4007
  558MOL0     H75288   0.474   0.499   6.588 -1.0776  2.2939 -1.1992
  558MOL0     H75289   0.372   0.626   6.647  0.3676 -0.1098 -3.5081
  558MOL0     H75290   0.559   0.308   6.642 -0.7940  1.2012  1.1650
  558MOL0     H75291   0.678   0.149   6.556 -2.0370  1.4510  1.0559
  558MOL0     H75292   0.661   0.020   6.660  0.7019 -0.2901 -0.9347
  558MOL0     H75293   0.601  -0.007   6.493 -1.9750  0.6158 -0.8340
  558MOL0     H75294   0.306  -0.345   6.436 -1.4474  1.7835 -0.8276
  558MOL0     H75295   0.173  -0.550   6.373 -3.3620 -0.3657  0.1838
  558MOL0     H75296  -0.152  -0.676   6.641  3.4978 -3.4191  2.1350
  558MOL0     H75297  -0.198  -0.611   6.486 -2.4123  1.1028  4.3958
  558MOL0     H75298  -0.299  -0.819   6.477  0.9801 -2.0117 -4.2086
  558MOL0     H75299  -0.143  -0.860   6.404  1.3153  0.6649 -0.4560
  558MOL0     H75300  -0.159  -0.880   6.713  0.0841  0.5235  0.4385
  558MOL0     H75301  -0.061  -0.976   6.596  2.2271  2.7263 -1.1396
  558MOL0     H75302  -0.353  -0.962   6.629 -0.3330 -0.6502 -1.4003
  558MOL0     H75303  -0.268  -1.082   6.525 -0.0318  0.4156 -0.0254
  558MOL0     H75304  -0.291  -1.055   6.835 -1.4553  1.5300 -0.8690
  558MOL0     H75305  -0.172  -1.158   6.768 -0.0805 -2.0999  1.4480
  558MOL0     H75306  -0.483  -1.184   6.712  1.3496  1.7440 -2.3450
  558MOL0     H75307  -0.373  -1.301   6.650 -2.7614 -0.8253  0.3835
  558MOL0     H75308  -0.371  -1.229   6.938  3.9721 -1.5030  0.1794
  558MOL0     H75309  -0.321  -1.379   6.867 -0.1988 -0.4484 -2.2009
  558MOL0     H75310  -0.551  -1.459   6.820  0.7550 -0.0904 -0.4436
  558MOL0     H75311  -0.625  -1.319   6.871 -2.0228 -1.0105 -0.1173
  558MOL0     H75312  -0.054  -0.519   6.734  0.8303  1.6066  2.8549
  558MOL0     H75313   0.050  -0.300   6.778 -1.2980  0.5896 -0.4638
  558MOL0     H75314   0.155   0.038   6.693  2.6975 -3.7863  1.9734
  558MOL0     H75315   0.142   0.277   6.740  0.2066  0.1470 -0.5765
  558MOL0     H75316   0.951   1.279   6.463 -1.1071  2.8700  2.8847
  558MOL0     H75317   0.693   1.321   6.429 -0.0740 -0.0519  0.4872
  558MOL0     H75318   0.169   1.000   6.540 -3.1984  0.0103 -2.1486
  558MOL0     H75319  -0.048   1.094   6.555  0.6432  0.5687 -3.1516
  558MOL0     H75320  -0.315   1.327   6.548 -0.5144  0.3374  0.4500
  558MOL0     H75321  -0.209   1.223   6.476 -1.2273 -2.1384  0.7825
  558MOL0     H75322  -0.176   1.152   6.750 -0.2257  0.3042 -1.3147
  558MOL0     H75323  -0.317   1.081   6.663 -0.8244 -0.1149 -1.4833
  558MOL0     H75324  -0.469   1.247   6.761 -1.1182 -1.4188  4.1986
  558MOL0     H75325  -0.324   1.350   6.790  0.8065 -1.1695 -1.7886
  558MOL0     H75326  -0.434   1.224   6.985 -2.9725  0.0408 -3.1478
  558MOL0     H75327  -0.257   1.200   6.962  0.8565  0.4664 -0.3785
  558MOL0     H75328  -0.386   0.814   6.890 -2.8231  0.1436  3.3705
  558MOL0     H75329   0.088   1.489   6.591 -0.7857  1.1385  0.4861
  558MOL0     H75330   0.345   1.400   6.562 -0.0764  0.4019 -1.8383
  559MOL0     O75331   0.788   6.917   3.727  0.7108 -0.3101  0.6290
  559MOL0     C75332   0.681   6.966   3.768  0.0394  0.6766 -0.6753
  559MOL0     O75333   0.616   7.072   3.715  0.1352  1.0293  0.0990
  559MOL0     C75334   0.672   7.131   3.605 -0.7481  0.2753 -0.1530
  559MOL0     C75335   0.632   7.096   3.473 -0.7842 -0.1636 -0.4996
  559MOL0     C75336   0.694   7.181   3.376 -0.2763  0.2149 -0.5456
  559MOL0     C75337   0.790   7.282   3.405 -0.2121 -0.8061 -0.4715
  559MOL0     O75338   0.831   7.350   3.296  0.3405  0.1516  0.5527
  559MOL0     C75339   0.968   7.355   3.262  0.4190 -0.0813 -0.8184
  559MOL0     C75340   1.029   7.488   3.294 -0.1356  0.3764 -0.6196
  559MOL0     C75341   0.955   7.598   3.223  0.2848 -0.4335 -0.7984
  559MOL0     C75342   1.026   7.730   3.263 -0.9677 -0.3179 -0.5565
  559MOL0     C75343   1.001   7.842   3.164 -0.2461  0.8955  0.3688
  559MOL0     C75344   1.097   7.967   3.183 -0.2227 -0.0574 -0.3966
  559MOL0     C75345   1.137   8.007   3.325 -0.5355  0.0403  0.1554
  559MOL0     C75346   1.232   8.131   3.340 -0.0532  0.0267  0.3280
  559MOL0     N75347   1.194   8.221   3.235 -0.1586  0.3612  0.4130
  559MOL0     C75348   1.264   8.239   3.123  0.6454  0.3180 -0.7858
  559MOL0     C75349   1.210   8.352   3.067  0.2642 -0.1012 -0.0385
  559MOL0     C75350   1.256   8.421   2.935 -0.3189  0.3506  0.1141
  559MOL0     C75351   1.288   8.561   2.985  0.2292  0.0168  0.3742
  559MOL0     C75352   1.293   8.653   2.867 -0.6932  0.1250  0.0356
  559MOL0     C75353   1.298   8.797   2.907  0.6409  0.2691  0.6652
  559MOL0     O75354   1.385   8.857   2.811  0.8599  0.0945 -0.2261
  559MOL0     C75355   1.339   8.892   2.681 -0.3013  0.6271 -0.9789
  559MOL0     C75356   1.217   8.950   2.658  0.5563  0.7569 -0.6887
  559MOL0     C75357   1.185   9.023   2.542  0.3275 -0.3509  0.2285
  559MOL0     C75358   1.054   9.099   2.552  0.4450 -0.0461 -0.1436
  559MOL0     C75359   1.283   9.024   2.436 -0.8363  1.0797 -0.4619
  559MOL0     C75360   1.270   9.106   2.312  0.4242 -1.0969  0.8256
  559MOL0     O75361   1.381   9.099   2.228  0.1242 -0.5595  0.3161
  559MOL0     C75362   1.412   9.184   2.120 -1.2806  0.7431 -0.2216
  559MOL0     C75363   1.323   9.257   2.037  0.0030 -0.4419 -0.4899
  559MOL0     C75364   1.373   9.338   1.937 -0.1175  0.5588  0.0207
  559MOL0     C75365   1.511   9.352   1.924  0.3101  0.2006  0.6173
  559MOL0     O75366   1.567   9.455   1.845 -0.5889 -0.5529 -0.6394
  559MOL0     C75367   1.518   9.475   1.715  0.2080  0.1754  0.3061
  559MOL0     C75368   1.624   9.522   1.620 -0.2768 -0.4835 -0.3027
  559MOL0     C75369   1.744   9.423   1.613 -0.7300 -0.4039  0.1553
  559MOL0     C75370   1.815   9.436   1.484 -0.7846  0.7733  0.0476
  559MOL0     C75371   1.936   9.337   1.500 -0.2395  0.5052 -0.4387
  559MOL0     C75372   2.044   9.358   1.389  0.2684 -0.3131  0.4088
  559MOL0     C75373   2.148   9.257   1.407 -0.5557  0.7888 -0.3861
  559MOL0     C75374   2.277   9.286   1.329 -0.0514 -0.1707 -0.2418
  559MOL0    Cl75375   2.350   9.438   1.391 -0.8033  0.5178 -0.3979
  559MOL0     C75376   1.597   9.278   2.006 -0.4211 -0.1425  0.0515
  559MOL0     C75377   1.551   9.185   2.100  1.1473  0.0994  0.6013
  559MOL0     O75378   1.173   9.177   2.291 -0.2962  0.1853  0.0828
  559MOL0     C75379   1.407   8.967   2.461  0.0594  0.0451  0.1915
  559MOL0     C75380   1.428   8.895   2.573 -0.2208 -0.2415  0.2416
  559MOL0     N75381   1.102   8.388   3.139  0.4617  0.4523  1.0808
  559MOL0     N75382   1.101   8.311   3.239  0.1483 -0.7279  0.9696
  559MOL0     C75383   0.835   7.309   3.539  0.8223  0.5493  0.0651
  559MOL0     C75384   0.763   7.236   3.639 -0.4461 -0.0304  0.6813
  559MOL0     C75385   0.609   6.890   3.881  0.4330  0.3967 -0.7386
  559MOL0     C75386   0.648   6.758   3.903  0.5179 -0.3080 -0.0924
  559MOL0     C75387   0.585   6.695   4.012 -0.0554 -0.7847  0.5980
  559MOL0     C75388   0.487   6.750   4.099  0.5445  0.7170  0.8300
  559MOL0     O75389   0.453   6.677   4.204  0.4634 -0.3377 -0.2891
  559MOL0     C75390   0.335   6.712   4.276  0.1397  0.0697 -0.0977
  559MOL0     C75391   0.313   6.624   4.407  1.0281 -0.8810  0.2161
  559MOL0     C75392   0.201   6.687   4.491  0.5936 -0.1472  0.1669
  559MOL0     C75393   0.223   6.781   4.612  0.2234  0.5608  0.5035
  559MOL0     C75394   0.104   6.839   4.675 -0.2832 -0.8896 -0.6605
  559MOL0     C75395   0.013   6.911   4.721  0.9167  1.2336  0.5373
  559MOL0     C75396   0.452   6.881   4.072 -0.6043 -0.4014  0.2880
  559MOL0     C75397   0.516   6.952   3.974  1.1647 -0.2388 -0.4848
  559MOL0     H75398   0.554   7.021   3.460 -2.8780  1.6693  0.9385
  559MOL0     H75399   0.666   7.165   3.273 -2.1838  0.4689 -0.0937
  559MOL0     H75400   1.022   7.282   3.324 -3.1230 -1.5272  0.8087
  559MOL0     H75401   0.991   7.321   3.160  0.4330  0.4311 -0.9869
  559MOL0     H75402   1.038   7.506   3.401  0.6625  0.1563 -0.6447
  559MOL0     H75403   1.130   7.484   3.254 -1.1419  2.1266 -3.6907
  559MOL0     H75404   0.978   7.579   3.118  1.7128 -1.0581 -0.3970
  559MOL0     H75405   0.849   7.586   3.246  0.4695 -2.6008 -0.9330
  559MOL0     H75406   1.001   7.754   3.366  3.8105 -0.7300  0.9270
  559MOL0     H75407   1.134   7.716   3.254 -1.0312 -0.2395 -1.7214
  559MOL0     H75408   1.016   7.796   3.066  2.1161  0.5782  0.8097
  559MOL0     H75409   0.897   7.875   3.170 -1.1078 -1.1147 -1.8966
  559MOL0     H75410   1.188   7.941   3.127  0.0392  0.1170 -0.0571
  559MOL0     H75411   1.047   8.053   3.139 -0.6591  0.6624  1.4352
  559MOL0     H75412   1.053   8.033   3.391  0.0259 -2.6038  2.1055
  559MOL0     H75413   1.182   7.920   3.374 -2.6196 -1.0824  0.2185
  559MOL0     H75414   1.334   8.096   3.352 -1.0602 -2.3557  3.1249
  559MOL0     H75415   1.211   8.180   3.435  0.4357  0.8421  0.0210
  559MOL0     H75416   1.335   8.170   3.078  0.5954  0.5374 -1.2026
  559MOL0     H75417   1.348   8.379   2.895  0.0554  0.2524  1.0558
  559MOL0     H75418   1.176   8.417   2.860 -0.8795 -1.3924  0.7478
  559MOL0     H75419   1.382   8.552   3.041  1.2196 -0.1840 -1.2440
  559MOL0     H75420   1.203   8.601   3.040 -0.6509  0.2441 -1.0882
  559MOL0     H75421   1.196   8.638   2.818 -1.0226  2.7591 -0.2304
  559MOL0     H75422   1.371   8.627   2.795 -0.9970  0.3046 -0.3649
  559MOL0     H75423   1.341   8.811   3.006  0.2987  0.8955  0.7293
  559MOL0     H75424   1.198   8.841   2.902 -0.2032 -1.5943 -4.0231
  559MOL0     H75425   1.138   8.958   2.732 -1.5146 -1.0015 -2.5737
  559MOL0     H75426   0.976   9.024   2.536  0.2582 -0.2177  1.3393
  559MOL0     H75427   1.032   9.135   2.653 -0.1553 -0.5564 -0.0804
  559MOL0     H75428   1.052   9.184   2.483  1.3438 -1.3539 -1.8296
  559MOL0     H75429   1.216   9.271   2.049  0.4953  3.4902  0.8364
  559MOL0     H75430   1.309   9.392   1.868  1.6508  2.3406 -0.3198
  559MOL0     H75431   1.479   9.379   1.679  0.5082 -0.6324  2.0373
  559MOL0     H75432   1.427   9.535   1.710 -1.6379 -2.4762 -0.1034
  559MOL0     H75433   1.581   9.516   1.520  0.4323  2.8435 -0.9299
  559MOL0     H75434   1.656   9.627   1.628  2.5499 -1.1268 -1.9133
  559MOL0     H75435   1.720   9.319   1.637 -0.9399 -0.0537  1.5804
  559MOL0     H75436   1.803   9.464   1.696  0.4274  0.6949 -1.1642
  559MOL0     H75437   1.759   9.400   1.397 -0.1487 -0.1824  0.0121
  559MOL0     H75438   1.844   9.539   1.460 -1.6484  0.9951 -0.0796
  559MOL0     H75439   1.904   9.233   1.514 -2.6370  1.4130  1.6552
  559MOL0     H75440   1.992   9.351   1.593  2.3692 -1.3579 -1.6025
  559MOL0     H75441   1.999   9.339   1.290  1.3579  0.9237 -0.3491
  559MOL0     H75442   2.095   9.454   1.401  1.3960 -1.0895  2.1526
  559MOL0     H75443   2.108   9.161   1.373  0.7564  0.3582 -0.7634
  559MOL0     H75444   2.188   9.247   1.509 -0.5088  1.6228 -0.3147
  559MOL0     H75445   2.248   9.298   1.224  0.6666  0.4510 -0.3759
  559MOL0     H75446   2.346   9.203   1.344 -0.6672 -0.4404  1.2935
  559MOL0     H75447   1.703   9.295   1.990 -0.5004 -0.2043 -0.5527
  559MOL0     H75448   1.622   9.141   2.170  0.6441 -1.8856 -0.0987
  559MOL0     H75449   1.486   8.975   2.387 -1.6575 -2.1068 -2.0554
  559MOL0     H75450   1.520   8.840   2.589  1.1455  1.9946  0.4053
  559MOL0     H75451   0.909   7.383   3.567 -0.6758  0.9692  3.3759
  559MOL0     H75452   0.784   7.257   3.743 -1.4112 -0.1471  0.9112
  559MOL0     H75453   0.721   6.716   3.834  2.0894  3.3144 -0.8531
  559MOL0     H75454   0.626   6.598   4.037 -2.0871 -1.5855  0.9863
  559MOL0     H75455   0.332   6.818   4.302 -1.5173  0.0169  0.0546
  559MOL0     H75456   0.247   6.695   4.213  1.0229 -1.3932 -1.0037
  559MOL0     H75457   0.414   6.630   4.449  1.0771 -0.1428  0.0100
  559MOL0     H75458   0.297   6.518   4.385  2.2258 -1.0186 -0.0493
  559MOL0     H75459   0.158   6.601   4.542  0.4031 -0.5152 -0.6032
  559MOL0     H75460   0.123   6.726   4.426 -1.0645 -2.7472  0.4522
  559MOL0     H75461   0.290   6.860   4.578  1.9265 -1.3921 -0.8621
  559MOL0     H75462   0.272   6.713   4.681  0.6626 -0.9416 -1.2191
  559MOL0     H75463  -0.072   6.969   4.752 -2.9081 -4.1623  1.5370
  559MOL0     H75464   0.368   6.918   4.129 -1.5260 -1.9652 -0.0075
  559MOL0     H75465   0.493   7.058   3.970  1.3324  0.0697  3.3851
  560MOL0     O75466   0.737   9.949   0.459  0.0512 -0.6550  0.2242
  560MOL0     C75467   0.730   9.877   0.364  0.4945  0.1115  0.9689
  560MOL0     O75468   0.719   9.922   0.235  0.3762  0.0695  0.4716
  560MOL0     C75469   0.642  10.030   0.208  0.1530 -0.0992 -0.3860
  560MOL0     C75470   0.704  10.157   0.208  1.0535  0.3117 -0.1478
  560MOL0     C75471   0.631  10.274   0.184  0.8899 -0.7863 -0.3052
  560MOL0     C75472   0.493  10.265   0.162  0.1700 -0.2890 -0.4758
  560MOL0     O75473   0.415  10.372   0.126 -0.6866 -0.9468  0.1674
  560MOL0     C75474   0.479  10.495   0.084 -0.0227 -0.6079 -0.0128
  560MOL0     C75475   0.377  10.581  -0.001 -0.6111  0.4177 -0.1786
  560MOL0     C75476   0.281  10.653   0.096  0.4438 -0.1959  0.5921
  560MOL0     C75477   0.158  10.725   0.018 -0.8283  0.3933 -0.3234
  560MOL0     C75478   0.210  10.823  -0.085 -0.0085 -0.4672  0.1456
  560MOL0     C75479   0.216  10.764  -0.223  0.1509 -0.4460  0.5195
  560MOL0     C75480   0.266  10.875  -0.317  0.1132 -0.9738  0.1574
  560MOL0     C75481   0.241  10.837  -0.464  0.4314  0.4040  0.0164
  560MOL0     N75482   0.098  10.817  -0.497  0.2674  0.3206  0.1051
  560MOL0     C75483   0.046  10.886  -0.597 -0.0814 -0.0044  0.4810
  560MOL0     C75484  -0.064  10.822  -0.634 -0.1309 -0.0093 -0.4655
  560MOL0     C75485  -0.163  10.869  -0.730 -0.1206  0.3695 -0.0034
  560MOL0     C75486  -0.168  10.791  -0.863 -0.4687 -0.3226  0.4227
  560MOL0     C75487  -0.036  10.804  -0.947  0.0026 -1.0988 -1.3841
  560MOL0     C75488  -0.035  10.704  -1.054 -0.4065  0.1229 -0.6801
  560MOL0     O75489  -0.156  10.705  -1.135 -0.6092  0.2882  0.0799
  560MOL0     C75490  -0.159  10.642  -1.259  0.2726  0.2352  0.1565
  560MOL0     C75491  -0.285  10.612  -1.299  0.4277  0.0162  0.6071
  560MOL0     C75492  -0.311  10.531  -1.409  0.7984 -0.5972 -0.4557
  560MOL0     C75493  -0.459  10.519  -1.441 -0.3044 -1.1002 -0.6975
  560MOL0     C75494  -0.207  10.463  -1.481  0.4005 -0.5036  0.0082
  560MOL0     C75495  -0.230  10.354  -1.587  0.2754 -1.1151 -0.7516
  560MOL0     O75496  -0.115  10.282  -1.637  0.2404 -0.6238 -0.1300
  560MOL0     C75497  -0.144  10.224  -1.753  0.2696 -0.1936  0.1301
  560MOL0     C75498  -0.154  10.309  -1.863 -0.6806 -0.6173 -0.4017
  560MOL0     C75499  -0.199  10.249  -1.977 -0.6266  0.0200 -0.2114
  560MOL0     C75500  -0.226  10.105  -1.988  0.2891 -0.0866 -0.1430
  560MOL0     O75501  -0.293  10.051  -2.097 -0.6025  0.1035 -0.1834
  560MOL0     C75502  -0.332  10.146  -2.198 -0.3810 -0.3118  0.0040
  560MOL0     C75503  -0.438  10.074  -2.277 -0.3649 -1.0239  0.8543
  560MOL0     C75504  -0.468  10.153  -2.407 -0.4808  0.2681 -0.2079
  560MOL0     C75505  -0.555  10.069  -2.501 -0.6151 -1.2662 -0.4509
  560MOL0     C75506  -0.597  10.143  -2.627 -0.6169 -0.2110  1.0940
  560MOL0     C75507  -0.722  10.086  -2.702  0.0672  0.0968 -0.9668
  560MOL0     C75508  -0.853  10.120  -2.635 -0.2962 -0.0666 -0.4226
  560MOL0     C75509  -0.980  10.111  -2.718 -0.2677  0.5854 -0.0552
  560MOL0    Cl75510  -1.005  10.274  -2.800  0.4584  0.2219 -0.2429
  560MOL0     C75511  -0.205  10.028  -1.877 -1.0937 -0.2529 -0.4427
  560MOL0     C75512  -0.151  10.091  -1.758  0.3586  0.6431  0.0762
  560MOL0     O75513  -0.347  10.330  -1.612 -0.4260  0.8189  0.1742
  560MOL0     C75514  -0.080  10.504  -1.434 -0.2738  1.0630 -0.7489
  560MOL0     C75515  -0.053  10.585  -1.319 -0.1887 -0.6607 -0.6318
  560MOL0     N75516  -0.077  10.706  -0.551 -0.3897  1.2673  0.2588
  560MOL0     N75517   0.023  10.707  -0.475 -0.4320 -0.3003 -0.3974
  560MOL0     C75518   0.434  10.136   0.154  1.0285  0.5117  0.4125
  560MOL0     C75519   0.509  10.021   0.175  0.5150  0.7481 -0.1965
  560MOL0     C75520   0.756   9.737   0.397  0.1305  0.4924 -0.2950
  560MOL0     C75521   0.816   9.692   0.516  0.2329 -0.0398 -0.4846
  560MOL0     C75522   0.833   9.560   0.539 -0.3342  0.6235 -0.4452
  560MOL0     C75523   0.810   9.467   0.437 -0.1286  0.9586  0.1088
  560MOL0     O75524   0.788   9.340   0.463 -0.9516  0.2328  0.1151
  560MOL0     C75525   0.806   9.285   0.587  0.1408 -0.0747 -0.1920
  560MOL0     C75526   0.953   9.262   0.619  0.7005  0.2902  0.2410
  560MOL0     C75527   0.969   9.143   0.713  0.0358 -0.1703 -0.6938
  560MOL0     C75528   1.085   9.154   0.812 -0.1806 -0.7159 -0.3419
  560MOL0     C75529   1.218   9.173   0.751 -0.8866 -0.3772 -0.7333
  560MOL0     C75530   1.330   9.164   0.704 -0.2439  0.6311 -0.3713
  560MOL0     C75531   0.762   9.510   0.319 -0.0499 -1.2609  0.3190
  560MOL0     C75532   0.732   9.648   0.301 -0.3519  0.0749  0.1077
  560MOL0     H75533   0.812  10.160   0.218  1.2543 -2.4202 -0.8802
  560MOL0     H75534   0.685  10.368   0.187 -2.8492  1.5575  1.2901
  560MOL0     H75535   0.507  10.554   0.172 -0.6848  0.9747 -0.8107
  560MOL0     H75536   0.565  10.478   0.019 -0.2568  3.0086 -1.5021
  560MOL0     H75537   0.440  10.656  -0.051 -0.0353  1.0341  1.3884
  560MOL0     H75538   0.327  10.517  -0.074  2.7642 -2.4424 -0.2982
  560MOL0     H75539   0.237  10.593   0.176  0.2547  1.6168  1.9196
  560MOL0     H75540   0.330  10.733   0.153 -3.5901  2.7205  0.3315
  560MOL0     H75541   0.093  10.647  -0.023 -1.9830 -0.5668  3.0445
  560MOL0     H75542   0.090  10.765   0.094 -2.9245 -2.3014 -0.6243
  560MOL0     H75543   0.149  10.914  -0.091 -0.3524 -0.7168 -0.1404
  560MOL0     H75544   0.310  10.848  -0.050 -0.3460  0.6235  0.3790
  560MOL0     H75545   0.297  10.690  -0.228  0.2948 -0.2237 -1.3311
  560MOL0     H75546   0.122  10.720  -0.258 -0.8689  2.4399 -0.6074
  560MOL0     H75547   0.214  10.968  -0.293  3.2810  0.8822  0.3042
  560MOL0     H75548   0.374  10.884  -0.306  0.1742 -4.2490  4.6693
  560MOL0     H75549   0.298  10.746  -0.485 -0.1695  0.6930 -3.4866
  560MOL0     H75550   0.280  10.910  -0.535  0.3882  0.3894 -0.0226
  560MOL0     H75551   0.078  10.980  -0.641 -0.0142  0.3498  1.2691
  560MOL0     H75552  -0.266  10.885  -0.696 -0.3344  1.4054 -1.0913
  560MOL0     H75553  -0.134  10.970  -0.757 -0.8245  0.8809  1.0480
  560MOL0     H75554  -0.260  10.807  -0.921 -1.0927 -3.1992  0.4610
  560MOL0     H75555  -0.172  10.688  -0.828  3.1321 -0.8178 -0.3032
  560MOL0     H75556   0.054  10.801  -0.885 -2.3284  2.2491  2.7706
  560MOL0     H75557  -0.036  10.902  -0.995  0.2365 -0.2809  0.1957
  560MOL0     H75558  -0.032  10.605  -1.009  0.2726 -0.2146 -1.4332
  560MOL0     H75559   0.057  10.714  -1.113  1.6911  0.3252  2.4234
  560MOL0     H75560  -0.360  10.649  -1.230 -0.0954  1.8521 -0.8694
  560MOL0     H75561  -0.509  10.584  -1.369 -0.5805 -1.7904 -0.2548
  560MOL0     H75562  -0.481  10.555  -1.542  2.6044 -0.8637 -1.3244
  560MOL0     H75563  -0.498  10.418  -1.423 -0.4519 -0.6137  2.1599
  560MOL0     H75564  -0.129  10.414  -1.850 -0.4485 -0.4864 -1.7698
  560MOL0     H75565  -0.196  10.311  -2.066 -1.8128 -1.4036 -1.2977
  560MOL0     H75566  -0.390  10.221  -2.143  0.2666 -0.1000  0.4101
  560MOL0     H75567  -0.261  10.196  -2.264  0.2155 -0.9059  0.1850
  560MOL0     H75568  -0.410   9.977  -2.321 -4.7225 -2.2239  0.2746
  560MOL0     H75569  -0.529  10.066  -2.217  0.5073  0.0165  2.3895
  560MOL0     H75570  -0.379  10.179  -2.465  0.6919 -0.3159  1.2490
  560MOL0     H75571  -0.512  10.249  -2.379  0.9201  0.9551 -0.2652
  560MOL0     H75572  -0.503   9.977  -2.530  1.2241 -0.5323  0.3773
  560MOL0     H75573  -0.647  10.048  -2.446 -0.7106 -1.2053 -0.5861
  560MOL0     H75574  -0.504  10.136  -2.684  2.0343 -0.8538  5.1271
  560MOL0     H75575  -0.608  10.252  -2.618  3.0921  0.4108 -0.2663
  560MOL0     H75576  -0.720  10.137  -2.798  0.2041 -1.1755 -1.6619
  560MOL0     H75577  -0.708   9.979  -2.722  2.5049  0.8107 -3.8124
  560MOL0     H75578  -0.849  10.224  -2.602  1.5086 -0.7562  1.7931
  560MOL0     H75579  -0.862  10.049  -2.552  2.6190 -0.9055 -0.6975
  560MOL0     H75580  -1.061  10.084  -2.650  1.0865  1.6083  2.0727
  560MOL0     H75581  -0.964  10.021  -2.778 -1.6053 -1.3732  2.3342
  560MOL0     H75582  -0.239   9.925  -1.879 -1.7154 -0.0537 -0.2757
  560MOL0     H75583  -0.139  10.029  -1.670  0.3798  0.0259 -0.3560
  560MOL0     H75584   0.002  10.457  -1.488 -2.0929 -0.9220 -1.9447
  560MOL0     H75585   0.045  10.605  -1.276  0.3152  1.9473 -2.7017
  560MOL0     H75586   0.328  10.127   0.130  1.2163  1.1363 -0.6776
  560MOL0     H75587   0.450   9.930   0.171  0.8371  0.4607  0.9904
  560MOL0     H75588   0.826   9.758   0.601 -4.2327  0.5456 -0.1832
  560MOL0     H75589   0.868   9.541   0.640 -0.3452 -2.7266 -0.9620
  560MOL0     H75590   0.775   9.341   0.677 -1.5724  1.9168 -1.9003
  560MOL0     H75591   0.750   9.191   0.593  1.9786 -1.2169 -0.2372
  560MOL0     H75592   1.000   9.354   0.654  0.1208  0.4702  0.5736
  560MOL0     H75593   0.999   9.227   0.526 -2.2172  0.4682 -1.3947
  560MOL0     H75594   0.988   9.057   0.648  0.2434  0.6934 -1.8140
  560MOL0     H75595   0.876   9.114   0.764 -1.0216 -0.2500 -2.5780
  560MOL0     H75596   1.090   9.058   0.864 -0.2839 -1.0370 -0.9165
  560MOL0     H75597   1.063   9.235   0.882  1.2883 -0.1841 -0.4584
  560MOL0     H75598   1.426   9.165   0.655 -0.5627 -1.5164 -1.1487
  560MOL0     H75599   0.738   9.438   0.241 -1.4237  1.5226 -2.0289
  560MOL0     H75600   0.682   9.680   0.210 -0.0222  3.1624  0.9032
  561MOL0     O75601   5.825   8.402   8.156 -0.4172 -0.5649  0.3566
  561MOL0     C75602   5.807   8.338   8.258 -0.4376 -0.0440 -0.4718
  561MOL0     O75603   5.698   8.366   8.331  0.0778  0.1655 -0.5423
  561MOL0     C75604   5.626   8.484   8.328 -0.2837 -0.1060 -0.4723
  561MOL0     C75605   5.604   8.541   8.447 -0.2726 -0.0682 -0.1706
  561MOL0     C75606   5.510   8.648   8.466 -0.3559 -0.2929  0.6556
  561MOL0     C75607   5.452   8.698   8.359 -0.0752  0.3105  0.4782
  561MOL0     O75608   5.358   8.798   8.366 -0.2254 -0.2697  0.1623
  561MOL0     C75609   5.276   8.818   8.485  0.6570 -0.0580  0.3083
  561MOL0     C75610   5.186   8.950   8.481 -0.2012  0.4385  0.1889
  561MOL0     C75611   5.058   8.934   8.388 -0.6883 -0.1960  0.4590
  561MOL0     C75612   4.936   8.875   8.456 -0.7827 -0.8188 -0.2032
  561MOL0     C75613   4.822   8.882   8.361  0.1104  0.1205 -0.3990
  561MOL0     C75614   4.814   8.770   8.256  0.6884 -0.5475  0.1476
  561MOL0     C75615   4.673   8.745   8.213  0.4598  0.6327  0.5440
  561MOL0     C75616   4.647   8.828   8.091  0.3448  0.5308 -0.4973
  561MOL0     N75617   4.503   8.844   8.065 -0.7906  0.0076 -0.1352
  561MOL0     C75618   4.415   8.746   8.077  0.1371 -0.5090  0.4527
  561MOL0     C75619   4.294   8.816   8.076  0.2082 -0.4424 -0.4205
  561MOL0     C75620   4.167   8.754   8.102  0.2044  0.0196  1.1882
  561MOL0     C75621   4.146   8.630   8.023 -0.0850  0.2747 -1.2043
  561MOL0     C75622   4.012   8.570   8.047  0.1598  0.5337  0.1853
  561MOL0     C75623   4.012   8.422   8.016  0.0412  0.3020 -0.2134
  561MOL0     O75624   4.039   8.392   7.879 -0.1994 -0.0421 -1.1620
  561MOL0     C75625   3.944   8.309   7.822 -0.5291  0.3974 -0.7553
  561MOL0     C75626   3.808   8.332   7.802 -0.2441 -0.8349 -0.1542
  561MOL0     C75627   3.721   8.238   7.737 -0.8528  0.2633  0.4373
  561MOL0     C75628   3.581   8.302   7.723 -1.0205  0.0715 -0.1265
  561MOL0     C75629   3.768   8.118   7.704 -0.3866  0.0943 -0.4396
  561MOL0     C75630   3.678   8.017   7.636 -0.1171  0.1307 -0.2459
  561MOL0     O75631   3.609   8.061   7.525  0.0491 -0.1943 -0.5085
  561MOL0     C75632   3.588   7.973   7.418 -0.5809 -0.4409  0.6143
  561MOL0     C75633   3.468   7.995   7.357 -0.8834  1.1089  0.2641
  561MOL0     C75634   3.448   7.920   7.234  0.0057 -0.3484 -0.8552
  561MOL0     C75635   3.540   7.835   7.186  0.0332 -0.0295  0.3264
  561MOL0     O75636   3.520   7.765   7.064 -0.7803  0.2731 -0.3534
  561MOL0     C75637   3.436   7.644   7.067 -0.0413 -0.9619 -0.6898
  561MOL0     C75638   3.409   7.606   6.922  0.2193 -0.2587 -0.4226
  561MOL0     C75639   3.325   7.478   6.922 -0.2053  0.4678  0.5227
  561MOL0     C75640   3.423   7.356   6.919  0.4866 -0.1021  0.9184
  561MOL0     C75641   3.468   7.317   6.778  0.2170 -0.5329 -0.6697
  561MOL0     C75642   3.549   7.189   6.789 -0.6307  0.7005  0.0210
  561MOL0     C75643   3.672   7.199   6.689  0.8315 -0.2292 -0.5197
  561MOL0     C75644   3.765   7.076   6.697 -0.3967 -0.0947 -0.1857
  561MOL0    Cl75645   3.845   7.066   6.857  0.0836 -0.2118 -0.3933
  561MOL0     C75646   3.649   7.806   7.254  0.3243 -0.2111 -0.4068
  561MOL0     C75647   3.677   7.880   7.373  0.2623  0.3722  0.4043
  561MOL0     O75648   3.670   7.903   7.681  0.0077 -0.4338 -0.6295
  561MOL0     C75649   3.903   8.088   7.727  0.5648  0.9358 -0.4255
  561MOL0     C75650   3.991   8.187   7.780  0.6793  0.0317 -0.3267
  561MOL0     N75651   4.327   8.948   8.061 -0.0779 -0.0949  0.0476
  561MOL0     N75652   4.450   8.965   8.047 -0.6358  0.6667 -0.5407
  561MOL0     C75653   5.481   8.649   8.233  0.1007 -0.0509  0.6018
  561MOL0     C75654   5.566   8.540   8.212  0.4229  0.3551 -0.6052
  561MOL0     C75655   5.896   8.230   8.299 -1.3413 -0.3825  0.5662
  561MOL0     C75656   6.025   8.209   8.237 -0.2303  0.3246  0.2370
  561MOL0     C75657   6.112   8.105   8.286 -0.5911  0.3207  0.7515
  561MOL0     C75658   6.060   8.015   8.380  0.1674  0.0785  0.1333
  561MOL0     O75659   6.124   7.892   8.405  1.1093  0.1473  0.3969
  561MOL0     C75660   6.268   7.887   8.384 -0.2822  0.2153 -0.1528
  561MOL0     C75661   6.335   7.774   8.463 -0.1982  0.5384 -0.2116
  561MOL0     C75662   6.337   7.796   8.621  1.2339 -0.9577  0.2987
  561MOL0     C75663   6.391   7.674   8.699 -0.3642 -0.6659  0.4754
  561MOL0     C75664   6.415   7.671   8.844  0.1802  0.1004 -0.4331
  561MOL0     C75665   6.434   7.665   8.961  0.1530 -0.5234  0.4490
  561MOL0     C75666   5.939   8.041   8.446  1.2391 -0.2956 -0.3491
  561MOL0     C75667   5.859   8.144   8.402  0.2932  0.3806  0.4699
  561MOL0     H75668   5.641   8.498   8.539  1.0652 -1.0878 -1.1477
  561MOL0     H75669   5.497   8.693   8.564 -1.6322 -0.4202  0.5598
  561MOL0     H75670   5.216   8.728   8.498  1.4350 -0.4091  1.6424
  561MOL0     H75671   5.336   8.816   8.576  2.6974 -2.8490 -0.9253
  561MOL0     H75672   5.146   8.994   8.572 -0.1221  3.5093 -1.1239
  561MOL0     H75673   5.257   9.025   8.444  2.0225 -3.3771 -4.5948
  561MOL0     H75674   5.037   9.036   8.354  1.3247  0.0933 -0.0241
  561MOL0     H75675   5.086   8.882   8.296 -0.4248  1.5327 -0.5012
  561MOL0     H75676   4.955   8.770   8.482  1.8257 -0.8385 -1.8346
  561MOL0     H75677   4.917   8.935   8.546  0.4884 -0.3090 -0.2533
  561MOL0     H75678   4.734   8.884   8.426 -0.8609  1.6968 -1.6855
  561MOL0     H75679   4.822   8.985   8.325 -2.1422  0.3617  0.1251
  561MOL0     H75680   4.874   8.787   8.165  1.6951  1.7949  1.1721
  561MOL0     H75681   4.838   8.674   8.303 -0.3336 -1.6558 -1.4944
  561MOL0     H75682   4.658   8.637   8.201 -0.1830  0.8408 -0.6800
  561MOL0     H75683   4.616   8.774   8.302  0.3844  1.9423  0.0918
  561MOL0     H75684   4.703   8.791   8.005  2.7364 -0.2148  1.2657
  561MOL0     H75685   4.684   8.929   8.114  1.6558 -0.4442  2.1143
  561MOL0     H75686   4.428   8.638   8.083 -1.3669 -0.6457  1.8931
  561MOL0     H75687   4.170   8.736   8.210  1.9449  0.4927  1.2427
  561MOL0     H75688   4.092   8.827   8.069  1.4054  0.3903 -0.9005
  561MOL0     H75689   4.222   8.557   8.051  0.0327  0.7137 -0.3385
  561MOL0     H75690   4.141   8.655   7.916  3.1480  0.8737 -1.3010
  561MOL0     H75691   3.934   8.618   7.988 -1.8585 -1.0585  1.4467
  561MOL0     H75692   3.983   8.583   8.152  1.7214 -1.1561  0.8907
  561MOL0     H75693   3.918   8.374   8.045  0.3201 -0.6981 -0.8834
  561MOL0     H75694   4.083   8.372   8.082 -0.7845 -0.9149 -0.2119
  561MOL0     H75695   3.771   8.422   7.850  0.8952 -1.3520  1.7829
  561MOL0     H75696   3.531   8.309   7.820 -1.0328  2.7137 -0.2286
  561MOL0     H75697   3.586   8.403   7.680 -1.5835 -0.8751 -2.6129
  561MOL0     H75698   3.529   8.234   7.656  0.6419  1.7267 -3.3723
  561MOL0     H75699   3.383   8.054   7.388 -1.2219  1.7997 -1.7939
  561MOL0     H75700   3.346   7.929   7.199  0.2081  1.5485 -1.0314
  561MOL0     H75701   3.480   7.562   7.124 -0.8438 -1.0996 -0.2583
  561MOL0     H75702   3.346   7.668   7.124  1.0574 -2.1967  1.6952
  561MOL0     H75703   3.354   7.691   6.880 -0.9422 -0.6983  0.1574
  561MOL0     H75704   3.505   7.592   6.871  0.8389 -2.0430  1.1006
  561MOL0     H75705   3.272   7.472   6.826  1.7237 -1.6604 -0.5158
  561MOL0     H75706   3.262   7.472   7.011  0.4621  2.7095  1.2115
  561MOL0     H75707   3.512   7.379   6.978  2.0479  0.6147 -1.5802
  561MOL0     H75708   3.373   7.272   6.969 -5.6150  2.2508 -0.3483
  561MOL0     H75709   3.527   7.395   6.729 -1.9667  0.4083 -2.0039
  561MOL0     H75710   3.376   7.303   6.720  1.5424 -0.4949 -2.8937
  561MOL0     H75711   3.583   7.164   6.890  0.3989 -1.5766 -0.8189
  561MOL0     H75712   3.485   7.105   6.762 -0.2894  0.0923  1.0377
  561MOL0     H75713   3.735   7.289   6.690 -0.1713  0.5089 -1.5272
  561MOL0     H75714   3.630   7.210   6.588  0.3196  2.1763 -0.1116
  561MOL0     H75715   3.835   7.091   6.614  0.2817  3.0511  0.8407
  561MOL0     H75716   3.705   6.988   6.670 -2.1500  1.1834 -0.6574
  561MOL0     H75717   3.711   7.723   7.224  1.3298 -0.3765  1.9604
  561MOL0     H75718   3.768   7.858   7.427  1.5348  0.4800 -1.5724
  561MOL0     H75719   3.943   7.990   7.704 -1.6254  0.1161 -0.9718
  561MOL0     H75720   4.094   8.161   7.803  0.3922 -2.0462 -1.1610
  561MOL0     H75721   5.423   8.674   8.145 -1.1603 -0.2072  1.3684
  561MOL0     H75722   5.587   8.514   8.109  2.7345  2.2148 -0.6925
  561MOL0     H75723   6.049   8.276   8.155 -0.3565 -1.9504 -1.7997
  561MOL0     H75724   6.198   8.088   8.222  0.4477  1.5683  1.7526
  561MOL0     H75725   6.286   7.878   8.277 -0.7640 -1.0715 -0.1410
  561MOL0     H75726   6.311   7.981   8.419 -3.7304  2.0784 -0.5677
  561MOL0     H75727   6.440   7.753   8.441 -0.7330 -1.8463 -0.8031
  561MOL0     H75728   6.282   7.682   8.438  0.1457 -0.2116  1.6367
  561MOL0     H75729   6.236   7.815   8.659  1.1750  0.0393 -0.3261
  561MOL0     H75730   6.387   7.893   8.626  2.3553 -1.4838 -0.3462
  561MOL0     H75731   6.485   7.638   8.655 -1.1659 -0.8745 -1.1185
  561MOL0     H75732   6.307   7.605   8.689 -2.9076  2.4480 -1.7560
  561MOL0     H75733   6.470   7.648   9.060  3.5414 -0.1467 -0.5811
  561MOL0     H75734   5.897   7.975   8.521 -0.7282  0.3255 -0.8559
  561MOL0     H75735   5.771   8.150   8.465  2.0155  1.0181  2.9356
  562MOL0     O75736   1.308   3.231   4.303 -0.5813  0.9883  0.0451
  562MOL0     C75737   1.214   3.184   4.235  0.2192  0.9838 -0.2945
  562MOL0     O75738   1.101   3.122   4.277 -0.2942 -0.3704  0.2810
  562MOL0     C75739   1.057   3.124   4.402 -0.2133  0.2096 -0.4170
  562MOL0     C75740   0.964   3.022   4.419  0.0118  0.3429  0.5202
  562MOL0     C75741   0.893   3.016   4.538  0.5010 -0.2028 -0.2179
  562MOL0     C75742   0.914   3.097   4.644  0.4806  0.1120  0.4827
  562MOL0     O75743   0.830   3.089   4.760  0.5495  0.5292  0.8712
  562MOL0     C75744   0.688   3.044   4.744 -0.2680 -0.0861  0.7670
  562MOL0     C75745   0.680   2.890   4.767  0.1217  0.4662 -0.5955
  562MOL0     C75746   0.667   2.868   4.924 -0.0552 -0.1338  0.2105
  562MOL0     C75747   0.667   2.720   4.957 -0.0111  0.6650 -0.1925
  562MOL0     C75748   0.530   2.676   5.003  0.6161 -0.6772 -0.2603
  562MOL0     C75749   0.519   2.535   5.048  1.2380 -0.7372 -0.3251
  562MOL0     C75750   0.404   2.520   5.149  0.1578 -0.5314 -0.0742
  562MOL0     C75751   0.388   2.363   5.181 -0.0304  0.3294  0.0288
  562MOL0     N75752   0.319   2.282   5.079  0.3410  0.7530  0.2117
  562MOL0     C75753   0.375   2.210   4.979  0.1429  0.5550  0.8612
  562MOL0     C75754   0.282   2.160   4.902 -0.0286 -0.3557  1.5340
  562MOL0     C75755   0.295   2.079   4.776  0.5026  0.4941 -0.0884
  562MOL0     C75756   0.222   1.942   4.767  0.7242  0.0133 -0.1684
  562MOL0     C75757   0.244   1.846   4.882  0.6254 -0.3251 -0.6091
  562MOL0     C75758   0.387   1.806   4.906 -0.8757  0.5275 -0.9709
  562MOL0     O75759   0.418   1.706   5.009  0.5801  0.3809  0.3642
  562MOL0     C75760   0.443   1.736   5.146  0.2237 -0.0456 -0.4352
  562MOL0     C75761   0.494   1.852   5.199 -0.5142 -0.0224 -0.2067
  562MOL0     C75762   0.533   1.872   5.332  0.3554  0.5026  1.5630
  562MOL0     C75763   0.571   2.006   5.369  0.0518 -0.3009 -0.0637
  562MOL0     C75764   0.517   1.764   5.422 -0.4196  0.5713  0.4688
  562MOL0     C75765   0.570   1.749   5.559  0.1468  0.2402  0.5650
  562MOL0     O75766   0.531   1.638   5.619 -0.5876  0.4261  0.3389
  562MOL0     C75767   0.594   1.610   5.732 -0.2943  0.6264 -0.1716
  562MOL0     C75768   0.706   1.533   5.728 -0.0204  0.8709  0.3621
  562MOL0     C75769   0.776   1.514   5.842 -0.7052 -0.6568 -0.6464
  562MOL0     C75770   0.739   1.572   5.962  0.2030 -0.7058  0.2487
  562MOL0     O75771   0.813   1.551   6.082 -0.2752  0.6241  1.0311
  562MOL0     C75772   0.937   1.478   6.088  0.3743 -0.0694 -0.4049
  562MOL0     C75773   1.015   1.518   6.212 -0.1334  0.7062 -0.0341
  562MOL0     C75774   1.143   1.442   6.217  0.3987 -0.5706 -0.1531
  562MOL0     C75775   1.214   1.457   6.346  0.1343 -0.0263  0.2667
  562MOL0     C75776   1.334   1.366   6.367 -0.1237  0.2649 -0.5353
  562MOL0     C75777   1.384   1.367   6.513  0.4563 -0.2093  0.1371
  562MOL0     C75778   1.507   1.289   6.528  0.1466  0.0833 -0.3037
  562MOL0     C75779   1.539   1.258   6.674  0.1749 -0.5679  0.0095
  562MOL0    Cl75780   1.644   1.120   6.681  0.1002  0.1895 -0.1651
  562MOL0     C75781   0.615   1.635   5.965  0.4422  0.8469  0.0904
  562MOL0     C75782   0.540   1.657   5.854 -0.0546 -0.5667 -0.1624
  562MOL0     O75783   0.636   1.837   5.611  0.1756  0.1695  0.3598
  562MOL0     C75784   0.452   1.645   5.371  0.7100 -0.0791  0.5151
  562MOL0     C75785   0.412   1.632   5.235  0.6211 -0.1648  0.2601
  562MOL0     N75786   0.161   2.202   4.956  1.2122 -0.9878  0.2473
  562MOL0     N75787   0.184   2.285   5.050 -0.0097 -0.3981 -0.1503
  562MOL0     C75788   1.021   3.187   4.632  0.5324 -0.3928 -0.4049
  562MOL0     C75789   1.095   3.205   4.518  0.1539  0.4168  0.5180
  562MOL0     C75790   1.230   3.199   4.080 -0.0812 -0.9235  0.6203
  562MOL0     C75791   1.118   3.211   4.000 -0.6395 -0.0472  0.5469
  562MOL0     C75792   1.127   3.198   3.862 -0.1655  0.4619 -0.2007
  562MOL0     C75793   1.250   3.179   3.800  0.0241 -0.6409 -0.3329
  562MOL0     O75794   1.257   3.172   3.661 -0.1887 -0.4894 -0.7073
  562MOL0     C75795   1.353   3.093   3.590  0.4768  0.9981  0.0905
  562MOL0     C75796   1.320   2.950   3.602  0.4876 -0.0593 -0.2153
  562MOL0     C75797   1.404   2.850   3.526  0.0280  1.0167  1.5440
  562MOL0     C75798   1.556   2.861   3.539 -0.0064  0.6473  0.4880
  562MOL0     C75799   1.616   2.753   3.458 -0.0929 -0.5504 -1.0410
  562MOL0     C75800   1.677   2.675   3.388  0.4355  0.5349 -0.5353
  562MOL0     C75801   1.363   3.167   3.882  0.7191 -0.1693  0.0642
  562MOL0     C75802   1.351   3.191   4.018 -0.7750  0.1825  0.6457
  562MOL0     H75803   0.943   2.960   4.332 -4.1506  0.7894  1.0256
  562MOL0     H75804   0.820   2.936   4.548  2.7760 -2.5107 -1.0008
  562MOL0     H75805   0.629   3.095   4.820  0.5895  0.3583  1.1419
  562MOL0     H75806   0.644   3.075   4.648  1.9971  1.4683  0.1393
  562MOL0     H75807   0.585   2.849   4.732 -1.5591  2.5920  1.1733
  562MOL0     H75808   0.759   2.827   4.726  0.3337 -1.3400  2.3368
  562MOL0     H75809   0.748   2.923   4.974  1.1440 -0.2540 -1.5131
  562MOL0     H75810   0.576   2.914   4.963  2.3634  3.1001  2.6671
  562MOL0     H75811   0.696   2.657   4.873 -3.5634 -5.0248  2.1975
  562MOL0     H75812   0.735   2.703   5.041 -1.1848  0.4148  0.7470
  562MOL0     H75813   0.503   2.740   5.088 -1.0507  1.3513 -2.1944
  562MOL0     H75814   0.460   2.692   4.920 -0.3389 -2.5491  0.1165
  562MOL0     H75815   0.497   2.469   4.964 -2.4794 -1.9324  1.3473
  562MOL0     H75816   0.607   2.500   5.103  0.3152 -0.5424  1.3585
  562MOL0     H75817   0.414   2.585   5.237 -0.7053  1.8881 -1.6872
  562MOL0     H75818   0.320   2.559   5.093  1.4361  2.8391  0.1613
  562MOL0     H75819   0.326   2.356   5.271  0.0498 -2.0758 -0.0529
  562MOL0     H75820   0.483   2.323   5.218  0.0842  1.9036  1.5752
  562MOL0     H75821   0.481   2.185   4.970 -0.2015 -0.4014 -0.9606
  562MOL0     H75822   0.252   2.143   4.698  0.5076 -0.7347 -1.1466
  562MOL0     H75823   0.402   2.065   4.758  0.4887  2.2616 -1.9604
  562MOL0     H75824   0.242   1.886   4.675 -0.8922  2.1439 -1.9065
  562MOL0     H75825   0.114   1.962   4.763  0.9658  1.5151  0.1571
  562MOL0     H75826   0.201   1.750   4.855  2.6363 -0.9360 -1.8839
  562MOL0     H75827   0.200   1.880   4.976  1.2460 -0.2277 -0.3489
  562MOL0     H75828   0.453   1.892   4.910  3.0361 -2.2205 -1.2161
  562MOL0     H75829   0.420   1.758   4.813 -3.9932  1.2709 -2.6308
  562MOL0     H75830   0.503   1.936   5.132 -3.1633  2.6281  2.4759
  562MOL0     H75831   0.679   2.013   5.355 -0.1278  0.2301 -1.2708
  562MOL0     H75832   0.536   2.091   5.311  1.5929  2.8035  3.1526
  562MOL0     H75833   0.535   2.029   5.470 -0.3591 -2.4606  0.3416
  562MOL0     H75834   0.738   1.501   5.630 -0.0333 -0.6093  0.8209
  562MOL0     H75835   0.857   1.442   5.842 -2.5016 -3.0134  3.3848
  562MOL0     H75836   0.914   1.371   6.082  1.8521 -0.3880 -6.0918
  562MOL0     H75837   1.000   1.494   6.000  1.2158 -0.2465  0.1517
  562MOL0     H75838   1.027   1.626   6.217 -0.4499  0.6861  2.3755
  562MOL0     H75839   0.948   1.493   6.295  0.6930  0.4318  0.5687
  562MOL0     H75840   1.205   1.472   6.132  1.9506  1.2267  1.5136
  562MOL0     H75841   1.115   1.337   6.199 -2.0712  0.1341 -0.7806
  562MOL0     H75842   1.253   1.559   6.339 -0.1599 -0.0071 -2.0799
  562MOL0     H75843   1.146   1.448   6.431 -2.2678 -1.2401 -1.6382
  562MOL0     H75844   1.415   1.401   6.303 -1.2808  0.6129 -1.8461
  562MOL0     H75845   1.303   1.266   6.339 -2.1148  0.8392 -0.4998
  562MOL0     H75846   1.402   1.474   6.529 -4.3540  0.8033  0.2825
  562MOL0     H75847   1.299   1.349   6.580 -0.0072 -0.5091 -0.5174
  562MOL0     H75848   1.586   1.355   6.492 -0.8377  1.3694 -0.1394
  562MOL0     H75849   1.495   1.201   6.465  0.2459  1.3872 -2.2014
  562MOL0     H75850   1.446   1.247   6.730  1.8451 -2.6406  2.6271
  562MOL0     H75851   1.594   1.342   6.717  1.1834 -0.2001 -1.8992
  562MOL0     H75852   0.572   1.658   6.062 -1.1903 -1.4978 -0.0000
  562MOL0     H75853   0.450   1.717   5.846  1.2707  1.3974 -1.4946
  562MOL0     H75854   0.430   1.561   5.435 -2.5683 -0.4589 -0.9138
  562MOL0     H75855   0.363   1.551   5.184 -1.1310  1.7783 -1.3224
  562MOL0     H75856   1.038   3.263   4.707  2.0280 -3.5398  2.7171
  562MOL0     H75857   1.169   3.284   4.503 -0.8153  1.1268 -0.7315
  562MOL0     H75858   1.016   3.219   4.036 -1.4315  1.0006 -1.7521
  562MOL0     H75859   1.031   3.206   3.812 -1.5325 -3.1354  1.5071
  562MOL0     H75860   1.341   3.112   3.483 -2.7857 -0.6249  0.0589
  562MOL0     H75861   1.450   3.106   3.640 -0.3313  0.5106  1.8693
  562MOL0     H75862   1.215   2.943   3.572 -0.3733  1.8044  2.0526
  562MOL0     H75863   1.329   2.938   3.710 -0.0787  1.7784  0.0850
  562MOL0     H75864   1.376   2.850   3.420 -3.6260 -1.3841  2.3105
  562MOL0     H75865   1.368   2.750   3.549  3.1695 -0.2580  1.3984
  562MOL0     H75866   1.569   2.841   3.646 -0.1951 -0.7252  0.2681
  562MOL0     H75867   1.608   2.953   3.509  0.3035 -0.1793 -1.6939
  562MOL0     H75868   1.729   2.614   3.317 -1.2465  0.0389 -1.4082
  562MOL0     H75869   1.456   3.131   3.841 -0.4066 -2.0160 -1.0328
  562MOL0     H75870   1.445   3.196   4.073 -2.3478 -1.0496  3.6982
  563MOL0     O75871   1.324  10.429   9.250 -0.4598 -0.3789  0.3434
  563MOL0     C75872   1.334  10.460   9.367 -0.4148  0.0679  0.4898
  563MOL0     O75873   1.360  10.370   9.461 -0.6831  0.0949 -0.6097
  563MOL0     C75874   1.363  10.233   9.452  0.2204 -0.6304  0.5658
  563MOL0     C75875   1.486  10.164   9.435  0.0094 -0.4918 -1.1756
  563MOL0     C75876   1.492  10.025   9.430  0.9417  0.7785  1.2018
  563MOL0     C75877   1.370   9.950   9.444 -0.8060  0.0039 -0.0430
  563MOL0     O75878   1.358   9.813   9.463  0.0234  0.9476  0.5558
  563MOL0     C75879   1.474   9.734   9.457 -0.6709 -0.1706  0.1186
  563MOL0     C75880   1.440   9.593   9.471 -0.8187  0.6647  0.7090
  563MOL0     C75881   1.572   9.501   9.489 -0.1300  0.1607 -0.0595
  563MOL0     C75882   1.521   9.360   9.500 -0.6481 -0.6804  0.0364
  563MOL0     C75883   1.625   9.259   9.528 -0.5569  0.4214  0.0561
  563MOL0     C75884   1.575   9.128   9.579 -0.3023  0.5415 -0.1061
  563MOL0     C75885   1.546   9.140   9.730  0.1596  0.1570  0.3657
  563MOL0     C75886   1.483   9.002   9.767  0.0569 -0.2585 -0.5267
  563MOL0     N75887   1.461   8.983   9.915 -0.5757  0.7017  0.2218
  563MOL0     C75888   1.565   9.000  10.003 -0.0411 -0.3478 -0.5145
  563MOL0     C75889   1.498   9.021  10.125 -0.1109 -0.0431 -0.0017
  563MOL0     C75890   1.565   9.072  10.247  0.7117  0.8293 -0.4763
  563MOL0     C75891   1.658   8.963  10.296  0.0332 -0.4986 -0.5082
  563MOL0     C75892   1.737   8.994  10.423 -0.4014  0.1795  0.3306
  563MOL0     C75893   1.639   9.013  10.538  0.1667  0.2579 -0.0737
  563MOL0     O75894   1.705   8.987  10.656  0.1440 -0.1937  0.6879
  563MOL0     C75895   1.650   8.941  10.771  0.6233 -0.0834 -1.0822
  563MOL0     C75896   1.517   8.956  10.809  1.2706 -0.3724  0.5614
  563MOL0     C75897   1.465   8.898  10.924  0.0286  0.4565  0.3758
  563MOL0     C75898   1.324   8.923  10.961  0.9955 -0.0614 -0.5625
  563MOL0     C75899   1.557   8.823  11.006 -0.6848 -0.7000 -0.3424
  563MOL0     C75900   1.514   8.762  11.132 -0.2441 -0.5926 -0.1187
  563MOL0     O75901   1.414   8.665  11.115  0.2246 -0.8784  0.0177
  563MOL0     C75902   1.415   8.558  11.193 -0.4117  0.0111  0.0545
  563MOL0     C75903   1.290   8.493  11.202 -0.2006 -0.7105  0.2068
  563MOL0     C75904   1.277   8.374  11.269  0.0061 -0.5164  0.4801
  563MOL0     C75905   1.388   8.299  11.302  0.7307  0.3985 -0.6038
  563MOL0     O75906   1.383   8.157  11.327 -0.8509 -0.7241  0.1885
  563MOL0     C75907   1.281   8.079  11.267  0.6979  0.0032  0.3985
  563MOL0     C75908   1.361   7.955  11.214  0.1538  0.3567 -0.1888
  563MOL0     C75909   1.267   7.844  11.166  0.1866 -0.1650 -0.2665
  563MOL0     C75910   1.342   7.711  11.121 -0.6577  0.2439  0.7538
  563MOL0     C75911   1.247   7.620  11.041  0.5205 -0.9197 -0.5693
  563MOL0     C75912   1.299   7.486  10.999  0.0886  0.0462  0.3080
  563MOL0     C75913   1.350   7.507  10.859 -0.1714  0.0366 -0.3843
  563MOL0     C75914   1.379   7.373  10.785  0.9671  0.1015 -0.0137
  563MOL0    Cl75915   1.418   7.411  10.622  0.1652 -0.2542 -0.0759
  563MOL0     C75916   1.513   8.368  11.304 -0.3252  0.0322 -0.1298
  563MOL0     C75917   1.524   8.495  11.258  0.0618  1.1039  0.0956
  563MOL0     O75918   1.574   8.776  11.234  0.4940  0.2513  0.1446
  563MOL0     C75919   1.690   8.801  10.959  0.1359 -0.0896  0.2235
  563MOL0     C75920   1.738   8.870  10.849  0.1308 -0.3470  0.2705
  563MOL0     N75921   1.363   9.000  10.106  0.4756 -0.2182  0.7053
  563MOL0     N75922   1.341   8.987   9.978 -1.1057 -0.0435 -0.0583
  563MOL0     C75923   1.253  10.021   9.456  0.3941 -0.9257  0.8312
  563MOL0     C75924   1.250  10.163   9.461  0.6038  1.3154  0.0379
  563MOL0     C75925   1.277  10.598   9.388  0.1497  0.7794  0.4063
  563MOL0     C75926   1.313  10.697   9.291 -0.0077 -0.4087 -0.2693
  563MOL0     C75927   1.271  10.832   9.305  0.7236  0.0403 -0.1484
  563MOL0     C75928   1.200  10.874   9.421 -0.3504 -0.1275 -0.0273
  563MOL0     O75929   1.147  10.995   9.437  0.8911  0.2168 -0.2067
  563MOL0     C75930   1.211  11.103   9.370  0.1056 -0.4644 -0.1840
  563MOL0     C75931   1.344  11.130   9.431 -0.1757  0.4818 -0.2652
  563MOL0     C75932   1.402  11.262   9.383  0.3286  0.2596 -0.1739
  563MOL0     C75933   1.398  11.369   9.501  0.9393  0.7878  0.5498
  563MOL0     C75934   1.478  11.340   9.621  0.4403 -0.1167  0.3160
  563MOL0     C75935   1.545  11.331   9.725 -0.9684  0.1108 -0.6584
  563MOL0     C75936   1.156  10.769   9.506 -0.1714  1.4982 -1.0825
  563MOL0     C75937   1.185  10.633   9.487 -0.8138  0.5284 -0.4589
  563MOL0     H75938   1.575  10.226   9.425 -1.2895  1.8605  0.6545
  563MOL0     H75939   1.589   9.975   9.427  0.7705  0.4809 -1.0150
  563MOL0     H75940   1.511   9.734   9.355 -0.0105 -0.9448  0.3484
  563MOL0     H75941   1.548   9.761   9.533  0.6507  0.7823 -1.4633
  563MOL0     H75942   1.367   9.565   9.547 -3.8007 -2.0650 -2.7966
  563MOL0     H75943   1.387   9.566   9.379 -0.2256  1.7270  0.0280
  563MOL0     H75944   1.636   9.518   9.403 -1.8551  0.9080 -1.2549
  563MOL0     H75945   1.623   9.535   9.580 -1.1611  0.5289  0.3950
  563MOL0     H75946   1.455   9.364   9.588  0.2237  1.7178  0.6745
  563MOL0     H75947   1.478   9.329   9.405  0.0103  0.7538 -0.7658
  563MOL0     H75948   1.684   9.245   9.437 -0.5778 -0.8623  0.2295
  563MOL0     H75949   1.698   9.297   9.600  0.4717 -2.0684  0.4270
  563MOL0     H75950   1.488   9.092   9.524  0.2954 -1.3743  0.1335
  563MOL0     H75951   1.650   9.050   9.564  2.5219  2.6903  1.7371
  563MOL0     H75952   1.636   9.156   9.789  1.7076 -1.8162 -1.2932
  563MOL0     H75953   1.476   9.222   9.751 -0.7606  0.8137 -4.1078
  563MOL0     H75954   1.539   8.914   9.736 -0.9362 -1.9199  2.0601
  563MOL0     H75955   1.390   9.016   9.711  1.3543  2.5629 -2.1718
  563MOL0     H75956   1.672   9.016   9.991  0.0749 -2.0424 -2.1649
  563MOL0     H75957   1.620   9.164  10.226 -0.0076  0.9205 -2.1220
  563MOL0     H75958   1.497   9.098  10.329  0.3035  0.3926 -0.6728
  563MOL0     H75959   1.737   8.943  10.223  0.1339  0.1848 -0.5926
  563MOL0     H75960   1.607   8.867  10.290  1.7986 -1.4416 -1.1445
  563MOL0     H75961   1.798   9.082  10.400 -1.8156  0.8853 -0.9568
  563MOL0     H75962   1.805   8.911  10.444  1.9538  2.2251  1.1857
  563MOL0     H75963   1.571   8.928  10.524 -1.9926  1.1361  3.5970
  563MOL0     H75964   1.596   9.114  10.536 -1.7813 -0.5195 -0.0478
  563MOL0     H75965   1.449   9.014  10.747 -0.9035 -1.0620  2.1533
  563MOL0     H75966   1.315   8.921  11.070  2.2776  2.4836 -0.3417
  563MOL0     H75967   1.283   9.023  10.942  1.3090  1.6519  5.5462
  563MOL0     H75968   1.252   8.847  10.931 -0.5208  0.4379  1.5288
  563MOL0     H75969   1.196   8.544  11.186  0.7952  1.8790  2.0337
  563MOL0     H75970   1.177   8.333  11.275 -0.0353 -1.0711 -2.5644
  563MOL0     H75971   1.198   8.055  11.334  0.3475 -1.9853 -0.6763
  563MOL0     H75972   1.240   8.124  11.175  1.5717 -0.4454 -0.2153
  563MOL0     H75973   1.424   7.999  11.136  0.2517  0.0853 -0.2624
  563MOL0     H75974   1.421   7.911  11.295  1.6989  0.9413 -0.9871
  563MOL0     H75975   1.210   7.896  11.089  0.3514 -1.8928 -1.6057
  563MOL0     H75976   1.199   7.821  11.249  1.7640 -2.6541  0.4355
  563MOL0     H75977   1.422   7.754  11.060 -0.5922  0.4248  0.9648
  563MOL0     H75978   1.384   7.661  11.209 -3.7420 -1.9497  1.1521
  563MOL0     H75979   1.203   7.677  10.958 -0.9372  0.7175  1.2288
  563MOL0     H75980   1.158   7.609  11.105  1.6786  3.9549  2.4369
  563MOL0     H75981   1.376   7.458  11.072 -1.2276  0.7336  2.0335
  563MOL0     H75982   1.223   7.408  11.013  1.4671 -0.9530  2.8665
  563MOL0     H75983   1.442   7.567  10.856  1.6435 -2.2895  2.7341
  563MOL0     H75984   1.264   7.549  10.806 -0.4768 -3.9984 -3.6195
  563MOL0     H75985   1.297   7.304  10.802  1.0084  0.3359  1.2312
  563MOL0     H75986   1.474   7.333  10.823  0.2512 -1.4878  0.1803
  563MOL0     H75987   1.593   8.301  11.333 -1.8674 -2.1481 -0.6081
  563MOL0     H75988   1.622   8.543  11.256  0.5912  0.0509  0.0636
  563MOL0     H75989   1.757   8.748  11.026  1.1801  1.5382  0.5192
  563MOL0     H75990   1.835   8.869  10.801 -0.0542 -1.5176 -0.1083
  563MOL0     H75991   1.163   9.962   9.464  1.2033 -2.1735  1.0163
  563MOL0     H75992   1.160  10.221   9.477  1.2549  2.3645 -0.0582
  563MOL0     H75993   1.383  10.683   9.209  0.3685  0.1858 -0.0495
  563MOL0     H75994   1.288  10.886   9.212  0.5044 -1.5710 -1.1700
  563MOL0     H75995   1.214  11.089   9.261 -5.0534  0.8620 -0.7653
  563MOL0     H75996   1.149  11.191   9.388  1.2011  0.0855  1.0002
  563MOL0     H75997   1.416  11.054   9.397  0.3687  1.8222 -2.2732
  563MOL0     H75998   1.345  11.114   9.539  3.9154 -0.5506 -0.2702
  563MOL0     H75999   1.350  11.302   9.295  0.8505  0.2714 -0.4789
  563MOL0     H76000   1.508  11.249   9.358  0.5214  3.4741 -1.5324
  563MOL0     H76001   1.292  11.374   9.529  0.1494  0.6867 -2.2050
  563MOL0     H76002   1.432  11.460   9.451  2.5701  1.3096  2.4588
  563MOL0     H76003   1.592  11.349   9.819  0.1925  3.8027 -1.7649
  563MOL0     H76004   1.085  10.773   9.588 -0.0939  0.5893 -0.9603
  563MOL0     H76005   1.154  10.556   9.557  1.9886  1.5517  2.0943
  564MOL0     O76006   3.934  10.371   4.523  0.5809  0.0839  0.5108
  564MOL0     C76007   3.933  10.368   4.402  0.3573  0.5570  0.3615
  564MOL0     O76008   3.831  10.351   4.315  0.7887  0.4651 -0.2952
  564MOL0     C76009   3.704  10.341   4.358  0.3971 -0.1753 -0.1388
  564MOL0     C76010   3.612  10.438   4.315 -0.1369 -0.3851 -0.3773
  564MOL0     C76011   3.480  10.418   4.366  0.4829 -0.0826  2.1049
  564MOL0     C76012   3.440  10.305   4.441  0.4744 -0.1807 -0.2861
  564MOL0     O76013   3.302  10.302   4.474  0.6056  1.0661  0.3925
  564MOL0     C76014   3.246  10.167   4.476 -0.0611 -0.4668  0.2723
  564MOL0     C76015   3.144  10.164   4.362  0.3447  0.0028 -0.1213
  564MOL0     C76016   3.089  10.025   4.340  0.3154  0.0887 -0.9499
  564MOL0     C76017   2.992  10.027   4.221  0.0466 -0.8683  0.1917
  564MOL0     C76018   2.952   9.886   4.201  0.0497  0.5175  0.1480
  564MOL0     C76019   2.896   9.867   4.057 -0.2469 -0.3562 -0.3574
  564MOL0     C76020   2.835   9.729   4.040 -0.5752 -0.4433 -0.4804
  564MOL0     C76021   2.827   9.717   3.891 -1.0163 -1.0358 -0.8772
  564MOL0     N76022   2.804   9.575   3.866  0.2382 -0.1488 -0.0822
  564MOL0     C76023   2.679   9.518   3.874 -0.3146  0.6277  0.8033
  564MOL0     C76024   2.701   9.382   3.904  0.3532 -0.1975  0.0403
  564MOL0     C76025   2.583   9.282   3.924  0.3442 -0.9139 -0.0612
  564MOL0     C76026   2.645   9.140   3.902 -0.1309  0.2335  0.7067
  564MOL0     C76027   2.551   9.035   3.945  0.2046  0.0975  1.1628
  564MOL0     C76028   2.589   8.894   3.888  1.2539 -0.4170 -0.2057
  564MOL0     O76029   2.567   8.886   3.741  0.6757  0.8638 -0.0430
  564MOL0     C76030   2.555   8.768   3.683 -0.5044  0.2604  0.3434
  564MOL0     C76031   2.588   8.650   3.749  0.0720 -0.1157 -0.2388
  564MOL0     C76032   2.572   8.527   3.686  1.0882  0.3649 -0.6804
  564MOL0     C76033   2.586   8.403   3.776 -0.4338 -0.5176 -0.2911
  564MOL0     C76034   2.539   8.522   3.550 -0.1645 -0.1919  0.1767
  564MOL0     C76035   2.522   8.408   3.476 -0.0737  0.2727  0.3108
  564MOL0     O76036   2.585   8.405   3.353 -0.7249  0.7006  0.0139
  564MOL0     C76037   2.589   8.293   3.268  0.2829 -0.7818 -0.0928
  564MOL0     C76038   2.487   8.197   3.248  0.6668 -0.5870 -0.0832
  564MOL0     C76039   2.521   8.077   3.186  0.8201 -0.0272 -1.0932
  564MOL0     C76040   2.646   8.041   3.135  0.1421  0.3257  0.6748
  564MOL0     O76041   2.663   7.911   3.086 -0.2343  0.0701  0.3370
  564MOL0     C76042   2.782   7.870   3.021  0.2773 -0.4348  0.5053
  564MOL0     C76043   2.906   7.849   3.123 -0.7683 -0.0190 -0.5230
  564MOL0     C76044   2.886   7.743   3.230 -0.3975 -0.4186  0.0650
  564MOL0     C76045   3.017   7.718   3.301 -0.1740 -0.2608 -0.6603
  564MOL0     C76046   3.028   7.583   3.363 -0.1932  0.2172 -0.3567
  564MOL0     C76047   3.171   7.566   3.420 -0.0712  0.0181  0.6483
  564MOL0     C76048   3.177   7.546   3.573  0.0429  0.0910  0.2703
  564MOL0     C76049   3.179   7.681   3.650 -0.7199  0.0516 -0.7835
  564MOL0    Cl76050   3.105   7.643   3.806  0.2441 -0.0946  0.1278
  564MOL0     C76051   2.742   8.149   3.139 -0.1927  0.1954  0.0952
  564MOL0     C76052   2.711   8.265   3.207  0.3381  0.8335 -0.4661
  564MOL0     O76053   2.453   8.321   3.525  0.2851  0.7435  0.0165
  564MOL0     C76054   2.511   8.650   3.478  0.4318  0.2539  0.2484
  564MOL0     C76055   2.514   8.766   3.549 -0.1679  0.2903 -0.7118
  564MOL0     N76056   2.839   9.365   3.908 -0.3224 -0.0003  0.2398
  564MOL0     N76057   2.890   9.480   3.894 -0.1872 -0.5921  0.4978
  564MOL0     C76058   3.537  10.209   4.474 -0.4963  0.8728  0.2572
  564MOL0     C76059   3.670  10.226   4.432  0.2184 -0.1491  0.6906
  564MOL0     C76060   4.061  10.365   4.339 -0.8146 -0.4924 -0.5045
  564MOL0     C76061   4.177  10.366   4.422 -0.3368 -0.9771  0.5334
  564MOL0     C76062   4.305  10.364   4.358 -0.4788 -1.1480  0.2451
  564MOL0     C76063   4.310  10.365   4.216  0.3629 -0.0275 -1.0926
  564MOL0     O76064   4.430  10.364   4.148  0.1082  0.2721  0.1717
  564MOL0     C76065   4.527  10.259   4.160 -0.0408 -0.3775  0.3963
  564MOL0     C76066   4.469  10.120   4.161 -0.5088 -0.1825  0.2089
  564MOL0     C76067   4.577  10.020   4.175  0.4813 -1.3622 -0.2465
  564MOL0     C76068   4.651  10.016   4.312 -0.6857 -0.3882  0.0008
  564MOL0     C76069   4.611   9.900   4.386 -0.4052  0.3042 -0.1403
  564MOL0     C76070   4.584   9.792   4.430  1.3786 -0.5282 -0.0668
  564MOL0     C76071   4.193  10.367   4.138  0.5393 -0.0014  0.0517
  564MOL0     C76072   4.065  10.360   4.198 -0.8518 -0.2865 -0.6076
  564MOL0     H76073   3.651  10.526   4.266  1.9525 -1.6217 -1.0416
  564MOL0     H76074   3.403  10.490   4.338  1.6232  0.8878  1.3662
  564MOL0     H76075   3.318  10.085   4.464 -0.6377 -0.9561  0.1316
  564MOL0     H76076   3.198  10.135   4.569 -2.4369  0.2625 -0.6371
  564MOL0     H76077   3.059  10.228   4.391  1.2266  1.6568 -1.0041
  564MOL0     H76078   3.178  10.204   4.266  1.5322 -0.4400  0.1045
  564MOL0     H76079   3.168   9.951   4.319 -0.0898 -0.2083 -1.4744
  564MOL0     H76080   3.041   9.997   4.434  0.8263 -2.2621 -1.3082
  564MOL0     H76081   2.900  10.082   4.243  1.4143  1.1074  1.3478
  564MOL0     H76082   3.038  10.062   4.128  2.4972  1.1002  2.0221
  564MOL0     H76083   3.044   9.826   4.198 -0.3887 -0.2227  0.9343
  564MOL0     H76084   2.881   9.845   4.273  1.0003 -0.5802  0.4951
  564MOL0     H76085   2.816   9.939   4.038 -2.4854 -2.7473 -0.5389
  564MOL0     H76086   2.981   9.885   3.990 -1.9018  2.0023 -2.0026
  564MOL0     H76087   2.905   9.659   4.088 -0.2891  0.8232  1.0238
  564MOL0     H76088   2.737   9.729   4.088  1.1539  1.0473  3.5155
  564MOL0     H76089   2.922   9.748   3.845 -1.2444  1.2848  0.0448
  564MOL0     H76090   2.749   9.777   3.843 -1.8713 -1.0934  0.4030
  564MOL0     H76091   2.590   9.578   3.860 -0.2624  0.9246  1.7005
  564MOL0     H76092   2.557   9.307   4.027 -1.5311  0.9394 -0.9309
  564MOL0     H76093   2.500   9.302   3.856 -0.9354 -1.4239  1.3181
  564MOL0     H76094   2.734   9.121   3.963 -0.4992 -2.2500  0.5947
  564MOL0     H76095   2.671   9.132   3.796  2.9784 -0.1751  1.4103
  564MOL0     H76096   2.454   9.070   3.909  1.3370  1.9974 -0.2212
  564MOL0     H76097   2.556   9.039   4.055  1.2727  2.5993  1.0960
  564MOL0     H76098   2.518   8.831   3.941 -0.2111  1.0206 -0.3868
  564MOL0     H76099   2.694   8.873   3.910  1.4116 -0.0687 -0.6039
  564MOL0     H76100   2.628   8.655   3.849 -0.8020  1.2565  0.0702
  564MOL0     H76101   2.508   8.330   3.754 -3.6079  3.0585 -1.8993
  564MOL0     H76102   2.681   8.360   3.742 -0.8213 -2.4234  0.8778
  564MOL0     H76103   2.602   8.423   3.882 -0.6986 -1.6981 -0.0053
  564MOL0     H76104   2.385   8.196   3.286  0.6840 -0.3782 -0.0333
  564MOL0     H76105   2.451   7.996   3.204  2.1518 -0.6591  1.9589
  564MOL0     H76106   2.765   7.774   2.972 -1.5201  1.1197 -2.1313
  564MOL0     H76107   2.804   7.932   2.933 -1.3295 -1.4252 -0.6434
  564MOL0     H76108   2.987   7.813   3.058  0.5585 -0.4355  1.2989
  564MOL0     H76109   2.930   7.947   3.167 -0.0296  0.4532 -1.9057
  564MOL0     H76110   2.846   7.645   3.204 -0.6750 -0.5152  0.8197
  564MOL0     H76111   2.813   7.782   3.301  0.1585  0.2953  0.2508
  564MOL0     H76112   3.101   7.726   3.232 -1.1486 -0.9978 -1.9848
  564MOL0     H76113   3.029   7.792   3.381  1.6023 -1.2235  0.0152
  564MOL0     H76114   3.012   7.503   3.290  1.0080 -0.4822  0.1202
  564MOL0     H76115   2.947   7.576   3.435  0.2433 -0.8110  0.0570
  564MOL0     H76116   3.205   7.465   3.395  2.5524  0.6716  1.2928
  564MOL0     H76117   3.243   7.637   3.380  0.5468  0.9208  3.2258
  564MOL0     H76118   3.257   7.478   3.602 -0.5690 -1.8534 -2.2398
  564MOL0     H76119   3.088   7.485   3.591 -1.2258  1.4312 -1.1007
  564MOL0     H76120   3.125   7.767   3.611  0.9248 -0.7874 -5.5537
  564MOL0     H76121   3.285   7.707   3.659 -0.1301 -1.7056 -2.2024
  564MOL0     H76122   2.846   8.130   3.111 -0.6163  0.6098 -1.9268
  564MOL0     H76123   2.792   8.337   3.216  3.5322 -2.3005 -1.8132
  564MOL0     H76124   2.478   8.652   3.375 -5.7270  2.3447  1.8431
  564MOL0     H76125   2.495   8.862   3.502  3.2010  1.3019 -0.3007
  564MOL0     H76126   3.515  10.120   4.531 -1.4784 -0.0030 -1.4056
  564MOL0     H76127   3.744  10.160   4.474  0.9614  1.7200  2.4927
  564MOL0     H76128   4.174  10.353   4.530  0.4322 -0.4663  0.6212
  564MOL0     H76129   4.396  10.363   4.418 -1.2040 -0.0673  1.4099
  564MOL0     H76130   4.582  10.268   4.066  0.8295  5.5563  1.0853
  564MOL0     H76131   4.592  10.285   4.245  0.5854  0.1155 -0.2184
  564MOL0     H76132   4.414  10.098   4.069 -1.5874  2.3727  0.1470
  564MOL0     H76133   4.394  10.097   4.238 -2.2581 -3.8805 -2.3356
  564MOL0     H76134   4.645  10.043   4.093  0.3106  2.9489  0.5739
  564MOL0     H76135   4.541   9.920   4.149 -1.5707 -1.1960  1.6315
  564MOL0     H76136   4.632  10.104   4.375  2.2679  0.2444  0.1386
  564MOL0     H76137   4.758  10.000   4.297 -0.7288 -2.3519  1.3938
  564MOL0     H76138   4.565   9.691   4.460  0.2013  0.7009  3.9105
  564MOL0     H76139   4.174  10.357   4.032 -2.9018 -2.2084  0.7004
  564MOL0     H76140   3.976  10.348   4.137 -1.8732 -1.0368  0.9693
  565MOL0     O76141  10.886   5.677   4.283 -0.0466 -0.3140 -0.2949
  565MOL0     C76142  10.853   5.787   4.307  1.1956 -1.0155  0.3542
  565MOL0     O76143  10.808   5.836   4.430  0.3549 -0.2645 -0.1361
  565MOL0     C76144  10.782   5.743   4.532 -0.3779  0.2700  0.1112
  565MOL0     C76145  10.714   5.621   4.528  0.6596 -0.1446 -0.3289
  565MOL0     C76146  10.683   5.552   4.637 -0.3139  0.8423 -0.6689
  565MOL0     C76147  10.717   5.600   4.769  0.4435 -0.1300  0.2772
  565MOL0     O76148  10.688   5.523   4.880 -0.2170 -0.4119 -0.2727
  565MOL0     C76149  10.783   5.528   4.985 -0.0243  0.4047  0.1616
  565MOL0     C76150  10.783   5.388   5.042  0.3148 -0.0696 -0.2381
  565MOL0     C76151  10.878   5.375   5.166  1.1133 -0.8442 -0.0753
  565MOL0     C76152  10.885   5.242   5.226  0.5640  0.3836  0.0830
  565MOL0     C76153  10.959   5.245   5.358 -0.4294  0.0832 -0.3113
  565MOL0     C76154  11.027   5.110   5.387 -0.5878  0.3033 -0.1499
  565MOL0     C76155  11.177   5.106   5.373 -0.5194 -0.5821 -0.7029
  565MOL0     C76156  11.224   4.957   5.405 -0.7827  0.0234  0.5648
  565MOL0     N76157  11.231   4.876   5.281 -0.7352  0.4561 -0.5732
  565MOL0     C76158  11.292   4.754   5.284  0.8357  0.0594 -0.3832
  565MOL0     C76159  11.237   4.684   5.184  1.1919  0.2018 -0.1927
  565MOL0     C76160  11.248   4.529   5.162  0.6952 -0.1578  1.2734
  565MOL0     C76161  11.359   4.463   5.252 -0.0314 -0.7031 -0.6373
  565MOL0     C76162  11.400   4.323   5.183 -0.3228  1.0398 -0.0942
  565MOL0     C76163  11.429   4.221   5.289  0.1152 -0.4194 -0.5752
  565MOL0     O76164  11.564   4.245   5.341  0.3282 -0.0745 -1.0595
  565MOL0     C76165  11.618   4.159   5.432 -0.1620  0.2421  0.6994
  565MOL0     C76166  11.539   4.047   5.476 -0.5126  0.5495  1.3718
  565MOL0     C76167  11.589   3.961   5.573  0.0690  1.5184  0.3506
  565MOL0     C76168  11.526   3.830   5.613  0.2507  0.5987  1.1012
  565MOL0     C76169  11.712   4.003   5.636 -0.4300 -0.1553 -0.2914
  565MOL0     C76170  11.761   3.953   5.772 -0.1725  0.4769  0.2285
  565MOL0     O76171  11.902   3.970   5.793  0.1687  0.6003  0.4105
  565MOL0     C76172  11.951   3.953   5.923 -0.5730  0.6816  1.5440
  565MOL0     C76173  11.941   4.064   5.997 -0.8921 -0.2551  0.2012
  565MOL0     C76174  11.977   4.054   6.131  0.3678 -0.8892  0.4851
  565MOL0     C76175  12.006   3.936   6.188 -0.3332 -0.2647  0.9490
  565MOL0     O76176  12.006   3.944   6.327  0.1809 -0.2202 -0.3174
  565MOL0     C76177  12.090   3.851   6.406  0.4279  0.4019  0.3237
  565MOL0     C76178  12.233   3.890   6.405  0.6065  0.3009 -0.2146
  565MOL0     C76179  12.270   4.011   6.498 -0.3443  0.0906 -0.8356
  565MOL0     C76180  12.257   3.988   6.641 -0.8206  0.1936 -0.4478
  565MOL0     C76181  12.329   4.104   6.716  0.5671 -0.9508 -0.7552
  565MOL0     C76182  12.294   4.126   6.868 -0.2261  0.0354  0.0267
  565MOL0     C76183  12.386   4.224   6.954  0.0293 -0.3605  0.7949
  565MOL0     C76184  12.395   4.371   6.913 -0.1506 -0.4321 -0.4545
  565MOL0    Cl76185  12.234   4.457   6.908 -0.0125 -0.0550 -0.3321
  565MOL0     C76186  12.016   3.816   6.108 -0.2396 -0.4040  0.6305
  565MOL0     C76187  11.987   3.827   5.973  0.5258  0.0147 -0.0506
  565MOL0     O76188  11.688   3.877   5.843 -0.3149 -0.5947 -0.1799
  565MOL0     C76189  11.793   4.117   5.581  0.9655  0.6090 -0.2352
  565MOL0     C76190  11.744   4.185   5.473  0.8456  0.5391 -0.5650
  565MOL0     N76191  11.145   4.763   5.116  0.4168  0.2946 -0.1232
  565MOL0     N76192  11.141   4.876   5.177  0.5898  0.0831  0.7057
  565MOL0     C76193  10.789   5.716   4.777 -0.3363 -1.1305 -0.3169
  565MOL0     C76194  10.828   5.777   4.655 -0.7261 -0.2579  0.6569
  565MOL0     C76195  10.838   5.888   4.196 -0.1763 -0.1033 -0.3079
  565MOL0     C76196  10.913   5.882   4.080  0.2801  0.6612 -0.2730
  565MOL0     C76197  10.884   5.960   3.966 -0.0273  0.4624 -0.6111
  565MOL0     C76198  10.778   6.052   3.975  0.1456  1.1245 -0.6032
  565MOL0     O76199  10.745   6.129   3.862 -0.5933 -0.6014 -0.3842
  565MOL0     C76200  10.852   6.228   3.823  0.8043 -0.5566 -0.2506
  565MOL0     C76201  10.893   6.340   3.929  0.7223 -0.1016  0.8996
  565MOL0     C76202  11.020   6.417   3.908  0.3912  0.7615 -1.0939
  565MOL0     C76203  10.989   6.565   3.915  0.9310  0.0725  0.4171
  565MOL0     C76204  10.894   6.615   3.815 -0.4328  1.0204  1.2005
  565MOL0     C76205  10.828   6.668   3.729  0.4426  0.0095  0.6526
  565MOL0     C76206  10.724   6.081   4.103  1.1224 -0.0536  0.2825
  565MOL0     C76207  10.746   5.991   4.204 -0.1790  0.2062 -0.3244
  565MOL0     H76208  10.683   5.583   4.432 -1.1919 -0.8076  0.4752
  565MOL0     H76209  10.651   5.449   4.625  1.7511  0.2253 -1.3597
  565MOL0     H76210  10.886   5.553   4.956 -0.4271  0.7527 -1.0588
  565MOL0     H76211  10.747   5.603   5.056  0.4955  0.0685  0.7936
  565MOL0     H76212  10.682   5.369   5.078  0.5693 -0.9422  0.0374
  565MOL0     H76213  10.815   5.313   4.969  1.7668 -0.1424  0.4323
  565MOL0     H76214  10.979   5.410   5.147  0.4824  0.5451 -1.0312
  565MOL0     H76215  10.843   5.444   5.244  0.2917 -3.2053  1.7846
  565MOL0     H76216  10.786   5.196   5.224  1.2025 -1.1315 -2.8946
  565MOL0     H76217  10.942   5.180   5.156  1.9722  0.7649  0.8449
  565MOL0     H76218  11.036   5.322   5.366  1.9218 -1.9950 -1.4408
  565MOL0     H76219  10.894   5.268   5.444  0.3065 -0.4553  0.4030
  565MOL0     H76220  11.000   5.072   5.487 -0.7985  4.2466  1.4521
  565MOL0     H76221  10.981   5.039   5.317  0.8856 -1.8503  0.9303
  565MOL0     H76222  11.204   5.126   5.269 -1.9388  2.4196 -0.5877
  565MOL0     H76223  11.218   5.186   5.436  0.3008  0.7602 -2.8220
  565MOL0     H76224  11.166   4.918   5.489  0.3383 -0.7780  0.9854
  565MOL0     H76225  11.322   4.978   5.448  0.5481 -0.7344 -1.9020
  565MOL0     H76226  11.353   4.714   5.365  0.1254 -1.1480 -0.4177
  565MOL0     H76227  11.151   4.484   5.186 -0.0475 -0.2369 -1.4442
  565MOL0     H76228  11.257   4.517   5.053 -1.8112  0.1932  0.9664
  565MOL0     H76229  11.326   4.469   5.356 -0.7793  2.0402 -0.9309
  565MOL0     H76230  11.447   4.527   5.254  0.2687 -1.0447 -2.0336
  565MOL0     H76231  11.487   4.328   5.117  1.2281  0.9874  1.8384
  565MOL0     H76232  11.312   4.302   5.122 -0.8169  2.9781 -0.1217
  565MOL0     H76233  11.432   4.121   5.244 -2.5974 -0.7238 -0.2668
  565MOL0     H76234  11.360   4.228   5.374  1.2722  1.0538  0.2959
  565MOL0     H76235  11.440   4.025   5.436  0.6613 -2.3233 -0.2521
  565MOL0     H76236  11.468   3.795   5.527  2.5461 -2.5708  0.6853
  565MOL0     H76237  11.600   3.752   5.632 -0.5450  0.5396  4.8877
  565MOL0     H76238  11.471   3.844   5.707 -3.8767  0.6202 -1.0648
  565MOL0     H76239  11.899   4.158   5.964 -0.1886 -0.0412 -0.0895
  565MOL0     H76240  11.963   4.142   6.192 -1.3871 -0.1515 -0.8927
  565MOL0     H76241  12.049   3.842   6.507  1.1797  1.5803  0.7587
  565MOL0     H76242  12.087   3.751   6.362  1.5739  1.2055 -1.7099
  565MOL0     H76243  12.304   3.807   6.408  0.5055  0.2025 -0.5249
  565MOL0     H76244  12.241   3.935   6.305  2.5163 -1.3813 -0.8974
  565MOL0     H76245  12.204   4.093   6.471 -0.6386 -0.1016 -0.6997
  565MOL0     H76246  12.376   4.029   6.475  0.2050 -0.0248  1.3293
  565MOL0     H76247  12.151   4.005   6.662 -1.3230 -0.8483 -1.9796
  565MOL0     H76248  12.284   3.889   6.680  0.7641  0.9594  0.4811
  565MOL0     H76249  12.323   4.197   6.657  0.4098 -1.7070 -1.9602
  565MOL0     H76250  12.434   4.075   6.706  1.4424  0.9554  1.7579
  565MOL0     H76251  12.187   4.150   6.878 -0.3635 -1.2844  2.8666
  565MOL0     H76252  12.297   4.034   6.927 -3.3843 -1.3866 -1.7409
  565MOL0     H76253  12.485   4.182   6.934 -0.7902 -1.8084 -0.4892
  565MOL0     H76254  12.365   4.214   7.061 -2.0769  1.8268  0.6609
  565MOL0     H76255  12.444   4.383   6.816  1.7260 -1.0292  0.3736
  565MOL0     H76256  12.454   4.427   6.986 -2.2515  1.4095 -0.0647
  565MOL0     H76257  12.019   3.719   6.156 -3.6064 -1.5765 -1.1980
  565MOL0     H76258  11.987   3.729   5.926  0.6365  0.4971 -1.0793
  565MOL0     H76259  11.879   4.163   5.627  2.1726 -0.2037 -1.5810
  565MOL0     H76260  11.796   4.269   5.428 -0.8434  2.0092  0.0847
  565MOL0     H76261  10.811   5.765   4.871 -2.0773  1.2389 -1.0562
  565MOL0     H76262  10.887   5.868   4.661  0.5348 -1.0068 -0.0419
  565MOL0     H76263  10.984   5.800   4.081 -3.3375 -2.7764 -1.0073
  565MOL0     H76264  10.930   5.933   3.872 -0.0696  0.1017 -0.5303
  565MOL0     H76265  10.943   6.195   3.773  0.2091  1.1175 -2.6011
  565MOL0     H76266  10.794   6.278   3.745 -1.9921 -1.8739  0.8279
  565MOL0     H76267  10.894   6.289   4.026 -0.5221 -2.2695 -0.1589
  565MOL0     H76268  10.802   6.400   3.928  0.4494 -0.4659  2.2027
  565MOL0     H76269  11.056   6.387   3.809  1.1636  1.4512 -1.0304
  565MOL0     H76270  11.091   6.387   3.985 -1.1724  1.7365  0.8242
  565MOL0     H76271  11.077   6.623   3.888  0.5570  0.3382 -0.2568
  565MOL0     H76272  10.947   6.587   4.014 -2.3585 -1.0137 -0.5977
  565MOL0     H76273  10.760   6.721   3.666 -0.8394 -2.2835 -0.0266
  565MOL0     H76274  10.646   6.154   4.122  0.8760  0.1055 -1.1959
  565MOL0     H76275  10.699   6.004   4.301  1.6677 -1.9823  0.9960
  566MOL0     O76276   0.985   8.711  10.955  0.2502  0.5328 -0.2925
  566MOL0     C76277   0.949   8.822  11.001  1.7529  0.4676 -0.0053
  566MOL0     O76278   0.895   8.836  11.126  0.9422  0.4362 -0.7007
  566MOL0     C76279   0.884   8.744  11.223  0.2878 -0.6497  0.3560
  566MOL0     C76280   0.994   8.691  11.289  0.1661 -1.5761  0.4198
  566MOL0     C76281   0.983   8.605  11.395 -0.0916  0.3580  0.0950
  566MOL0     C76282   0.870   8.562  11.435 -0.3487  0.8056 -0.1538
  566MOL0     O76283   0.887   8.466  11.536 -0.9877  0.2569  0.2410
  566MOL0     C76284   0.770   8.422  11.615 -0.4694 -0.1784 -0.7301
  566MOL0     C76285   0.825   8.354  11.746 -0.9556  0.0848 -0.2779
  566MOL0     C76286   0.872   8.452  11.859 -0.5747 -0.5198 -0.9485
  566MOL0     C76287   0.788   8.432  11.978 -0.0022  0.5933  0.3104
  566MOL0     C76288   0.847   8.506  12.100 -0.6453  0.9690  0.0155
  566MOL0     C76289   0.985   8.455  12.145 -0.0331  0.4919 -1.4278
  566MOL0     C76290   1.046   8.541  12.263  0.7055 -0.2989  0.1748
  566MOL0     C76291   1.061   8.691  12.226 -0.2898  0.4556 -0.6186
  566MOL0     N76292   1.180   8.745  12.291  1.3970 -0.0727 -0.5031
  566MOL0     C76293   1.190   8.781  12.418 -0.9143 -0.1789  0.7622
  566MOL0     C76294   1.323   8.800  12.440 -0.6062  0.2438 -0.5310
  566MOL0     C76295   1.381   8.873  12.564  0.1680 -0.5898 -0.2040
  566MOL0     C76296   1.533   8.849  12.577 -0.6750  0.4372  0.6297
  566MOL0     C76297   1.563   8.707  12.630  0.1841  0.5673  0.3803
  566MOL0     C76298   1.611   8.717  12.781 -0.4569 -0.1369 -0.3758
  566MOL0     O76299   1.707   8.825  12.810 -0.6232 -0.3463  0.2100
  566MOL0     C76300   1.833   8.799  12.854 -0.1639 -0.4739  0.7415
  566MOL0     C76301   1.865   8.848  12.977  0.1275  1.0584 -0.5002
  566MOL0     C76302   2.005   8.853  13.021 -0.1997 -0.9878  0.7526
  566MOL0     C76303   2.025   8.909  13.166 -0.6210  0.5543  0.5962
  566MOL0     C76304   2.108   8.798  12.933 -0.1565  0.3258 -0.9797
  566MOL0     C76305   2.253   8.816  12.957 -0.7484  0.0400 -0.3760
  566MOL0     O76306   2.342   8.763  12.863  0.1267  0.4739 -0.4788
  566MOL0     C76307   2.472   8.789  12.882 -0.0224 -0.5032  0.3173
  566MOL0     C76308   2.520   8.923  12.862  0.3813  1.1994 -0.7379
  566MOL0     C76309   2.659   8.946  12.864  0.5982  0.3908  0.8905
  566MOL0     C76310   2.746   8.839  12.885 -0.3089 -1.2651  0.1452
  566MOL0     O76311   2.883   8.866  12.891  0.4147  0.3906 -0.1584
  566MOL0     C76312   2.911   8.915  13.018  0.0960 -0.2062 -0.3985
  566MOL0     C76313   3.058   8.901  13.053  0.5324 -0.2817 -0.4719
  566MOL0     C76314   3.143   8.966  12.949  0.9993  0.2971  0.0301
  566MOL0     C76315   3.293   8.960  13.000 -0.1434  0.1947  0.3339
  566MOL0     C76316   3.381   9.055  12.916  0.2840 -0.0162 -0.2928
  566MOL0     C76317   3.366   9.202  12.977  0.2516  0.4083 -0.0911
  566MOL0     C76318   3.397   9.310  12.866  0.6208 -0.3778  0.6291
  566MOL0     C76319   3.277   9.349  12.772 -0.0966 -0.5000 -0.1018
  566MOL0    Cl76320   3.318   9.478  12.660 -0.5288 -0.0504  0.0212
  566MOL0     C76321   2.693   8.711  12.897  0.0937  0.2019 -0.0088
  566MOL0     C76322   2.556   8.680  12.888 -0.0332  0.0451 -0.6414
  566MOL0     O76323   2.285   8.883  13.053 -0.4444 -0.0184  0.1609
  566MOL0     C76324   2.068   8.738  12.817  0.9703 -0.4032  0.5341
  566MOL0     C76325   1.935   8.731  12.779  0.7549 -0.7095  0.2142
  566MOL0     N76326   1.391   8.777  12.322  0.5792  0.6269 -0.0654
  566MOL0     N76327   1.307   8.731  12.238  0.0275 -0.3426  0.4770
  566MOL0     C76328   0.756   8.616  11.389 -0.9226  0.9309  0.2340
  566MOL0     C76329   0.761   8.710  11.280 -0.6245 -0.7078 -0.3417
  566MOL0     C76330   0.954   8.952  10.936 -0.3659 -0.6333  0.7172
  566MOL0     C76331   0.989   8.950  10.805  0.5387 -0.1152  0.8935
  566MOL0     C76332   0.996   9.066  10.736  0.0094  0.0714 -0.3137
  566MOL0     C76333   0.979   9.189  10.795  0.0580  0.3906 -0.0258
  566MOL0     O76334   0.980   9.301  10.711 -0.8285  0.5265 -0.3853
  566MOL0     C76335   0.953   9.437  10.759 -0.3475  0.4856 -0.4689
  566MOL0     C76336   0.810   9.457  10.731 -0.2703  0.2844  0.6573
  566MOL0     C76337   0.756   9.604  10.722  0.9713 -0.1105 -0.9649
  566MOL0     C76338   0.844   9.691  10.619  0.4537 -0.0003 -0.1294
  566MOL0     C76339   0.841   9.626  10.489  1.1138 -0.7788 -0.2609
  566MOL0     C76340   0.857   9.571  10.383  0.4569  1.1228 -0.1118
  566MOL0     C76341   0.958   9.190  10.935  0.0248  0.3803 -0.2993
  566MOL0     C76342   0.947   9.069  11.008  0.8220 -1.0201 -0.3157
  566MOL0     H76343   1.087   8.734  11.254  0.2652 -1.8786  0.3125
  566MOL0     H76344   1.078   8.569  11.432  0.4950  0.3453 -1.3401
  566MOL0     H76345   0.699   8.502  11.642 -0.9388 -1.0782  0.8026
  566MOL0     H76346   0.712   8.345  11.564  1.2366 -3.4729  1.9045
  566MOL0     H76347   0.756   8.282  11.791 -0.7619  0.1209  0.0748
  566MOL0     H76348   0.905   8.288  11.713 -2.1427 -2.5606  1.8173
  566MOL0     H76349   0.977   8.425  11.874 -0.7375 -2.1547 -2.4466
  566MOL0     H76350   0.873   8.558  11.834  0.6241 -0.2531  0.0979
  566MOL0     H76351   0.682   8.456  11.962 -0.2740  1.3754  2.9082
  566MOL0     H76352   0.795   8.324  11.989  0.0458  0.0173 -3.8387
  566MOL0     H76353   0.857   8.613  12.082  0.1900  1.2031  1.6038
  566MOL0     H76354   0.769   8.488  12.175 -1.6484  0.0051 -1.2101
  566MOL0     H76355   0.968   8.356  12.186 -0.1489  0.5246 -1.3987
  566MOL0     H76356   1.057   8.443  12.063  0.7672 -0.6574 -0.5775
  566MOL0     H76357   0.979   8.536  12.350 -0.0583  0.2859 -0.3665
  566MOL0     H76358   1.139   8.488  12.283  2.1079  1.9532 -0.0698
  566MOL0     H76359   0.977   8.753  12.257  3.0778  4.2616  1.8824
  566MOL0     H76360   1.072   8.700  12.118  0.8402  2.1717 -0.3925
  566MOL0     H76361   1.104   8.804  12.481  0.0689 -1.5194  2.6644
  566MOL0     H76362   1.378   8.982  12.558 -2.1811 -0.5322  0.7851
  566MOL0     H76363   1.319   8.856  12.652 -0.7113  4.5578  0.4832
  566MOL0     H76364   1.575   8.921  12.648 -1.6227  1.7363 -0.0806
  566MOL0     H76365   1.590   8.864  12.485  0.5213 -3.1920  0.6398
  566MOL0     H76366   1.647   8.666  12.572 -1.0151 -1.1626 -0.2092
  566MOL0     H76367   1.476   8.640  12.632  0.6160  0.0053  1.4374
  566MOL0     H76368   1.657   8.619  12.793  0.0070 -0.1426 -1.9811
  566MOL0     H76369   1.523   8.738  12.843 -1.0396  4.6846 -2.3599
  566MOL0     H76370   1.782   8.886  13.035  1.1198  1.0190  1.0058
  566MOL0     H76371   1.928   8.917  13.216 -2.3005 -2.7707 -1.7768
  566MOL0     H76372   2.090   8.842  13.223 -0.0906 -0.2471 -0.8786
  566MOL0     H76373   2.075   9.005  13.151  0.2888 -0.1519 -1.3087
  566MOL0     H76374   2.457   8.999  12.817  1.4631  2.6903  0.1896
  566MOL0     H76375   2.681   9.047  12.831 -0.2208  1.2166  2.7375
  566MOL0     H76376   2.877   9.018  13.029  2.0991  0.4451  0.1921
  566MOL0     H76377   2.861   8.852  13.092  0.2447  0.2216  0.0647
  566MOL0     H76378   3.072   8.958  13.146 -2.9058  0.4248 -0.2430
  566MOL0     H76379   3.081   8.795  13.054  1.5572 -0.3657 -5.8528
  566MOL0     H76380   3.108   9.070  12.948 -0.5676 -0.1107  2.7464
  566MOL0     H76381   3.141   8.915  12.853 -0.9822  1.2942 -0.5036
  566MOL0     H76382   3.309   8.984  13.106 -1.4825 -0.3842  0.6873
  566MOL0     H76383   3.330   8.857  13.001 -2.7532 -0.8213  0.8083
  566MOL0     H76384   3.342   9.049  12.814 -0.3904  0.9571 -0.1076
  566MOL0     H76385   3.480   9.008  12.920 -1.6089 -4.8497 -2.4699
  566MOL0     H76386   3.262   9.208  13.012  0.2633  0.1745 -0.0143
  566MOL0     H76387   3.443   9.213  13.054  0.5174 -0.2342 -0.2562
  566MOL0     H76388   3.480   9.279  12.802 -1.5339  1.2632 -3.3319
  566MOL0     H76389   3.422   9.401  12.921  0.4191 -0.8241  1.4841
  566MOL0     H76390   3.194   9.381  12.836  0.3682  3.2962 -1.1621
  566MOL0     H76391   3.248   9.254  12.726  3.1720 -1.2099 -0.9136
  566MOL0     H76392   2.769   8.639  12.925 -0.2497 -0.4149 -0.6361
  566MOL0     H76393   2.520   8.577  12.893  2.2134 -0.7551  0.7113
  566MOL0     H76394   2.137   8.692  12.748 -1.1396 -0.2885 -1.8132
  566MOL0     H76395   1.901   8.688  12.685  1.1716 -0.5416 -0.0160
  566MOL0     H76396   0.658   8.587  11.426 -0.4976  0.2515  0.8564
  566MOL0     H76397   0.669   8.763  11.256 -1.4988 -1.9896  0.0856
  566MOL0     H76398   1.002   8.859  10.748  1.4159  1.1404 -1.0203
  566MOL0     H76399   1.011   9.075  10.629 -0.4746  0.7465 -0.3302
  566MOL0     H76400   0.980   9.447  10.864  0.6230 -3.5768 -0.1633
  566MOL0     H76401   1.032   9.499  10.713 -0.4969  0.6538 -0.5005
  566MOL0     H76402   0.758   9.398  10.807  3.7968 -1.8497  2.0474
  566MOL0     H76403   0.784   9.410  10.635  3.3020 -1.3254  0.3357
  566MOL0     H76404   0.738   9.645  10.822 -4.3713 -1.5028 -1.0693
  566MOL0     H76405   0.652   9.596  10.691 -0.0151  2.7132  1.1826
  566MOL0     H76406   0.949   9.706  10.644  0.8092  1.7233 -2.3100
  566MOL0     H76407   0.804   9.793  10.611 -0.9323 -0.4679  0.5374
  566MOL0     H76408   0.862   9.516  10.291  0.4911 -1.5230  1.3645
  566MOL0     H76409   0.957   9.278  10.998  1.3190  1.2405 -1.4337
  566MOL0     H76410   0.916   9.060  11.111 -0.6032  3.1551 -0.1876
  567MOL0     O76411   3.999   5.382  10.944  0.3019 -0.2622  0.5943
  567MOL0     C76412   4.038   5.273  10.967 -0.6025  0.8429 -0.2141
  567MOL0     O76413   4.138   5.241  11.053 -0.6280 -0.0551  0.6443
  567MOL0     C76414   4.224   5.338  11.082 -0.2209  0.0267  0.1773
  567MOL0     C76415   4.181   5.444  11.165 -0.3898 -0.0285  0.3344
  567MOL0     C76416   4.261   5.544  11.209  0.2935 -0.4651 -0.6496
  567MOL0     C76417   4.395   5.536  11.180 -0.4411 -0.1010 -0.1477
  567MOL0     O76418   4.472   5.629  11.244 -0.2581  0.4640 -0.1556
  567MOL0     C76419   4.594   5.686  11.184  0.0493  0.1399 -0.2075
  567MOL0     C76420   4.712   5.605  11.244  0.2909  0.1437  0.4479
  567MOL0     C76421   4.852   5.642  11.193  0.2755  0.3173 -0.0027
  567MOL0     C76422   4.902   5.588  11.058  1.0290  0.2225  1.1404
  567MOL0     C76423   5.047   5.620  11.021 -0.1857  0.8668  0.2070
  567MOL0     C76424   5.152   5.552  11.105 -0.9604  0.3908 -0.4136
  567MOL0     C76425   5.295   5.595  11.044  0.4699  1.0183  0.2858
  567MOL0     C76426   5.409   5.603  11.142 -1.0736 -0.4272  0.7727
  567MOL0     N76427   5.464   5.478  11.200 -0.0773 -0.7521 -0.4976
  567MOL0     C76428   5.440   5.438  11.320 -0.3066  0.2688 -0.7668
  567MOL0     C76429   5.525   5.330  11.333 -0.8776 -0.0398  0.2034
  567MOL0     C76430   5.573   5.255  11.451 -0.1228  0.6017  0.7924
  567MOL0     C76431   5.655   5.341  11.544  0.4140 -1.2113 -0.7585
  567MOL0     C76432   5.799   5.365  11.500 -0.9404  0.5088 -1.1778
  567MOL0     C76433   5.880   5.449  11.599  0.4916  0.1712  0.5927
  567MOL0     O76434   5.944   5.383  11.699  0.1971  0.0240  0.4883
  567MOL0     C76435   6.050   5.447  11.763  0.4190  0.1488 -0.0051
  567MOL0     C76436   6.082   5.577  11.731  0.2558  0.4056 -0.0813
  567MOL0     C76437   6.181   5.644  11.801 -0.1669  0.7241  0.7914
  567MOL0     C76438   6.200   5.793  11.775  0.3508  0.2474  0.1730
  567MOL0     C76439   6.265   5.567  11.891  0.6752  0.5180 -0.6740
  567MOL0     C76440   6.383   5.622  11.964  0.6348  0.8036  0.0383
  567MOL0     O76441   6.406   5.574  12.087 -0.0763 -0.1168  0.2715
  567MOL0     C76442   6.485   5.650  12.168 -0.4427 -0.2168  0.6597
  567MOL0     C76443   6.453   5.781  12.206 -0.4048 -0.1883  0.6806
  567MOL0     C76444   6.545   5.849  12.295 -0.5773  0.0410  0.1084
  567MOL0     C76445   6.643   5.775  12.360  0.0899 -0.8754  0.2204
  567MOL0     O76446   6.722   5.840  12.452 -0.3212 -0.0135 -0.3668
  567MOL0     C76447   6.838   5.769  12.507  0.2516  0.5339  0.4982
  567MOL0     C76448   6.890   5.847  12.623 -0.3583  0.2069 -1.5127
  567MOL0     C76449   7.019   5.788  12.693  0.2500  0.3175  1.1211
  567MOL0     C76450   7.012   5.644  12.743  0.1678 -0.8930  0.1157
  567MOL0     C76451   7.094   5.544  12.660 -0.2174 -1.0504 -0.1628
  567MOL0     C76452   7.141   5.428  12.742  1.2200  0.4102 -0.3038
  567MOL0     C76453   7.240   5.351  12.650  0.0102 -0.0378 -0.8024
  567MOL0     C76454   7.301   5.229  12.730  0.2097 -0.2414 -0.0044
  567MOL0    Cl76455   7.455   5.203  12.624 -0.0260 -0.4544 -0.0253
  567MOL0     C76456   6.662   5.641  12.321  0.3685  1.0995  0.0232
  567MOL0     C76457   6.582   5.579  12.230 -0.3582  0.5707 -0.0028
  567MOL0     O76458   6.448   5.710  11.918 -0.5537  0.0084 -0.0641
  567MOL0     C76459   6.225   5.436  11.919 -0.5645  0.2016 -0.9945
  567MOL0     C76460   6.121   5.376  11.851  0.1377  0.0215 -0.3384
  567MOL0     N76461   5.607   5.322  11.215  0.4773 -0.3764  0.2030
  567MOL0     N76462   5.566   5.409  11.136 -0.2673 -0.5651 -0.0850
  567MOL0     C76463   4.449   5.435  11.094 -0.5086 -0.5746  0.1141
  567MOL0     C76464   4.366   5.330  11.041  0.6061 -0.8801  0.0921
  567MOL0     C76465   3.944   5.159  10.931  1.1371  0.6201 -0.6528
  567MOL0     C76466   3.975   5.036  10.972 -0.1596 -0.1114 -0.5502
  567MOL0     C76467   3.879   4.931  10.965 -0.7054  0.2576  0.5441
  567MOL0     C76468   3.753   4.949  10.917  0.1621 -0.1434 -0.5468
  567MOL0     O76469   3.669   4.843  10.918  0.2045 -0.4694 -0.2054
  567MOL0     C76470   3.522   4.848  10.889 -0.2916  1.5873 -0.0068
  567MOL0     C76471   3.427   4.897  11.002 -0.4221  0.0474  1.5637
  567MOL0     C76472   3.423   4.799  11.114 -0.7274  0.2801 -0.2058
  567MOL0     C76473   3.312   4.830  11.214  0.8554  0.9735 -0.9544
  567MOL0     C76474   3.305   4.972  11.257  0.7175  0.6581 -0.5307
  567MOL0     C76475   3.278   5.083  11.305  0.2611  0.2150 -0.7327
  567MOL0     C76476   3.722   5.080  10.883 -0.0442  0.6676  0.7875
  567MOL0     C76477   3.816   5.184  10.884 -0.4542 -0.1218  0.1912
  567MOL0     H76478   4.076   5.451  11.192  0.0924 -1.0050  2.6459
  567MOL0     H76479   4.237   5.616  11.287  1.3633  0.9001 -1.5154
  567MOL0     H76480   4.581   5.690  11.076 -2.4213  1.7880  0.0896
  567MOL0     H76481   4.608   5.794  11.196  3.6697 -0.1703 -0.3132
  567MOL0     H76482   4.717   5.633  11.349 -1.4016  0.1213  0.5468
  567MOL0     H76483   4.702   5.500  11.214  2.1476 -0.2800  1.1659
  567MOL0     H76484   4.847   5.750  11.182 -0.4367  0.1872 -1.1292
  567MOL0     H76485   4.924   5.595  11.260  0.2115  1.4294  0.8691
  567MOL0     H76486   4.893   5.479  11.061 -4.1719  0.2556 -1.4538
  567MOL0     H76487   4.841   5.629  10.977  2.2214  0.5030  0.3565
  567MOL0     H76488   5.060   5.583  10.919 -0.1974  2.1430 -0.2852
  567MOL0     H76489   5.061   5.729  11.019  1.6815  0.7276  1.8143
  567MOL0     H76490   5.156   5.574  11.212 -1.4682 -2.0060  0.1550
  567MOL0     H76491   5.121   5.448  11.115 -1.4014  0.4414 -1.2165
  567MOL0     H76492   5.310   5.531  10.956 -1.5558  1.2396 -0.2800
  567MOL0     H76493   5.289   5.693  10.995 -2.9118 -0.4861 -2.7877
  567MOL0     H76494   5.395   5.677  11.221  0.0820 -1.2875  1.8411
  567MOL0     H76495   5.493   5.645  11.086 -0.7028  0.4682  1.9620
  567MOL0     H76496   5.375   5.479  11.396  2.9112  2.9443  0.8115
  567MOL0     H76497   5.491   5.219  11.513  2.1167  0.8949  4.1447
  567MOL0     H76498   5.632   5.174  11.406 -0.5188  0.2512  0.9017
  567MOL0     H76499   5.651   5.299  11.645 -0.8140 -0.3620 -0.4311
  567MOL0     H76500   5.616   5.443  11.555  3.1848  0.1634 -2.5692
  567MOL0     H76501   5.781   5.413  11.404 -2.7464 -0.9562 -1.6265
  567MOL0     H76502   5.855   5.272  11.482 -1.6178  0.4182 -3.0515
  567MOL0     H76503   5.810   5.528  11.629  1.2306  0.8574  0.5316
  567MOL0     H76504   5.957   5.494  11.536  0.5860 -0.9960 -0.1555
  567MOL0     H76505   6.012   5.629  11.667  2.6432  1.1812 -2.2224
  567MOL0     H76506   6.205   5.842  11.873  0.4121 -1.9393  1.3337
  567MOL0     H76507   6.295   5.787  11.721 -0.5951  0.7369 -1.6000
  567MOL0     H76508   6.124   5.833  11.708  1.7067 -0.7493 -2.0731
  567MOL0     H76509   6.386   5.845  12.150 -0.6881  0.3680  1.6473
  567MOL0     H76510   6.536   5.955  12.314 -1.9935 -0.2300  1.0218
  567MOL0     H76511   6.817   5.668  12.544 -0.9519 -0.1129 -1.7578
  567MOL0     H76512   6.897   5.760  12.416 -1.7366 -2.4825 -0.6291
  567MOL0     H76513   6.927   5.943  12.587  0.2624  0.8953  0.7415
  567MOL0     H76514   6.815   5.859  12.702  1.4914  0.3746  0.3163
  567MOL0     H76515   7.068   5.850  12.769  0.5297 -1.4739  2.4674
  567MOL0     H76516   7.083   5.783  12.605 -1.6854 -1.5872 -0.2722
  567MOL0     H76517   7.053   5.648  12.845  1.5949 -1.3321 -0.4160
  567MOL0     H76518   6.909   5.607  12.735 -0.2973  0.5647 -0.8677
  567MOL0     H76519   7.177   5.596  12.610  0.1822 -1.5984 -0.0752
  567MOL0     H76520   7.034   5.511  12.574  0.6541 -0.5773 -0.9725
  567MOL0     H76521   7.194   5.450  12.835  0.5047 -0.5889  0.3640
  567MOL0     H76522   7.051   5.371  12.767  0.9955  0.8842 -0.0208
  567MOL0     H76523   7.315   5.417  12.606  0.5480  0.8296  1.2912
  567MOL0     H76524   7.184   5.306  12.567 -2.8979  1.3349  0.2746
  567MOL0     H76525   7.231   5.145  12.720  1.3876 -1.1552 -1.0018
  567MOL0     H76526   7.334   5.246  12.833  1.2039  0.5905 -0.4400
  567MOL0     H76527   6.731   5.575  12.372 -1.2134  0.2589  1.1787
  567MOL0     H76528   6.617   5.480  12.203  0.7716  1.2615 -1.1965
  567MOL0     H76529   6.282   5.375  11.988  0.4666  3.6455  1.4244
  567MOL0     H76530   6.102   5.269  11.854  3.4633 -0.6957  2.7121
  567MOL0     H76531   4.555   5.432  11.072 -0.3845  1.6199  0.1808
  567MOL0     H76532   4.396   5.251  10.973  3.2004 -1.0809  1.3448
  567MOL0     H76533   4.069   5.014  11.021  0.2539  0.3354 -1.1280
  567MOL0     H76534   3.892   4.833  11.009 -3.7746 -0.0456  1.0027
  567MOL0     H76535   3.500   4.901  10.795  0.9787 -0.7054 -1.7120
  567MOL0     H76536   3.498   4.745  10.861  2.5752  0.5717  1.0041
  567MOL0     H76537   3.328   4.910  10.956  1.1301  2.5867 -1.5114
  567MOL0     H76538   3.469   4.992  11.038 -0.3130  2.5376 -4.1091
  567MOL0     H76539   3.520   4.814  11.164 -0.8446  1.1253 -0.2243
  567MOL0     H76540   3.406   4.697  11.078 -0.5122  1.0781 -2.7535
  567MOL0     H76541   3.330   4.779  11.308 -0.7817 -0.3709 -1.3088
  567MOL0     H76542   3.215   4.801  11.171  0.1253 -0.0729  1.2836
  567MOL0     H76543   3.247   5.180  11.340  0.4792  0.3531 -0.9240
  567MOL0     H76544   3.624   5.105  10.845 -0.3237  0.7908  1.5822
  567MOL0     H76545   3.790   5.285  10.855 -0.7594 -0.8511 -2.3226
  568MOL0     O76546   2.012  10.018   2.087  0.0802  0.1323  0.3251
  568MOL0     C76547   2.016  10.131   2.149  0.2443  0.5619  0.2432
  568MOL0     O76548   1.987  10.150   2.282 -0.0479 -0.7048  0.2434
  568MOL0     C76549   1.966  10.039   2.367 -0.0306  0.3201  0.7023
  568MOL0     C76550   2.047  10.007   2.469 -0.4025  0.6023  0.6066
  568MOL0     C76551   2.029   9.891   2.545  0.2770 -0.3628 -0.6859
  568MOL0     C76552   1.928   9.803   2.513  0.3153  0.6233 -0.1701
  568MOL0     O76553   1.917   9.704   2.608  0.7358  0.2198  0.6076
  568MOL0     C76554   1.787   9.654   2.636  0.0275 -0.2458 -0.0617
  568MOL0     C76555   1.699   9.764   2.708  0.8442  0.2644  0.6005
  568MOL0     C76556   1.753   9.830   2.836  0.5195  0.8338 -0.0933
  568MOL0     C76557   1.798   9.725   2.940  0.1223 -0.6859 -0.1385
  568MOL0     C76558   1.680   9.648   3.005  0.2425  0.7952  0.5535
  568MOL0     C76559   1.690   9.636   3.157  1.1467 -0.9443 -1.0844
  568MOL0     C76560   1.561   9.587   3.231  0.0401 -0.1472 -0.0073
  568MOL0     C76561   1.538   9.438   3.190 -0.1395  0.5064 -0.3530
  568MOL0     N76562   1.441   9.379   3.285 -0.0081 -0.3921 -0.4742
  568MOL0     C76563   1.342   9.435   3.359 -0.1547 -0.5280 -0.7781
  568MOL0     C76564   1.273   9.332   3.412  0.4359 -0.3041 -0.2903
  568MOL0     C76565   1.147   9.348   3.492  0.5573  0.0409  0.7512
  568MOL0     C76566   1.157   9.303   3.632 -0.1348 -0.6011 -0.4222
  568MOL0     C76567   1.137   9.151   3.642 -0.9292  0.3375  0.3857
  568MOL0     C76568   0.997   9.098   3.620 -0.7050 -0.0888  0.4306
  568MOL0     O76569   0.910   9.166   3.709  0.4128  0.3512 -0.1650
  568MOL0     C76570   0.778   9.142   3.677 -0.1052 -0.6081  0.5483
  568MOL0     C76571   0.732   9.053   3.577  0.4071  0.2368  0.2122
  568MOL0     C76572   0.596   9.019   3.551 -0.0549 -0.3094 -0.0832
  568MOL0     C76573   0.575   8.916   3.446 -0.1333 -0.9106  0.5540
  568MOL0     C76574   0.503   9.090   3.636 -0.0778 -0.7904  0.3215
  568MOL0     C76575   0.364   9.077   3.633 -0.0678  0.1095 -0.3353
  568MOL0     O76576   0.291   9.116   3.735  0.6698  0.4804  0.8648
  568MOL0     C76577   0.153   9.088   3.735 -0.4992 -0.3048  0.7194
  568MOL0     C76578   0.112   8.963   3.689  0.3297 -0.0245  0.9475
  568MOL0     C76579  -0.032   8.942   3.673 -0.6816  0.1272  0.3436
  568MOL0     C76580  -0.128   9.032   3.705 -0.3028  0.4371  0.3029
  568MOL0     O76581  -0.261   9.000   3.677  0.3438 -0.0887  1.1293
  568MOL0     C76582  -0.355   9.074   3.757  0.2324  0.0962  0.1675
  568MOL0     C76583  -0.489   9.006   3.741  0.2852 -0.3867 -0.3135
  568MOL0     C76584  -0.581   9.108   3.802 -0.1135 -0.5203  0.7070
  568MOL0     C76585  -0.719   9.041   3.815 -0.5261 -0.0364  0.0749
  568MOL0     C76586  -0.815   9.118   3.894 -0.9140 -0.2725 -0.1977
  568MOL0     C76587  -0.941   9.036   3.920  0.2336  0.1907 -1.1180
  568MOL0     C76588  -1.027   9.091   4.039 -0.2244  0.1128 -0.2915
  568MOL0     C76589  -1.174   9.076   4.007  0.1327 -0.2004 -0.9787
  568MOL0    Cl76590  -1.279   9.133   4.136  0.3413  0.0482 -0.4463
  568MOL0     C76591  -0.089   9.155   3.741 -0.2859 -0.3707 -0.1663
  568MOL0     C76592   0.053   9.188   3.760  0.2047  0.0142 -0.1788
  568MOL0     O76593   0.321   9.048   3.529  0.0753 -0.1868  0.1872
  568MOL0     C76594   0.548   9.182   3.741 -0.2187  0.1001  0.2851
  568MOL0     C76595   0.683   9.205   3.757  0.4940 -0.4677 -0.0767
  568MOL0     N76596   1.337   9.219   3.373  0.2602 -0.2068 -0.3167
  568MOL0     N76597   1.443   9.243   3.303 -0.2390 -0.4459 -0.4176
  568MOL0     C76598   1.846   9.829   2.410 -0.1949 -0.6548 -0.4612
  568MOL0     C76599   1.865   9.946   2.333 -0.1333 -0.5794  1.3069
  568MOL0     C76600   2.052  10.251   2.066  0.1234  0.0481  0.0189
  568MOL0     C76601   2.038  10.260   1.927  0.2880  1.2607  0.6492
  568MOL0     C76602   2.079  10.365   1.852 -0.7238 -0.2111  0.6162
  568MOL0     C76603   2.128  10.473   1.924 -0.4060  0.7527 -0.4597
  568MOL0     O76604   2.169  10.582   1.862 -0.1074 -0.2032 -0.1635
  568MOL0     C76605   2.092  10.700   1.902 -0.0070 -0.7840  0.5079
  568MOL0     C76606   2.026  10.778   1.769  0.6540 -0.1129 -0.3992
  568MOL0     C76607   2.126  10.842   1.680 -0.7685 -0.4095 -0.0025
  568MOL0     C76608   2.066  10.941   1.586 -0.0513  0.8090  0.6243
  568MOL0     C76609   1.990  10.872   1.480  1.7070  0.0680  0.4148
  568MOL0     C76610   1.937  10.798   1.394  0.2770 -0.8557 -0.2067
  568MOL0     C76611   2.144  10.472   2.062 -0.0837 -0.0258 -0.7174
  568MOL0     C76612   2.107  10.359   2.136 -0.4579  0.1742 -0.0227
  568MOL0     H76613   2.133  10.060   2.509  1.2061 -2.5065  1.5711
  568MOL0     H76614   2.089   9.861   2.630  0.5731 -0.3436 -0.8870
  568MOL0     H76615   1.738   9.608   2.549 -1.2133  2.1867 -0.7398
  568MOL0     H76616   1.790   9.571   2.706 -1.1426 -0.4687 -0.2473
  568MOL0     H76617   1.681   9.840   2.631  2.0284 -2.2295 -2.3644
  568MOL0     H76618   1.600   9.722   2.726  0.5737  0.2402 -0.8262
  568MOL0     H76619   1.832   9.898   2.804  1.5329  0.0616  0.7105
  568MOL0     H76620   1.686   9.893   2.895 -1.2746 -1.2068  0.1857
  568MOL0     H76621   1.866   9.653   2.892 -2.2859 -2.6661 -0.7935
  568MOL0     H76622   1.868   9.761   3.016  0.5775 -0.2303 -0.7612
  568MOL0     H76623   1.592   9.708   2.983  0.1708  0.7533  0.7251
  568MOL0     H76624   1.658   9.549   2.962 -1.5265  2.6941 -3.4735
  568MOL0     H76625   1.757   9.553   3.185 -4.2655 -4.5441  3.3407
  568MOL0     H76626   1.725   9.727   3.206 -0.6758 -0.1874 -1.1309
  568MOL0     H76627   1.563   9.606   3.339 -2.0784  2.7866 -0.3619
  568MOL0     H76628   1.479   9.644   3.187  0.6291  0.1180 -0.7880
  568MOL0     H76629   1.627   9.375   3.199  0.9416  2.0111 -0.0454
  568MOL0     H76630   1.494   9.421   3.091 -1.4150 -0.3206  0.3308
  568MOL0     H76631   1.310   9.539   3.366  2.3060  0.2622 -0.4253
  568MOL0     H76632   1.117   9.453   3.495 -3.7230 -0.9939  0.6229
  568MOL0     H76633   1.064   9.314   3.428 -0.7633  0.8748  1.9556
  568MOL0     H76634   1.084   9.352   3.698  1.9694  0.9044  0.9061
  568MOL0     H76635   1.241   9.325   3.699 -1.1361 -2.6422  1.6657
  568MOL0     H76636   1.165   9.120   3.744 -1.6706 -2.9420 -0.2768
  568MOL0     H76637   1.203   9.088   3.581 -3.4635 -1.1287 -1.0260
  568MOL0     H76638   1.005   8.992   3.647  0.9239 -1.2275 -3.7188
  568MOL0     H76639   0.977   9.109   3.513  0.2406  0.8617  0.3394
  568MOL0     H76640   0.802   8.993   3.519  0.8242 -1.8425  2.6661
  568MOL0     H76641   0.632   8.942   3.357 -1.1976  2.6821  0.7417
  568MOL0     H76642   0.595   8.812   3.473 -0.8376 -1.3356 -0.4760
  568MOL0     H76643   0.476   8.913   3.398  0.3056 -2.0058 -0.3238
  568MOL0     H76644   0.178   8.882   3.660 -1.3512 -1.4269  0.8555
  568MOL0     H76645  -0.080   8.849   3.645 -2.2530  0.1411  2.7510
  568MOL0     H76646  -0.314   9.088   3.858  1.1648  0.3650 -0.2358
  568MOL0     H76647  -0.360   9.172   3.708 -0.7599 -0.8077 -1.6013
  568MOL0     H76648  -0.511   8.986   3.636  0.5697  0.2570 -0.4986
  568MOL0     H76649  -0.487   8.912   3.797  1.8266  0.4927  1.2259
  568MOL0     H76650  -0.599   9.200   3.747  0.2800  0.2344  1.7952
  568MOL0     H76651  -0.539   9.138   3.898 -1.7566  0.9356  1.0246
  568MOL0     H76652  -0.755   9.008   3.717  3.4283 -1.7495 -0.9952
  568MOL0     H76653  -0.697   8.946   3.863  0.7344  0.0108 -0.3682
  568MOL0     H76654  -0.830   9.218   3.853  3.4889  2.3119  3.5373
  568MOL0     H76655  -0.781   9.145   3.994 -2.9185 -1.9995  1.0505
  568MOL0     H76656  -1.012   9.036   3.836 -1.0894 -0.8495 -0.0569
  568MOL0     H76657  -0.919   8.930   3.937 -1.9446  0.0103  1.1995
  568MOL0     H76658  -1.004   9.198   4.050  3.6970 -0.6147  0.2870
  568MOL0     H76659  -0.990   9.046   4.132  0.2472  0.6826 -0.1963
  568MOL0     H76660  -1.191   8.968   3.993 -0.1652 -0.4420  0.9914
  568MOL0     H76661  -1.194   9.139   3.921  1.4833 -0.8867 -1.8311
  568MOL0     H76662  -0.163   9.234   3.742 -0.7019 -0.6314 -2.8044
  568MOL0     H76663   0.085   9.283   3.800  1.1337 -0.2830 -0.1837
  568MOL0     H76664   0.477   9.242   3.796 -2.3162 -0.0396 -2.1275
  568MOL0     H76665   0.738   9.260   3.833 -0.8015 -0.9529  1.2443
  568MOL0     H76666   1.769   9.766   2.366 -0.9664 -0.5009  0.6476
  568MOL0     H76667   1.801   9.960   2.246  0.8116 -1.3365  0.4756
  568MOL0     H76668   2.006  10.169   1.877  4.0610  0.6570 -0.9852
  568MOL0     H76669   2.075  10.378   1.744  2.5333  1.7939  0.5957
  568MOL0     H76670   2.009  10.680   1.970  0.6048 -1.8352  0.9602
  568MOL0     H76671   2.151  10.784   1.941 -1.9501  3.0707 -3.8819
  568MOL0     H76672   1.958  10.850   1.816 -1.8799 -2.2387 -0.5470
  568MOL0     H76673   1.960  10.724   1.700  0.0971  0.7744 -0.5703
  568MOL0     H76674   2.191  10.774   1.624 -1.3262 -0.9795  0.0344
  568MOL0     H76675   2.174  10.913   1.748 -1.5284  2.1403 -1.9680
  568MOL0     H76676   2.152  10.993   1.544 -0.3830  0.1657 -0.9281
  568MOL0     H76677   2.004  11.007   1.646  0.0552 -0.1009  1.7768
  568MOL0     H76678   1.896  10.733   1.319  1.3976 -0.4051 -1.2443
  568MOL0     H76679   2.179  10.557   2.120  0.2833 -0.9393  0.4480
  568MOL0     H76680   2.132  10.340   2.240 -0.2992 -0.0526 -0.1002
  569MOL0     O76681   0.750   5.880   6.544  0.4920 -0.2274  0.1148
  569MOL0     C76682   0.639   5.925   6.514 -0.6492 -0.4158 -0.2338
  569MOL0     O76683   0.621   6.007   6.405  0.7157 -0.5775  0.4004
  569MOL0     C76684   0.735   6.027   6.327  0.3125  0.6550  0.3297
  569MOL0     C76685   0.769   5.940   6.220 -0.5089  0.0237 -0.1455
  569MOL0     C76686   0.867   5.981   6.128  0.2358 -0.0364  0.1614
  569MOL0     C76687   0.937   6.095   6.142 -0.2131 -0.7411 -0.5973
  569MOL0     O76688   1.031   6.141   6.055 -0.0808 -0.3613 -1.2523
  569MOL0     C76689   0.989   6.172   5.922 -0.2812 -0.1105 -0.7630
  569MOL0     C76690   1.000   6.322   5.894  0.7657  0.4634  0.2642
  569MOL0     C76691   1.145   6.372   5.877 -0.5306  0.1272  0.3079
  569MOL0     C76692   1.223   6.374   6.006  0.2072  0.4143  0.1151
  569MOL0     C76693   1.347   6.459   5.981  0.9382  0.2377  0.9103
  569MOL0     C76694   1.423   6.469   6.113 -0.1259 -0.8382 -0.0748
  569MOL0     C76695   1.528   6.583   6.101 -0.0028  0.4104  0.3592
  569MOL0     C76696   1.456   6.716   6.137  0.3199 -0.2748  0.5569
  569MOL0     N76697   1.545   6.826   6.182  0.0758 -0.2076 -0.0017
  569MOL0     C76698   1.656   6.816   6.260 -0.1846 -0.1428  0.7896
  569MOL0     C76699   1.709   6.940   6.265 -0.2369  0.0664 -0.6519
  569MOL0     C76700   1.837   6.998   6.331 -0.2365  0.8328  1.3325
  569MOL0     C76701   1.819   7.124   6.418  0.1566  0.3600 -0.1844
  569MOL0     C76702   1.871   7.099   6.559 -0.0710  0.1278 -0.3236
  569MOL0     C76703   1.849   7.232   6.638  0.1003  0.1921  0.8809
  569MOL0     O76704   1.928   7.327   6.568  0.4340  0.0037  0.7398
  569MOL0     C76705   2.055   7.353   6.613  0.4230  0.2462  0.3891
  569MOL0     C76706   2.119   7.448   6.544  0.4069 -0.2602  0.2013
  569MOL0     C76707   2.253   7.487   6.597  0.4855  0.2247  0.2989
  569MOL0     C76708   2.328   7.584   6.500  0.2421 -0.1277 -0.1191
  569MOL0     C76709   2.309   7.419   6.708 -0.4737  0.2788 -0.0169
  569MOL0     C76710   2.451   7.443   6.758 -0.4253 -0.0170  0.2492
  569MOL0     O76711   2.519   7.552   6.708  0.2942  0.0485 -0.1075
  569MOL0     C76712   2.628   7.617   6.767 -0.0297  0.5964 -1.4871
  569MOL0     C76713   2.757   7.564   6.768 -0.4461 -0.0665  0.0321
  569MOL0     C76714   2.863   7.611   6.847 -0.4169 -0.2680 -0.1415
  569MOL0     C76715   2.837   7.730   6.917  0.7881  0.5842  0.8089
  569MOL0     O76716   2.943   7.780   6.983 -0.3703 -0.4093 -0.5666
  569MOL0     C76717   2.957   7.919   6.954  0.1189  0.1992 -0.0194
  569MOL0     C76718   3.094   7.961   7.003 -0.3780  0.0930 -0.0272
  569MOL0     C76719   3.129   8.103   6.967 -0.8587  0.1674  0.8671
  569MOL0     C76720   3.201   8.173   7.079  0.5212  0.7354 -0.4415
  569MOL0     C76721   3.242   8.312   7.030 -1.0242  0.2855 -0.4197
  569MOL0     C76722   3.317   8.392   7.145 -0.1455 -0.1220  0.5387
  569MOL0     C76723   3.458   8.350   7.177 -0.4799 -0.0603  0.1688
  569MOL0     C76724   3.534   8.434   7.278 -0.0073  0.6479  0.2554
  569MOL0    Cl76725   3.462   8.404   7.437 -0.2642 -0.1946  0.1170
  569MOL0     C76726   2.707   7.785   6.911 -0.2740 -0.9202  0.1853
  569MOL0     C76727   2.599   7.728   6.838  0.7931 -0.1846 -0.0417
  569MOL0     O76728   2.506   7.366   6.839 -0.1112  0.1841  0.1375
  569MOL0     C76729   2.243   7.316   6.767  1.5764 -0.4180 -1.0575
  569MOL0     C76730   2.115   7.283   6.722 -0.1198  0.3299 -0.6595
  569MOL0     N76731   1.620   7.026   6.208 -0.1157 -0.7856  0.0551
  569MOL0     N76732   1.526   6.963   6.165 -0.0292  0.4188 -0.1021
  569MOL0     C76733   0.907   6.180   6.257  0.5400  0.0624  0.0470
  569MOL0     C76734   0.799   6.149   6.339  0.9892  0.3893  0.5005
  569MOL0     C76735   0.523   5.870   6.582 -0.5772 -0.7385 -0.2835
  569MOL0     C76736   0.534   5.802   6.707 -0.4352  0.1078  0.1514
  569MOL0     C76737   0.429   5.756   6.789  0.6779 -0.2697  0.5326
  569MOL0     C76738   0.299   5.781   6.751 -0.6373  0.6322 -0.3805
  569MOL0     O76739   0.187   5.753   6.827 -0.2010  0.0167 -0.2346
  569MOL0     C76740   0.190   5.650   6.924  0.4533 -0.4489  0.5712
  569MOL0     C76741   0.052   5.633   7.003 -0.2198 -0.7399  0.0353
  569MOL0     C76742   0.015   5.767   7.070  0.2677 -0.3320  0.3733
  569MOL0     C76743  -0.093   5.756   7.182  0.0703  0.2433 -0.2065
  569MOL0     C76744  -0.109   5.887   7.249  0.3564  0.8569  0.1407
  569MOL0     C76745  -0.115   6.002   7.297  0.0714 -0.3273 -0.6227
  569MOL0     C76746   0.277   5.844   6.622 -0.2677  0.6413  0.1183
  569MOL0     C76747   0.390   5.890   6.538  0.4389  0.4125 -0.2093
  569MOL0     H76748   0.719   5.847   6.194 -0.1969 -0.1156 -0.2579
  569MOL0     H76749   0.887   5.928   6.035 -1.8900 -1.9490  0.7039
  569MOL0     H76750   1.063   6.129   5.854 -0.6843  0.0225 -1.2857
  569MOL0     H76751   0.888   6.136   5.901 -1.0660  1.7427 -0.4348
  569MOL0     H76752   0.955   6.334   5.795  0.4006 -1.3456  0.1642
  569MOL0     H76753   0.944   6.371   5.974  0.6664  1.4127 -0.3769
  569MOL0     H76754   1.204   6.323   5.799 -0.2397 -0.3403  0.8115
  569MOL0     H76755   1.133   6.472   5.835  1.2604  0.5531  0.7085
  569MOL0     H76756   1.158   6.424   6.078 -1.0172  2.5724 -2.3132
  569MOL0     H76757   1.249   6.273   6.040 -0.4550  0.9783  2.4708
  569MOL0     H76758   1.398   6.402   5.903  1.1762  0.1010  1.1650
  569MOL0     H76759   1.330   6.557   5.937  0.3851  0.0355  0.6704
  569MOL0     H76760   1.344   6.472   6.188 -3.0853 -4.2764 -2.7181
  569MOL0     H76761   1.481   6.376   6.125  3.7960  1.6787  3.3310
  569MOL0     H76762   1.607   6.572   6.177  0.6938  1.2656 -0.2142
  569MOL0     H76763   1.580   6.602   6.006  0.1317  0.7346  0.4948
  569MOL0     H76764   1.394   6.700   6.226  1.8434  2.6291  2.2740
  569MOL0     H76765   1.392   6.751   6.055  0.3092  0.3187  0.8191
  569MOL0     H76766   1.715   6.726   6.272 -1.0188 -1.0718 -1.5148
  569MOL0     H76767   1.870   6.921   6.402 -3.5263 -0.1247  2.0506
  569MOL0     H76768   1.915   7.010   6.255 -3.0367  2.8688 -1.4998
  569MOL0     H76769   1.716   7.156   6.406 -0.0536 -0.6155 -1.1688
  569MOL0     H76770   1.881   7.201   6.372  0.7709 -0.3295 -0.5423
  569MOL0     H76771   1.979   7.082   6.565 -0.0838 -0.2574 -1.0887
  569MOL0     H76772   1.816   7.015   6.602 -3.1634  0.3504 -3.4297
  569MOL0     H76773   1.869   7.219   6.745 -1.2125  3.0615  1.5604
  569MOL0     H76774   1.748   7.272   6.645  0.7772  1.6953  3.9116
  569MOL0     H76775   2.070   7.483   6.454  2.7369  1.6417 -0.4311
  569MOL0     H76776   2.349   7.679   6.550 -0.5835 -0.0440  0.0846
  569MOL0     H76777   2.422   7.536   6.471 -0.3512 -1.2536 -0.2530
  569MOL0     H76778   2.280   7.598   6.403  0.4235 -2.1448 -0.5404
  569MOL0     H76779   2.779   7.488   6.693  1.2751  0.6480 -0.2289
  569MOL0     H76780   2.962   7.567   6.839  0.7607  1.4973  3.0068
  569MOL0     H76781   2.953   7.937   6.846 -0.7075  1.4914  0.2122
  569MOL0     H76782   2.881   7.985   6.996  1.4239  1.1905  0.8788
  569MOL0     H76783   3.104   7.932   7.107  0.6601 -2.3860 -0.7492
  569MOL0     H76784   3.178   7.897   6.973  0.3330  0.5872  0.8622
  569MOL0     H76785   3.041   8.161   6.939  0.1869  1.2188 -0.4545
  569MOL0     H76786   3.194   8.110   6.879 -1.2715 -0.5374  0.4992
  569MOL0     H76787   3.130   8.168   7.162  2.9587 -0.9766  1.6937
  569MOL0     H76788   3.285   8.116   7.118 -0.5178 -2.1777 -2.1711
  569MOL0     H76789   3.153   8.368   7.001  0.7405  5.1633  2.3907
  569MOL0     H76790   3.310   8.297   6.945  1.3660  1.1257  1.2064
  569MOL0     H76791   3.323   8.500   7.129  4.1847 -0.2309  0.2708
  569MOL0     H76792   3.257   8.390   7.237 -1.9084  0.3930 -0.5529
  569MOL0     H76793   3.516   8.356   7.085  1.0329 -0.8192  1.0348
  569MOL0     H76794   3.450   8.250   7.221 -2.5300  0.5302  1.2837
  569MOL0     H76795   3.538   8.538   7.245 -2.5209  0.9160  0.6019
  569MOL0     H76796   3.632   8.386   7.283 -0.6694 -0.6564  1.8810
  569MOL0     H76797   2.681   7.867   6.978 -4.5839 -2.9508  1.3461
  569MOL0     H76798   2.507   7.784   6.844  0.3425 -0.6926 -1.6327
  569MOL0     H76799   2.282   7.257   6.850  1.9213 -1.0630 -1.6642
  569MOL0     H76800   2.077   7.195   6.774  2.4231  0.7491  2.1483
  569MOL0     H76801   0.954   6.277   6.270 -0.8003  0.5922  1.2010
  569MOL0     H76802   0.773   6.220   6.417 -1.1515 -1.5207  1.6547
  569MOL0     H76803   0.631   5.765   6.739 -0.7169 -1.3599 -0.6318
  569MOL0     H76804   0.441   5.704   6.884 -2.0972 -0.9057  0.6315
  569MOL0     H76805   0.212   5.557   6.871 -1.5085 -1.0021  0.6531
  569MOL0     H76806   0.271   5.658   6.997  0.7397  2.3347  0.0568
  569MOL0     H76807   0.065   5.562   7.085 -0.5224  0.8556  1.5151
  569MOL0     H76808  -0.022   5.597   6.932 -1.8857  2.2737  0.0756
  569MOL0     H76809  -0.020   5.830   6.988  0.7718 -2.5014 -1.6245
  569MOL0     H76810   0.097   5.814   7.126 -1.0911  0.1231  2.0475
  569MOL0     H76811  -0.082   5.668   7.247 -0.2998 -2.6100 -3.6664
  569MOL0     H76812  -0.188   5.730   7.134  0.6706  0.3030 -1.4606
  569MOL0     H76813  -0.130   6.102   7.332  1.0976 -0.1966 -0.5250
  569MOL0     H76814   0.177   5.860   6.584 -0.9510  0.6514  1.8640
  569MOL0     H76815   0.378   5.938   6.442 -1.2848 -1.2295 -0.8778
  570MOL0     O76816   9.292   5.674   7.203  0.0452 -0.4080 -0.7090
  570MOL0     C76817   9.215   5.652   7.114  0.9109  0.7662 -0.5537
  570MOL0     O76818   9.244   5.561   7.011 -0.0857  0.3669 -0.4940
  570MOL0     C76819   9.372   5.514   7.009  0.6406  0.5716 -0.3480
  570MOL0     C76820   9.379   5.374   7.029  0.6166 -0.9261 -0.0796
  570MOL0     C76821   9.499   5.315   7.011  0.3579 -0.6000 -0.2086
  570MOL0     C76822   9.617   5.383   6.993  0.5417 -0.2977 -0.7526
  570MOL0     O76823   9.733   5.302   7.000 -0.4048  0.0378 -0.8349
  570MOL0     C76824   9.843   5.338   6.916  0.0147 -0.2194  0.0438
  570MOL0     C76825   9.941   5.236   6.928 -0.6107 -1.1755 -0.5729
  570MOL0     C76826   9.873   5.098   6.912 -0.4759 -0.0952 -0.4717
  570MOL0     C76827   9.953   5.001   6.838 -0.3719 -0.1026  0.4326
  570MOL0     C76828   9.928   4.853   6.883  0.2328 -0.6505 -0.1075
  570MOL0     C76829   9.799   4.785   6.836 -0.4292  0.3958  0.2448
  570MOL0     C76830   9.799   4.749   6.677  0.2799  0.1630  0.9180
  570MOL0     C76831   9.651   4.715   6.640 -0.2373 -0.3083 -0.1671
  570MOL0     N76832   9.571   4.835   6.600 -0.2705 -0.6890 -0.0031
  570MOL0     C76833   9.534   4.941   6.681  0.9854  0.1679 -0.1600
  570MOL0     C76834   9.488   5.041   6.589  0.4405  0.0431 -0.6238
  570MOL0     C76835   9.433   5.174   6.624  0.5624  0.6698 -0.1698
  570MOL0     C76836   9.538   5.276   6.630 -0.3648  1.0503 -0.3996
  570MOL0     C76837   9.627   5.294   6.498 -0.1594 -0.5860  0.2024
  570MOL0     C76838   9.543   5.314   6.370  0.1937  0.4493 -0.1366
  570MOL0     O76839   9.461   5.423   6.406  0.2800 -0.1747 -0.1974
  570MOL0     C76840   9.509   5.544   6.372 -0.7184  0.0370  0.3578
  570MOL0     C76841   9.498   5.644   6.474 -0.0011  1.3346  0.5172
  570MOL0     C76842   9.524   5.773   6.454 -0.8915  0.8917 -0.3670
  570MOL0     C76843   9.479   5.857   6.570  0.1763  0.0239  0.1192
  570MOL0     C76844   9.580   5.810   6.325  0.8831  0.1868  0.0243
  570MOL0     C76845   9.627   5.947   6.295  0.8680 -0.1684 -0.0591
  570MOL0     O76846   9.629   6.004   6.174  0.1274 -0.0798 -0.1420
  570MOL0     C76847   9.659   6.136   6.177 -0.2659 -0.1434 -0.1583
  570MOL0     C76848   9.563   6.238   6.180  0.5535 -0.7966 -0.5006
  570MOL0     C76849   9.599   6.372   6.160  0.2186  0.2624 -0.6529
  570MOL0     C76850   9.737   6.403   6.146 -0.2768  0.2914  0.7372
  570MOL0     O76851   9.781   6.530   6.124  0.4045 -0.3601 -0.4900
  570MOL0     C76852   9.741   6.592   5.999  1.0914  0.2215  0.9127
  570MOL0     C76853   9.820   6.714   5.966 -0.3488 -0.8617 -0.4583
  570MOL0     C76854   9.797   6.815   6.077  0.6893  0.2368 -0.3919
  570MOL0     C76855   9.820   6.949   6.018  0.0986  0.3619 -0.1484
  570MOL0     C76856   9.758   7.063   6.093 -0.6302 -0.3287  0.7964
  570MOL0     C76857   9.758   7.185   5.998  0.1193 -0.2952  1.3160
  570MOL0     C76858   9.895   7.234   5.930 -0.5723  0.0795  0.5627
  570MOL0     C76859   9.865   7.309   5.800  2.1521  0.3003  0.1884
  570MOL0    Cl76860   9.982   7.427   5.747  0.0935 -0.6190 -0.1321
  570MOL0     C76861   9.833   6.306   6.155 -0.0611 -0.4404  0.3966
  570MOL0     C76862   9.790   6.171   6.157  0.2290 -0.0602 -0.8585
  570MOL0     O76863   9.662   5.995   6.395  0.1171 -0.0775  0.2258
  570MOL0     C76864   9.581   5.719   6.217 -0.0184  0.2281  0.5609
  570MOL0     C76865   9.542   5.582   6.243 -0.6766 -1.2115  0.4670
  570MOL0     N76866   9.500   4.987   6.460  0.7066  0.2306 -0.0788
  570MOL0     N76867   9.554   4.868   6.467 -0.9809  0.1872 -0.9564
  570MOL0     C76868   9.613   5.522   6.982  0.1829  1.0260  0.1976
  570MOL0     C76869   9.490   5.584   6.993 -0.2165 -0.6513  0.2118
  570MOL0     C76870   9.076   5.714   7.120 -0.6978 -0.2390 -0.0108
  570MOL0     C76871   8.978   5.694   7.019  0.6417 -0.9799 -0.2792
  570MOL0     C76872   8.850   5.739   7.031  0.8782 -0.3090 -0.0596
  570MOL0     C76873   8.799   5.792   7.146  0.7790 -0.2845 -0.4059
  570MOL0     O76874   8.663   5.818   7.155 -0.2730 -0.1215  0.6823
  570MOL0     C76875   8.608   5.885   7.267  0.0057  0.3785 -0.2698
  570MOL0     C76876   8.629   6.037   7.251  0.2439  0.1095 -0.0669
  570MOL0     C76877   8.531   6.103   7.146 -0.5113 -0.5082  0.3617
  570MOL0     C76878   8.393   6.050   7.123  0.4835  0.8415 -0.3550
  570MOL0     C76879   8.312   6.070   7.239  1.3837 -0.6325 -0.6982
  570MOL0     C76880   8.221   6.086   7.320  0.1585  0.4568  0.5368
  570MOL0     C76881   8.890   5.806   7.254 -0.5335 -0.2004  0.3079
  570MOL0     C76882   9.029   5.778   7.233  0.1614 -0.7742  0.5028
  570MOL0     H76883   9.297   5.307   7.055  0.9042 -1.0729  0.4808
  570MOL0     H76884   9.510   5.209   7.034 -0.6146 -0.9818 -1.4121
  570MOL0     H76885   9.812   5.343   6.811  2.6183 -4.4160 -1.1842
  570MOL0     H76886   9.886   5.434   6.944  0.3369 -1.1053  2.8825
  570MOL0     H76887  10.024   5.249   6.857 -1.0976 -0.3657 -1.0072
  570MOL0     H76888   9.988   5.251   7.025 -2.0877  0.8161 -0.0936
  570MOL0     H76889   9.841   5.054   7.007 -0.8107 -3.8942 -2.1496
  570MOL0     H76890   9.784   5.114   6.851 -1.7698  0.8269  1.5657
  570MOL0     H76891   9.923   5.020   6.735 -2.0248  2.0202  1.2253
  570MOL0     H76892  10.060   5.026   6.838 -0.4938  0.4829  1.6431
  570MOL0     H76893  10.010   4.794   6.841 -1.1858 -0.5770 -3.3184
  570MOL0     H76894   9.937   4.841   6.991  2.3592 -0.0424 -0.1782
  570MOL0     H76895   9.783   4.692   6.891  0.6222 -0.6410 -1.1228
  570MOL0     H76896   9.711   4.842   6.866 -1.0351 -1.9390  3.4540
  570MOL0     H76897   9.843   4.825   6.611 -0.2927 -0.7119 -0.5305
  570MOL0     H76898   9.852   4.656   6.655  0.2203  0.7124 -1.9259
  570MOL0     H76899   9.601   4.670   6.726 -3.0517  2.0518 -0.4179
  570MOL0     H76900   9.643   4.635   6.566  2.1098 -1.0228  0.2578
  570MOL0     H76901   9.521   4.947   6.789  0.5502  1.6025 -0.2691
  570MOL0     H76902   9.364   5.202   6.544 -0.0205 -0.4007 -0.0643
  570MOL0     H76903   9.374   5.167   6.716  1.3101 -0.0228  0.2727
  570MOL0     H76904   9.597   5.257   6.720  1.4440  0.2369 -1.6972
  570MOL0     H76905   9.502   5.374   6.661  1.3115  1.1713  1.3565
  570MOL0     H76906   9.688   5.204   6.488 -0.3324 -0.6269 -0.6270
  570MOL0     H76907   9.700   5.375   6.507  0.2828 -1.0643  1.0411
  570MOL0     H76908   9.490   5.220   6.349 -0.5440  0.1269  2.6905
  570MOL0     H76909   9.617   5.342   6.295  0.0835 -0.4937 -0.6051
  570MOL0     H76910   9.467   5.608   6.571 -1.8544  2.0461  0.2177
  570MOL0     H76911   9.537   5.849   6.662 -0.8586  0.8497  0.8722
  570MOL0     H76912   9.481   5.965   6.553  3.1783  0.3666  1.9965
  570MOL0     H76913   9.382   5.807   6.578 -0.4955  0.4778 -3.5010
  570MOL0     H76914   9.460   6.206   6.193  0.6338 -0.1908  2.5733
  570MOL0     H76915   9.545   6.467   6.156  1.2111  1.0271  1.8425
  570MOL0     H76916   9.747   6.511   5.925  2.8944  0.2709  0.9506
  570MOL0     H76917   9.635   6.615   6.003  1.5035  2.8897 -0.8388
  570MOL0     H76918   9.926   6.686   5.962 -0.0336  0.1544  0.3691
  570MOL0     H76919   9.791   6.742   5.864  0.9605 -0.5885 -0.7746
  570MOL0     H76920   9.873   6.804   6.155  3.1262  1.2120 -2.4822
  570MOL0     H76921   9.703   6.804   6.133 -0.2436  0.2928 -1.8784
  570MOL0     H76922   9.928   6.969   6.017  0.2669 -0.3406  1.2149
  570MOL0     H76923   9.788   6.952   5.914  1.6362  1.1778 -0.6339
  570MOL0     H76924   9.827   7.090   6.174  0.0679  2.9144 -0.7286
  570MOL0     H76925   9.654   7.037   6.113 -1.5168  0.2785 -2.4060
  570MOL0     H76926   9.682   7.170   5.921 -0.2211  1.0212  1.3813
  570MOL0     H76927   9.715   7.270   6.051 -2.6775 -0.4412 -0.5058
  570MOL0     H76928   9.964   7.151   5.912 -0.0969 -0.0338  2.6790
  570MOL0     H76929   9.943   7.292   6.009  1.5677  0.9681 -1.2792
  570MOL0     H76930   9.765   7.351   5.815  0.9707 -3.0228  3.0182
  570MOL0     H76931   9.847   7.234   5.721 -0.8650 -0.7847  1.7434
  570MOL0     H76932   9.936   6.337   6.150 -0.4152  0.8931  0.8877
  570MOL0     H76933   9.868   6.097   6.166 -0.0411 -0.1457  5.7006
  570MOL0     H76934   9.620   5.738   6.117  0.6961 -3.6284 -0.0501
  570MOL0     H76935   9.545   5.522   6.152 -1.7833  3.4053 -2.9697
  570MOL0     H76936   9.709   5.571   6.972  1.4804 -1.4967 -0.6480
  570MOL0     H76937   9.485   5.692   6.981  2.0857 -0.5074  0.1337
  570MOL0     H76938   8.986   5.626   6.936  0.1974 -0.7383 -0.5248
  570MOL0     H76939   8.772   5.741   6.956  0.6910  1.7337  0.1340
  570MOL0     H76940   8.507   5.844   7.275 -0.0924  0.6886  0.0786
  570MOL0     H76941   8.662   5.848   7.355  1.0650 -0.2223 -1.1516
  570MOL0     H76942   8.733   6.051   7.220 -0.1136  2.8040 -0.3105
  570MOL0     H76943   8.608   6.079   7.350  1.0464  0.5169 -0.0556
  570MOL0     H76944   8.578   6.087   7.048  1.5494 -1.4124  1.4263
  570MOL0     H76945   8.524   6.210   7.164 -0.4246 -0.3017 -0.7305
  570MOL0     H76946   8.388   5.944   7.096  0.2913  0.4753  1.0112
  570MOL0     H76947   8.343   6.108   7.045  0.2819  0.5290 -0.4619
  570MOL0     H76948   8.158   6.089   7.407 -0.7170 -1.5926  0.0365
  570MOL0     H76949   8.866   5.820   7.359 -1.4258 -2.8964  0.5375
  570MOL0     H76950   9.100   5.785   7.315  0.6160  1.9075 -0.0317
  571MOL0     O76951   1.584   8.158   4.584  0.6880  0.1513 -0.7109
  571MOL0     C76952   1.592   8.056   4.512  0.1121 -0.9033 -0.3102
  571MOL0     O76953   1.704   8.006   4.453 -0.2612  0.6018  0.4384
  571MOL0     C76954   1.828   8.056   4.484  0.0586  0.0628  0.3200
  571MOL0     C76955   1.876   8.190   4.480 -0.5525  0.7127  1.1148
  571MOL0     C76956   2.013   8.229   4.507 -0.9007 -0.5533  0.8735
  571MOL0     C76957   2.101   8.133   4.548 -1.2881 -0.0356 -0.5636
  571MOL0     O76958   2.233   8.149   4.591 -0.2986  0.5092  0.2021
  571MOL0     C76959   2.257   8.152   4.732  0.8896 -0.0372  0.3966
  571MOL0     C76960   2.394   8.218   4.753 -0.8731  0.1606 -0.6059
  571MOL0     C76961   2.456   8.205   4.891 -0.3660 -0.7158  0.2339
  571MOL0     C76962   2.582   8.285   4.907  0.3466 -0.2565 -0.6732
  571MOL0     C76963   2.537   8.431   4.933  0.2115  1.0108 -0.0365
  571MOL0     C76964   2.658   8.526   4.954 -0.1982 -0.8979 -0.8517
  571MOL0     C76965   2.618   8.680   4.954 -0.8630 -1.3661  0.8364
  571MOL0     C76966   2.566   8.721   4.806 -0.4639 -0.3268 -0.2444
  571MOL0     N76967   2.651   8.670   4.699 -0.5886 -0.4123  0.6141
  571MOL0     C76968   2.777   8.712   4.671  0.0208  0.5091  0.2362
  571MOL0     C76969   2.814   8.660   4.547 -0.5736  0.1764 -0.7806
  571MOL0     C76970   2.955   8.660   4.507  0.1967  0.1814  0.1407
  571MOL0     C76971   3.015   8.799   4.490 -0.0851  0.7467  0.8025
  571MOL0     C76972   3.151   8.786   4.415  0.3097  0.5113 -0.4575
  571MOL0     C76973   3.190   8.925   4.374 -0.3446 -0.6111 -0.0608
  571MOL0     O76974   3.195   9.019   4.492  0.2714  0.4473  0.2559
  571MOL0     C76975   3.252   9.143   4.463  0.1364  0.1379 -0.6377
  571MOL0     C76976   3.308   9.222   4.568 -0.7338  0.0158  0.2404
  571MOL0     C76977   3.351   9.356   4.543 -0.9490  0.4849  0.3433
  571MOL0     C76978   3.408   9.422   4.665  0.5332 -0.6817 -0.6404
  571MOL0     C76979   3.340   9.413   4.418  0.3084  0.6700 -0.2175
  571MOL0     C76980   3.370   9.558   4.381  0.7823  0.1247 -0.1200
  571MOL0     O76981   3.379   9.586   4.249  0.4668 -1.4817  0.8683
  571MOL0     C76982   3.374   9.720   4.203  0.0504  1.0562 -0.0885
  571MOL0     C76983   3.436   9.833   4.261 -0.6614 -0.1850  0.9233
  571MOL0     C76984   3.420   9.953   4.201 -0.1715 -0.7711 -0.1468
  571MOL0     C76985   3.360   9.973   4.083 -0.1871 -0.4295  2.0033
  571MOL0     O76986   3.342  10.107   4.036 -0.2685  0.6105  0.3857
  571MOL0     C76987   3.459  10.160   3.962 -0.4691  0.2037 -1.0824
  571MOL0     C76988   3.417  10.298   3.890 -0.7013 -1.0820 -0.1622
  571MOL0     C76989   3.291  10.301   3.811 -0.9155 -0.5411  0.6358
  571MOL0     C76990   3.282  10.406   3.704  0.4643 -0.5287  0.6387
  571MOL0     C76991   3.284  10.560   3.743  0.0325  0.0584 -0.9996
  571MOL0     C76992   3.147  10.614   3.765  0.4829 -0.6078  0.1291
  571MOL0     C76993   3.143  10.748   3.854 -0.6087 -0.7369  0.8599
  571MOL0     C76994   3.026  10.752   3.943  1.3104 -0.3099 -0.1839
  571MOL0    Cl76995   3.067  10.861   4.078  0.2526 -0.0582  0.0095
  571MOL0     C76996   3.291   9.860   4.029  0.3826 -0.5148 -0.9222
  571MOL0     C76997   3.301   9.736   4.083 -0.3861 -0.2150  0.4406
  571MOL0     O76998   3.360   9.640   4.473 -0.2898  0.7956  0.3277
  571MOL0     C76999   3.291   9.331   4.317 -0.9114 -0.0862  0.0610
  571MOL0     C77000   3.255   9.203   4.334  0.4538 -0.2598  0.5252
  571MOL0     N77001   2.710   8.576   4.500 -0.7637  0.1393  0.0894
  571MOL0     N77002   2.610   8.596   4.589  0.1924  0.0435 -0.2871
  571MOL0     C77003   2.055   8.005   4.551 -0.1123 -0.0060 -0.0740
  571MOL0     C77004   1.921   7.967   4.521 -0.4823 -0.2317  1.1741
  571MOL0     C77005   1.465   7.986   4.491  0.0228 -0.6286 -0.0264
  571MOL0     C77006   1.349   8.029   4.549 -0.7247  0.1027 -0.1348
  571MOL0     C77007   1.231   7.954   4.523  0.0187  0.8453  0.6041
  571MOL0     C77008   1.232   7.852   4.429 -0.0009  0.0828  0.0865
  571MOL0     O77009   1.112   7.801   4.399  0.0685 -0.1097 -0.1010
  571MOL0     C77010   1.100   7.682   4.308  0.1831 -0.5013 -0.7468
  571MOL0     C77011   0.948   7.648   4.281 -0.4639 -0.0182  0.0495
  571MOL0     C77012   0.879   7.551   4.380 -0.8317  0.1633  0.0254
  571MOL0     C77013   0.827   7.627   4.505  0.0571 -1.1066 -0.4716
  571MOL0     C77014   0.771   7.551   4.609 -0.8094 -0.1440 -0.7889
  571MOL0     C77015   0.718   7.481   4.689  0.3316  1.6162 -0.0157
  571MOL0     C77016   1.353   7.802   4.381  0.1187 -0.4758  0.2423
  571MOL0     C77017   1.468   7.862   4.421 -1.2733  1.3142 -0.5440
  571MOL0     H77018   1.823   8.274   4.436  2.5374  0.5011 -3.8779
  571MOL0     H77019   2.049   8.331   4.506  2.4824 -1.6175  0.0755
  571MOL0     H77020   2.174   8.202   4.782 -0.6660 -2.7352  0.7299
  571MOL0     H77021   2.262   8.050   4.773  1.5025  1.1154  3.4481
  571MOL0     H77022   2.465   8.172   4.684  0.9889  2.7244 -0.5561
  571MOL0     H77023   2.404   8.322   4.718  4.8100  0.6367  1.2521
  571MOL0     H77024   2.393   8.233   4.975  0.7369  3.0358 -0.0286
  571MOL0     H77025   2.471   8.096   4.893  2.2423 -0.4241 -0.1936
  571MOL0     H77026   2.626   8.247   4.999 -0.7695 -1.9172 -0.7858
  571MOL0     H77027   2.637   8.254   4.817  2.1967  0.2034  0.2532
  571MOL0     H77028   2.473   8.456   4.848 -0.0451 -1.4603 -0.6376
  571MOL0     H77029   2.465   8.432   5.015 -1.2314 -2.2530 -1.0909
  571MOL0     H77030   2.710   8.502   5.047  1.7330  0.1721 -1.5919
  571MOL0     H77031   2.729   8.515   4.872 -0.6502 -0.6761 -1.2728
  571MOL0     H77032   2.543   8.710   5.027 -1.7860 -1.2807 -0.1248
  571MOL0     H77033   2.713   8.730   4.971 -1.7315  0.8276 -0.4129
  571MOL0     H77034   2.550   8.827   4.786 -4.9588 -0.8071 -0.1225
  571MOL0     H77035   2.469   8.673   4.790  0.1467 -2.1393  1.1503
  571MOL0     H77036   2.837   8.767   4.744 -1.5178  0.3162  1.7104
  571MOL0     H77037   3.003   8.617   4.595 -1.4721 -1.2905  0.3808
  571MOL0     H77038   2.974   8.608   4.413 -0.1591  2.2762 -1.1524
  571MOL0     H77039   3.024   8.847   4.587 -0.8757  1.9505  0.3123
  571MOL0     H77040   2.952   8.859   4.423  1.4361 -0.2238 -1.6515
  571MOL0     H77041   3.154   8.716   4.331  3.5813  0.2972 -0.2877
  571MOL0     H77042   3.221   8.752   4.492 -2.2147 -2.3558  0.7188
  571MOL0     H77043   3.132   8.963   4.290 -1.5315 -1.5017  0.3237
  571MOL0     H77044   3.292   8.921   4.337 -0.4268 -1.1884 -0.2280
  571MOL0     H77045   3.327   9.188   4.669  0.1486  2.0704  0.8221
  571MOL0     H77046   3.504   9.469   4.641  1.1816 -0.7292  1.6438
  571MOL0     H77047   3.349   9.513   4.683  1.4372 -0.2981  0.5535
  571MOL0     H77048   3.415   9.358   4.753  1.5057 -0.9215 -0.8834
  571MOL0     H77049   3.510   9.808   4.336  0.1744  0.2629  0.2757
  571MOL0     H77050   3.489  10.024   4.247 -0.4569 -1.1360  0.8761
  571MOL0     H77051   3.528  10.183   4.043  0.6798  0.8078 -2.1905
  571MOL0     H77052   3.494  10.092   3.884  0.1106  0.1266 -0.7544
  571MOL0     H77053   3.408  10.383   3.958  1.2780 -0.8319 -0.1576
  571MOL0     H77054   3.499  10.318   3.821 -0.9865  2.8271  0.4207
  571MOL0     H77055   3.207  10.317   3.879 -0.5954  0.7411  0.7651
  571MOL0     H77056   3.287  10.206   3.758  1.0148 -0.7389  0.7738
  571MOL0     H77057   3.354  10.387   3.624  1.5453 -2.9024  2.0783
  571MOL0     H77058   3.183  10.378   3.668 -0.3562  0.3052  2.1258
  571MOL0     H77059   3.342  10.620   3.672  4.0367 -0.1241  1.8414
  571MOL0     H77060   3.343  10.572   3.833  1.3627 -0.5526 -1.7626
  571MOL0     H77061   3.094  10.643   3.674 -0.5262 -0.1756  0.8292
  571MOL0     H77062   3.081  10.543   3.815  0.6561 -0.3183  0.7912
  571MOL0     H77063   3.139  10.838   3.792 -0.3760 -2.7911 -2.3812
  571MOL0     H77064   3.233  10.759   3.915  1.9040 -0.2704 -2.6630
  571MOL0     H77065   2.978  10.661   3.980 -1.8377  0.5420 -1.7950
  571MOL0     H77066   2.939  10.797   3.894 -1.3923 -4.7193  0.0814
  571MOL0     H77067   3.232   9.884   3.942  2.4271  1.2607 -1.9307
  571MOL0     H77068   3.233   9.657   4.054 -2.3991  1.3825  0.6141
  571MOL0     H77069   3.281   9.380   4.221 -1.0781  0.8215  0.5255
  571MOL0     H77070   3.205   9.161   4.247  1.3941 -0.2913 -0.0103
  571MOL0     H77071   2.127   7.934   4.592  0.3708  0.5924  0.1257
  571MOL0     H77072   1.884   7.867   4.539 -3.2966  0.3537 -0.6504
  571MOL0     H77073   1.339   8.123   4.602  3.3138  1.9846 -2.2795
  571MOL0     H77074   1.135   7.994   4.554 -2.3909 -2.6197 -1.6600
  571MOL0     H77075   1.152   7.696   4.212  2.9715  0.6171  0.8304
  571MOL0     H77076   1.150   7.606   4.367  1.5868  1.0095  0.0967
  571MOL0     H77077   0.941   7.596   4.185  0.1784 -0.4336  0.2244
  571MOL0     H77078   0.891   7.741   4.270  0.1995  0.7376  2.5323
  571MOL0     H77079   0.946   7.469   4.407  0.0581  0.5925 -0.7986
  571MOL0     H77080   0.791   7.503   4.337  0.7747 -5.6016  2.3293
  571MOL0     H77081   0.758   7.698   4.457  1.5350  0.0195 -1.0095
  571MOL0     H77082   0.910   7.684   4.547  0.4682 -0.6292 -1.8630
  571MOL0     H77083   0.661   7.445   4.773  1.7467 -2.5503 -0.6410
  571MOL0     H77084   1.354   7.713   4.319  1.4498 -0.0495 -0.3880
  571MOL0     H77085   1.562   7.829   4.379 -1.0329 -0.3356  1.1441
  572MOL0     O77086   5.989   3.170   1.223  0.2323  0.1178 -0.9113
  572MOL0     C77087   5.951   3.196   1.108 -0.0688  0.6091  0.0397
  572MOL0     O77088   5.888   3.309   1.075  0.4507  0.4351 -0.2968
  572MOL0     C77089   5.845   3.399   1.171 -1.1398 -0.4000 -0.4303
  572MOL0     C77090   5.871   3.540   1.154  0.6270  0.4641  0.2058
  572MOL0     C77091   5.810   3.633   1.226 -0.0750 -0.4572  0.3630
  572MOL0     C77092   5.721   3.591   1.328 -0.0732 -0.0227 -0.4336
  572MOL0     O77093   5.651   3.674   1.416  0.5430  0.6579  0.5699
  572MOL0     C77094   5.693   3.812   1.416 -0.0553  0.5719 -0.2136
  572MOL0     C77095   5.617   3.887   1.526 -0.0698  0.1711 -0.2450
  572MOL0     C77096   5.466   3.905   1.485 -0.0733  0.0420 -0.7351
  572MOL0     C77097   5.440   4.054   1.465 -0.6273  0.0773  0.4829
  572MOL0     C77098   5.292   4.081   1.430  0.0574  0.8441  0.1048
  572MOL0     C77099   5.248   4.230   1.440 -0.2716  0.0288 -0.4417
  572MOL0     C77100   5.105   4.240   1.417  0.0517 -0.3608  0.6494
  572MOL0     C77101   5.080   4.391   1.375  0.6017 -0.1517 -0.2692
  572MOL0     N77102   5.064   4.478   1.492  0.0141  0.3302 -0.4702
  572MOL0     C77103   5.161   4.556   1.543 -0.5391 -0.4026 -0.6120
  572MOL0     C77104   5.108   4.604   1.662  0.7952  0.5255  0.0797
  572MOL0     C77105   5.194   4.704   1.735 -0.2861 -0.2695  1.0924
  572MOL0     C77106   5.305   4.633   1.822 -0.1999  0.6278 -0.0491
  572MOL0     C77107   5.421   4.555   1.746  0.7149 -0.0477 -0.5533
  572MOL0     C77108   5.538   4.506   1.833 -0.5348 -0.7079 -1.0284
  572MOL0     O77109   5.666   4.502   1.757 -0.4012  0.7260 -0.4429
  572MOL0     C77110   5.746   4.396   1.776  0.0811 -0.8497 -1.0998
  572MOL0     C77111   5.812   4.337   1.669  0.6375  0.3773  0.4098
  572MOL0     C77112   5.908   4.239   1.686 -0.2640 -0.6660  0.0804
  572MOL0     C77113   5.978   4.192   1.569  0.2117 -0.7049 -0.2626
  572MOL0     C77114   5.936   4.195   1.820  0.5415  0.4010 -0.0934
  572MOL0     C77115   6.046   4.109   1.846 -0.6421 -0.6717 -0.3354
  572MOL0     O77116   6.068   4.085   1.980 -0.8514 -0.2135  0.2356
  572MOL0     C77117   6.150   3.982   2.016 -0.6729  0.1644 -0.9164
  572MOL0     C77118   6.156   3.852   1.956  0.1157  0.7134  0.0211
  572MOL0     C77119   6.233   3.749   2.014  0.4280  0.4974 -0.7018
  572MOL0     C77120   6.317   3.774   2.118 -0.9674  0.8078 -0.2006
  572MOL0     O77121   6.407   3.680   2.168  0.1815  0.9243  0.6478
  572MOL0     C77122   6.543   3.717   2.177  0.6088 -0.1666 -0.8904
  572MOL0     C77123   6.626   3.610   2.259  0.1013  0.5878 -0.0279
  572MOL0     C77124   6.570   3.596   2.402  0.1193  0.2485 -0.7765
  572MOL0     C77125   6.673   3.517   2.487  0.8347 -0.1568 -0.4306
  572MOL0     C77126   6.650   3.542   2.642  0.9899  0.5558  0.3775
  572MOL0     C77127   6.514   3.484   2.682  0.2211  0.2082  0.1144
  572MOL0     C77128   6.496   3.490   2.824 -0.1701 -0.9117  0.2993
  572MOL0     C77129   6.362   3.453   2.865  0.4504  0.2193 -0.0398
  572MOL0    Cl77130   6.235   3.576   2.846 -0.3273 -0.3899 -0.0427
  572MOL0     C77131   6.311   3.906   2.179 -0.4810 -0.1821 -0.2477
  572MOL0     C77132   6.235   4.010   2.118 -1.3902 -0.2758  0.5536
  572MOL0     O77133   6.128   4.085   1.761  0.5448 -0.6771 -0.6515
  572MOL0     C77134   5.865   4.251   1.923 -0.2345 -1.1071  0.1353
  572MOL0     C77135   5.774   4.356   1.906  0.1416  0.3381 -0.5301
  572MOL0     N77136   4.980   4.540   1.683  0.1238  0.1111  0.2277
  572MOL0     N77137   4.956   4.464   1.575 -0.7381 -0.1566  0.7189
  572MOL0     C77138   5.716   3.455   1.365 -0.0465  0.1985 -0.2850
  572MOL0     C77139   5.773   3.355   1.284 -0.8464 -0.0149  0.4808
  572MOL0     C77140   6.000   3.109   1.016  0.7500  0.3920  1.2889
  572MOL0     C77141   6.038   2.981   1.051  0.1950 -0.5479 -0.0383
  572MOL0     C77142   6.081   2.885   0.947  0.2807 -0.3404 -0.0475
  572MOL0     C77143   6.058   2.919   0.810 -0.1709 -0.6727 -0.8580
  572MOL0     O77144   6.090   2.823   0.720  0.1174  0.1000 -0.0509
  572MOL0     C77145   6.082   2.858   0.582 -0.1576  0.0944  0.3034
  572MOL0     C77146   6.187   2.780   0.506  0.5662  0.3582 -0.1030
  572MOL0     C77147   6.213   2.814   0.352  0.3717 -0.6196 -0.3239
  572MOL0     C77148   6.093   2.855   0.249  0.3207 -0.1668 -0.2306
  572MOL0     C77149   5.976   2.774   0.283  0.1914 -0.3677  0.7416
  572MOL0     C77150   5.868   2.714   0.280 -0.2060 -0.0989  0.3983
  572MOL0     C77151   6.001   3.046   0.783  0.6599 -0.6951  0.7666
  572MOL0     C77152   5.978   3.140   0.878  0.4376  0.8133 -0.8748
  572MOL0     H77153   5.941   3.570   1.076  0.8166  1.4681  0.7423
  572MOL0     H77154   5.834   3.737   1.203 -2.3894 -0.2252 -1.3935
  572MOL0     H77155   5.798   3.829   1.441 -0.1876 -1.2687  1.8887
  572MOL0     H77156   5.672   3.858   1.319 -2.2332  1.2337  0.5299
  572MOL0     H77157   5.624   3.830   1.619 -1.1000 -1.4808 -1.1322
  572MOL0     H77158   5.665   3.982   1.554 -1.7063  1.0320 -0.2125
  572MOL0     H77159   5.451   3.845   1.395  0.8682  0.6119 -1.2827
  572MOL0     H77160   5.395   3.867   1.559 -0.7204  0.3964 -1.1735
  572MOL0     H77161   5.455   4.111   1.557 -2.0433  1.2793  0.0180
  572MOL0     H77162   5.501   4.104   1.389 -0.5285 -1.1901 -0.2939
  572MOL0     H77163   5.276   4.057   1.325  0.0701  2.0717 -0.1863
  572MOL0     H77164   5.230   4.026   1.502 -0.0370 -0.1030 -0.6710
  572MOL0     H77165   5.280   4.262   1.539  1.4132  1.1980 -1.3009
  572MOL0     H77166   5.300   4.290   1.364 -0.9081 -1.4930 -2.1632
  572MOL0     H77167   5.077   4.183   1.328  2.1074  2.0082 -1.7022
  572MOL0     H77168   5.045   4.199   1.498  2.0121 -2.7750  1.0245
  572MOL0     H77169   4.988   4.399   1.317  0.7973  0.0610 -0.5521
  572MOL0     H77170   5.163   4.434   1.318 -0.0175  0.1291 -0.9587
  572MOL0     H77171   5.257   4.569   1.495 -0.8438  1.9960 -0.6892
  572MOL0     H77172   5.249   4.776   1.673  0.7209 -0.1918  2.0485
  572MOL0     H77173   5.124   4.768   1.788  0.0508  1.1876 -0.1564
  572MOL0     H77174   5.257   4.555   1.883  1.2098 -1.2918 -1.2978
  572MOL0     H77175   5.352   4.708   1.886  1.4400 -0.1314 -0.3250
  572MOL0     H77176   5.471   4.614   1.669  2.8627  0.2649  0.9710
  572MOL0     H77177   5.376   4.470   1.695  0.3710 -1.1651  1.4956
  572MOL0     H77178   5.513   4.405   1.868  2.2754  0.1434  4.6472
  572MOL0     H77179   5.543   4.559   1.928  0.7026 -3.5091  0.6056
  572MOL0     H77180   5.784   4.356   1.566  0.6953  2.0262  0.6657
  572MOL0     H77181   5.998   4.085   1.562  1.5251 -0.3835 -2.0882
  572MOL0     H77182   5.912   4.203   1.483 -0.7818  3.1533  0.7873
  572MOL0     H77183   6.058   4.263   1.549 -0.8777  0.4763 -0.5789
  572MOL0     H77184   6.088   3.835   1.872 -3.0881  2.6733  2.0080
  572MOL0     H77185   6.245   3.645   1.985  1.5419 -1.3717  5.2160
  572MOL0     H77186   6.585   3.723   2.076  0.6399  1.4106 -0.8139
  572MOL0     H77187   6.557   3.816   2.222  0.4985  0.6599 -2.5879
  572MOL0     H77188   6.604   3.512   2.216  0.2772 -0.8449  2.8783
  572MOL0     H77189   6.730   3.644   2.258 -0.0114  1.0942  1.8443
  572MOL0     H77190   6.471   3.551   2.401  0.6123 -0.8550 -0.7610
  572MOL0     H77191   6.557   3.695   2.448 -0.2955 -0.6012  1.0509
  572MOL0     H77192   6.661   3.410   2.468  0.3971 -0.6761  2.3227
  572MOL0     H77193   6.771   3.559   2.464  1.1435 -1.9057 -2.7291
  572MOL0     H77194   6.648   3.649   2.666  4.8424  0.4133  2.1451
  572MOL0     H77195   6.728   3.484   2.693 -0.5497 -0.5021  1.6157
  572MOL0     H77196   6.433   3.539   2.634  0.4960 -0.9764 -1.8350
  572MOL0     H77197   6.506   3.378   2.656  0.3291  0.6593 -1.9477
  572MOL0     H77198   6.518   3.592   2.856  0.5083 -0.2717 -2.0202
  572MOL0     H77199   6.577   3.435   2.872 -0.1559 -0.0493  1.3217
  572MOL0     H77200   6.358   3.429   2.971  0.7582  1.8580  0.3584
  572MOL0     H77201   6.321   3.366   2.811 -2.9916  1.7086 -0.0638
  572MOL0     H77202   6.365   3.939   2.267  0.2015 -0.0889 -0.6944
  572MOL0     H77203   6.242   4.111   2.159 -2.0866  1.1086 -2.4310
  572MOL0     H77204   5.881   4.204   2.020 -1.3782 -1.4768  0.1631
  572MOL0     H77205   5.716   4.392   1.991 -0.4555 -1.0349 -0.3381
  572MOL0     H77206   5.664   3.437   1.458  1.9865  2.2837  1.3803
  572MOL0     H77207   5.762   3.249   1.303 -0.5300 -0.0561  0.4380
  572MOL0     H77208   6.034   2.951   1.155 -1.2926  0.5970  0.2680
  572MOL0     H77209   6.117   2.784   0.964  0.0872 -0.5019 -0.5846
  572MOL0     H77210   5.980   2.830   0.554 -0.9384  1.9865  1.1294
  572MOL0     H77211   6.102   2.961   0.553 -1.7955  0.0702 -1.0603
  572MOL0     H77212   6.164   2.675   0.526 -2.0534  1.2491  2.3109
  572MOL0     H77213   6.285   2.804   0.549  0.6240  0.5060 -0.3147
  572MOL0     H77214   6.236   2.714   0.314  0.5312 -0.4382 -0.7066
  572MOL0     H77215   6.295   2.886   0.340  0.1986 -0.3750 -0.0418
  572MOL0     H77216   6.126   2.852   0.144  1.0832  0.2238 -0.0135
  572MOL0     H77217   6.062   2.960   0.260  1.6641  0.7588 -3.7816
  572MOL0     H77218   5.770   2.671   0.268 -2.1837  3.5494  1.8085
  572MOL0     H77219   5.978   3.061   0.678 -0.3909  1.1291  1.2072
  572MOL0     H77220   5.936   3.236   0.849  1.2334  0.9105 -1.7426
  573MOL0     O77221   2.213   7.773   1.159 -0.0969  0.5847 -0.6590
  573MOL0     C77222   2.266   7.807   1.057 -0.1079  1.1120 -0.3002
  573MOL0     O77223   2.250   7.742   0.942  0.7801 -0.9244  1.1147
  573MOL0     C77224   2.143   7.661   0.938  0.2808 -0.3896 -0.2390
  573MOL0     C77225   2.180   7.526   0.948  0.3079  0.7539  0.0047
  573MOL0     C77226   2.082   7.429   0.915 -0.0405  0.2319 -0.0071
  573MOL0     C77227   1.955   7.460   0.861 -0.6519 -1.8991 -0.7924
  573MOL0     O77228   1.860   7.378   0.815  0.4624 -0.0773  0.0075
  573MOL0     C77229   1.836   7.250   0.878  0.0922 -0.0980  0.2353
  573MOL0     C77230   1.724   7.190   0.798 -0.4405  0.3673 -1.0964
  573MOL0     C77231   1.742   7.173   0.641  1.0197  0.2312 -0.6306
  573MOL0     C77232   1.612   7.109   0.586  0.7253 -0.1774 -0.4116
  573MOL0     C77233   1.607   7.114   0.436  0.1999  0.3519 -0.6908
  573MOL0     C77234   1.469   7.094   0.377 -0.1932  1.0807 -0.5952
  573MOL0     C77235   1.370   7.200   0.409 -0.1460 -0.5019 -0.1090
  573MOL0     C77236   1.350   7.280   0.275 -0.4209 -0.0530  0.0231
  573MOL0     N77237   1.466   7.361   0.258 -1.1025 -0.2908  0.6121
  573MOL0     C77238   1.507   7.459   0.342 -0.7726 -0.0186 -0.4060
  573MOL0     C77239   1.626   7.517   0.292 -0.2926 -0.7123  0.7703
  573MOL0     C77240   1.696   7.646   0.334  0.2630  0.6549  0.1350
  573MOL0     C77241   1.792   7.621   0.448  0.1194  0.7891  0.2147
  573MOL0     C77242   1.921   7.551   0.411 -0.7915  0.9612  0.2329
  573MOL0     C77243   2.030   7.585   0.506 -0.0788  0.4059 -0.2578
  573MOL0     O77244   2.149   7.524   0.446  0.1121 -0.2995  0.6556
  573MOL0     C77245   2.265   7.581   0.491  0.1624  0.4284  1.3718
  573MOL0     C77246   2.373   7.567   0.408  0.8983  0.8298  0.7006
  573MOL0     C77247   2.495   7.614   0.441 -1.4294 -0.1916  0.0330
  573MOL0     C77248   2.609   7.605   0.340  0.0069  0.5269  1.1798
  573MOL0     C77249   2.516   7.691   0.560  0.6542 -0.5485 -0.4270
  573MOL0     C77250   2.638   7.740   0.608 -0.6977  0.6714  0.0109
  573MOL0     O77251   2.637   7.875   0.653 -0.5635  0.0156  0.0942
  573MOL0     C77252   2.751   7.943   0.701  0.4991 -0.5806  0.0193
  573MOL0     C77253   2.807   7.912   0.826 -0.7368 -0.0007  0.5463
  573MOL0     C77254   2.927   7.976   0.869 -0.3156 -0.6301 -0.8373
  573MOL0     C77255   2.994   8.066   0.786 -0.0132 -0.6373 -0.1706
  573MOL0     O77256   3.125   8.100   0.823 -0.4375  0.3287  0.6963
  573MOL0     C77257   3.168   8.234   0.783 -0.1078  0.1418  0.1741
  573MOL0     C77258   3.264   8.304   0.878  0.5014 -0.4201  0.3892
  573MOL0     C77259   3.177   8.383   0.985  0.1689  0.0724 -0.0641
  573MOL0     C77260   3.270   8.420   1.101  0.0034  0.3763 -0.7261
  573MOL0     C77261   3.210   8.504   1.211  0.6231 -0.0222 -0.9001
  573MOL0     C77262   3.105   8.439   1.301 -0.2689  1.0061 -0.0606
  573MOL0     C77263   3.178   8.343   1.396  0.4750 -0.2863  0.5441
  573MOL0     C77264   3.085   8.322   1.521 -0.3670  0.2456 -0.8328
  573MOL0    Cl77265   2.938   8.226   1.496  0.2458 -0.1617  0.0208
  573MOL0     C77266   2.925   8.111   0.663  0.0247  0.1018 -0.2947
  573MOL0     C77267   2.805   8.044   0.624 -0.3401 -0.6288  0.2627
  573MOL0     O77268   2.741   7.672   0.592  0.2810 -0.1695 -0.2788
  573MOL0     C77269   2.410   7.710   0.645 -0.2028 -0.8951 -0.8813
  573MOL0     C77270   2.285   7.650   0.612  0.9072 -0.2005 -0.3427
  573MOL0     N77271   1.660   7.435   0.189 -0.3619  0.5271 -0.7264
  573MOL0     N77272   1.562   7.353   0.169  0.1473 -0.5656 -0.1504
  573MOL0     C77273   1.930   7.594   0.845  0.3301  0.8243  0.3871
  573MOL0     C77274   2.017   7.691   0.882 -0.0215 -0.2360 -0.4115
  573MOL0     C77275   2.354   7.921   1.056 -0.6403  0.4218  0.6237
  573MOL0     C77276   2.376   7.986   0.926 -0.2319 -0.9106  0.0724
  573MOL0     C77277   2.472   8.091   0.927 -0.0904  0.7513 -0.0972
  573MOL0     C77278   2.538   8.133   1.044 -0.4083  0.2370 -0.2158
  573MOL0     O77279   2.614   8.247   1.056 -0.0320  0.2864 -0.2731
  573MOL0     C77280   2.643   8.327   0.939  0.2607  1.1091  0.5737
  573MOL0     C77281   2.705   8.446   1.009  0.3511 -0.7237 -0.7578
  573MOL0     C77282   2.707   8.568   0.922 -0.0596 -0.1135  0.0807
  573MOL0     C77283   2.735   8.688   1.023 -0.3701  0.9799  0.6087
  573MOL0     C77284   2.767   8.810   0.958 -0.8308  0.2250 -0.6623
  573MOL0     C77285   2.801   8.906   0.899  0.1774 -0.9647 -0.7363
  573MOL0     C77286   2.509   8.065   1.163 -0.3362  0.1671  0.5544
  573MOL0     C77287   2.424   7.963   1.181 -0.6807  0.2599  0.4391
  573MOL0     H77288   2.283   7.511   0.976  0.1025  1.3333  1.1436
  573MOL0     H77289   2.106   7.323   0.920  0.6043  0.2006 -2.5879
  573MOL0     H77290   1.930   7.193   0.877  1.7363  2.4359 -1.4450
  573MOL0     H77291   1.819   7.265   0.985  0.9351  1.7090  0.1573
  573MOL0     H77292   1.709   7.093   0.846  1.5409  0.5061 -0.1303
  573MOL0     H77293   1.640   7.256   0.825 -0.0469  0.3741  0.1630
  573MOL0     H77294   1.768   7.272   0.602  3.4613  0.4793  1.3903
  573MOL0     H77295   1.831   7.112   0.625  2.2664  2.2389 -1.7660
  573MOL0     H77296   1.614   7.009   0.631 -2.2979  1.1189  3.1011
  573MOL0     H77297   1.518   7.144   0.629  1.2924 -0.7206  1.3722
  573MOL0     H77298   1.646   7.209   0.398 -1.4594  1.1921 -0.3843
  573MOL0     H77299   1.667   7.026   0.412 -2.1367 -1.8475  0.9969
  573MOL0     H77300   1.479   7.077   0.269  1.1578 -0.6132 -0.2534
  573MOL0     H77301   1.431   6.999   0.415 -0.5803  0.8906 -1.4522
  573MOL0     H77302   1.270   7.161   0.430 -0.9011 -0.0629 -2.4934
  573MOL0     H77303   1.402   7.258   0.496 -0.2970 -1.0704  0.3313
  573MOL0     H77304   1.262   7.345   0.270  0.8067  1.9176  1.8645
  573MOL0     H77305   1.334   7.209   0.194 -2.4924 -0.1736  0.4802
  573MOL0     H77306   1.455   7.488   0.432 -1.1987 -1.6832 -0.0761
  573MOL0     H77307   1.736   7.692   0.243  2.6369 -2.6834 -0.6951
  573MOL0     H77308   1.628   7.723   0.370  0.3929  2.7789 -3.5903
  573MOL0     H77309   1.758   7.567   0.537  0.7792 -1.8042 -1.0018
  573MOL0     H77310   1.815   7.719   0.490  2.5807  1.7334 -2.9150
  573MOL0     H77311   1.954   7.572   0.309  1.3200 -1.7148  0.2470
  573MOL0     H77312   1.897   7.445   0.423 -0.5700  1.0793  2.0324
  573MOL0     H77313   2.012   7.550   0.608  1.5693  1.6867  0.5187
  573MOL0     H77314   2.034   7.694   0.506  0.9487  0.3912  1.1042
  573MOL0     H77315   2.361   7.507   0.318  1.4367  1.7584 -0.0045
  573MOL0     H77316   2.680   7.526   0.366  0.2774 -0.1386 -1.3400
  573MOL0     H77317   2.576   7.583   0.238  1.1762  0.7266  0.7468
  573MOL0     H77318   2.659   7.702   0.329 -1.3880  0.9653 -4.0286
  573MOL0     H77319   2.770   7.840   0.897  0.0896  0.1205  1.1170
  573MOL0     H77320   2.980   7.963   0.963 -0.6391  0.5892 -0.4699
  573MOL0     H77321   3.217   8.244   0.686 -2.9085 -0.2466 -1.3864
  573MOL0     H77322   3.074   8.288   0.770 -0.6892 -1.2996 -2.4100
  573MOL0     H77323   3.320   8.226   0.931  1.8904  2.1149  2.9040
  573MOL0     H77324   3.333   8.367   0.822  3.1750 -3.2234  0.2391
  573MOL0     H77325   3.084   8.341   1.023 -0.3803  1.5186  0.2562
  573MOL0     H77326   3.143   8.475   0.936  2.8731  0.9013 -0.5547
  573MOL0     H77327   3.307   8.329   1.148 -2.1459 -1.5474 -2.5080
  573MOL0     H77328   3.361   8.465   1.060  0.2276  2.2203  1.5858
  573MOL0     H77329   3.147   8.575   1.158 -1.6457 -2.1856 -1.2606
  573MOL0     H77330   3.295   8.549   1.264  2.6747 -3.9205 -0.5004
  573MOL0     H77331   3.065   8.520   1.362 -0.8244  1.1058 -0.5455
  573MOL0     H77332   3.023   8.391   1.247 -0.1234 -0.1930  0.7436
  573MOL0     H77333   3.270   8.381   1.440 -0.6027  0.0869  2.6384
  573MOL0     H77334   3.195   8.252   1.340 -4.0168 -0.4817 -0.9595
  573MOL0     H77335   3.051   8.422   1.548  3.1598  1.3841 -0.1240
  573MOL0     H77336   3.137   8.266   1.599 -1.2343  0.4788 -0.0796
  573MOL0     H77337   2.970   8.193   0.609  0.8281 -0.1144  0.0380
  573MOL0     H77338   2.773   8.061   0.521  0.2483 -3.1727 -0.4001
  573MOL0     H77339   2.417   7.783   0.726  1.8063 -0.0991 -1.7035
  573MOL0     H77340   2.202   7.676   0.677  1.9557 -1.1317  1.4610
  573MOL0     H77341   1.832   7.607   0.803  0.3443 -0.8338 -0.2356
  573MOL0     H77342   2.002   7.794   0.852 -1.0323 -0.2778 -0.0781
  573MOL0     H77343   2.321   7.961   0.836 -2.3853 -2.2645  1.6460
  573MOL0     H77344   2.502   8.137   0.834  4.2664 -0.7876  0.3205
  573MOL0     H77345   2.713   8.272   0.875  0.1503 -0.6131  1.8514
  573MOL0     H77346   2.549   8.341   0.885  0.6425  0.5677 -0.2522
  573MOL0     H77347   2.804   8.419   1.047  0.2191  0.9190  0.8822
  573MOL0     H77348   2.648   8.477   1.097  1.4830  1.2082 -0.6487
  573MOL0     H77349   2.612   8.578   0.869 -0.4419 -0.4853  0.6801
  573MOL0     H77350   2.787   8.563   0.848  1.0837 -0.9919  1.3327
  573MOL0     H77351   2.832   8.667   1.069  1.2297  2.1417 -1.9939
  573MOL0     H77352   2.654   8.693   1.097 -1.9739  0.1905 -1.0141
  573MOL0     H77353   2.811   8.985   0.827  1.6449 -1.9659 -1.6989
  573MOL0     H77354   2.558   8.093   1.255 -2.3091  1.2526  1.3270
  573MOL0     H77355   2.413   7.928   1.283 -4.7243  5.0498  2.0886
  574MOL0     O77356   6.640   1.902   6.197 -0.2428 -0.5790 -0.2810
  574MOL0     C77357   6.700   1.905   6.303  0.9617  0.7151 -0.6485
  574MOL0     O77358   6.822   1.964   6.316  0.3432 -0.2390 -0.2702
  574MOL0     C77359   6.887   1.978   6.192 -0.3028 -1.0757  0.4275
  574MOL0     C77360   6.868   2.097   6.113 -0.0402  0.3459 -0.1821
  574MOL0     C77361   6.955   2.127   6.012 -0.1701  0.1655 -0.0199
  574MOL0     C77362   7.061   2.044   5.984  1.0482  0.0541  1.0796
  574MOL0     O77363   7.153   2.077   5.894 -0.6528  0.0442  0.0959
  574MOL0     C77364   7.116   2.144   5.777  0.1311  0.5453 -0.0365
  574MOL0     C77365   7.242   2.188   5.686 -0.2926  0.4769 -0.6028
  574MOL0     C77366   7.354   2.078   5.668  0.7407  0.7849  0.2247
  574MOL0     C77367   7.473   2.133   5.585 -0.2260 -0.4516 -0.3780
  574MOL0     C77368   7.594   2.035   5.581  0.2391  0.0452 -0.7185
  574MOL0     C77369   7.725   2.120   5.560 -0.6847  0.9293  0.4567
  574MOL0     C77370   7.837   2.021   5.515  0.4145  0.4706 -0.2239
  574MOL0     C77371   7.913   1.929   5.626 -0.8081  0.2416  0.5278
  574MOL0     N77372   8.024   1.992   5.689 -0.3602  0.4272 -0.5207
  574MOL0     C77373   8.022   2.056   5.813 -0.5485  1.0586  0.5997
  574MOL0     C77374   8.150   2.102   5.839  0.7516 -0.3960 -0.1170
  574MOL0     C77375   8.198   2.178   5.961  0.2552 -0.9754  0.1864
  574MOL0     C77376   8.130   2.122   6.090  0.4833  1.1480  0.0852
  574MOL0     C77377   8.108   2.218   6.206 -0.3921  0.0740  0.5332
  574MOL0     C77378   7.983   2.306   6.183 -0.2226  0.1030  0.8046
  574MOL0     O77379   8.033   2.432   6.129 -0.4273  0.0870 -0.5195
  574MOL0     C77380   7.945   2.529   6.097 -0.1791 -0.0001  0.2395
  574MOL0     C77381   7.975   2.619   5.999  0.2500 -0.3833 -0.1780
  574MOL0     C77382   7.890   2.710   5.935  0.1889 -0.0109 -0.1431
  574MOL0     C77383   7.956   2.809   5.846  0.0269 -0.3365  0.4847
  574MOL0     C77384   7.755   2.710   5.988  0.5485 -0.6739 -0.0532
  574MOL0     C77385   7.645   2.781   5.924 -0.3941  0.3069  1.0458
  574MOL0     O77386   7.514   2.749   5.961 -0.0878  0.6405  0.2793
  574MOL0     C77387   7.409   2.826   5.925 -0.2396  0.9731 -0.8263
  574MOL0     C77388   7.326   2.885   6.024  0.5733  0.3760  0.4343
  574MOL0     C77389   7.200   2.940   5.992  0.4403  0.4901 -0.0785
  574MOL0     C77390   7.168   2.978   5.862  1.1882  0.5184 -0.0333
  574MOL0     O77391   7.052   3.051   5.841 -0.3548  0.6380  0.1951
  574MOL0     C77392   7.026   3.098   5.710  0.2660 -0.6872  0.4334
  574MOL0     C77393   6.887   3.159   5.717 -0.4665  0.0425 -0.0852
  574MOL0     C77394   6.849   3.206   5.571 -0.0629  0.7810  0.0431
  574MOL0     C77395   6.718   3.300   5.584  0.5287 -0.4278  0.1326
  574MOL0     C77396   6.727   3.414   5.479  1.1970  0.1548 -0.1544
  574MOL0     C77397   6.742   3.368   5.340  0.3645 -0.5820  0.1667
  574MOL0     C77398   6.766   3.496   5.250 -0.1912  0.4930 -0.0074
  574MOL0     C77399   6.787   3.452   5.107 -0.4400  0.0701 -0.2683
  574MOL0    Cl77400   6.834   3.595   5.005  0.3432  0.0966  0.4141
  574MOL0     C77401   7.264   2.934   5.759  1.2461  0.0542  0.2365
  574MOL0     C77402   7.373   2.864   5.796  0.3596  0.8920 -0.3303
  574MOL0     O77403   7.673   2.878   5.848 -0.2674 -0.3159  0.0872
  574MOL0     C77404   7.708   2.615   6.080  0.4014  0.9426  0.5615
  574MOL0     C77405   7.803   2.527   6.131 -0.6020  0.0739  0.2971
  574MOL0     N77406   8.224   2.069   5.716  0.3433  0.3667 -0.1639
  574MOL0     N77407   8.146   2.007   5.627  0.5181  0.8019 -0.2680
  574MOL0     C77408   7.074   1.926   6.050  0.5455  0.1616 -0.1123
  574MOL0     C77409   6.979   1.887   6.147  0.1651 -0.0049 -0.2848
  574MOL0     C77410   6.634   1.845   6.419  0.3563  0.0922  0.2144
  574MOL0     C77411   6.510   1.788   6.419  0.5149  0.4643  0.1857
  574MOL0     C77412   6.445   1.727   6.533 -0.2559  0.0149  0.5065
  574MOL0     C77413   6.514   1.719   6.652  0.4722  0.7699 -0.4985
  574MOL0     O77414   6.463   1.643   6.755 -0.4741  0.7742 -0.1506
  574MOL0     C77415   6.531   1.628   6.879 -0.3727  1.0749  0.7032
  574MOL0     C77416   6.490   1.487   6.933  0.1573 -0.3390  0.0877
  574MOL0     C77417   6.548   1.367   6.856 -0.1476  0.0189  0.7845
  574MOL0     C77418   6.687   1.329   6.915  0.7155 -0.4669  0.3183
  574MOL0     C77419   6.750   1.215   6.864 -0.3950 -0.2269 -0.4520
  574MOL0     C77420   6.798   1.115   6.811 -0.7302 -0.9013  0.1350
  574MOL0     C77421   6.623   1.799   6.658 -0.8733 -0.6247  0.2702
  574MOL0     C77422   6.687   1.864   6.550 -0.3597  0.2563  0.2633
  574MOL0     H77423   6.797   2.169   6.151  2.6539  2.6054  0.9937
  574MOL0     H77424   6.940   2.224   5.967 -1.3079  0.0799  0.1604
  574MOL0     H77425   7.054   2.078   5.716  0.6261 -3.0915  3.0097
  574MOL0     H77426   7.061   2.236   5.795 -1.3896 -0.0125 -1.6078
  574MOL0     H77427   7.200   2.211   5.588 -1.9337  0.8925  0.1596
  574MOL0     H77428   7.303   2.265   5.734  1.5505  1.1384 -3.7294
  574MOL0     H77429   7.397   2.054   5.765  1.8499 -0.9504 -0.6546
  574MOL0     H77430   7.314   1.991   5.615  1.6276  0.0733  0.6923
  574MOL0     H77431   7.439   2.165   5.486 -0.9749  7.4977  1.7461
  574MOL0     H77432   7.490   2.231   5.630  3.3447 -0.7484 -0.7758
  574MOL0     H77433   7.603   1.982   5.676  0.2498 -2.6017 -2.0986
  574MOL0     H77434   7.585   1.963   5.499  0.0958  1.2765 -1.8176
  574MOL0     H77435   7.700   2.199   5.489  0.6534  1.8931  1.0341
  574MOL0     H77436   7.770   2.164   5.649  1.0472 -1.8816  1.0964
  574MOL0     H77437   7.790   1.960   5.437 -0.4812 -0.2416  0.8416
  574MOL0     H77438   7.920   2.066   5.460  2.6170 -2.6703  0.2772
  574MOL0     H77439   7.957   1.846   5.570  0.7867  1.6017 -0.2893
  574MOL0     H77440   7.837   1.893   5.696 -2.5069  0.4775 -1.1125
  574MOL0     H77441   7.936   2.064   5.880 -2.5785 -2.3687 -1.2585
  574MOL0     H77442   8.307   2.191   5.960  0.1775 -0.1830 -0.8410
  574MOL0     H77443   8.169   2.283   5.947 -1.9185 -1.5733 -0.0883
  574MOL0     H77444   8.187   2.039   6.134 -2.2712 -0.3203  1.1340
  574MOL0     H77445   8.036   2.069   6.071  1.8852 -1.1674 -0.9088
  574MOL0     H77446   8.194   2.282   6.223  1.6746 -1.4919 -2.8870
  574MOL0     H77447   8.097   2.150   6.290 -0.4625 -3.1486 -1.8763
  574MOL0     H77448   7.939   2.317   6.283 -0.5832 -0.9768  0.7701
  574MOL0     H77449   7.910   2.251   6.123 -0.8083  0.4903  1.1482
  574MOL0     H77450   8.080   2.622   5.971  0.8587 -6.1086  0.2908
  574MOL0     H77451   7.955   2.776   5.742  0.4037 -0.0421  0.3815
  574MOL0     H77452   7.899   2.903   5.852 -0.7216 -0.8027  0.7114
  574MOL0     H77453   8.057   2.832   5.882  1.7848 -2.0055 -2.9183
  574MOL0     H77454   7.347   2.869   6.129  1.1458  0.0666  0.2752
  574MOL0     H77455   7.136   2.969   6.075  0.8237 -1.5302  0.9847
  574MOL0     H77456   7.091   3.184   5.690 -1.0245  0.0385 -0.7432
  574MOL0     H77457   7.027   3.019   5.634 -0.8400 -2.5642  2.2471
  574MOL0     H77458   6.814   3.084   5.749  1.3716 -2.3279 -1.1214
  574MOL0     H77459   6.885   3.244   5.786  0.9318 -0.0122  0.0414
  574MOL0     H77460   6.844   3.126   5.497  2.5531  2.0834 -1.7340
  574MOL0     H77461   6.935   3.271   5.546  1.1414 -0.2709  1.2978
  574MOL0     H77462   6.633   3.238   5.552  0.4574 -0.1038 -0.3120
  574MOL0     H77463   6.697   3.340   5.684  0.2136 -1.0528  0.3214
  574MOL0     H77464   6.804   3.483   5.514 -1.1448  3.7523 -1.4136
  574MOL0     H77465   6.644   3.486   5.477  2.3791  1.6584  1.6585
  574MOL0     H77466   6.818   3.292   5.320  0.8028  0.1484 -1.0794
  574MOL0     H77467   6.644   3.325   5.316 -0.1042  1.2454 -1.3850
  574MOL0     H77468   6.854   3.547   5.290 -1.2098  0.6143  2.2328
  574MOL0     H77469   6.680   3.565   5.252 -0.1384  0.5951 -0.8520
  574MOL0     H77470   6.691   3.416   5.067  1.0245 -2.5044 -1.7088
  574MOL0     H77471   6.873   3.385   5.098  2.1682  3.3412 -1.7737
  574MOL0     H77472   7.245   2.976   5.661 -5.5149  2.5496  2.0448
  574MOL0     H77473   7.447   2.832   5.724  0.1836  0.7316 -0.4403
  574MOL0     H77474   7.604   2.591   6.098  1.1247 -0.8015  2.7512
  574MOL0     H77475   7.769   2.454   6.204  2.1827  0.9213  2.6542
  574MOL0     H77476   7.153   1.857   6.022  2.2736  2.8122 -2.4031
  574MOL0     H77477   6.990   1.803   6.215  0.7847  1.5148  1.5953
  574MOL0     H77478   6.440   1.784   6.336  1.5362 -1.4444 -0.6659
  574MOL0     H77479   6.347   1.684   6.518  0.3019 -1.2224  0.2970
  574MOL0     H77480   6.640   1.629   6.867 -0.3444 -2.1477 -0.4820
  574MOL0     H77481   6.495   1.711   6.940 -2.5759 -0.3861  1.5297
  574MOL0     H77482   6.382   1.471   6.928 -0.0400 -0.6899  3.3184
  574MOL0     H77483   6.524   1.482   7.036 -1.2609 -0.3151  0.5818
  574MOL0     H77484   6.544   1.393   6.750 -1.9789 -0.0019  0.8240
  574MOL0     H77485   6.489   1.276   6.873 -0.2935  0.0424  0.3994
  574MOL0     H77486   6.665   1.303   7.019  0.3087 -2.0942 -0.1530
  574MOL0     H77487   6.757   1.412   6.897  1.3156 -1.0763 -0.1786
  574MOL0     H77488   6.840   1.029   6.764  2.7046 -0.1966  1.6522
  574MOL0     H77489   6.677   1.814   6.751  4.0298 -0.9976 -2.2135
  574MOL0     H77490   6.765   1.940   6.550 -0.5946  0.5667 -2.0529
  575MOL0     O77491   7.134   4.425   0.712  0.4296  0.2144  0.5171
  575MOL0     C77492   7.125   4.353   0.814 -0.7223 -0.0590  0.7194
  575MOL0     O77493   7.027   4.357   0.906 -0.1714  0.1918  0.0040
  575MOL0     C77494   6.917   4.428   0.867  0.0331 -0.2938  0.6730
  575MOL0     C77495   6.907   4.542   0.941 -0.6713 -0.0604  0.6525
  575MOL0     C77496   6.805   4.641   0.917 -0.0418  0.6526 -0.0684
  575MOL0     C77497   6.712   4.620   0.814 -0.4217 -0.3467 -0.2066
  575MOL0     O77498   6.624   4.706   0.776  0.4703 -0.9244 -0.5211
  575MOL0     C77499   6.556   4.796   0.871 -0.6460 -0.5441 -0.6299
  575MOL0     C77500   6.412   4.820   0.844  0.5109  0.7383  0.3281
  575MOL0     C77501   6.338   4.885   0.965 -0.4961  0.1811  0.1831
  575MOL0     C77502   6.193   4.931   0.932 -0.0718  0.5182 -0.6147
  575MOL0     C77503   6.123   5.007   1.053  0.1957  0.5599 -0.3617
  575MOL0     C77504   5.984   5.055   1.011  0.8174  1.0070 -0.2382
  575MOL0     C77505   5.905   5.096   1.132  0.1128 -0.3492 -0.4710
  575MOL0     C77506   5.764   5.141   1.095 -0.8981  0.1420  1.2029
  575MOL0     N77507   5.679   5.138   1.214  0.7553  0.6663  0.3400
  575MOL0     C77508   5.654   5.242   1.296  0.6948 -0.0251 -0.9309
  575MOL0     C77509   5.548   5.202   1.376 -0.5581 -0.3210 -0.3644
  575MOL0     C77510   5.487   5.287   1.492  0.1826  0.1704  0.1606
  575MOL0     C77511   5.339   5.288   1.493 -0.1428 -0.0915  0.4430
  575MOL0     C77512   5.291   5.427   1.439 -0.2224 -0.5155  0.8956
  575MOL0     C77513   5.320   5.456   1.289  0.2547  0.9428  0.6594
  575MOL0     O77514   5.219   5.533   1.222  0.5462 -0.4733 -0.8736
  575MOL0     C77515   5.247   5.667   1.239  0.2382  0.3713  0.1971
  575MOL0     C77516   5.174   5.750   1.319 -0.3186 -0.2108 -0.5765
  575MOL0     C77517   5.197   5.893   1.325 -0.3375 -0.2048  0.2778
  575MOL0     C77518   5.101   5.971   1.411  0.1854 -0.2748 -0.5392
  575MOL0     C77519   5.302   5.946   1.261 -0.5858  0.7568  0.6828
  575MOL0     C77520   5.319   6.092   1.239  0.3365  0.2010  0.0108
  575MOL0     O77521   5.214   6.175   1.253 -0.1867 -0.1168  0.5428
  575MOL0     C77522   5.244   6.306   1.282 -1.0551  0.2655 -0.6892
  575MOL0     C77523   5.279   6.336   1.421  0.8751  0.5878  0.3000
  575MOL0     C77524   5.304   6.470   1.454 -0.1942 -0.1873 -0.5939
  575MOL0     C77525   5.298   6.578   1.365  0.2437  0.4593 -1.0259
  575MOL0     O77526   5.296   6.712   1.401  0.7906  0.0109 -0.0907
  575MOL0     C77527   5.430   6.764   1.434  0.2599 -0.2101  0.7369
  575MOL0     C77528   5.454   6.750   1.582 -0.8505 -0.5892 -0.2936
  575MOL0     C77529   5.560   6.855   1.632  1.2169  0.9701  0.6151
  575MOL0     C77530   5.600   6.826   1.781  0.1227 -0.2417  1.4609
  575MOL0     C77531   5.725   6.894   1.819 -0.0739  0.0929 -1.1257
  575MOL0     C77532   5.850   6.840   1.762  0.5288 -0.5524  0.0748
  575MOL0     C77533   5.957   6.927   1.823  0.3143 -0.1388  0.5411
  575MOL0     C77534   6.078   6.902   1.730 -1.2184 -0.3458  0.3558
  575MOL0    Cl77535   6.230   6.983   1.792  0.2812 -0.1046 -0.2463
  575MOL0     C77536   5.253   6.548   1.237  1.2251  0.5340  0.2808
  575MOL0     C77537   5.230   6.414   1.188  0.2804 -0.0539 -0.2981
  575MOL0     O77538   5.442   6.125   1.227  0.2418  0.1033 -0.2397
  575MOL0     C77539   5.389   5.866   1.178  0.1891  0.3614  0.1228
  575MOL0     C77540   5.360   5.722   1.167  0.3631 -0.1177  0.1319
  575MOL0     N77541   5.498   5.083   1.329 -0.6928  0.3123 -0.0814
  575MOL0     N77542   5.577   5.045   1.236  0.4889  0.1787 -0.1583
  575MOL0     C77543   6.729   4.501   0.734  0.5087 -0.9110  0.6642
  575MOL0     C77544   6.831   4.411   0.761  0.1572  0.1691 -0.3039
  575MOL0     C77545   7.240   4.272   0.842 -0.0621 -0.3169  0.7376
  575MOL0     C77546   7.266   4.211   0.967 -0.5037  0.7924 -0.2024
  575MOL0     C77547   7.388   4.137   0.988  0.1447 -0.3939  0.7094
  575MOL0     C77548   7.488   4.120   0.886 -0.7159 -0.4644  0.2693
  575MOL0     O77549   7.604   4.046   0.872 -0.7993  0.4554  0.4148
  575MOL0     C77550   7.651   3.988   0.991  0.5833  0.5282 -0.5711
  575MOL0     C77551   7.631   3.836   0.987  0.3717  0.6212  1.0472
  575MOL0     C77552   7.735   3.777   0.887 -0.1204  0.6985  0.7201
  575MOL0     C77553   7.745   3.626   0.885  0.4544 -0.2746 -0.0140
  575MOL0     C77554   7.621   3.551   0.851 -0.2255  0.2476 -0.3129
  575MOL0     C77555   7.526   3.511   0.788 -0.7750 -0.5661  0.2196
  575MOL0     C77556   7.463   4.191   0.761 -0.2338 -0.0360 -0.3862
  575MOL0     C77557   7.340   4.252   0.744 -0.2678 -0.3265  0.1385
  575MOL0     H77558   6.988   4.558   1.012  0.3020 -1.2580 -0.1423
  575MOL0     H77559   6.794   4.722   0.988  1.7040 -0.3670  1.4613
  575MOL0     H77560   6.559   4.754   0.971  1.7789  1.9478  0.4744
  575MOL0     H77561   6.618   4.887   0.865 -0.9114 -0.3969 -5.2798
  575MOL0     H77562   6.401   4.878   0.752  0.0876 -1.1514 -0.8714
  575MOL0     H77563   6.370   4.719   0.834 -1.5410  1.6864 -1.3038
  575MOL0     H77564   6.327   4.812   1.045 -0.8973 -1.3940 -1.2556
  575MOL0     H77565   6.400   4.967   1.003 -0.8170  0.1160  0.8624
  575MOL0     H77566   6.207   5.000   0.849  1.9800 -0.3828 -1.0567
  575MOL0     H77567   6.139   4.840   0.906 -1.0583 -0.5104  4.0199
  575MOL0     H77568   6.111   4.938   1.137 -2.9147 -0.2076 -1.2815
  575MOL0     H77569   6.174   5.099   1.081  1.4969 -0.4919  0.8814
  575MOL0     H77570   5.978   5.124   0.927  0.2384  0.5141 -0.6087
  575MOL0     H77571   5.929   4.969   0.972  0.4167  0.9306  0.4737
  575MOL0     H77572   5.917   5.016   1.206  2.1564 -0.1457 -0.5279
  575MOL0     H77573   5.960   5.180   1.175  3.9865 -0.8573 -3.7919
  575MOL0     H77574   5.731   5.072   1.017  2.3036 -1.0890  0.7601
  575MOL0     H77575   5.761   5.236   1.040  3.3476  1.3744  2.6151
  575MOL0     H77576   5.718   5.330   1.294 -1.2824  1.4958 -0.3128
  575MOL0     H77577   5.522   5.244   1.586 -2.8828 -0.2294  1.2424
  575MOL0     H77578   5.522   5.390   1.484 -1.5160  0.6870 -1.5027
  575MOL0     H77579   5.296   5.269   1.592 -3.4585 -2.7510 -1.3203
  575MOL0     H77580   5.310   5.202   1.432  2.8062  0.4448 -1.9922
  575MOL0     H77581   5.340   5.502   1.502 -0.0075 -0.3324  0.5132
  575MOL0     H77582   5.187   5.420   1.470  0.4287 -1.4659  3.0939
  575MOL0     H77583   5.333   5.357   1.245 -3.1542 -0.5132  2.5323
  575MOL0     H77584   5.423   5.491   1.277  0.8119 -0.7809  0.1380
  575MOL0     H77585   5.091   5.707   1.375  0.8744 -1.5799  0.1974
  575MOL0     H77586   5.143   6.063   1.452 -0.1234  0.7078 -2.3400
  575MOL0     H77587   5.005   5.985   1.362 -0.1815  0.7886  0.4486
  575MOL0     H77588   5.078   5.909   1.498  0.1693  2.4715  1.5196
  575MOL0     H77589   5.297   6.258   1.494 -1.6041  1.3376  1.8253
  575MOL0     H77590   5.312   6.498   1.559  1.3042 -0.2014 -0.6851
  575MOL0     H77591   5.495   6.701   1.374  2.8817  1.2904  1.8312
  575MOL0     H77592   5.438   6.869   1.404  1.4077 -0.1077  1.3267
  575MOL0     H77593   5.360   6.778   1.632 -1.0485  0.0907 -1.0248
  575MOL0     H77594   5.475   6.649   1.619 -0.1804 -0.4502 -0.2840
  575MOL0     H77595   5.526   6.958   1.619  3.0601  1.4883 -0.4125
  575MOL0     H77596   5.647   6.840   1.567  0.7780  1.3837 -0.0925
  575MOL0     H77597   5.515   6.846   1.847  0.3971  1.5351  1.3312
  575MOL0     H77598   5.619   6.719   1.788 -1.2928 -0.6442 -0.1828
  575MOL0     H77599   5.744   6.894   1.927  0.5923 -3.2109 -1.1453
  575MOL0     H77600   5.711   7.001   1.800 -1.5022  0.2856  0.8114
  575MOL0     H77601   5.870   6.739   1.799  0.6099  0.0991  1.8636
  575MOL0     H77602   5.853   6.850   1.653  1.2011  1.8005  0.2529
  575MOL0     H77603   5.975   6.887   1.923 -0.8661  0.0430  0.8377
  575MOL0     H77604   5.921   7.031   1.815 -3.6831 -1.2958  1.2285
  575MOL0     H77605   6.066   6.922   1.623  3.1181  1.9911  0.0410
  575MOL0     H77606   6.108   6.797   1.739  3.2986  0.8164  1.8004
  575MOL0     H77607   5.248   6.632   1.167  0.2160  0.1179 -0.1687
  575MOL0     H77608   5.184   6.377   1.098 -1.2560 -5.8064  2.3877
  575MOL0     H77609   5.459   5.904   1.104  1.6360 -1.6518  0.3740
  575MOL0     H77610   5.411   5.662   1.092 -3.0168 -0.0705 -2.4451
  575MOL0     H77611   6.673   4.489   0.642 -0.0376 -1.3767  1.0470
  575MOL0     H77612   6.836   4.320   0.702 -1.5352  0.9604 -1.7648
  575MOL0     H77613   7.206   4.234   1.055  1.1588  0.2656  1.1101
  575MOL0     H77614   7.408   4.094   1.086  2.8193 -0.7127  0.1080
  575MOL0     H77615   7.760   4.001   0.993  0.3951  2.4195  2.4632
  575MOL0     H77616   7.620   4.028   1.087  0.3439 -0.2839 -0.2985
  575MOL0     H77617   7.534   3.807   0.947  1.5223  1.3991 -2.6506
  575MOL0     H77618   7.649   3.788   1.084 -2.3120 -0.9423  0.8577
  575MOL0     H77619   7.835   3.818   0.904  0.9384 -0.5746 -1.9268
  575MOL0     H77620   7.709   3.802   0.784 -0.3934 -2.4037 -0.0841
  575MOL0     H77621   7.785   3.590   0.980 -0.8448 -0.0814  0.6335
  575MOL0     H77622   7.817   3.607   0.805 -0.1654 -0.3320 -0.5747
  575MOL0     H77623   7.443   3.473   0.732  0.9606 -0.7956 -2.3973
  575MOL0     H77624   7.531   4.189   0.676 -0.4800  0.2837 -0.5952
  575MOL0     H77625   7.324   4.292   0.645 -0.9128  0.0037  0.3683
  576MOL0     O77626  10.330   2.733   7.707 -0.7669  0.4532  0.9394
  576MOL0     C77627  10.406   2.700   7.613  0.7095  0.0743 -0.0165
  576MOL0     O77628  10.436   2.789   7.512 -0.2240 -0.0860 -0.0378
  576MOL0     C77629  10.410   2.925   7.531  0.3383 -0.0241  0.1240
  576MOL0     C77630  10.304   2.988   7.476 -0.0326 -0.3665 -0.2990
  576MOL0     C77631  10.279   3.120   7.492  0.4373  0.9654 -0.5469
  576MOL0     C77632  10.367   3.197   7.561 -0.3561 -0.8814 -0.1602
  576MOL0     O77633  10.348   3.334   7.553  0.3347 -0.5394  0.3088
  576MOL0     C77634  10.412   3.412   7.659  0.4750 -0.3230 -0.0608
  576MOL0     C77635  10.342   3.557   7.647  0.2482  0.2592 -1.1385
  576MOL0     C77636  10.431   3.684   7.624 -1.0259 -0.3584  0.9617
  576MOL0     C77637  10.511   3.681   7.489 -0.0577  0.2398 -0.3532
  576MOL0     C77638  10.614   3.796   7.479  0.9721  0.3182 -0.0290
  576MOL0     C77639  10.717   3.778   7.373 -0.2211 -0.2491  0.0313
  576MOL0     C77640  10.644   3.767   7.238  0.5981  0.6687 -0.1432
  576MOL0     C77641  10.740   3.788   7.127  0.5397  0.1650 -0.4671
  576MOL0     N77642  10.650   3.806   7.011 -0.1867 -0.0981  0.5422
  576MOL0     C77643  10.634   3.923   6.943 -0.1765  0.5235  0.3076
  576MOL0     C77644  10.553   3.895   6.838 -0.6346 -0.2761 -0.4196
  576MOL0     C77645  10.506   3.985   6.728 -0.0309  0.2506 -0.2717
  576MOL0     C77646  10.391   4.092   6.759 -0.6514  0.6164 -1.3976
  576MOL0     C77647  10.422   4.197   6.857 -0.4074 -0.8585 -0.0894
  576MOL0     C77648  10.313   4.316   6.865 -0.7340  0.3337  0.9434
  576MOL0     O77649  10.255   4.340   6.734 -0.1669 -0.5264  0.4363
  576MOL0     C77650  10.117   4.358   6.716 -1.1560  1.1460  0.1620
  576MOL0     C77651  10.076   4.409   6.590  0.3004 -0.0955 -1.0397
  576MOL0     C77652   9.940   4.409   6.556  0.2818  0.6374  0.7254
  576MOL0     C77653   9.905   4.461   6.421  0.3105 -0.7068  0.1464
  576MOL0     C77654   9.840   4.357   6.641 -0.3669 -0.4080 -0.9481
  576MOL0     C77655   9.710   4.320   6.592  0.8906 -0.0633 -1.2217
  576MOL0     O77656   9.706   4.203   6.522  0.6871  0.0585  0.1201
  576MOL0     C77657   9.591   4.153   6.468  0.3573  0.2527  0.4219
  576MOL0     C77658   9.618   4.067   6.358 -0.4673 -0.3535  0.6261
  576MOL0     C77659   9.513   4.019   6.276 -0.0689 -0.1681 -0.2418
  576MOL0     C77660   9.383   4.064   6.299 -0.4309  0.2772 -0.5085
  576MOL0     O77661   9.273   4.021   6.236  0.3400 -1.0465 -0.5479
  576MOL0     C77662   9.284   3.971   6.103  0.0152  0.6004 -0.4386
  576MOL0     C77663   9.327   4.066   5.991  0.6459 -0.0589 -0.0994
  576MOL0     C77664   9.234   4.190   5.997 -0.3628  0.3432  0.3172
  576MOL0     C77665   9.078   4.169   6.006 -0.1505 -0.1177  0.4576
  576MOL0     C77666   9.017   4.140   5.869  0.5958  0.4510 -0.1882
  576MOL0     C77667   9.008   3.992   5.833  0.0804 -0.9283  0.0388
  576MOL0     C77668   8.901   3.928   5.922 -0.1650 -0.2588 -0.5245
  576MOL0     C77669   8.860   3.781   5.874 -0.2768  0.8052  0.0054
  576MOL0    Cl77670   8.817   3.664   5.998 -0.0094  0.0009 -0.1524
  576MOL0     C77671   9.362   4.158   6.398 -0.4182  0.2265  0.0619
  576MOL0     C77672   9.462   4.201   6.486  0.5892  1.1133  0.1755
  576MOL0     O77673   9.612   4.391   6.621 -0.2892  0.5137  0.2918
  576MOL0     C77674   9.884   4.328   6.775  0.7014 -1.1891 -1.1024
  576MOL0     C77675  10.021   4.316   6.808  1.0111 -0.6359 -0.1507
  576MOL0     N77676  10.533   3.757   6.842  0.0390  0.2175  0.0731
  576MOL0     N77677  10.585   3.709   6.951 -0.5667 -0.0133  0.1369
  576MOL0     C77678  10.479   3.138   7.623 -1.4160 -0.7139 -0.0466
  576MOL0     C77679  10.496   3.005   7.607  0.9553  0.3516  0.7432
  576MOL0     C77680  10.475   2.564   7.617  0.3527 -0.1742  0.0625
  576MOL0     C77681  10.449   2.474   7.718  0.2871 -0.0914  0.9623
  576MOL0     C77682  10.503   2.345   7.719 -0.4223 -0.3358 -0.0740
  576MOL0     C77683  10.589   2.309   7.620  0.3906  0.7391  0.9223
  576MOL0     O77684  10.647   2.185   7.628 -0.2600 -0.4230  0.3372
  576MOL0     C77685  10.767   2.190   7.702  0.2833 -0.6287  1.1672
  576MOL0     C77686  10.817   2.059   7.705  0.0236 -0.7101 -0.6286
  576MOL0     C77687  10.838   1.981   7.576  0.3209  0.4916 -0.0449
  576MOL0     C77688  10.927   1.860   7.614  0.4083 -0.9823 -0.5380
  576MOL0     C77689  10.856   1.755   7.691  0.4980 -0.1738 -0.0661
  576MOL0     C77690  10.792   1.679   7.769 -0.6987 -0.2623  1.0334
  576MOL0     C77691  10.611   2.396   7.512  0.1804 -0.3899  0.0601
  576MOL0     C77692  10.552   2.524   7.512 -0.4933  0.0890 -0.0824
  576MOL0     H77693  10.241   2.931   7.409 -0.2159  0.2232 -0.6283
  576MOL0     H77694  10.192   3.163   7.443  0.5329  1.9028  0.0661
  576MOL0     H77695  10.391   3.367   7.756 -0.7213  0.7930  0.2263
  576MOL0     H77696  10.517   3.412   7.627  1.2002 -0.7991  2.1498
  576MOL0     H77697  10.265   3.548   7.570  0.6607  0.9427 -1.6430
  576MOL0     H77698  10.285   3.574   7.738  1.3014 -1.2781 -0.1507
  576MOL0     H77699  10.358   3.766   7.632 -1.9877 -1.1394  0.4742
  576MOL0     H77700  10.515   3.690   7.694 -1.1751  2.5498  1.0273
  576MOL0     H77701  10.559   3.585   7.468 -0.8415  0.1696 -1.9465
  576MOL0     H77702  10.437   3.687   7.409 -0.2922 -0.1990 -0.1715
  576MOL0     H77703  10.559   3.889   7.466 -1.7133 -1.0359  1.0038
  576MOL0     H77704  10.650   3.817   7.580  0.6669 -0.3702  0.2311
  576MOL0     H77705  10.776   3.870   7.372  0.3953 -0.6125 -2.0551
  576MOL0     H77706  10.788   3.700   7.404  1.3956  1.6488  1.3294
  576MOL0     H77707  10.609   3.666   7.212  3.1162 -0.3790  0.1945
  576MOL0     H77708  10.561   3.837   7.231 -0.1705 -0.3504 -2.9420
  576MOL0     H77709  10.813   3.708   7.108  2.3807  1.7021 -0.2003
  576MOL0     H77710  10.797   3.878   7.150 -0.1659  0.5070 -0.0392
  576MOL0     H77711  10.677   4.013   6.986  0.4444  1.4198 -2.0507
  576MOL0     H77712  10.587   4.044   6.685  0.4636  0.2894  0.6746
  576MOL0     H77713  10.487   3.916   6.645  3.0228 -0.6445 -0.3667
  576MOL0     H77714  10.303   4.039   6.797  0.6768  0.6179  2.0560
  576MOL0     H77715  10.369   4.133   6.661 -0.2681  1.5197 -1.1133
  576MOL0     H77716  10.512   4.246   6.818 -0.1406 -0.5945  0.8429
  576MOL0     H77717  10.451   4.162   6.956  2.5373  3.3020  0.7594
  576MOL0     H77718  10.357   4.411   6.897  2.8474 -0.9215  0.1633
  576MOL0     H77719  10.240   4.291   6.943 -1.5260  2.7697  1.0937
  576MOL0     H77720  10.154   4.435   6.520 -0.8368  0.0972 -2.2676
  576MOL0     H77721   9.836   4.546   6.428 -2.5316 -2.4798 -3.3189
  576MOL0     H77722   9.990   4.510   6.373  0.1089  1.4035  1.7768
  576MOL0     H77723   9.873   4.382   6.353  3.1249 -1.4860 -0.4067
  576MOL0     H77724   9.720   4.033   6.341 -0.3687 -1.1384  2.5703
  576MOL0     H77725   9.548   3.942   6.207 -2.0025 -1.9940  0.6900
  576MOL0     H77726   9.363   3.895   6.098  2.0265  2.5404  0.0623
  576MOL0     H77727   9.191   3.916   6.084  1.2022 -1.1604 -1.4545
  576MOL0     H77728   9.427   4.109   5.999  0.4652  0.2280  0.6679
  576MOL0     H77729   9.316   4.023   5.891  0.5774 -1.2217  0.3887
  576MOL0     H77730   9.256   4.258   5.914 -1.3048  2.7158  1.8946
  576MOL0     H77731   9.261   4.243   6.089 -2.0103 -0.4825  1.3249
  576MOL0     H77732   9.049   4.098   6.084  1.8831 -2.3622 -0.6842
  576MOL0     H77733   9.015   4.254   6.033 -3.0301 -1.8728 -0.3901
  576MOL0     H77734   9.067   4.201   5.792 -0.0257  0.2125 -0.7929
  576MOL0     H77735   8.912   4.171   5.865 -0.9908 -3.3570  3.9122
  576MOL0     H77736   8.992   3.972   5.727 -0.3933  2.1403 -0.5577
  576MOL0     H77737   9.101   3.936   5.849 -1.3198 -3.3571  0.1702
  576MOL0     H77738   8.823   4.005   5.922 -0.1920 -0.2708 -1.5468
  576MOL0     H77739   8.929   3.914   6.027 -0.6119  0.0188 -0.3643
  576MOL0     H77740   8.939   3.733   5.817 -2.8534 -0.9195 -2.4092
  576MOL0     H77741   8.771   3.776   5.811 -1.0028  0.9668  0.9825
  576MOL0     H77742   9.261   4.189   6.425 -0.2212  0.3097  0.7192
  576MOL0     H77743   9.437   4.273   6.564 -0.9604 -1.5617  2.3252
  576MOL0     H77744   9.817   4.306   6.857  0.6047  0.0611 -0.8226
  576MOL0     H77745  10.051   4.284   6.907 -0.0991 -0.9446  0.1019
  576MOL0     H77746  10.558   3.200   7.664  0.1557 -1.0833 -2.3205
  576MOL0     H77747  10.578   2.951   7.653 -2.8587 -3.6594  3.6177
  576MOL0     H77748  10.382   2.498   7.800 -1.3709 -3.5523  0.8294
  576MOL0     H77749  10.477   2.284   7.805  2.5440 -0.1423  1.0591
  576MOL0     H77750  10.841   2.243   7.641  1.6948 -1.1455  2.3770
  576MOL0     H77751  10.761   2.234   7.802  0.0959 -0.6550  1.1672
  576MOL0     H77752  10.746   2.009   7.771 -0.6269  1.2712  0.2711
  576MOL0     H77753  10.912   2.067   7.760 -0.6495  0.8407  0.4149
  576MOL0     H77754  10.889   2.041   7.499 -1.6059 -0.0022 -1.7923
  576MOL0     H77755  10.740   1.972   7.529  0.1386  3.9761 -0.6179
  576MOL0     H77756  11.014   1.892   7.671 -1.1690  1.4300  0.6631
  576MOL0     H77757  10.963   1.809   7.524 -0.6133 -2.8908  0.0754
  576MOL0     H77758  10.744   1.606   7.831 -2.5771 -2.0836 -2.3139
  576MOL0     H77759  10.681   2.355   7.440 -0.5631 -2.5361  0.4630
  576MOL0     H77760  10.580   2.592   7.433 -2.3939  1.8422  0.6749
  577MOL0     O77761   1.060   3.533   5.141  0.2749  0.4088  0.3236
  577MOL0     C77762   1.030   3.411   5.140 -0.2821  0.1986  0.7877
  577MOL0     O77763   1.119   3.306   5.128  0.1550 -0.3666  0.1125
  577MOL0     C77764   1.253   3.318   5.109  0.2864 -0.2385 -0.5156
  577MOL0     C77765   1.322   3.236   5.029 -0.4135  0.1134  0.1259
  577MOL0     C77766   1.463   3.230   5.023 -0.2036 -0.0191  0.5296
  577MOL0     C77767   1.531   3.314   5.102 -1.4519 -0.3130  0.5845
  577MOL0     O77768   1.657   3.278   5.125  0.2522  0.1978  0.2027
  577MOL0     C77769   1.758   3.319   5.034 -0.3801  0.3338  0.5958
  577MOL0     C77770   1.901   3.304   5.097 -0.1580  1.4704  0.2373
  577MOL0     C77771   2.010   3.353   5.012  0.7608  0.2919  0.9443
  577MOL0     C77772   2.148   3.360   5.073  0.4473  0.1640 -0.1595
  577MOL0     C77773   2.263   3.370   4.974  0.0546  0.2967  0.5759
  577MOL0     C77774   2.266   3.504   4.901  0.5658 -0.1561 -0.5970
  577MOL0     C77775   2.396   3.555   4.843 -0.0638  0.8878  0.5448
  577MOL0     C77776   2.442   3.457   4.722  0.0141 -0.6602 -0.3178
  577MOL0     N77777   2.588   3.445   4.745 -0.7680 -0.0014  0.2370
  577MOL0     C77778   2.681   3.545   4.726  0.2691  0.4268  0.6674
  577MOL0     C77779   2.806   3.486   4.750 -0.0796 -0.6013  0.2685
  577MOL0     C77780   2.924   3.553   4.689 -0.4033 -0.1530  0.4968
  577MOL0     C77781   3.063   3.493   4.734  0.6135 -0.3816 -0.3690
  577MOL0     C77782   3.086   3.516   4.882  0.4417 -0.5048 -0.5255
  577MOL0     C77783   3.231   3.491   4.917 -0.5148 -0.4306 -0.1179
  577MOL0     O77784   3.319   3.551   4.818  0.3397 -0.0162 -0.5103
  577MOL0     C77785   3.451   3.520   4.825 -0.7080 -0.3016  0.2270
  577MOL0     C77786   3.524   3.596   4.728  0.1554 -0.8443 -0.3692
  577MOL0     C77787   3.667   3.589   4.716  0.4941 -0.3149 -0.0587
  577MOL0     C77788   3.746   3.684   4.618 -0.2939  0.0554 -0.5361
  577MOL0     C77789   3.730   3.503   4.813  0.3699 -0.0876  0.4713
  577MOL0     C77790   3.883   3.492   4.811  0.0219  0.0020 -1.1536
  577MOL0     O77791   3.930   3.389   4.875  0.7061  0.4774 -0.5343
  577MOL0     C77792   4.055   3.338   4.881  0.1301  0.1282 -0.2420
  577MOL0     C77793   4.160   3.369   4.796  0.1995  0.1084 -0.0513
  577MOL0     C77794   4.288   3.303   4.798  0.0187 -0.3203  0.4997
  577MOL0     C77795   4.315   3.221   4.909  0.0364 -0.9066  0.3181
  577MOL0     O77796   4.453   3.187   4.929  0.2374  1.0953 -0.8880
  577MOL0     C77797   4.562   3.236   4.843  0.5429 -0.6688 -0.3662
  577MOL0     C77798   4.582   3.137   4.724  0.4534 -0.1876  0.4919
  577MOL0     C77799   4.708   3.175   4.643  0.8210  0.4709 -0.6181
  577MOL0     C77800   4.763   3.074   4.541  0.1581 -0.1690  0.4244
  577MOL0     C77801   4.867   2.986   4.608 -0.7548  0.7245 -0.4700
  577MOL0     C77802   4.962   2.914   4.516  0.3429 -0.0545 -0.1605
  577MOL0     C77803   4.901   2.788   4.450  0.5757  0.5811  0.9751
  577MOL0     C77804   5.005   2.719   4.368 -1.1439 -0.4658  0.5054
  577MOL0    Cl77805   5.033   2.822   4.223 -0.2117 -0.5269 -0.1847
  577MOL0     C77806   4.212   3.192   4.997  0.9500  1.0036  0.4722
  577MOL0     C77807   4.086   3.252   4.987  0.3794  1.0414 -0.3719
  577MOL0     O77808   3.946   3.594   4.792 -0.4528  0.6608  0.3439
  577MOL0     C77809   3.655   3.412   4.890 -0.6512 -0.8594  0.1470
  577MOL0     C77810   3.515   3.419   4.895 -0.0076  0.7194  0.0659
  577MOL0     N77811   2.786   3.366   4.814 -0.8920  0.2511 -0.2031
  577MOL0     N77812   2.659   3.335   4.803 -0.3957 -0.1666  0.5100
  577MOL0     C77813   1.470   3.404   5.186 -0.0100  0.0823 -0.0638
  577MOL0     C77814   1.331   3.404   5.191 -0.0893 -0.1047  0.0326
  577MOL0     C77815   0.887   3.376   5.131  0.1672 -0.5488 -0.6826
  577MOL0     C77816   0.792   3.474   5.164  0.0624  0.3729  0.7621
  577MOL0     C77817   0.655   3.444   5.162 -0.9204 -0.1093 -0.1732
  577MOL0     C77818   0.614   3.324   5.120 -0.2110  0.5951 -0.2581
  577MOL0     O77819   0.479   3.307   5.127 -0.3081 -0.1021 -0.3249
  577MOL0     C77820   0.427   3.197   5.190 -0.0285 -0.7607 -0.4768
  577MOL0     C77821   0.507   3.165   5.327 -0.2487  0.1095  0.3814
  577MOL0     C77822   0.419   3.071   5.416 -0.5973 -0.6407 -1.1304
  577MOL0     C77823   0.522   3.012   5.516  0.5122 -0.3417  0.2453
  577MOL0     C77824   0.529   3.112   5.626 -0.4575  0.0433  0.1268
  577MOL0     C77825   0.540   3.198   5.715  0.6122 -0.0630 -1.1992
  577MOL0     C77826   0.701   3.219   5.102  0.5572  0.0520  0.2831
  577MOL0     C77827   0.840   3.244   5.105  0.0804 -0.1853 -0.4478
  577MOL0     H77828   1.266   3.162   4.973 -0.1866  0.5148 -0.6442
  577MOL0     H77829   1.507   3.163   4.951 -4.1328 -2.2353 -0.1407
  577MOL0     H77830   1.760   3.265   4.939  2.8155  3.1330 -1.1401
  577MOL0     H77831   1.743   3.427   5.024  1.8186  0.6673  0.4860
  577MOL0     H77832   1.907   3.371   5.183 -4.7412 -1.0876  2.9932
  577MOL0     H77833   1.923   3.200   5.125  1.8252  0.8549 -3.0808
  577MOL0     H77834   2.012   3.290   4.923  0.9918 -0.1410  1.2528
  577MOL0     H77835   1.984   3.457   4.989  0.4747  0.6941  2.9382
  577MOL0     H77836   2.157   3.448   5.137  1.0037  1.4137 -1.8726
  577MOL0     H77837   2.163   3.272   5.136  0.4473 -0.2716 -0.7593
  577MOL0     H77838   2.354   3.367   5.034  0.8753  3.6797 -0.3161
  577MOL0     H77839   2.267   3.285   4.904 -0.1206 -0.3593  1.3490
  577MOL0     H77840   2.192   3.499   4.820  1.7279 -2.0731 -1.6080
  577MOL0     H77841   2.225   3.581   4.966 -1.9221 -0.6848 -1.4357
  577MOL0     H77842   2.382   3.654   4.799 -0.5000  1.6053  2.2023
  577MOL0     H77843   2.467   3.560   4.926  1.1144 -2.1388 -0.1711
  577MOL0     H77844   2.420   3.491   4.621  1.9140  0.8613 -0.2764
  577MOL0     H77845   2.393   3.360   4.734  0.5701 -0.8224  0.8448
  577MOL0     H77846   2.645   3.632   4.672 -1.5864 -0.9334 -0.4240
  577MOL0     H77847   2.914   3.553   4.580 -1.1670  0.3050  0.5643
  577MOL0     H77848   2.912   3.656   4.722 -2.4374  1.0127 -3.3461
  577MOL0     H77849   3.139   3.537   4.668 -0.6616  0.5334 -1.2688
  577MOL0     H77850   3.059   3.385   4.713  1.1570 -0.9761  2.1704
  577MOL0     H77851   3.021   3.459   4.948 -1.4519  1.2849 -0.7374
  577MOL0     H77852   3.067   3.621   4.907  1.7138 -1.0185  3.1780
  577MOL0     H77853   3.264   3.388   4.932 -1.3917 -0.4999  1.6570
  577MOL0     H77854   3.242   3.533   5.018 -2.0349 -0.2862  0.0064
  577MOL0     H77855   3.472   3.674   4.673  0.8617  1.3609  1.9177
  577MOL0     H77856   3.818   3.617   4.570 -1.2730 -2.2567  1.0525
  577MOL0     H77857   3.677   3.728   4.544 -0.8688  1.7735  0.9483
  577MOL0     H77858   3.789   3.760   4.683  0.2048  0.7512 -1.6357
  577MOL0     H77859   4.146   3.447   4.721  2.9653  0.7094 -0.0579
  577MOL0     H77860   4.360   3.349   4.732 -0.8605 -1.5518 -1.4127
  577MOL0     H77861   4.545   3.339   4.809  4.6947 -0.1932 -1.4904
  577MOL0     H77862   4.648   3.237   4.910  0.4679  0.8259 -0.2565
  577MOL0     H77863   4.589   3.031   4.750 -1.2340 -1.0561 -2.1138
  577MOL0     H77864   4.487   3.137   4.669  0.2730  0.2652  0.7985
  577MOL0     H77865   4.783   3.195   4.720  0.6455  1.1774 -0.6254
  577MOL0     H77866   4.688   3.273   4.599 -0.0960  0.5531 -0.0464
  577MOL0     H77867   4.683   3.014   4.497 -0.5714  0.2275  1.1826
  577MOL0     H77868   4.803   3.132   4.458 -1.3559 -0.5699 -0.6089
  577MOL0     H77869   4.808   2.912   4.662 -1.3234  0.7171 -1.0990
  577MOL0     H77870   4.930   3.048   4.672 -2.6314  1.1675  1.0377
  577MOL0     H77871   5.007   2.988   4.449  1.5623  0.4845  1.1978
  577MOL0     H77872   5.045   2.874   4.575  1.4738  1.0317 -0.9652
  577MOL0     H77873   4.811   2.810   4.393  0.0338 -2.9384  0.2465
  577MOL0     H77874   4.862   2.723   4.528 -0.2633  0.3754  0.3950
  577MOL0     H77875   4.987   2.613   4.349 -3.9977  0.1594 -0.8577
  577MOL0     H77876   5.099   2.717   4.424 -0.2951 -3.1618 -0.8477
  577MOL0     H77877   4.225   3.131   5.086  0.4433 -0.9075 -0.7015
  577MOL0     H77878   4.006   3.205   5.043  0.8361 -1.8743 -1.9358
  577MOL0     H77879   3.706   3.334   4.946  0.3750  0.5428  1.2307
  577MOL0     H77880   3.454   3.341   4.939 -0.0863  0.7316 -0.0210
  577MOL0     H77881   1.526   3.461   5.260  0.2940  0.3050 -0.4619
  577MOL0     H77882   1.283   3.473   5.260  2.4006 -0.9563  2.8698
  577MOL0     H77883   0.820   3.578   5.178 -2.7144  1.5178 -1.2937
  577MOL0     H77884   0.581   3.522   5.174  1.2645  2.0801  0.0121
  577MOL0     H77885   0.321   3.217   5.209  0.2865  2.8733 -1.7320
  577MOL0     H77886   0.451   3.108   5.132  0.8850  0.0488 -1.3802
  577MOL0     H77887   0.521   3.265   5.370 -1.7731  0.4057  0.2498
  577MOL0     H77888   0.600   3.113   5.303 -0.4759 -0.1109 -0.0361
  577MOL0     H77889   0.376   2.987   5.361 -0.3187 -0.9938 -0.8227
  577MOL0     H77890   0.340   3.133   5.460  0.2582 -0.9518  0.9963
  577MOL0     H77891   0.623   3.001   5.477  1.6058  1.4842  2.3522
  577MOL0     H77892   0.488   2.920   5.563 -4.4805  2.3523  2.7614
  577MOL0     H77893   0.563   3.268   5.793  1.8110 -0.7682 -0.9024
  577MOL0     H77894   0.672   3.115   5.088 -0.2374  0.3483 -0.3339
  577MOL0     H77895   0.893   3.151   5.090 -2.7798 -1.6596 -2.1384
  578MOL0     O77896   3.699  11.514   4.872 -0.2822 -1.2312  0.8923
  578MOL0     C77897   3.776  11.431   4.823  0.2889  0.3909 -0.0765
  578MOL0     O77898   3.883  11.369   4.884  0.3049  0.2032 -0.1744
  578MOL0     C77899   3.925  11.436   4.997 -0.9787  0.7622 -0.2683
  578MOL0     C77900   3.995  11.550   4.978 -0.2108 -0.0397  0.5392
  578MOL0     C77901   4.060  11.612   5.090 -0.5219  0.3730 -0.3030
  578MOL0     C77902   4.072  11.552   5.220  0.3519  0.6170  0.3518
  578MOL0     O77903   4.136  11.601   5.326  0.4529  0.0276 -0.5235
  578MOL0     C77904   4.221  11.717   5.302  0.8592 -1.0850 -0.1525
  578MOL0     C77905   4.272  11.772   5.435  0.0828 -0.1637  0.5719
  578MOL0     C77906   4.356  11.904   5.403  0.9829  0.6163  0.8411
  578MOL0     C77907   4.403  11.987   5.525  0.1573 -0.7081  0.6342
  578MOL0     C77908   4.486  12.111   5.483 -0.4998  0.2782 -0.5347
  578MOL0     C77909   4.549  12.201   5.596 -0.8932  0.6250  0.1977
  578MOL0     C77910   4.612  12.327   5.549  1.0640  0.7846  0.7078
  578MOL0     C77911   4.503  12.435   5.524 -0.9927 -0.0647  0.0637
  578MOL0     N77912   4.563  12.561   5.470  0.5404 -0.0776 -0.8338
  578MOL0     C77913   4.679  12.605   5.506  0.1109  0.2030  0.3262
  578MOL0     C77914   4.724  12.670   5.392  0.2623  0.1867  0.5061
  578MOL0     C77915   4.857  12.735   5.365 -0.3782 -0.5603  0.1459
  578MOL0     C77916   4.977  12.696   5.455  0.6131  0.3839  0.0447
  578MOL0     C77917   5.035  12.563   5.405  0.3006 -1.0640 -0.1811
  578MOL0     C77918   5.182  12.543   5.425  0.4239  0.6121  0.5092
  578MOL0     O77919   5.219  12.407   5.420 -0.3340 -0.3481 -0.0520
  578MOL0     C77920   5.204  12.330   5.313 -0.5439 -0.6272 -0.2102
  578MOL0     C77921   5.197  12.195   5.345 -0.6427 -0.6105 -0.0147
  578MOL0     C77922   5.177  12.091   5.251  0.5670 -0.7373  0.4193
  578MOL0     C77923   5.194  11.945   5.303 -0.1425  0.2347 -0.2944
  578MOL0     C77924   5.168  12.124   5.112 -0.3110  0.3631 -0.0006
  578MOL0     C77925   5.138  12.019   5.004 -0.7659 -0.2818 -0.0027
  578MOL0     O77926   5.191  12.045   4.882 -0.8202 -0.2192  0.6329
  578MOL0     C77927   5.154  11.979   4.767 -0.4299  0.0548 -0.4392
  578MOL0     C77928   5.245  11.999   4.660  0.2765 -0.3573 -0.6337
  578MOL0     C77929   5.229  11.930   4.538 -0.2782 -0.0003 -0.9072
  578MOL0     C77930   5.114  11.851   4.511  0.3862 -0.2257 -0.0776
  578MOL0     O77931   5.096  11.813   4.385 -0.2452 -0.3742 -0.0620
  578MOL0     C77932   5.202  11.734   4.338  0.0090  0.2382 -0.5661
  578MOL0     C77933   5.129  11.616   4.260 -1.1873 -0.3190  0.0305
  578MOL0     C77934   5.019  11.661   4.163 -0.5125  0.2171  0.6658
  578MOL0     C77935   5.008  11.558   4.051  0.5924 -0.4383  0.5880
  578MOL0     C77936   5.133  11.529   3.966  0.3852 -0.3072 -0.7268
  578MOL0     C77937   5.223  11.643   3.934 -0.0104 -0.1685 -0.8081
  578MOL0     C77938   5.342  11.597   3.851  0.8181  0.4031  1.3118
  578MOL0     C77939   5.383  11.705   3.748 -0.0712 -0.2434  0.4132
  578MOL0    Cl77940   5.522  11.642   3.657  0.4117 -0.1995 -0.0945
  578MOL0     C77941   5.018  11.843   4.615  0.4473 -0.8458 -0.5040
  578MOL0     C77942   5.032  11.905   4.741  0.3913  0.4598 -0.5257
  578MOL0     O77943   5.065  11.923   5.030  0.5010  0.3148  0.2547
  578MOL0     C77944   5.185  12.261   5.084 -0.3385 -0.7771 -0.2747
  578MOL0     C77945   5.208  12.356   5.179 -0.4629 -0.6349 -0.1764
  578MOL0     N77946   4.634  12.680   5.283  0.6933 -0.8703 -1.5701
  578MOL0     N77947   4.543  12.610   5.343  1.0761  0.1963  0.2946
  578MOL0     C77948   3.985  11.442   5.239  0.0052 -1.0606  0.0029
  578MOL0     C77949   3.921  11.385   5.134  0.4565 -0.3344  0.0708
  578MOL0     C77950   3.739  11.374   4.691 -0.8219  0.0662  0.0442
  578MOL0     C77951   3.628  11.421   4.618  0.1579  0.2313  0.0031
  578MOL0     C77952   3.597  11.359   4.491  0.4208 -1.0465 -0.5723
  578MOL0     C77953   3.671  11.251   4.438 -0.8389 -1.9835  0.1326
  578MOL0     O77954   3.630  11.193   4.326  0.5332 -0.6059  0.0368
  578MOL0     C77955   3.487  11.181   4.310  0.2871 -0.0611 -0.0775
  578MOL0     C77956   3.453  11.041   4.258 -0.0954 -0.3396 -0.1750
  578MOL0     C77957   3.482  10.934   4.363  0.2771  0.3187  0.0195
  578MOL0     C77958   3.527  10.806   4.290  0.5189 -1.5560 -0.3095
  578MOL0     C77959   3.425  10.735   4.216 -0.0299  0.6575 -0.2956
  578MOL0     C77960   3.342  10.678   4.153 -0.0857 -0.0943 -0.4477
  578MOL0     C77961   3.782  11.206   4.507  1.2477 -0.3292  0.5466
  578MOL0     C77962   3.809  11.267   4.630  0.0266  0.8459 -0.4662
  578MOL0     H77963   4.002  11.605   4.884  1.0254  2.3394  1.9362
  578MOL0     H77964   4.112  11.706   5.079  0.0074 -0.1007 -2.2568
  578MOL0     H77965   4.308  11.705   5.237  0.0021  2.2201 -2.1577
  578MOL0     H77966   4.164  11.795   5.251 -0.7486 -1.2360  1.3196
  578MOL0     H77967   4.188  11.790   5.502 -0.9901 -1.1544 -0.4564
  578MOL0     H77968   4.340  11.700   5.481  1.7527  0.6991 -0.4175
  578MOL0     H77969   4.446  11.868   5.351 -0.4699 -0.8178 -0.7738
  578MOL0     H77970   4.295  11.965   5.336 -1.7875 -2.6671  0.1216
  578MOL0     H77971   4.312  12.021   5.574  0.2094  1.6596 -0.7537
  578MOL0     H77972   4.464  11.934   5.599  0.8911 -0.4842  0.2114
  578MOL0     H77973   4.568  12.079   5.419  0.6531 -0.7031  1.3532
  578MOL0     H77974   4.426  12.178   5.420  2.0503  0.9728 -2.3740
  578MOL0     H77975   4.471  12.231   5.666 -0.2884 -0.8626  1.5709
  578MOL0     H77976   4.622  12.140   5.650 -1.7232  0.1017  0.7580
  578MOL0     H77977   4.683  12.366   5.622  0.8686  2.1126  0.2097
  578MOL0     H77978   4.671  12.307   5.459 -1.5383  0.1855 -0.9647
  578MOL0     H77979   4.437  12.439   5.611 -0.7434 -0.4191  0.2707
  578MOL0     H77980   4.440  12.385   5.449 -1.2551  0.4216 -0.0419
  578MOL0     H77981   4.734  12.576   5.595 -0.0839 -0.4069  0.2531
  578MOL0     H77982   4.889  12.725   5.260 -1.0016 -0.6526 -0.0370
  578MOL0     H77983   4.849  12.843   5.381 -1.2660  0.0558 -3.5229
  578MOL0     H77984   4.945  12.678   5.558 -0.5933  0.5862 -0.2698
  578MOL0     H77985   5.054  12.772   5.467  1.3170 -0.2413 -0.4742
  578MOL0     H77986   5.004  12.552   5.301 -0.7731 -1.5646  0.1703
  578MOL0     H77987   4.984  12.480   5.456  1.4628 -1.4350  0.4065
  578MOL0     H77988   5.194  12.599   5.518 -0.3183  1.2383  0.2349
  578MOL0     H77989   5.234  12.596   5.344 -0.7908  2.6586  1.0070
  578MOL0     H77990   5.196  12.176   5.452 -3.0686  0.9867  0.3304
  578MOL0     H77991   5.186  11.932   5.412 -1.1935 -2.8349 -0.6533
  578MOL0     H77992   5.115  11.883   5.260 -1.5369  0.4896  1.7588
  578MOL0     H77993   5.281  11.889   5.269 -2.0870 -2.7865 -0.6204
  578MOL0     H77994   5.334  12.056   4.684  0.2240  1.2641 -3.7976
  578MOL0     H77995   5.307  11.924   4.464  0.7785 -1.5740  0.2740
  578MOL0     H77996   5.264  11.785   4.263  2.0155  1.0002  1.4977
  578MOL0     H77997   5.269  11.694   4.414  0.6402  1.7600 -0.2696
  578MOL0     H77998   5.210  11.567   4.206 -2.1292 -1.9537  0.0469
  578MOL0     H77999   5.087  11.544   4.331  1.8017 -0.8235  1.4704
  578MOL0     H78000   5.037  11.761   4.121 -4.0315  1.2457  1.2667
  578MOL0     H78001   4.929  11.671   4.224 -1.2040 -1.2588 -0.0717
  578MOL0     H78002   4.977  11.461   4.091  2.8094 -2.5996 -2.4777
  578MOL0     H78003   4.937  11.583   3.972  1.0484 -2.0989 -0.4057
  578MOL0     H78004   5.101  11.477   3.875 -2.7090 -1.2304  0.7665
  578MOL0     H78005   5.191  11.457   4.024 -2.0377 -2.4941 -0.8113
  578MOL0     H78006   5.167  11.721   3.881  0.0116 -0.1000 -0.7306
  578MOL0     H78007   5.258  11.697   4.022  1.2763  1.5130 -2.2754
  578MOL0     H78008   5.312  11.502   3.805  0.9964  0.5936  0.7934
  578MOL0     H78009   5.430  11.578   3.913  2.6210  0.6635 -0.9949
  578MOL0     H78010   5.408  11.796   3.802 -2.1744  2.0480 -2.1341
  578MOL0     H78011   5.296  11.731   3.687  0.2259  1.7762  0.7717
  578MOL0     H78012   4.930  11.780   4.605 -0.6640  0.5332  0.1941
  578MOL0     H78013   4.956  11.916   4.817 -2.0039  2.1211 -2.9746
  578MOL0     H78014   5.182  12.299   4.982 -0.3164  2.8529  0.9371
  578MOL0     H78015   5.237  12.456   5.148 -0.3547  0.1590  2.2160
  578MOL0     H78016   3.977  11.398   5.339  2.9169 -1.1713  0.2811
  578MOL0     H78017   3.855  11.301   5.154  0.6350 -0.1996  1.2711
  578MOL0     H78018   3.567  11.506   4.647  0.6364  2.0602 -3.7666
  578MOL0     H78019   3.516  11.412   4.441  0.9430  1.3261  0.9136
  578MOL0     H78020   3.436  11.203   4.405  0.5917  4.3259 -0.7118
  578MOL0     H78021   3.459  11.253   4.232 -0.8708 -4.2738 -3.9688
  578MOL0     H78022   3.517  11.025   4.171  0.3761 -3.8558  0.6711
  578MOL0     H78023   3.347  11.051   4.232 -0.5816  2.7342  2.3211
  578MOL0     H78024   3.394  10.909   4.424 -2.4465  0.8924 -3.3677
  578MOL0     H78025   3.565  10.956   4.431  0.8685 -0.1304 -0.5465
  578MOL0     H78026   3.567  10.733   4.361 -0.2745 -1.2635  0.4597
  578MOL0     H78027   3.606  10.830   4.219 -0.3210  2.2123 -0.2268
  578MOL0     H78028   3.258  10.625   4.114  0.2168 -0.6189 -0.4024
  578MOL0     H78029   3.842  11.120   4.478  1.6318  0.4503 -1.0986
  578MOL0     H78030   3.887  11.214   4.685 -1.4189  0.0959  0.9351
  579MOL0     O78031   1.971   0.707   6.031 -0.0268 -0.7864  0.1209
  579MOL0     C78032   1.932   0.791   5.947  0.3381 -0.4252 -0.3657
  579MOL0     O78033   2.004   0.889   5.891  0.1017  0.0491  1.0484
  579MOL0     C78034   2.102   0.946   5.964 -0.4323 -0.7747  0.0695
  579MOL0     C78035   2.077   0.994   6.097  0.9978  0.7473 -0.3789
  579MOL0     C78036   2.172   1.061   6.169 -0.3047 -0.0094  0.0616
  579MOL0     C78037   2.300   1.079   6.115 -0.4771 -0.2432 -0.0397
  579MOL0     O78038   2.411   1.152   6.166 -0.0071  0.6243 -0.8403
  579MOL0     C78039   2.390   1.216   6.289  0.1217 -1.7971  0.7197
  579MOL0     C78040   2.515   1.253   6.351  0.1124  0.8030  0.4167
  579MOL0     C78041   2.590   1.150   6.426  0.6682 -0.1658  0.8483
  579MOL0     C78042   2.735   1.192   6.484  0.2733  0.6990 -0.6358
  579MOL0     C78043   2.738   1.314   6.578 -0.4944  0.4978  0.2195
  579MOL0     C78044   2.877   1.323   6.651 -0.2928  0.1029  0.1733
  579MOL0     C78045   2.896   1.441   6.751  0.5129 -0.8428  0.8130
  579MOL0     C78046   2.789   1.441   6.859  0.8921 -0.0549 -0.2129
  579MOL0     N78047   2.790   1.560   6.947  0.2821  0.0834  0.1085
  579MOL0     C78048   2.804   1.698   6.916  0.1610  0.2696 -0.2088
  579MOL0     C78049   2.819   1.755   7.038 -0.1415 -0.9721  0.1372
  579MOL0     C78050   2.837   1.903   7.062  0.4106 -0.4960  0.4572
  579MOL0     C78051   2.978   1.948   7.053  1.2486 -0.5117  0.4083
  579MOL0     C78052   3.058   1.881   7.159  0.1801 -0.1963  0.2327
  579MOL0     C78053   3.162   1.978   7.212  0.0827 -0.0383  0.3389
  579MOL0     O78054   3.264   1.992   7.114 -0.0211 -0.2174  0.3241
  579MOL0     C78055   3.383   1.994   7.171  0.2120  0.0022 -0.7593
  579MOL0     C78056   3.442   1.885   7.234 -0.5492 -1.2600 -0.0464
  579MOL0     C78057   3.574   1.889   7.280  0.4380  0.2166  0.9461
  579MOL0     C78058   3.634   1.764   7.325  0.0207  0.3512 -0.2039
  579MOL0     C78059   3.656   2.001   7.258 -0.3017 -1.2040  0.5000
  579MOL0     C78060   3.797   2.002   7.301  0.1824  0.3178  0.4461
  579MOL0     O78061   3.828   2.056   7.425  0.4210  0.0955  0.6354
  579MOL0     C78062   3.961   2.098   7.459 -0.0381 -0.1372  0.1567
  579MOL0     C78063   4.070   2.015   7.486  0.4106 -0.4061  0.0810
  579MOL0     C78064   4.200   2.075   7.511 -1.1861 -0.0167  0.6546
  579MOL0     C78065   4.234   2.209   7.482  0.4949 -0.2688  0.3264
  579MOL0     O78066   4.355   2.270   7.479 -0.2444  0.5148 -0.1173
  579MOL0     C78067   4.475   2.183   7.495  0.0501 -0.6827  0.0608
  579MOL0     C78068   4.602   2.255   7.459 -0.2466 -0.0535 -0.1504
  579MOL0     C78069   4.727   2.165   7.491 -0.1170  0.0602  0.2703
  579MOL0     C78070   4.852   2.212   7.413  0.3308 -0.0282  0.1540
  579MOL0     C78071   4.955   2.100   7.418  0.4373  0.1634  0.2427
  579MOL0     C78072   5.066   2.109   7.325  0.2276 -0.1841 -0.9807
  579MOL0     C78073   5.160   1.982   7.354  0.3705 -0.0644  0.2128
  579MOL0     C78074   5.287   1.994   7.283 -1.4073 -0.0636 -0.9797
  579MOL0    Cl78075   5.312   1.854   7.171 -0.4421 -0.1172 -0.2515
  579MOL0     C78076   4.120   2.289   7.442 -0.1527 -0.2465  0.7096
  579MOL0     C78077   3.987   2.238   7.444  0.2572 -0.7829  0.9106
  579MOL0     O78078   3.884   1.952   7.228  0.2410  0.7316 -0.8043
  579MOL0     C78079   3.584   2.113   7.217  0.1666 -0.8214  1.3881
  579MOL0     C78080   3.456   2.111   7.166  0.4295  0.4309 -0.1753
  579MOL0     N78081   2.812   1.662   7.141  0.1966  0.2048 -0.5064
  579MOL0     N78082   2.785   1.547   7.090 -0.4798  0.0014  0.4621
  579MOL0     C78083   2.328   1.025   5.999  0.6153  0.3724  0.1365
  579MOL0     C78084   2.232   0.967   5.923 -0.2419 -0.3355  0.4325
  579MOL0     C78085   1.795   0.764   5.896 -0.8072  0.5032 -0.7251
  579MOL0     C78086   1.744   0.835   5.792  0.1157  0.0606  1.4741
  579MOL0     C78087   1.617   0.819   5.739  1.5255  0.3067  0.8114
  579MOL0     C78088   1.541   0.715   5.801 -0.1062  0.0912  0.7648
  579MOL0     O78089   1.418   0.687   5.753 -0.2151 -0.8257 -0.1111
  579MOL0     C78090   1.306   0.775   5.780 -0.7381 -0.3393  0.5504
  579MOL0     C78091   1.218   0.733   5.903 -0.2184 -0.1036 -0.1867
  579MOL0     C78092   1.162   0.602   5.874 -1.2312  0.0874 -0.2378
  579MOL0     C78093   1.095   0.532   6.002  0.5242 -0.7123  0.4307
  579MOL0     C78094   0.993   0.620   6.069  0.3468  1.2409 -0.3097
  579MOL0     C78095   0.903   0.682   6.123 -0.2994 -0.5002  0.0793
  579MOL0     C78096   1.591   0.645   5.914 -0.1454 -0.0406 -0.7268
  579MOL0     C78097   1.708   0.675   5.963 -0.1061 -0.1847 -0.1397
  579MOL0     H78098   1.980   0.972   6.142  1.0194  2.1835  0.4322
  579MOL0     H78099   2.151   1.108   6.264 -1.5337  0.1625 -0.2851
  579MOL0     H78100   2.326   1.300   6.261 -2.6899 -4.6410 -2.3717
  579MOL0     H78101   2.332   1.166   6.367 -0.5153  0.3766  1.6972
  579MOL0     H78102   2.576   1.292   6.269 -1.7491 -0.4676 -1.6701
  579MOL0     H78103   2.489   1.343   6.408 -2.0849 -0.1944  1.0879
  579MOL0     H78104   2.516   1.125   6.503  0.2514 -1.5422  0.0423
  579MOL0     H78105   2.600   1.070   6.352 -2.0795 -0.2267  0.4332
  579MOL0     H78106   2.789   1.106   6.524 -3.1408 -1.5416 -0.4427
  579MOL0     H78107   2.789   1.229   6.396 -0.8533  0.5117 -1.4151
  579MOL0     H78108   2.725   1.409   6.525  4.1791  1.0885 -0.2784
  579MOL0     H78109   2.656   1.303   6.649 -0.4570 -0.0834  0.1807
  579MOL0     H78110   2.892   1.229   6.705 -5.0305  0.1910  2.1306
  579MOL0     H78111   2.950   1.350   6.574  0.6897 -1.0354  0.6784
  579MOL0     H78112   3.000   1.433   6.783  1.4262  2.0038 -1.1517
  579MOL0     H78113   2.878   1.535   6.699  1.8987 -0.7437  0.4977
  579MOL0     H78114   2.797   1.349   6.918  0.9461  1.3695  2.1129
  579MOL0     H78115   2.687   1.437   6.820  0.8830  1.3536 -0.3625
  579MOL0     H78116   2.804   1.748   6.820  0.5951  0.5229 -0.0811
  579MOL0     H78117   2.792   1.964   6.984 -0.0233  0.2948  1.3026
  579MOL0     H78118   2.797   1.934   7.159  0.5216  0.6341  0.1500
  579MOL0     H78119   2.980   2.056   7.069  2.1234 -0.3523 -0.6833
  579MOL0     H78120   3.017   1.934   6.952 -0.1027 -0.1766 -0.1821
  579MOL0     H78121   3.108   1.796   7.112  0.2895  1.3484 -2.6785
  579MOL0     H78122   2.986   1.850   7.235  0.6949 -0.6422  0.5389
  579MOL0     H78123   3.203   1.946   7.308 -0.6671 -3.5835 -0.4031
  579MOL0     H78124   3.121   2.076   7.240  0.8571  0.5007 -0.3505
  579MOL0     H78125   3.388   1.793   7.256  0.7716 -2.2066 -0.6436
  579MOL0     H78126   3.719   1.790   7.389 -0.1202  0.9858 -0.2711
  579MOL0     H78127   3.563   1.708   7.386  0.4011  3.2185  3.1633
  579MOL0     H78128   3.672   1.717   7.234  2.5358  1.3026  0.2573
  579MOL0     H78129   4.066   1.907   7.500  1.7067 -0.1794  2.8907
  579MOL0     H78130   4.284   2.013   7.540 -1.1300  0.8511  2.4775
  579MOL0     H78131   4.502   2.158   7.598  1.4381 -0.6850 -0.2775
  579MOL0     H78132   4.471   2.088   7.440 -1.9952 -0.8500  0.4368
  579MOL0     H78133   4.599   2.274   7.351 -1.1329  0.6135 -0.0165
  579MOL0     H78134   4.603   2.347   7.519  0.1752  0.7098 -1.2868
  579MOL0     H78135   4.700   2.062   7.468  1.2621 -0.4834  0.9174
  579MOL0     H78136   4.753   2.163   7.598  1.2007  3.5398  0.1354
  579MOL0     H78137   4.817   2.211   7.309 -2.8336 -3.4591  1.0502
  579MOL0     H78138   4.894   2.308   7.445  2.7955 -1.4700  1.6017
  579MOL0     H78139   4.909   2.006   7.389  0.6793  0.9423 -3.0700
  579MOL0     H78140   4.985   2.094   7.523 -1.7020  0.4664  0.9272
  579MOL0     H78141   5.035   2.100   7.220 -1.4182 -2.8057 -0.3712
  579MOL0     H78142   5.123   2.199   7.352  2.0699 -1.7507  0.7280
  579MOL0     H78143   5.110   1.894   7.312  2.7175 -0.3023 -2.3513
  579MOL0     H78144   5.176   1.979   7.462 -2.1414  0.9897  0.6885
  579MOL0     H78145   5.371   1.975   7.352 -0.4440  0.1028 -2.0782
  579MOL0     H78146   5.307   2.094   7.244 -0.0002  0.6121  1.2532
  579MOL0     H78147   4.142   2.394   7.422 -1.9841 -0.1793 -1.3795
  579MOL0     H78148   3.898   2.296   7.421  1.2692  0.7874  0.8370
  579MOL0     H78149   3.631   2.211   7.213 -1.5654  0.0131  0.4098
  579MOL0     H78150   3.407   2.198   7.124 -4.5897 -2.3586 -0.9097
  579MOL0     H78151   2.426   1.050   5.959  1.4825 -2.6283  0.2106
  579MOL0     H78152   2.260   0.930   5.825 -1.7913 -1.2402  0.2971
  579MOL0     H78153   1.806   0.912   5.748  0.3395 -1.4272 -1.0078
  579MOL0     H78154   1.562   0.876   5.665 -1.5055 -1.4793  1.5226
  579MOL0     H78155   1.346   0.874   5.802 -4.0402  1.1158  0.5766
  579MOL0     H78156   1.245   0.786   5.690  0.9417 -0.0846 -0.6006
  579MOL0     H78157   1.147   0.816   5.916  0.1580  2.1277 -7.5948
  579MOL0     H78158   1.279   0.734   5.994  0.3872  2.2049 -0.5401
  579MOL0     H78159   1.244   0.531   5.861 -0.8419  0.8454 -2.3995
  579MOL0     H78160   1.089   0.613   5.793 -1.1561 -0.0534 -0.3255
  579MOL0     H78161   1.181   0.508   6.065  0.8410  1.2733  0.8179
  579MOL0     H78162   1.035   0.442   5.984 -1.6921 -0.6078  5.6181
  579MOL0     H78163   0.820   0.736   6.165 -0.8046  0.1960 -1.7290
  579MOL0     H78164   1.534   0.561   5.952 -1.2371  1.7489  1.8596
  579MOL0     H78165   1.737   0.620   6.051 -1.7574 -2.6535 -1.0393
  580MOL0     O78166   6.150  11.143   0.131  0.4369 -0.5510  0.2154
  580MOL0     C78167   6.220  11.160   0.029  0.0129 -0.2102  0.1856
  580MOL0     O78168   6.167  11.217  -0.087  0.2222  0.9685  0.1218
  580MOL0     C78169   6.031  11.206  -0.116  0.2487  0.6938 -0.2018
  580MOL0     C78170   5.955  11.091  -0.089 -0.7844 -0.5901 -0.2418
  580MOL0     C78171   5.823  11.081  -0.121  0.2205  0.1391  0.5769
  580MOL0     C78172   5.758  11.189  -0.179 -0.7571  0.5657  1.1289
  580MOL0     O78173   5.637  11.173  -0.241  0.3037 -0.2997 -0.3965
  580MOL0     C78174   5.525  11.204  -0.163 -0.1981  1.5270 -0.4758
  580MOL0     C78175   5.456  11.081  -0.095  0.0570 -0.6734 -0.2332
  580MOL0     C78176   5.512  11.027   0.041  0.1823  0.4606  1.0154
  580MOL0     C78177   5.583  11.123   0.135 -0.0897 -0.1474 -0.2656
  580MOL0     C78178   5.641  11.045   0.255  0.5999  1.1118 -1.4741
  580MOL0     C78179   5.795  11.000   0.236 -0.0142  0.5278 -0.7577
  580MOL0     C78180   5.851  10.945   0.371  0.6777 -0.5363  0.4859
  580MOL0     C78181   5.903  11.070   0.445  0.4725 -1.0116  0.2072
  580MOL0     N78182   5.942  11.050   0.589 -0.4151 -0.4628  0.5531
  580MOL0     C78183   5.847  11.027   0.681 -0.3664  0.9580 -0.5447
  580MOL0     C78184   5.911  11.033   0.806  0.1692 -0.7205 -0.2319
  580MOL0     C78185   5.864  11.006   0.942 -0.3532 -0.6293 -0.2796
  580MOL0     C78186   5.936  10.885   1.013 -0.7668  0.2054 -0.4040
  580MOL0     C78187   5.945  10.754   0.938 -0.3057  0.9408  1.2490
  580MOL0     C78188   5.963  10.632   1.032 -0.7436 -0.1212 -0.6728
  580MOL0     O78189   6.088  10.654   1.101  0.4955 -0.4329  0.9432
  580MOL0     C78190   6.129  10.552   1.183 -0.1879  0.1656  0.0850
  580MOL0     C78191   6.079  10.420   1.205  0.2612  0.1454 -0.0657
  580MOL0     C78192   6.139  10.334   1.298 -0.4814 -0.8306  0.8443
  580MOL0     C78193   6.064  10.201   1.321 -0.4057 -0.6899  0.0513
  580MOL0     C78194   6.261  10.378   1.367 -0.3332  0.7969  0.2385
  580MOL0     C78195   6.334  10.307   1.471 -0.3515 -0.0531  0.1465
  580MOL0     O78196   6.268  10.205   1.533 -0.2401  0.6140  0.1209
  580MOL0     C78197   6.350  10.102   1.568  0.7596 -0.1126  0.6353
  580MOL0     C78198   6.326  10.041   1.695  0.2203  0.6690 -0.3551
  580MOL0     C78199   6.384   9.918   1.727 -0.2749 -0.3165 -0.1048
  580MOL0     C78200   6.465   9.855   1.626  0.5026 -0.4191  0.1529
  580MOL0     O78201   6.511   9.729   1.636  0.7524  0.2100 -0.2995
  580MOL0     C78202   6.493   9.650   1.758 -0.9467 -1.5369 -0.2674
  580MOL0     C78203   6.604   9.551   1.754  0.0467 -0.2842 -0.2664
  580MOL0     C78204   6.635   9.483   1.632  0.4953  0.0522 -0.1236
  580MOL0     C78205   6.744   9.381   1.655  0.3620 -0.3065  0.6022
  580MOL0     C78206   6.801   9.335   1.517  0.0884 -0.2363  0.2515
  580MOL0     C78207   6.926   9.245   1.533 -0.0731  0.9307  0.0173
  580MOL0     C78208   6.913   9.112   1.629 -0.0768  0.0730 -0.6197
  580MOL0     C78209   7.028   9.008   1.614  0.2906  0.0345 -0.6202
  580MOL0    Cl78210   7.045   8.958   1.455 -0.2425  0.6518  0.1332
  580MOL0     C78211   6.501   9.922   1.512  0.5141 -0.3801  0.6416
  580MOL0     C78212   6.449  10.047   1.480  0.2312 -0.2870  0.3436
  580MOL0     O78213   6.460  10.323   1.483  0.2287  0.2854  1.0752
  580MOL0     C78214   6.315  10.499   1.329 -0.1452 -0.3520 -0.0954
  580MOL0     C78215   6.252  10.590   1.239  0.1447 -0.4226  0.3036
  580MOL0     N78216   6.044  11.069   0.783 -0.4221  0.2971  0.1269
  580MOL0     N78217   6.057  11.088   0.656  0.1503  0.0247 -0.3143
  580MOL0     C78218   5.828  11.307  -0.206  0.7515  0.1182  0.5043
  580MOL0     C78219   5.970  11.314  -0.179  0.2089 -0.6527 -1.0040
  580MOL0     C78220   6.362  11.161   0.044 -0.3062  1.3095 -0.0140
  580MOL0     C78221   6.423  11.104   0.160  0.6025 -0.3004  0.1753
  580MOL0     C78222   6.561  11.125   0.183 -0.2278  0.4625  0.3481
  580MOL0     C78223   6.647  11.179   0.090  0.0659 -0.5807 -0.3798
  580MOL0     O78224   6.772  11.205   0.131  0.1898  0.2314 -0.3234
  580MOL0     C78225   6.882  11.187   0.046 -0.8553  0.1580  0.5027
  580MOL0     C78226   6.915  11.329  -0.016  0.0548  0.0215 -0.8457
  580MOL0     C78227   7.031  11.386   0.076 -0.3885 -0.0532  0.4971
  580MOL0     C78228   7.081  11.519   0.016 -0.3541  0.9864 -0.2872
  580MOL0     C78229   7.162  11.582   0.119  0.4202 -0.0967  0.2117
  580MOL0     C78230   7.228  11.636   0.202 -0.3288 -0.8382 -0.2422
  580MOL0     C78231   6.588  11.236  -0.027 -0.4003  0.5985 -0.4838
  580MOL0     C78232   6.445  11.225  -0.055 -0.3626 -0.2274  0.4504
  580MOL0     H78233   6.006  11.014  -0.032 -0.0217  0.2919  0.2727
  580MOL0     H78234   5.768  10.992  -0.094  1.9489 -0.5224  2.1565
  580MOL0     H78235   5.559  11.275  -0.086  0.6969  0.8163 -0.1956
  580MOL0     H78236   5.450  11.249  -0.228  2.2693 -0.5083 -5.1981
  580MOL0     H78237   5.352  11.113  -0.078  0.3937  1.9517 -2.4536
  580MOL0     H78238   5.435  10.993  -0.157 -2.9857 -1.6730  1.9501
  580MOL0     H78239   5.429  10.978   0.092 -0.6248  0.7914  0.0531
  580MOL0     H78240   5.587  10.951   0.015  0.1811  1.1906 -1.3307
  580MOL0     H78241   5.666  11.184   0.100  0.4322 -0.8469 -0.2749
  580MOL0     H78242   5.507  11.197   0.160  0.3984  1.6033 -3.5389
  580MOL0     H78243   5.623  11.084   0.356 -0.7478 -1.2647 -0.6940
  580MOL0     H78244   5.579  10.955   0.269  0.8204  1.2291  0.5615
  580MOL0     H78245   5.806  10.917   0.166  2.0140 -1.3499  1.5736
  580MOL0     H78246   5.853  11.086   0.203  2.5314 -1.0914 -0.8078
  580MOL0     H78247   5.770  10.897   0.427  0.9764 -0.8453  0.6583
  580MOL0     H78248   5.932  10.872   0.358  0.8286 -0.5450  1.3914
  580MOL0     H78249   5.832  11.152   0.437  1.4505 -0.2988 -2.3117
  580MOL0     H78250   5.994  11.103   0.393  2.4162 -1.1531  3.2500
  580MOL0     H78251   5.742  11.009   0.659  0.8684 -3.0859 -4.6736
  580MOL0     H78252   5.877  11.099   0.999 -2.4171 -1.0314  0.9484
  580MOL0     H78253   5.756  10.990   0.945 -0.6338  0.5256 -2.1984
  580MOL0     H78254   5.893  10.880   1.114  2.3754  3.0982  1.2755
  580MOL0     H78255   6.041  10.911   1.025  0.0438 -2.5732 -0.7530
  580MOL0     H78256   6.029  10.778   0.872 -0.9409 -0.2763 -0.0568
  580MOL0     H78257   5.852  10.743   0.881 -0.6087  1.1782  1.6900
  580MOL0     H78258   5.955  10.539   0.975  1.6574  0.3285 -1.9092
  580MOL0     H78259   5.877  10.635   1.099 -2.3126 -1.7828 -2.5201
  580MOL0     H78260   5.987  10.386   1.158  1.2860 -1.7046 -0.8291
  580MOL0     H78261   6.150  10.133   1.315 -0.4848 -0.7462 -0.5361
  580MOL0     H78262   6.032  10.188   1.424 -0.9175 -1.5161 -0.2040
  580MOL0     H78263   5.984  10.178   1.250  1.7429  1.2188 -3.3199
  580MOL0     H78264   6.265  10.086   1.772  0.1425 -0.1098  0.0541
  580MOL0     H78265   6.364   9.880   1.826  3.6602 -3.9755 -0.4726
  580MOL0     H78266   6.485   9.707   1.851  1.5008  0.6258 -1.2761
  580MOL0     H78267   6.391   9.612   1.743 -1.0790 -1.3920  0.2394
  580MOL0     H78268   6.697   9.603   1.779  0.6323 -0.4356 -2.0107
  580MOL0     H78269   6.595   9.470   1.826  2.1685 -1.0587 -0.8183
  580MOL0     H78270   6.671   9.555   1.559  0.0513  0.8647  0.4355
  580MOL0     H78271   6.551   9.437   1.580  1.0677  0.8212 -1.7938
  580MOL0     H78272   6.829   9.433   1.700  1.2341 -1.5257  0.3872
  580MOL0     H78273   6.707   9.303   1.721 -1.3762  0.1043  0.1876
  580MOL0     H78274   6.835   9.421   1.458 -1.6722 -1.2552 -2.4021
  580MOL0     H78275   6.724   9.296   1.450 -0.1357  1.1430 -0.3448
  580MOL0     H78276   6.954   9.202   1.436 -1.1095 -1.0947  0.5598
  580MOL0     H78277   7.013   9.301   1.570 -0.0506  0.7117  0.2990
  580MOL0     H78278   6.820   9.055   1.623  0.3218 -0.5050 -1.4391
  580MOL0     H78279   6.922   9.155   1.729 -2.2134  1.8672 -1.1070
  580MOL0     H78280   7.003   8.922   1.677  1.7078 -1.0458 -1.4675
  580MOL0     H78281   7.121   9.046   1.657  1.2380  1.1044 -3.3996
  580MOL0     H78282   6.575   9.874   1.449  2.6936  1.9262  1.2980
  580MOL0     H78283   6.476  10.094   1.386  0.7273  1.8575  1.4795
  580MOL0     H78284   6.409  10.532   1.371  0.5139 -0.4595 -1.4065
  580MOL0     H78285   6.285  10.691   1.219 -2.9695  0.9607  1.5483
  580MOL0     H78286   5.779  11.382  -0.267  2.0933 -0.9686 -2.0908
  580MOL0     H78287   6.032  11.401  -0.202  0.5521  0.0225  1.9853
  580MOL0     H78288   6.362  11.046   0.229 -2.1424  2.2639  0.1011
  580MOL0     H78289   6.612  11.096   0.274  1.8890  0.6841 -0.7017
  580MOL0     H78290   6.962  11.144   0.107  0.5316  2.5262  0.4536
  580MOL0     H78291   6.870  11.109  -0.030  2.1089 -0.3470  0.4369
  580MOL0     H78292   6.831  11.399  -0.017  0.1787  0.2277  0.7328
  580MOL0     H78293   6.952  11.308  -0.117 -0.0757  2.8796 -1.5732
  580MOL0     H78294   7.118  11.322   0.092 -1.2262 -2.5566 -3.5372
  580MOL0     H78295   6.995  11.406   0.177 -1.8049  2.6602 -0.4368
  580MOL0     H78296   7.002  11.589  -0.012  1.7644  3.9440  0.6502
  580MOL0     H78297   7.141  11.525  -0.075 -0.7824  4.3412 -0.4784
  580MOL0     H78298   7.293  11.683   0.273 -1.3607 -0.4435  0.4698
  580MOL0     H78299   6.647  11.296  -0.096  1.5584 -0.7538 -0.0872
  580MOL0     H78300   6.403  11.272  -0.143  1.7923  1.2879  0.1548
  581MOL0     O78301   4.884   7.358   6.914 -0.3078 -0.4150 -0.2060
  581MOL0     C78302   4.994   7.300   6.911 -0.0496  1.0295  0.0441
  581MOL0     O78303   5.060   7.262   6.796  0.3424 -0.6527  1.6654
  581MOL0     C78304   5.061   7.340   6.679  0.0228  0.5319  0.5358
  581MOL0     C78305   5.034   7.479   6.678 -1.0111  0.4536 -0.1897
  581MOL0     C78306   5.026   7.545   6.564  1.3860  0.4849 -0.0499
  581MOL0     C78307   5.057   7.489   6.431 -0.6863 -0.0375 -1.2337
  581MOL0     O78308   5.052   7.555   6.313  0.0339 -0.0424  0.2234
  581MOL0     C78309   4.959   7.661   6.315  0.6366  0.1024  1.0524
  581MOL0     C78310   4.882   7.684   6.186 -0.2422 -0.2881  0.6292
  581MOL0     C78311   4.811   7.557   6.139 -0.1747  0.1227  0.2486
  581MOL0     C78312   4.715   7.581   6.023 -0.2329  0.2914  0.0418
  581MOL0     C78313   4.566   7.581   6.068  0.4060 -0.2977 -0.4279
  581MOL0     C78314   4.473   7.639   5.970  0.5933  0.4733  0.4132
  581MOL0     C78315   4.331   7.627   6.026  0.0926 -0.5916  0.7100
  581MOL0     C78316   4.262   7.754   5.964  0.2624  0.6901 -0.3438
  581MOL0     N78317   4.263   7.752   5.815 -0.0848  0.0590 -1.0209
  581MOL0     C78318   4.178   7.676   5.737 -0.3688 -1.3497  0.6497
  581MOL0     C78319   4.185   7.735   5.616  0.2411 -0.5395  0.8045
  581MOL0     C78320   4.114   7.701   5.489 -0.2262  0.1914 -0.4744
  581MOL0     C78321   4.187   7.594   5.412  0.0053  0.4528  0.7235
  581MOL0     C78322   4.322   7.646   5.367 -0.3223  0.3006  0.4679
  581MOL0     C78323   4.347   7.592   5.226  0.1382 -0.4241  0.5921
  581MOL0     O78324   4.494   7.591   5.213  0.0620 -0.1098  0.0727
  581MOL0     C78325   4.576   7.477   5.233  1.0270  0.4409  0.5173
  581MOL0     C78326   4.709   7.489   5.195  0.0901 -0.0771  0.0796
  581MOL0     C78327   4.790   7.376   5.194  0.1640 -0.2846 -0.0811
  581MOL0     C78328   4.936   7.388   5.130  1.3680  0.2863 -0.1943
  581MOL0     C78329   4.752   7.250   5.243  0.1081 -0.7565 -1.3401
  581MOL0     C78330   4.837   7.131   5.241 -0.2905 -0.3366  0.3304
  581MOL0     O78331   4.775   7.015   5.238 -0.2760 -0.3700  0.0380
  581MOL0     C78332   4.842   6.901   5.213  0.8416  0.1720  0.9073
  581MOL0     C78333   4.906   6.838   5.314 -0.9599  0.4868 -0.3873
  581MOL0     C78334   4.967   6.715   5.300 -0.0712 -1.0573 -0.4081
  581MOL0     C78335   4.962   6.655   5.180 -0.4059 -0.2464  0.6552
  581MOL0     O78336   5.019   6.531   5.157  0.1662  0.2028  0.2904
  581MOL0     C78337   5.159   6.502   5.203  0.5484  0.8879  0.9102
  581MOL0     C78338   5.229   6.434   5.081 -1.1497 -0.7312  0.4649
  581MOL0     C78339   5.247   6.511   4.951  0.3219  0.0171 -0.1183
  581MOL0     C78340   5.381   6.500   4.880  0.3992  0.6524 -0.3029
  581MOL0     C78341   5.418   6.366   4.828  0.5408  0.1071 -0.3869
  581MOL0     C78342   5.540   6.312   4.901 -0.0154 -0.6041  0.4316
  581MOL0     C78343   5.582   6.180   4.841 -0.3484 -0.4091 -0.3664
  581MOL0     C78344   5.675   6.098   4.933 -0.6443 -0.7364  0.6330
  581MOL0    Cl78345   5.578   5.994   5.036 -0.5563  0.1169 -0.4960
  581MOL0     C78346   4.902   6.726   5.066 -0.9771  0.5218 -0.5992
  581MOL0     C78347   4.851   6.857   5.081  0.4989  0.1084 -1.1098
  581MOL0     O78348   4.961   7.143   5.251 -0.3165 -0.5451 -0.7615
  581MOL0     C78349   4.626   7.243   5.294  0.5649  0.8960  0.1263
  581MOL0     C78350   4.534   7.345   5.284  1.0229 -0.1504  0.6080
  581MOL0     N78351   4.271   7.840   5.621 -0.5983  0.8433 -0.7803
  581MOL0     N78352   4.316   7.846   5.740 -0.0784 -0.8237 -0.1680
  581MOL0     C78353   5.083   7.357   6.429  0.5794  0.4797 -0.4209
  581MOL0     C78354   5.088   7.284   6.548 -0.2812 -0.0413 -0.5915
  581MOL0     C78355   5.055   7.255   7.039 -0.4665  0.5933 -0.4246
  581MOL0     C78356   5.045   7.317   7.161  0.5224 -1.4014 -0.0639
  581MOL0     C78357   5.110   7.257   7.271 -1.6552 -0.1365 -0.8961
  581MOL0     C78358   5.179   7.134   7.277  0.6448  0.0356  0.1461
  581MOL0     O78359   5.237   7.085   7.395 -0.2965  0.0425  0.1774
  581MOL0     C78360   5.255   7.173   7.506 -0.6194 -0.6912 -0.0320
  581MOL0     C78361   5.355   7.106   7.600  0.0583  0.0734 -0.1102
  581MOL0     C78362   5.500   7.102   7.555 -0.4904 -1.3601  0.6885
  581MOL0     C78363   5.598   7.024   7.642 -0.2115  0.2409  0.1773
  581MOL0     C78364   5.570   6.881   7.635 -0.2308 -1.1036  0.2030
  581MOL0     C78365   5.542   6.763   7.628  0.0807 -1.0001  0.5355
  581MOL0     C78366   5.190   7.073   7.152 -0.0106  1.4412 -0.0495
  581MOL0     C78367   5.132   7.138   7.031 -0.3638  0.2164 -0.7497
  581MOL0     H78368   5.017   7.534   6.770  2.6204 -0.2627  1.0717
  581MOL0     H78369   5.012   7.651   6.579  1.9537  0.4387  0.8953
  581MOL0     H78370   4.879   7.642   6.388  1.0429  0.3917  1.5765
  581MOL0     H78371   5.006   7.756   6.343  1.9922 -0.6040  1.2493
  581MOL0     H78372   4.814   7.769   6.196 -1.2311 -0.5698 -2.7219
  581MOL0     H78373   4.948   7.713   6.104 -1.3548  2.3853  0.6030
  581MOL0     H78374   4.888   7.489   6.102 -0.6056  0.8352 -2.0891
  581MOL0     H78375   4.765   7.500   6.221 -1.0772  0.8848  0.2993
  581MOL0     H78376   4.732   7.681   5.985  4.0813  0.1574  1.1296
  581MOL0     H78377   4.713   7.507   5.942 -3.1994  1.1099 -0.7429
  581MOL0     H78378   4.540   7.477   6.086 -1.9634  0.2378 -0.3776
  581MOL0     H78379   4.567   7.623   6.169 -1.3990  0.5147 -0.7176
  581MOL0     H78380   4.513   7.736   5.941  2.2614 -0.1312  0.6171
  581MOL0     H78381   4.478   7.580   5.878  1.1047 -1.9927  1.9292
  581MOL0     H78382   4.269   7.540   6.004  1.8149 -1.5943 -0.4782
  581MOL0     H78383   4.332   7.641   6.134 -0.0769  3.4610  0.3486
  581MOL0     H78384   4.317   7.839   6.005  0.2433  0.2189  0.6939
  581MOL0     H78385   4.158   7.764   5.998  0.4217  0.5233  0.2003
  581MOL0     H78386   4.112   7.593   5.762  0.4763 -2.5393 -0.8779
  581MOL0     H78387   4.020   7.651   5.515  0.5898 -2.4632 -2.2611
  581MOL0     H78388   4.110   7.789   5.424  1.8426 -1.0087 -2.3906
  581MOL0     H78389   4.118   7.566   5.332  0.3487 -0.6241  0.7855
  581MOL0     H78390   4.206   7.508   5.477  5.3857  0.7750 -0.0070
  581MOL0     H78391   4.398   7.611   5.437  0.6864  3.7668  1.3073
  581MOL0     H78392   4.323   7.755   5.363  2.0768  0.2783 -1.3954
  581MOL0     H78393   4.320   7.663   5.147  0.3745 -2.4241 -1.3825
  581MOL0     H78394   4.301   7.497   5.199  0.8520 -1.1254  1.7191
  581MOL0     H78395   4.746   7.575   5.141 -2.1627  2.5088  2.3744
  581MOL0     H78396   4.956   7.479   5.074  1.4073  0.6046  0.3275
  581MOL0     H78397   5.005   7.377   5.214 -0.8233  2.4462  2.0789
  581MOL0     H78398   4.945   7.305   5.059 -0.9347 -2.5598  2.5293
  581MOL0     H78399   4.899   6.895   5.407  0.3605 -1.5220  1.0247
  581MOL0     H78400   5.024   6.676   5.384  0.5729 -0.9784 -0.8011
  581MOL0     H78401   5.210   6.596   5.227  0.0034  1.6300 -0.6869
  581MOL0     H78402   5.177   6.439   5.291  3.4374  2.0916  1.2948
  581MOL0     H78403   5.325   6.401   5.122 -1.4203  0.5212  2.2507
  581MOL0     H78404   5.176   6.339   5.068 -2.4263 -0.6595  3.9536
  581MOL0     H78405   5.239   6.619   4.965 -0.2010 -0.0931  0.4705
  581MOL0     H78406   5.170   6.470   4.885 -0.9992  0.2725  1.2238
  581MOL0     H78407   5.367   6.558   4.788 -0.3190  1.3017  0.1977
  581MOL0     H78408   5.459   6.550   4.938 -1.5661  1.5319  1.7354
  581MOL0     H78409   5.433   6.380   4.720 -3.8082 -0.8163 -1.3234
  581MOL0     H78410   5.334   6.301   4.856  0.9865  0.8748  3.1524
  581MOL0     H78411   5.629   6.375   4.897  0.4127 -1.0703  1.7323
  581MOL0     H78412   5.525   6.295   5.009 -0.5876 -1.8324  0.1760
  581MOL0     H78413   5.632   6.195   4.744  1.8598  1.9137  0.9942
  581MOL0     H78414   5.487   6.131   4.817  0.5275 -3.1138  1.2033
  581MOL0     H78415   5.740   6.165   4.990  0.4288  0.5819 -1.9871
  581MOL0     H78416   5.738   6.032   4.874 -0.0849  1.5228 -1.4556
  581MOL0     H78417   4.909   6.682   4.967  0.2093 -2.7136  0.7823
  581MOL0     H78418   4.797   6.912   5.004 -4.6779 -1.3176  1.0772
  581MOL0     H78419   4.595   7.145   5.330  2.0542  0.1630 -0.5374
  581MOL0     H78420   4.433   7.337   5.324  0.1446  2.3690 -0.8486
  581MOL0     H78421   5.108   7.307   6.335 -0.9318 -1.9613  0.3844
  581MOL0     H78422   5.112   7.178   6.538 -0.2703  0.1080 -2.7581
  581MOL0     H78423   4.989   7.410   7.164  0.6359 -1.1670 -2.7722
  581MOL0     H78424   5.126   7.322   7.357  0.2919  0.4435 -1.6483
  581MOL0     H78425   5.299   7.261   7.458 -1.2103  1.1676  2.5914
  581MOL0     H78426   5.155   7.200   7.542 -1.7633 -1.9006 -2.1165
  581MOL0     H78427   5.318   7.010   7.638  0.3970  1.1299  3.1494
  581MOL0     H78428   5.348   7.175   7.684 -2.0598  3.3521 -2.7427
  581MOL0     H78429   5.531   7.207   7.563  0.8876 -1.4788 -2.0831
  581MOL0     H78430   5.517   7.085   7.449 -0.3278  0.5419  0.3791
  581MOL0     H78431   5.585   7.067   7.741  2.6564  0.8984  0.3483
  581MOL0     H78432   5.699   7.030   7.600  1.1633  3.0190  3.4274
  581MOL0     H78433   5.514   6.660   7.622 -0.9404 -0.7023 -0.1680
  581MOL0     H78434   5.230   6.972   7.147 -0.5536  1.2129  0.1679
  581MOL0     H78435   5.155   7.086   6.939  2.8023 -0.9220  0.5418
  582MOL0     O78436   5.340  11.184   1.343 -0.7312 -1.0396 -0.8816
  582MOL0     C78437   5.269  11.123   1.421  0.1617  0.5569  0.1335
  582MOL0     O78438   5.310  11.064   1.537  0.2501 -0.2314  0.6753
  582MOL0     C78439   5.435  11.007   1.534  0.4670  0.2186 -0.4854
  582MOL0     C78440   5.553  11.081   1.565 -0.9640  0.0119 -0.0629
  582MOL0     C78441   5.684  11.026   1.554 -0.2405 -0.9402  0.2969
  582MOL0     C78442   5.695  10.895   1.512  0.4317  0.0033  0.6792
  582MOL0     O78443   5.825  10.850   1.518  0.3275 -0.2405 -0.5007
  582MOL0     C78444   5.928  10.900   1.441 -0.2364 -0.1110  0.7060
  582MOL0     C78445   6.026  10.782   1.426  0.2788 -1.1193 -0.5486
  582MOL0     C78446   6.069  10.714   1.558 -0.6888 -0.8255  0.2159
  582MOL0     C78447   6.209  10.751   1.599  0.4608 -0.5751 -0.9314
  582MOL0     C78448   6.244  10.677   1.731 -0.1834  0.6666  1.6015
  582MOL0     C78449   6.397  10.659   1.737  0.2808 -0.1549 -0.3763
  582MOL0     C78450   6.439  10.619   1.880  0.0513  0.3226  0.3480
  582MOL0     C78451   6.586  10.645   1.904  0.7934 -0.1716 -0.6780
  582MOL0     N78452   6.645  10.593   2.031  0.5097  0.4101  0.7123
  582MOL0     C78453   6.620  10.460   2.077  0.2955  0.4589  0.3534
  582MOL0     C78454   6.707  10.429   2.171 -0.7320 -0.4931 -0.2728
  582MOL0     C78455   6.723  10.309   2.257  0.3297 -0.6620 -0.5613
  582MOL0     C78456   6.581  10.247   2.279  0.9707 -0.4143 -0.0899
  582MOL0     C78457   6.568  10.141   2.383 -0.9946 -0.0445 -0.1327
  582MOL0     C78458   6.641  10.011   2.356 -0.6274  0.6225  0.0719
  582MOL0     O78459   6.591   9.943   2.233 -1.0258  0.4650  0.2372
  582MOL0     C78460   6.689   9.869   2.170 -0.0325  0.5815 -0.0100
  582MOL0     C78461   6.772   9.784   2.239  0.0309  0.7980  0.4593
  582MOL0     C78462   6.865   9.698   2.166  0.4217 -1.3712 -0.1692
  582MOL0     C78463   6.957   9.593   2.233 -0.5328 -0.7702  0.4642
  582MOL0     C78464   6.876   9.718   2.028  0.6240  0.3817 -0.2438
  582MOL0     C78465   6.965   9.634   1.943  1.4068 -0.1368  0.0768
  582MOL0     O78466   7.072   9.701   1.894  0.3300  0.4569  0.3781
  582MOL0     C78467   7.149   9.650   1.795 -0.7787 -1.1441  0.1956
  582MOL0     C78468   7.165   9.711   1.664 -0.5026  0.3162 -0.7188
  582MOL0     C78469   7.255   9.649   1.581 -0.4975  0.2344 -0.0836
  582MOL0     C78470   7.295   9.517   1.597  0.0782  1.1559 -0.0035
  582MOL0     O78471   7.368   9.458   1.492  0.1630  0.6564 -0.3179
  582MOL0     C78472   7.398   9.310   1.493  0.1828  0.0366 -0.8690
  582MOL0     C78473   7.458   9.244   1.365  0.7072  0.4855  0.7940
  582MOL0     C78474   7.586   9.323   1.309  0.1717  0.3582 -0.1685
  582MOL0     C78475   7.642   9.254   1.186  0.4107  0.2268  0.1081
  582MOL0     C78476   7.768   9.336   1.124  0.1141  0.3969  0.7728
  582MOL0     C78477   7.856   9.245   1.034 -0.4397  0.3928 -0.6051
  582MOL0     C78478   7.912   9.123   1.102  0.1689 -0.2300  0.5831
  582MOL0     C78479   8.014   9.039   1.023 -0.7708 -0.1411  0.3642
  582MOL0    Cl78480   7.944   8.979   0.874  0.1475  0.3377 -0.4383
  582MOL0     C78481   7.269   9.452   1.719 -0.1096  0.1686  0.2822
  582MOL0     C78482   7.206   9.523   1.821 -0.4765  0.4850  0.1856
  582MOL0     O78483   6.925   9.525   1.911  0.5407  0.6753 -0.0346
  582MOL0     C78484   6.790   9.796   1.954 -0.7577  0.1011 -0.2697
  582MOL0     C78485   6.716   9.885   2.031  0.5445  0.3049  0.6868
  582MOL0     N78486   6.785  10.548   2.179 -0.1635 -0.0979  0.1747
  582MOL0     N78487   6.750  10.645   2.100 -0.8369 -0.2221 -0.2674
  582MOL0     C78488   5.581  10.811   1.482 -0.0326  0.1978 -0.1280
  582MOL0     C78489   5.453  10.873   1.492 -0.5492  0.4122  0.6996
  582MOL0     C78490   5.124  11.108   1.396  0.8393  0.0601  0.3030
  582MOL0     C78491   5.064  11.151   1.277 -0.3893 -0.0697 -0.0674
  582MOL0     C78492   4.932  11.142   1.255  1.1250  0.2525  0.2195
  582MOL0     C78493   4.844  11.090   1.353 -0.2929 -0.9362  0.2759
  582MOL0     O78494   4.712  11.081   1.344 -0.2974  0.4268 -0.0817
  582MOL0     C78495   4.634  11.041   1.234 -0.0808 -0.4646  0.4521
  582MOL0     C78496   4.657  10.888   1.184  0.4224  0.1027  0.5626
  582MOL0     C78497   4.711  10.788   1.284  0.0011  0.0676 -0.9925
  582MOL0     C78498   4.630  10.769   1.419 -1.7559  0.6460  0.0242
  582MOL0     C78499   4.700  10.739   1.545  0.5033 -0.4026 -0.0726
  582MOL0     C78500   4.752  10.722   1.655 -0.2501 -0.2611 -0.5221
  582MOL0     C78501   4.901  11.060   1.476 -0.5116  1.0035 -1.6418
  582MOL0     C78502   5.041  11.063   1.499 -0.1759  0.1490 -0.9267
  582MOL0     H78503   5.547  11.187   1.587  1.2066 -0.1075  1.4082
  582MOL0     H78504   5.768  11.085   1.588 -1.8757  0.9527  1.3237
  582MOL0     H78505   5.895  10.936   1.343 -2.5538 -1.2742  0.9731
  582MOL0     H78506   5.984  10.981   1.489  1.6257 -1.9903  1.8885
  582MOL0     H78507   5.980  10.699   1.371 -1.4737 -1.6157  1.5796
  582MOL0     H78508   6.119  10.811   1.375  1.2209  3.9905  3.2849
  582MOL0     H78509   6.001  10.739   1.640  0.2023  0.7594  0.5246
  582MOL0     H78510   6.067  10.606   1.541  2.5021 -0.7840 -1.0739
  582MOL0     H78511   6.291  10.720   1.533  4.0181 -1.4325  3.4042
  582MOL0     H78512   6.216  10.859   1.609  2.5136 -0.6694 -0.9294
  582MOL0     H78513   6.200  10.739   1.809  2.7557  3.2853  1.3644
  582MOL0     H78514   6.206  10.577   1.753  0.4003  0.9177  3.9761
  582MOL0     H78515   6.419  10.581   1.664 -0.2128  0.4258 -1.1570
  582MOL0     H78516   6.449  10.752   1.715 -1.1942  0.8008  0.0238
  582MOL0     H78517   6.381  10.676   1.954 -3.0721 -1.0996 -0.8550
  582MOL0     H78518   6.420  10.513   1.897 -1.9784  0.6692  0.5102
  582MOL0     H78519   6.591  10.754   1.907 -2.0758  0.0463  2.7084
  582MOL0     H78520   6.647  10.597   1.827  2.1547  0.5880 -0.1032
  582MOL0     H78521   6.545  10.391   2.039  2.2024 -0.7204 -1.4937
  582MOL0     H78522   6.784  10.241   2.197  0.4289  1.2358 -2.7547
  582MOL0     H78523   6.772  10.330   2.353 -0.2511 -2.2228  0.1057
  582MOL0     H78524   6.541  10.214   2.183  0.5484  1.0414 -0.4446
  582MOL0     H78525   6.519  10.329   2.318 -0.1627 -0.8372 -0.9448
  582MOL0     H78526   6.461  10.134   2.406 -1.0100  2.2890  0.7382
  582MOL0     H78527   6.615  10.189   2.470 -1.1042 -1.4363  0.7266
  582MOL0     H78528   6.643   9.947   2.444 -1.1836 -0.4420 -0.6579
  582MOL0     H78529   6.745  10.041   2.342  0.2057 -2.7248 -2.1909
  582MOL0     H78530   6.757   9.770   2.346  0.3037  0.8738  0.5105
  582MOL0     H78531   6.932   9.492   2.198  1.1847 -0.3731 -2.1763
  582MOL0     H78532   7.055   9.624   2.196 -1.6733  1.1227 -1.1672
  582MOL0     H78533   6.960   9.592   2.342  1.9749 -2.8018  0.4841
  582MOL0     H78534   7.122   9.809   1.642 -1.7372 -0.2716 -1.0433
  582MOL0     H78535   7.269   9.684   1.479 -3.6742  1.0600 -0.3609
  582MOL0     H78536   7.481   9.297   1.562  0.4922  0.4198 -1.1627
  582MOL0     H78537   7.315   9.247   1.526  0.5581 -0.5514 -1.0207
  582MOL0     H78538   7.506   9.149   1.392  3.0193  2.6264  5.5558
  582MOL0     H78539   7.379   9.227   1.292 -0.1495 -4.8839  2.5630
  582MOL0     H78540   7.668   9.333   1.381 -0.8478 -0.2354  1.1130
  582MOL0     H78541   7.541   9.419   1.280 -0.3104  0.7143  1.6171
  582MOL0     H78542   7.660   9.148   1.208 -2.2066 -1.4526 -4.3980
  582MOL0     H78543   7.562   9.243   1.112 -1.3030 -0.9581  2.0087
  582MOL0     H78544   7.835   9.378   1.200  0.9229  0.9258 -0.2020
  582MOL0     H78545   7.723   9.411   1.058  0.5027 -0.8892 -1.0256
  582MOL0     H78546   7.801   9.218   0.944  1.9790 -1.4109 -1.6576
  582MOL0     H78547   7.944   9.305   1.005 -0.7951  1.1983 -0.0745
  582MOL0     H78548   7.831   9.060   1.139  0.0855  0.0417  0.8668
  582MOL0     H78549   7.954   9.161   1.195 -1.6546  3.7118 -0.0210
  582MOL0     H78550   8.055   8.950   1.072 -1.3991 -1.4557 -1.4159
  582MOL0     H78551   8.091   9.113   0.998 -0.4490 -0.8097 -0.6811
  582MOL0     H78552   7.299   9.347   1.726 -1.8745 -0.5967 -2.0411
  582MOL0     H78553   7.200   9.487   1.923 -0.2299  1.3177  0.5043
  582MOL0     H78554   6.791   9.810   1.846 -1.1068  2.3770 -0.0153
  582MOL0     H78555   6.657   9.957   1.975 -1.4518 -2.1780 -0.6271
  582MOL0     H78556   5.580  10.706   1.453 -0.1490  0.1658 -0.0062
  582MOL0     H78557   5.371  10.806   1.468 -0.4579  0.7411 -0.6118
  582MOL0     H78558   5.123  11.193   1.196 -0.4570  1.5453  0.6886
  582MOL0     H78559   4.889  11.188   1.166 -1.7250  0.4581  1.5793
  582MOL0     H78560   4.526  11.055   1.249  0.1275  0.7269  0.9894
  582MOL0     H78561   4.656  11.097   1.143 -1.4792 -2.0095 -0.9104
  582MOL0     H78562   4.712  10.885   1.090 -1.2467  2.4550 -0.5933
  582MOL0     H78563   4.562  10.856   1.140  0.6443  1.9243 -1.3727
  582MOL0     H78564   4.816  10.809   1.309 -0.7796  1.6656  1.3574
  582MOL0     H78565   4.706  10.688   1.241 -0.5665 -1.3011  2.0258
  582MOL0     H78566   4.551  10.694   1.410 -2.0123  0.9009  0.0993
  582MOL0     H78567   4.587  10.867   1.442 -2.3833  0.5784 -0.8263
  582MOL0     H78568   4.774  10.722   1.760  2.5024 -0.3645 -1.0196
  582MOL0     H78569   4.837  11.026   1.556  3.1639 -0.5860  0.9003
  582MOL0     H78570   5.085  11.046   1.597  0.4654  4.0284 -0.3641
  583MOL0     O78571   1.159  11.502   4.483  0.6235 -0.1395 -0.0584
  583MOL0     C78572   1.119  11.393   4.525  0.4678  1.3405 -0.3282
  583MOL0     O78573   1.034  11.372   4.631  0.4609 -0.4490  0.7654
  583MOL0     C78574   0.991  11.480   4.709 -0.1142  0.3127 -0.2623
  583MOL0     C78575   1.027  11.474   4.848 -0.3416  0.6836  0.3948
  583MOL0     C78576   1.003  11.574   4.941  0.9232 -0.6789  0.9589
  583MOL0     C78577   0.934  11.690   4.893  0.6208  0.2826  0.6899
  583MOL0     O78578   0.901  11.782   4.990 -0.4348  0.5520  0.1415
  583MOL0     C78579   0.888  11.916   4.947 -0.5020  0.2855 -0.4956
  583MOL0     C78580   0.876  12.011   5.068  0.2024 -1.3903 -0.1198
  583MOL0     C78581   0.797  12.137   5.041 -0.0466  0.5100  0.8656
  583MOL0     C78582   0.832  12.211   4.913 -0.5546  0.2533  0.2049
  583MOL0     C78583   0.768  12.352   4.917 -0.6239 -0.3785 -0.2685
  583MOL0     C78584   0.857  12.460   4.984  0.4107  0.3975 -0.0665
  583MOL0     C78585   0.784  12.601   5.000 -0.5591  0.3543  0.2483
  583MOL0     C78586   0.705  12.655   4.878  1.5726  0.1816 -0.2662
  583MOL0     N78587   0.681  12.793   4.900  0.9947 -0.2745  0.1905
  583MOL0     C78588   0.777  12.893   4.889 -0.0052  1.1701  0.6114
  583MOL0     C78589   0.716  12.996   4.948 -0.1862 -0.1677  0.5159
  583MOL0     C78590   0.777  13.131   4.965 -0.0796  0.3454 -0.4332
  583MOL0     C78591   0.822  13.145   5.106 -0.7359  0.5329 -0.6071
  583MOL0     C78592   0.889  13.277   5.126 -0.3494  1.4331 -0.4031
  583MOL0     C78593   0.919  13.324   5.270 -0.1435  0.2190 -0.4852
  583MOL0     O78594   1.030  13.242   5.316  0.2887 -0.7483  0.1111
  583MOL0     C78595   1.062  13.228   5.446  0.6721 -0.9030  0.1847
  583MOL0     C78596   1.002  13.312   5.541 -0.1365  0.3143 -0.6327
  583MOL0     C78597   1.032  13.313   5.676 -0.8921  0.8104 -1.0825
  583MOL0     C78598   0.964  13.401   5.782  0.1924  0.3993 -0.2490
  583MOL0     C78599   1.137  13.229   5.715 -0.2078 -0.0264  0.5427
  583MOL0     C78600   1.201  13.216   5.842 -0.2469 -0.3240 -0.0379
  583MOL0     O78601   1.328  13.157   5.840 -1.1780 -0.1210 -0.2390
  583MOL0     C78602   1.399  13.167   5.963  0.1292 -0.2674  0.0324
  583MOL0     C78603   1.397  13.275   6.054  0.4231 -0.3379  0.2577
  583MOL0     C78604   1.484  13.292   6.160  0.3896  0.7342 -0.6583
  583MOL0     C78605   1.567  13.183   6.191  0.3072 -0.5948  0.5681
  583MOL0     O78606   1.659  13.181   6.295  0.6432 -0.5883 -0.6681
  583MOL0     C78607   1.676  13.302   6.367 -0.4556 -0.5261 -0.1777
  583MOL0     C78608   1.806  13.276   6.452 -0.1882 -0.4699 -0.0053
  583MOL0     C78609   1.846  13.393   6.537 -0.7737 -0.6819 -0.3287
  583MOL0     C78610   1.929  13.347   6.659 -0.2596  0.2593  1.5620
  583MOL0     C78611   1.969  13.465   6.744  0.3555 -0.0601 -0.2295
  583MOL0     C78612   2.053  13.575   6.680 -0.2220  0.1254 -0.1553
  583MOL0     C78613   2.065  13.696   6.779  0.4218 -0.1814 -0.0675
  583MOL0     C78614   2.132  13.813   6.713 -0.3926  0.1740 -0.1148
  583MOL0    Cl78615   2.057  13.867   6.563 -0.1970 -0.2822  0.5588
  583MOL0     C78616   1.569  13.074   6.102 -0.0894  1.5922 -1.0422
  583MOL0     C78617   1.487  13.059   5.998  0.6227 -0.0388  0.9552
  583MOL0     O78618   1.139  13.241   5.946  0.1016 -0.2674 -0.4301
  583MOL0     C78619   1.188  13.133   5.620 -0.3062  0.1576  0.4881
  583MOL0     C78620   1.146  13.134   5.489 -0.6280 -0.0957 -0.1171
  583MOL0     N78621   0.584  12.964   4.970 -0.2820 -0.5153 -0.5178
  583MOL0     N78622   0.557  12.846   4.950 -0.7472  0.1098  0.4046
  583MOL0     C78623   0.889  11.699   4.760  0.4334  0.0657 -0.3279
  583MOL0     C78624   0.924  11.595   4.671 -0.5395  0.6234 -0.1341
  583MOL0     C78625   1.198  11.275   4.470  0.0467 -0.2669 -0.3661
  583MOL0     C78626   1.273  11.272   4.350 -0.3257  0.6261  0.5609
  583MOL0     C78627   1.339  11.162   4.304 -0.5089  0.4513  0.4046
  583MOL0     C78628   1.318  11.041   4.373 -0.3606 -0.6722  0.2973
  583MOL0     O78629   1.385  10.928   4.332  0.4601  0.0276  1.3583
  583MOL0     C78630   1.312  10.819   4.263  1.3441  0.8400  0.4027
  583MOL0     C78631   1.276  10.850   4.113  0.1505  0.9266 -0.4142
  583MOL0     C78632   1.396  10.807   4.022  0.4473  0.7746 -0.0089
  583MOL0     C78633   1.514  10.892   4.036 -0.3947  0.7768 -0.3598
  583MOL0     C78634   1.492  11.029   3.975  0.2325 -0.2404 -0.4719
  583MOL0     C78635   1.467  11.139   3.935 -0.5134  0.2299 -0.5998
  583MOL0     C78636   1.219  11.037   4.476 -0.5840  0.6470  0.9054
  583MOL0     C78637   1.155  11.151   4.519 -0.5336 -0.0554  0.1194
  583MOL0     H78638   1.087  11.388   4.872 -1.6664  0.5593  3.7877
  583MOL0     H78639   1.041  11.566   5.043  0.1638 -0.4920  1.2631
  583MOL0     H78640   0.976  11.945   4.889  0.1064 -2.0033 -0.7825
  583MOL0     H78641   0.800  11.933   4.884 -0.2981 -0.0862 -0.8855
  583MOL0     H78642   0.813  11.960   5.142 -0.5182 -1.6531 -0.9027
  583MOL0     H78643   0.976  12.045   5.096 -0.5197  1.6577 -0.8063
  583MOL0     H78644   0.690  12.116   5.030 -0.2086  1.9490 -0.7984
  583MOL0     H78645   0.807  12.203   5.127  2.0978  1.2649  0.1102
  583MOL0     H78646   0.937  12.234   4.893 -1.3210  1.4236 -3.2266
  583MOL0     H78647   0.798  12.159   4.823  3.0260 -1.9506 -0.0909
  583MOL0     H78648   0.756  12.379   4.812  1.8805  1.5556 -0.1393
  583MOL0     H78649   0.670  12.364   4.965 -0.0679  0.9247  0.5907
  583MOL0     H78650   0.880  12.435   5.088  3.8636  0.0856 -0.7770
  583MOL0     H78651   0.950  12.483   4.930  0.9265 -0.5321  0.4038
  583MOL0     H78652   0.710  12.588   5.079 -2.9311 -0.6033 -2.0148
  583MOL0     H78653   0.867  12.667   5.028  2.6770 -3.1875 -0.2773
  583MOL0     H78654   0.604  12.615   4.872  0.6523  2.3301 -0.0529
  583MOL0     H78655   0.757  12.640   4.783 -0.3377 -1.2986 -1.1360
  583MOL0     H78656   0.882  12.872   4.873  0.1573  0.9884  1.8405
  583MOL0     H78657   0.856  13.140   4.891  0.5511 -2.4921 -0.2204
  583MOL0     H78658   0.700  13.206   4.945 -1.5243  0.4588  4.3872
  583MOL0     H78659   0.892  13.068   5.138 -0.8000 -0.3650 -2.5089
  583MOL0     H78660   0.735  13.145   5.173 -0.5459  0.2445 -0.3549
  583MOL0     H78661   0.845  13.359   5.067  0.3996  4.1694  2.5527
  583MOL0     H78662   0.982  13.263   5.070 -0.6097 -4.2251  0.0176
  583MOL0     H78663   0.824  13.314   5.323 -1.6004 -2.3098 -3.2515
  583MOL0     H78664   0.944  13.430   5.259 -0.5320  0.0783 -3.4147
  583MOL0     H78665   0.927  13.385   5.516 -1.5652 -0.6128  0.7551
  583MOL0     H78666   0.894  13.340   5.839  1.4674  0.6231  1.6625
  583MOL0     H78667   1.031  13.444   5.857  2.3625 -0.5159 -1.5442
  583MOL0     H78668   0.914  13.489   5.742 -1.8657 -0.3355  0.6033
  583MOL0     H78669   1.321  13.351   6.037 -0.2581 -1.0643  0.0344
  583MOL0     H78670   1.488  13.386   6.215 -0.9773  0.7669 -0.5777
  583MOL0     H78671   1.691  13.391   6.305 -1.2350 -0.3310 -0.0995
  583MOL0     H78672   1.591  13.318   6.433 -0.0885  0.0592  0.1641
  583MOL0     H78673   1.781  13.194   6.519 -1.7365  1.3707  1.8099
  583MOL0     H78674   1.885  13.225   6.397 -2.2263 -1.1359 -2.5633
  583MOL0     H78675   1.753  13.441   6.569 -1.0169 -0.7006 -1.0008
  583MOL0     H78676   1.908  13.459   6.476  1.0842  0.5774  2.7017
  583MOL0     H78677   1.869  13.287   6.729  1.8757 -0.8876  2.5144
  583MOL0     H78678   2.019  13.296   6.622 -0.2143  2.8819 -2.5709
  583MOL0     H78679   2.016  13.417   6.830 -2.3684 -3.7108 -0.5423
  583MOL0     H78680   1.876  13.511   6.776  1.2096  0.7051  1.2503
  583MOL0     H78681   2.155  13.541   6.659 -0.0548  0.0645  0.7349
  583MOL0     H78682   2.008  13.610   6.587 -0.3342  1.5084  0.3979
  583MOL0     H78683   2.119  13.675   6.872  0.5548  0.5560  0.0252
  583MOL0     H78684   1.959  13.717   6.794  0.0710 -1.3719 -0.6922
  583MOL0     H78685   2.237  13.784   6.709  0.4444  2.2345  3.2577
  583MOL0     H78686   2.131  13.902   6.776 -1.8478 -1.2344  1.9547
  583MOL0     H78687   1.636  12.995   6.133  2.1979  2.7223 -2.7674
  583MOL0     H78688   1.496  12.973   5.932  0.0095  1.6230 -1.4240
  583MOL0     H78689   1.277  13.077   5.645 -0.1944 -0.2210 -0.7122
  583MOL0     H78690   1.183  13.064   5.415 -1.4259 -0.7103  0.0458
  583MOL0     H78691   0.836  11.788   4.726 -0.0842 -0.4017 -0.7532
  583MOL0     H78692   0.889  11.612   4.570  0.1131  3.3894  0.0377
  583MOL0     H78693   1.291  11.362   4.293  1.4200  0.2149  0.4190
  583MOL0     H78694   1.399  11.168   4.214 -0.5658  1.8793  0.4427
  583MOL0     H78695   1.371  10.727   4.268 -0.3380 -0.2873  0.4003
  583MOL0     H78696   1.215  10.797   4.309  1.5108  1.3057  0.9839
  583MOL0     H78697   1.257  10.958   4.111  0.2858  0.9564 -0.1088
  583MOL0     H78698   1.193  10.788   4.079  1.5452 -1.3943  0.2026
  583MOL0     H78699   1.355  10.807   3.921 -3.1912 -0.3775  1.2946
  583MOL0     H78700   1.431  10.705   4.038  0.5805  0.7349 -0.5485
  583MOL0     H78701   1.580  10.827   3.978 -1.8108 -2.0294  0.9566
  583MOL0     H78702   1.550  10.894   4.139  0.8467 -1.0648 -0.7022
  583MOL0     H78703   1.433  11.232   3.895  1.7026  1.5423  0.4087
  583MOL0     H78704   1.195  10.942   4.522  3.0968 -2.9464 -3.5669
  583MOL0     H78705   1.087  11.125   4.599 -0.9624  0.0519 -0.2096
  584MOL0     O78706   0.369  11.039   5.607 -0.4082 -0.3016  0.1991
  584MOL0     C78707   0.260  11.012   5.664 -0.0624 -0.0610  0.4392
  584MOL0     O78708   0.244  11.010   5.802 -0.8103 -0.2962 -0.1476
  584MOL0     C78709   0.350  11.055   5.883 -0.3809  0.2893 -0.5012
  584MOL0     C78710   0.397  10.954   5.971  0.5849  0.8968 -0.5744
  584MOL0     C78711   0.508  10.972   6.053 -0.7453  1.3034 -0.5597
  584MOL0     C78712   0.583  11.083   6.043  0.5158 -1.0293 -0.4035
  584MOL0     O78713   0.691  11.115   6.120 -0.7869  0.2441  0.9148
  584MOL0     C78714   0.668  11.198   6.235  0.7831  0.3899 -0.0690
  584MOL0     C78715   0.781  11.180   6.342 -0.5128 -0.2412  0.4267
  584MOL0     C78716   0.912  11.235   6.287  0.1512 -0.0857 -0.0564
  584MOL0     C78717   1.002  11.132   6.201 -0.7395 -0.3429 -0.0800
  584MOL0     C78718   1.128  11.187   6.129 -0.0838 -0.8190  1.3229
  584MOL0     C78719   1.212  11.276   6.215  0.1053 -0.4978 -0.1047
  584MOL0     C78720   1.302  11.366   6.124 -0.2213  0.1537 -0.1378
  584MOL0     C78721   1.429  11.292   6.062  0.4653  0.0843 -0.2724
  584MOL0     N78722   1.510  11.242   6.173  0.8014  0.7064 -1.1329
  584MOL0     C78723   1.579  11.305   6.268  0.4056  0.0600  0.1520
  584MOL0     C78724   1.673  11.229   6.324 -0.2119 -1.0078  0.9140
  584MOL0     C78725   1.749  11.256   6.451 -0.7083 -0.1798  0.4259
  584MOL0     C78726   1.824  11.389   6.433  0.0619 -0.2477  0.0815
  584MOL0     C78727   1.930  11.401   6.320  0.4664  1.4130 -0.1967
  584MOL0     C78728   1.974  11.542   6.268  0.1501 -0.5321 -0.0605
  584MOL0     O78729   1.870  11.601   6.187 -0.6341  0.0214 -0.4821
  584MOL0     C78730   1.914  11.677   6.082 -0.4882  0.0425 -0.0851
  584MOL0     C78731   1.842  11.662   5.963 -0.6097 -0.2039  0.2200
  584MOL0     C78732   1.873  11.742   5.852 -1.1774 -0.7169  0.2231
  584MOL0     C78733   1.795  11.721   5.726 -0.1303  0.2608  0.0275
  584MOL0     C78734   1.984  11.834   5.866 -0.8478  0.2196  0.5885
  584MOL0     C78735   2.027  11.923   5.756 -0.2844  0.8745  1.1446
  584MOL0     O78736   1.932  11.997   5.705  0.1272  0.3562 -0.2303
  584MOL0     C78737   1.975  12.100   5.613 -0.0358  1.4947 -0.2899
  584MOL0     C78738   2.060  12.204   5.650  0.2749 -0.3023 -1.1148
  584MOL0     C78739   2.071  12.322   5.581  0.2489 -0.5312 -0.1541
  584MOL0     C78740   1.999  12.348   5.465  0.5615 -0.3087 -1.0069
  584MOL0     O78741   1.980  12.468   5.401 -0.0373  0.7988 -0.0351
  584MOL0     C78742   1.966  12.579   5.481 -0.1033  0.5918 -0.1981
  584MOL0     C78743   1.929  12.706   5.397  0.0464  0.4173  0.3154
  584MOL0     C78744   1.792  12.690   5.323  0.0618  0.0955  0.3809
  584MOL0     C78745   1.677  12.693   5.414 -0.6903  0.4716 -0.1615
  584MOL0     C78746   1.539  12.674   5.351  0.7033  0.3083  0.9945
  584MOL0     C78747   1.488  12.532   5.374  1.3417  0.6318 -0.0759
  584MOL0     C78748   1.581  12.416   5.324 -0.3500 -0.2534 -0.4515
  584MOL0     C78749   1.506  12.295   5.311 -0.2979 -0.5343  0.1642
  584MOL0    Cl78750   1.365  12.274   5.424 -0.3145  0.0860 -0.1152
  584MOL0     C78751   1.910  12.241   5.421  0.2541 -0.7861  0.5816
  584MOL0     C78752   1.906  12.123   5.495 -0.6444 -0.2200 -0.3628
  584MOL0     O78753   2.151  11.920   5.717  1.0316 -0.8668 -0.2388
  584MOL0     C78754   2.060  11.836   5.983  0.0900 -0.3666  0.4400
  584MOL0     C78755   2.032  11.757   6.094  0.4391  0.6525 -0.1585
  584MOL0     N78756   1.655  11.106   6.265  0.5397  0.9682  0.0683
  584MOL0     N78757   1.561  11.118   6.169  0.6202 -0.1381  0.4130
  584MOL0     C78758   0.536  11.186   5.956 -0.3227  0.8334 -0.0487
  584MOL0     C78759   0.428  11.170   5.872 -0.1491  0.1308 -0.2864
  584MOL0     C78760   0.141  10.977   5.583 -0.3257 -0.5060  0.5098
  584MOL0     C78761   0.044  10.897   5.639 -0.6469  0.3571 -0.0054
  584MOL0     C78762  -0.063  10.862   5.568 -0.2254  0.4103  0.2860
  584MOL0     C78763  -0.075  10.911   5.436  0.8126  0.4420 -0.5316
  584MOL0     O78764  -0.175  10.878   5.349 -0.2756  0.5798 -0.8264
  584MOL0     C78765  -0.259  10.767   5.371  1.0094 -0.1132 -0.2153
  584MOL0     C78766  -0.378  10.747   5.266  0.2002 -0.5368 -0.6654
  584MOL0     C78767  -0.488  10.666   5.329 -0.8698  0.5694  0.7023
  584MOL0     C78768  -0.601  10.651   5.231  0.5349  0.2851 -0.1850
  584MOL0     C78769  -0.660  10.518   5.221 -1.3135 -0.2117  0.3611
  584MOL0     C78770  -0.713  10.415   5.193 -0.1747 -0.0482  0.6538
  584MOL0     C78771   0.010  11.007   5.391 -0.5058  0.1951  1.4290
  584MOL0     C78772   0.125  11.037   5.459  0.1649  0.3319  0.5440
  584MOL0     H78773   0.350  10.857   5.981  1.2988  0.6476  0.5204
  584MOL0     H78774   0.550  10.888   6.108 -0.3882  2.2124  0.5905
  584MOL0     H78775   0.655  11.303   6.206  1.0658  0.5436  0.3516
  584MOL0     H78776   0.569  11.163   6.267  1.5786 -2.8036 -0.7961
  584MOL0     H78777   0.749  11.229   6.434  1.4422  2.3511 -0.1365
  584MOL0     H78778   0.802  11.076   6.367 -0.4683 -0.5162 -0.6904
  584MOL0     H78779   0.889  11.322   6.225  1.3248  1.0970  1.1188
  584MOL0     H78780   0.974  11.265   6.371 -1.2949  0.1956  0.9374
  584MOL0     H78781   1.036  11.048   6.263 -1.9970 -1.2665 -0.5871
  584MOL0     H78782   0.934  11.086   6.128 -2.1805  1.5916 -0.0416
  584MOL0     H78783   1.182  11.107   6.077 -1.2394 -1.3311  0.8672
  584MOL0     H78784   1.082  11.245   6.048 -2.0264 -2.6764  1.0265
  584MOL0     H78785   1.148  11.344   6.271 -1.7870 -1.3495 -1.1219
  584MOL0     H78786   1.275  11.217   6.282 -0.6173 -0.8650  0.2573
  584MOL0     H78787   1.229  11.406   6.053 -0.9463 -0.6650  0.1310
  584MOL0     H78788   1.345  11.450   6.180  0.6849 -0.4216  0.0553
  584MOL0     H78789   1.492  11.356   6.001  0.1258  0.4706 -0.2246
  584MOL0     H78790   1.398  11.215   5.990  1.6987 -1.5976  0.9054
  584MOL0     H78791   1.569  11.409   6.296  2.1221  0.0568  0.9062
  584MOL0     H78792   1.683  11.253   6.538  0.3470  0.6299  1.2761
  584MOL0     H78793   1.831  11.184   6.461  1.5905  2.3604  0.9218
  584MOL0     H78794   1.869  11.417   6.529  0.5057 -0.4445 -0.0658
  584MOL0     H78795   1.750  11.466   6.409  1.2971  2.4033  3.7718
  584MOL0     H78796   1.909  11.335   6.235  2.2830 -0.3273  0.6152
  584MOL0     H78797   2.018  11.353   6.364 -1.2142 -0.7816  1.0042
  584MOL0     H78798   2.066  11.526   6.211  0.9650 -1.0927  1.3490
  584MOL0     H78799   2.000  11.604   6.355  0.5288 -4.3737  2.8543
  584MOL0     H78800   1.766  11.584   5.968  1.0861 -1.8511  1.9653
  584MOL0     H78801   1.721  11.801   5.718 -0.7826 -0.5310 -4.0618
  584MOL0     H78802   1.846  11.738   5.630 -0.3906 -0.5636 -0.2645
  584MOL0     H78803   1.749  11.622   5.719  1.2022 -0.2996 -1.9202
  584MOL0     H78804   2.114  12.188   5.743 -1.3268 -3.3153 -0.6024
  584MOL0     H78805   2.137  12.401   5.615 -1.2554  0.3076  0.9231
  584MOL0     H78806   1.883  12.564   5.550  1.5551 -0.6842  1.6052
  584MOL0     H78807   2.055  12.594   5.543 -1.6891  1.7847  1.9451
  584MOL0     H78808   1.930  12.797   5.458  0.6441 -0.9922  2.5230
  584MOL0     H78809   1.999  12.713   5.314  0.1641 -1.3705  0.2206
  584MOL0     H78810   1.788  12.598   5.265  1.8431  1.4090 -2.0185
  584MOL0     H78811   1.779  12.776   5.256 -2.1467  1.4355  2.3491
  584MOL0     H78812   1.689  12.615   5.490  0.3278  0.9201  0.1496
  584MOL0     H78813   1.683  12.790   5.464  2.0470  0.7723 -0.9338
  584MOL0     H78814   1.537  12.705   5.246  4.8533 -0.7496  0.4218
  584MOL0     H78815   1.466  12.740   5.398 -0.2470  0.9854 -1.2952
  584MOL0     H78816   1.461  12.516   5.479  0.7735 -3.7120 -0.6888
  584MOL0     H78817   1.395  12.518   5.319  2.5365  0.6484 -2.2424
  584MOL0     H78818   1.651  12.403   5.408 -3.8641  3.0129  3.4454
  584MOL0     H78819   1.637  12.439   5.233  0.7042 -3.2481 -0.6607
  584MOL0     H78820   1.579  12.213   5.310  0.2874 -0.0230 -0.3708
  584MOL0     H78821   1.463  12.306   5.211 -0.1485  2.1143  0.3364
  584MOL0     H78822   1.838  12.247   5.340 -0.6987 -1.0912  1.3826
  584MOL0     H78823   1.843  12.045   5.452  0.9766 -0.0225 -3.4428
  584MOL0     H78824   2.133  11.914   6.001 -1.6016  1.2416  0.6224
  584MOL0     H78825   2.091  11.770   6.184 -2.4061  2.5357  1.5825
  584MOL0     H78826   0.594  11.278   5.953  1.5507 -0.2841  0.3487
  584MOL0     H78827   0.393  11.249   5.806  0.8841  2.3262  1.6251
  584MOL0     H78828   0.053  10.871   5.744 -0.6771  1.0655  0.1780
  584MOL0     H78829  -0.135  10.797   5.616 -0.1685  0.9602  1.1584
  584MOL0     H78830  -0.211  10.677   5.408 -0.2190  0.4179  3.0137
  584MOL0     H78831  -0.307  10.795   5.465 -2.3760 -3.3535 -0.7370
  584MOL0     H78832  -0.341  10.713   5.169  0.4106 -1.4826 -0.2648
  584MOL0     H78833  -0.408  10.850   5.244  0.5126 -0.5327 -1.0882
  584MOL0     H78834  -0.524  10.712   5.421  1.3404 -1.7381  2.8854
  584MOL0     H78835  -0.441  10.568   5.335 -2.1727 -0.1570 -0.3130
  584MOL0     H78836  -0.573  10.668   5.127 -1.4619 -2.6120 -1.3461
  584MOL0     H78837  -0.686  10.712   5.262  1.0665  0.9313  0.0077
  584MOL0     H78838  -0.774  10.331   5.169 -0.1641 -0.2120  1.2015
  584MOL0     H78839  -0.017  11.058   5.299 -2.8067  0.5873  2.2610
  584MOL0     H78840   0.203  11.104   5.426  1.3754 -0.6752  1.2712
  585MOL0     O78841   8.349   9.282   9.410  0.1592  0.7385 -0.2532
  585MOL0     C78842   8.390   9.170   9.408  0.1318  1.0007  0.9533
  585MOL0     O78843   8.412   9.100   9.296 -0.6844  0.3147 -0.4425
  585MOL0     C78844   8.395   9.149   9.167 -0.4810  0.0059 -1.0047
  585MOL0     C78845   8.390   9.290   9.128  1.4485  0.8953 -0.3510
  585MOL0     C78846   8.361   9.314   8.996  0.1028  0.7011  0.5538
  585MOL0     C78847   8.355   9.213   8.898 -0.9108  0.6839  0.0939
  585MOL0     O78848   8.329   9.233   8.762  0.4207 -0.5910 -0.1918
  585MOL0     C78849   8.289   9.367   8.715  0.3463 -0.0724  0.1592
  585MOL0     C78850   8.134   9.383   8.725 -0.1163  0.2689 -0.0796
  585MOL0     C78851   8.049   9.289   8.635  0.8778  0.5232 -0.5595
  585MOL0     C78852   8.053   9.307   8.483 -1.0975  0.9369  0.5665
  585MOL0     C78853   7.949   9.207   8.419 -0.2976 -0.6356  1.2177
  585MOL0     C78854   7.916   9.228   8.265 -1.0117  0.6418 -0.1734
  585MOL0     C78855   8.044   9.208   8.182 -0.0413  0.2613 -0.0199
  585MOL0     C78856   8.001   9.203   8.026  0.9978 -1.0640  0.0416
  585MOL0     N78857   8.113   9.191   7.933  0.2526 -0.1995  0.0806
  585MOL0     C78858   8.190   9.079   7.920  0.3987 -0.3008 -0.5799
  585MOL0     C78859   8.278   9.112   7.826 -0.7209 -0.1789  0.7906
  585MOL0     C78860   8.395   9.031   7.783  0.6437 -0.5351  0.3993
  585MOL0     C78861   8.477   9.083   7.673  0.0760 -0.3874  0.8457
  585MOL0     C78862   8.564   9.213   7.712 -0.2870  0.6412  0.0738
  585MOL0     C78863   8.639   9.266   7.588  0.2520  0.1996 -0.4970
  585MOL0     O78864   8.751   9.340   7.630 -0.5125 -0.4086 -0.0868
  585MOL0     C78865   8.784   9.450   7.549 -0.2388 -0.7727 -0.4717
  585MOL0     C78866   8.736   9.573   7.597 -0.7935  0.0905  0.3609
  585MOL0     C78867   8.767   9.694   7.526  0.6433  0.1923  0.0169
  585MOL0     C78868   8.702   9.827   7.561  0.3306  1.3025  1.0776
  585MOL0     C78869   8.845   9.685   7.411 -0.2037 -0.5439  0.6441
  585MOL0     C78870   8.898   9.802   7.336  0.5091  0.2171  0.2347
  585MOL0     O78871   8.951   9.907   7.405 -0.0370 -0.5376 -0.3275
  585MOL0     C78872   9.010  10.016   7.344 -0.6772 -0.5907 -0.3340
  585MOL0     C78873   9.146  10.004   7.315 -0.0095  0.4289  0.6668
  585MOL0     C78874   9.208  10.101   7.231  0.7149  0.6250  0.2227
  585MOL0     C78875   9.139  10.223   7.192 -0.5455 -0.1128 -0.1608
  585MOL0     O78876   9.211  10.329   7.131  1.1415 -0.3621  0.3023
  585MOL0     C78877   9.162  10.463   7.139  0.6551 -0.2518 -0.6029
  585MOL0     C78878   9.287  10.541   7.100  0.2564 -0.0296 -1.0592
  585MOL0     C78879   9.272  10.690   7.132 -0.3682 -1.5936  0.8644
  585MOL0     C78880   9.299  10.782   7.005 -1.4958  0.3228  0.0857
  585MOL0     C78881   9.266  10.924   7.015  0.0790  0.5124 -0.0822
  585MOL0     C78882   9.317  10.999   7.133 -1.1378 -0.6827 -0.1175
  585MOL0     C78883   9.265  11.139   7.145 -0.6014  0.3934  0.8104
  585MOL0     C78884   9.288  11.225   7.024 -0.4366  0.4755  0.7469
  585MOL0    Cl78885   9.227  11.384   7.056 -0.2387 -0.2558 -0.0416
  585MOL0     C78886   9.004  10.228   7.234 -0.2003  0.0678  0.3644
  585MOL0     C78887   8.943  10.130   7.314  0.7490  0.0230 -0.2545
  585MOL0     O78888   8.910   9.789   7.215 -0.2180 -1.1107  0.3331
  585MOL0     C78889   8.881   9.559   7.359  0.5569 -0.5341 -0.4705
  585MOL0     C78890   8.852   9.445   7.431 -0.5163  0.4089 -0.2262
  585MOL0     N78891   8.244   9.237   7.768  0.4476 -0.2224  0.7028
  585MOL0     N78892   8.151   9.286   7.843  0.1387  0.2291 -0.9546
  585MOL0     C78893   8.375   9.081   8.941 -0.0974  0.2697 -0.0875
  585MOL0     C78894   8.386   9.043   9.072 -0.0407  0.1334  0.2616
  585MOL0     C78895   8.420   9.101   9.537  0.9680  0.1022 -0.7593
  585MOL0     C78896   8.467   8.973   9.547  0.3140  0.8244 -0.3893
  585MOL0     C78897   8.499   8.910   9.672 -0.2084 -0.2066 -0.0101
  585MOL0     C78898   8.462   8.976   9.792  0.3228  0.8523 -0.1439
  585MOL0     O78899   8.510   8.928   9.919  0.5496 -0.5109  0.5418
  585MOL0     C78900   8.545   8.796   9.934  0.5435 -0.1936 -0.7719
  585MOL0     C78901   8.599   8.783  10.079  0.2740 -0.4359 -0.4717
  585MOL0     C78902   8.500   8.811  10.195  0.0839 -0.6791  1.0700
  585MOL0     C78903   8.562   8.839  10.330 -0.7496  0.8514  1.1080
  585MOL0     C78904   8.492   8.804  10.445 -0.1408  0.9137  1.1343
  585MOL0     C78905   8.423   8.777  10.540  0.2391 -0.6452 -1.0193
  585MOL0     C78906   8.403   9.104   9.788  0.2079 -0.1155  0.7666
  585MOL0     C78907   8.386   9.166   9.668  0.0898  0.3546  0.5469
  585MOL0     H78908   8.420   9.381   9.179  0.9928  0.6015  0.4595
  585MOL0     H78909   8.354   9.419   8.970  2.0140  0.4493 -1.3339
  585MOL0     H78910   8.353   9.438   8.768 -1.7986  1.7171  0.4964
  585MOL0     H78911   8.310   9.379   8.609 -0.5866 -0.5232 -0.0840
  585MOL0     H78912   8.100   9.389   8.829  1.6040  0.6204  0.4910
  585MOL0     H78913   8.099   9.482   8.691  0.4021  1.2546  2.1236
  585MOL0     H78914   8.074   9.185   8.657  0.7269  1.1156  3.1244
  585MOL0     H78915   7.944   9.301   8.662  0.9925  0.6949 -0.1834
  585MOL0     H78916   8.030   9.411   8.458 -0.9486  1.3606  2.0808
  585MOL0     H78917   8.150   9.287   8.436 -1.9974 -0.5853 -0.7273
  585MOL0     H78918   7.981   9.103   8.434  3.1591  0.2632  1.0042
  585MOL0     H78919   7.856   9.216   8.475 -0.6558  0.4017  0.4703
  585MOL0     H78920   7.849   9.150   8.228 -1.3012  0.7284  0.1536
  585MOL0     H78921   7.870   9.325   8.242 -2.5573 -0.2535 -0.9955
  585MOL0     H78922   8.120   9.283   8.204  0.1738  0.2181 -0.5882
  585MOL0     H78923   8.070   9.103   8.201 -1.4383 -0.8057 -3.1831
  585MOL0     H78924   7.952   9.300   8.012  3.5721  0.1030 -1.5131
  585MOL0     H78925   7.929   9.123   8.008  0.0288  0.1057 -1.5482
  585MOL0     H78926   8.182   8.999   7.993 -2.1036  0.4582  0.0995
  585MOL0     H78927   8.459   8.998   7.865  0.2544 -4.7272 -0.7602
  585MOL0     H78928   8.348   8.937   7.752 -0.0435 -0.4111  1.0530
  585MOL0     H78929   8.408   9.102   7.590  1.3457 -0.6675 -0.3195
  585MOL0     H78930   8.556   9.009   7.655  2.0360  1.9557 -0.9095
  585MOL0     H78931   8.648   9.191   7.778 -0.0981 -0.1379 -0.4139
  585MOL0     H78932   8.498   9.293   7.749 -0.4841  0.3582  0.3408
  585MOL0     H78933   8.571   9.339   7.543 -3.5497 -1.8104  1.4598
  585MOL0     H78934   8.666   9.177   7.531  1.0676 -0.6261  1.1169
  585MOL0     H78935   8.680   9.561   7.689 -1.6605  3.0732  0.3179
  585MOL0     H78936   8.758   9.860   7.649  3.2926 -1.4808  0.4402
  585MOL0     H78937   8.714   9.904   7.484  2.7545 -2.1174 -2.3898
  585MOL0     H78938   8.600   9.813   7.596  0.0723  1.9559  0.6090
  585MOL0     H78939   9.204   9.923   7.357  0.0427  0.4121  0.5625
  585MOL0     H78940   9.312  10.097   7.201  1.9945  4.4817  3.2686
  585MOL0     H78941   9.080  10.470   7.066  0.2587 -1.9465 -0.3436
  585MOL0     H78942   9.118  10.481   7.238 -2.4409  2.8885 -2.2889
  585MOL0     H78943   9.375  10.514   7.158  2.1563  0.4659 -3.5554
  585MOL0     H78944   9.315  10.528   6.996 -0.0972  0.9842 -1.2913
  585MOL0     H78945   9.350  10.710   7.206  0.3398 -2.0264  0.2501
  585MOL0     H78946   9.170  10.722   7.159  0.3975  1.5265  0.5209
  585MOL0     H78947   9.406  10.775   6.982 -1.2409  3.2054  0.0019
  585MOL0     H78948   9.252  10.752   6.911 -2.7589 -0.6166  1.0002
  585MOL0     H78949   9.157  10.931   7.008  0.0604 -0.5562 -5.8860
  585MOL0     H78950   9.314  10.958   6.923  1.2574 -0.7278  0.0454
  585MOL0     H78951   9.265  10.953   7.217  0.3066  3.7929  3.6596
  585MOL0     H78952   9.421  10.979   7.160 -1.3382  1.1233  2.3087
  585MOL0     H78953   9.311  11.181   7.235  1.0474  2.6554 -0.9724
  585MOL0     H78954   9.156  11.129   7.155 -0.4367 -1.5830  0.9243
  585MOL0     H78955   9.228  11.185   6.942 -0.3778 -1.2645  1.5126
  585MOL0     H78956   9.393  11.222   6.994 -0.8929  1.2126 -1.0518
  585MOL0     H78957   8.953  10.320   7.209  0.6952  0.3415 -0.5146
  585MOL0     H78958   8.838  10.141   7.341  0.8760  0.1015  0.2068
  585MOL0     H78959   8.941   9.547   7.270 -0.9602  1.2404 -1.8144
  585MOL0     H78960   8.879   9.341   7.413 -1.8077 -0.1670  0.9264
  585MOL0     H78961   8.373   9.004   8.864 -1.7904  0.1673  0.0220
  585MOL0     H78962   8.393   8.938   9.100  1.6427 -0.9092 -3.5054
  585MOL0     H78963   8.495   8.927   9.453 -1.9928 -1.2934 -0.1333
  585MOL0     H78964   8.552   8.816   9.666 -0.3239 -0.2136 -1.1530
  585MOL0     H78965   8.459   8.729   9.925 -0.9339  1.2438  1.5996
  585MOL0     H78966   8.622   8.758   9.867  2.3611 -1.4231  1.8640
  585MOL0     H78967   8.685   8.851  10.076  0.9358 -1.2736 -0.8756
  585MOL0     H78968   8.628   8.679  10.098 -2.9171 -1.2240  0.6770
  585MOL0     H78969   8.434   8.724  10.203  1.4384 -1.9095 -0.2029
  585MOL0     H78970   8.434   8.896  10.175  1.1259 -0.3214 -1.2193
  585MOL0     H78971   8.599   8.941  10.328 -0.0115  0.6499 -2.4360
  585MOL0     H78972   8.657   8.784  10.332 -0.6500  0.3880 -3.8085
  585MOL0     H78973   8.374   8.749  10.631  0.3119 -2.4185 -1.4803
  585MOL0     H78974   8.378   9.150   9.883  0.2614 -1.8003  1.6306
  585MOL0     H78975   8.343   9.266   9.678 -1.7315 -0.5509  2.5055
  586MOL0     O78976   4.728   8.611  11.356  1.2104 -0.3875  0.5183
  586MOL0     C78977   4.802   8.707  11.379 -0.3494 -0.1943  0.3523
  586MOL0     O78978   4.767   8.836  11.422  0.0139 -0.0289  0.0863
  586MOL0     C78979   4.636   8.885  11.425 -0.5546 -1.5273 -0.7830
  586MOL0     C78980   4.515   8.821  11.401  0.3177 -0.6029  0.2083
  586MOL0     C78981   4.395   8.901  11.392 -1.2698 -0.3031 -0.2548
  586MOL0     C78982   4.394   9.038  11.431 -1.5098 -0.4534 -0.6654
  586MOL0     O78983   4.279   9.120  11.427 -0.4694  0.3310  0.5891
  586MOL0     C78984   4.156   9.074  11.369 -0.7183 -0.5942 -0.1090
  586MOL0     C78985   4.046   9.183  11.381 -0.4690  0.5590 -1.2406
  586MOL0     C78986   4.095   9.324  11.339 -0.0724 -0.0092 -0.1052
  586MOL0     C78987   3.982   9.419  11.324 -0.4588 -0.2191 -0.4443
  586MOL0     C78988   4.030   9.561  11.372 -0.1310  0.2986 -0.1113
  586MOL0     C78989   3.939   9.672  11.321  0.4618 -0.7261 -0.2925
  586MOL0     C78990   3.792   9.649  11.369 -0.3331 -0.1873  0.5243
  586MOL0     C78991   3.707   9.787  11.351 -0.8664 -0.3729 -0.4685
  586MOL0     N78992   3.737   9.854  11.228  0.0752  0.5328  1.1139
  586MOL0     C78993   3.714   9.793  11.111  0.1289 -0.4543  0.3393
  586MOL0     C78994   3.761   9.867  11.016 -0.0368 -0.3665  0.2718
  586MOL0     C78995   3.742   9.831  10.863  0.3429 -0.1987  0.2368
  586MOL0     C78996   3.599   9.857  10.812  0.1688 -1.0334 -0.7879
  586MOL0     C78997   3.556  10.002  10.832  0.6359  0.4925  0.1070
  586MOL0     C78998   3.436  10.022  10.749 -0.8351  0.3483 -0.0950
  586MOL0     O78999   3.367  10.129  10.812  0.4477 -0.4193 -0.3021
  586MOL0     C79000   3.238  10.157  10.784 -0.6369 -0.4315  1.0371
  586MOL0     C79001   3.174  10.118  10.671 -0.5252 -0.3129  0.7547
  586MOL0     C79002   3.034  10.143  10.645 -0.0447  0.0915  0.7537
  586MOL0     C79003   2.963  10.090  10.519 -0.4093 -0.3849  0.4282
  586MOL0     C79004   2.965  10.224  10.739  1.3382  0.1475  0.3369
  586MOL0     C79005   2.824  10.277  10.713  0.3019 -0.4004  0.0854
  586MOL0     O79006   2.777  10.343  10.818 -0.2721  0.2434  0.1200
  586MOL0     C79007   2.706  10.459  10.802  0.2428  1.2093 -0.0108
  586MOL0     C79008   2.766  10.581  10.829  0.5779  0.0723 -0.8899
  586MOL0     C79009   2.695  10.696  10.818  0.3228  0.0636  0.0082
  586MOL0     C79010   2.559  10.699  10.765 -1.2540  0.4797  0.2736
  586MOL0     O79011   2.504  10.823  10.746 -0.0420 -0.3796 -0.6917
  586MOL0     C79012   2.383  10.845  10.682  0.6860 -0.0145  0.2074
  586MOL0     C79013   2.341  10.994  10.695  0.2773  0.1396 -0.6393
  586MOL0     C79014   2.433  11.095  10.626 -1.5250  0.0153  0.6323
  586MOL0     C79015   2.373  11.237  10.625 -0.9495 -0.8523 -0.1854
  586MOL0     C79016   2.400  11.310  10.486 -0.1802  0.5398 -0.2335
  586MOL0     C79017   2.327  11.445  10.490 -0.0746  0.0757 -0.6893
  586MOL0     C79018   2.369  11.541  10.373 -0.5398 -0.3299  0.4194
  586MOL0     C79019   2.286  11.659  10.366 -1.0145 -0.7854  0.1082
  586MOL0    Cl79020   2.292  11.763  10.515  0.0562  0.1712 -0.1706
  586MOL0     C79021   2.502  10.572  10.748 -0.2108 -0.3107  0.3709
  586MOL0     C79022   2.576  10.449  10.763  0.8095  0.1761  0.4378
  586MOL0     O79023   2.775  10.271  10.600  0.2248 -0.8095 -0.0069
  586MOL0     C79024   3.032  10.263  10.853  0.0451  0.6667 -1.0952
  586MOL0     C79025   3.166  10.230  10.870  0.3911 -0.1427  0.5458
  586MOL0     N79026   3.830   9.981  11.068 -0.6638  0.0209  0.4855
  586MOL0     N79027   3.807   9.963  11.193 -0.5951 -0.0574 -0.1026
  586MOL0     C79028   4.513   9.092  11.464 -0.9381 -0.3195  0.3106
  586MOL0     C79029   4.626   9.017  11.463 -0.2754  0.3985 -0.2185
  586MOL0     C79030   4.935   8.683  11.325 -0.8613  0.1151  0.3115
  586MOL0     C79031   5.033   8.783  11.321 -0.9104 -0.1897 -0.1135
  586MOL0     C79032   5.164   8.761  11.271 -0.1990  0.4091  0.1622
  586MOL0     C79033   5.194   8.643  11.202 -0.5182 -0.8209 -0.6602
  586MOL0     O79034   5.315   8.624  11.140  0.0221  0.6345 -0.8524
  586MOL0     C79035   5.406   8.742  11.134 -0.1844 -0.3099  0.1209
  586MOL0     C79036   5.537   8.700  11.066  0.3754  0.2855  0.9440
  586MOL0     C79037   5.604   8.577  11.137 -0.3546  0.0925 -0.8367
  586MOL0     C79038   5.712   8.504  11.053 -0.4919 -0.2876  0.2340
  586MOL0     C79039   5.845   8.563  11.069  0.1972  0.5306  0.0686
  586MOL0     C79040   5.953   8.620  11.068  0.0141 -0.0498  0.1527
  586MOL0     C79041   5.096   8.549  11.192 -0.6344 -1.2153 -0.2181
  586MOL0     C79042   4.968   8.564  11.247 -0.3221 -0.0741  0.9720
  586MOL0     H79043   4.512   8.715  11.379  3.1145 -0.7756  0.3199
  586MOL0     H79044   4.299   8.851  11.384 -0.1296 -2.5402 -0.9089
  586MOL0     H79045   4.173   9.054  11.263  1.4784 -0.1553  0.1129
  586MOL0     H79046   4.119   8.987  11.424  1.7280 -0.1175  2.4985
  586MOL0     H79047   3.968   9.156  11.309 -1.6648 -2.7268  1.0239
  586MOL0     H79048   3.995   9.188  11.478  0.6520  2.3782 -0.7074
  586MOL0     H79049   4.159   9.365  11.418  0.5426  1.4054 -1.2857
  586MOL0     H79050   4.154   9.320  11.247  1.4901 -0.8295  0.9022
  586MOL0     H79051   3.967   9.426  11.216 -0.8898  1.1883 -0.3076
  586MOL0     H79052   3.888   9.394  11.374 -1.5839  3.8059 -0.2504
  586MOL0     H79053   4.032   9.552  11.481 -0.0009 -2.9359 -0.2958
  586MOL0     H79054   4.130   9.575  11.331  0.2246 -0.0987  0.6134
  586MOL0     H79055   3.970   9.764  11.371 -2.1558  0.0648  0.0136
  586MOL0     H79056   3.940   9.683  11.212  3.8032 -4.5698 -0.9054
  586MOL0     H79057   3.750   9.574  11.302  0.8126 -1.3911  1.1131
  586MOL0     H79058   3.781   9.618  11.473  1.5356 -3.1249 -0.0345
  586MOL0     H79059   3.725   9.867  11.424 -1.5050 -1.0454  0.4399
  586MOL0     H79060   3.603   9.757  11.362  0.1344 -3.3712  2.5361
  586MOL0     H79061   3.653   9.706  11.087  0.2905 -0.6197  0.5252
  586MOL0     H79062   3.804   9.892  10.796  1.1580 -3.7122 -2.4942
  586MOL0     H79063   3.771   9.729  10.837 -2.4212 -0.2671 -3.4443
  586MOL0     H79064   3.536   9.802  10.883 -0.4183  1.1077  0.4456
  586MOL0     H79065   3.582   9.832  10.707  0.9175  2.3323 -1.7992
  586MOL0     H79066   3.624  10.079  10.793 -0.0377  1.5845  1.0132
  586MOL0     H79067   3.530  10.019  10.937  1.6137  1.0546  0.2783
  586MOL0     H79068   3.369   9.936  10.738  0.4575 -0.7355  0.2381
  586MOL0     H79069   3.458  10.054  10.647 -1.8117  2.8361  0.3881
  586MOL0     H79070   3.232  10.072  10.591 -0.3108  2.6652 -0.9609
  586MOL0     H79071   2.916  10.168  10.458 -1.0678  0.2136  1.6528
  586MOL0     H79072   3.040  10.034  10.465 -0.3916 -0.3471  0.4149
  586MOL0     H79073   2.886  10.024  10.561 -0.9040  1.4158  2.5398
  586MOL0     H79074   2.867  10.588  10.866 -0.6470  0.1005  2.9101
  586MOL0     H79075   2.737  10.789  10.854 -1.2644  0.7007  0.2855
  586MOL0     H79076   2.411  10.818  10.579  0.2852 -3.5256  0.8760
  586MOL0     H79077   2.304  10.782  10.725  1.0969 -0.2241  0.6675
  586MOL0     H79078   2.241  11.017  10.658 -0.6290 -1.2977  0.7836
  586MOL0     H79079   2.342  11.012  10.803 -0.3893 -4.3146  0.2883
  586MOL0     H79080   2.447  11.056  10.524  3.5365 -1.6927  1.7186
  586MOL0     H79081   2.526  11.098  10.683 -1.7280 -0.6007  1.0096
  586MOL0     H79082   2.267  11.231  10.652 -0.1749 -4.7971  2.8905
  586MOL0     H79083   2.419  11.292  10.707  0.2316 -0.8079 -0.8579
  586MOL0     H79084   2.361  11.253  10.401  2.7051  0.4831 -1.6348
  586MOL0     H79085   2.505  11.328  10.464 -0.6436  2.2912 -1.1967
  586MOL0     H79086   2.220  11.423  10.488 -0.2973 -1.2574  5.3480
  586MOL0     H79087   2.333  11.497  10.586 -3.4969  2.4945 -1.5805
  586MOL0     H79088   2.354  11.489  10.278  1.8941  2.2326 -1.5428
  586MOL0     H79089   2.470  11.582  10.382 -0.1103 -1.4030  0.5590
  586MOL0     H79090   2.181  11.640  10.340 -0.2990 -5.7813 -0.2008
  586MOL0     H79091   2.322  11.716  10.280 -3.4717 -2.3583 -2.1035
  586MOL0     H79092   2.398  10.572  10.719 -0.7922 -0.4084  2.3357
  586MOL0     H79093   2.525  10.358  10.733  1.5073 -0.6227  1.5890
  586MOL0     H79094   2.975  10.314  10.930 -2.0489 -0.6163 -1.7392
  586MOL0     H79095   3.213  10.266  10.961  2.3645  2.8628 -1.4908
  586MOL0     H79096   4.494   9.194  11.497 -1.8034 -0.0205 -1.0397
  586MOL0     H79097   4.717   9.059  11.504  1.0649 -3.1273  0.8135
  586MOL0     H79098   5.012   8.881  11.362  0.4654  0.0081  0.1692
  586MOL0     H79099   5.239   8.839  11.275 -0.7220  0.9218  0.0262
  586MOL0     H79100   5.356   8.830  11.093  0.8886  1.3060  2.1462
  586MOL0     H79101   5.433   8.770  11.236  0.3806 -1.5310  0.3310
  586MOL0     H79102   5.615   8.777  11.070  3.2264 -2.4383  1.5202
  586MOL0     H79103   5.511   8.672  10.963 -3.0060 -0.2278  1.8385
  586MOL0     H79104   5.534   8.502  11.172 -0.9361  1.9975  2.5206
  586MOL0     H79105   5.652   8.619  11.226  0.5481  1.1771 -1.7864
  586MOL0     H79106   5.693   8.517  10.946  3.9153  1.6055 -0.5802
  586MOL0     H79107   5.700   8.397  11.069 -2.8479 -0.7036 -3.3335
  586MOL0     H79108   6.056   8.647  11.060 -0.3000  1.4838  0.9795
  586MOL0     H79109   5.109   8.452  11.145  1.1945 -0.1855 -2.0072
  586MOL0     H79110   4.894   8.486  11.241 -0.0432 -0.3191  0.6417
  587MOL0     O79111   4.702   0.909   8.106  0.2260  0.3820 -0.1434
  587MOL0     C79112   4.743   0.806   8.056  0.3051 -0.0219  0.4511
  587MOL0     O79113   4.682   0.734   7.953  0.2508 -0.3590 -0.4223
  587MOL0     C79114   4.548   0.752   7.940  0.6628  0.1595 -0.2077
  587MOL0     C79115   4.459   0.650   7.966  0.4503  0.0523 -0.1923
  587MOL0     C79116   4.314   0.667   7.962 -0.5114  0.2020 -0.0257
  587MOL0     C79117   4.258   0.789   7.936 -0.4223 -1.5736  1.0764
  587MOL0     O79118   4.123   0.828   7.950 -0.0357 -0.0222 -0.2133
  587MOL0     C79119   4.065   0.794   8.077 -0.7108 -0.4004  0.0806
  587MOL0     C79120   3.909   0.815   8.083  1.1534 -0.3412  0.0493
  587MOL0     C79121   3.865   0.953   8.015  0.2476 -0.2964 -0.0272
  587MOL0     C79122   3.788   1.026   8.123  0.2330  0.3864  1.1302
  587MOL0     C79123   3.746   1.154   8.066 -0.2067  0.2507  0.4087
  587MOL0     C79124   3.696   1.235   8.187  0.8485 -0.8113  1.3841
  587MOL0     C79125   3.652   1.379   8.148 -0.8815 -1.2498 -0.3201
  587MOL0     C79126   3.579   1.452   8.264 -0.4109  0.1389  0.1603
  587MOL0     N79127   3.656   1.446   8.389 -0.5652 -0.2496  0.7377
  587MOL0     C79128   3.762   1.531   8.417 -0.0647 -0.8369 -0.9404
  587MOL0     C79129   3.798   1.493   8.541 -0.6222 -0.7541 -0.4395
  587MOL0     C79130   3.906   1.548   8.622 -1.0663 -0.4308 -0.6063
  587MOL0     C79131   4.030   1.459   8.624  0.4077 -0.4575  0.2844
  587MOL0     C79132   4.142   1.514   8.727 -0.3579  0.5498 -0.7504
  587MOL0     C79133   4.280   1.455   8.699  0.2262  0.0786 -1.1332
  587MOL0     O79134   4.269   1.315   8.731 -0.9067  0.3676 -0.1907
  587MOL0     C79135   4.351   1.279   8.839 -0.6313 -0.0491  0.0423
  587MOL0     C79136   4.293   1.279   8.957 -0.5578 -0.3279  0.8715
  587MOL0     C79137   4.353   1.239   9.073  0.3157  1.1930 -1.3294
  587MOL0     C79138   4.264   1.254   9.196  0.0642  0.1761 -0.1573
  587MOL0     C79139   4.483   1.177   9.072 -0.3419  0.1104  0.0826
  587MOL0     C79140   4.554   1.140   9.194  0.4621  0.3598 -0.7040
  587MOL0     O79141   4.688   1.126   9.183 -0.1891 -0.1353  0.5041
  587MOL0     C79142   4.757   1.101   9.298  0.5899  0.0916  0.5873
  587MOL0     C79143   4.734   1.169   9.419 -0.9354  0.5495 -0.4046
  587MOL0     C79144   4.768   1.114   9.538  0.0365 -0.8385  0.6045
  587MOL0     C79145   4.855   1.011   9.552 -0.2052 -0.5116  0.1433
  587MOL0     O79146   4.890   0.978   9.681 -0.6519 -0.6404 -0.2009
  587MOL0     C79147   5.015   0.908   9.702 -0.3582  0.8339  0.8370
  587MOL0     C79148   5.026   0.758   9.720 -0.0116  1.0506  0.0004
  587MOL0     C79149   4.916   0.690   9.799  0.2558 -0.2682 -0.0762
  587MOL0     C79150   4.950   0.540   9.821 -0.1550  0.3214 -0.4002
  587MOL0     C79151   4.836   0.451   9.874 -0.1692 -0.5782 -0.9252
  587MOL0     C79152   4.907   0.314   9.905  1.2128 -0.2503 -0.4704
  587MOL0     C79153   4.807   0.206   9.935 -0.0714  0.2582 -0.9593
  587MOL0     C79154   4.701   0.232  10.046  0.1991 -0.1015 -0.4313
  587MOL0    Cl79155   4.779   0.181  10.196  0.7060 -0.1067 -0.1726
  587MOL0     C79156   4.883   0.938   9.434  0.2552 -0.6503 -0.8747
  587MOL0     C79157   4.828   0.982   9.314 -0.2514  0.3832 -0.9808
  587MOL0     O79158   4.487   1.119   9.299  0.7627  0.4126 -0.5323
  587MOL0     C79159   4.542   1.189   8.948 -0.9974 -1.1255 -0.1642
  587MOL0     C79160   4.477   1.226   8.827 -0.4423  0.2784 -0.4137
  587MOL0     N79161   3.725   1.397   8.586  0.1120  0.1331 -0.1688
  587MOL0     N79162   3.649   1.359   8.492 -1.0349  0.2063 -0.0706
  587MOL0     C79163   4.353   0.891   7.885 -0.0446  0.0376  0.3248
  587MOL0     C79164   4.497   0.873   7.889  0.0088 -0.5048 -0.1192
  587MOL0     C79165   4.877   0.770   8.104  0.1794 -0.4645 -0.5359
  587MOL0     C79166   4.935   0.837   8.218 -0.5089  0.4290  0.3474
  587MOL0     C79167   5.063   0.808   8.274  0.3229  0.3268 -0.4934
  587MOL0     C79168   5.132   0.692   8.215 -0.0777 -0.1174  0.5184
  587MOL0     O79169   5.256   0.640   8.246 -0.2450 -0.2150 -0.0641
  587MOL0     C79170   5.317   0.684   8.364 -0.0437 -0.9152 -0.7223
  587MOL0     C79171   5.232   0.613   8.479 -0.9434  0.2657  0.2062
  587MOL0     C79172   5.240   0.464   8.479  1.1311 -1.4652 -0.0335
  587MOL0     C79173   5.125   0.383   8.399 -0.5684  0.1262  0.1746
  587MOL0     C79174   4.992   0.369   8.472 -0.8669  0.8846 -0.4085
  587MOL0     C79175   4.900   0.357   8.547 -0.3978  0.0119 -0.4110
  587MOL0     C79176   5.081   0.639   8.091 -0.2685  0.1066 -0.2267
  587MOL0     C79177   4.952   0.671   8.041 -0.3726 -0.5453 -0.1220
  587MOL0     H79178   4.499   0.550   7.981  0.3663 -0.0294 -0.4890
  587MOL0     H79179   4.250   0.580   7.978 -0.0189 -0.6342 -2.2458
  587MOL0     H79180   4.087   0.693   8.114  0.7468 -0.2800 -0.3599
  587MOL0     H79181   4.121   0.857   8.148 -2.2277 -0.6483  1.5552
  587MOL0     H79182   3.864   0.734   8.025  1.3194 -1.2633  1.1685
  587MOL0     H79183   3.865   0.800   8.182  2.7145 -2.1025  0.5334
  587MOL0     H79184   3.954   1.016   8.012 -2.8183  4.4727 -0.7852
  587MOL0     H79185   3.804   0.948   7.924 -0.3916  0.7581  0.3371
  587MOL0     H79186   3.705   0.957   8.139  2.4441 -2.9040 -0.5190
  587MOL0     H79187   3.837   1.048   8.219  0.3884  0.0170  1.1357
  587MOL0     H79188   3.830   1.209   8.024  0.5233 -2.0182 -1.2861
  587MOL0     H79189   3.662   1.146   7.997  0.2086  3.5344 -0.6390
  587MOL0     H79190   3.607   1.189   8.230 -0.6141  0.0490 -0.5677
  587MOL0     H79191   3.769   1.242   8.268 -0.2337  0.2990  2.2963
  587MOL0     H79192   3.737   1.438   8.113 -1.5070 -1.0480 -1.5400
  587MOL0     H79193   3.581   1.376   8.065  0.5143 -1.6656 -1.5280
  587MOL0     H79194   3.494   1.389   8.292 -0.0049 -0.7609 -0.5735
  587MOL0     H79195   3.551   1.552   8.230  1.9255  0.7061 -0.2871
  587MOL0     H79196   3.796   1.617   8.360 -2.1062  0.7380  0.0858
  587MOL0     H79197   3.917   1.650   8.584 -1.8029 -0.6392 -1.4140
  587MOL0     H79198   3.869   1.563   8.724 -0.0376  0.3887 -0.3320
  587MOL0     H79199   4.075   1.443   8.526 -0.7258 -0.8177 -0.1880
  587MOL0     H79200   3.991   1.362   8.656 -0.2290 -0.1562  0.4570
  587MOL0     H79201   4.107   1.490   8.828 -2.9774 -0.1886 -1.7295
  587MOL0     H79202   4.150   1.623   8.727  0.9865  0.4882 -2.1362
  587MOL0     H79203   4.368   1.500   8.746 -0.2067  1.8464 -1.9693
  587MOL0     H79204   4.290   1.465   8.591  0.8783 -0.0674 -1.0924
  587MOL0     H79205   4.190   1.313   8.960 -1.0340 -1.5141 -0.6949
  587MOL0     H79206   4.163   1.293   9.179  0.1552  1.6088  2.2214
  587MOL0     H79207   4.245   1.151   9.227 -0.3350  1.2205  3.4628
  587MOL0     H79208   4.308   1.305   9.282 -1.2520 -3.2089  2.7599
  587MOL0     H79209   4.667   1.253   9.433 -1.4317  0.0663  0.1423
  587MOL0     H79210   4.743   1.159   9.634  1.7133 -0.3832  0.8615
  587MOL0     H79211   5.084   0.944   9.626 -1.6647  0.9065 -0.3493
  587MOL0     H79212   5.057   0.955   9.791 -2.2039  3.0278  0.6261
  587MOL0     H79213   5.036   0.719   9.619  2.0072  0.2749  0.4554
  587MOL0     H79214   5.122   0.733   9.765 -0.2017 -0.7154 -0.5056
  587MOL0     H79215   4.822   0.692   9.742  1.1865 -1.4338 -1.7449
  587MOL0     H79216   4.887   0.741   9.891 -1.2268  0.1330 -0.7270
  587MOL0     H79217   4.987   0.479   9.738 -0.4265 -2.3667  1.3274
  587MOL0     H79218   5.028   0.537   9.898 -3.7522 -2.9864  3.6576
  587MOL0     H79219   4.761   0.442   9.794  0.9845  1.9773 -2.4109
  587MOL0     H79220   4.779   0.499   9.954 -2.2584 -3.3616 -0.5869
  587MOL0     H79221   4.961   0.284   9.815  0.5578  2.2608 -1.7903
  587MOL0     H79222   4.970   0.320   9.994  0.7231 -1.7830  0.0076
  587MOL0     H79223   4.854   0.107   9.940 -0.2157  0.2528  2.4478
  587MOL0     H79224   4.743   0.204   9.846 -0.6917 -1.8519 -0.5147
  587MOL0     H79225   4.611   0.174  10.023 -1.3545  3.2000 -3.7122
  587MOL0     H79226   4.678   0.339  10.048 -0.3149 -0.0937 -2.8966
  587MOL0     H79227   4.950   0.853   9.433  1.3732  0.2009 -0.4115
  587MOL0     H79228   4.826   0.907   9.236 -2.7691 -1.7656  0.9907
  587MOL0     H79229   4.643   1.154   8.936 -0.6631 -0.1148 -0.3813
  587MOL0     H79230   4.526   1.201   8.734  1.1160 -0.6867  0.6119
  587MOL0     H79231   4.318   0.987   7.847  1.4286  0.7951  0.8114
  587MOL0     H79232   4.558   0.961   7.877  0.0116 -0.0172  2.7464
  587MOL0     H79233   4.871   0.907   8.271 -1.9023 -0.2792 -0.3377
  587MOL0     H79234   5.077   0.864   8.366 -3.5088  0.3413  0.2132
  587MOL0     H79235   5.422   0.659   8.377  0.4242  1.8514  1.6547
  587MOL0     H79236   5.313   0.793   8.366  3.2895 -0.5731 -3.5744
  587MOL0     H79237   5.131   0.655   8.483 -0.8857  0.2816  2.0110
  587MOL0     H79238   5.281   0.645   8.571  0.2443 -0.7966 -0.0204
  587MOL0     H79239   5.226   0.428   8.582 -2.2725  0.5223  0.3457
  587MOL0     H79240   5.342   0.443   8.446  0.4548 -1.0246 -2.5981
  587MOL0     H79241   5.158   0.280   8.382 -0.5077  0.5723 -2.8636
  587MOL0     H79242   5.105   0.432   8.304 -0.0365 -0.1858 -0.1005
  587MOL0     H79243   4.817   0.339   8.612 -0.3549 -0.5425 -0.5087
  587MOL0     H79244   5.138   0.559   8.043 -0.2859  0.5587 -1.0104
  587MOL0     H79245   4.922   0.622   7.949 -0.2263  0.8797 -0.9663
  588MOL0     O79246   2.609   1.506   1.116  0.1443  0.6735  0.0332
  588MOL0     C79247   2.542   1.588   1.050  1.0515  0.7054 -0.4509
  588MOL0     O79248   2.543   1.609   0.914 -0.6434  0.2256  0.7247
  588MOL0     C79249   2.619   1.532   0.825  0.8595  0.1909 -0.6210
  588MOL0     C79250   2.681   1.602   0.731 -0.8530 -0.1540  0.2584
  588MOL0     C79251   2.744   1.529   0.631 -0.3680  0.3907 -0.0177
  588MOL0     C79252   2.754   1.392   0.637  0.1021 -0.4136 -0.9518
  588MOL0     O79253   2.830   1.323   0.551 -0.1830 -0.3265 -0.2612
  588MOL0     C79254   2.769   1.263   0.432 -0.9509 -0.4552 -0.0989
  588MOL0     C79255   2.876   1.224   0.326 -0.2403  1.0058 -0.0261
  588MOL0     C79256   2.977   1.116   0.381 -0.3973  1.1982 -0.1608
  588MOL0     C79257   3.089   1.110   0.292 -0.9327  0.3164  0.4515
  588MOL0     C79258   3.209   1.029   0.351 -0.4778 -0.0864 -0.2653
  588MOL0     C79259   3.336   1.037   0.258  0.2474  0.0083 -0.6759
  588MOL0     C79260   3.442   0.925   0.304  0.3444 -0.2612  0.3264
  588MOL0     C79261   3.531   0.981   0.420 -0.8920  0.3245 -0.4688
  588MOL0     N79262   3.650   0.903   0.462 -0.1794 -0.1959  1.0262
  588MOL0     C79263   3.639   0.774   0.509 -1.1474 -0.3995 -1.0994
  588MOL0     C79264   3.761   0.743   0.559  0.4452  0.0073  0.6012
  588MOL0     C79265   3.795   0.609   0.627 -0.0741  0.2716 -0.1070
  588MOL0     C79266   3.786   0.491   0.524  0.2606 -0.2359 -0.2536
  588MOL0     C79267   3.906   0.486   0.416 -0.0169 -0.1887 -0.0570
  588MOL0     C79268   4.031   0.418   0.475 -0.6408  0.4477  0.4256
  588MOL0     O79269   4.146   0.424   0.385  0.7982  0.2364 -0.1373
  588MOL0     C79270   4.211   0.543   0.367  0.8816 -0.8154 -0.3095
  588MOL0     C79271   4.236   0.632   0.470 -0.8187 -0.2460 -0.2763
  588MOL0     C79272   4.309   0.747   0.439 -0.2314  1.2361  0.2229
  588MOL0     C79273   4.324   0.832   0.557  0.7026 -1.0603 -0.9673
  588MOL0     C79274   4.361   0.775   0.307  1.1560  0.0852 -0.5906
  588MOL0     C79275   4.424   0.908   0.261  0.5069  0.5399  0.9428
  588MOL0     O79276   4.510   0.894   0.154  0.5769 -0.0513 -0.5957
  588MOL0     C79277   4.595   0.998   0.111  0.3649  0.0955  0.4186
  588MOL0     C79278   4.667   1.079   0.189 -0.4165  0.1980 -0.4527
  588MOL0     C79279   4.756   1.178   0.134  0.7346 -0.1633 -0.0546
  588MOL0     C79280   4.767   1.185  -0.008 -0.9499  0.0592  0.2895
  588MOL0     O79281   4.861   1.266  -0.059 -0.0786 -0.2089  0.7430
  588MOL0     C79282   4.813   1.387  -0.132  0.3979  0.2026  0.6760
  588MOL0     C79283   4.800   1.511  -0.047  0.4018  0.7276  0.5109
  588MOL0     C79284   4.942   1.557   0.003  0.7900  0.8961  0.3482
  588MOL0     C79285   4.930   1.697   0.061  0.3934 -0.0492 -0.0477
  588MOL0     C79286   5.065   1.783   0.074  0.7224 -0.1119 -0.3148
  588MOL0     C79287   5.059   1.911   0.161  0.5459 -0.8259  0.0733
  588MOL0     C79288   4.984   2.022   0.084  0.2071  0.2570  0.0347
  588MOL0     C79289   4.952   2.141   0.171  0.3072 -0.6330  0.1409
  588MOL0    Cl79290   5.100   2.219   0.223  0.0567  0.5778 -0.0811
  588MOL0     C79291   4.691   1.106  -0.089  1.0324 -0.1240  0.6168
  588MOL0     C79292   4.604   1.011  -0.031 -0.7738  0.3851 -0.0409
  588MOL0     O79293   4.398   1.017   0.317 -0.5793  0.7623  0.8878
  588MOL0     C79294   4.329   0.682   0.211 -1.3068  0.7395  0.5749
  588MOL0     C79295   4.243   0.578   0.234 -0.4165 -0.6904 -0.6778
  588MOL0     N79296   3.835   0.864   0.551  0.7310  0.2683 -0.9570
  588MOL0     N79297   3.777   0.953   0.483  0.1123  0.1381 -0.4864
  588MOL0     C79298   2.678   1.322   0.734 -0.3639  0.3186 -0.8586
  588MOL0     C79299   2.603   1.385   0.832  0.5789 -0.6966  0.9692
  588MOL0     C79300   2.451   1.675   1.126  0.6222 -0.9390 -0.0057
  588MOL0     C79301   2.427   1.653   1.254  0.3204 -0.2093 -0.5173
  588MOL0     C79302   2.366   1.751   1.333  0.1325  0.1785  0.8140
  588MOL0     C79303   2.333   1.875   1.281  0.1626  0.4044 -0.1977
  588MOL0     O79304   2.283   1.978   1.347 -0.2913  0.8319  0.1537
  588MOL0     C79305   2.288   1.972   1.490  0.1610  0.0239  0.1018
  588MOL0     C79306   2.218   2.092   1.553  0.1172  0.0916 -0.7179
  588MOL0     C79307   2.230   2.097   1.703 -0.4067 -0.2859  0.2070
  588MOL0     C79308   2.362   2.143   1.753 -0.4246 -0.3217  1.1104
  588MOL0     C79309   2.377   2.134   1.897  1.4359  0.5095 -0.8628
  588MOL0     C79310   2.389   2.107   2.016 -0.6047 -0.2294  0.6077
  588MOL0     C79311   2.342   1.890   1.138 -0.9970  0.3087  0.0971
  588MOL0     C79312   2.399   1.792   1.061  0.1630 -0.1076  0.1666
  588MOL0     H79313   2.669   1.710   0.733  1.2007  0.1001  1.1877
  588MOL0     H79314   2.801   1.572   0.549  2.3222  0.3345  1.6959
  588MOL0     H79315   2.706   1.180   0.466 -1.5638 -0.2755 -0.7665
  588MOL0     H79316   2.701   1.327   0.376 -1.8233 -0.8341  0.5005
  588MOL0     H79317   2.828   1.180   0.238 -3.6183  0.9625  1.6476
  588MOL0     H79318   2.921   1.315   0.285 -1.3778  0.8013 -1.8604
  588MOL0     H79319   2.998   1.132   0.488 -1.2468 -2.8088  0.7655
  588MOL0     H79320   2.937   1.015   0.389 -1.2490  1.6502  2.9229
  588MOL0     H79321   3.060   1.073   0.193 -1.1523  0.1827  0.5641
  588MOL0     H79322   3.115   1.210   0.257 -0.2881 -1.0010 -3.3782
  588MOL0     H79323   3.237   1.056   0.453 -1.3294 -3.9088  1.1539
  588MOL0     H79324   3.189   0.922   0.354  2.2445 -0.6445  2.6968
  588MOL0     H79325   3.314   1.024   0.152 -0.6172 -3.3967 -0.1863
  588MOL0     H79326   3.369   1.142   0.262 -0.1222  0.2016 -2.1514
  588MOL0     H79327   3.384   0.836   0.327 -3.8613  1.4108 -2.5308
  588MOL0     H79328   3.507   0.904   0.219 -1.1727 -0.6385 -0.7679
  588MOL0     H79329   3.467   0.990   0.508 -0.1150 -2.5578  0.5064
  588MOL0     H79330   3.563   1.084   0.402 -1.0304  0.2577 -1.1343
  588MOL0     H79331   3.551   0.711   0.514 -0.9669 -0.6127 -0.5290
  588MOL0     H79332   3.891   0.630   0.675  0.5931  1.1331 -1.7212
  588MOL0     H79333   3.707   0.600   0.691 -0.1861 -2.7464 -0.5315
  588MOL0     H79334   3.704   0.524   0.460 -0.1006  2.1610  1.3198
  588MOL0     H79335   3.765   0.396   0.573 -0.5695 -0.9167 -1.8572
  588MOL0     H79336   3.933   0.589   0.395 -1.3135 -0.3525 -2.9042
  588MOL0     H79337   3.878   0.436   0.323  0.2723 -2.7072  1.1085
  588MOL0     H79338   4.017   0.311   0.495 -0.3825  0.0100 -1.4830
  588MOL0     H79339   4.063   0.465   0.568  1.5105  1.0896 -0.5685
  588MOL0     H79340   4.199   0.627   0.572  1.2550  1.9302  0.6539
  588MOL0     H79341   4.261   0.807   0.642  0.5810  1.8953 -0.0536
  588MOL0     H79342   4.429   0.832   0.586  0.6566 -1.2074 -0.8033
  588MOL0     H79343   4.284   0.933   0.538 -1.2325 -1.0984  2.1996
  588MOL0     H79344   4.664   1.077   0.297 -1.9190  4.3189 -0.2512
  588MOL0     H79345   4.821   1.233   0.201  3.8937 -3.2280 -0.2955
  588MOL0     H79346   4.863   1.412  -0.226 -1.5635 -0.0711 -0.4972
  588MOL0     H79347   4.719   1.375  -0.187  1.2208 -0.1925 -0.7283
  588MOL0     H79348   4.739   1.583  -0.103  0.8295  0.9493  0.3299
  588MOL0     H79349   4.734   1.493   0.039 -0.9011  2.3487 -0.0905
  588MOL0     H79350   5.021   1.563  -0.072 -0.5788  0.3385 -1.1995
  588MOL0     H79351   4.977   1.485   0.079  0.8732 -1.8205 -2.0913
  588MOL0     H79352   4.879   1.763  -0.009  1.6798  1.8963  0.7656
  588MOL0     H79353   4.862   1.688   0.146 -2.7999 -1.3117 -2.5199
  588MOL0     H79354   5.085   1.818  -0.028  0.7870 -1.2724 -0.7149
  588MOL0     H79355   5.146   1.722   0.114  1.2774  2.0360  2.0576
  588MOL0     H79356   5.010   1.884   0.255 -0.6074 -1.3246 -0.6492
  588MOL0     H79357   5.158   1.949   0.191  0.6806 -0.7510 -0.4547
  588MOL0     H79358   4.890   1.971   0.061  0.5080 -0.4563  0.3658
  588MOL0     H79359   5.041   2.051  -0.005  1.1418  2.2839  1.2396
  588MOL0     H79360   4.906   2.109   0.264 -0.6359 -4.8196 -1.5642
  588MOL0     H79361   4.885   2.208   0.116 -0.1469 -1.2916 -0.1070
  588MOL0     H79362   4.673   1.140  -0.191 -1.6024  1.3560  1.4881
  588MOL0     H79363   4.548   0.934  -0.084  1.4389 -2.0986  0.9942
  588MOL0     H79364   4.355   0.715   0.111  2.3733  0.2798  1.2349
  588MOL0     H79365   4.200   0.520   0.153 -0.8943  0.7829 -1.5205
  588MOL0     H79366   2.692   1.215   0.729 -0.8380  0.2998 -3.4275
  588MOL0     H79367   2.554   1.329   0.911 -1.5515 -0.0353  0.1696
  588MOL0     H79368   2.442   1.556   1.300 -3.5446 -1.3685 -1.3063
  588MOL0     H79369   2.353   1.716   1.434 -1.3853  1.3537  1.0625
  588MOL0     H79370   2.240   1.883   1.531  2.0418 -1.4963 -0.8928
  588MOL0     H79371   2.389   1.954   1.527 -0.3016 -2.3645  0.3235
  588MOL0     H79372   2.110   2.090   1.533 -0.8250  4.3715  2.3880
  588MOL0     H79373   2.259   2.184   1.511  0.4624 -0.7325 -2.2637
  588MOL0     H79374   2.200   2.002   1.748  0.5818  0.2434  2.1028
  588MOL0     H79375   2.149   2.163   1.734 -3.1437 -4.1334  1.9807
  588MOL0     H79376   2.377   2.245   1.718 -1.4085 -0.7965 -0.8096
  588MOL0     H79377   2.443   2.092   1.700  0.4889  2.6810 -0.5907
  588MOL0     H79378   2.425   2.098   2.116  1.0058  2.4833  0.3850
  588MOL0     H79379   2.309   1.977   1.082  2.1635  0.0167 -2.5291
  588MOL0     H79380   2.409   1.803   0.953  2.3084  1.5855  0.4638
  589MOL0     O79381   6.574   1.856   8.566  1.4308  0.5520  0.8623
  589MOL0     C79382   6.564   1.764   8.653 -0.2895 -0.2815 -0.0966
  589MOL0     O79383   6.519   1.636   8.628  0.0471  0.1011  0.1587
  589MOL0     C79384   6.485   1.589   8.505 -0.1772  0.1733  0.5346
  589MOL0     C79385   6.432   1.466   8.511  1.6563  1.1068 -0.0972
  589MOL0     C79386   6.368   1.411   8.401 -0.8116  0.1742  0.1382
  589MOL0     C79387   6.373   1.472   8.275 -0.0922  0.2711 -0.6178
  589MOL0     O79388   6.318   1.436   8.157  0.5076 -0.5148  0.3636
  589MOL0     C79389   6.215   1.345   8.163 -0.0543 -0.0022 -0.2241
  589MOL0     C79390   6.160   1.325   8.021 -0.4904 -0.3621  1.2311
  589MOL0     C79391   6.114   1.456   7.948  0.3710  0.4985 -0.2289
  589MOL0     C79392   6.215   1.552   7.896 -0.2447  0.9521 -0.3776
  589MOL0     C79393   6.156   1.679   7.839 -0.2728  0.5185 -0.2696
  589MOL0     C79394   6.070   1.651   7.724  1.0398 -0.6554  0.3850
  589MOL0     C79395   6.115   1.710   7.589  0.3341  0.2415 -0.4093
  589MOL0     C79396   6.243   1.648   7.540  0.2551 -0.0840 -0.2975
  589MOL0     N79397   6.270   1.697   7.413  0.4366  0.2578  0.2521
  589MOL0     C79398   6.340   1.801   7.379 -0.0473 -0.3895  0.0554
  589MOL0     C79399   6.370   1.793   7.250  0.1629  0.0249  0.2371
  589MOL0     C79400   6.462   1.877   7.165  0.2176 -0.2054  0.3932
  589MOL0     C79401   6.607   1.844   7.204 -0.7034  0.9530  0.3658
  589MOL0     C79402   6.713   1.884   7.107  0.1609 -0.1798  0.1711
  589MOL0     C79403   6.711   2.033   7.064 -0.0072 -0.6265  0.3942
  589MOL0     O79404   6.777   2.035   6.937  0.7814 -0.1800  0.4940
  589MOL0     C79405   6.790   2.150   6.860 -0.3015  0.3268  0.3076
  589MOL0     C79406   6.858   2.136   6.741  0.6456  0.9013  0.4470
  589MOL0     C79407   6.897   2.250   6.664  0.1752  0.6395 -1.2465
  589MOL0     C79408   6.979   2.221   6.542  0.1740 -0.5003 -0.1130
  589MOL0     C79409   6.858   2.377   6.718 -0.1531 -0.9010  0.5626
  589MOL0     C79410   6.865   2.504   6.642 -0.9110 -0.0756 -0.5355
  589MOL0     O79411   6.946   2.500   6.538 -0.0078 -0.2854 -0.3564
  589MOL0     C79412   6.982   2.623   6.487 -0.2714 -1.1076 -1.0421
  589MOL0     C79413   7.043   2.726   6.568 -1.1768 -0.5285 -0.3721
  589MOL0     C79414   7.093   2.848   6.511  1.0223  0.4797 -0.6119
  589MOL0     C79415   7.052   2.885   6.393  1.0374 -0.4183  0.4882
  589MOL0     O79416   7.062   3.014   6.343  0.4971  0.8687  0.0192
  589MOL0     C79417   7.184   3.082   6.343  0.3034 -0.3233 -1.3366
  589MOL0     C79418   7.164   3.233   6.378  0.1819  0.4677 -0.4429
  589MOL0     C79419   7.132   3.312   6.250 -0.7349 -0.1239  0.0855
  589MOL0     C79420   7.088   3.461   6.280 -0.4746 -0.2223 -0.5197
  589MOL0     C79421   6.940   3.478   6.332 -0.6446  0.0866 -0.0755
  589MOL0     C79422   6.914   3.604   6.405  0.3857 -0.5600 -0.1658
  589MOL0     C79423   6.769   3.626   6.440 -0.3219 -0.4697  0.0268
  589MOL0     C79424   6.744   3.775   6.470  0.3049 -0.1788  0.2818
  589MOL0    Cl79425   6.767   3.869   6.312  0.1611 -0.3514  0.0341
  589MOL0     C79426   6.981   2.787   6.315 -0.4681 -0.0000 -0.2773
  589MOL0     C79427   6.949   2.663   6.353  0.8263 -0.4610 -0.9366
  589MOL0     O79428   6.797   2.599   6.673 -1.0643 -0.4565  0.3330
  589MOL0     C79429   6.810   2.390   6.846  0.1922 -0.4249 -0.2333
  589MOL0     C79430   6.764   2.277   6.912  0.2545 -1.3192 -0.0417
  589MOL0     N79431   6.311   1.676   7.210 -0.2826 -0.1304 -0.0165
  589MOL0     N79432   6.250   1.619   7.301  0.5350  1.1086 -1.1237
  589MOL0     C79433   6.446   1.586   8.270 -0.4521 -0.6844 -0.9015
  589MOL0     C79434   6.514   1.642   8.384  0.2689  0.5271  0.7356
  589MOL0     C79435   6.590   1.803   8.784  0.0633  0.1144 -0.0493
  589MOL0     C79436   6.601   1.700   8.875 -0.3984  0.5390  0.3727
  589MOL0     C79437   6.596   1.732   9.006 -0.3230 -0.3178 -0.6937
  589MOL0     C79438   6.599   1.860   9.054 -0.4160 -0.4390  0.2177
  589MOL0     O79439   6.593   1.902   9.187 -0.1654  0.3345 -0.1674
  589MOL0     C79440   6.606   1.808   9.298 -0.1526  0.0083  0.2108
  589MOL0     C79441   6.474   1.766   9.351 -1.1774  1.4059 -0.3083
  589MOL0     C79442   6.493   1.690   9.472 -0.0222  0.3416  0.3244
  589MOL0     C79443   6.505   1.534   9.435 -0.4214  0.4783  0.2662
  589MOL0     C79444   6.378   1.487   9.374  0.0854 -0.7885 -0.6437
  589MOL0     C79445   6.268   1.457   9.331 -0.7647  0.3403 -0.0865
  589MOL0     C79446   6.606   1.961   8.960  0.8721 -0.2414 -0.2793
  589MOL0     C79447   6.614   1.936   8.828 -0.0858 -0.5278 -0.6635
  589MOL0     H79448   6.421   1.416   8.607 -0.3668  0.7992 -0.4419
  589MOL0     H79449   6.313   1.317   8.403 -1.3597  0.3788 -2.4425
  589MOL0     H79450   6.246   1.254   8.215  1.1099  1.4600  1.7928
  589MOL0     H79451   6.131   1.396   8.209  0.4113  0.1960  0.4213
  589MOL0     H79452   6.221   1.268   7.949 -1.3704  1.2942 -0.9464
  589MOL0     H79453   6.062   1.279   8.034 -1.5363  1.6395  0.8043
  589MOL0     H79454   6.048   1.412   7.873 -2.2937  0.3853  2.0388
  589MOL0     H79455   6.051   1.504   8.023 -0.4581 -0.2784 -0.4123
  589MOL0     H79456   6.283   1.583   7.976 -0.4308  6.3511 -1.9230
  589MOL0     H79457   6.267   1.503   7.813  2.1253  1.0138  0.9630
  589MOL0     H79458   6.095   1.720   7.920  0.1364  1.0235 -0.2142
  589MOL0     H79459   6.227   1.757   7.811  1.2950 -0.8174 -0.1441
  589MOL0     H79460   6.029   1.552   7.702  0.8495 -0.2993 -1.0042
  589MOL0     H79461   5.982   1.710   7.751  2.2956  1.6012 -0.2059
  589MOL0     H79462   6.032   1.687   7.521 -0.1322 -2.9144  1.0187
  589MOL0     H79463   6.134   1.817   7.591 -0.8884  0.5346 -2.2266
  589MOL0     H79464   6.236   1.539   7.548 -0.2188 -0.0962 -0.8292
  589MOL0     H79465   6.325   1.674   7.607  1.8309 -0.1681 -2.1135
  589MOL0     H79466   6.357   1.876   7.455  0.7695  2.4175 -2.6728
  589MOL0     H79467   6.446   1.876   7.057 -1.5091  1.9561  0.5363
  589MOL0     H79468   6.442   1.980   7.197 -0.6079 -0.2096 -0.0899
  589MOL0     H79469   6.621   1.736   7.217  1.5644  1.1197 -0.3015
  589MOL0     H79470   6.640   1.882   7.301 -0.6741 -2.3197  1.7655
  589MOL0     H79471   6.708   1.831   7.011  2.2855  1.7870 -1.1347
  589MOL0     H79472   6.812   1.870   7.151  0.2424  2.1184  0.8583
  589MOL0     H79473   6.767   2.094   7.135  0.1546 -1.3702  0.9115
  589MOL0     H79474   6.610   2.071   7.040  1.5382  0.5450 -6.2286
  589MOL0     H79475   6.887   2.037   6.707  0.2405 -0.2165  3.1060
  589MOL0     H79476   7.060   2.294   6.540  0.2195 -0.3891  2.6824
  589MOL0     H79477   7.019   2.119   6.538 -2.4352 -1.6222  0.1115
  589MOL0     H79478   6.912   2.235   6.456 -1.4213 -0.0540  1.1635
  589MOL0     H79479   7.063   2.701   6.672 -2.4780  2.7635  0.7903
  589MOL0     H79480   7.139   2.907   6.590 -1.5275  0.4997  0.9803
  589MOL0     H79481   7.253   3.038   6.415 -1.7187 -2.3059 -0.4990
  589MOL0     H79482   7.225   3.087   6.241  1.4293  2.8274 -0.8543
  589MOL0     H79483   7.096   3.257   6.460 -0.4455 -2.7235  0.0686
  589MOL0     H79484   7.261   3.270   6.413 -0.5250 -0.1903  2.4453
  589MOL0     H79485   7.053   3.270   6.187 -0.1194 -1.8781  0.4331
  589MOL0     H79486   7.217   3.310   6.181 -1.6932 -0.9514 -1.1119
  589MOL0     H79487   7.148   3.499   6.363 -2.5308 -0.3762  1.1237
  589MOL0     H79488   7.105   3.518   6.188 -0.2965  1.2423  0.3868
  589MOL0     H79489   6.911   3.395   6.397 -2.1002 -0.8098 -1.7784
  589MOL0     H79490   6.868   3.472   6.250  0.8695  1.3945 -1.5669
  589MOL0     H79491   6.987   3.607   6.486  0.5043  2.6971 -0.2704
  589MOL0     H79492   6.943   3.684   6.336  0.3872  0.3461  0.8629
  589MOL0     H79493   6.749   3.575   6.535 -0.6223  1.4596  1.0536
  589MOL0     H79494   6.690   3.589   6.374  0.8569  3.2675 -3.8806
  589MOL0     H79495   6.814   3.814   6.545 -1.9981  1.0305  1.9465
  589MOL0     H79496   6.646   3.782   6.518  1.0569  2.6904  1.6009
  589MOL0     H79497   6.947   2.819   6.217  1.5446  0.8726 -0.7416
  589MOL0     H79498   6.893   2.587   6.300  1.5592 -1.9913  0.4241
  589MOL0     H79499   6.794   2.493   6.877  0.4085  1.3706 -5.1820
  589MOL0     H79500   6.705   2.298   7.001  0.0522 -1.4757 -0.1373
  589MOL0     H79501   6.434   1.644   8.179 -4.4187 -3.4533 -2.4048
  589MOL0     H79502   6.567   1.735   8.365 -1.2970  0.8419 -3.0044
  589MOL0     H79503   6.591   1.595   8.847  1.7246 -0.5993  3.3875
  589MOL0     H79504   6.571   1.645   9.066  3.0905 -0.0400  1.4169
  589MOL0     H79505   6.655   1.713   9.274 -0.3489  0.2483 -1.2231
  589MOL0     H79506   6.649   1.864   9.382 -2.5639  1.8286  0.3623
  589MOL0     H79507   6.422   1.703   9.279 -1.1273  0.0102  0.8367
  589MOL0     H79508   6.429   1.862   9.378 -0.2370  1.1323  2.5582
  589MOL0     H79509   6.400   1.699   9.530 -1.8193 -3.1042 -1.6971
  589MOL0     H79510   6.581   1.707   9.535  1.3076 -1.0114 -1.1209
  589MOL0     H79511   6.519   1.472   9.524 -0.5193  2.9051  2.0933
  589MOL0     H79512   6.590   1.510   9.371  2.2900 -1.7148  4.2692
  589MOL0     H79513   6.175   1.423   9.288 -0.0036  1.5457 -2.8640
  589MOL0     H79514   6.611   2.064   8.996 -1.4385  0.1008 -0.7641
  589MOL0     H79515   6.640   2.021   8.767  1.1457  0.8828  1.7095
  590MOL0     O79516   2.106   9.743   4.229 -0.8249 -0.0745 -0.5378
  590MOL0     C79517   2.018   9.684   4.291  0.9808 -0.6387 -0.5847
  590MOL0     O79518   1.892   9.647   4.233  0.3529  0.1052 -0.0608
  590MOL0     C79519   1.880   9.685   4.100  0.2490 -0.3324  0.3768
  590MOL0     C79520   1.826   9.817   4.067  0.4236  0.8591  0.2529
  590MOL0     C79521   1.822   9.855   3.935  0.3913  0.3932  0.5188
  590MOL0     C79522   1.889   9.784   3.831  1.1468 -0.2874 -0.6093
  590MOL0     O79523   1.889   9.830   3.699  0.2074  0.4640  0.0879
  590MOL0     C79524   1.900   9.975   3.684 -0.5262  0.6151 -0.4125
  590MOL0     C79525   1.905  10.000   3.531  0.4400 -0.0500 -0.4189
  590MOL0     C79526   2.043   9.974   3.483  0.9465  0.4994  1.0581
  590MOL0     C79527   2.052   9.886   3.358 -0.4154  0.8105  0.0737
  590MOL0     C79528   1.982   9.945   3.227 -1.5164 -0.6092 -0.1341
  590MOL0     C79529   2.029  10.093   3.197 -0.2485 -0.6129  0.2126
  590MOL0     C79530   1.979  10.126   3.059  0.2457 -0.6770 -0.5093
  590MOL0     C79531   1.942  10.278   3.056  0.2538 -0.5080 -0.8513
  590MOL0     N79532   1.851  10.302   2.937 -0.2497  0.3667  0.3211
  590MOL0     C79533   1.837  10.225   2.822  0.0187 -0.3447  0.5952
  590MOL0     C79534   1.782  10.300   2.728 -0.1709 -0.7056  0.1814
  590MOL0     C79535   1.739  10.251   2.591 -0.1287  0.4604 -0.2568
  590MOL0     C79536   1.610  10.171   2.600 -0.0649  0.0875 -0.1939
  590MOL0     C79537   1.497  10.193   2.502 -0.0052  0.8608  0.1105
  590MOL0     C79538   1.553  10.190   2.353  0.7153  0.6573  0.6104
  590MOL0     O79539   1.620  10.316   2.315 -0.3169  0.6545  0.5266
  590MOL0     C79540   1.657  10.326   2.183  0.3064  0.2986 -0.1174
  590MOL0     C79541   1.654  10.456   2.127 -0.0350 -0.4964 -0.1166
  590MOL0     C79542   1.676  10.483   1.990  0.6111 -0.3907  0.5488
  590MOL0     C79543   1.680  10.629   1.946  0.1730  0.7625 -0.7490
  590MOL0     C79544   1.706  10.373   1.904  0.5942  0.2537  0.0097
  590MOL0     C79545   1.741  10.374   1.763 -0.5591 -1.1732 -0.3689
  590MOL0     O79546   1.762  10.257   1.699 -0.0481 -0.1493  0.8989
  590MOL0     C79547   1.793  10.241   1.570 -0.6380 -0.3864 -0.6733
  590MOL0     C79548   1.888  10.320   1.505 -0.5684 -1.2815  0.3833
  590MOL0     C79549   1.916  10.295   1.374 -0.2665  0.6296  0.4433
  590MOL0     C79550   1.850  10.191   1.304  0.3761  1.2477 -0.1446
  590MOL0     O79551   1.893  10.149   1.178 -0.3269  0.4414  0.0522
  590MOL0     C79552   1.804  10.082   1.087  0.3099  1.0094  0.6497
  590MOL0     C79553   1.855  10.124   0.947  0.2028 -0.6201 -0.5234
  590MOL0     C79554   1.969  10.032   0.896 -0.9644 -0.0698 -0.4150
  590MOL0     C79555   2.003  10.067   0.751 -0.8366  0.1599  0.8961
  590MOL0     C79556   2.138  10.004   0.701  1.0707 -0.6853  0.0988
  590MOL0     C79557   2.131   9.853   0.711  0.4280 -0.1327  0.3068
  590MOL0     C79558   2.251   9.789   0.644 -0.6450 -0.5174  1.0141
  590MOL0     C79559   2.256   9.633   0.620  0.4937  0.6511  0.1023
  590MOL0    Cl79560   2.311   9.543   0.767 -0.1948 -0.2540 -0.1418
  590MOL0     C79561   1.749  10.118   1.364  0.8588 -0.3183  1.0752
  590MOL0     C79562   1.721  10.146   1.501  0.3982  0.9018 -0.7398
  590MOL0     O79563   1.749  10.483   1.712  0.3785 -0.0859 -0.7481
  590MOL0     C79564   1.712  10.248   1.965  0.0567 -0.2147 -0.3245
  590MOL0     C79565   1.695  10.225   2.102  0.0541  0.1536 -0.3482
  590MOL0     N79566   1.750  10.420   2.786  1.0565 -0.1696 -0.7070
  590MOL0     N79567   1.802  10.425   2.906  0.3721  0.5495  0.4401
  590MOL0     C79568   1.952   9.657   3.866  1.0359 -0.6579  0.9382
  590MOL0     C79569   1.934   9.606   3.995  0.2620 -1.1309 -1.1179
  590MOL0     C79570   2.036   9.662   4.435 -0.2440 -0.7238 -0.4710
  590MOL0     C79571   1.932   9.603   4.506  0.0879 -0.5046 -0.3438
  590MOL0     C79572   1.952   9.575   4.641  0.9770  0.5346 -0.1196
  590MOL0     C79573   2.058   9.619   4.714  0.1258 -0.3128  0.0363
  590MOL0     O79574   2.056   9.589   4.852  0.3086 -1.0082 -0.2593
  590MOL0     C79575   2.129   9.679   4.941 -0.0139  0.3416 -0.2613
  590MOL0     C79576   2.112   9.621   5.082  0.8427 -0.3407  0.1876
  590MOL0     C79577   1.964   9.625   5.139 -0.7610  0.8113 -0.3815
  590MOL0     C79578   1.967   9.602   5.290 -0.7451  0.1572  0.4959
  590MOL0     C79579   1.832   9.604   5.354 -0.1767  0.2926  0.5501
  590MOL0     C79580   1.713   9.605   5.392 -0.6501  0.0903 -0.1842
  590MOL0     C79581   2.155   9.697   4.648 -0.2762 -0.6773  0.5057
  590MOL0     C79582   2.143   9.708   4.508 -1.2571 -0.7602 -0.4593
  590MOL0     H79583   1.798   9.884   4.147  1.1436  0.6038  0.7379
  590MOL0     H79584   1.759   9.941   3.918 -2.6957 -1.7344  0.3054
  590MOL0     H79585   1.816  10.033   3.723 -1.7078 -0.7155 -0.9318
  590MOL0     H79586   1.983  10.025   3.736  1.2352 -0.6840 -1.8109
  590MOL0     H79587   1.835   9.947   3.466  1.3188 -1.0078 -0.6056
  590MOL0     H79588   1.888  10.108   3.534 -2.4159 -0.4323  1.2950
  590MOL0     H79589   2.088  10.073   3.470  1.9473  0.0283  0.8471
  590MOL0     H79590   2.100   9.923   3.561  1.1702  1.7464  1.7345
  590MOL0     H79591   2.150   9.850   3.326 -1.7044 -3.0748  0.0330
  590MOL0     H79592   2.002   9.794   3.390  0.6996  0.1334 -0.0961
  590MOL0     H79593   2.022   9.884   3.146 -0.0928 -1.2505  0.9961
  590MOL0     H79594   1.873   9.940   3.231 -1.4578 -1.2029  1.0930
  590MOL0     H79595   1.976  10.162   3.263  2.2441  2.5674 -0.7818
  590MOL0     H79596   2.138  10.105   3.196 -0.2903 -0.2063 -0.4835
  590MOL0     H79597   2.053  10.117   2.979  0.7710 -0.2672 -0.0732
  590MOL0     H79598   1.882  10.077   3.046 -0.8309  1.7020 -2.2791
  590MOL0     H79599   2.031  10.341   3.050  0.0765 -0.3571 -1.9607
  590MOL0     H79600   1.876  10.315   3.135 -1.1439  0.4711 -2.4205
  590MOL0     H79601   1.870  10.122   2.810  1.9608  0.5536 -4.9525
  590MOL0     H79602   1.726  10.337   2.524 -0.9444 -1.9484 -3.3955
  590MOL0     H79603   1.822  10.188   2.557  1.5911 -0.1348  4.3454
  590MOL0     H79604   1.562  10.194   2.696  3.8154  5.1325  0.9883
  590MOL0     H79605   1.642  10.068   2.615  1.3104  0.9161  4.1698
  590MOL0     H79606   1.434  10.279   2.524 -3.0894 -0.1587 -3.6703
  590MOL0     H79607   1.424  10.112   2.510 -0.2379  1.0398 -0.1787
  590MOL0     H79608   1.467  10.196   2.286  1.0768  0.2895  0.1127
  590MOL0     H79609   1.628  10.111   2.350  1.3171  1.2172 -2.0660
  590MOL0     H79610   1.649  10.536   2.200  1.7190  0.7136 -1.2328
  590MOL0     H79611   1.648  10.688   2.031 -1.7063 -1.0204 -0.1112
  590MOL0     H79612   1.776  10.664   1.908  0.6020 -2.0261 -2.5939
  590MOL0     H79613   1.614  10.653   1.862  1.4940 -0.4880 -2.2299
  590MOL0     H79614   1.931  10.400   1.564 -1.3986 -0.4277 -0.1481
  590MOL0     H79615   1.996  10.346   1.321  1.6074 -0.7153  1.8366
  590MOL0     H79616   1.805   9.973   1.097 -1.8383  0.6913 -1.5875
  590MOL0     H79617   1.698  10.105   1.102 -0.2161 -0.2228 -0.8436
  590MOL0     H79618   1.774  10.122   0.873  0.9002  3.0060 -1.5562
  590MOL0     H79619   1.900  10.223   0.944  2.5741 -1.6220  0.1369
  590MOL0     H79620   1.953   9.925   0.906 -1.3934  0.2001  2.8363
  590MOL0     H79621   2.048  10.055   0.968 -2.5855 -0.3352  1.5285
  590MOL0     H79622   1.924  10.043   0.679  0.5281 -0.0674 -0.5908
  590MOL0     H79623   2.027  10.174   0.744  2.0171 -0.2357  3.0206
  590MOL0     H79624   2.227  10.052   0.743  0.5358  1.7081 -1.3567
  590MOL0     H79625   2.153  10.030   0.596 -0.5030 -0.5140 -0.1007
  590MOL0     H79626   2.139   9.829   0.818  5.4065 -0.9602 -0.0126
  590MOL0     H79627   2.037   9.835   0.659  0.4226 -0.9917  0.6003
  590MOL0     H79628   2.337   9.825   0.703 -1.6300  2.4122  0.8290
  590MOL0     H79629   2.257   9.825   0.541  2.4426  3.5651  2.3275
  590MOL0     H79630   2.304   9.599   0.528 -1.3286 -2.0943  0.0574
  590MOL0     H79631   2.155   9.596   0.598 -0.1279  1.7502  0.9427
  590MOL0     H79632   1.699  10.030   1.324 -0.4781  0.7167  0.4075
  590MOL0     H79633   1.641  10.104   1.560  0.6091  0.7565 -0.5556
  590MOL0     H79634   1.740  10.153   1.920 -3.5811 -2.4223  1.5681
  590MOL0     H79635   1.704  10.123   2.137 -2.8007 -0.6075 -1.5061
  590MOL0     H79636   2.000   9.602   3.785  0.3979 -0.8959  0.7092
  590MOL0     H79637   1.965   9.506   4.025 -2.1839 -1.4164  0.7668
  590MOL0     H79638   1.835   9.571   4.470 -0.3120 -2.1259  1.9248
  590MOL0     H79639   1.868   9.530   4.693  1.8275 -1.5790 -0.4874
  590MOL0     H79640   2.236   9.679   4.919 -0.2857  1.2305 -1.7275
  590MOL0     H79641   2.091   9.782   4.938  0.2114  0.4502  0.3153
  590MOL0     H79642   2.163   9.689   5.151  0.3550  1.1727 -0.8961
  590MOL0     H79643   2.154   9.520   5.094  1.1115 -0.2126  0.3398
  590MOL0     H79644   1.907   9.542   5.097  1.2383 -0.7825 -0.1357
  590MOL0     H79645   1.931   9.728   5.120  1.9344  1.7431 -0.4416
  590MOL0     H79646   2.034   9.675   5.336  0.9959 -0.2606 -1.2752
  590MOL0     H79647   2.002   9.500   5.308 -0.0736  0.9625  4.7714
  590MOL0     H79648   1.616   9.598   5.436  0.5501  2.3626  3.2734
  590MOL0     H79649   2.248   9.742   4.682  1.0134  0.3954 -3.8156
  590MOL0     H79650   2.216   9.772   4.459 -1.0041  0.0487  0.9465
  591MOL0     O79651   1.839  11.430   7.672 -0.1335  0.4217 -0.3723
  591MOL0     C79652   1.765  11.441   7.584 -0.1487 -0.4031  0.4402
  591MOL0     O79653   1.671  11.350   7.544  0.1132 -0.4166  0.4040
  591MOL0     C79654   1.647  11.226   7.598  1.1180  0.2157  0.3393
  591MOL0     C79655   1.708  11.174   7.717  0.2143  0.5817 -1.3412
  591MOL0     C79656   1.682  11.038   7.750  0.8806 -0.3113 -0.1921
  591MOL0     C79657   1.588  10.956   7.688 -0.1479 -1.1597 -0.9764
  591MOL0     O79658   1.560  10.836   7.745  0.1183  0.7755 -0.0640
  591MOL0     C79659   1.441  10.762   7.699  0.2216 -0.1827  0.0386
  591MOL0     C79660   1.326  10.828   7.777  0.3125  0.7071 -0.0067
  591MOL0     C79661   1.189  10.752   7.777 -0.7862 -0.3663  0.8223
  591MOL0     C79662   1.202  10.615   7.839  0.4222  0.6042 -0.6851
  591MOL0     C79663   1.069  10.556   7.876  0.6375 -0.6596  0.1669
  591MOL0     C79664   0.944  10.560   7.778 -0.4922 -0.3180 -0.6244
  591MOL0     C79665   0.969  10.469   7.662 -0.2269 -0.2055  1.3016
  591MOL0     C79666   0.851  10.460   7.565  0.1745  0.2790 -0.0647
  591MOL0     N79667   0.860  10.339   7.477  0.1863 -0.3149 -0.9718
  591MOL0     C79668   0.939  10.307   7.376  0.0868  0.2806  0.0868
  591MOL0     C79669   0.911  10.180   7.338 -0.0881  0.5059 -0.0814
  591MOL0     C79670   0.965  10.100   7.230 -0.0779  0.1843  0.1358
  591MOL0     C79671   1.047   9.980   7.300  0.4736 -0.7348  0.0546
  591MOL0     C79672   1.152   9.934   7.192  0.4214  0.1879  0.0829
  591MOL0     C79673   1.093   9.897   7.053 -0.3693 -0.5533 -1.0206
  591MOL0     O79674   1.007   9.787   7.081  0.6364  0.4694  0.8132
  591MOL0     C79675   0.901   9.763   6.989 -0.0689  0.4932  1.4128
  591MOL0     C79676   0.808   9.677   7.028  0.1321 -0.1812  0.0951
  591MOL0     C79677   0.700   9.637   6.957  0.2409 -0.0492 -0.1547
  591MOL0     C79678   0.612   9.530   7.030 -0.3255 -1.5323 -0.5290
  591MOL0     C79679   0.692   9.670   6.821 -0.5288  1.1393  0.4565
  591MOL0     C79680   0.594   9.618   6.728 -0.7367  0.3142 -0.1236
  591MOL0     O79681   0.534   9.704   6.638 -0.3284 -0.1342  0.1728
  591MOL0     C79682   0.423   9.677   6.569  1.1758 -1.1741  1.0022
  591MOL0     C79683   0.321   9.778   6.571 -0.0581 -0.0353 -1.4251
  591MOL0     C79684   0.195   9.738   6.529 -0.4143 -0.2607  0.0785
  591MOL0     C79685   0.165   9.613   6.471 -0.0617  0.3564 -0.3677
  591MOL0     O79686   0.040   9.552   6.470 -0.2144  0.2550 -0.2916
  591MOL0     C79687  -0.073   9.635   6.500  0.2393 -0.5480  1.2293
  591MOL0     C79688  -0.189   9.556   6.455 -0.8825 -0.3570  1.4239
  591MOL0     C79689  -0.209   9.425   6.528 -0.5037  0.0943 -1.4616
  591MOL0     C79690  -0.226   9.438   6.679  0.8153 -0.8966  0.5950
  591MOL0     C79691  -0.267   9.308   6.743 -0.1152 -0.1229 -0.6376
  591MOL0     C79692  -0.336   9.312   6.885 -1.0190 -0.7896 -0.7079
  591MOL0     C79693  -0.234   9.356   6.993  0.2536  0.4643  0.6541
  591MOL0     C79694  -0.271   9.311   7.140  1.4504 -0.8468  0.2112
  591MOL0    Cl79695  -0.260   9.141   7.168  0.6435  0.3253 -0.6507
  591MOL0     C79696   0.272   9.529   6.441 -0.5724  0.8423 -0.3230
  591MOL0     C79697   0.396   9.562   6.499 -1.2346 -0.2518 -0.3983
  591MOL0     O79698   0.567   9.498   6.742 -0.3484 -0.1528 -0.4598
  591MOL0     C79699   0.791   9.769   6.772 -0.1903 -0.3655 -0.4541
  591MOL0     C79700   0.889   9.820   6.862 -0.3671 -0.2189 -0.7654
  591MOL0     N79701   0.807  10.139   7.426  0.3793  1.1422  0.9607
  591MOL0     N79702   0.771  10.231   7.498 -0.1573 -0.1269 -0.4527
  591MOL0     C79703   1.526  11.008   7.580  0.0003  0.0602 -0.0074
  591MOL0     C79704   1.560  11.137   7.540 -0.3156 -0.2468 -0.3846
  591MOL0     C79705   1.769  11.565   7.496 -0.7225 -0.0916  0.1740
  591MOL0     C79706   1.868  11.665   7.523 -0.2391  0.2529 -0.0925
  591MOL0     C79707   1.867  11.789   7.462  0.8782 -0.8431 -0.3485
  591MOL0     C79708   1.787  11.808   7.348  0.1920  0.4568 -0.8904
  591MOL0     O79709   1.790  11.922   7.276 -0.0442  0.1750  0.3500
  591MOL0     C79710   1.921  11.991   7.277  0.6301 -0.0556 -1.1053
  591MOL0     C79711   1.930  12.072   7.149 -0.4275  0.7670  0.2177
  591MOL0     C79712   1.989  12.214   7.172 -0.3829 -1.1445 -0.3999
  591MOL0     C79713   1.991  12.302   7.041  0.7081 -0.1766 -0.1531
  591MOL0     C79714   2.064  12.231   6.937  0.5763  0.2174 -0.8166
  591MOL0     C79715   2.144  12.184   6.857  0.5595  0.3079 -0.5727
  591MOL0     C79716   1.693  11.711   7.312  0.4213  0.0168 -0.8716
  591MOL0     C79717   1.688  11.589   7.384 -0.2436  0.2931 -0.4808
  591MOL0     H79718   1.790  11.215   7.774  0.2337 -1.0099 -0.1369
  591MOL0     H79719   1.740  10.983   7.823  0.8626 -1.9640 -1.3758
  591MOL0     H79720   1.416  10.765   7.593  1.5952 -0.1669 -0.3014
  591MOL0     H79721   1.460  10.659   7.731 -2.1114 -1.4703 -2.3697
  591MOL0     H79722   1.348  10.837   7.883 -3.0960  0.9491  0.8081
  591MOL0     H79723   1.322  10.933   7.747  2.5887  0.4757 -1.3266
  591MOL0     H79724   1.131  10.819   7.841 -1.4942  1.4540 -1.5685
  591MOL0     H79725   1.148  10.754   7.675  1.6185  1.4040 -0.2041
  591MOL0     H79726   1.251  10.555   7.761  2.4812  2.7840 -1.1711
  591MOL0     H79727   1.262  10.622   7.930  1.9664 -4.3149 -0.9946
  591MOL0     H79728   1.081  10.465   7.936  3.6872 -0.2428  0.3438
  591MOL0     H79729   1.031  10.623   7.954  0.8004 -2.3584  1.7674
  591MOL0     H79730   0.864  10.506   7.829  0.3771 -2.4995 -1.4203
  591MOL0     H79731   0.932  10.665   7.751  0.7140  0.3345  1.1640
  591MOL0     H79732   1.064  10.501   7.617  0.6970 -1.7635  2.0450
  591MOL0     H79733   0.997  10.373   7.708 -1.4123 -0.8595  0.7024
  591MOL0     H79734   0.852  10.555   7.511 -0.1944  0.9393  1.0728
  591MOL0     H79735   0.764  10.455   7.630  0.6759  2.6142  0.8777
  591MOL0     H79736   0.999  10.376   7.317  1.6259 -0.4081  0.8054
  591MOL0     H79737   0.886  10.075   7.159 -0.6049 -1.9606  1.3855
  591MOL0     H79738   1.030  10.155   7.162  0.0321  0.3752  0.3916
  591MOL0     H79739   0.982   9.896   7.324 -1.5120  0.9920  0.9782
  591MOL0     H79740   1.096  10.011   7.393  1.0385  3.9378 -1.5379
  591MOL0     H79741   1.217   9.852   7.222  3.9782  2.3021 -1.1651
  591MOL0     H79742   1.220  10.020   7.184 -0.1954  0.6092 -0.8628
  591MOL0     H79743   1.176   9.863   6.991  1.7958 -0.3555  1.5811
  591MOL0     H79744   1.052   9.982   6.999  0.7164  0.3662 -0.4552
  591MOL0     H79745   0.820   9.645   7.131 -0.0781  2.0390  0.8645
  591MOL0     H79746   0.507   9.543   7.001 -1.6634 -1.7987  3.5246
  591MOL0     H79747   0.657   9.431   7.017 -1.3241 -2.0320 -0.2995
  591MOL0     H79748   0.621   9.548   7.137  1.6416  4.1292 -1.3204
  591MOL0     H79749   0.339   9.878   6.609 -0.3920 -0.2175 -0.7722
  591MOL0     H79750   0.110   9.804   6.542  0.1467  1.0758 -2.3292
  591MOL0     H79751  -0.080   9.655   6.607 -0.4605  2.0973  0.7801
  591MOL0     H79752  -0.066   9.727   6.440 -3.3830 -1.2834 -0.5633
  591MOL0     H79753  -0.282   9.612   6.460 -0.1851  1.0295 -0.1262
  591MOL0     H79754  -0.177   9.532   6.349  0.6796  1.9284  1.0056
  591MOL0     H79755  -0.123   9.359   6.512  1.2323  0.8162  3.2810
  591MOL0     H79756  -0.288   9.369   6.478 -0.0884  0.5913 -2.7093
  591MOL0     H79757  -0.132   9.479   6.718  1.0238 -0.3681 -0.4190
  591MOL0     H79758  -0.296   9.520   6.700 -1.3277 -1.9428 -1.8448
  591MOL0     H79759  -0.178   9.244   6.751 -0.0483  0.0605  0.2905
  591MOL0     H79760  -0.335   9.261   6.672  0.3262  0.8059 -1.7102
  591MOL0     H79761  -0.421   9.380   6.899  0.9207  1.3464  1.3721
  591MOL0     H79762  -0.380   9.213   6.904  0.9493 -1.6354 -0.3530
  591MOL0     H79763  -0.220   9.464   6.987  2.4645  0.1855 -0.2913
  591MOL0     H79764  -0.133   9.330   6.959 -0.2828  1.3799 -1.8787
  591MOL0     H79765  -0.378   9.332   7.143  1.0393 -0.7064 -5.0582
  591MOL0     H79766  -0.213   9.366   7.214  3.0971  0.0995 -1.6530
  591MOL0     H79767   0.231   9.443   6.390 -1.4098  0.2905  1.2186
  591MOL0     H79768   0.480   9.494   6.488 -0.8832  0.2371 -0.7518
  591MOL0     H79769   0.800   9.833   6.685  0.0876  2.7147  1.6851
  591MOL0     H79770   0.960   9.894   6.826  1.2012 -0.7351  1.0434
  591MOL0     H79771   1.448  10.958   7.524  0.3626 -0.5283  0.0029
  591MOL0     H79772   1.512  11.191   7.459 -1.3586 -0.4523  0.0793
  591MOL0     H79773   1.941  11.665   7.604 -0.7973  0.4035  0.4143
  591MOL0     H79774   1.942  11.861   7.494  1.9256 -0.4926 -3.3207
  591MOL0     H79775   1.925  12.055   7.365  4.7282 -1.5299  0.0238
  591MOL0     H79776   1.999  11.915   7.280  0.9631  0.1585 -3.1461
  591MOL0     H79777   1.832  12.070   7.100 -0.1822  1.3256 -0.3104
  591MOL0     H79778   1.992  12.017   7.077 -0.1647  0.3014  0.7932
  591MOL0     H79779   2.090  12.220   7.216 -0.4918  0.3252 -0.2851
  591MOL0     H79780   1.917  12.266   7.236 -0.0378  0.5680 -1.3500
  591MOL0     H79781   2.038  12.397   7.068  1.1714 -0.6420  0.7204
  591MOL0     H79782   1.891  12.313   6.999  0.8809  0.6361 -0.3574
  591MOL0     H79783   2.211  12.144   6.784 -0.9426 -0.8132 -1.4065
  591MOL0     H79784   1.626  11.736   7.230  1.0774  0.7791 -1.1909
  591MOL0     H79785   1.618  11.510   7.358 -1.0917  0.3874  1.3761
  592MOL0     O79786   5.666   4.391  10.083 -0.4175  0.3157 -0.4407
  592MOL0     C79787   5.755   4.301  10.074  0.2842 -0.4001  0.9217
  592MOL0     O79788   5.739   4.166  10.116 -0.4585 -0.8886  0.4315
  592MOL0     C79789   5.631   4.142  10.188  0.4562 -0.4753  0.4216
  592MOL0     C79790   5.639   4.134  10.332  0.0279 -0.1286  0.4843
  592MOL0     C79791   5.516   4.102  10.398  0.0676 -0.2111  0.6292
  592MOL0     C79792   5.394   4.077  10.332 -0.5748  0.5551  0.2768
  592MOL0     O79793   5.270   4.057  10.387 -0.5348  0.6576 -0.7158
  592MOL0     C79794   5.246   4.109  10.520  0.1024 -0.2697 -0.7064
  592MOL0     C79795   5.098   4.093  10.549 -0.4166 -0.9610 -0.0998
  592MOL0     C79796   5.086   4.099  10.699 -0.1844  0.1542  0.4740
  592MOL0     C79797   5.093   4.247  10.745 -0.4905 -0.5826 -1.1719
  592MOL0     C79798   5.045   4.274  10.893 -0.4759 -0.1400  0.3356
  592MOL0     C79799   4.906   4.337  10.889  0.1189 -0.5313 -0.0860
  592MOL0     C79800   4.876   4.371  11.032  0.4081 -0.7135  0.1136
  592MOL0     C79801   4.827   4.254  11.121 -0.1019 -0.4187  0.0299
  592MOL0     N79802   4.814   4.304  11.260 -0.4081 -0.0096  0.5910
  592MOL0     C79803   4.736   4.405  11.295 -0.7711  0.5976  1.3214
  592MOL0     C79804   4.774   4.445  11.418  0.1621  0.3949 -0.2818
  592MOL0     C79805   4.696   4.540  11.511  0.5675  1.0476  0.3834
  592MOL0     C79806   4.780   4.641  11.577  0.1158 -0.3128  0.7804
  592MOL0     C79807   4.706   4.733  11.677  0.0952 -0.3704 -0.0031
  592MOL0     C79808   4.805   4.848  11.732 -0.1043 -1.4620 -0.2330
  592MOL0     O79809   4.804   4.951  11.639  0.8367 -0.1347 -0.4462
  592MOL0     C79810   4.910   5.039  11.644 -0.6937  0.5443  0.0135
  592MOL0     C79811   4.994   5.075  11.538  0.9252 -0.7403  0.2544
  592MOL0     C79812   5.084   5.171  11.558 -0.2882 -0.7704 -0.7137
  592MOL0     C79813   5.158   5.207  11.432 -0.6806  0.2904  0.0993
  592MOL0     C79814   5.111   5.233  11.683  0.4681 -0.9584  0.1505
  592MOL0     C79815   5.206   5.352  11.706 -0.6706 -0.4420 -0.1508
  592MOL0     O79816   5.239   5.382  11.833  0.1177  0.4575 -0.7842
  592MOL0     C79817   5.349   5.451  11.855 -0.1315 -0.0333 -0.9814
  592MOL0     C79818   5.483   5.396  11.853 -1.0576  0.9092 -0.3366
  592MOL0     C79819   5.582   5.485  11.901 -0.7810 -0.0273  0.2700
  592MOL0     C79820   5.561   5.612  11.954 -0.3803 -0.1175  0.2939
  592MOL0     O79821   5.669   5.688  12.009 -0.5781  0.1441  0.2728
  592MOL0     C79822   5.800   5.690  11.930 -0.1293  0.9143 -0.3337
  592MOL0     C79823   5.885   5.807  11.989  0.2915  0.5159  0.3239
  592MOL0     C79824   5.912   5.787  12.140  0.3733  0.4604  0.9582
  592MOL0     C79825   5.958   5.916  12.208 -0.6826  0.7329 -0.0169
  592MOL0     C79826   6.112   5.954  12.184 -1.6929 -0.6300 -0.2957
  592MOL0     C79827   6.155   6.088  12.258  0.0164 -0.0199 -0.3840
  592MOL0     C79828   6.311   6.087  12.288  0.0268 -0.5460  0.2511
  592MOL0     C79829   6.371   6.218  12.349 -0.8334  0.7644  0.3929
  592MOL0    Cl79830   6.382   6.351  12.221 -0.0916  0.2456  0.0261
  592MOL0     C79831   5.440   5.667  11.948  0.0837  0.0553 -0.9422
  592MOL0     C79832   5.331   5.585  11.904 -0.2880  0.0324 -0.4179
  592MOL0     O79833   5.251   5.409  11.607  0.1462 -0.1835 -0.9004
  592MOL0     C79834   5.037   5.186  11.784  0.5670  0.9152 -0.9304
  592MOL0     C79835   4.932   5.095  11.767  1.1919 -0.7516  0.8029
  592MOL0     N79836   4.868   4.355  11.455  0.1586  0.6052 -0.9242
  592MOL0     N79837   4.901   4.272  11.363 -0.8814  0.0386 -0.1991
  592MOL0     C79838   5.402   4.076  10.194 -0.0490 -0.4291 -0.2382
  592MOL0     C79839   5.516   4.114  10.121  0.9256  0.3172 -0.2556
  592MOL0     C79840   5.874   4.336  10.000 -0.5376  1.0338  1.2262
  592MOL0     C79841   5.960   4.232   9.951  0.8509  0.3604  0.4335
  592MOL0     C79842   6.070   4.271   9.874  0.6447  0.7102 -0.5017
  592MOL0     C79843   6.098   4.402   9.845 -0.0538 -0.7495 -0.6852
  592MOL0     O79844   6.193   4.444   9.760  0.6011  0.3544  0.0261
  592MOL0     C79845   6.258   4.351   9.671 -0.0931 -0.7762 -0.6045
  592MOL0     C79846   6.360   4.416   9.580 -0.4005 -0.0191  0.5096
  592MOL0     C79847   6.447   4.316   9.501 -0.1971 -0.3924  0.9608
  592MOL0     C79848   6.365   4.224   9.405 -0.2998 -0.5797  0.0699
  592MOL0     C79849   6.313   4.105   9.471  0.0352 -0.2597 -0.9478
  592MOL0     C79850   6.267   4.000   9.533 -1.1605 -0.7360  0.4157
  592MOL0     C79851   6.021   4.494   9.906 -0.6201 -0.8524 -0.3172
  592MOL0     C79852   5.915   4.468   9.981  0.4464  0.2269 -0.1699
  592MOL0     H79853   5.732   4.160  10.381 -0.9211 -2.0938  3.5515
  592MOL0     H79854   5.519   4.084  10.505 -1.0171 -1.6293  0.4448
  592MOL0     H79855   5.302   4.050  10.593 -2.2895 -0.9342  0.6986
  592MOL0     H79856   5.282   4.210  10.543  1.4155 -1.1587  1.4838
  592MOL0     H79857   5.030   4.164  10.502 -1.3734 -0.6279  1.7171
  592MOL0     H79858   5.054   3.996  10.521 -4.3503  0.9583 -1.3268
  592MOL0     H79859   4.985   4.065  10.724  0.4292 -2.4589 -0.2465
  592MOL0     H79860   5.155   4.030  10.748  0.4936  0.2734 -0.2971
  592MOL0     H79861   5.195   4.284  10.751 -0.9172  0.4541  0.4449
  592MOL0     H79862   5.054   4.319  10.672  0.0221  0.1859 -0.7004
  592MOL0     H79863   5.042   4.185  10.956  1.5184 -0.5880 -0.1290
  592MOL0     H79864   5.111   4.346  10.944 -2.1416  2.0956 -0.4762
  592MOL0     H79865   4.889   4.427  10.831 -1.5058  1.9393  3.8033
  592MOL0     H79866   4.829   4.266  10.857 -2.0170 -0.5911  4.4101
  592MOL0     H79867   4.967   4.411  11.080  0.7555 -2.0985  0.6599
  592MOL0     H79868   4.791   4.440  11.032  0.2364 -0.5383  5.3041
  592MOL0     H79869   4.895   4.169  11.124 -0.2066 -0.6116 -1.7960
  592MOL0     H79870   4.729   4.216  11.090  0.5948 -0.9682 -1.5912
  592MOL0     H79871   4.659   4.448  11.232  1.5846  2.5193 -0.4258
  592MOL0     H79872   4.613   4.589  11.461 -1.3482 -1.3413  1.0652
  592MOL0     H79873   4.643   4.480  11.585  0.5575 -2.1062 -2.0002
  592MOL0     H79874   4.819   4.703  11.497 -1.8199  0.2837  0.2545
  592MOL0     H79875   4.853   4.593  11.643  1.5598  0.2123 -0.3863
  592MOL0     H79876   4.653   4.697  11.766 -5.4940  2.5027 -1.7117
  592MOL0     H79877   4.619   4.783  11.633 -0.5240 -1.9240 -0.6064
  592MOL0     H79878   4.904   4.802  11.745  0.2011 -1.7068 -2.8083
  592MOL0     H79879   4.766   4.886  11.826  0.0755 -1.0547 -0.3200
  592MOL0     H79880   4.983   5.019  11.446  3.9604 -1.8014  0.4175
  592MOL0     H79881   5.120   5.307  11.412 -2.0681 -0.2163  0.1059
  592MOL0     H79882   5.265   5.192  11.452 -1.1905 -1.3223  2.0021
  592MOL0     H79883   5.133   5.137  11.351 -2.3729  0.0809  0.7579
  592MOL0     H79884   5.498   5.295  11.816 -0.0027  0.5915  0.9159
  592MOL0     H79885   5.683   5.445  11.906 -0.6586 -0.0246 -1.4662
  592MOL0     H79886   5.856   5.596  11.936 -1.1485  0.3609  0.8416
  592MOL0     H79887   5.776   5.722  11.828 -1.5378  1.1798  0.0662
  592MOL0     H79888   5.980   5.815  11.934  0.4011 -0.5813  0.3390
  592MOL0     H79889   5.822   5.896  11.987 -1.7535 -0.8390  1.4395
  592MOL0     H79890   6.001   5.723  12.144  0.9537  1.2272  0.5192
  592MOL0     H79891   5.825   5.735  12.181  0.5947 -1.5581 -0.9676
  592MOL0     H79892   5.900   6.006  12.187 -1.0818  0.4354 -0.2084
  592MOL0     H79893   5.947   5.903  12.316 -2.0288  0.3606 -0.1836
  592MOL0     H79894   6.147   5.948  12.080  0.2483 -1.3499  0.3526
  592MOL0     H79895   6.174   5.873  12.224  1.7003  1.2883 -1.2524
  592MOL0     H79896   6.133   6.173  12.193  2.2064  0.6418 -0.3324
  592MOL0     H79897   6.096   6.106  12.348 -0.5615  1.8130 -1.0833
  592MOL0     H79898   6.366   6.050  12.202  2.9154  1.0818  1.2616
  592MOL0     H79899   6.322   6.008  12.363 -3.0767 -1.2450  0.1104
  592MOL0     H79900   6.476   6.201  12.372 -0.3431  2.1892 -0.6890
  592MOL0     H79901   6.318   6.246  12.440 -0.7802 -2.4322  1.5578
  592MOL0     H79902   5.423   5.769  11.982  0.8916  0.8632 -2.8136
  592MOL0     H79903   5.226   5.615  11.905 -0.2682  0.0794  0.4972
  592MOL0     H79904   5.045   5.208  11.890  0.9698  2.0140 -1.1841
  592MOL0     H79905   4.876   5.073  11.857 -1.4322 -0.2446 -0.6132
  592MOL0     H79906   5.309   4.052  10.143  0.0820 -1.8169  0.1362
  592MOL0     H79907   5.511   4.106  10.013  1.7583  1.2056 -0.3758
  592MOL0     H79908   5.954   4.124   9.959 -0.3116  0.0607 -2.9705
  592MOL0     H79909   6.129   4.187   9.838 -0.2524  0.3200 -1.0992
  592MOL0     H79910   6.319   4.278   9.724  1.3779  0.8246 -0.0043
  592MOL0     H79911   6.183   4.300   9.610 -0.4346  0.3229 -1.1247
  592MOL0     H79912   6.431   4.470   9.644 -1.3697 -1.5660  3.0123
  592MOL0     H79913   6.315   4.488   9.512 -3.3806 -0.6247  1.6911
  592MOL0     H79914   6.511   4.259   9.569 -0.7971 -3.7170 -1.0556
  592MOL0     H79915   6.519   4.376   9.443  0.7786  0.8846  3.3517
  592MOL0     H79916   6.429   4.186   9.324 -1.8503  0.0803 -1.5144
  592MOL0     H79917   6.282   4.281   9.363 -2.1998 -2.1223  1.5812
  592MOL0     H79918   6.223   3.915   9.580 -2.4015 -0.2619  0.1391
  592MOL0     H79919   6.065   4.591   9.888  0.1571 -1.1813 -0.2251
  592MOL0     H79920   5.866   4.546  10.038  2.1736  0.2457  1.4112
  593MOL0     O79921   5.628  11.059   3.382 -0.0614  1.0371 -0.6183
  593MOL0     C79922   5.732  10.994   3.384  0.4811 -0.0465  0.5159
  593MOL0     O79923   5.807  10.965   3.274 -0.1248 -0.0016 -0.2664
  593MOL0     C79924   5.785  11.019   3.150 -0.4289 -1.0650 -0.3174
  593MOL0     C79925   5.878  11.118   3.108 -0.5464 -0.1806  0.4364
  593MOL0     C79926   5.850  11.185   2.990  0.1700  0.6265 -0.1395
  593MOL0     C79927   5.737  11.149   2.912 -0.0323  0.3577 -0.0766
  593MOL0     O79928   5.709  11.210   2.794 -0.4846 -0.4839 -0.0288
  593MOL0     C79929   5.725  11.357   2.797  0.7597  0.4731  0.4544
  593MOL0     C79930   5.664  11.422   2.678 -0.8400 -0.5671 -0.8397
  593MOL0     C79931   5.762  11.436   2.563 -0.2470  0.9387  0.4763
  593MOL0     C79932   5.798  11.295   2.510 -1.3630  0.4456  0.2193
  593MOL0     C79933   5.839  11.299   2.365  0.1028 -0.5709 -0.5019
  593MOL0     C79934   5.833  11.169   2.298 -0.0545  0.1064  0.3154
  593MOL0     C79935   5.699  11.155   2.221  0.6807 -0.6917 -0.2246
  593MOL0     C79936   5.570  11.180   2.309  0.4352  0.2220 -0.8389
  593MOL0     N79937   5.441  11.161   2.249  0.5975  0.3647  0.6914
  593MOL0     C79938   5.427  11.183   2.119  0.0932 -0.2911 -0.2197
  593MOL0     C79939   5.304  11.126   2.083  0.4552  0.7157 -0.9292
  593MOL0     C79940   5.217  11.133   1.957 -1.7208 -0.5172 -0.1457
  593MOL0     C79941   5.201  11.280   1.911  0.5645  0.7454 -0.0598
  593MOL0     C79942   5.064  11.304   1.847  0.2735  0.2809 -0.3284
  593MOL0     C79943   5.058  11.436   1.763  0.3502 -0.5766 -0.7703
  593MOL0     O79944   5.133  11.424   1.641 -0.1701 -0.3905  0.0955
  593MOL0     C79945   5.106  11.520   1.551  0.3795 -0.1254  0.2679
  593MOL0     C79946   5.010  11.621   1.556  0.0858  1.0408 -0.3398
  593MOL0     C79947   4.997  11.710   1.456 -0.2790  0.0775  0.8694
  593MOL0     C79948   4.894  11.812   1.487 -0.4626 -0.5282 -0.0364
  593MOL0     C79949   5.062  11.701   1.331 -0.5749  0.2109  0.0130
  593MOL0     C79950   5.034  11.774   1.207 -0.3198 -0.3866  0.2279
  593MOL0     O79951   5.069  11.717   1.092  0.4818 -0.1322  0.0492
  593MOL0     C79952   5.097  11.798   0.980  1.3050  0.3569 -0.0870
  593MOL0     C79953   4.989  11.841   0.896  0.8313 -0.0563 -0.0805
  593MOL0     C79954   5.014  11.915   0.776  0.9083  0.2796  0.4079
  593MOL0     C79955   5.140  11.937   0.726  0.4069  0.0680 -0.6301
  593MOL0     O79956   5.147  11.993   0.597 -0.3599 -0.0687 -0.5364
  593MOL0     C79957   5.278  12.018   0.542 -0.6698  0.1237 -0.1619
  593MOL0     C79958   5.270  12.110   0.424 -0.3429  0.2340 -0.2023
  593MOL0     C79959   5.198  12.040   0.303 -0.2748  0.2373 -0.4127
  593MOL0     C79960   5.233  12.094   0.165 -0.4245 -0.5144 -0.5265
  593MOL0     C79961   5.379  12.056   0.116 -0.3788 -0.1869  0.3003
  593MOL0     C79962   5.415  12.075  -0.030  0.6341  0.0659  0.6305
  593MOL0     C79963   5.378  12.218  -0.081  0.1432 -0.6785 -0.5960
  593MOL0     C79964   5.389  12.242  -0.226  1.4370  0.7320  0.2978
  593MOL0    Cl79965   5.249  12.161  -0.321 -0.1171 -0.2954 -0.3056
  593MOL0     C79966   5.254  11.898   0.805 -0.7869  1.2284 -0.5315
  593MOL0     C79967   5.223  11.834   0.931  0.8931  0.3863 -0.5167
  593MOL0     O79968   4.992  11.896   1.215 -0.3944  0.3106  0.2147
  593MOL0     C79969   5.152  11.603   1.323 -0.4661 -0.2014 -0.2611
  593MOL0     C79970   5.174  11.518   1.431  0.7193 -0.4341 -0.5321
  593MOL0     N79971   5.255  11.062   2.193 -0.6167  0.0194  0.1219
  593MOL0     N79972   5.340  11.086   2.297  1.0423  0.1423 -0.0436
  593MOL0     C79973   5.654  11.046   2.956  0.0533 -0.0664  0.6251
  593MOL0     C79974   5.677  10.980   3.075 -0.6492 -0.5365 -0.2003
  593MOL0     C79975   5.785  10.941   3.508  0.8262  1.2387  0.4087
  593MOL0     C79976   5.921  10.905   3.519  0.6591 -0.1140 -0.3163
  593MOL0     C79977   5.958  10.835   3.638 -0.2323 -0.5663  0.4013
  593MOL0     C79978   5.878  10.826   3.746 -0.8304  0.0350 -0.1684
  593MOL0     O79979   5.935  10.752   3.848 -0.4859  0.1142  0.3760
  593MOL0     C79980   5.888  10.767   3.981 -0.0188 -0.0546 -0.3832
  593MOL0     C79981   5.992  10.706   4.078  0.9279 -0.8591 -0.6046
  593MOL0     C79982   6.126  10.783   4.084  0.4511  1.1454 -0.0889
  593MOL0     C79983   6.200  10.731   4.198  0.1872 -0.3640  0.3525
  593MOL0     C79984   6.328  10.807   4.217 -0.8306  0.3460 -0.2669
  593MOL0     C79985   6.433  10.838   4.272  0.0187 -0.6615  0.5354
  593MOL0     C79986   5.746  10.869   3.737 -0.5247  0.5088 -0.7546
  593MOL0     C79987   5.706  10.928   3.620  0.0827  0.6151 -0.0433
  593MOL0     H79988   5.964  11.132   3.172  0.3383  4.2732 -1.4123
  593MOL0     H79989   5.921  11.262   2.961 -0.4163  1.5574  0.8060
  593MOL0     H79990   5.678  11.397   2.888 -2.2915  1.4819 -1.4100
  593MOL0     H79991   5.831  11.384   2.807  1.8199 -2.4685 -1.5549
  593MOL0     H79992   5.576  11.365   2.647 -2.0282 -0.2218  1.6797
  593MOL0     H79993   5.621  11.517   2.710 -3.0919 -0.3516 -4.0361
  593MOL0     H79994   5.721  11.498   2.482 -0.3087  1.1436  0.6639
  593MOL0     H79995   5.853  11.488   2.593  1.9370 -1.7728 -0.9967
  593MOL0     H79996   5.879  11.247   2.565 -1.0599 -0.9255 -1.3506
  593MOL0     H79997   5.711  11.231   2.529 -0.7108 -0.4397  0.2715
  593MOL0     H79998   5.786  11.383   2.319  2.9466  1.7036  0.0427
  593MOL0     H79999   5.945  11.326   2.359 -0.3092  0.9469 -1.4928
  593MOL0     H80000   5.918  11.160   2.230 -1.2060 -4.5701 -0.8691
  593MOL0     H80001   5.843  11.080   2.361  0.2386  0.0133  0.1362
  593MOL0     H80002   5.715  11.235   2.147 -1.6981 -1.7943 -2.0682
  593MOL0     H80003   5.698  11.061   2.164 -3.1249  0.2063 -1.9420
  593MOL0     H80004   5.588  11.285   2.336  3.0508 -0.4325  0.3022
  593MOL0     H80005   5.573  11.118   2.399  0.2797  1.7635  0.2804
  593MOL0     H80006   5.498  11.232   2.052  0.3944 -3.1571 -2.1627
  593MOL0     H80007   5.271  11.075   1.882  1.7389 -1.0757  2.5011
  593MOL0     H80008   5.123  11.079   1.971 -1.4238 -0.4279  2.7440
  593MOL0     H80009   5.281  11.298   1.840 -0.6353  1.7893 -1.1985
  593MOL0     H80010   5.215  11.348   1.996  2.0352  0.0530  0.2843
  593MOL0     H80011   4.975  11.306   1.910  0.8123  1.9881  0.4345
  593MOL0     H80012   5.043  11.219   1.782 -0.1210  0.7268 -0.7910
  593MOL0     H80013   5.103  11.511   1.828  0.9196 -1.2987 -0.3177
  593MOL0     H80014   4.954  11.459   1.738 -0.2494 -0.2703  1.6678
  593MOL0     H80015   4.932  11.627   1.632 -0.9279 -0.8931 -1.1663
  593MOL0     H80016   4.950  11.905   1.483  1.5939 -1.7277 -1.3397
  593MOL0     H80017   4.815  11.820   1.411  0.9668 -0.0235 -1.5396
  593MOL0     H80018   4.853  11.809   1.588  3.2632  3.1727  1.8541
  593MOL0     H80019   4.890  11.813   0.930  0.5056  1.2101  0.0433
  593MOL0     H80020   4.928  11.930   0.711  0.2045 -1.4176  0.9079
  593MOL0     H80021   5.358  12.047   0.611  0.2746  1.8667 -1.9004
  593MOL0     H80022   5.313  11.920   0.507  2.1136  1.1338 -0.4348
  593MOL0     H80023   5.204  12.182   0.473 -2.4091 -0.8232 -1.3153
  593MOL0     H80024   5.366  12.148   0.390 -0.0902  1.1348  1.3809
  593MOL0     H80025   5.096  12.074   0.324  0.1509  0.7654  0.9190
  593MOL0     H80026   5.199  11.931   0.316  0.3524 -0.1574 -3.1573
  593MOL0     H80027   5.163  12.072   0.084  2.0098  0.2062 -2.9688
  593MOL0     H80028   5.226  12.201   0.186  3.2030 -0.4991  1.3414
  593MOL0     H80029   5.389  11.949   0.139 -1.2033 -0.1017  1.0791
  593MOL0     H80030   5.458  12.108   0.170 -0.3036  0.7804 -0.7041
  593MOL0     H80031   5.511  12.026  -0.049  1.3320  1.9796 -1.1221
  593MOL0     H80032   5.360  12.008  -0.097  1.7733  0.2142 -0.4903
  593MOL0     H80033   5.433  12.293  -0.024  0.1504 -0.5591 -0.7613
  593MOL0     H80034   5.274  12.242  -0.057  0.3688 -0.9540  0.7419
  593MOL0     H80035   5.485  12.208  -0.264  2.3303 -0.1149  3.1093
  593MOL0     H80036   5.381  12.350  -0.239 -1.1691  0.5682 -0.0003
  593MOL0     H80037   5.358  11.907   0.775 -0.9838  1.2944 -1.2289
  593MOL0     H80038   5.304  11.795   0.992 -1.1382  0.3758  2.3488
  593MOL0     H80039   5.210  11.586   1.233  2.0431  1.9897  0.8016
  593MOL0     H80040   5.243  11.435   1.424 -0.7388 -1.8828  1.1446
  593MOL0     H80041   5.566  11.022   2.896  0.5156 -0.0718 -0.0649
  593MOL0     H80042   5.601  10.919   3.124 -0.6826 -0.0812  0.3393
  593MOL0     H80043   5.997  10.924   3.444  4.7996  0.3495  3.6200
  593MOL0     H80044   6.059  10.799   3.650 -0.3996 -0.4475  2.5979
  593MOL0     H80045   5.886  10.874   4.007  1.2178 -0.5088  1.7999
  593MOL0     H80046   5.796  10.712   4.004 -0.1025  0.5741  0.8840
  593MOL0     H80047   6.005  10.601   4.049 -0.8395 -1.3629  0.3438
  593MOL0     H80048   5.948  10.720   4.177  2.3111  1.1354 -0.2017
  593MOL0     H80049   6.114  10.891   4.091  1.0889  1.1173  2.3446
  593MOL0     H80050   6.189  10.767   3.996  0.2298 -1.2568  0.1191
  593MOL0     H80051   6.228  10.627   4.182  1.4377  0.1772 -1.1999
  593MOL0     H80052   6.132  10.751   4.281 -0.1532 -2.6890  0.7039
  593MOL0     H80053   6.515  10.881   4.325 -0.1728  1.6497 -0.8995
  593MOL0     H80054   5.676  10.875   3.820 -0.9679  2.4697 -1.2245
  593MOL0     H80055   5.604  10.961   3.603 -1.8342 -4.8016 -1.0183
  594MOL0     O80056  10.947  10.411   2.147  0.0601  0.1445 -1.0169
  594MOL0     C80057  10.881  10.426   2.252  0.9744 -0.0037 -0.3629
  594MOL0     O80058  10.795  10.536   2.279  0.3924  0.2680 -0.1008
  594MOL0     C80059  10.765  10.619   2.179 -0.3973  1.0844 -0.3390
  594MOL0     C80060  10.664  10.591   2.085  0.8036  0.5783 -0.6287
  594MOL0     C80061  10.622  10.685   1.987 -0.2447 -0.6933  0.1122
  594MOL0     C80062  10.691  10.808   1.974  0.0688 -0.1363  0.4819
  594MOL0     O80063  10.667  10.905   1.874 -0.2000  0.1903  0.6384
  594MOL0     C80064  10.584  10.871   1.763  0.5153  0.3586  0.0804
  594MOL0     C80065  10.558  10.997   1.685  0.1104  0.5217  0.6589
  594MOL0     C80066  10.521  10.983   1.538 -1.0301  0.8089 -0.8350
  594MOL0     C80067  10.433  11.095   1.489 -0.0823 -0.9811 -0.7374
  594MOL0     C80068  10.365  11.064   1.357  0.2276 -0.1694  0.3533
  594MOL0     C80069  10.453  11.094   1.235 -0.5898 -1.0120 -0.3065
  594MOL0     C80070  10.514  11.234   1.223 -0.6245 -0.0615 -0.1790
  594MOL0     C80071  10.432  11.353   1.255 -0.3372  0.1137  0.2948
  594MOL0     N80072  10.510  11.478   1.257  0.6522  0.8691 -0.2129
  594MOL0     C80073  10.587  11.510   1.360 -0.5212  0.9359  0.6394
  594MOL0     C80074  10.619  11.644   1.337  0.6766 -0.2141  0.2486
  594MOL0     C80075  10.697  11.730   1.426  1.0877 -0.1860 -0.2857
  594MOL0     C80076  10.609  11.826   1.509 -0.3451  0.5862 -0.7025
  594MOL0     C80077  10.696  11.877   1.625  0.1603  0.0633 -0.1793
  594MOL0     C80078  10.750  12.014   1.585  0.1619  0.3233  0.3742
  594MOL0     O80079  10.648  12.110   1.528 -0.4749  0.6497 -0.3505
  594MOL0     C80080  10.586  12.192   1.612  0.9567  0.3167 -0.3491
  594MOL0     C80081  10.446  12.196   1.620  0.6384  0.9578  0.0821
  594MOL0     C80082  10.381  12.300   1.692 -0.5280 -0.4752 -0.5623
  594MOL0     C80083  10.228  12.300   1.665  0.2963 -0.2128  0.6251
  594MOL0     C80084  10.464  12.394   1.762  0.5284 -0.6681 -0.4950
  594MOL0     C80085  10.400  12.510   1.831  0.1489 -0.3955  0.4950
  594MOL0     O80086  10.478  12.626   1.841 -0.1334  0.4180  0.3431
  594MOL0     C80087  10.410  12.738   1.884  0.7510  0.6932 -0.8047
  594MOL0     C80088  10.328  12.815   1.798  0.3773 -0.7872 -0.5280
  594MOL0     C80089  10.265  12.943   1.844  0.5276  0.2164  0.0204
  594MOL0     C80090  10.283  12.985   1.977 -0.2595 -0.2742  0.1593
  594MOL0     O80091  10.228  13.092   2.038 -0.5949  0.8880 -0.4104
  594MOL0     C80092  10.163  13.190   1.958  0.3131 -0.6288  0.0253
  594MOL0     C80093  10.106  13.306   2.057 -1.0813  0.1510 -0.1412
  594MOL0     C80094  10.017  13.415   1.988 -0.3291  0.2043 -0.2681
  594MOL0     C80095  10.107  13.499   1.904  0.5111 -0.3905  0.5308
  594MOL0     C80096  10.018  13.585   1.814 -1.3771 -0.4007  0.0183
  594MOL0     C80097  10.100  13.670   1.723 -0.5008 -0.2654  0.7828
  594MOL0     C80098  10.014  13.764   1.634  0.9678  0.6606  0.4580
  594MOL0     C80099  10.103  13.890   1.580 -0.7574  0.4876  0.3191
  594MOL0    Cl80100  10.262  13.837   1.531 -0.0887  0.0734  0.3097
  594MOL0     C80101  10.371  12.915   2.064  0.1854  0.6696 -0.5893
  594MOL0     C80102  10.432  12.798   2.016 -0.6020  1.7553 -0.1015
  594MOL0     O80103  10.289  12.492   1.883 -0.2772 -0.7056  0.6344
  594MOL0     C80104  10.605  12.388   1.757 -0.6372  0.3131  0.5735
  594MOL0     C80105  10.667  12.291   1.677  0.6759 -0.3273 -0.5015
  594MOL0     N80106  10.552  11.681   1.216 -0.0190  0.1734  0.0362
  594MOL0     N80107  10.506  11.579   1.157 -0.7289 -0.1349 -0.3466
  594MOL0     C80108  10.802  10.828   2.061  0.2610  0.3613  0.4220
  594MOL0     C80109  10.841  10.739   2.167 -0.3008  0.3460 -1.0550
  594MOL0     C80110  10.889  10.328   2.359  0.5809 -0.4921 -0.6443
  594MOL0     C80111  10.801  10.337   2.473 -0.1656 -0.1131 -0.3201
  594MOL0     C80112  10.811  10.238   2.573 -0.6479  0.7031 -0.4633
  594MOL0     C80113  10.909  10.138   2.565  0.5185 -0.2169 -0.3448
  594MOL0     O80114  10.922  10.064   2.672  0.1986  0.4944  0.6798
  594MOL0     C80115  11.034  10.104   2.754 -0.1114 -0.4612  0.3713
  594MOL0     C80116  11.030  10.035   2.888  0.2562 -1.2756  0.9505
  594MOL0     C80117  10.898  10.075   2.961  0.6294  0.3912 -0.4867
  594MOL0     C80118  10.925  10.183   3.065  0.5236 -0.5317  0.0028
  594MOL0     C80119  11.018  10.142   3.182 -0.1244 -0.6080  1.3081
  594MOL0     C80120  11.110  10.114   3.247  0.2020  1.0026 -0.9787
  594MOL0     C80121  10.995  10.124   2.457 -0.7751 -0.2594 -0.6491
  594MOL0     C80122  10.980  10.220   2.349 -0.7572 -0.6459 -0.4289
  594MOL0     H80123  10.618  10.493   2.094 -2.9574  2.3048  1.0550
  594MOL0     H80124  10.544  10.674   1.912  0.7294  0.6823 -1.1800
  594MOL0     H80125  10.633  10.804   1.691  1.2395  2.4692 -1.4989
  594MOL0     H80126  10.493  10.821   1.798  1.4670 -2.0478 -0.7147
  594MOL0     H80127  10.470  11.040   1.735 -1.0586  0.6780 -1.4189
  594MOL0     H80128  10.636  11.071   1.703  0.1862  0.6237 -0.0641
  594MOL0     H80129  10.608  10.972   1.474  2.4202 -1.0499  3.6638
  594MOL0     H80130  10.465  10.890   1.525  2.6611 -1.9637  1.3512
  594MOL0     H80131  10.350  11.119   1.556 -0.7056 -0.7094 -1.5912
  594MOL0     H80132  10.482  11.193   1.480 -0.9170 -0.6015 -1.2906
  594MOL0     H80133  10.317  10.967   1.370  0.2876 -0.0072  2.0872
  594MOL0     H80134  10.282  11.136   1.354 -0.4990 -0.7992  2.8074
  594MOL0     H80135  10.539  11.026   1.229  0.9301  0.4968  2.4236
  594MOL0     H80136  10.387  11.093   1.149  0.3648  5.0745 -1.5279
  594MOL0     H80137  10.605  11.242   1.284 -0.3313  1.5282 -0.7735
  594MOL0     H80138  10.552  11.245   1.121 -2.5974 -2.1306 -1.2084
  594MOL0     H80139  10.373  11.345   1.346 -0.1342 -1.3402  0.3169
  594MOL0     H80140  10.353  11.364   1.179  0.6504 -2.1429 -1.1529
  594MOL0     H80141  10.613  11.448   1.445  0.8094 -0.1137 -0.4931
  594MOL0     H80142  10.740  11.666   1.503  1.0392  0.0375 -0.0735
  594MOL0     H80143  10.775  11.791   1.379  1.0876 -0.2176 -0.3272
  594MOL0     H80144  10.523  11.777   1.557  1.2842 -1.6195  0.1237
  594MOL0     H80145  10.557  11.898   1.445 -2.3775 -0.5428 -0.4375
  594MOL0     H80146  10.784  11.817   1.646  0.3539 -0.1399 -1.4895
  594MOL0     H80147  10.630  11.897   1.710 -1.1775 -2.0251 -0.6545
  594MOL0     H80148  10.830  11.984   1.516 -2.1065 -3.1794 -1.0405
  594MOL0     H80149  10.787  12.059   1.677 -0.1561  0.6306  0.3560
  594MOL0     H80150  10.390  12.115   1.573  3.6236 -1.2071 -0.0542
  594MOL0     H80151  10.185  12.330   1.761  0.5207 -1.9180  1.2896
  594MOL0     H80152  10.194  12.372   1.589 -1.2751 -2.5209 -0.9746
  594MOL0     H80153  10.183  12.205   1.636  0.5718  0.1041 -0.9520
  594MOL0     H80154  10.305  12.790   1.695  1.1272  0.2454 -0.9645
  594MOL0     H80155  10.193  13.002   1.787 -1.3815 -2.4997 -0.5471
  594MOL0     H80156  10.233  13.232   1.885 -2.1216  1.1326 -1.4754
  594MOL0     H80157  10.083  13.141   1.902  0.0936 -2.0677  1.5307
  594MOL0     H80158  10.050  13.259   2.137  3.7823 -1.5999  2.6675
  594MOL0     H80159  10.194  13.345   2.109  0.3507 -0.6536 -1.8479
  594MOL0     H80160   9.961  13.471   2.064  1.0923 -0.9056  1.7219
  594MOL0     H80161   9.946  13.354   1.931 -0.7046  0.3540  0.0308
  594MOL0     H80162  10.164  13.553   1.980  1.2016  1.0403 -0.9561
  594MOL0     H80163  10.179  13.442   1.845  0.8729  1.0990 -0.5294
  594MOL0     H80164   9.958  13.641   1.886 -0.9418 -0.5512  0.4980
  594MOL0     H80165   9.941  13.532   1.757 -3.4772  1.5097  0.9284
  594MOL0     H80166  10.181  13.731   1.764 -1.6459  3.7487 -2.3292
  594MOL0     H80167  10.141  13.599   1.651 -0.3524  2.0205 -1.5084
  594MOL0     H80168   9.933  13.802   1.696  1.7518 -0.1218  2.0051
  594MOL0     H80169   9.982  13.702   1.550 -0.5926 -1.1656  2.3006
  594MOL0     H80170  10.115  13.962   1.661  0.3696 -2.8454  3.4317
  594MOL0     H80171  10.050  13.935   1.496  0.8751 -3.2640 -3.0567
  594MOL0     H80172  10.370  12.945   2.168 -3.6965  0.7622 -0.4956
  594MOL0     H80173  10.497  12.750   2.088 -0.0838  1.9445 -0.4371
  594MOL0     H80174  10.671  12.465   1.797  1.6088  0.1225 -2.4796
  594MOL0     H80175  10.775  12.298   1.671  0.7599 -0.8757  0.1739
  594MOL0     H80176  10.861  10.920   2.063  1.3051 -0.3062  1.5749
  594MOL0     H80177  10.926  10.757   2.233  1.1786 -2.1919 -2.1094
  594MOL0     H80178  10.715  10.403   2.480  0.8783  1.4642 -1.6364
  594MOL0     H80179  10.746  10.231   2.659  0.9539  0.1405  0.7491
  594MOL0     H80180  11.119  10.058   2.704 -2.0207 -2.0418 -1.6183
  594MOL0     H80181  11.041  10.213   2.757  1.5335 -0.5027 -0.9725
  594MOL0     H80182  11.121  10.052   2.947 -0.8406 -1.2138  2.6837
  594MOL0     H80183  11.016   9.930   2.863 -0.3335 -1.0373  0.2556
  594MOL0     H80184  10.867   9.988   3.020 -1.1616  1.8244  0.7961
  594MOL0     H80185  10.819  10.113   2.896  0.5620  1.1811  0.0433
  594MOL0     H80186  10.826  10.215   3.099 -0.1161 -0.6266 -1.6816
  594MOL0     H80187  10.966  10.271   3.015 -0.4218 -0.5564 -0.8474
  594MOL0     H80188  11.198  10.111   3.307 -0.3284 -0.1811 -0.2347
  594MOL0     H80189  11.059  10.037   2.458 -0.5075 -0.0574  0.2204
  594MOL0     H80190  11.039  10.209   2.258 -0.1321 -0.7237 -0.0232
  595MOL0     O80191   2.850   6.883   4.860 -0.7511 -0.2494 -0.6863
  595MOL0     C80192   2.916   6.787   4.807  0.0393  0.1601 -0.3179
  595MOL0     O80193   2.921   6.668   4.860 -0.6388  0.1154  1.6149
  595MOL0     C80194   2.889   6.656   4.992  0.0410  0.1456 -0.9087
  595MOL0     C80195   2.772   6.591   5.043  0.1895  0.1756 -0.1096
  595MOL0     C80196   2.752   6.574   5.176  0.5556  0.0333  0.1830
  595MOL0     C80197   2.840   6.623   5.266  0.4837 -0.3035  0.0282
  595MOL0     O80198   2.804   6.601   5.397 -0.1184 -0.4500 -0.1364
  595MOL0     C80199   2.909   6.596   5.495  0.1591  0.5092 -1.5432
  595MOL0     C80200   2.891   6.470   5.583  0.0268  0.8635 -0.4688
  595MOL0     C80201   2.972   6.480   5.705  0.3978  0.0231 -1.0371
  595MOL0     C80202   2.911   6.575   5.810 -0.4541  0.2492 -0.2179
  595MOL0     C80203   2.983   6.567   5.943 -0.6247 -0.6590 -0.2947
  595MOL0     C80204   2.943   6.439   6.022  0.0123  0.3891 -0.0555
  595MOL0     C80205   3.051   6.397   6.125  0.5903 -0.5979  0.6630
  595MOL0     C80206   3.151   6.288   6.086  0.3318  0.6861 -0.5089
  595MOL0     N80207   3.097   6.183   6.003  0.3588 -0.2627  0.3173
  595MOL0     C80208   3.108   6.181   5.864 -0.3339  0.3641 -0.4297
  595MOL0     C80209   3.030   6.077   5.838  0.2598 -0.2728  0.6757
  595MOL0     C80210   2.997   6.023   5.694 -0.3156 -0.4718 -0.5934
  595MOL0     C80211   3.106   5.919   5.660  0.7266 -0.9581  0.0097
  595MOL0     C80212   3.124   5.798   5.746  0.1083  0.6327 -0.8624
  595MOL0     C80213   3.001   5.729   5.795  0.4570 -0.1755  0.2804
  595MOL0     O80214   2.904   5.694   5.691 -0.2418  0.6220  0.3166
  595MOL0     C80215   2.776   5.666   5.723  0.8236  0.7123 -0.4003
  595MOL0     C80216   2.718   5.684   5.850  0.0945  0.1999 -0.1122
  595MOL0     C80217   2.579   5.674   5.870  0.1372  0.6015 -0.1505
  595MOL0     C80218   2.534   5.711   6.010  0.6436 -0.1733  0.0729
  595MOL0     C80219   2.498   5.620   5.756  0.7688  0.3460 -0.3351
  595MOL0     C80220   2.352   5.582   5.775 -0.2001  0.2692  1.2832
  595MOL0     O80221   2.269   5.557   5.668 -0.1869 -0.1178  0.0315
  595MOL0     C80222   2.143   5.492   5.682 -0.1925 -0.7738  0.2301
  595MOL0     C80223   2.044   5.535   5.595 -0.2061 -0.3833  0.0653
  595MOL0     C80224   1.908   5.505   5.597 -0.5026  0.3311 -0.6428
  595MOL0     C80225   1.880   5.404   5.693  0.5012 -0.3567 -1.1335
  595MOL0     O80226   1.751   5.355   5.694 -0.8695  0.5046  0.3837
  595MOL0     C80227   1.724   5.238   5.771 -0.3566 -0.1981  0.6843
  595MOL0     C80228   1.589   5.185   5.724  0.6248  0.0827  1.0995
  595MOL0     C80229   1.475   5.248   5.800  0.6546 -0.1121  0.3334
  595MOL0     C80230   1.390   5.147   5.883 -0.1651  0.5867 -0.9630
  595MOL0     C80231   1.471   5.067   5.981  0.0995 -0.4731 -0.6076
  595MOL0     C80232   1.394   4.983   6.089  0.6443 -0.9352  0.6302
  595MOL0     C80233   1.301   4.869   6.031 -0.9355  0.4146  0.1063
  595MOL0     C80234   1.240   4.769   6.133  0.4918  0.3198  0.4683
  595MOL0    Cl80235   1.369   4.669   6.224  0.2391  0.2821  0.3727
  595MOL0     C80236   1.980   5.352   5.777 -0.7859  0.1418  0.4016
  595MOL0     C80237   2.111   5.396   5.779  0.0078  0.4618  0.1997
  595MOL0     O80238   2.325   5.568   5.889  0.0208  0.1361 -0.5164
  595MOL0     C80239   2.555   5.596   5.634 -0.0181  0.0467  0.1935
  595MOL0     C80240   2.697   5.615   5.617  0.4498 -0.1475 -0.0459
  595MOL0     N80241   2.982   6.012   5.944  0.1361  0.0420 -0.0923
  595MOL0     N80242   3.019   6.081   6.045  0.1581 -0.2578  0.8624
  595MOL0     C80243   2.953   6.696   5.226  0.1335  0.3264  0.7155
  595MOL0     C80244   2.977   6.712   5.092 -0.1591  0.5637 -0.3668
  595MOL0     C80245   2.984   6.816   4.679  0.2360 -0.2203 -0.9894
  595MOL0     C80246   2.951   6.924   4.600 -0.3378 -0.5430  0.7264
  595MOL0     C80247   3.026   6.965   4.492  0.4329 -0.0475  0.1569
  595MOL0     C80248   3.125   6.877   4.442  0.4712  0.1473  0.5386
  595MOL0     O80249   3.193   6.913   4.330  0.5534 -0.3993  0.1859
  595MOL0     C80250   3.274   7.032   4.336  0.2976 -0.5906  0.2150
  595MOL0     C80251   3.215   7.159   4.276 -0.0978 -0.6322  0.0823
  595MOL0     C80252   3.168   7.155   4.135  0.1909  0.0099 -0.3279
  595MOL0     C80253   3.271   7.135   4.025 -0.7252 -0.5093  0.4916
  595MOL0     C80254   3.339   7.262   3.994 -0.2757  0.4894  0.0704
  595MOL0     C80255   3.395   7.365   3.966  0.1649  1.3266 -0.0208
  595MOL0     C80256   3.165   6.766   4.507  0.2877 -0.3897 -0.1427
  595MOL0     C80257   3.092   6.729   4.632 -0.0707  0.5888 -0.0998
  595MOL0     H80258   2.700   6.552   4.971 -0.6454 -0.5684  1.1016
  595MOL0     H80259   2.664   6.522   5.213  1.4146 -1.1091  0.6786
  595MOL0     H80260   3.007   6.591   5.447  0.3098 -1.1349 -1.1229
  595MOL0     H80261   2.920   6.688   5.554  3.3965 -0.5738 -0.1856
  595MOL0     H80262   2.786   6.471   5.615  0.4111 -3.0162  1.4933
  595MOL0     H80263   2.919   6.375   5.539  1.5979  0.6003  0.9880
  595MOL0     H80264   2.994   6.378   5.738  0.2790 -0.1235 -1.4037
  595MOL0     H80265   3.073   6.517   5.687  0.8346 -0.5553  0.1032
  595MOL0     H80266   2.923   6.681   5.786  3.1549  0.0059 -0.0302
  595MOL0     H80267   2.808   6.540   5.825  0.3905 -1.4737  2.2892
  595MOL0     H80268   3.091   6.577   5.930 -0.6818 -1.1489 -1.2386
  595MOL0     H80269   2.962   6.653   6.008  3.2662 -1.1742  1.9259
  595MOL0     H80270   2.846   6.459   6.068 -0.3114  0.3039 -0.6892
  595MOL0     H80271   2.915   6.353   5.960 -1.9421  1.7611 -1.1694
  595MOL0     H80272   3.112   6.486   6.144 -1.3551  1.4517 -1.8545
  595MOL0     H80273   3.005   6.378   6.222  2.3597 -1.1622  1.4329
  595MOL0     H80274   3.174   6.249   6.186 -0.7577 -0.7544 -0.8083
  595MOL0     H80275   3.248   6.324   6.049 -0.1435  3.9636  0.9736
  595MOL0     H80276   3.161   6.243   5.792 -1.9616  1.8346 -0.4322
  595MOL0     H80277   2.894   5.984   5.696 -1.6959  2.8466 -0.8349
  595MOL0     H80278   2.998   6.108   5.626 -0.3548 -0.3017 -0.3839
  595MOL0     H80279   3.195   5.982   5.660  1.6497 -2.2199 -0.2188
  595MOL0     H80280   3.085   5.888   5.557  1.0228 -1.5964  0.1398
  595MOL0     H80281   3.182   5.831   5.833  0.1732  1.6589 -1.2757
  595MOL0     H80282   3.177   5.724   5.686 -1.4102 -0.3250 -1.0496
  595MOL0     H80283   2.956   5.799   5.866  0.0132  3.2821 -3.0544
  595MOL0     H80284   3.032   5.637   5.846  0.4978 -0.0880  0.4113
  595MOL0     H80285   2.780   5.731   5.925  1.9328 -0.9504 -0.8383
  595MOL0     H80286   2.508   5.618   6.063  1.7769 -1.2234 -1.1565
  595MOL0     H80287   2.604   5.778   6.061  0.3929  1.5297 -1.6895
  595MOL0     H80288   2.438   5.760   5.993 -0.5257 -2.5670 -0.6564
  595MOL0     H80289   2.064   5.593   5.505 -3.6960  0.7622 -0.1163
  595MOL0     H80290   1.829   5.542   5.532  2.2469  5.5435 -1.5843
  595MOL0     H80291   1.800   5.160   5.759  1.1932  1.2889  0.3870
  595MOL0     H80292   1.735   5.254   5.879  0.7714  0.9772  0.4164
  595MOL0     H80293   1.587   5.204   5.617  2.7249 -0.1446  0.9804
  595MOL0     H80294   1.576   5.077   5.728 -0.6836  0.1324 -0.7301
  595MOL0     H80295   1.412   5.288   5.720  0.8104 -1.4236 -0.4836
  595MOL0     H80296   1.513   5.334   5.856 -2.1226  1.5723 -0.1612
  595MOL0     H80297   1.314   5.206   5.937  3.2939  0.7176  4.5460
  595MOL0     H80298   1.334   5.080   5.818 -0.4971 -1.1421  0.9850
  595MOL0     H80299   1.513   5.143   6.048 -2.5202 -0.3601  1.0283
  595MOL0     H80300   1.542   4.996   5.937 -0.1509 -1.5702  0.6916
  595MOL0     H80301   1.477   4.934   6.141  2.8266  1.3555 -0.4918
  595MOL0     H80302   1.347   5.048   6.163  4.2643  3.1608 -0.2181
  595MOL0     H80303   1.364   4.819   5.958 -1.7149  1.2392 -1.1699
  595MOL0     H80304   1.217   4.908   5.973 -1.7417  0.3498  1.1887
  595MOL0     H80305   1.175   4.703   6.074  1.5836  1.2218 -1.9034
  595MOL0     H80306   1.182   4.830   6.203 -3.6106 -3.4814  0.7827
  595MOL0     H80307   1.951   5.296   5.865 -0.5470 -2.1571 -0.9075
  595MOL0     H80308   2.178   5.365   5.858  0.3121  4.1778  1.6089
  595MOL0     H80309   2.496   5.568   5.547  0.1663  3.4853 -1.1891
  595MOL0     H80310   2.738   5.594   5.519 -1.0814  1.4632 -1.0862
  595MOL0     H80311   3.019   6.748   5.294  1.7162  0.1152 -0.5891
  595MOL0     H80312   3.062   6.770   5.059 -0.3298  1.4320  0.6664
  595MOL0     H80313   2.875   6.998   4.626  1.8815  2.5053 -0.8428
  595MOL0     H80314   2.988   7.053   4.441 -1.2745  0.0885  1.5952
  595MOL0     H80315   3.293   7.054   4.441  1.0450  0.0054 -0.0317
  595MOL0     H80316   3.373   7.013   4.293 -0.3190 -5.3705  0.3810
  595MOL0     H80317   3.279   7.244   4.301 -1.0755  0.8231 -1.9554
  595MOL0     H80318   3.118   7.167   4.327  0.4520 -1.1023  1.2270
  595MOL0     H80319   3.124   7.251   4.104 -0.8123 -0.2992  0.1088
  595MOL0     H80320   3.092   7.077   4.137  0.0110  0.0984  3.5904
  595MOL0     H80321   3.232   7.100   3.929  1.3221 -0.3651 -0.4602
  595MOL0     H80322   3.355   7.066   4.043  0.6171  0.6052 -1.1306
  595MOL0     H80323   3.452   7.455   3.953  3.0422 -0.5272 -1.3025
  595MOL0     H80324   3.239   6.699   4.463  0.7987  0.6431 -0.8760
  595MOL0     H80325   3.107   6.634   4.683 -3.1057 -0.9295 -1.7178
  596MOL0     O80326   1.161   8.851   6.870  0.6936 -0.4411  0.2339
  596MOL0     C80327   1.156   8.921   6.770 -0.3211  0.0582  0.0090
  596MOL0     O80328   1.118   9.050   6.759  0.4356 -0.7896 -0.8673
  596MOL0     C80329   1.038   9.103   6.863  0.6712  0.6994  0.8486
  596MOL0     C80330   0.926   9.179   6.830  0.4846  0.1168 -0.0228
  596MOL0     C80331   0.831   9.223   6.920  0.3892 -0.2486  0.5512
  596MOL0     C80332   0.848   9.189   7.057 -0.5390 -0.1227  0.4968
  596MOL0     O80333   0.758   9.238   7.149 -0.4203  0.3421  0.3485
  596MOL0     C80334   0.779   9.218   7.280 -0.4574  0.2062 -1.4253
  596MOL0     C80335   0.653   9.257   7.351  0.3794 -0.4932 -0.7474
  596MOL0     C80336   0.678   9.287   7.501  0.5860 -0.0562 -0.5637
  596MOL0     C80337   0.740   9.157   7.562 -0.8335 -0.0344  0.3820
  596MOL0     C80338   0.667   9.100   7.680  0.2646 -0.1436 -0.4023
  596MOL0     C80339   0.532   9.030   7.647 -1.2529  1.6796 -0.5855
  596MOL0     C80340   0.480   8.932   7.751 -0.7925 -0.3869  0.1989
  596MOL0     C80341   0.432   8.990   7.887 -0.4904  0.6009  0.0515
  596MOL0     N80342   0.450   8.899   8.001 -0.0966  0.4862 -0.0931
  596MOL0     C80343   0.507   8.938   8.120 -0.1308  1.0564 -0.3707
  596MOL0     C80344   0.508   8.815   8.192 -0.4666  0.0010 -1.3462
  596MOL0     C80345   0.573   8.768   8.320 -0.0146 -0.4576  0.7446
  596MOL0     C80346   0.477   8.813   8.438 -0.0938 -0.7313 -0.1649
  596MOL0     C80347   0.325   8.794   8.442  0.4097  0.5472  0.3792
  596MOL0     C80348   0.279   8.652   8.417 -0.7289  0.3177 -0.0039
  596MOL0     O80349   0.349   8.569   8.514 -0.3513 -0.0758  0.1476
  596MOL0     C80350   0.307   8.439   8.521  0.9030 -0.5325  0.4930
  596MOL0     C80351   0.244   8.366   8.411  0.1482  0.4650  0.4834
  596MOL0     C80352   0.214   8.231   8.407  0.4350  0.6574  1.0105
  596MOL0     C80353   0.156   8.180   8.281 -0.3845 -0.3634 -0.2066
  596MOL0     C80354   0.245   8.151   8.519  0.1928 -0.5726 -0.6635
  596MOL0     C80355   0.224   8.000   8.534  0.8565  0.0391 -0.8987
  596MOL0     O80356   0.285   7.941   8.645  0.0337 -1.2461  0.0260
  596MOL0     C80357   0.297   7.804   8.648 -0.1928  1.3877  0.5792
  596MOL0     C80358   0.427   7.754   8.658 -0.2622 -0.1665 -0.0507
  596MOL0     C80359   0.448   7.614   8.651 -0.6068 -0.2696 -0.0428
  596MOL0     C80360   0.342   7.527   8.629 -0.2157  0.8427  0.3206
  596MOL0     O80361   0.379   7.401   8.623 -0.0666  0.1035  0.5502
  596MOL0     C80362   0.286   7.298   8.652 -0.0220  0.2381 -0.4850
  596MOL0     C80363   0.347   7.158   8.647  0.0230  0.3159 -0.0545
  596MOL0     C80364   0.461   7.140   8.749 -0.4239  0.2760 -0.0656
  596MOL0     C80365   0.402   7.106   8.890 -0.5150 -0.0217 -0.1572
  596MOL0     C80366   0.492   7.138   9.014  0.0823 -0.9784 -0.8451
  596MOL0     C80367   0.415   7.111   9.146  0.1101 -0.3475  0.2491
  596MOL0     C80368   0.502   7.166   9.265  0.2606  0.3349 -0.6110
  596MOL0     C80369   0.466   7.312   9.277  0.0816  0.6185 -0.0452
  596MOL0    Cl80370   0.559   7.404   9.402  0.4657  0.3177  0.2200
  596MOL0     C80371   0.216   7.573   8.625  0.7827 -0.0821  0.0422
  596MOL0     C80372   0.189   7.712   8.643  0.0256 -0.2703  0.4790
  596MOL0     O80373   0.160   7.941   8.450 -0.3760  0.7716 -0.4299
  596MOL0     C80374   0.303   8.222   8.624  0.0740 -0.5501 -0.0739
  596MOL0     C80375   0.335   8.357   8.630 -0.7785  0.0736  0.5447
  596MOL0     N80376   0.437   8.719   8.122 -0.7680 -0.4562  0.7702
  596MOL0     N80377   0.400   8.774   8.013  0.1310 -0.0765  0.5148
  596MOL0     C80378   0.975   9.133   7.088 -0.3162 -0.3474  0.5011
  596MOL0     C80379   1.064   9.088   6.998  0.1441  0.0552  0.3437
  596MOL0     C80380   1.206   8.848   6.655 -0.3434 -1.1693 -0.5314
  596MOL0     C80381   1.148   8.861   6.531  0.7462  1.0326  0.1771
  596MOL0     C80382   1.211   8.802   6.420 -0.0297 -0.3690 -0.0248
  596MOL0     C80383   1.336   8.730   6.427  0.0267  0.4026  0.5313
  596MOL0     O80384   1.377   8.659   6.320  0.2430 -0.6253 -0.4909
  596MOL0     C80385   1.506   8.676   6.267 -0.8407 -0.4959  0.2173
  596MOL0     C80386   1.515   8.671   6.118  0.9883  0.4062 -0.5435
  596MOL0     C80387   1.657   8.617   6.069 -0.1526  0.6360  0.4900
  596MOL0     C80388   1.733   8.733   6.013 -0.0527 -0.2191  0.3093
  596MOL0     C80389   1.832   8.669   5.929 -0.1483 -0.2843 -0.3936
  596MOL0     C80390   1.905   8.616   5.846 -1.1341 -0.8544 -0.3315
  596MOL0     C80391   1.399   8.718   6.552  0.6377 -1.2716  0.7630
  596MOL0     C80392   1.333   8.782   6.662  0.1488 -0.6196  0.4310
  596MOL0     H80393   0.897   9.190   6.726 -0.2506  0.8790  0.2525
  596MOL0     H80394   0.747   9.285   6.892  1.0543  0.5836  0.3541
  596MOL0     H80395   0.805   9.113   7.294  1.3992  0.9890  2.4605
  596MOL0     H80396   0.851   9.290   7.320 -1.1728 -1.7662  4.3519
  596MOL0     H80397   0.603   9.347   7.312 -2.3368 -1.9273 -0.8428
  596MOL0     H80398   0.586   9.174   7.328  0.9119 -1.1692  0.1093
  596MOL0     H80399   0.739   9.377   7.498  1.5774 -0.6378  1.0055
  596MOL0     H80400   0.589   9.304   7.562  2.2221  0.3768  1.8426
  596MOL0     H80401   0.760   9.079   7.487 -2.7370  2.0204 -2.4930
  596MOL0     H80402   0.841   9.171   7.601 -2.2546 -0.4106  4.6627
  596MOL0     H80403   0.733   9.032   7.735 -0.2563  0.3576  0.8697
  596MOL0     H80404   0.648   9.180   7.752 -1.0993  0.1889 -1.1074
  596MOL0     H80405   0.451   9.099   7.621 -1.0420  2.0281 -0.3391
  596MOL0     H80406   0.546   8.968   7.558 -2.9801 -2.4185  1.7404
  596MOL0     H80407   0.384   8.896   7.713 -1.8605  1.7574  0.7183
  596MOL0     H80408   0.545   8.846   7.773 -0.4751  0.4270  2.8085
  596MOL0     H80409   0.327   9.020   7.877  0.3335  3.4401 -1.0316
  596MOL0     H80410   0.485   9.084   7.905  2.4580 -0.9341 -0.1651
  596MOL0     H80411   0.554   9.034   8.139 -0.1346  0.9142  0.3743
  596MOL0     H80412   0.578   8.660   8.310 -3.1558 -0.5443 -1.4025
  596MOL0     H80413   0.674   8.806   8.334  0.0618  1.0162 -2.8802
  596MOL0     H80414   0.501   8.918   8.456  2.0889 -1.3498  0.9580
  596MOL0     H80415   0.518   8.765   8.528  1.1605 -0.4409 -0.5671
  596MOL0     H80416   0.272   8.853   8.367  1.1937 -0.9479 -1.4288
  596MOL0     H80417   0.279   8.830   8.534  0.1730 -0.6435  0.7484
  596MOL0     H80418   0.301   8.617   8.316  0.1230 -0.3577  0.3981
  596MOL0     H80419   0.172   8.644   8.438 -0.1957 -3.5089  2.3969
  596MOL0     H80420   0.241   8.419   8.316  0.0998  0.3990  0.4469
  596MOL0     H80421   0.208   8.091   8.244  1.0713  0.2118  0.3546
  596MOL0     H80422   0.059   8.136   8.304  0.4387 -1.4848  1.3538
  596MOL0     H80423   0.153   8.254   8.201 -1.0042 -0.4522 -0.2645
  596MOL0     H80424   0.507   7.827   8.663  1.5992 -2.1994  2.7967
  596MOL0     H80425   0.550   7.576   8.648 -1.0064 -2.3918  4.4671
  596MOL0     H80426   0.246   7.321   8.751  0.4365  0.5094 -0.3585
  596MOL0     H80427   0.212   7.296   8.571  0.3016  0.2508 -0.7841
  596MOL0     H80428   0.266   7.086   8.661  0.3980 -0.5090 -1.9290
  596MOL0     H80429   0.376   7.146   8.543 -2.1484  2.4020 -0.9850
  596MOL0     H80430   0.521   7.230   8.759  0.5168 -0.5516  2.6703
  596MOL0     H80431   0.519   7.056   8.711 -0.1485 -0.4578  1.8321
  596MOL0     H80432   0.302   7.146   8.903 -0.5780  0.0258 -0.7736
  596MOL0     H80433   0.377   7.000   8.900 -1.5301  0.0534 -1.5946
  596MOL0     H80434   0.522   7.242   9.005  0.7384 -0.8748  1.7309
  596MOL0     H80435   0.587   7.084   9.007 -0.2370 -1.4199 -2.0554
  596MOL0     H80436   0.318   7.160   9.141 -1.3450 -3.1664 -2.3832
  596MOL0     H80437   0.385   7.006   9.157 -0.3303 -0.6864 -3.2391
  596MOL0     H80438   0.607   7.169   9.234  0.6983  0.6323  0.8228
  596MOL0     H80439   0.488   7.111   9.359  4.2426  1.5193  0.8563
  596MOL0     H80440   0.359   7.332   9.289 -0.2889 -0.8495 -0.7232
  596MOL0     H80441   0.496   7.351   9.180  0.4627  0.7518  0.1241
  596MOL0     H80442   0.128   7.509   8.615 -0.3213  1.6069 -1.8479
  596MOL0     H80443   0.089   7.753   8.642  0.1579  0.4424  4.1098
  596MOL0     H80444   0.325   8.164   8.713 -0.2304 -0.0507  0.3275
  596MOL0     H80445   0.389   8.395   8.715 -0.7178  2.6231 -0.5504
  596MOL0     H80446   1.005   9.130   7.193  2.0978 -2.2123 -0.1428
  596MOL0     H80447   1.163   9.053   7.027  0.1654 -4.1871 -3.6487
  596MOL0     H80448   1.050   8.908   6.522 -0.0986 -0.3747  1.4919
  596MOL0     H80449   1.168   8.797   6.320 -1.4261 -0.7474  0.5749
  596MOL0     H80450   1.547   8.772   6.298 -0.0677 -0.5197 -0.6721
  596MOL0     H80451   1.577   8.609   6.315  0.4247  0.6567  0.0103
  596MOL0     H80452   1.505   8.769   6.071  0.4672 -1.1319 -4.0119
  596MOL0     H80453   1.438   8.608   6.072 -0.6877 -0.4836  3.1808
  596MOL0     H80454   1.639   8.543   5.990 -0.3629  2.1023 -0.9066
  596MOL0     H80455   1.713   8.566   6.147 -1.5986 -2.7273 -0.4906
  596MOL0     H80456   1.780   8.795   6.091  1.6292 -0.9304 -0.0842
  596MOL0     H80457   1.664   8.795   5.956 -2.4998 -0.7371  2.5447
  596MOL0     H80458   1.948   8.570   5.760  0.8197  3.8847 -2.1780
  596MOL0     H80459   1.478   8.646   6.570 -1.1396 -3.1954  1.1303
  596MOL0     H80460   1.388   8.782   6.755  0.3538  2.0296  0.3841
  597MOL0     O80461   4.864   1.382  10.790  0.3957 -0.2453  0.2716
  597MOL0     C80462   4.874   1.266  10.771  0.6203 -0.0188  0.0027
  597MOL0     O80463   4.872   1.210  10.652 -1.0592 -0.1411  0.2653
  597MOL0     C80464   4.869   1.280  10.529 -0.4436 -0.1728 -1.1048
  597MOL0     C80465   4.979   1.320  10.450  0.3568  0.9107  0.7665
  597MOL0     C80466   4.972   1.415  10.356 -0.7017  0.3778  0.0692
  597MOL0     C80467   4.847   1.475  10.336 -0.3581 -1.3240  0.5656
  597MOL0     O80468   4.828   1.566  10.234  0.1037 -0.0590  0.3049
  597MOL0     C80469   4.924   1.590  10.133  0.1604 -0.1537  0.3309
  597MOL0     C80470   4.905   1.734  10.070 -0.2577 -0.1491 -0.1062
  597MOL0     C80471   4.794   1.757   9.966 -0.2255 -0.6212 -0.6881
  597MOL0     C80472   4.656   1.749  10.029  0.8318 -0.0216 -0.7470
  597MOL0     C80473   4.558   1.837   9.945  0.6179  0.8357  0.3436
  597MOL0     C80474   4.414   1.828   9.997 -0.3016  0.3509 -0.5093
  597MOL0     C80475   4.338   1.906   9.898 -0.5906 -0.1103 -0.0149
  597MOL0     C80476   4.193   1.902   9.904 -0.0197  0.1506 -0.2942
  597MOL0     N80477   4.118   1.974  10.009 -0.6833 -0.0610 -0.2519
  597MOL0     C80478   4.128   2.111  10.021 -1.0103  0.0486 -0.1980
  597MOL0     C80479   4.071   2.139  10.142 -0.3015  0.0120 -0.0354
  597MOL0     C80480   4.054   2.265  10.214  0.3068 -0.5013  0.2676
  597MOL0     C80481   4.196   2.341  10.229 -0.0887  0.7297 -0.2949
  597MOL0     C80482   4.170   2.474  10.292  0.6589 -0.5036  1.2245
  597MOL0     C80483   4.292   2.555  10.291  0.0771  0.2686  0.0209
  597MOL0     O80484   4.305   2.605  10.154 -0.6606 -0.2242  0.6522
  597MOL0     C80485   4.384   2.712  10.135  0.0989 -1.1693 -0.4568
  597MOL0     C80486   4.389   2.756  10.007 -0.5711  0.1360  0.5659
  597MOL0     C80487   4.473   2.864   9.960  1.1041 -0.2399 -0.0837
  597MOL0     C80488   4.485   2.901   9.816 -0.0109 -0.7718  0.3599
  597MOL0     C80489   4.540   2.941  10.057  0.7347  0.5790 -0.9035
  597MOL0     C80490   4.624   3.052  10.030 -0.4634 -2.4610  0.0628
  597MOL0     O80491   4.746   3.044  10.088  0.1183  0.5091 -0.3191
  597MOL0     C80492   4.828   3.154  10.076 -0.3222  0.5726 -0.5929
  597MOL0     C80493   4.827   3.263  10.164 -0.5044 -0.5661 -0.6195
  597MOL0     C80494   4.933   3.357  10.156  0.8683 -0.5290  0.2441
  597MOL0     C80495   5.023   3.362  10.047 -0.8216  0.7620  0.0359
  597MOL0     O80496   5.107   3.470  10.048  0.2041 -0.1609  0.5230
  597MOL0     C80497   5.217   3.479   9.954 -0.4992 -0.1682  0.8317
  597MOL0     C80498   5.298   3.602   9.956 -0.0864 -0.4605 -0.9584
  597MOL0     C80499   5.401   3.604  10.071  0.4781 -0.3390  0.3797
  597MOL0     C80500   5.334   3.577  10.210 -0.6783  0.0187  0.2933
  597MOL0     C80501   5.254   3.690  10.266 -0.6038 -0.6900 -0.5695
  597MOL0     C80502   5.230   3.674  10.418  0.5502  0.0734  0.1385
  597MOL0     C80503   5.115   3.587  10.454  1.1915  0.0531 -0.3773
  597MOL0     C80504   5.133   3.438  10.468 -0.1828  0.0875 -0.8753
  597MOL0    Cl80505   5.060   3.382  10.625  0.1565 -0.0186 -0.1233
  597MOL0     C80506   5.020   3.247   9.960 -0.1013  0.4314 -0.4575
  597MOL0     C80507   4.917   3.156   9.966  0.2993 -0.9655  0.0724
  597MOL0     O80508   4.585   3.142   9.951 -0.2341 -0.5307  0.6816
  597MOL0     C80509   4.525   2.904  10.194 -1.2916  0.1670 -0.1187
  597MOL0     C80510   4.452   2.791  10.230 -0.7911  0.5634  0.6813
  597MOL0     N80511   4.015   2.019  10.190 -0.0766  0.4616  1.0151
  597MOL0     N80512   4.042   1.924  10.114 -0.4822 -0.1356  0.4949
  597MOL0     C80513   4.729   1.430  10.413  0.5191 -0.6508  0.1812
  597MOL0     C80514   4.744   1.332  10.508  0.0524 -0.4462  0.9254
  597MOL0     C80515   4.907   1.176  10.888  0.2771 -0.2391  0.2321
  597MOL0     C80516   4.923   1.036  10.869  0.0416  0.1654 -0.0793
  597MOL0     C80517   4.944   0.944  10.973 -0.3751 -1.5530  0.3505
  597MOL0     C80518   4.948   0.993  11.104  0.3753  1.4611 -0.5908
  597MOL0     O80519   4.938   0.900  11.211  0.0852 -0.8263  0.5197
  597MOL0     C80520   5.056   0.906  11.292 -0.6871 -0.0310 -0.5980
  597MOL0     C80521   5.013   0.949  11.438  0.1382 -0.6205  0.0136
  597MOL0     C80522   4.959   0.828  11.523 -0.3592  0.0223 -0.8080
  597MOL0     C80523   4.854   0.737  11.466  0.5958  0.3020 -0.3962
  597MOL0     C80524   4.816   0.630  11.566  1.2081  0.1116 -0.6359
  597MOL0     C80525   4.786   0.560  11.663  0.1140  0.5298  0.5456
  597MOL0     C80526   4.937   1.130  11.125 -0.3062  0.6651  0.1265
  597MOL0     C80527   4.920   1.217  11.016  0.3417  0.5180 -1.0036
  597MOL0     H80528   5.065   1.255  10.467 -1.0386 -1.3585 -0.3031
  597MOL0     H80529   5.060   1.441  10.297  2.1409  2.3594  4.5966
  597MOL0     H80530   5.026   1.589  10.173 -0.0044 -0.1643  0.7612
  597MOL0     H80531   4.911   1.522  10.049 -2.2262  1.1025 -0.4040
  597MOL0     H80532   4.903   1.807  10.152  2.4147  0.7794 -0.7698
  597MOL0     H80533   4.998   1.756  10.018 -0.2480 -1.0195 -0.4785
  597MOL0     H80534   4.809   1.855   9.921 -0.4315 -0.5121 -0.5151
  597MOL0     H80535   4.806   1.686   9.883  1.4757 -0.0611 -0.9648
  597MOL0     H80536   4.619   1.648  10.049  0.4391  0.5101  1.4931
  597MOL0     H80537   4.673   1.785  10.131  1.5292  1.6893 -1.4196
  597MOL0     H80538   4.587   1.943   9.953  1.3280  0.5372  2.2650
  597MOL0     H80539   4.565   1.806   9.841  1.7252 -0.6101  0.8229
  597MOL0     H80540   4.389   1.721  10.000  1.5998 -0.1154 -0.0503
  597MOL0     H80541   4.399   1.866  10.099 -0.7394  0.5327 -0.6386
  597MOL0     H80542   4.369   2.011   9.891 -1.6255  0.3275  1.6304
  597MOL0     H80543   4.360   1.869   9.797  0.1790  1.0649 -0.3103
  597MOL0     H80544   4.174   1.795   9.911  1.7208 -0.1735  0.1031
  597MOL0     H80545   4.172   1.962   9.815 -0.0837  2.2517  1.0549
  597MOL0     H80546   4.174   2.173   9.945  0.9322 -3.4261 -2.1040
  597MOL0     H80547   3.990   2.329  10.152  2.8278 -1.6980 -4.0185
  597MOL0     H80548   4.009   2.254  10.313 -1.1079  2.5401  0.0972
  597MOL0     H80549   4.256   2.344  10.137  0.7492  0.9921  0.2438
  597MOL0     H80550   4.260   2.286  10.298 -4.2700 -1.7188  2.0517
  597MOL0     H80551   4.137   2.463  10.396  1.6051 -1.3841  1.4372
  597MOL0     H80552   4.091   2.529  10.239  0.1908 -3.4024 -1.3255
  597MOL0     H80553   4.373   2.491  10.327 -1.9964 -2.3346  0.3847
  597MOL0     H80554   4.274   2.634  10.364 -0.9964 -1.0009  1.1787
  597MOL0     H80555   4.322   2.703   9.940  1.9659 -3.1175  0.3658
  597MOL0     H80556   4.433   2.823   9.760 -1.4113 -1.1321  2.0716
  597MOL0     H80557   4.421   2.987   9.797 -1.4711 -1.8367  0.2087
  597MOL0     H80558   4.582   2.919   9.770 -0.8161  2.2251 -0.3553
  597MOL0     H80559   4.750   3.283  10.239 -1.5664 -0.2669 -1.7611
  597MOL0     H80560   4.928   3.445  10.220 -2.1341  0.9496 -1.7918
  597MOL0     H80561   5.280   3.390   9.959  0.8603  0.4429 -2.4343
  597MOL0     H80562   5.179   3.475   9.851 -0.9994 -2.2522  1.0480
  597MOL0     H80563   5.347   3.607   9.858 -2.5314 -1.3868 -2.3126
  597MOL0     H80564   5.236   3.692   9.962  1.7829  1.0108 -2.3147
  597MOL0     H80565   5.458   3.697  10.071 -0.3847  0.2351 -1.5725
  597MOL0     H80566   5.479   3.528  10.060 -2.4778 -3.5682 -0.2295
  597MOL0     H80567   5.270   3.488  10.211 -1.5669  0.2986 -4.8690
  597MOL0     H80568   5.414   3.560  10.282 -2.2855 -0.5667  2.0222
  597MOL0     H80569   5.160   3.709  10.213 -0.0931 -2.6586 -2.3267
  597MOL0     H80570   5.302   3.788  10.259 -1.7742  0.0522  1.1794
  597MOL0     H80571   5.315   3.634  10.474 -0.0025 -0.9132  0.2949
  597MOL0     H80572   5.212   3.774  10.458 -2.3185  0.1588 -1.0973
  597MOL0     H80573   5.034   3.621  10.388  0.2903 -0.9110  0.2024
  597MOL0     H80574   5.089   3.634  10.549  3.0566  3.6468 -1.4473
  597MOL0     H80575   5.239   3.413  10.462 -0.4434 -1.4305  0.1943
  597MOL0     H80576   5.084   3.397  10.379 -3.1125  3.3989 -1.0056
  597MOL0     H80577   5.096   3.231   9.884 -2.0560  3.2706 -3.2620
  597MOL0     H80578   4.917   3.083   9.885  2.9000  0.9568 -1.8393
  597MOL0     H80579   4.585   2.959  10.266 -0.7559  1.5882 -1.5902
  597MOL0     H80580   4.453   2.773  10.337 -0.8793 -1.1679  0.4187
  597MOL0     H80581   4.627   1.464  10.399  0.6988  0.9300  2.1276
  597MOL0     H80582   4.667   1.293  10.574  2.0317 -2.1027  2.3956
  597MOL0     H80583   4.932   0.986  10.773  0.6072 -0.3923  0.2568
  597MOL0     H80584   4.964   0.840  10.948 -0.5197 -2.0541  2.1774
  597MOL0     H80585   5.105   0.808  11.297 -0.2209  0.2445  1.3317
  597MOL0     H80586   5.129   0.980  11.259  2.1367 -2.6863 -0.7236
  597MOL0     H80587   4.949   1.038  11.445 -1.4169 -1.7070  0.1889
  597MOL0     H80588   5.103   0.975  11.493 -1.6036  1.6033  2.0068
  597MOL0     H80589   4.916   0.868  11.615  3.3946 -2.0100  2.1283
  597MOL0     H80590   5.041   0.761  11.551  1.2541  2.4807  0.7929
  597MOL0     H80591   4.887   0.691  11.372 -1.2743 -2.0713  0.0284
  597MOL0     H80592   4.759   0.783  11.438 -1.0013 -3.2880 -1.4537
  597MOL0     H80593   4.781   0.496  11.749 -2.2658 -1.0424 -0.6583
  597MOL0     H80594   4.936   1.159  11.230 -0.4731 -2.3807  1.0762
  597MOL0     H80595   4.919   1.320  11.050 -0.0552 -0.3116  1.7624
  598MOL0     O80596   4.197  11.442   1.945 -0.4761  0.0492  0.1356
  598MOL0     C80597   4.226  11.545   1.892  0.4362  1.1577 -0.4762
  598MOL0     O80598   4.200  11.671   1.935 -0.2268  0.6621 -0.0545
  598MOL0     C80599   4.116  11.686   2.040  0.4056  0.2438 -0.1883
  598MOL0     C80600   3.991  11.619   2.069 -0.1167 -0.5079 -0.0975
  598MOL0     C80601   3.907  11.658   2.169 -0.5569  0.6518 -0.2140
  598MOL0     C80602   3.928  11.772   2.243 -0.7063 -0.0873 -0.6004
  598MOL0     O80603   3.854  11.820   2.351  0.3422  0.9710  0.7161
  598MOL0     C80604   3.752  11.738   2.406  0.3977  0.0667  0.7167
  598MOL0     C80605   3.663  11.817   2.496  0.4361  0.4545  0.5090
  598MOL0     C80606   3.723  11.836   2.631  0.7596  0.1043  0.6923
  598MOL0     C80607   3.628  11.918   2.722  0.8148  0.0027 -0.4076
  598MOL0     C80608   3.673  11.913   2.874  0.3359  0.3418  0.4085
  598MOL0     C80609   3.590  11.995   2.972  1.1229 -0.0928  0.5942
  598MOL0     C80610   3.642  12.027   3.110  0.6406  0.3027  0.1387
  598MOL0     C80611   3.704  11.903   3.161  0.2969  0.2553 -0.5238
  598MOL0     N80612   3.727  11.908   3.304 -0.1331  0.0928 -0.0363
  598MOL0     C80613   3.806  12.002   3.369  0.4352  1.2359  0.1770
  598MOL0     C80614   3.808  11.964   3.499 -0.2528 -0.9794  0.2530
  598MOL0     C80615   3.877  12.034   3.617 -0.4996 -0.0759  0.1651
  598MOL0     C80616   4.014  12.087   3.584 -0.3299 -0.7770  0.7909
  598MOL0     C80617   4.106  12.129   3.703 -0.0030 -0.1611 -0.5790
  598MOL0     C80618   4.251  12.141   3.652  0.6740  0.1809  0.5389
  598MOL0     O80619   4.335  12.207   3.740 -0.2414  0.3738  0.3620
  598MOL0     C80620   4.333  12.346   3.738 -0.4284  0.4773 -0.0883
  598MOL0     C80621   4.317  12.416   3.858  0.2619 -0.3359 -0.7480
  598MOL0     C80622   4.317  12.558   3.867 -0.5446 -0.1689 -0.5846
  598MOL0     C80623   4.297  12.622   4.006  0.4924  0.0450  0.5260
  598MOL0     C80624   4.346  12.633   3.752 -0.6687 -0.1773  0.0959
  598MOL0     C80625   4.353  12.783   3.739  0.5321  0.9129 -0.6954
  598MOL0     O80626   4.427  12.835   3.637  0.0616  0.1269 -0.6108
  598MOL0     C80627   4.446  12.964   3.642  0.7187 -0.8032  0.4005
  598MOL0     C80628   4.541  13.021   3.729 -0.5025  0.1621  0.8515
  598MOL0     C80629   4.548  13.157   3.739 -0.7682 -0.0986  0.2341
  598MOL0     C80630   4.457  13.242   3.680 -0.2331 -1.3423  0.2703
  598MOL0     O80631   4.467  13.375   3.707  1.2100  0.1639  0.0922
  598MOL0     C80632   4.356  13.470   3.677 -0.5550  0.6088  0.0783
  598MOL0     C80633   4.407  13.605   3.730  0.7389 -0.3622 -0.2328
  598MOL0     C80634   4.509  13.660   3.633  0.4341 -0.5312  0.1768
  598MOL0     C80635   4.610  13.752   3.691 -0.6197  0.1761 -0.1510
  598MOL0     C80636   4.565  13.875   3.765 -0.1788 -0.4693 -0.2257
  598MOL0     C80637   4.690  13.937   3.832 -0.0370 -0.4529 -0.2219
  598MOL0     C80638   4.646  14.058   3.914 -0.2212 -1.0535 -0.7500
  598MOL0     C80639   4.762  14.109   4.014  0.7750 -0.2345  0.0931
  598MOL0    Cl80640   4.858  14.221   3.914  0.6350 -0.2590 -0.0252
  598MOL0     C80641   4.357  13.190   3.602  0.1692  0.5232  0.4096
  598MOL0     C80642   4.347  13.052   3.579  0.1414  0.6066 -0.4368
  598MOL0     O80643   4.300  12.856   3.830 -0.1283 -0.0012  0.7840
  598MOL0     C80644   4.369  12.566   3.633 -0.4377 -0.4514  0.5526
  598MOL0     C80645   4.363  12.432   3.622 -0.3598  0.0370 -0.6633
  598MOL0     N80646   3.739  11.841   3.510 -0.2188 -0.6036  0.0494
  598MOL0     N80647   3.686  11.822   3.395 -0.4116  0.0320 -0.9474
  598MOL0     C80648   4.045  11.837   2.218  0.4506 -0.2727 -0.0628
  598MOL0     C80649   4.131  11.802   2.117 -0.8354 -0.0112  0.4931
  598MOL0     C80650   4.313  11.524   1.766 -0.1186 -1.1478  0.3634
  598MOL0     C80651   4.357  11.395   1.733 -0.2856  0.1775 -0.4771
  598MOL0     C80652   4.450  11.380   1.624  0.0177 -0.5653 -0.0105
  598MOL0     C80653   4.478  11.499   1.551  0.5484  0.3949  0.7602
  598MOL0     O80654   4.554  11.509   1.438  0.1764 -0.6077 -0.1580
  598MOL0     C80655   4.661  11.414   1.410  0.4078  0.5703 -0.4590
  598MOL0     C80656   4.672  11.411   1.262 -0.2748  0.8348 -0.2553
  598MOL0     C80657   4.674  11.549   1.201  0.6190  0.1365  0.5420
  598MOL0     C80658   4.667  11.528   1.051 -0.5499 -1.2553  0.8202
  598MOL0     C80659   4.647  11.656   0.979  0.2747 -0.6471  0.2824
  598MOL0     C80660   4.631  11.753   0.901  0.0099  0.0256  0.5248
  598MOL0     C80661   4.424  11.628   1.581  0.5303  0.8077 -0.5225
  598MOL0     C80662   4.344  11.637   1.692 -0.5649 -0.6110  1.0288
  598MOL0     H80663   3.951  11.535   2.013  2.5209 -2.2174  0.3994
  598MOL0     H80664   3.821  11.594   2.187 -1.4533  0.9670 -2.9821
  598MOL0     H80665   3.674  11.702   2.339 -0.3787  0.2077  1.5282
  598MOL0     H80666   3.794  11.650   2.457  1.4031  1.4280  2.3235
  598MOL0     H80667   3.641  11.916   2.455  0.6043 -0.0730 -0.9128
  598MOL0     H80668   3.564  11.771   2.505  1.0551 -0.9478  0.5199
  598MOL0     H80669   3.725  11.739   2.680 -0.4355  0.8254  2.2793
  598MOL0     H80670   3.821  11.885   2.636  0.2760  1.3761 -1.0958
  598MOL0     H80671   3.614  12.021   2.690 -0.5616 -0.0213  0.0086
  598MOL0     H80672   3.528  11.873   2.721  0.5702  0.5377 -1.6891
  598MOL0     H80673   3.680  11.812   2.915  1.5658  0.4355  0.4694
  598MOL0     H80674   3.775  11.952   2.885  1.3428 -2.5476  2.5651
  598MOL0     H80675   3.574  12.092   2.926  1.1122 -1.4978 -2.6296
  598MOL0     H80676   3.493  11.945   2.974  0.1070  1.8156  1.5929
  598MOL0     H80677   3.703  12.117   3.108 -1.7184  2.0484  1.4996
  598MOL0     H80678   3.566  12.060   3.181  0.1571  0.2079 -0.3224
  598MOL0     H80679   3.798  11.885   3.110 -0.3755  3.3944 -3.2405
  598MOL0     H80680   3.640  11.818   3.137  0.4347 -0.3943  1.2519
  598MOL0     H80681   3.853  12.091   3.328  5.0184  0.3099  2.6862
  598MOL0     H80682   3.813  12.115   3.652 -1.1118  0.1714 -1.4548
  598MOL0     H80683   3.877  11.970   3.706 -0.3130 -1.3313 -0.7259
  598MOL0     H80684   4.024  12.171   3.515  1.0598 -0.1114  1.7528
  598MOL0     H80685   4.066  12.007   3.531  1.3719 -0.0575  1.2874
  598MOL0     H80686   4.111  12.047   3.775 -0.0913 -0.3198 -0.7549
  598MOL0     H80687   4.081  12.227   3.745 -0.3919  0.2845 -1.8170
  598MOL0     H80688   4.249  12.195   3.557 -1.4432 -0.1198  0.3593
  598MOL0     H80689   4.293  12.041   3.633  0.0408 -0.1557  0.8846
  598MOL0     H80690   4.307  12.356   3.947 -0.5001 -1.7004 -1.7124
  598MOL0     H80691   4.336  12.724   4.014 -3.4763  1.5845  3.8022
  598MOL0     H80692   4.192  12.633   4.032  0.8923 -2.6222  4.1703
  598MOL0     H80693   4.347  12.568   4.087  0.3000  0.2230  0.7654
  598MOL0     H80694   4.617  12.958   3.774  2.6562  2.3046 -1.0341
  598MOL0     H80695   4.609  13.206   3.815 -2.2707  0.0851  1.3954
  598MOL0     H80696   4.341  13.466   3.569 -0.7969 -2.3194  0.1406
  598MOL0     H80697   4.262  13.434   3.722  0.0630 -1.5923 -0.2538
  598MOL0     H80698   4.314  13.663   3.735  0.5026 -0.7104 -0.5805
  598MOL0     H80699   4.459  13.596   3.827  1.0067  0.1103 -0.3253
  598MOL0     H80700   4.456  13.722   3.561  1.8233  0.4807 -0.0193
  598MOL0     H80701   4.563  13.580   3.583  3.5441  0.2854  1.9441
  598MOL0     H80702   4.674  13.690   3.754  0.8769 -0.0723 -1.8436
  598MOL0     H80703   4.674  13.787   3.610  1.0210 -1.9961  0.1067
  598MOL0     H80704   4.492  13.851   3.843  0.1047 -0.0168  0.1901
  598MOL0     H80705   4.525  13.957   3.704  2.1070 -0.3542 -1.6745
  598MOL0     H80706   4.737  13.867   3.901  0.6784  1.1909  1.0106
  598MOL0     H80707   4.758  13.978   3.756 -1.1072  1.1469 -0.3734
  598MOL0     H80708   4.558  14.040   3.976 -0.0940  0.7132  0.0030
  598MOL0     H80709   4.618  14.139   3.847  0.1888 -1.7884 -1.8378
  598MOL0     H80710   4.821  14.026   4.055  0.1221 -0.8078 -0.1051
  598MOL0     H80711   4.732  14.165   4.103 -1.2797 -0.8078 -0.1934
  598MOL0     H80712   4.281  13.257   3.563  3.0743  2.6792 -2.0215
  598MOL0     H80713   4.270  13.001   3.521 -0.0064  1.5678 -1.1077
  598MOL0     H80714   4.384  12.616   3.538  1.4400  0.1221  1.1156
  598MOL0     H80715   4.382  12.392   3.523 -0.6549 -2.1682  0.1220
  598MOL0     H80716   4.053  11.925   2.282 -0.7773  0.0941 -0.3964
  598MOL0     H80717   4.221  11.857   2.095 -0.3446  0.2724  2.9441
  598MOL0     H80718   4.315  11.311   1.789  0.3260  1.9920  2.9553
  598MOL0     H80719   4.500  11.285   1.605 -2.4211 -2.2187  1.2018
  598MOL0     H80720   4.747  11.446   1.468  0.7833 -0.2361 -0.5644
  598MOL0     H80721   4.638  11.313   1.447  0.5950  0.8333  0.4089
  598MOL0     H80722   4.590  11.359   1.213 -0.0216  0.4537 -0.2772
  598MOL0     H80723   4.768  11.361   1.245  0.9764  2.6634  1.0273
  598MOL0     H80724   4.769  11.594   1.229  0.2745  2.1149 -1.2193
  598MOL0     H80725   4.600  11.613   1.249 -0.2682 -2.3261  2.6939
  598MOL0     H80726   4.595  11.456   1.010  1.3321 -1.6736 -2.0344
  598MOL0     H80727   4.765  11.491   1.020  0.7457  1.3373  1.5720
  598MOL0     H80728   4.611  11.838   0.840  3.7343  3.2382  3.2367
  598MOL0     H80729   4.445  11.714   1.519 -0.2960  0.0233 -1.9372
  598MOL0     H80730   4.310  11.737   1.715 -1.9340 -1.5288  3.2990
  599MOL0     O80731   3.400   9.117   0.143  0.0747 -0.5327 -0.0391
  599MOL0     C80732   3.388   9.101   0.262  0.1978  0.0538  0.0033
  599MOL0     O80733   3.470   9.151   0.358  0.5573 -0.0320 -1.2851
  599MOL0     C80734   3.552   9.253   0.319  1.0154 -0.4886 -0.5946
  599MOL0     C80735   3.666   9.265   0.400 -0.1188  0.5106  0.5458
  599MOL0     C80736   3.754   9.368   0.396 -1.0262 -0.3546  0.5765
  599MOL0     C80737   3.733   9.468   0.302  0.6189  0.4887  0.5555
  599MOL0     O80738   3.824   9.577   0.296  1.6499  0.1565  0.1548
  599MOL0     C80739   3.752   9.699   0.292 -0.7613 -0.0510  1.1250
  599MOL0     C80740   3.870   9.801   0.305  0.0940 -0.7054  0.8714
  599MOL0     C80741   3.972   9.794   0.195  0.9476 -0.5788 -0.6777
  599MOL0     C80742   4.095   9.872   0.246  0.5431 -0.1230  0.1629
  599MOL0     C80743   4.206   9.849   0.142  0.4766  0.0742 -0.2453
  599MOL0     C80744   4.339   9.797   0.192 -0.3503  1.3072 -0.8664
  599MOL0     C80745   4.442   9.769   0.080 -0.3089 -0.2727  1.1983
  599MOL0     C80746   4.400   9.646  -0.005 -0.0518  0.5109 -0.5008
  599MOL0     N80747   4.514   9.585  -0.086 -0.4999  0.2117 -0.2206
  599MOL0     C80748   4.610   9.509  -0.028  0.4950 -0.4072 -0.1066
  599MOL0     C80749   4.691   9.469  -0.128  0.2660 -0.4504  1.1964
  599MOL0     C80750   4.785   9.357  -0.102 -0.4200  0.5711 -0.6877
  599MOL0     C80751   4.929   9.405  -0.127 -0.7505  0.2282 -0.3660
  599MOL0     C80752   5.033   9.301  -0.105 -1.0223  0.0473 -0.6761
  599MOL0     C80753   5.066   9.266   0.044 -1.0701  0.5990  0.6984
  599MOL0     O80754   5.164   9.163   0.049 -0.8601  0.4159 -0.2225
  599MOL0     C80755   5.141   9.042   0.113  0.4208 -0.1173  0.0967
  599MOL0     C80756   5.211   8.929   0.079  0.4006 -0.2228  0.7346
  599MOL0     C80757   5.189   8.805   0.133 -1.0291  0.0665  0.6013
  599MOL0     C80758   5.269   8.692   0.066 -0.0649 -0.0528 -0.5173
  599MOL0     C80759   5.100   8.793   0.238 -0.0357  0.7490  0.0044
  599MOL0     C80760   5.062   8.662   0.302 -0.4335  0.3074  0.3123
  599MOL0     O80761   4.946   8.649   0.378  0.2063 -0.4063 -0.5805
  599MOL0     C80762   4.927   8.523   0.436  0.0720  0.1332 -0.9013
  599MOL0     C80763   4.824   8.432   0.395 -0.2011  0.1495  0.0943
  599MOL0     C80764   4.794   8.317   0.466 -0.2693  0.0882 -0.2358
  599MOL0     C80765   4.861   8.285   0.585 -0.1287  0.7048  0.1472
  599MOL0     O80766   4.824   8.183   0.670 -0.2949  0.4799  0.4946
  599MOL0     C80767   4.683   8.159   0.694 -0.0461  0.3739 -1.0633
  599MOL0     C80768   4.669   8.106   0.843 -0.1610 -0.1061  0.6411
  599MOL0     C80769   4.674   7.964   0.868 -0.6378  0.8271  0.0556
  599MOL0     C80770   4.591   7.863   0.799  1.0166 -0.0914 -0.0377
  599MOL0     C80771   4.674   7.740   0.779  0.0622 -0.4620 -0.2771
  599MOL0     C80772   4.587   7.607   0.793 -1.1527  0.7748  0.6430
  599MOL0     C80773   4.679   7.485   0.811  0.1664 -0.1428 -0.0619
  599MOL0     C80774   4.597   7.367   0.865 -0.1904 -0.7950 -0.0194
  599MOL0    Cl80775   4.571   7.387   1.044  0.2436  0.3013  0.5168
  599MOL0     C80776   4.965   8.364   0.626 -0.2805 -0.3223  0.0781
  599MOL0     C80777   4.999   8.483   0.558  0.5315  0.7660  0.9463
  599MOL0     O80778   5.153   8.581   0.296 -0.0760  0.7314 -0.7854
  599MOL0     C80779   5.031   8.902   0.277 -1.0402 -0.2780 -0.2225
  599MOL0     C80780   5.049   9.025   0.222  0.6769  0.4491  0.6253
  599MOL0     N80781   4.642   9.525  -0.242  0.5007 -0.2600 -0.0396
  599MOL0     N80782   4.534   9.598  -0.219 -0.1890 -0.2092  0.9292
  599MOL0     C80783   3.621   9.449   0.214  0.1617 -0.0393  0.7764
  599MOL0     C80784   3.524   9.351   0.228  0.7915  0.1544 -0.5496
  599MOL0     C80785   3.273   9.027   0.313  0.0911  0.8403  0.8689
  599MOL0     C80786   3.167   8.999   0.218 -0.3561  0.3515  0.0050
  599MOL0     C80787   3.066   8.915   0.261 -0.2330 -0.0626  0.3818
  599MOL0     C80788   3.045   8.878   0.390 -0.0168 -0.1444  0.7288
  599MOL0     O80789   2.933   8.816   0.432 -0.9240 -0.6075 -0.2048
  599MOL0     C80790   2.814   8.806   0.354 -0.3021  1.3027 -0.9969
  599MOL0     C80791   2.703   8.729   0.443 -0.9126  0.6225  0.7823
  599MOL0     C80792   2.663   8.797   0.569 -0.1752 -0.0928 -0.3004
  599MOL0     C80793   2.594   8.930   0.574 -0.3033 -0.5258 -0.2195
  599MOL0     C80794   2.455   8.929   0.531  1.3334 -0.0876  0.6173
  599MOL0     C80795   2.338   8.950   0.507  0.5776  0.1826  1.6268
  599MOL0     C80796   3.138   8.918   0.483 -0.0347 -1.4693 -0.3537
  599MOL0     C80797   3.259   8.993   0.445 -0.4061  0.7357 -0.5887
  599MOL0     H80798   3.683   9.201   0.486  0.2530 -1.8469 -1.1862
  599MOL0     H80799   3.840   9.370   0.463 -0.6032  0.6397  0.0157
  599MOL0     H80800   3.687   9.712   0.205 -2.0552 -3.2140  1.4925
  599MOL0     H80801   3.676   9.724   0.367 -2.6744 -0.8059 -0.4719
  599MOL0     H80802   3.824   9.901   0.308 -3.7036 -2.0861 -2.1900
  599MOL0     H80803   3.913   9.783   0.404 -0.4691 -1.8299  0.9286
  599MOL0     H80804   4.001   9.690   0.179 -0.2347 -0.9691 -0.3405
  599MOL0     H80805   3.924   9.834   0.105 -0.7601  1.7748  1.1515
  599MOL0     H80806   4.076   9.979   0.250 -0.4188 -0.1778 -1.7549
  599MOL0     H80807   4.121   9.840   0.347 -1.4108 -1.0249  0.4311
  599MOL0     H80808   4.172   9.771   0.073 -0.6862 -0.9633  1.4162
  599MOL0     H80809   4.224   9.932   0.073 -1.5057 -2.0326 -3.5326
  599MOL0     H80810   4.392   9.876   0.247  1.3770  0.5892 -1.4351
  599MOL0     H80811   4.335   9.703   0.248  1.6302 -1.6390 -5.1617
  599MOL0     H80812   4.437   9.865   0.028 -2.4897 -1.4985 -1.0730
  599MOL0     H80813   4.545   9.764   0.118  0.4749 -0.7025 -0.8076
  599MOL0     H80814   4.323   9.685  -0.072  2.7395  2.6393 -2.7118
  599MOL0     H80815   4.368   9.572   0.070  2.7205 -2.1494 -1.7395
  599MOL0     H80816   4.625   9.478   0.075  2.3834 -1.6573 -0.7037
  599MOL0     H80817   4.766   9.303  -0.009  2.5894 -3.7580 -2.2589
  599MOL0     H80818   4.774   9.280  -0.179 -1.5906  1.8244 -1.8376
  599MOL0     H80819   4.955   9.492  -0.065  0.4701 -0.1895 -0.2769
  599MOL0     H80820   4.948   9.440  -0.229 -1.7235 -0.1100 -0.6779
  599MOL0     H80821   5.128   9.343  -0.139  1.6752 -1.8947  3.5874
  599MOL0     H80822   5.021   9.207  -0.160 -0.2663 -0.0878 -0.6205
  599MOL0     H80823   4.976   9.244   0.103 -0.4165  0.5836  1.7261
  599MOL0     H80824   5.114   9.348   0.097 -3.5906  1.9266  1.0879
  599MOL0     H80825   5.284   8.946   0.001 -2.3640  0.2510 -1.9210
  599MOL0     H80826   5.339   8.736  -0.006  2.3361  1.1095  2.2898
  599MOL0     H80827   5.314   8.613   0.127 -2.4327 -1.2223 -0.1511
  599MOL0     H80828   5.216   8.632  -0.008  3.2062 -1.1758 -2.1386
  599MOL0     H80829   4.768   8.444   0.303  1.7726  0.1144 -1.1922
  599MOL0     H80830   4.705   8.266   0.430 -0.3259  2.4606 -4.0282
  599MOL0     H80831   4.638   8.258   0.687  1.9563  1.5357  1.1982
  599MOL0     H80832   4.630   8.097   0.620 -3.4825  1.3876  0.3850
  599MOL0     H80833   4.729   8.174   0.904  0.1248  0.1310  0.1109
  599MOL0     H80834   4.566   8.124   0.875 -0.0444  1.6049  0.1683
  599MOL0     H80835   4.637   7.953   0.971  0.5880  1.8191  0.6259
  599MOL0     H80836   4.778   7.931   0.860 -0.9949 -0.0485 -1.3584
  599MOL0     H80837   4.503   7.850   0.862  0.0302  1.6370 -0.9551
  599MOL0     H80838   4.561   7.902   0.701  0.0900 -0.9594 -0.1063
  599MOL0     H80839   4.749   7.726   0.857  4.0480  0.0164 -3.6361
  599MOL0     H80840   4.719   7.743   0.679 -1.5956 -3.6813 -1.2811
  599MOL0     H80841   4.519   7.602   0.878 -2.7036  0.2365 -0.5819
  599MOL0     H80842   4.524   7.599   0.704 -0.4294 -3.4140  0.3027
  599MOL0     H80843   4.763   7.510   0.875 -1.7162 -0.8459  2.8466
  599MOL0     H80844   4.719   7.463   0.711  2.2015  0.6665  0.5317
  599MOL0     H80845   4.646   7.269   0.862 -0.0505 -0.8266  1.8416
  599MOL0     H80846   4.501   7.360   0.812 -1.1358 -0.2024  1.5395
  599MOL0     H80847   5.008   8.334   0.721 -2.4354 -4.3916  0.0101
  599MOL0     H80848   5.078   8.548   0.592  2.1445  0.2526 -1.5544
  599MOL0     H80849   4.954   8.904   0.354 -1.3670  2.9512 -0.4803
  599MOL0     H80850   4.995   9.109   0.266  0.7556  0.6993  0.2483
  599MOL0     H80851   3.606   9.522   0.135 -3.6814  1.0840  2.3125
  599MOL0     H80852   3.428   9.359   0.177 -0.4730 -0.6546  1.5681
  599MOL0     H80853   3.162   9.035   0.116  0.9018 -3.1441 -1.4298
  599MOL0     H80854   3.001   8.889   0.178  2.0345  4.3375 -3.2213
  599MOL0     H80855   2.772   8.905   0.333 -0.4846  1.7722  1.3324
  599MOL0     H80856   2.840   8.748   0.265  6.3159 -1.6428  2.1746
  599MOL0     H80857   2.737   8.630   0.473 -1.5797  0.0897 -0.1652
  599MOL0     H80858   2.608   8.730   0.388  0.9861 -2.1308 -3.0153
  599MOL0     H80859   2.753   8.803   0.632  0.1657 -2.6150 -0.4415
  599MOL0     H80860   2.601   8.725   0.625  2.3036 -1.6340  0.6260
  599MOL0     H80861   2.650   9.005   0.517 -0.0939 -2.0930 -2.1938
  599MOL0     H80862   2.592   8.969   0.676  1.0389  0.1520 -0.4245
  599MOL0     H80863   2.231   8.954   0.503  0.5143 -0.2044  2.5873
  599MOL0     H80864   3.123   8.895   0.588  1.7143 -2.4907 -0.2809
  599MOL0     H80865   3.327   9.025   0.523 -1.5748 -0.5882  1.0499
  600MOL0     O80866   9.955   6.736   7.985  0.1865 -0.3502 -0.3418
  600MOL0     C80867  10.047   6.745   7.898  0.3168  0.0862 -0.6654
  600MOL0     O80868  10.088   6.648   7.821 -0.4134  0.5788  0.2020
  600MOL0     C80869  10.007   6.533   7.815 -0.2834 -1.0764  0.8131
  600MOL0     C80870   9.861   6.537   7.804 -0.6794 -0.4002  0.0225
  600MOL0     C80871   9.788   6.416   7.788 -0.2007 -1.2685 -0.0750
  600MOL0     C80872   9.858   6.295   7.783  0.8302  0.6503  0.7224
  600MOL0     O80873   9.773   6.182   7.773  0.3398 -0.0847  0.4049
  600MOL0     C80874   9.818   6.064   7.836 -0.8823  0.3465 -0.6109
  600MOL0     C80875   9.743   5.941   7.777  0.0733 -0.4850 -0.2758
  600MOL0     C80876   9.737   5.913   7.620  0.0125 -0.0812 -0.6575
  600MOL0     C80877   9.858   5.819   7.571 -0.2704  0.1184 -0.7398
  600MOL0     C80878   9.863   5.787   7.421 -0.0703  0.0975  0.1939
  600MOL0     C80879   9.733   5.740   7.369 -0.0397  0.8492  0.1361
  600MOL0     C80880   9.694   5.595   7.403  0.0553  0.4529 -0.2666
  600MOL0     C80881   9.538   5.562   7.433 -1.0597  1.0631  0.8016
  600MOL0     N80882   9.474   5.645   7.529 -0.0171  0.3983 -0.2874
  600MOL0     C80883   9.407   5.753   7.497 -0.4166  1.0422 -0.7191
  600MOL0     C80884   9.353   5.811   7.611  0.0982  0.3838 -0.5894
  600MOL0     C80885   9.275   5.937   7.617  0.1009  0.4465 -0.6635
  600MOL0     C80886   9.336   6.037   7.720 -0.9193 -0.4486  0.3312
  600MOL0     C80887   9.434   6.150   7.668 -0.2952  1.0695 -0.2558
  600MOL0     C80888   9.388   6.232   7.543  1.0542 -0.0932  0.6210
  600MOL0     O80889   9.260   6.296   7.566 -0.2322 -0.5002  0.0048
  600MOL0     C80890   9.227   6.403   7.495  0.1514 -1.2566 -0.0474
  600MOL0     C80891   9.133   6.491   7.558  0.2591  1.2076 -0.0001
  600MOL0     C80892   9.081   6.605   7.494 -0.2696  0.4075  0.2526
  600MOL0     C80893   8.974   6.678   7.580 -0.3853 -0.0866 -0.3062
  600MOL0     C80894   9.128   6.639   7.363  0.2463 -0.0537 -0.4919
  600MOL0     C80895   9.090   6.767   7.305 -1.0862 -0.8880 -0.1350
  600MOL0     O80896   9.177   6.808   7.211 -0.7292  0.3251 -0.4398
  600MOL0     C80897   9.164   6.919   7.131  0.1377 -0.4240 -0.7510
  600MOL0     C80898   9.171   6.902   6.995 -0.5795 -0.2000  0.2558
  600MOL0     C80899   9.149   7.018   6.906 -0.3981 -1.0274 -0.1452
  600MOL0     C80900   9.130   7.145   6.956 -0.0475 -0.5851  0.2788
  600MOL0     O80901   9.111   7.246   6.864 -0.0811  0.2629  0.8108
  600MOL0     C80902   9.171   7.370   6.899  0.4718 -0.1194  0.9765
  600MOL0     C80903   9.133   7.457   6.779  0.2574 -1.2150 -0.6357
  600MOL0     C80904   8.990   7.515   6.800 -0.8273  0.0109  0.0488
  600MOL0     C80905   8.920   7.562   6.672  0.3045  0.6139  0.6716
  600MOL0     C80906   8.870   7.444   6.585  0.7843 -0.6732  0.6087
  600MOL0     C80907   8.763   7.495   6.486 -0.1521  0.2144 -0.3428
  600MOL0     C80908   8.702   7.377   6.410 -0.0680 -0.1992 -0.1152
  600MOL0     C80909   8.573   7.395   6.332  1.1993  0.5776  0.8888
  600MOL0    Cl80910   8.567   7.310   6.168 -0.1334  0.5173 -0.2386
  600MOL0     C80911   9.132   7.158   7.101 -0.5128  0.6715 -0.3793
  600MOL0     C80912   9.143   7.044   7.187 -0.0658 -0.1796 -0.2810
  600MOL0     O80913   8.986   6.823   7.330 -0.7343 -0.3089 -0.0110
  600MOL0     C80914   9.227   6.560   7.300  1.0572  0.1191 -0.4127
  600MOL0     C80915   9.271   6.443   7.368  0.1339  0.3582  0.4158
  600MOL0     N80916   9.401   5.736   7.717  0.2212  0.1409 -0.2929
  600MOL0     N80917   9.467   5.633   7.669  0.0741  0.5256 -0.2472
  600MOL0     C80918   9.999   6.298   7.780  0.3861  0.0416  0.2242
  600MOL0     C80919  10.070   6.416   7.799 -0.2472 -0.5422 -0.1323
  600MOL0     C80920  10.115   6.881   7.893 -0.4402 -0.5249 -0.9207
  600MOL0     C80921  10.076   6.995   7.973 -0.5967 -0.6015 -0.4485
  600MOL0     C80922  10.154   7.115   7.982 -0.9746 -0.4141  0.9332
  600MOL0     C80923  10.264   7.135   7.896 -0.2260 -0.0974 -0.6286
  600MOL0     O80924  10.327   7.249   7.915 -0.9708  0.1371  0.5734
  600MOL0     C80925  10.445   7.275   7.845 -0.7377  0.0363  0.2229
  600MOL0     C80926  10.503   7.402   7.915  0.0955  0.3349 -0.0663
  600MOL0     C80927  10.405   7.533   7.903 -0.0681 -0.1775  0.2310
  600MOL0     C80928  10.478   7.670   7.888  0.6621  1.1300 -0.1039
  600MOL0     C80929  10.385   7.776   7.852  0.3351 -0.3500 -0.7186
  600MOL0     C80930  10.327   7.862   7.792 -0.7798 -0.6306  0.0996
  600MOL0     C80931  10.298   7.030   7.810  0.6619  0.4765  0.6526
  600MOL0     C80932  10.231   6.900   7.815  0.4327 -0.7493 -0.0975
  600MOL0     H80933   9.803   6.626   7.827  0.6193  0.5354 -0.1834
  600MOL0     H80934   9.680   6.426   7.796  0.0418  1.5569  0.5960
  600MOL0     H80935   9.926   6.045   7.831 -0.6425  0.4862  2.3039
  600MOL0     H80936   9.801   6.080   7.942 -0.0160  1.0186 -0.5627
  600MOL0     H80937   9.781   5.854   7.831 -2.5791 -0.0878  2.5467
  600MOL0     H80938   9.642   5.951   7.818  0.1509  3.1514 -0.6545
  600MOL0     H80939   9.646   5.856   7.599 -0.2820  0.9827 -2.5279
  600MOL0     H80940   9.720   6.001   7.558 -0.8814 -1.8190 -3.0484
  600MOL0     H80941   9.945   5.874   7.610 -3.0748  2.2873  3.2375
  600MOL0     H80942   9.846   5.723   7.622 -0.3892 -0.1643 -1.3044
  600MOL0     H80943   9.898   5.874   7.365  2.3318 -0.2190  1.1037
  600MOL0     H80944   9.937   5.708   7.408 -0.8783 -0.7227  0.4207
  600MOL0     H80945   9.650   5.807   7.390 -0.9582 -0.2020 -0.0689
  600MOL0     H80946   9.753   5.743   7.261 -2.8412 -0.8610 -0.5462
  600MOL0     H80947   9.723   5.539   7.314  1.2968  0.6957 -0.0329
  600MOL0     H80948   9.743   5.550   7.490  0.8026 -1.9997 -1.8753
  600MOL0     H80949   9.541   5.458   7.467  1.4988  0.2336 -1.6364
  600MOL0     H80950   9.487   5.570   7.336 -0.0100  0.2412  0.1649
  600MOL0     H80951   9.396   5.800   7.399  1.2414  1.1370 -0.8898
  600MOL0     H80952   9.257   5.984   7.520 -2.9214  2.2862  0.6409
  600MOL0     H80953   9.175   5.907   7.651  0.5057 -2.3387 -1.6822
  600MOL0     H80954   9.400   5.979   7.788 -1.1703 -0.4132  0.5961
  600MOL0     H80955   9.270   6.095   7.785  2.7234  1.4717  2.6723
  600MOL0     H80956   9.536   6.115   7.653 -1.1358 -0.1945 -3.8942
  600MOL0     H80957   9.430   6.212   7.759  1.2778  0.7369  0.0655
  600MOL0     H80958   9.399   6.168   7.455  3.0797  0.6331  0.3009
  600MOL0     H80959   9.463   6.311   7.534  1.1656 -0.2725 -0.1213
  600MOL0     H80960   9.107   6.456   7.657  1.0244 -3.3848 -1.2283
  600MOL0     H80961   8.991   6.657   7.686 -2.4626 -0.7313 -0.0634
  600MOL0     H80962   8.983   6.785   7.560  0.7433 -0.2899 -1.0283
  600MOL0     H80963   8.869   6.652   7.561 -0.9637  0.8447  1.3862
  600MOL0     H80964   9.178   6.800   6.957  0.6516 -0.2955  0.7267
  600MOL0     H80965   9.149   7.000   6.799 -0.5364 -1.0475 -0.1421
  600MOL0     H80966   9.140   7.420   6.992 -0.2605  0.0274  0.6575
  600MOL0     H80967   9.279   7.354   6.890 -0.0567 -2.9523 -3.8893
  600MOL0     H80968   9.201   7.543   6.782 -0.3499 -0.7253 -0.4300
  600MOL0     H80969   9.131   7.411   6.680 -3.5897  0.6621 -1.6558
  600MOL0     H80970   9.002   7.606   6.859 -1.1537  3.6876 -4.8767
  600MOL0     H80971   8.924   7.444   6.850 -2.0237 -2.8350 -4.8110
  600MOL0     H80972   8.852   7.641   6.703  1.6067  3.2494 -2.5861
  600MOL0     H80973   8.988   7.616   6.606  0.3342  2.3606  2.0556
  600MOL0     H80974   8.814   7.381   6.655 -3.1188 -0.4400 -2.0076
  600MOL0     H80975   8.956   7.392   6.541  0.3715 -1.3680  0.6045
  600MOL0     H80976   8.679   7.548   6.533  0.7373  4.2492 -2.7799
  600MOL0     H80977   8.815   7.568   6.423  1.3657  0.5136  1.1813
  600MOL0     H80978   8.686   7.291   6.475 -0.9369  0.5629  0.7092
  600MOL0     H80979   8.780   7.351   6.338 -1.2762  1.4949 -2.2001
  600MOL0     H80980   8.571   7.502   6.312 -0.2485  0.5319  0.6951
  600MOL0     H80981   8.493   7.362   6.399 -1.4147  2.9798 -0.8287
  600MOL0     H80982   9.113   7.257   7.139  2.3175  0.3836  2.1691
  600MOL0     H80983   9.131   7.069   7.292  0.3950  0.6895 -0.4200
  600MOL0     H80984   9.262   6.593   7.203 -3.9650  2.6929 -1.6330
  600MOL0     H80985   9.348   6.382   7.321  1.3258  1.8705  0.2988
  600MOL0     H80986  10.058   6.207   7.771  0.3093 -0.2279  2.0430
  600MOL0     H80987  10.178   6.416   7.805  0.0643  1.3386 -3.5783
  600MOL0     H80988   9.981   6.985   8.025 -1.4537  0.3929 -1.7687
  600MOL0     H80989  10.130   7.202   8.042 -2.6942  0.8034 -1.3378
  600MOL0     H80990  10.517   7.195   7.865 -0.4841 -0.6785 -2.9643
  600MOL0     H80991  10.422   7.267   7.738 -0.1401 -0.7265  0.1410
  600MOL0     H80992  10.592   7.432   7.859 -1.4463  2.9848 -1.2810
  600MOL0     H80993  10.525   7.394   8.021 -1.2214  5.1171  0.7974
  600MOL0     H80994  10.343   7.537   7.992  2.6817  2.9388  2.2379
  600MOL0     H80995  10.345   7.512   7.814 -0.4972 -1.1294  0.7341
  600MOL0     H80996  10.556   7.657   7.812 -2.0249 -1.7969 -2.6122
  600MOL0     H80997  10.523   7.682   7.988  1.4199 -1.8686  0.0099
  600MOL0     H80998  10.278   7.950   7.756  1.9428  1.6848  1.6236
  600MOL0     H80999  10.379   7.030   7.738 -0.1032 -0.7680 -0.2497
  600MOL0     H81000  10.273   6.818   7.756  1.0390 -1.2107  0.9586
  601MOL0     O81001   3.914   5.278   3.837  0.1606  0.2661  0.9494
  601MOL0     C81002   3.968   5.321   3.739  0.0200 -0.3102  0.2648
  601MOL0     O81003   3.920   5.416   3.653 -0.5628 -0.4919 -0.2466
  601MOL0     C81004   3.791   5.424   3.615 -0.4205  0.4394 -0.2392
  601MOL0     C81005   3.690   5.322   3.638  0.1177 -0.7836  0.0668
  601MOL0     C81006   3.575   5.342   3.565 -0.1780  0.0208 -0.5398
  601MOL0     C81007   3.553   5.452   3.484  0.5217 -1.2580 -0.5118
  601MOL0     O81008   3.444   5.472   3.402 -0.5405 -0.4456  0.2071
  601MOL0     C81009   3.346   5.375   3.380 -0.3408  0.0232  0.0760
  601MOL0     C81010   3.233   5.385   3.497  0.1295 -0.0561 -0.0867
  601MOL0     C81011   3.088   5.356   3.458  1.4819  0.0363 -0.7978
  601MOL0     C81012   2.998   5.396   3.578 -1.1725  0.0548  0.3890
  601MOL0     C81013   2.858   5.400   3.524 -1.0024 -0.1490 -0.0857
  601MOL0     C81014   2.772   5.502   3.619 -0.8443 -0.8049  0.5508
  601MOL0     C81015   2.626   5.526   3.580 -0.1295  0.3780 -0.2385
  601MOL0     C81016   2.547   5.630   3.656  0.0679  0.8523  1.0074
  601MOL0     N81017   2.522   5.573   3.784  0.2513  0.3738 -1.2169
  601MOL0     C81018   2.457   5.458   3.813 -0.3498  0.5709 -1.2677
  601MOL0     C81019   2.417   5.471   3.944  0.6946 -0.0543  0.4340
  601MOL0     C81020   2.352   5.360   4.016  0.1491  0.3515 -1.1007
  601MOL0     C81021   2.204   5.354   3.983  0.0273  0.6092  0.1922
  601MOL0     C81022   2.115   5.254   4.070 -0.0184  0.6682 -0.5933
  601MOL0     C81023   2.090   5.291   4.217 -0.2216 -0.0260  0.1702
  601MOL0     O81024   1.953   5.262   4.256  0.1579  0.2754 -0.3707
  601MOL0     C81025   1.845   5.330   4.212  0.1669  0.5332  0.7599
  601MOL0     C81026   1.855   5.449   4.135  0.8409 -0.3215 -0.2246
  601MOL0     C81027   1.742   5.508   4.073 -0.3423 -0.1447 -0.0362
  601MOL0     C81028   1.763   5.631   3.983  0.0536  0.2933 -0.0150
  601MOL0     C81029   1.611   5.448   4.101  0.4376 -0.8233  0.4742
  601MOL0     C81030   1.484   5.482   4.038 -1.0457  0.2888  0.1896
  601MOL0     O81031   1.374   5.418   4.083 -0.1190 -0.5662 -0.2231
  601MOL0     C81032   1.276   5.402   3.996  0.3377  0.4552 -0.1248
  601MOL0     C81033   1.239   5.266   3.968 -0.7358  0.1003 -0.2942
  601MOL0     C81034   1.121   5.239   3.887 -0.4380 -0.3577 -0.4478
  601MOL0     C81035   1.056   5.355   3.833 -0.7870 -0.0951  1.0439
  601MOL0     O81036   0.945   5.345   3.747 -0.2521  0.0875 -0.3997
  601MOL0     C81037   0.977   5.305   3.615  0.7262 -0.5549 -0.4632
  601MOL0     C81038   0.844   5.268   3.541  0.6237 -0.5462 -0.4799
  601MOL0     C81039   0.758   5.394   3.520  0.8195  0.2553 -0.3779
  601MOL0     C81040   0.618   5.346   3.477  0.3964  0.9504 -0.0313
  601MOL0     C81041   0.529   5.468   3.434  0.6952  0.7547  0.0281
  601MOL0     C81042   0.593   5.567   3.332  0.0647  0.5300  0.1598
  601MOL0     C81043   0.484   5.634   3.257  0.4434 -0.0932  0.8561
  601MOL0     C81044   0.564   5.722   3.149 -0.9637 -0.6734 -0.9288
  601MOL0    Cl81045   0.439   5.809   3.054 -0.0913  0.0805  0.1384
  601MOL0     C81046   1.094   5.486   3.855 -0.5000  0.5020  0.0404
  601MOL0     C81047   1.204   5.510   3.934 -0.0342 -0.4313 -0.4214
  601MOL0     O81048   1.483   5.575   3.957  0.8888  0.5432  0.3926
  601MOL0     C81049   1.615   5.335   4.194  0.5383 -0.3879 -0.1424
  601MOL0     C81050   1.722   5.273   4.247 -0.5838 -0.4589  0.0185
  601MOL0     N81051   2.471   5.589   3.992 -0.6132  0.2786  0.3431
  601MOL0     N81052   2.536   5.640   3.899  0.3063  0.2661 -0.4509
  601MOL0     C81053   3.650   5.550   3.478  0.8900  0.4068  0.0383
  601MOL0     C81054   3.773   5.534   3.539 -0.2624  0.2148  0.1754
  601MOL0     C81055   4.107   5.283   3.726 -0.7076 -0.7580 -0.3968
  601MOL0     C81056   4.167   5.173   3.796 -0.8299  0.0064  0.8595
  601MOL0     C81057   4.310   5.145   3.794 -0.6455 -0.0353 -0.3052
  601MOL0     C81058   4.393   5.220   3.721 -0.6396  0.2827  1.3465
  601MOL0     O81059   4.534   5.197   3.712  0.1465 -0.4655  0.5060
  601MOL0     C81060   4.585   5.058   3.718  0.3167  0.3726 -0.8651
  601MOL0     C81061   4.628   5.017   3.858  0.7162 -0.2892  0.3063
  601MOL0     C81062   4.717   4.890   3.849 -0.2496 -0.6154 -0.0895
  601MOL0     C81063   4.664   4.765   3.923 -0.6876  0.0640  0.4599
  601MOL0     C81064   4.520   4.745   3.915  0.8537 -0.2008 -0.3083
  601MOL0     C81065   4.404   4.728   3.903 -0.0778 -0.4118 -0.3225
  601MOL0     C81066   4.341   5.322   3.644 -0.9960 -0.2743  0.3890
  601MOL0     C81067   4.204   5.348   3.647  0.0613  0.7931  0.4315
  601MOL0     H81068   3.708   5.223   3.678  1.4814 -1.4395 -2.0446
  601MOL0     H81069   3.502   5.262   3.571 -2.6562  2.1408 -0.5021
  601MOL0     H81070   3.300   5.380   3.281  2.7474 -0.4616 -1.4880
  601MOL0     H81071   3.405   5.284   3.388 -0.0325  0.3776  3.0011
  601MOL0     H81072   3.258   5.311   3.573 -1.9625 -2.0204 -1.2063
  601MOL0     H81073   3.241   5.487   3.535 -4.6110 -0.1712  1.9276
  601MOL0     H81074   3.069   5.425   3.376 -0.9192  0.1210 -0.2458
  601MOL0     H81075   3.074   5.250   3.433 -1.4022 -0.1708  1.1402
  601MOL0     H81076   3.011   5.329   3.664  0.7657 -1.2950 -0.8553
  601MOL0     H81077   3.029   5.497   3.603 -2.2701  0.6192 -0.4388
  601MOL0     H81078   2.854   5.430   3.419  4.1108 -0.6599 -0.6561
  601MOL0     H81079   2.819   5.298   3.519 -1.1502 -0.1894  1.2962
  601MOL0     H81080   2.776   5.449   3.715  0.6932  1.1742  1.6322
  601MOL0     H81081   2.817   5.600   3.634 -1.7130 -0.3684  0.3735
  601MOL0     H81082   2.621   5.551   3.474  2.0198  0.7084 -0.2976
  601MOL0     H81083   2.581   5.427   3.586 -0.5252  0.4328 -1.8852
  601MOL0     H81084   2.458   5.651   3.596  1.5862 -0.7358 -2.0656
  601MOL0     H81085   2.611   5.718   3.660 -0.0412  1.1973 -2.2113
  601MOL0     H81086   2.435   5.371   3.752 -0.5305  0.4592 -1.0437
  601MOL0     H81087   2.396   5.264   3.987 -1.2298 -1.4610  2.2709
  601MOL0     H81088   2.360   5.372   4.124  1.1489 -2.4602 -0.7765
  601MOL0     H81089   2.187   5.311   3.885 -1.9631 -3.6052  2.1310
  601MOL0     H81090   2.157   5.453   3.984 -1.4710  0.0201  3.5212
  601MOL0     H81091   2.174   5.163   4.055  1.0358  0.8835  1.6775
  601MOL0     H81092   2.023   5.224   4.019  1.2280 -1.8279 -1.5381
  601MOL0     H81093   2.118   5.393   4.245  0.1756 -0.4842  1.5559
  601MOL0     H81094   2.159   5.223   4.269 -0.7541 -0.1879  0.6801
  601MOL0     H81095   1.947   5.501   4.112 -1.2656  3.6041 -0.6708
  601MOL0     H81096   1.722   5.712   4.045  1.6586  1.1644 -0.0248
  601MOL0     H81097   1.863   5.670   3.961  0.2468 -0.9557 -1.5189
  601MOL0     H81098   1.702   5.617   3.894 -0.7712 -1.8199  0.8314
  601MOL0     H81099   1.295   5.183   4.010 -0.2082  0.9210  0.6788
  601MOL0     H81100   1.086   5.140   3.861 -1.6327  0.0924 -0.6519
  601MOL0     H81101   1.021   5.391   3.563 -0.6859 -0.3500 -1.3583
  601MOL0     H81102   1.050   5.223   3.617  1.2480 -0.1059 -0.8003
  601MOL0     H81103   0.871   5.218   3.447 -0.6269  0.8431 -1.6234
  601MOL0     H81104   0.791   5.196   3.604  1.7350  0.7490  2.0673
  601MOL0     H81105   0.801   5.463   3.447 -0.6789 -0.1164 -1.6778
  601MOL0     H81106   0.750   5.442   3.618  1.7799 -0.0898 -0.1208
  601MOL0     H81107   0.622   5.281   3.389 -0.6643 -0.6429  1.0306
  601MOL0     H81108   0.568   5.292   3.558 -1.3911  2.8186  0.2010
  601MOL0     H81109   0.502   5.525   3.524 -1.2952  1.2565 -0.8433
  601MOL0     H81110   0.438   5.422   3.395 -0.7990  1.2202  2.6883
  601MOL0     H81111   0.664   5.632   3.384 -0.5020 -1.9584  4.6072
  601MOL0     H81112   0.646   5.505   3.259 -3.4806 -2.1369 -0.4550
  601MOL0     H81113   0.436   5.705   3.325  1.1897 -1.3242  2.7362
  601MOL0     H81114   0.403   5.577   3.212  0.9486 -0.3029  0.1840
  601MOL0     H81115   0.620   5.668   3.072  1.7453  2.6753 -1.5342
  601MOL0     H81116   0.634   5.788   3.200  1.6484 -2.7192 -1.6701
  601MOL0     H81117   1.051   5.561   3.791 -1.5835 -1.2500 -1.3900
  601MOL0     H81118   1.229   5.615   3.951  1.3158 -0.7659 -0.2400
  601MOL0     H81119   1.530   5.277   4.229 -0.2812  0.7215 -0.2741
  601MOL0     H81120   1.717   5.193   4.320 -0.9255 -2.1780 -1.7969
  601MOL0     H81121   3.640   5.637   3.414 -1.2670  0.5638  0.4939
  601MOL0     H81122   3.857   5.599   3.517  0.1339  0.8344  3.1574
  601MOL0     H81123   4.104   5.105   3.853  1.5747 -1.4528  1.9112
  601MOL0     H81124   4.343   5.068   3.864 -1.2259  2.2251  2.6640
  601MOL0     H81125   4.503   4.993   3.686 -1.3420  0.8273  2.1165
  601MOL0     H81126   4.667   5.047   3.647  0.2641 -2.5098 -0.5671
  601MOL0     H81127   4.544   5.008   3.929 -0.5704  3.1742 -0.5513
  601MOL0     H81128   4.697   5.093   3.896  2.1621 -1.2066 -0.4065
  601MOL0     H81129   4.818   4.912   3.884  1.4281 -3.3624 -2.7395
  601MOL0     H81130   4.722   4.864   3.743  2.4661 -1.0973  0.0820
  601MOL0     H81131   4.691   4.792   4.026 -0.9518  0.2645  0.4765
  601MOL0     H81132   4.709   4.668   3.898  1.0057  1.1083 -0.7437
  601MOL0     H81133   4.298   4.720   3.917  0.0119  0.4420  1.0680
  601MOL0     H81134   4.411   5.380   3.585 -2.4803  0.6247 -0.5579
  601MOL0     H81135   4.171   5.431   3.586 -0.1488  2.1186  2.2683
  602MOL0     O81136   5.933   3.660   5.101  0.1788 -0.1888 -0.8906
  602MOL0     C81137   5.967   3.761   5.166 -0.0261 -0.1672 -0.4358
  602MOL0     O81138   5.906   3.886   5.171  0.0129  0.2121  0.0401
  602MOL0     C81139   5.774   3.908   5.146  0.6122 -0.4492 -0.5536
  602MOL0     C81140   5.679   3.809   5.141  0.0051  1.9108 -0.7034
  602MOL0     C81141   5.545   3.835   5.116 -0.3362 -0.8745  0.4497
  602MOL0     C81142   5.487   3.960   5.092 -0.0191 -0.8515  0.0648
  602MOL0     O81143   5.357   3.978   5.067  0.6052  1.0821 -0.3999
  602MOL0     C81144   5.344   3.975   4.923 -0.0497  0.2759  0.1475
  602MOL0     C81145   5.205   4.031   4.913  0.4128  0.1010 -0.3266
  602MOL0     C81146   5.160   4.030   4.771  0.2716  0.4164  0.6015
  602MOL0     C81147   5.017   4.085   4.771 -0.9722  0.1084 -0.5677
  602MOL0     C81148   4.982   4.122   4.623  0.0736  0.1591  0.1921
  602MOL0     C81149   4.831   4.155   4.630 -0.3267  0.0229 -0.0565
  602MOL0     C81150   4.791   4.212   4.492  1.2227  0.9036 -0.3460
  602MOL0     C81151   4.636   4.202   4.467 -0.3207  0.7361  0.8555
  602MOL0     N81152   4.549   4.291   4.541  1.0094  0.5183 -1.1087
  602MOL0     C81153   4.564   4.417   4.583 -0.5497 -0.4700 -0.5213
  602MOL0     C81154   4.455   4.439   4.666 -0.5341 -0.2921  0.2262
  602MOL0     C81155   4.427   4.568   4.737  0.5017  0.2118 -0.4624
  602MOL0     C81156   4.544   4.654   4.787  0.7097  0.3735 -0.1286
  602MOL0     C81157   4.606   4.627   4.921 -0.0409 -0.9531 -0.1291
  602MOL0     C81158   4.644   4.477   4.940 -0.6797  0.0717 -0.2713
  602MOL0     O81159   4.750   4.454   4.845 -0.6609  0.0021 -0.0284
  602MOL0     C81160   4.884   4.468   4.891  0.3722  0.9849 -0.2852
  602MOL0     C81161   4.985   4.449   4.796 -0.2591 -0.1083  0.2537
  602MOL0     C81162   5.124   4.457   4.830  0.1332  0.8039 -0.1497
  602MOL0     C81163   5.215   4.467   4.706  0.3080  0.8193  0.3063
  602MOL0     C81164   5.164   4.461   4.968 -0.2379 -0.0160  0.7142
  602MOL0     C81165   5.301   4.429   5.006 -1.1286 -0.0884 -1.0909
  602MOL0     O81166   5.327   4.455   5.134  0.2041 -0.2459 -0.7218
  602MOL0     C81167   5.430   4.397   5.210  0.0848  0.5344 -0.1690
  602MOL0     C81168   5.567   4.414   5.178  0.7100  0.1835  0.8207
  602MOL0     C81169   5.670   4.362   5.258  0.6747  0.1505  0.0003
  602MOL0     C81170   5.633   4.302   5.376 -0.3784  0.0253 -0.4781
  602MOL0     O81171   5.742   4.261   5.458  0.0631  0.6494  0.4224
  602MOL0     C81172   5.713   4.210   5.588 -0.1997  1.2661 -0.6574
  602MOL0     C81173   5.834   4.125   5.627 -0.1506  0.2794 -0.1341
  602MOL0     C81174   5.821   3.977   5.579  0.8838  0.7974  0.5684
  602MOL0     C81175   5.939   3.886   5.638  0.3203  0.1293  0.0446
  602MOL0     C81176   5.887   3.742   5.625 -0.2923  0.6572  0.1493
  602MOL0     C81177   5.892   3.661   5.746  0.4712 -0.3090  0.8217
  602MOL0     C81178   5.875   3.518   5.719  1.0852 -0.1548 -0.4378
  602MOL0     C81179   5.870   3.435   5.848 -0.4242  0.0131 -0.6234
  602MOL0    Cl81180   6.034   3.410   5.912  0.1343 -0.0335 -0.4734
  602MOL0     C81181   5.499   4.302   5.416  0.0635  0.4034  0.4529
  602MOL0     C81182   5.399   4.342   5.334  0.9128 -1.0443  0.3068
  602MOL0     O81183   5.366   4.352   4.941 -0.7054  0.1305 -0.7231
  602MOL0     C81184   5.062   4.478   5.059  0.5014 -0.7817  0.1066
  602MOL0     C81185   4.922   4.483   5.025 -0.0578 -0.2695  0.1129
  602MOL0     N81186   4.391   4.324   4.691 -0.2341 -0.1154  0.4196
  602MOL0     N81187   4.455   4.233   4.622 -0.7991  0.0522 -0.3419
  602MOL0     C81188   5.589   4.068   5.097  1.1219  0.1202  0.5376
  602MOL0     C81189   5.725   4.036   5.126  0.4411 -0.2146 -0.3143
  602MOL0     C81190   6.102   3.754   5.247  0.5131  0.0658  0.8190
  602MOL0     C81191   6.157   3.861   5.306  0.7525 -0.2918 -0.1248
  602MOL0     C81192   6.276   3.844   5.374 -0.3252 -0.2412 -0.6206
  602MOL0     C81193   6.341   3.713   5.388  0.3606  0.4903  0.0350
  602MOL0     O81194   6.455   3.702   5.454  0.1226  0.8012  0.1671
  602MOL0     C81195   6.444   3.639   5.578  0.2411  0.8883  0.2385
  602MOL0     C81196   6.377   3.729   5.679 -0.6373 -0.3065 -0.0461
  602MOL0     C81197   6.362   3.650   5.815 -0.8305  0.8289 -1.0967
  602MOL0     C81198   6.481   3.660   5.920 -0.3531  0.2399  0.3906
  602MOL0     C81199   6.612   3.601   5.871  0.0793  0.1256  0.6320
  602MOL0     C81200   6.727   3.555   5.856  0.2094 -0.3402  0.9780
  602MOL0     C81201   6.291   3.605   5.315 -0.0950  0.9469 -0.6128
  602MOL0     C81202   6.164   3.625   5.247 -0.7153 -0.0014 -0.6236
  602MOL0     H81203   5.698   3.708   5.173  0.5361  1.6898 -1.6674
  602MOL0     H81204   5.485   3.745   5.113 -0.8944 -0.4703 -1.3960
  602MOL0     H81205   5.415   4.041   4.874 -0.9988 -0.3034 -2.1198
  602MOL0     H81206   5.355   3.875   4.881  1.9049 -0.1423  1.4946
  602MOL0     H81207   5.137   3.958   4.957 -1.5556  0.1153 -3.0553
  602MOL0     H81208   5.193   4.126   4.966 -0.7354 -1.0168  1.5093
  602MOL0     H81209   5.217   4.098   4.707 -1.7895  2.4024  0.7532
  602MOL0     H81210   5.165   3.930   4.726 -1.8918 -1.4183  3.9889
  602MOL0     H81211   4.961   4.000   4.810  1.3734 -0.6142  1.4954
  602MOL0     H81212   5.007   4.176   4.832  1.7951  1.2584 -1.6608
  602MOL0     H81213   5.046   4.206   4.593  2.4101 -1.7014 -0.3121
  602MOL0     H81214   4.989   4.043   4.548  0.2709  2.4135 -2.3094
  602MOL0     H81215   4.769   4.067   4.650 -1.3778  0.7045 -0.2062
  602MOL0     H81216   4.810   4.227   4.709 -0.8026 -2.2576  2.0131
  602MOL0     H81217   4.828   4.314   4.504  0.0143  1.2154  1.0955
  602MOL0     H81218   4.848   4.169   4.410 -0.8606 -0.1090 -1.3504
  602MOL0     H81219   4.609   4.099   4.489 -2.3344  0.2322 -3.2287
  602MOL0     H81220   4.615   4.213   4.361  0.5751 -2.4830  0.2384
  602MOL0     H81221   4.630   4.487   4.533 -3.3714  2.6455 -0.1692
  602MOL0     H81222   4.380   4.636   4.665  0.6227 -0.5169 -1.2418
  602MOL0     H81223   4.353   4.549   4.816 -0.2225  0.6901 -1.0067
  602MOL0     H81224   4.511   4.759   4.782 -0.1705  0.0945 -0.4733
  602MOL0     H81225   4.619   4.642   4.709 -0.9815 -0.0315 -1.7736
  602MOL0     H81226   4.528   4.651   4.993  2.1112 -0.4743  2.1708
  602MOL0     H81227   4.689   4.699   4.915 -0.4771 -0.4647 -0.4276
  602MOL0     H81228   4.552   4.419   4.928 -1.9498  1.8423  0.3968
  602MOL0     H81229   4.671   4.449   5.042 -0.8145 -1.6687 -0.6917
  602MOL0     H81230   4.952   4.443   4.693  1.4961 -2.0356 -0.2558
  602MOL0     H81231   5.246   4.365   4.685 -2.1411 -0.4397  2.2650
  602MOL0     H81232   5.149   4.502   4.626 -0.0058 -0.3661  0.0385
  602MOL0     H81233   5.298   4.530   4.739  1.5762 -2.4029  4.0501
  602MOL0     H81234   5.590   4.461   5.083 -1.2955  0.0026  0.2136
  602MOL0     H81235   5.776   4.376   5.236  0.7536  2.1993  1.3438
  602MOL0     H81236   5.690   4.283   5.667  1.1387 -2.1899  3.3355
  602MOL0     H81237   5.636   4.132   5.586  1.0782 -0.2782  2.3746
  602MOL0     H81238   5.926   4.173   5.593 -0.1388  0.0377 -0.4534
  602MOL0     H81239   5.849   4.121   5.735  2.3339 -0.7908 -0.4561
  602MOL0     H81240   5.827   3.980   5.470 -2.4500  2.8847  0.2937
  602MOL0     H81241   5.721   3.941   5.608  0.6449  2.4483  1.9925
  602MOL0     H81242   6.033   3.895   5.583 -0.8751  3.4536 -1.7392
  602MOL0     H81243   5.959   3.917   5.741  0.4767  1.7232 -0.4250
  602MOL0     H81244   5.946   3.696   5.545 -1.3947 -0.3668 -0.0960
  602MOL0     H81245   5.783   3.736   5.591  0.4632 -1.5688 -2.0898
  602MOL0     H81246   5.994   3.674   5.783  1.9081 -0.3458 -2.7191
  602MOL0     H81247   5.816   3.691   5.818 -0.1385 -1.7096  0.8033
  602MOL0     H81248   5.955   3.484   5.654  0.6516  0.8196 -1.5149
  602MOL0     H81249   5.782   3.513   5.662  0.8263 -0.9299  0.0454
  602MOL0     H81250   5.848   3.331   5.823 -0.5420  0.1232 -0.9743
  602MOL0     H81251   5.797   3.470   5.922 -0.1173 -2.3025  0.8572
  602MOL0     H81252   5.472   4.272   5.517 -0.0842  0.3966  0.4118
  602MOL0     H81253   5.295   4.352   5.366  1.1336 -0.7005  0.9213
  602MOL0     H81254   5.077   4.467   5.166 -2.6411  4.9267  1.5311
  602MOL0     H81255   4.852   4.495   5.107  0.4212  0.1887  0.4549
  602MOL0     H81256   5.561   4.170   5.071 -0.8627 -0.5624 -0.2365
  602MOL0     H81257   5.791   4.122   5.132  0.1644  0.0553 -1.0233
  602MOL0     H81258   6.110   3.955   5.332  0.9239 -0.2697  0.1106
  602MOL0     H81259   6.325   3.920   5.434 -0.3823 -2.0272  1.8690
  602MOL0     H81260   6.388   3.545   5.571  2.5615 -0.6671  1.0262
  602MOL0     H81261   6.550   3.629   5.605 -0.4597  0.4301  3.1666
  602MOL0     H81262   6.274   3.760   5.659 -0.2922  1.4595  0.7384
  602MOL0     H81263   6.434   3.819   5.704 -2.2914 -0.0656  3.2704
  602MOL0     H81264   6.351   3.543   5.795 -1.3206  0.1605  2.1268
  602MOL0     H81265   6.280   3.683   5.880 -0.0544  0.3196  0.1815
  602MOL0     H81266   6.450   3.602   6.007 -1.7773  0.2948 -0.0473
  602MOL0     H81267   6.499   3.766   5.941  0.5126  0.4724 -1.3159
  602MOL0     H81268   6.829   3.523   5.855  1.0793  1.5911 -4.0581
  602MOL0     H81269   6.358   3.520   5.309 -2.0611 -0.7461 -0.0389
  602MOL0     H81270   6.132   3.542   5.184 -2.1388  1.3962 -1.8496
  603MOL0     O81271  10.755  10.554   7.875  0.6343 -0.3116 -0.0573
  603MOL0     C81272  10.839  10.574   7.799  0.1539  0.5587  0.2651
  603MOL0     O81273  10.851  10.517   7.676  0.4174 -0.1162 -0.0782
  603MOL0     C81274  10.762  10.409   7.648  0.9095 -0.3950  0.2799
  603MOL0     C81275  10.776  10.282   7.709  0.1138  0.4185 -0.4062
  603MOL0     C81276  10.687  10.175   7.678 -0.2890 -0.6252  1.3878
  603MOL0     C81277  10.596  10.192   7.579  0.3145 -0.1344 -0.3852
  603MOL0     O81278  10.521  10.079   7.568  0.7092  0.4105  0.1104
  603MOL0     C81279  10.399  10.088   7.491 -0.2798  0.7905 -0.1894
  603MOL0     C81280  10.327   9.954   7.500  0.0371 -0.0467 -0.0923
  603MOL0     C81281  10.277   9.911   7.637 -0.3236 -0.4865  0.1692
  603MOL0     C81282  10.168  10.002   7.706  0.2684  0.1784  0.5487
  603MOL0     C81283  10.146   9.957   7.853  0.0270  0.0932  0.3336
  603MOL0     C81284  10.259  10.000   7.943 -0.4111  0.4000  0.6910
  603MOL0     C81285  10.248   9.960   8.089  0.4399 -0.2802 -0.5415
  603MOL0     C81286  10.378   9.998   8.163 -0.1683 -0.3756  0.1708
  603MOL0     N81287  10.399   9.927   8.292 -0.2349 -1.4263  0.4656
  603MOL0     C81288  10.325   9.826   8.345  0.4220 -0.5843  0.1627
  603MOL0     C81289  10.384   9.791   8.459  0.0304  0.0385  0.2123
  603MOL0     C81290  10.347   9.677   8.561 -0.5606  0.2648  0.0466
  603MOL0     C81291  10.318   9.536   8.491 -0.0744 -0.4750 -0.8636
  603MOL0     C81292  10.289   9.426   8.590 -0.8961 -0.6595  1.2730
  603MOL0     C81293  10.253   9.297   8.526 -0.3700  0.2623 -0.3037
  603MOL0     O81294  10.214   9.195   8.622 -0.0619 -0.3531  0.1843
  603MOL0     C81295  10.193   9.073   8.566  1.4640 -0.5125 -0.2360
  603MOL0     C81296  10.092   9.055   8.465 -0.6127 -0.0406 -0.1039
  603MOL0     C81297  10.071   8.923   8.410 -0.1595  0.0441  0.3024
  603MOL0     C81298   9.964   8.920   8.295 -0.0077 -0.4823  0.0439
  603MOL0     C81299  10.145   8.809   8.451 -0.5085  0.8462  0.6407
  603MOL0     C81300  10.134   8.672   8.395 -0.7794  0.3764 -0.3336
  603MOL0     O81301  10.232   8.582   8.419 -0.4625  0.5518 -0.8569
  603MOL0     C81302  10.220   8.454   8.375 -0.9599 -0.5104  0.1202
  603MOL0     C81303  10.123   8.358   8.413 -0.8965 -1.0520 -1.1495
  603MOL0     C81304  10.130   8.224   8.377  0.2278  0.2116  0.5237
  603MOL0     C81305  10.241   8.187   8.295 -0.0296  0.1255  0.3946
  603MOL0     O81306  10.249   8.049   8.274 -0.1907 -0.1960 -0.2636
  603MOL0     C81307  10.370   7.986   8.284 -0.8863 -0.0832 -0.0626
  603MOL0     C81308  10.364   7.833   8.224 -0.4646  0.7000  0.2357
  603MOL0     C81309  10.266   7.750   8.303  0.6195  0.5873 -0.3975
  603MOL0     C81310  10.337   7.725   8.444  1.0881  0.6907  0.4147
  603MOL0     C81311  10.298   7.599   8.519 -0.7525 -0.4457  0.0687
  603MOL0     C81312  10.344   7.618   8.668 -0.6336  0.1266 -0.2296
  603MOL0     C81313  10.296   7.500   8.757  1.1582  0.0722  0.6778
  603MOL0     C81314  10.293   7.543   8.898  0.3922 -0.2470  0.2990
  603MOL0    Cl81315  10.437   7.512   8.975 -0.1152 -0.1159 -0.1365
  603MOL0     C81316  10.334   8.282   8.243 -0.0771  0.6582  0.1142
  603MOL0     C81317  10.324   8.409   8.292 -0.6195  0.1926 -0.5174
  603MOL0     O81318  10.043   8.654   8.329  0.1981 -0.0194  1.0665
  603MOL0     C81319  10.244   8.829   8.551  0.8733 -0.3151 -0.5830
  603MOL0     C81320  10.268   8.959   8.612  0.6894 -0.8987  0.0338
  603MOL0     N81321  10.501   9.863   8.465 -0.2078 -0.7486 -0.8074
  603MOL0     N81322  10.512   9.934   8.359  0.5093 -0.3184 -0.8288
  603MOL0     C81323  10.592  10.313   7.505 -0.4278  0.4443 -0.6768
  603MOL0     C81324  10.673  10.422   7.545 -0.2103 -0.7806  0.5002
  603MOL0     C81325  10.923  10.691   7.839  0.5550  0.2253 -0.6190
  603MOL0     C81326  10.926  10.804   7.757  0.2427  0.8245 -0.0996
  603MOL0     C81327  11.017  10.904   7.777  0.0047 -0.2765 -0.3912
  603MOL0     C81328  11.112  10.905   7.883 -0.8654  0.4558  0.0759
  603MOL0     O81329  11.199  11.009   7.909  0.0119 -0.9909 -0.2752
  603MOL0     C81330  11.217  11.118   7.823  0.3221 -1.4100  0.2019
  603MOL0     C81331  11.259  11.248   7.897 -0.1655 -0.4872 -0.2241
  603MOL0     C81332  11.400  11.240   7.962 -0.6890  0.0229 -0.1708
  603MOL0     C81333  11.477  11.369   7.992  0.6255  0.0165 -0.4462
  603MOL0     C81334  11.419  11.409   8.126 -0.6202  0.3301  0.2786
  603MOL0     C81335  11.371  11.448   8.234 -0.3507  0.6807  0.2618
  603MOL0     C81336  11.096  10.807   7.986  0.2276 -0.0174  0.6188
  603MOL0     C81337  11.001  10.699   7.957  0.0045  1.4415 -0.3882
  603MOL0     H81338  10.852  10.263   7.783 -0.9872 -2.8893  0.0228
  603MOL0     H81339  10.711  10.083   7.730  0.4638 -1.5936 -0.5616
  603MOL0     H81340  10.330  10.171   7.509  0.1457  1.4814 -1.5838
  603MOL0     H81341  10.444  10.093   7.392  2.7233 -1.4736  0.8935
  603MOL0     H81342  10.236   9.949   7.439  0.2033  1.7659 -0.5528
  603MOL0     H81343  10.388   9.875   7.457 -3.9613 -2.3523 -2.0988
  603MOL0     H81344  10.224   9.815   7.637 -0.0231 -0.6713  1.4690
  603MOL0     H81345  10.375   9.899   7.685  0.0165 -0.2862 -0.4749
  603MOL0     H81346  10.197  10.108   7.708 -0.2043  0.4709 -2.6746
  603MOL0     H81347  10.072   9.990   7.655  0.0899  1.1689  0.6249
  603MOL0     H81348  10.051   9.998   7.889  0.3215 -0.6612  2.0451
  603MOL0     H81349  10.142   9.848   7.856  3.7145 -0.3166 -2.4762
  603MOL0     H81350  10.358   9.972   7.906  0.6988  3.6492  0.8517
  603MOL0     H81351  10.270  10.109   7.936  1.8393  0.1088 -1.5925
  603MOL0     H81352  10.158  10.003   8.135 -0.5792 -1.2284 -1.5815
  603MOL0     H81353  10.243   9.851   8.085 -0.7019 -0.2108 -3.0087
  603MOL0     H81354  10.387  10.106   8.176  0.4722 -0.7180  3.4858
  603MOL0     H81355  10.448   9.955   8.090 -0.9289 -1.7746  0.2249
  603MOL0     H81356  10.237   9.781   8.301 -0.4614 -0.3984  1.6492
  603MOL0     H81357  10.429   9.684   8.634 -1.0150  0.3166  0.5579
  603MOL0     H81358  10.262   9.705   8.624 -0.6384 -1.2156  0.6435
  603MOL0     H81359  10.401   9.506   8.427 -1.1234 -2.2279 -1.4812
  603MOL0     H81360  10.236   9.539   8.418  0.2231 -1.1478 -1.2405
  603MOL0     H81361  10.209   9.456   8.659 -0.2269 -1.0383  2.2387
  603MOL0     H81362  10.383   9.404   8.642  1.6005 -0.3077 -2.7394
  603MOL0     H81363  10.342   9.269   8.468 -1.8267 -3.0640 -1.1951
  603MOL0     H81364  10.176   9.307   8.449  0.3469 -0.6172 -1.1704
  603MOL0     H81365  10.030   9.143   8.449 -1.6303 -0.6374  0.4569
  603MOL0     H81366   9.906   9.010   8.274  0.2766 -0.5295 -1.0044
  603MOL0     H81367  10.009   8.896   8.198 -0.5299 -1.1842 -0.0350
  603MOL0     H81368   9.889   8.849   8.331 -1.8725  1.7337  0.7655
  603MOL0     H81369  10.047   8.386   8.486  0.2883 -4.0077  1.5076
  603MOL0     H81370  10.050   8.155   8.401 -0.1590  0.4091 -0.1539
  603MOL0     H81371  10.438   8.043   8.220  0.7565  0.3185  1.9096
  603MOL0     H81372  10.402   7.983   8.389 -1.8823  4.5969  0.6055
  603MOL0     H81373  10.338   7.833   8.118 -0.7294 -1.4979  0.2485
  603MOL0     H81374  10.469   7.804   8.236 -0.7381  0.0768  1.3422
  603MOL0     H81375  10.245   7.658   8.248  2.3887 -0.2547  0.2544
  603MOL0     H81376  10.169   7.798   8.314  1.3678  2.0860 -0.0494
  603MOL0     H81377  10.446   7.733   8.432  1.5611 -2.5828  1.6598
  603MOL0     H81378  10.304   7.817   8.493 -0.3619  3.5347 -5.1240
  603MOL0     H81379  10.342   7.509   8.478 -0.6279  0.9387 -3.1553
  603MOL0     H81380  10.189   7.593   8.506 -0.7784  0.8506 -0.5745
  603MOL0     H81381  10.452   7.634   8.680 -0.4088 -0.3192 -1.5331
  603MOL0     H81382  10.304   7.713   8.705 -3.1438 -1.4974  1.4854
  603MOL0     H81383  10.372   7.422   8.744 -0.3989 -1.3619 -0.1654
  603MOL0     H81384  10.197   7.461   8.734  1.4558 -0.3812  0.1469
  603MOL0     H81385  10.207   7.492   8.942  0.1189 -1.2857 -1.3580
  603MOL0     H81386  10.272   7.648   8.919  0.6312 -0.2815  0.7160
  603MOL0     H81387  10.412   8.245   8.178 -0.6507 -0.1156 -0.1485
  603MOL0     H81388  10.393   8.482   8.253  1.2391 -1.1031  0.2288
  603MOL0     H81389  10.321   8.760   8.585  1.0163 -0.0649 -0.4034
  603MOL0     H81390  10.347   8.971   8.686  1.5289  1.2738 -1.1213
  603MOL0     H81391  10.517  10.312   7.426 -2.9470 -2.7839  1.5025
  603MOL0     H81392  10.673  10.504   7.474 -1.6872 -2.1188 -1.1414
  603MOL0     H81393  10.867  10.804   7.666  1.0205  1.6698 -0.6203
  603MOL0     H81394  11.023  10.988   7.708  2.4478  1.1507  1.4063
  603MOL0     H81395  11.281  11.103   7.735  0.3808 -1.4557  0.2515
  603MOL0     H81396  11.122  11.149   7.779  0.9165  2.8878  1.4744
  603MOL0     H81397  11.183  11.282   7.968  1.7835  0.3507  1.5648
  603MOL0     H81398  11.273  11.325   7.820  2.5562 -0.7606 -0.0781
  603MOL0     H81399  11.467  11.188   7.892  0.0701  1.9056 -0.9252
  603MOL0     H81400  11.391  11.188   8.057 -1.6574  0.7891  0.1719
  603MOL0     H81401  11.466  11.427   7.900  1.1115 -0.9815 -1.1551
  603MOL0     H81402  11.583  11.345   8.001 -0.1408 -3.9163  0.1261
  603MOL0     H81403  11.340  11.487   8.329  1.8672 -0.7664  1.6741
  603MOL0     H81404  11.162  10.824   8.071 -0.2911  0.8903  0.8502
  603MOL0     H81405  10.980  10.625   8.035 -0.0657  0.0120 -1.7172
  604MOL0     O81406   8.497   9.602   5.958  0.5046 -0.3752 -0.0111
  604MOL0     C81407   8.418   9.671   5.888  0.9701  0.3192 -0.7763
  604MOL0     O81408   8.279   9.667   5.900  0.5411 -0.5593 -0.0759
  604MOL0     C81409   8.230   9.643   6.026 -0.4599  1.1805  0.4010
  604MOL0     C81410   8.153   9.525   6.044 -0.6356  0.4396 -0.3672
  604MOL0     C81411   8.089   9.510   6.166  0.6509 -0.7297  0.2933
  604MOL0     C81412   8.093   9.613   6.267 -0.5655  0.5725  0.0179
  604MOL0     O81413   8.037   9.594   6.389 -0.1614  0.2737 -0.4609
  604MOL0     C81414   7.927   9.500   6.392 -0.2450 -1.0708  0.0112
  604MOL0     C81415   7.795   9.545   6.316  0.0870  0.5181 -0.8835
  604MOL0     C81416   7.682   9.451   6.340 -0.3067 -0.7636 -0.2718
  604MOL0     C81417   7.562   9.510   6.260  0.5281  1.4244 -0.1907
  604MOL0     C81418   7.437   9.432   6.301 -0.4388  0.0690 -0.9180
  604MOL0     C81419   7.307   9.498   6.246 -0.5936 -0.8269 -0.2284
  604MOL0     C81420   7.186   9.411   6.289  0.2058  0.4426  0.1102
  604MOL0     C81421   7.168   9.395   6.439 -0.1921 -0.0728 -0.2071
  604MOL0     N81422   7.026   9.343   6.461 -0.8098 -0.4308 -0.8139
  604MOL0     C81423   7.006   9.210   6.481 -0.3543  0.1972 -0.2611
  604MOL0     C81424   6.874   9.205   6.498  0.3186 -0.3992  0.1101
  604MOL0     C81425   6.783   9.087   6.534  0.4104 -0.4515  0.1819
  604MOL0     C81426   6.720   9.114   6.670  0.6114 -0.7291  0.7639
  604MOL0     C81427   6.818   9.128   6.788  0.7292 -0.6936  0.6411
  604MOL0     C81428   6.740   9.110   6.912 -0.6465 -0.8574 -0.9823
  604MOL0     O81429   6.662   8.997   6.915 -0.1795 -0.4102  0.0455
  604MOL0     C81430   6.728   8.908   6.988 -0.8836  0.2360 -0.1244
  604MOL0     C81431   6.839   8.839   6.939  0.1774  0.5263  0.2586
  604MOL0     C81432   6.905   8.735   7.015 -0.2073 -1.1250  0.6627
  604MOL0     C81433   7.014   8.655   6.948 -1.4125  0.0552  0.5913
  604MOL0     C81434   6.864   8.707   7.148 -0.5002 -0.2159  0.2348
  604MOL0     C81435   6.921   8.610   7.239 -0.3472  0.0265 -0.0384
  604MOL0     O81436   7.012   8.529   7.192 -0.5553 -0.7773  0.0256
  604MOL0     C81437   7.064   8.431   7.272  0.0642  0.2185 -0.0973
  604MOL0     C81438   7.050   8.289   7.232 -1.1583 -0.5306 -0.2546
  604MOL0     C81439   7.136   8.189   7.292 -0.1504  0.9041  0.7332
  604MOL0     C81440   7.242   8.219   7.375 -0.2948 -0.8557 -0.1685
  604MOL0     O81441   7.335   8.142   7.428  0.2239 -0.3478 -0.6339
  604MOL0     C81442   7.314   8.005   7.454  0.2789  0.5055 -0.2437
  604MOL0     C81443   7.449   7.937   7.479  0.1863  1.0452 -0.1296
  604MOL0     C81444   7.523   7.978   7.599  0.5318  0.8746 -0.3252
  604MOL0     C81445   7.673   7.989   7.573  0.3776 -0.9042  0.1096
  604MOL0     C81446   7.739   8.123   7.613  1.1532 -0.1321 -0.0107
  604MOL0     C81447   7.675   8.251   7.547 -0.5055 -0.1478 -0.2875
  604MOL0     C81448   7.737   8.381   7.601 -0.7865  0.2683  0.2793
  604MOL0     C81449   7.882   8.385   7.573  0.5587  0.1851  0.3873
  604MOL0    Cl81450   7.932   8.556   7.554 -0.3623 -0.2425 -0.2979
  604MOL0     C81451   7.260   8.361   7.413 -0.4626  1.1992 -0.3935
  604MOL0     C81452   7.165   8.463   7.369 -0.6526 -0.0297  0.2552
  604MOL0     O81453   6.883   8.615   7.364  0.2354 -0.1837  0.8155
  604MOL0     C81454   6.753   8.777   7.192 -0.3419  0.6554  0.3037
  604MOL0     C81455   6.696   8.868   7.115  0.8314 -0.7138  0.4013
  604MOL0     N81456   6.820   9.332   6.491  0.7058 -0.4857  0.3162
  604MOL0     N81457   6.915   9.418   6.474  0.2121  0.6002 -0.3947
  604MOL0     C81458   8.156   9.736   6.247 -0.4819 -0.0278  0.4026
  604MOL0     C81459   8.228   9.748   6.127  0.1512  0.3412 -0.7896
  604MOL0     C81460   8.469   9.743   5.764 -1.2046 -0.3526 -0.0069
  604MOL0     C81461   8.375   9.800   5.680 -0.1525 -0.8129  0.6270
  604MOL0     C81462   8.411   9.861   5.548  0.2177  0.2066 -0.5516
  604MOL0     C81463   8.554   9.867   5.525  0.6726 -0.3804  0.5129
  604MOL0     O81464   8.609   9.911   5.409  0.5162 -0.0280  0.3196
  604MOL0     C81465   8.559   9.848   5.288 -0.1690 -0.2893 -0.3582
  604MOL0     C81466   8.636   9.917   5.184 -0.7628 -0.7733  0.0953
  604MOL0     C81467   8.602  10.068   5.179 -1.3028 -0.4623  0.5913
  604MOL0     C81468   8.663  10.134   5.047 -0.3305  1.0361 -0.6205
  604MOL0     C81469   8.586  10.100   4.931 -0.5141  0.3887  0.7713
  604MOL0     C81470   8.527  10.053   4.833 -0.0904  0.0240  0.5558
  604MOL0     C81471   8.642   9.815   5.621 -0.4795  0.0940  0.4144
  604MOL0     C81472   8.606   9.754   5.738  0.0200 -0.2188  0.4375
  604MOL0     H81473   8.126   9.453   5.968 -3.1749 -1.9086  2.4827
  604MOL0     H81474   8.018   9.428   6.172  0.3525 -0.6087 -1.1374
  604MOL0     H81475   7.956   9.397   6.371 -1.5387 -0.7956 -3.6903
  604MOL0     H81476   7.903   9.508   6.499  0.3519 -0.6594  0.1184
  604MOL0     H81477   7.753   9.639   6.351 -2.6293 -1.2118  0.8524
  604MOL0     H81478   7.811   9.562   6.209 -3.0901  1.0855 -1.3512
  604MOL0     H81479   7.713   9.348   6.320  0.0675 -0.6766 -0.1330
  604MOL0     H81480   7.659   9.457   6.447 -2.1350 -0.7948 -0.6249
  604MOL0     H81481   7.539   9.614   6.284  0.2091  1.6700 -1.5249
  604MOL0     H81482   7.578   9.499   6.153  2.6729  1.0519  0.1336
  604MOL0     H81483   7.445   9.329   6.265  4.0510  0.0242 -0.4326
  604MOL0     H81484   7.436   9.422   6.410 -1.5734  2.0609 -0.6942
  604MOL0     H81485   7.300   9.601   6.281 -0.3621 -0.8200 -0.2009
  604MOL0     H81486   7.313   9.493   6.137  2.3232 -1.9787 -0.1128
  604MOL0     H81487   7.090   9.445   6.250 -2.8529 -6.3576  0.1957
  604MOL0     H81488   7.200   9.308   6.253 -2.8757  0.1360 -0.5298
  604MOL0     H81489   7.169   9.498   6.475  1.9905  0.2172 -0.9490
  604MOL0     H81490   7.247   9.333   6.484 -1.9077 -2.0153  0.3035
  604MOL0     H81491   7.074   9.127   6.494 -2.7626 -1.4455  4.0053
  604MOL0     H81492   6.700   9.074   6.464  0.2518  0.3213  0.2148
  604MOL0     H81493   6.847   8.999   6.546  0.8868 -0.4964 -2.2213
  604MOL0     H81494   6.664   9.021   6.686  0.8435 -1.1073 -0.4575
  604MOL0     H81495   6.656   9.202   6.672  2.0185  0.3184  0.7826
  604MOL0     H81496   6.872   9.223   6.785  2.3323 -1.6029 -0.6580
  604MOL0     H81497   6.902   9.058   6.788  0.8692 -0.6252  2.9038
  604MOL0     H81498   6.673   9.196   6.903  2.6628  1.8120 -2.1312
  604MOL0     H81499   6.804   9.123   7.000 -0.2041 -0.2388 -1.3842
  604MOL0     H81500   6.865   8.858   6.835 -1.5496 -1.0693 -0.5218
  604MOL0     H81501   7.004   8.546   6.944  0.7429 -0.1628 -2.4172
  604MOL0     H81502   7.045   8.684   6.847  0.2210  2.5772  1.7250
  604MOL0     H81503   7.100   8.667   7.014 -2.3952  2.0279  1.6087
  604MOL0     H81504   6.978   8.253   7.160 -0.7708 -0.5381 -0.6436
  604MOL0     H81505   7.137   8.084   7.263  0.8161  0.7346  1.3078
  604MOL0     H81506   7.244   7.987   7.537  0.6052 -1.0729 -0.2838
  604MOL0     H81507   7.283   7.954   7.363  0.9197 -1.3630  0.5311
  604MOL0     H81508   7.435   7.828   7.478 -1.1939  1.0178  4.1533
  604MOL0     H81509   7.514   7.956   7.392  0.4577 -3.0864 -1.0413
  604MOL0     H81510   7.511   7.893   7.667 -1.1858  1.9543  0.8303
  604MOL0     H81511   7.483   8.071   7.641  3.1061  1.7734  0.3145
  604MOL0     H81512   7.727   7.916   7.635  2.6080  0.0201 -0.6401
  604MOL0     H81513   7.691   7.958   7.470  0.2705  1.7720 -0.7767
  604MOL0     H81514   7.846   8.113   7.593  1.5474  1.4778  1.1064
  604MOL0     H81515   7.715   8.141   7.718 -0.5980 -1.3659 -0.1537
  604MOL0     H81516   7.703   8.236   7.442  3.6069  1.4746  0.3785
  604MOL0     H81517   7.570   8.253   7.576 -0.6762  0.0681 -0.9269
  604MOL0     H81518   7.712   8.404   7.704 -0.5925  1.7509  0.0188
  604MOL0     H81519   7.692   8.463   7.545 -1.0964  0.1318  0.3289
  604MOL0     H81520   7.901   8.322   7.486 -2.4021 -0.4756  0.1180
  604MOL0     H81521   7.935   8.336   7.656 -4.5879 -2.3462  2.6659
  604MOL0     H81522   7.341   8.384   7.481 -0.1422  0.2083 -0.4221
  604MOL0     H81523   7.169   8.564   7.409 -2.5454  1.1059 -2.1197
  604MOL0     H81524   6.709   8.749   7.287 -0.3559 -2.7324 -0.5718
  604MOL0     H81525   6.603   8.910   7.153 -0.7645 -0.1379 -3.6471
  604MOL0     H81526   8.154   9.815   6.322  3.0587  1.6838 -1.0677
  604MOL0     H81527   8.285   9.837   6.103 -0.3488  0.4669 -1.5183
  604MOL0     H81528   8.271   9.812   5.710  0.2791  1.7513  1.2955
  604MOL0     H81529   8.332   9.897   5.482 -0.6366  0.2315  0.4695
  604MOL0     H81530   8.592   9.744   5.283 -3.6383 -1.5120 -0.8983
  604MOL0     H81531   8.451   9.847   5.270  0.3615 -2.5961 -4.7513
  604MOL0     H81532   8.611   9.862   5.093  0.3022  0.4048 -0.9535
  604MOL0     H81533   8.744   9.908   5.198 -0.3711  0.4167 -1.7297
  604MOL0     H81534   8.645  10.125   5.262  0.3046  1.8615 -1.6777
  604MOL0     H81535   8.495  10.087   5.195 -0.9565  0.6797  1.7523
  604MOL0     H81536   8.766  10.102   5.030  0.0809  1.4916  0.8361
  604MOL0     H81537   8.674  10.241   5.064  0.2468  0.6806  1.5486
  604MOL0     H81538   8.477  10.016   4.745  0.5042  0.7537 -0.1044
  604MOL0     H81539   8.743   9.850   5.602 -0.0497 -1.5352 -0.4709
  604MOL0     H81540   8.675   9.709   5.809  0.1896  1.1369  1.1716
  605MOL0     O81541   2.408   6.533  10.726  0.0722  0.2991  0.0377
  605MOL0     C81542   2.370   6.413  10.722  0.8158 -0.9500 -0.4005
  605MOL0     O81543   2.335   6.335  10.828 -0.1873  0.4002  0.3418
  605MOL0     C81544   2.361   6.396  10.948 -0.7623 -0.2757 -0.2699
  605MOL0     C81545   2.282   6.499  10.995  0.1661  0.0675  0.2808
  605MOL0     C81546   2.307   6.555  11.124 -0.3206 -0.3248  0.8551
  605MOL0     C81547   2.405   6.503  11.209  0.5788  0.4619  1.1288
  605MOL0     O81548   2.410   6.549  11.333 -0.1815  0.1746 -0.6562
  605MOL0     C81549   2.393   6.462  11.442  0.6320  1.7698 -0.4061
  605MOL0     C81550   2.469   6.505  11.558  0.8348  0.4482  0.3667
  605MOL0     C81551   2.522   6.383  11.640 -0.2576  0.5924 -0.4743
  605MOL0     C81552   2.651   6.311  11.591 -0.5541  0.4475  0.0771
  605MOL0     C81553   2.758   6.401  11.519 -0.4581  0.3015  0.0307
  605MOL0     C81554   2.883   6.333  11.463 -0.7904  0.3519 -0.0286
  605MOL0     C81555   2.971   6.288  11.579 -0.3783 -0.0440  0.3041
  605MOL0     C81556   3.114   6.278  11.536 -0.4830 -0.7205  0.5025
  605MOL0     N81557   3.191   6.232  11.655 -1.1129 -1.2529 -0.2290
  605MOL0     C81558   3.214   6.304  11.769  0.1628  0.9639 -0.4087
  605MOL0     C81559   3.267   6.216  11.857 -1.1065  0.6800  0.6079
  605MOL0     C81560   3.298   6.252  12.002  0.6101  0.9684  0.4884
  605MOL0     C81561   3.187   6.203  12.095  0.5718  0.0095 -0.1737
  605MOL0     C81562   3.178   6.050  12.115  0.2693 -0.4281  0.5021
  605MOL0     C81563   3.093   6.020  12.240 -0.5304  0.8626 -0.0903
  605MOL0     O81564   3.040   5.890  12.234  0.4693  0.1107  0.3332
  605MOL0     C81565   2.940   5.852  12.323 -0.5342 -0.2285 -0.9284
  605MOL0     C81566   2.860   5.745  12.288  0.3891  0.6501 -0.7271
  605MOL0     C81567   2.751   5.694  12.362 -0.9445  0.7892  0.2141
  605MOL0     C81568   2.663   5.597  12.299  0.5329  0.2172 -0.4011
  605MOL0     C81569   2.729   5.754  12.488  0.4098  0.5225 -0.1037
  605MOL0     C81570   2.615   5.712  12.582  0.2173 -0.3117 -0.5352
  605MOL0     O81571   2.553   5.806  12.652  0.0200  0.0314  1.2633
  605MOL0     C81572   2.466   5.775  12.758  0.2425 -0.1103 -0.1807
  605MOL0     C81573   2.338   5.720  12.717  0.4818  0.6648 -0.6795
  605MOL0     C81574   2.231   5.702  12.804  0.2603  0.2955  0.7364
  605MOL0     C81575   2.250   5.756  12.934 -0.1007  0.7326 -0.4303
  605MOL0     O81576   2.146   5.735  13.025 -0.2024  0.5277  0.2075
  605MOL0     C81577   2.180   5.758  13.164  0.1243  0.4568  0.5892
  605MOL0     C81578   2.056   5.724  13.256  0.3321 -0.0132  0.1901
  605MOL0     C81579   2.085   5.786  13.394  0.3055  0.0954  0.2475
  605MOL0     C81580   1.988   5.754  13.510  0.2896 -0.0987 -0.3452
  605MOL0     C81581   2.046   5.779  13.644  0.8029  0.0970 -0.1240
  605MOL0     C81582   1.944   5.737  13.752  0.2807 -0.7522  0.8407
  605MOL0     C81583   2.019   5.726  13.891  1.1325 -0.5417 -0.2291
  605MOL0     C81584   1.936   5.643  13.992 -0.0633  0.3305 -0.9350
  605MOL0    Cl81585   1.989   5.665  14.161 -0.4719 -0.6083  0.0343
  605MOL0     C81586   2.373   5.803  12.979 -0.4382  0.0337 -0.0939
  605MOL0     C81587   2.482   5.813  12.891  0.1346  0.4968  0.0998
  605MOL0     O81588   2.604   5.594  12.606  0.2058 -0.5527  0.5444
  605MOL0     C81589   2.819   5.846  12.533 -0.6439  0.0221  0.5060
  605MOL0     C81590   2.920   5.898  12.450 -0.2963  0.6852  0.2848
  605MOL0     N81591   3.290   6.098  11.789  0.0593 -0.9612 -0.9541
  605MOL0     N81592   3.246   6.110  11.668  0.2230  0.3779 -0.0989
  605MOL0     C81593   2.485   6.400  11.159 -0.7691  0.5353 -0.4272
  605MOL0     C81594   2.467   6.350  11.029  0.0545  0.0247  0.3296
  605MOL0     C81595   2.355   6.351  10.578  0.3642  1.0226  0.0929
  605MOL0     C81596   2.404   6.420  10.468 -0.3995 -0.2556  0.2769
  605MOL0     C81597   2.401   6.367  10.338  0.2088  0.6830 -0.1496
  605MOL0     C81598   2.338   6.240  10.308  0.0105 -0.3593 -1.2785
  605MOL0     O81599   2.311   6.200  10.177  0.3582 -0.1285 -0.1011
  605MOL0     C81600   2.419   6.193  10.093 -0.3124  0.1861  0.3164
  605MOL0     C81601   2.432   6.055  10.026  0.5802  0.7199 -0.3117
  605MOL0     C81602   2.497   6.062   9.892  0.0699  0.3982 -1.0675
  605MOL0     C81603   2.646   6.082   9.909  0.1530 -0.5434 -0.0831
  605MOL0     C81604   2.716   6.145   9.788  0.5091  0.0476 -0.9005
  605MOL0     C81605   2.798   6.185   9.701  0.4435 -1.0133 -0.3737
  605MOL0     C81606   2.281   6.176  10.425 -0.1758 -0.9381 -0.7843
  605MOL0     C81607   2.293   6.232  10.556 -1.5103  0.8863 -0.0327
  605MOL0     H81608   2.202   6.542  10.936  1.4659  0.7951 -1.0140
  605MOL0     H81609   2.240   6.633  11.159  0.8396  0.8843  0.4662
  605MOL0     H81610   2.290   6.438  11.470  0.5788  0.4160 -1.6620
  605MOL0     H81611   2.436   6.366  11.414 -2.4818 -0.0514  0.5222
  605MOL0     H81612   2.547   6.580  11.543  0.4588  0.5018 -1.4869
  605MOL0     H81613   2.406   6.554  11.633 -2.9582  0.6127 -2.6471
  605MOL0     H81614   2.536   6.423  11.741 -0.1844 -2.4470  0.8173
  605MOL0     H81615   2.449   6.305  11.659  1.9670 -1.1581  1.5549
  605MOL0     H81616   2.704   6.255  11.669 -1.0096  0.6983  0.5740
  605MOL0     H81617   2.624   6.230  11.523 -1.7315  0.7270  0.1942
  605MOL0     H81618   2.708   6.455  11.438  1.6035  2.4413  0.0649
  605MOL0     H81619   2.794   6.481  11.584  4.6360 -0.8170 -1.0174
  605MOL0     H81620   2.859   6.246  11.402 -0.2499 -0.5608  1.0220
  605MOL0     H81621   2.945   6.404  11.407  0.2812 -0.6519 -0.1580
  605MOL0     H81622   2.961   6.358  11.663  4.0906 -1.9706  2.7831
  605MOL0     H81623   2.946   6.190  11.620 -0.1781  0.6901  2.2771
  605MOL0     H81624   3.157   6.371  11.497 -1.9353 -0.7691 -1.3433
  605MOL0     H81625   3.125   6.200  11.461  0.8911 -0.4003  0.3458
  605MOL0     H81626   3.189   6.405  11.800  1.4763  0.7661  1.4472
  605MOL0     H81627   3.391   6.201  12.030  2.2074  3.4836  0.0366
  605MOL0     H81628   3.315   6.359  12.015 -0.8439  1.0095  2.5249
  605MOL0     H81629   3.086   6.228  12.062 -0.0521 -2.2943 -0.1542
  605MOL0     H81630   3.203   6.248  12.194 -0.7351  1.7984 -0.7334
  605MOL0     H81631   3.278   6.010  12.130  0.5762 -0.5241 -1.5131
  605MOL0     H81632   3.125   6.001  12.033  0.0156 -2.2521  1.7135
  605MOL0     H81633   3.014   6.095  12.241  0.0729  1.5089  0.3905
  605MOL0     H81634   3.160   6.030  12.326 -0.6182  0.8249 -0.0190
  605MOL0     H81635   2.878   5.684  12.200 -4.9839 -3.3059  0.4089
  605MOL0     H81636   2.561   5.632  12.313  0.8278  1.1603 -0.5538
  605MOL0     H81637   2.684   5.586  12.193 -0.9013 -0.1575 -0.6694
  605MOL0     H81638   2.667   5.499  12.348  1.2774  0.3057 -0.2637
  605MOL0     H81639   2.336   5.677  12.617  0.4542 -0.1136 -0.3549
  605MOL0     H81640   2.137   5.656  12.777  0.3155  0.8071 -0.4027
  605MOL0     H81641   2.264   5.695  13.196  0.2508  0.8672  1.0690
  605MOL0     H81642   2.205   5.861  13.190 -1.0852  0.7654  0.5780
  605MOL0     H81643   1.965   5.770  13.214  0.7585  0.7890  0.1137
  605MOL0     H81644   2.039   5.616  13.262  3.4060 -0.5633  0.5888
  605MOL0     H81645   2.066   5.892  13.373 -2.6693 -0.5350 -0.7589
  605MOL0     H81646   2.187   5.751  13.414  0.0421 -1.0542 -0.3830
  605MOL0     H81647   1.894   5.808  13.493  1.6202  3.0412  1.4069
  605MOL0     H81648   1.970   5.647  13.495 -3.3963  0.8054 -4.4374
  605MOL0     H81649   2.088   5.878  13.665 -1.1270  0.3610  3.3150
  605MOL0     H81650   2.137   5.719  13.655  0.5626  0.1009  2.7806
  605MOL0     H81651   1.876   5.822  13.758  0.9876 -0.0119 -0.9912
  605MOL0     H81652   1.880   5.649  13.734 -1.8919  0.5120  2.0365
  605MOL0     H81653   2.025   5.830  13.925  4.2063 -1.0888  1.2976
  605MOL0     H81654   2.122   5.689  13.891  0.0547 -3.9592 -2.4600
  605MOL0     H81655   1.942   5.537  13.965 -2.7845  0.2313 -1.3413
  605MOL0     H81656   1.830   5.667  13.998 -0.1092 -0.0892  3.8558
  605MOL0     H81657   2.394   5.838  13.080  1.6947 -0.4615 -0.3268
  605MOL0     H81658   2.575   5.857  12.924  1.0554 -0.2377 -1.4322
  605MOL0     H81659   2.803   5.887  12.632 -4.3967  0.3105 -0.0609
  605MOL0     H81660   2.986   5.975  12.491  0.8320 -0.7940  1.3484
  605MOL0     H81661   2.563   6.358  11.222  0.0515  1.3571 -0.8649
  605MOL0     H81662   2.527   6.273  10.983 -0.0484 -0.9251  1.7107
  605MOL0     H81663   2.441   6.520  10.488 -2.3907  1.1156 -2.3296
  605MOL0     H81664   2.445   6.411  10.249  1.1020 -0.4977 -0.3023
  605MOL0     H81665   2.419   6.272  10.017 -0.0412  1.5392  1.6729
  605MOL0     H81666   2.516   6.213  10.139 -0.7624 -0.5783  1.6510
  605MOL0     H81667   2.328   6.027  10.009  0.9608 -0.9780 -0.0030
  605MOL0     H81668   2.475   5.980  10.093  1.3176  0.3186 -1.2123
  605MOL0     H81669   2.449   6.153   9.855  0.4181  0.2753 -1.8349
  605MOL0     H81670   2.475   5.975   9.828  3.9958 -1.3487 -0.3178
  605MOL0     H81671   2.683   5.980   9.925  1.0498 -0.4051 -1.1012
  605MOL0     H81672   2.681   6.139   9.995  3.8269 -1.2779 -0.9069
  605MOL0     H81673   2.880   6.226   9.646 -0.8117 -0.0388 -1.6184
  605MOL0     H81674   2.210   6.095  10.416  0.9814 -2.4081  1.9524
  605MOL0     H81675   2.253   6.182  10.643 -0.3640  1.2459  0.7213
  606MOL0     O81676  10.094  10.172  10.342 -0.3348  0.0365 -0.0114
  606MOL0     C81677  10.042  10.252  10.426  0.1409  0.4619  0.3793
  606MOL0     O81678  10.093  10.270  10.549  0.7769 -0.7114 -0.7649
  606MOL0     C81679  10.217  10.228  10.590 -0.9524  0.1742 -0.6005
  606MOL0     C81680  10.235  10.172  10.716  1.0779 -0.3772  0.2626
  606MOL0     C81681  10.362  10.125  10.759  0.8574  0.0181 -0.4936
  606MOL0     C81682  10.471  10.111  10.675  0.0088 -0.1179 -0.6557
  606MOL0     O81683  10.585  10.063  10.736 -0.2621 -0.1149  0.7625
  606MOL0     C81684  10.690  10.015  10.650 -0.5610 -0.4347  0.0832
  606MOL0     C81685  10.821  10.019  10.714  0.0101  0.2428  0.2515
  606MOL0     C81686  10.873  10.169  10.733  0.5217  0.0502  0.2344
  606MOL0     C81687  11.001  10.184  10.802 -0.3737  0.0730  1.3957
  606MOL0     C81688  11.033  10.068  10.895 -1.5445  0.1163 -0.4634
  606MOL0     C81689  11.186  10.077  10.956  0.2111  0.0425 -0.6250
  606MOL0     C81690  11.296  10.033  10.858 -0.4399  0.5169  0.3922
  606MOL0     C81691  11.301   9.870  10.858  0.1146 -0.1251  0.1534
  606MOL0     N81692  11.415   9.827  10.942  0.3324  0.1460  0.4577
  606MOL0     C81693  11.397   9.784  11.068 -0.0924  0.1038 -0.0749
  606MOL0     C81694  11.515   9.734  11.104 -0.4322  0.2619 -0.4606
  606MOL0     C81695  11.537   9.645  11.221  0.1333  0.5485 -0.8390
  606MOL0     C81696  11.583   9.719  11.347  0.0100  0.7686 -0.6721
  606MOL0     C81697  11.481   9.826  11.399 -0.1246 -0.7171 -0.9499
  606MOL0     C81698  11.334   9.789  11.406 -0.5413 -0.2041 -0.5332
  606MOL0     O81699  11.331   9.668  11.480 -0.0042  0.3407  0.1349
  606MOL0     C81700  11.304   9.662  11.614  0.6590 -0.4606 -0.2641
  606MOL0     C81701  11.248   9.770  11.694  0.6541  0.5974  0.4791
  606MOL0     C81702  11.210   9.742  11.824 -0.4501  0.0208  0.8271
  606MOL0     C81703  11.180   9.868  11.901  1.0139 -0.2231 -0.1704
  606MOL0     C81704  11.216   9.608  11.874 -0.0725 -1.2913 -0.3237
  606MOL0     C81705  11.182   9.574  12.009  0.3054 -0.1304 -0.1762
  606MOL0     O81706  11.258   9.478  12.062  0.3317  0.4824  0.8525
  606MOL0     C81707  11.219   9.421  12.178  0.2657 -0.2964 -0.8882
  606MOL0     C81708  11.206   9.481  12.302  0.1868 -0.4042 -0.6914
  606MOL0     C81709  11.196   9.399  12.411  0.2120 -0.1604 -0.6294
  606MOL0     C81710  11.196   9.258  12.415 -0.1480  0.9550  0.7843
  606MOL0     O81711  11.199   9.180  12.533 -0.2512  0.3380  0.4541
  606MOL0     C81712  11.335   9.170  12.583  0.1280  0.3352  0.7289
  606MOL0     C81713  11.338   9.064  12.694 -0.8632 -0.4708  1.1390
  606MOL0     C81714  11.306   8.932  12.626 -0.8027 -0.6814  0.5377
  606MOL0     C81715  11.315   8.822  12.729  0.3475 -0.4784  0.6175
  606MOL0     C81716  11.355   8.690  12.661  0.2110 -1.2862  0.1858
  606MOL0     C81717  11.298   8.571  12.743 -0.7085 -0.4548  0.4523
  606MOL0     C81718  11.360   8.451  12.664  0.8057  0.2664 -0.6105
  606MOL0     C81719  11.283   8.325  12.708 -0.2119 -0.5278  0.3988
  606MOL0    Cl81720  11.371   8.206  12.603 -0.2436  0.2041  0.0903
  606MOL0     C81721  11.200   9.199  12.287  0.5395 -0.4480 -0.0951
  606MOL0     C81722  11.212   9.284  12.174  0.3131  0.5844 -0.3860
  606MOL0     O81723  11.088   9.629  12.067  0.3453  0.3415  1.2387
  606MOL0     C81724  11.251   9.497  11.791  0.0750 -0.1147 -0.2410
  606MOL0     C81725  11.300   9.532  11.664  0.0491  0.7767 -0.0530
  606MOL0     N81726  11.604   9.758  10.993 -0.8203  0.9522 -0.2219
  606MOL0     N81727  11.543   9.812  10.890  0.9116 -0.2959 -1.0723
  606MOL0     C81728  10.459  10.180  10.556  0.2448  1.8986  0.0577
  606MOL0     C81729  10.335  10.239  10.515  0.1310  0.5292  0.7208
  606MOL0     C81730   9.905  10.302  10.401 -0.3384 -0.9751 -0.3361
  606MOL0     C81731   9.835  10.373  10.502  0.5094 -0.0515 -0.4899
  606MOL0     C81732   9.700  10.404  10.479 -0.1357  0.9921  0.0556
  606MOL0     C81733   9.638  10.376  10.359  0.3808 -0.6587 -0.2017
  606MOL0     O81734   9.516  10.432  10.316 -0.1792 -0.3235 -0.8192
  606MOL0     C81735   9.430  10.471  10.430 -0.6903 -0.4789  0.6112
  606MOL0     C81736   9.304  10.512  10.366 -0.2331  0.1697 -0.6212
  606MOL0     C81737   9.209  10.553  10.481 -0.1587 -0.8678 -0.1544
  606MOL0     C81738   9.073  10.596  10.420  0.9423 -0.0117  0.2372
  606MOL0     C81739   8.983  10.642  10.519  0.0932  0.9164  0.6293
  606MOL0     C81740   8.906  10.674  10.609  0.1097  0.7656 -0.2148
  606MOL0     C81741   9.713  10.319  10.261  0.0819  0.5499  0.0351
  606MOL0     C81742   9.844  10.280  10.273  0.3614 -0.3702 -0.7690
  606MOL0     H81743  10.151  10.165  10.783 -0.4664  2.5596 -1.1598
  606MOL0     H81744  10.383  10.082  10.856  1.3773 -2.0578 -1.4606
  606MOL0     H81745  10.650   9.918  10.618  0.5250 -0.4277 -1.3645
  606MOL0     H81746  10.696  10.077  10.561 -0.1236 -0.1440  0.3132
  606MOL0     H81747  10.809   9.975  10.814  4.8669  0.4858  1.1707
  606MOL0     H81748  10.881   9.955  10.649 -0.6532 -1.4205  1.2097
  606MOL0     H81749  10.875  10.212  10.632 -0.7665 -1.1234 -0.3199
  606MOL0     H81750  10.795  10.222  10.788  1.2996  2.1440 -0.5722
  606MOL0     H81751  11.076  10.205  10.726 -1.0276  1.5430  1.1330
  606MOL0     H81752  10.996  10.271  10.868  0.8317  1.6385 -0.4849
  606MOL0     H81753  10.952  10.055  10.967 -1.3063  0.8290 -0.0571
  606MOL0     H81754  11.037   9.981  10.829 -2.3231  0.8048 -1.4446
  606MOL0     H81755  11.189  10.180  10.993 -2.2366  0.8512 -2.3751
  606MOL0     H81756  11.178  10.000  11.034  0.3097 -0.9652 -1.5784
  606MOL0     H81757  11.274  10.065  10.756  0.2803  4.7762  1.3916
  606MOL0     H81758  11.393  10.067  10.896 -0.6183 -1.4620  2.9184
  606MOL0     H81759  11.325   9.837  10.756 -0.1051 -3.5168  1.0926
  606MOL0     H81760  11.208   9.822  10.890  0.1465 -1.8391 -2.0296
  606MOL0     H81761  11.297   9.781  11.111 -0.6268 -4.8561 -1.1331
  606MOL0     H81762  11.449   9.583  11.241  2.6157 -2.1654  3.4993
  606MOL0     H81763  11.618   9.578  11.190  1.9848  2.5199 -0.5223
  606MOL0     H81764  11.674   9.774  11.322 -0.3705  1.3654 -0.7535
  606MOL0     H81765  11.600   9.644  11.425  1.1445  1.0220 -0.6722
  606MOL0     H81766  11.494   9.915  11.337  1.4575  0.8567  1.4727
  606MOL0     H81767  11.517   9.848  11.500  2.9266 -2.1979 -1.5880
  606MOL0     H81768  11.289   9.778  11.307  2.0899  3.8303 -2.4555
  606MOL0     H81769  11.288   9.872  11.461  1.2970  0.8084 -0.4175
  606MOL0     H81770  11.239   9.870  11.652  1.9270  0.6777  0.3578
  606MOL0     H81771  11.249   9.950  11.880  0.8546  0.3495  1.4065
  606MOL0     H81772  11.074   9.896  11.901  1.4785  1.7167  1.3633
  606MOL0     H81773  11.193   9.851  12.008 -0.0620  3.3529  0.6335
  606MOL0     H81774  11.206   9.590  12.301 -3.4708 -0.2668  0.7378
  606MOL0     H81775  11.187   9.444  12.509 -1.0712 -1.4141 -0.1473
  606MOL0     H81776  11.407   9.158  12.501  0.7196  0.9233  1.1514
  606MOL0     H81777  11.364   9.269  12.620 -1.1743  1.5476 -1.3249
  606MOL0     H81778  11.441   9.058  12.731  0.2824  0.9957 -1.5672
  606MOL0     H81779  11.281   9.089  12.784  1.0275  2.2038  1.7337
  606MOL0     H81780  11.390   8.914  12.558 -1.3616 -2.9404  0.3702
  606MOL0     H81781  11.214   8.937  12.567 -0.9707 -1.1212  0.7628
  606MOL0     H81782  11.382   8.840  12.814  0.5312 -0.0276  0.3784
  606MOL0     H81783  11.212   8.808  12.766  0.6742  0.8776  2.1386
  606MOL0     H81784  11.464   8.690  12.649  0.2880 -2.1272  0.8255
  606MOL0     H81785  11.322   8.686  12.556  1.6774 -2.3084 -0.2704
  606MOL0     H81786  11.334   8.571  12.846  2.1866 -2.7929 -0.3938
  606MOL0     H81787  11.189   8.564  12.740 -0.6071 -2.6699 -0.2298
  606MOL0     H81788  11.465   8.442  12.695  0.9656 -1.5261 -1.5375
  606MOL0     H81789  11.352   8.471  12.557 -2.9251  3.4582  0.0311
  606MOL0     H81790  11.176   8.327  12.684  0.1088  1.8833 -1.1465
  606MOL0     H81791  11.301   8.299  12.813  0.6529 -0.9995  0.1411
  606MOL0     H81792  11.201   9.092  12.271 -2.5731 -0.4934 -0.6942
  606MOL0     H81793  11.225   9.229  12.081 -2.0213  0.4472 -0.6957
  606MOL0     H81794  11.238   9.396  11.830  0.2662  1.1437  3.4249
  606MOL0     H81795  11.332   9.457  11.592 -0.0183 -0.1901  0.8943
  606MOL0     H81796  10.532  10.192  10.476 -0.3094 -1.0952 -1.0200
  606MOL0     H81797  10.341  10.277  10.414  3.0802 -0.1219  0.5580
  606MOL0     H81798   9.885  10.383  10.598 -0.5946 -2.2794  0.3737
  606MOL0     H81799   9.638  10.438  10.562 -0.6687  1.8977 -0.6993
  606MOL0     H81800   9.398  10.392  10.499 -1.1491 -2.2070 -1.4902
  606MOL0     H81801   9.468  10.559  10.484  0.0591  0.6877 -1.6717
  606MOL0     H81802   9.267  10.421  10.318 -1.8508  0.5043 -0.0853
  606MOL0     H81803   9.315  10.582  10.284 -3.0391  0.5279 -0.7977
  606MOL0     H81804   9.258  10.637  10.530 -0.6417 -0.2697 -0.6808
  606MOL0     H81805   9.196  10.468  10.549  0.9675  0.0629  1.2942
  606MOL0     H81806   9.028  10.521  10.355  2.4717 -1.2940  0.6019
  606MOL0     H81807   9.097  10.682  10.357  0.5298 -0.4244 -0.5019
  606MOL0     H81808   8.835  10.710  10.680 -1.6485  1.1733 -2.0880
  606MOL0     H81809   9.661  10.299  10.168 -1.4167 -2.3335  1.3596
  606MOL0     H81810   9.898  10.229  10.193  1.2790  0.2979 -0.5971
  607MOL0     O81811   2.118   3.656  11.465  0.3366 -0.3194 -0.0260
  607MOL0     C81812   2.114   3.757  11.538  0.9159 -0.2925 -0.5965
  607MOL0     O81813   2.163   3.880  11.492  0.0909  0.0473  0.1990
  607MOL0     C81814   2.168   3.991  11.560  0.0481 -0.8775 -0.4421
  607MOL0     C81815   2.056   4.071  11.585 -0.7060 -0.2975  0.5350
  607MOL0     C81816   2.066   4.179  11.670  0.9865  0.3915  0.3186
  607MOL0     C81817   2.185   4.222  11.727 -0.0880  0.4950  0.0805
  607MOL0     O81818   2.175   4.341  11.806  1.5234 -0.0074  0.6378
  607MOL0     C81819   2.303   4.403  11.845 -0.5569 -0.5486 -0.4423
  607MOL0     C81820   2.257   4.507  11.951 -0.8830 -0.6970  0.3705
  607MOL0     C81821   2.351   4.634  11.972 -0.0937  0.4414  0.9813
  607MOL0     C81822   2.489   4.583  12.008 -0.2954  0.1873  0.1383
  607MOL0     C81823   2.579   4.700  12.023 -0.2246 -0.3262  0.3643
  607MOL0     C81824   2.726   4.658  12.038  0.3870  0.2429  0.0323
  607MOL0     C81825   2.785   4.574  11.919  0.8158 -0.5373 -0.6680
  607MOL0     C81826   2.811   4.430  11.955 -0.5039 -0.1590 -0.2189
  607MOL0     N81827   2.861   4.354  11.844 -0.5834  0.1604 -0.4563
  607MOL0     C81828   2.790   4.279  11.760  0.3661  0.2355  0.5435
  607MOL0     C81829   2.891   4.225  11.689  0.5636 -0.1425 -0.6435
  607MOL0     C81830   2.854   4.126  11.572 -0.0098 -0.1027 -0.0523
  607MOL0     C81831   2.881   4.163  11.432  0.1063 -0.2554  0.6274
  607MOL0     C81832   2.823   4.062  11.324 -1.2123 -0.2555 -0.5520
  607MOL0     C81833   2.879   4.124  11.199  0.0033 -0.4170  0.5818
  607MOL0     O81834   2.831   4.063  11.075 -0.3152 -0.2144 -0.2849
  607MOL0     C81835   2.842   4.142  10.960  0.4189 -0.1673  0.6300
  607MOL0     C81836   2.813   4.276  10.958  0.3295 -0.1479  0.8954
  607MOL0     C81837   2.837   4.354  10.847 -0.0977 -0.2800 -0.3420
  607MOL0     C81838   2.799   4.501  10.852 -0.6525 -0.3820  0.1065
  607MOL0     C81839   2.898   4.297  10.734  0.1292 -0.5128 -0.6037
  607MOL0     C81840   2.931   4.366  10.601  0.9377 -0.4699  0.4453
  607MOL0     O81841   3.049   4.334  10.542 -0.5770  0.7703 -0.0217
  607MOL0     C81842   3.082   4.393  10.421 -0.2830  1.4414  0.4410
  607MOL0     C81843   3.105   4.525  10.395 -0.4667 -0.7867 -0.7629
  607MOL0     C81844   3.137   4.568  10.264  0.0701  0.2314  0.5530
  607MOL0     C81845   3.152   4.479  10.162 -1.5371  0.5083  1.6519
  607MOL0     O81846   3.222   4.514  10.048 -0.3970  0.4599  0.3349
  607MOL0     C81847   3.153   4.534   9.920 -0.5520 -0.3881 -0.5642
  607MOL0     C81848   3.246   4.592   9.816 -0.2357  0.7502  0.0289
  607MOL0     C81849   3.391   4.512   9.794  0.9477  0.3073  0.1074
  607MOL0     C81850   3.370   4.367   9.764 -0.4540 -0.9985  0.1798
  607MOL0     C81851   3.494   4.305   9.692  0.7709 -0.6257 -0.0182
  607MOL0     C81852   3.468   4.175   9.612 -0.5887  0.1887 -0.2118
  607MOL0     C81853   3.330   4.122   9.620 -0.4106  0.9085  0.9035
  607MOL0     C81854   3.320   3.984   9.561 -1.5963 -0.2786 -0.0287
  607MOL0    Cl81855   3.410   3.836   9.633 -0.2193 -0.0671 -0.0355
  607MOL0     C81856   3.118   4.340  10.181  0.5047  0.6190 -0.4561
  607MOL0     C81857   3.088   4.296  10.319  0.5993 -0.8350  0.4671
  607MOL0     O81858   2.840   4.437  10.549  0.3407  0.4329  0.6910
  607MOL0     C81859   2.926   4.165  10.738 -0.6969  0.2257  0.0013
  607MOL0     C81860   2.904   4.082  10.849  0.1387  0.3126 -0.4897
  607MOL0     N81861   3.017   4.281  11.722  0.0884 -0.3313  0.1923
  607MOL0     N81862   2.993   4.347  11.820 -1.2793 -0.0433  1.4768
  607MOL0     C81863   2.293   4.140  11.710  0.1336  0.8258  0.6361
  607MOL0     C81864   2.285   4.027  11.618 -0.7940 -1.0074 -0.2766
  607MOL0     C81865   2.057   3.730  11.671 -0.6686 -0.7894  0.1695
  607MOL0     C81866   1.931   3.673  11.696  0.9926 -0.8141 -0.8323
  607MOL0     C81867   1.886   3.650  11.828  0.9297 -0.7522  0.3862
  607MOL0     C81868   1.957   3.708  11.934 -0.3901  0.2884  0.1380
  607MOL0     O81869   1.913   3.720  12.066 -0.4011 -0.2587  0.4332
  607MOL0     C81870   1.771   3.683  12.089 -0.6871  0.3563  0.3029
  607MOL0     C81871   1.729   3.757  12.215  0.6410 -0.3521 -0.4825
  607MOL0     C81872   1.683   3.909  12.206  0.4669 -0.3595  0.2062
  607MOL0     C81873   1.620   3.972  12.332  0.4274 -0.4540 -0.1117
  607MOL0     C81874   1.723   4.010  12.422  0.0887 -0.1685  0.1692
  607MOL0     C81875   1.812   4.050  12.503  1.1174  0.2561 -0.8038
  607MOL0     C81876   2.079   3.765  11.906 -0.7221  1.3255 -0.5389
  607MOL0     C81877   2.122   3.780  11.778 -0.4383 -0.1887 -0.3679
  607MOL0     H81878   1.959   4.059  11.537 -1.9959  2.6482  2.1147
  607MOL0     H81879   1.973   4.234  11.680  0.8947  1.0018 -2.7777
  607MOL0     H81880   2.364   4.336  11.906  1.6987  0.7459 -1.1768
  607MOL0     H81881   2.356   4.455  11.764 -0.8115 -0.4453 -0.5431
  607MOL0     H81882   2.155   4.544  11.934 -0.3270  1.0711  0.6429
  607MOL0     H81883   2.272   4.463  12.049 -3.3992 -3.3231 -0.3059
  607MOL0     H81884   2.351   4.703  11.887 -3.6727 -0.6708 -0.0890
  607MOL0     H81885   2.321   4.698  12.055 -2.3757  1.9161 -0.8338
  607MOL0     H81886   2.494   4.517  12.096  2.6877  0.3777  0.2290
  607MOL0     H81887   2.529   4.518  11.930 -0.3984  0.5701 -0.2339
  607MOL0     H81888   2.561   4.770  11.941  0.6785 -0.5203 -0.0155
  607MOL0     H81889   2.562   4.756  12.115 -0.6550  0.1714 -0.0155
  607MOL0     H81890   2.783   4.750  12.058 -0.0554  0.7644 -0.9911
  607MOL0     H81891   2.735   4.602  12.131  2.3763 -1.8957 -1.3448
  607MOL0     H81892   2.716   4.567  11.834 -0.1176 -1.0411  0.1079
  607MOL0     H81893   2.873   4.625  11.880  0.2253 -0.2897 -1.7369
  607MOL0     H81894   2.721   4.381  11.993  1.7428 -3.4422  1.4062
  607MOL0     H81895   2.887   4.419  12.033  0.1092 -1.9482 -0.9937
  607MOL0     H81896   2.684   4.261  11.750  0.2414  0.2404  1.7732
  607MOL0     H81897   2.911   4.034  11.593  2.3562  1.4361  0.6335
  607MOL0     H81898   2.747   4.107  11.581 -0.1217 -0.8024 -2.2774
  607MOL0     H81899   2.985   4.178  11.405 -0.2989  0.7417 -0.4522
  607MOL0     H81900   2.823   4.255  11.424  1.9511  0.8078 -1.6968
  607MOL0     H81901   2.714   4.065  11.338 -1.3464 -1.8247 -1.0523
  607MOL0     H81902   2.858   3.959  11.332  0.2955  0.2447 -0.4748
  607MOL0     H81903   2.986   4.105  11.187 -0.0039 -0.2279  0.1954
  607MOL0     H81904   2.871   4.232  11.211  5.0379 -0.0749  5.2918
  607MOL0     H81905   2.769   4.326  11.044 -0.8080  1.6951 -0.6729
  607MOL0     H81906   2.772   4.521  10.956 -2.8109 -1.4662 -0.1731
  607MOL0     H81907   2.875   4.567  10.810 -0.3322 -1.0211 -0.3239
  607MOL0     H81908   2.709   4.521  10.793  0.7585  0.1063 -1.9642
  607MOL0     H81909   3.102   4.604  10.470  3.6085 -0.5426 -0.5879
  607MOL0     H81910   3.172   4.669  10.246 -0.4514  0.6762  1.8644
  607MOL0     H81911   3.123   4.433   9.891  1.6828 -1.1144 -0.4952
  607MOL0     H81912   3.066   4.600   9.927  0.9719  2.2286 -3.8664
  607MOL0     H81913   3.190   4.594   9.722  1.3536 -0.2521 -1.0030
  607MOL0     H81914   3.267   4.699   9.826 -3.4597  1.9990 -3.9764
  607MOL0     H81915   3.459   4.527   9.879 -1.0810  1.0886  1.6860
  607MOL0     H81916   3.441   4.564   9.712  0.4770 -0.0993 -0.4446
  607MOL0     H81917   3.322   4.309   9.843 -1.1438 -2.9539 -1.5667
  607MOL0     H81918   3.282   4.360   9.698 -0.6015  1.5420  0.0061
  607MOL0     H81919   3.569   4.293   9.771  0.6684  1.6688  0.5009
  607MOL0     H81920   3.544   4.372   9.622 -0.0681  0.6990  0.5999
  607MOL0     H81921   3.487   4.194   9.506 -3.4091  0.6818 -0.7237
  607MOL0     H81922   3.543   4.104   9.647  1.8637  2.4878 -0.4205
  607MOL0     H81923   3.262   4.179   9.556  1.0005  1.7067  0.0715
  607MOL0     H81924   3.292   4.108   9.722  2.1052  0.5767  1.8622
  607MOL0     H81925   3.366   3.989   9.462  1.0535  0.2107  1.1422
  607MOL0     H81926   3.216   3.953   9.548 -1.2314 -1.5071 -0.1423
  607MOL0     H81927   3.131   4.256  10.114 -0.8793 -1.7513  2.0051
  607MOL0     H81928   3.075   4.191  10.342  0.1409 -0.8709  0.0646
  607MOL0     H81929   2.970   4.112  10.654  0.9986  0.7796  0.5054
  607MOL0     H81930   2.925   3.976  10.861  1.3536  0.6679  0.8526
  607MOL0     H81931   2.389   4.165  11.755  0.1832  1.3890  0.2185
  607MOL0     H81932   2.369   3.958  11.605  0.0086 -0.2242  0.5602
  607MOL0     H81933   1.877   3.635  11.609 -0.4604  2.4791 -1.5149
  607MOL0     H81934   1.781   3.626  11.835 -0.3400  3.7393 -0.0038
  607MOL0     H81935   1.705   3.716  12.008  0.0058 -0.4411 -0.6121
  607MOL0     H81936   1.759   3.575  12.099  3.8950 -0.5800 -1.6980
  607MOL0     H81937   1.798   3.743  12.298  0.1273  2.2768  0.4611
  607MOL0     H81938   1.642   3.698  12.245  1.1456 -2.2714 -2.4447
  607MOL0     H81939   1.596   3.907  12.140  1.8429 -0.7436 -1.6941
  607MOL0     H81940   1.753   3.971  12.150  1.0154 -2.5932 -1.7508
  607MOL0     H81941   1.544   3.906  12.375 -1.5078  1.0023 -1.1365
  607MOL0     H81942   1.555   4.056  12.304  0.3897 -1.0624 -2.0126
  607MOL0     H81943   1.887   4.092  12.568  0.2263  0.1937  0.2882
  607MOL0     H81944   2.131   3.806  11.992 -1.0911 -0.1973  0.4426
  607MOL0     H81945   2.216   3.834  11.780 -0.5185  0.5402  6.2594
  608MOL0     O81946   0.163   5.759   2.575 -0.4341 -0.0138 -0.5910
  608MOL0     C81947   0.246   5.819   2.647 -0.0054 -0.7939  0.2612
  608MOL0     O81948   0.220   5.925   2.737  0.6454  0.0594 -0.1789
  608MOL0     C81949   0.091   5.976   2.753  0.4245  0.8249 -0.0065
  608MOL0     C81950   0.091   6.046   2.869 -0.5619  0.2160 -0.4780
  608MOL0     C81951  -0.022   6.106   2.921  0.2508 -0.4324  0.3501
  608MOL0     C81952  -0.140   6.100   2.839 -0.5443 -0.0311 -0.0027
  608MOL0     O81953  -0.254   6.167   2.892 -0.9663 -0.7972  0.2034
  608MOL0     C81954  -0.377   6.151   2.826 -0.0119  1.7184  1.2860
  608MOL0     C81955  -0.486   6.213   2.915 -0.3645 -0.2278 -0.7815
  608MOL0     C81956  -0.605   6.215   2.825 -0.2648  0.3621  0.0298
  608MOL0     C81957  -0.715   6.305   2.901 -0.3698 -0.6019  0.2280
  608MOL0     C81958  -0.845   6.326   2.825  0.6952  0.3838 -0.3250
  608MOL0     C81959  -0.930   6.444   2.871  0.1943  0.8742  0.3925
  608MOL0     C81960  -0.993   6.419   3.011  0.2735 -0.2474 -0.7038
  608MOL0     C81961  -1.073   6.542   3.051 -0.5186 -0.3563  0.4652
  608MOL0     N81962  -0.986   6.646   3.106 -0.2095 -0.1659 -0.4200
  608MOL0     C81963  -0.938   6.751   3.034 -0.1833  0.1243  0.1117
  608MOL0     C81964  -0.868   6.823   3.124  0.4689 -0.3640  0.0695
  608MOL0     C81965  -0.783   6.949   3.092 -0.2645  0.0155  0.0027
  608MOL0     C81966  -0.746   6.976   2.945  0.3401 -0.3562 -0.9696
  608MOL0     C81967  -0.668   7.102   2.926 -0.7173  0.3157  1.0501
  608MOL0     C81968  -0.649   7.140   2.773 -0.0972 -0.5228  0.6803
  608MOL0     O81969  -0.770   7.112   2.695 -0.2795  0.2376  0.4062
  608MOL0     C81970  -0.784   7.173   2.575 -0.4310  0.1197 -0.1727
  608MOL0     C81971  -0.915   7.186   2.521 -1.1409  0.6936 -0.3921
  608MOL0     C81972  -0.942   7.260   2.410  0.8579  0.3857  0.4035
  608MOL0     C81973  -1.093   7.253   2.360  0.0376  0.1760 -0.4544
  608MOL0     C81974  -0.837   7.337   2.349 -0.3481 -0.1038 -0.4417
  608MOL0     C81975  -0.856   7.430   2.233 -0.4918  0.1992  0.1025
  608MOL0     O81976  -0.987   7.473   2.205  0.9422 -0.0948  0.6056
  608MOL0     C81977  -1.015   7.510   2.073 -0.9749  0.3237 -0.7471
  608MOL0     C81978  -0.943   7.597   1.986 -0.5055 -0.4419 -0.6911
  608MOL0     C81979  -0.975   7.614   1.851 -0.3884  0.5345 -1.1647
  608MOL0     C81980  -1.058   7.527   1.795 -0.7189 -0.5378 -0.9204
  608MOL0     O81981  -1.059   7.525   1.659 -0.0554  1.1919  0.6147
  608MOL0     C81982  -1.153   7.438   1.595  0.6066 -0.5058  0.2378
  608MOL0     C81983  -1.136   7.454   1.441 -0.6548  0.1634  1.2213
  608MOL0     C81984  -1.169   7.595   1.382  0.3149  0.6058  0.6619
  608MOL0     C81985  -1.313   7.582   1.315  0.2473 -0.1350 -0.1753
  608MOL0     C81986  -1.382   7.718   1.292 -0.4325  1.5630  0.6983
  608MOL0     C81987  -1.320   7.803   1.186  0.0641  0.7201  0.3447
  608MOL0     C81988  -1.400   7.931   1.172 -0.8568 -0.0176  0.8949
  608MOL0     C81989  -1.366   8.017   1.056  0.9509  1.2581 -0.3639
  608MOL0    Cl81990  -1.411   7.960   0.898  0.5029  0.2295  0.2472
  608MOL0     C81991  -1.126   7.439   1.872 -0.2470  1.8068 -0.5184
  608MOL0     C81992  -1.106   7.435   2.014  0.5481  0.3461 -0.1865
  608MOL0     O81993  -0.764   7.455   2.156 -0.6243  0.0332 -0.3375
  608MOL0     C81994  -0.705   7.315   2.390 -1.4097 -0.2624 -1.1605
  608MOL0     C81995  -0.681   7.236   2.501  1.3545  0.9113 -0.7814
  608MOL0     N81996  -0.885   6.767   3.253 -0.0837 -0.5401 -0.8323
  608MOL0     N81997  -0.965   6.669   3.242  1.2645 -0.3009  0.1197
  608MOL0     C81998  -0.137   6.037   2.716  0.3676  0.3236  0.9096
  608MOL0     C81999  -0.025   5.967   2.677 -0.1757  0.5227 -0.4259
  608MOL0     C82000   0.378   5.757   2.660  0.5202 -0.3302  0.7024
  608MOL0     C82001   0.475   5.815   2.739 -0.5506  0.3517  0.7240
  608MOL0     C82002   0.600   5.751   2.756 -0.3275  0.3657  0.2497
  608MOL0     C82003   0.640   5.636   2.691  0.3506  0.0502  0.0760
  608MOL0     O82004   0.763   5.582   2.705  0.2553  0.0537 -0.0066
  608MOL0     C82005   0.869   5.643   2.784  0.5062  0.2729 -0.8843
  608MOL0     C82006   0.999   5.570   2.766 -0.0772  0.0972 -0.1743
  608MOL0     C82007   1.061   5.590   2.631  0.3758  0.2612 -1.1309
  608MOL0     C82008   1.076   5.463   2.550  0.1854  0.2605 -0.1974
  608MOL0     C82009   1.065   5.491   2.407 -0.0628  0.1611 -0.0652
  608MOL0     C82010   1.045   5.498   2.287 -0.0384 -1.0621  0.0942
  608MOL0     C82011   0.550   5.589   2.601  0.2174  0.9694 -0.9136
  608MOL0     C82012   0.415   5.633   2.590  0.6481 -0.9775 -0.5762
  608MOL0     H82013   0.186   6.044   2.920 -0.9323 -0.6213  0.1835
  608MOL0     H82014  -0.018   6.160   3.016  2.5356 -0.2601  0.2187
  608MOL0     H82015  -0.361   6.204   2.732 -0.3724  0.8436  0.7247
  608MOL0     H82016  -0.390   6.046   2.798  1.6869  1.3761  1.6412
  608MOL0     H82017  -0.506   6.151   3.002 -2.4661  0.9274 -0.3801
  608MOL0     H82018  -0.467   6.317   2.943 -2.5138  0.4680 -1.7128
  608MOL0     H82019  -0.588   6.249   2.723 -0.6805 -1.5360 -0.7039
  608MOL0     H82020  -0.653   6.117   2.821 -2.1914  1.2411  0.2522
  608MOL0     H82021  -0.725   6.266   3.003  5.5233 -0.5637  1.2158
  608MOL0     H82022  -0.662   6.398   2.926 -0.8998 -0.9666  3.1559
  608MOL0     H82023  -0.825   6.345   2.718 -2.0053  3.8927 -0.4040
  608MOL0     H82024  -0.900   6.233   2.838  1.1495  0.1246 -0.2391
  608MOL0     H82025  -0.865   6.532   2.876 -0.0462  1.0371  0.7003
  608MOL0     H82026  -1.006   6.477   2.798  1.9277  0.7689 -1.5605
  608MOL0     H82027  -1.052   6.328   2.999  0.5478 -0.3044 -1.7899
  608MOL0     H82028  -0.920   6.401   3.091 -4.0202 -0.0910  3.6838
  608MOL0     H82029  -1.143   6.514   3.131  0.2513 -2.5403  0.4425
  608MOL0     H82030  -1.130   6.574   2.964  0.8786 -2.3961 -1.3110
  608MOL0     H82031  -0.951   6.755   2.926 -0.1621 -2.6272 -0.0713
  608MOL0     H82032  -0.825   7.044   3.126 -1.9773 -0.9736  0.8170
  608MOL0     H82033  -0.686   6.950   3.144 -1.2889 -0.0361  2.0208
  608MOL0     H82034  -0.848   6.994   2.911  0.4209 -0.6437 -1.3674
  608MOL0     H82035  -0.697   6.896   2.889 -2.2582 -2.1743 -0.8188
  608MOL0     H82036  -0.577   7.077   2.982 -2.2204 -0.0532  3.4985
  608MOL0     H82037  -0.707   7.192   2.975  0.9996  0.0751  3.0302
  608MOL0     H82038  -0.570   7.071   2.743 -0.0740  0.2769 -1.2177
  608MOL0     H82039  -0.612   7.241   2.756  1.2265 -0.4846  3.3413
  608MOL0     H82040  -1.000   7.146   2.575  0.7021  2.6233  4.5284
  608MOL0     H82041  -1.153   7.178   2.414 -1.7019  0.6489 -1.6535
  608MOL0     H82042  -1.129   7.353   2.384 -1.0156 -0.2955  0.0261
  608MOL0     H82043  -1.101   7.226   2.255  0.3495 -1.4840 -0.0919
  608MOL0     H82044  -0.863   7.653   2.034 -0.1486 -0.1181 -1.6405
  608MOL0     H82045  -0.915   7.679   1.790  4.9671 -0.8300  1.9530
  608MOL0     H82046  -1.135   7.332   1.618 -1.2271 -0.7702  0.6387
  608MOL0     H82047  -1.252   7.471   1.629  1.5220  2.1036  0.5648
  608MOL0     H82048  -1.029   7.444   1.422 -0.7315  0.4953  0.5630
  608MOL0     H82049  -1.187   7.379   1.380 -1.5788  0.5240  1.5313
  608MOL0     H82050  -1.102   7.637   1.306  2.1763 -0.1917  1.7925
  608MOL0     H82051  -1.176   7.658   1.471  0.0450 -0.8504  1.7033
  608MOL0     H82052  -1.307   7.540   1.215 -5.3084 -0.2926 -0.7392
  608MOL0     H82053  -1.373   7.512   1.375  0.9260 -0.9157 -0.3895
  608MOL0     H82054  -1.362   7.777   1.382  1.3930 -0.6153  1.8390
  608MOL0     H82055  -1.488   7.694   1.278  0.4145 -1.6022 -1.3655
  608MOL0     H82056  -1.214   7.821   1.205  0.2192  0.4147 -0.2020
  608MOL0     H82057  -1.330   7.748   1.092 -0.6445  2.5962 -0.7452
  608MOL0     H82058  -1.381   7.986   1.265  0.0152 -0.6478  1.1090
  608MOL0     H82059  -1.505   7.899   1.172 -1.0077  0.4691  1.3587
  608MOL0     H82060  -1.261   8.045   1.067  1.1382  2.1198 -3.4265
  608MOL0     H82061  -1.418   8.113   1.054  0.1244  0.8338  0.1310
  608MOL0     H82062  -1.192   7.363   1.831  1.1291  0.7022 -0.7528
  608MOL0     H82063  -1.163   7.355   2.061 -0.5518  0.1099 -1.8013
  608MOL0     H82064  -0.633   7.383   2.345 -1.5674  0.3745 -0.4835
  608MOL0     H82065  -0.579   7.239   2.539  1.7409  1.9961 -1.8330
  608MOL0     H82066  -0.223   6.057   2.654  3.3925  1.4941 -3.3870
  608MOL0     H82067  -0.039   5.918   2.582  2.3457  2.5561 -1.9828
  608MOL0     H82068   0.461   5.906   2.797 -1.6758  0.0062  1.0144
  608MOL0     H82069   0.670   5.805   2.820  0.9941 -0.0012 -0.8400
  608MOL0     H82070   0.870   5.750   2.761 -1.8852  0.5372 -0.0185
  608MOL0     H82071   0.846   5.630   2.890  1.5842 -4.4514 -1.0336
  608MOL0     H82072   0.995   5.462   2.783  4.0418 -0.4360 -1.4971
  608MOL0     H82073   1.068   5.608   2.842  0.5118  0.2058 -0.7478
  608MOL0     H82074   1.157   5.640   2.647  1.1664 -2.2351  3.6533
  608MOL0     H82075   0.993   5.657   2.577 -0.9248  0.5756  0.8153
  608MOL0     H82076   1.005   5.389   2.589  2.5634 -1.0940  1.8337
  608MOL0     H82077   1.173   5.416   2.570  0.3669  0.7397  0.0390
  608MOL0     H82078   1.032   5.518   2.182 -1.9910  1.4274  0.7130
  608MOL0     H82079   0.579   5.504   2.539  3.8453  0.2966  1.4046
  608MOL0     H82080   0.351   5.585   2.517  2.0583  0.2165 -2.6922
  609MOL0     O82081   6.975  10.633   0.480 -0.3711  0.2499  0.4267
  609MOL0     C82082   6.882  10.695   0.536 -0.4794  0.2564 -0.2411
  609MOL0     O82083   6.791  10.649   0.620  0.1148 -0.0027  0.2935
  609MOL0     C82084   6.809  10.528   0.671 -0.5990  0.4883  0.6545
  609MOL0     C82085   6.930  10.477   0.721  0.3071  0.1571 -0.0381
  609MOL0     C82086   6.940  10.344   0.753  0.1510  0.5816 -0.1704
  609MOL0     C82087   6.823  10.268   0.761  0.4487  0.6162  0.2702
  609MOL0     O82088   6.814  10.133   0.800 -1.2409 -1.0016  0.3543
  609MOL0     C82089   6.896  10.097   0.912 -0.1766  0.0233 -0.4998
  609MOL0     C82090   7.006  10.003   0.855 -0.1404  0.0025 -0.2826
  609MOL0     C82091   6.974   9.857   0.866  0.2519 -0.0557  0.3479
  609MOL0     C82092   7.018   9.784   0.750 -0.4735 -0.0546  0.8273
  609MOL0     C82093   6.974   9.637   0.778 -0.1357 -0.2123 -0.7260
  609MOL0     C82094   7.069   9.532   0.713 -1.1313  0.1428  0.3011
  609MOL0     C82095   7.035   9.390   0.763  0.8017 -0.4117  0.0182
  609MOL0     C82096   7.149   9.306   0.730  0.3497 -0.5536  1.2616
  609MOL0     N82097   7.155   9.182   0.805 -0.1186  0.7792  0.3122
  609MOL0     C82098   7.254   9.165   0.897 -0.3349 -0.3237 -0.6248
  609MOL0     C82099   7.229   9.037   0.946 -0.4770 -0.0113  0.3623
  609MOL0     C82100   7.333   8.964   1.020 -0.6118  0.8030 -0.9082
  609MOL0     C82101   7.275   8.894   1.149 -0.9188  0.1074 -0.0653
  609MOL0     C82102   7.395   8.835   1.230  0.0459  0.5825 -0.1194
  609MOL0     C82103   7.344   8.722   1.321  1.7674  0.4741 -0.0798
  609MOL0     O82104   7.323   8.606   1.236  0.9913  0.3047 -0.6934
  609MOL0     C82105   7.406   8.505   1.221  0.7695 -0.2941 -0.9497
  609MOL0     C82106   7.462   8.438   1.330 -0.6846 -0.4333 -0.0169
  609MOL0     C82107   7.556   8.331   1.321 -0.4117 -0.6589  0.6815
  609MOL0     C82108   7.613   8.261   1.442 -0.0344 -0.1887 -0.0602
  609MOL0     C82109   7.583   8.285   1.188 -0.7809  0.8477 -0.5838
  609MOL0     C82110   7.654   8.157   1.169  0.4150 -0.9601 -0.1023
  609MOL0     O82111   7.590   8.055   1.238 -0.6279 -0.0051 -0.1749
  609MOL0     C82112   7.650   7.929   1.247 -0.8546 -0.0286 -0.5026
  609MOL0     C82113   7.618   7.813   1.172  0.0657  0.6050  0.4487
  609MOL0     C82114   7.675   7.685   1.170 -0.0038  0.6135 -0.3002
  609MOL0     C82115   7.798   7.677   1.242 -0.0425  0.6562 -0.3943
  609MOL0     O82116   7.888   7.570   1.245  0.9013  0.3086  0.3719
  609MOL0     C82117   7.864   7.457   1.165  0.5457  0.7282  0.3576
  609MOL0     C82118   7.970   7.347   1.226  0.0692 -0.3073  0.0534
  609MOL0     C82119   7.902   7.256   1.328  1.2128  0.1178 -0.3876
  609MOL0     C82120   7.819   7.324   1.442 -0.2925  0.9265 -0.3040
  609MOL0     C82121   7.827   7.238   1.581 -0.1400  0.2178  0.0508
  609MOL0     C82122   7.747   7.112   1.559 -0.1107 -0.2512  0.0623
  609MOL0     C82123   7.747   7.036   1.700  0.2665  0.7421  0.0263
  609MOL0     C82124   7.893   6.994   1.745 -0.4639  0.4437  0.3364
  609MOL0    Cl82125   7.876   6.848   1.839  0.1203 -0.1369  0.5786
  609MOL0     C82126   7.839   7.781   1.333  0.3006 -0.3722  0.9329
  609MOL0     C82127   7.756   7.897   1.342  0.6728 -0.2674  0.1792
  609MOL0     O82128   7.750   8.142   1.090  0.1960 -0.0555 -0.5237
  609MOL0     C82129   7.515   8.339   1.083  0.2092  0.5644  1.1101
  609MOL0     C82130   7.440   8.460   1.096  0.1665  0.1840  0.3568
  609MOL0     N82131   7.122   8.979   0.881 -0.2117  0.6855  0.2229
  609MOL0     N82132   7.077   9.075   0.800 -0.1522  0.2715  0.2110
  609MOL0     C82133   6.703  10.322   0.727  0.0161 -0.0885  0.2234
  609MOL0     C82134   6.693  10.452   0.675  0.8425 -0.0045  0.2377
  609MOL0     C82135   6.869  10.843   0.500  0.4212  0.0478 -1.8669
  609MOL0     C82136   6.766  10.921   0.554  0.0042  0.6522  0.7675
  609MOL0     C82137   6.763  11.062   0.544 -0.1448 -1.1090  0.2104
  609MOL0     C82138   6.847  11.133   0.456 -0.4020  0.0504 -0.7374
  609MOL0     O82139   6.846  11.269   0.434  0.2874  0.3324  0.4313
  609MOL0     C82140   6.776  11.333   0.539  0.8632  0.7310  0.1412
  609MOL0     C82141   6.789  11.484   0.520  0.7378 -0.8649  0.5125
  609MOL0     C82142   6.773  11.550   0.375 -0.1780  0.9225 -0.5371
  609MOL0     C82143   6.636  11.498   0.308 -0.0005 -0.3219 -0.4001
  609MOL0     C82144   6.609  11.585   0.194  0.0806  1.0208 -0.2990
  609MOL0     C82145   6.574  11.673   0.124 -0.2335 -0.3149 -0.3889
  609MOL0     C82146   6.958  11.061   0.401  0.0904  0.6818  0.9802
  609MOL0     C82147   6.965  10.923   0.428 -0.0185  0.6315  0.3357
  609MOL0     H82148   7.021  10.535   0.725  0.1873  0.3684 -0.3963
  609MOL0     H82149   7.034  10.301   0.787 -0.7843 -0.1017  1.6862
  609MOL0     H82150   6.936  10.175   0.976 -1.5653  1.1721 -0.9716
  609MOL0     H82151   6.832  10.039   0.979  0.5506 -0.9441 -0.6111
  609MOL0     H82152   7.017  10.011   0.746  2.1042 -0.2772 -0.1294
  609MOL0     H82153   7.098  10.026   0.909 -0.7341  0.0349  0.7467
  609MOL0     H82154   7.022   9.822   0.959 -1.7139 -0.1936  1.3676
  609MOL0     H82155   6.868   9.832   0.879  0.1094  0.7754  0.8698
  609MOL0     H82156   6.967   9.825   0.663  2.4587  2.3421  0.0893
  609MOL0     H82157   7.125   9.784   0.726 -1.3069 -2.4461 -4.2654
  609MOL0     H82158   6.985   9.616   0.885  1.3906  1.2183 -0.5729
  609MOL0     H82159   6.872   9.618   0.742 -0.7572  3.7178 -1.3996
  609MOL0     H82160   7.068   9.535   0.604  1.3462 -2.6558  0.0844
  609MOL0     H82161   7.168   9.573   0.731 -1.8458  2.7374 -1.0664
  609MOL0     H82162   7.023   9.394   0.872 -0.2687 -1.3681 -0.0447
  609MOL0     H82163   6.942   9.352   0.719  0.0801  1.3115 -0.0305
  609MOL0     H82164   7.243   9.358   0.749  0.0814 -0.7824  3.4933
  609MOL0     H82165   7.135   9.282   0.624  0.6335  0.7511  0.9040
  609MOL0     H82166   7.342   9.224   0.922  2.0269 -2.5306 -3.0766
  609MOL0     H82167   7.385   8.898   0.950  0.9865  2.3483 -1.2562
  609MOL0     H82168   7.412   9.028   1.062  1.4500 -2.9311  1.3978
  609MOL0     H82169   7.193   8.826   1.122 -1.1349  0.1143  0.5449
  609MOL0     H82170   7.231   8.970   1.214 -2.3370 -1.0868  0.4347
  609MOL0     H82171   7.441   8.906   1.299  0.1643  2.6949 -2.2265
  609MOL0     H82172   7.478   8.797   1.169 -2.0356 -3.6805 -0.6338
  609MOL0     H82173   7.244   8.744   1.359  1.6261  1.4527 -0.9827
  609MOL0     H82174   7.410   8.697   1.406 -2.5887 -0.7105  3.3361
  609MOL0     H82175   7.431   8.469   1.429 -0.1193 -2.9466  1.0342
  609MOL0     H82176   7.718   8.233   1.434 -0.1175 -0.7165  0.5546
  609MOL0     H82177   7.581   8.315   1.532  0.5444  0.9119 -0.4923
  609MOL0     H82178   7.563   8.164   1.451 -1.8311  0.7618  0.9478
  609MOL0     H82179   7.528   7.824   1.112  0.3754 -2.0389 -0.6359
  609MOL0     H82180   7.638   7.599   1.115 -0.1263 -0.3422  1.2215
  609MOL0     H82181   7.763   7.414   1.170  0.8927 -0.0604  0.7790
  609MOL0     H82182   7.877   7.482   1.060  0.5500  1.2387  0.4779
  609MOL0     H82183   8.005   7.278   1.148  2.7956  0.1301  0.7910
  609MOL0     H82184   8.055   7.394   1.277 -1.6469 -0.3957  3.2678
  609MOL0     H82185   7.974   7.195   1.382  1.8797  1.0022 -0.2470
  609MOL0     H82186   7.828   7.194   1.276  0.0698 -0.9732  2.3298
  609MOL0     H82187   7.861   7.425   1.452  0.0865  0.6824  0.7888
  609MOL0     H82188   7.723   7.356   1.400  0.0327  2.6726  0.1856
  609MOL0     H82189   7.785   7.297   1.663 -0.2020  0.0096  0.1685
  609MOL0     H82190   7.927   7.218   1.620 -0.8619 -2.1917  0.8135
  609MOL0     H82191   7.645   7.135   1.526 -0.5160 -0.3452  1.1864
  609MOL0     H82192   7.807   7.048   1.493  1.4670 -2.4597  3.3431
  609MOL0     H82193   7.689   6.945   1.681  1.7203  0.0777 -1.5095
  609MOL0     H82194   7.698   7.080   1.788 -2.3327 -1.1426 -0.3449
  609MOL0     H82195   7.949   7.070   1.798  1.4470 -1.3583  1.0138
  609MOL0     H82196   7.959   6.960   1.665 -1.9056 -2.2276  0.1642
  609MOL0     H82197   7.921   7.768   1.403 -0.2959  0.9393  1.9376
  609MOL0     H82198   7.788   7.967   1.419 -1.1880  0.0663  0.6952
  609MOL0     H82199   7.536   8.315   0.979 -4.0901  2.4953 -0.4194
  609MOL0     H82200   7.395   8.509   1.010  1.4607 -1.5741 -1.3962
  609MOL0     H82201   6.620  10.252   0.725  1.0420 -1.3416 -0.0268
  609MOL0     H82202   6.600  10.491   0.635  0.5059 -3.3515 -2.7409
  609MOL0     H82203   6.683  10.872   0.604 -3.2457  2.9261 -1.9764
  609MOL0     H82204   6.678  11.112   0.590 -0.3368 -1.8053  0.6353
  609MOL0     H82205   6.669  11.310   0.541  0.7849  1.1168  1.1739
  609MOL0     H82206   6.816  11.326   0.641 -3.0119  1.7680  1.9481
  609MOL0     H82207   6.893  11.510   0.538  0.0069  1.0970  2.5165
  609MOL0     H82208   6.727  11.545   0.586  2.0734  1.9103 -0.6489
  609MOL0     H82209   6.859  11.531   0.311 -0.5108 -0.6887 -0.5610
  609MOL0     H82210   6.770  11.659   0.377  1.4435  1.0475 -2.4766
  609MOL0     H82211   6.560  11.514   0.385  2.0639 -0.4404  1.7839
  609MOL0     H82212   6.640  11.395   0.272  3.0539 -0.8151  1.0187
  609MOL0     H82213   6.537  11.742   0.051 -2.5998 -2.7443 -1.6650
  609MOL0     H82214   7.035  11.109   0.340 -1.0040 -1.3626 -2.2326
  609MOL0     H82215   7.048  10.873   0.379 -2.0610 -0.7086 -1.9543
  610MOL0     O82216  10.540   2.143   7.214  0.1344 -0.1975 -0.7952
  610MOL0     C82217  10.571   2.090   7.106 -0.9216  0.1933  0.1637
  610MOL0     O82218  10.494   2.042   7.014  0.3641  0.7212  0.7843
  610MOL0     C82219  10.359   2.040   7.057 -0.6909 -1.0584 -0.3707
  610MOL0     C82220  10.270   2.140   7.015  0.4133 -0.0924 -0.0816
  610MOL0     C82221  10.137   2.148   7.055  0.3049 -0.5931 -0.7774
  610MOL0     C82222  10.096   2.053   7.145  0.8157  0.2588 -0.4102
  610MOL0     O82223   9.971   2.057   7.211 -0.1234  0.9568 -0.1346
  610MOL0     C82224   9.875   1.967   7.155  0.0716 -0.5854  0.9243
  610MOL0     C82225   9.735   1.995   7.209 -0.7134  0.1621 -0.4883
  610MOL0     C82226   9.742   2.013   7.363  0.8912  0.6551 -0.4090
  610MOL0     C82227   9.599   2.044   7.421  0.3657  0.3338 -0.3638
  610MOL0     C82228   9.587   1.999   7.565 -0.2968 -0.9813 -0.2734
  610MOL0     C82229   9.471   2.071   7.647 -0.7177 -0.3180  0.2363
  610MOL0     C82230   9.492   2.022   7.799  0.3786  0.6984 -0.8109
  610MOL0     C82231   9.412   2.105   7.896  0.9829 -0.0957 -0.2425
  610MOL0     N82232   9.430   2.070   8.038  0.5341  0.5563 -0.1766
  610MOL0     C82233   9.550   2.020   8.094  0.1898 -0.3627  0.4984
  610MOL0     C82234   9.507   1.977   8.223 -0.7550 -0.9317  0.2563
  610MOL0     C82235   9.606   1.930   8.324 -0.1427 -0.3505  0.0090
  610MOL0     C82236   9.698   1.825   8.263 -0.0501 -0.5562 -0.3853
  610MOL0     C82237   9.801   1.766   8.368 -0.3220  0.4951 -0.6576
  610MOL0     C82238   9.751   1.656   8.473  0.3012  0.3889 -0.2921
  610MOL0     O82239   9.698   1.717   8.592 -0.2418  0.9064  0.6322
  610MOL0     C82240   9.567   1.683   8.626  0.3670  0.4397  0.5635
  610MOL0     C82241   9.503   1.566   8.601  0.3134  0.4716  0.7520
  610MOL0     C82242   9.373   1.537   8.635 -0.2585  0.3088 -0.5609
  610MOL0     C82243   9.324   1.398   8.608  0.3730  0.4931  0.3689
  610MOL0     C82244   9.305   1.639   8.720 -0.5754 -0.9511  0.1599
  610MOL0     C82245   9.183   1.623   8.799 -0.1443  0.5461 -0.3613
  610MOL0     O82246   9.129   1.493   8.822  0.0458  0.6389 -0.0462
  610MOL0     C82247   9.031   1.486   8.919 -0.0525 -0.4529 -0.2210
  610MOL0     C82248   8.902   1.467   8.874 -0.3213  0.5679  0.2553
  610MOL0     C82249   8.797   1.467   8.962  1.1611  0.8578 -0.7380
  610MOL0     C82250   8.827   1.487   9.102  0.0732 -0.4260 -0.3055
  610MOL0     O82251   8.720   1.494   9.191  1.1442 -0.0308  0.0275
  610MOL0     C82252   8.721   1.427   9.321 -0.7643 -0.2981 -0.3444
  610MOL0     C82253   8.663   1.295   9.314 -0.2518  0.4607 -0.5682
  610MOL0     C82254   8.763   1.175   9.317  0.8579 -0.8248  0.3151
  610MOL0     C82255   8.698   1.039   9.321 -0.1955  0.4091  0.9959
  610MOL0     C82256   8.802   0.941   9.356 -0.1731  0.0292 -0.0413
  610MOL0     C82257   8.751   0.799   9.357  0.0852 -0.4103 -0.1094
  610MOL0     C82258   8.852   0.695   9.424 -0.5406  0.0057 -0.2668
  610MOL0     C82259   8.803   0.552   9.418 -0.6317  0.4632 -0.2688
  610MOL0    Cl82260   8.864   0.471   9.575  0.0788  0.0028  0.1083
  610MOL0     C82261   8.954   1.506   9.149  0.6919  0.5928 -1.1154
  610MOL0     C82262   9.052   1.506   9.058 -0.1412 -0.0471  0.3847
  610MOL0     O82263   9.133   1.725   8.841 -0.0783  0.2147 -0.1578
  610MOL0     C82264   9.376   1.766   8.739  0.7740  0.0142  0.7673
  610MOL0     C82265   9.504   1.788   8.689  0.2827 -0.4664  0.8168
  610MOL0     N82266   9.374   2.011   8.244  0.4371  0.4390  0.7577
  610MOL0     N82267   9.332   2.052   8.127  0.9322 -0.0850 -0.0638
  610MOL0     C82268  10.178   1.959   7.189  0.4819 -0.0762  0.0788
  610MOL0     C82269  10.310   1.945   7.149  0.0469  0.0001  0.6283
  610MOL0     C82270  10.709   2.051   7.096 -0.8083 -0.3526  0.7496
  610MOL0     C82271  10.797   2.018   7.208  0.4518 -0.4580  0.5034
  610MOL0     C82272  10.932   1.993   7.192  0.5501  0.3309  1.1229
  610MOL0     C82273  10.994   1.989   7.070  0.4794 -0.3333  0.2278
  610MOL0     O82274  11.134   1.962   7.060 -0.3262 -0.4658  0.3380
  610MOL0     C82275  11.207   1.981   6.939 -0.2876  0.5347 -0.0687
  610MOL0     C82276  11.317   1.878   6.942 -1.0254  0.2916  0.4938
  610MOL0     C82277  11.403   1.898   7.063 -0.2667  0.0877 -0.4358
  610MOL0     C82278  11.522   1.796   7.067  0.1168 -0.3122  0.5647
  610MOL0     C82279  11.617   1.837   6.959 -0.0461  0.3431 -0.5400
  610MOL0     C82280  11.688   1.860   6.869 -0.2537 -0.4212  0.8797
  610MOL0     C82281  10.915   2.022   6.957  0.1561 -0.4909 -0.6615
  610MOL0     C82282  10.777   2.045   6.971  0.1379 -0.3380  0.7970
  610MOL0     H82283  10.293   2.213   6.937 -0.8620 -3.1114 -3.5728
  610MOL0     H82284  10.075   2.233   7.031  1.1933  1.1702  2.5318
  610MOL0     H82285   9.859   1.978   7.047 -0.7913  0.6501  1.1521
  610MOL0     H82286   9.903   1.863   7.173  0.0943 -1.1370 -1.8569
  610MOL0     H82287   9.702   2.090   7.164  0.7662  2.0200  2.0655
  610MOL0     H82288   9.668   1.912   7.185  1.3098 -1.7068  0.0110
  610MOL0     H82289   9.774   1.918   7.406 -3.1146 -0.8553 -0.3988
  610MOL0     H82290   9.806   2.095   7.400 -1.4839  1.0286  3.4690
  610MOL0     H82291   9.591   2.153   7.413  1.5637  0.4841  0.2347
  610MOL0     H82292   9.532   2.000   7.346  0.7193 -2.2247  0.7544
  610MOL0     H82293   9.571   1.891   7.570  0.9920 -1.1383  1.5314
  610MOL0     H82294   9.685   2.016   7.611  0.9492  1.5542 -3.4179
  610MOL0     H82295   9.479   2.180   7.638  0.2474 -0.4157 -0.1257
  610MOL0     H82296   9.372   2.035   7.617 -1.1135  1.4145 -0.6750
  610MOL0     H82297   9.470   1.915   7.804 -0.0820  0.8147 -0.2697
  610MOL0     H82298   9.598   2.041   7.818  0.8816 -3.1152  1.2429
  610MOL0     H82299   9.306   2.082   7.890  1.8737 -5.3334 -0.9113
  610MOL0     H82300   9.437   2.211   7.882  2.0869 -0.2569  0.3363
  610MOL0     H82301   9.644   2.023   8.040 -1.2340  0.0128 -2.1704
  610MOL0     H82302   9.667   2.012   8.363 -0.6746  0.2565 -0.4133
  610MOL0     H82303   9.545   1.909   8.413  1.7070  0.4443  1.5371
  610MOL0     H82304   9.750   1.860   8.174  4.5755 -2.8153  1.1150
  610MOL0     H82305   9.624   1.747   8.239  1.8894 -2.5749 -0.0735
  610MOL0     H82306   9.857   1.843   8.421 -0.7763 -0.2022  0.9160
  610MOL0     H82307   9.878   1.710   8.315 -0.3716 -1.7205  1.4005
  610MOL0     H82308   9.831   1.598   8.521 -0.9529 -3.0529 -2.0549
  610MOL0     H82309   9.696   1.581   8.415  0.1672 -1.7201  2.3259
  610MOL0     H82310   9.565   1.490   8.554  2.0112  1.2638  1.6003
  610MOL0     H82311   9.222   1.387   8.648  0.1144  0.3294 -0.3248
  610MOL0     H82312   9.322   1.382   8.500 -0.1418 -4.0451  0.8702
  610MOL0     H82313   9.394   1.331   8.658  2.4808  0.8293 -1.9684
  610MOL0     H82314   8.889   1.441   8.769 -1.1294 -1.2620  0.7800
  610MOL0     H82315   8.699   1.433   8.930 -0.5900  2.6390  2.2885
  610MOL0     H82316   8.825   1.419   9.352 -1.5566 -2.7280  2.1233
  610MOL0     H82317   8.682   1.498   9.395  0.3136  0.9912 -0.9741
  610MOL0     H82318   8.593   1.300   9.398  0.4626 -3.2821  0.4444
  610MOL0     H82319   8.598   1.295   9.226  0.2584  0.0517 -0.9599
  610MOL0     H82320   8.833   1.182   9.400  0.4038  0.8781  0.5915
  610MOL0     H82321   8.834   1.179   9.234 -0.4556 -0.4427 -0.8326
  610MOL0     H82322   8.620   1.046   9.397 -3.1281 -1.7992 -1.5285
  610MOL0     H82323   8.646   1.015   9.228 -2.9694 -0.3957  2.6197
  610MOL0     H82324   8.850   0.964   9.451 -0.3997 -1.7078  0.5344
  610MOL0     H82325   8.878   0.953   9.279 -1.7160  3.7515 -1.2544
  610MOL0     H82326   8.656   0.806   9.410 -0.5137  1.4117 -1.3333
  610MOL0     H82327   8.715   0.756   9.263 -2.4680  2.2402 -0.4863
  610MOL0     H82328   8.875   0.730   9.525  1.7806  0.9545 -1.0441
  610MOL0     H82329   8.944   0.704   9.364  0.0669  3.2943  0.9542
  610MOL0     H82330   8.846   0.515   9.325 -0.2543  1.4660 -0.4954
  610MOL0     H82331   8.694   0.558   9.413 -0.6818 -1.0373 -2.3524
  610MOL0     H82332   8.983   1.534   9.250  0.6565 -1.4790 -0.4881
  610MOL0     H82333   9.153   1.515   9.097 -0.5489  0.2657  1.4307
  610MOL0     H82334   9.334   1.851   8.792 -0.7943  0.7773 -1.5903
  610MOL0     H82335   9.549   1.885   8.710  2.2488 -1.0067 -0.5151
  610MOL0     H82336  10.146   1.887   7.263  0.9694 -0.8596 -0.4683
  610MOL0     H82337  10.365   1.854   7.170  1.0587  0.3895 -0.2413
  610MOL0     H82338  10.755   2.017   7.308  1.4526 -2.4290  0.9535
  610MOL0     H82339  10.992   1.982   7.282 -1.4267 -0.5609  2.3880
  610MOL0     H82340  11.146   1.955   6.852  2.1731 -0.9789 -1.4618
  610MOL0     H82341  11.258   2.077   6.931 -3.2308  2.0972 -1.4976
  610MOL0     H82342  11.380   1.881   6.853 -0.0021  3.0062  1.2038
  610MOL0     H82343  11.273   1.778   6.944 -0.1849 -0.1690 -1.7749
  610MOL0     H82344  11.339   1.880   7.150 -0.9661  2.1295 -0.4743
  610MOL0     H82345  11.439   2.000   7.077 -0.9316  0.0214  2.4207
  610MOL0     H82346  11.495   1.693   7.045  2.2516 -0.6579 -0.7491
  610MOL0     H82347  11.562   1.810   7.168  1.6697  1.5931 -0.2386
  610MOL0     H82348  11.752   1.866   6.784 -0.1094 -3.4430  0.6888
  610MOL0     H82349  10.955   2.007   6.857  1.4768 -0.3690 -0.1753
  610MOL0     H82350  10.722   2.066   6.880 -1.6472 -3.6007  0.9672
  611MOL0     O82351   7.948   1.460   4.215 -0.0546  0.3700 -0.6015
  611MOL0     C82352   7.930   1.339   4.234 -0.6264 -0.9566  0.0259
  611MOL0     O82353   8.036   1.252   4.251  0.2812 -0.1797 -0.5478
  611MOL0     C82354   8.165   1.292   4.248  0.5399 -0.5433  0.1704
  611MOL0     C82355   8.220   1.407   4.301 -0.3651 -0.0534  0.0156
  611MOL0     C82356   8.355   1.432   4.297  0.7149  0.1841 -0.8489
  611MOL0     C82357   8.448   1.341   4.260 -0.4198  0.1106  0.5641
  611MOL0     O82358   8.573   1.382   4.239  0.8070 -0.5695  0.5715
  611MOL0     C82359   8.662   1.295   4.166 -0.9668 -0.3670  0.3879
  611MOL0     C82360   8.772   1.395   4.114  0.1964 -0.7890  0.9771
  611MOL0     C82361   8.862   1.427   4.239  0.3364  0.5838 -0.6766
  611MOL0     C82362   8.981   1.509   4.192 -0.0619 -0.5034 -0.7374
  611MOL0     C82363   9.078   1.545   4.306  0.4274  0.1383  0.1159
  611MOL0     C82364   9.200   1.624   4.247  0.7654 -0.1772 -0.1207
  611MOL0     C82365   9.158   1.758   4.179  0.3982 -0.2201  0.1904
  611MOL0     C82366   9.274   1.858   4.146 -0.0233  0.0799 -0.5938
  611MOL0     N82367   9.226   1.986   4.112  0.0829  0.0654  0.8380
  611MOL0     C82368   9.173   2.016   3.988  0.1894  0.4818 -0.2525
  611MOL0     C82369   9.113   2.131   4.003 -0.3371  0.0656 -0.2122
  611MOL0     C82370   9.044   2.220   3.901 -0.3909 -0.1273  0.4270
  611MOL0     C82371   8.901   2.186   3.895 -0.2007  0.2038 -0.2989
  611MOL0     C82372   8.820   2.253   4.010  0.3559  0.0575 -0.8136
  611MOL0     C82373   8.673   2.268   3.970 -0.5964 -0.4025 -0.0357
  611MOL0     O82374   8.620   2.137   3.945 -0.9733 -0.1073 -0.1760
  611MOL0     C82375   8.507   2.131   3.869 -0.6302 -0.4566 -0.7796
  611MOL0     C82376   8.474   2.002   3.821 -0.6193 -0.6706  0.6082
  611MOL0     C82377   8.358   1.977   3.737 -0.7970 -0.3460  0.9208
  611MOL0     C82378   8.327   1.835   3.686 -1.3528 -0.2807 -1.0687
  611MOL0     C82379   8.271   2.085   3.707 -0.1145  1.4468 -0.6046
  611MOL0     C82380   8.166   2.075   3.612 -0.6281 -0.2894  0.6681
  611MOL0     O82381   8.177   1.978   3.506 -0.7888 -0.7391  0.3516
  611MOL0     C82382   8.083   1.974   3.409  0.0394 -0.1806  0.1432
  611MOL0     C82383   8.035   1.859   3.350 -0.4882  0.9044  0.5466
  611MOL0     C82384   7.956   1.863   3.230  0.9586  0.3983 -0.5778
  611MOL0     C82385   7.913   1.981   3.177 -0.3666  0.0617  0.0210
  611MOL0     O82386   7.813   2.010   3.085 -0.1172  0.4583  0.4274
  611MOL0     C82387   7.798   1.894   2.996  1.0987  0.2558  0.5611
  611MOL0     C82388   7.704   1.930   2.878  0.6242 -0.1995  0.1412
  611MOL0     C82389   7.659   1.807   2.801  0.5744  0.6013  0.5864
  611MOL0     C82390   7.581   1.851   2.668 -0.4247  0.4185 -0.7712
  611MOL0     C82391   7.531   1.737   2.577 -0.2897  0.4011  0.9328
  611MOL0     C82392   7.459   1.792   2.452 -0.5411  0.3909  0.2562
  611MOL0     C82393   7.418   1.694   2.337 -0.1124 -1.1705 -0.0812
  611MOL0     C82394   7.358   1.569   2.398 -0.5086  0.2467  0.4799
  611MOL0    Cl82395   7.230   1.620   2.518  0.1697 -0.2776  0.0080
  611MOL0     C82396   7.961   2.092   3.240  0.1938  1.3080 -0.6102
  611MOL0     C82397   8.041   2.095   3.355 -0.1200 -0.4055  0.1989
  611MOL0     O82398   8.068   2.149   3.631 -0.0572 -0.1914 -0.5184
  611MOL0     C82399   8.300   2.211   3.767 -0.5073  0.6706 -0.2225
  611MOL0     C82400   8.417   2.235   3.846 -0.7317 -0.1640  0.3158
  611MOL0     N82401   9.138   2.166   4.137 -0.7827 -0.4265  0.8074
  611MOL0     N82402   9.192   2.077   4.204  0.7798  0.8752  0.3391
  611MOL0     C82403   8.398   1.219   4.225  0.3230 -0.9250  0.3481
  611MOL0     C82404   8.258   1.197   4.216 -0.3701  0.1484 -0.4813
  611MOL0     C82405   7.793   1.283   4.219  0.0913 -0.7906  0.0637
  611MOL0     C82406   7.766   1.146   4.235 -0.4842  0.8429 -0.8272
  611MOL0     C82407   7.626   1.092   4.234  0.5271  0.2376  0.9563
  611MOL0     C82408   7.519   1.182   4.217 -0.2076  0.3881 -0.3766
  611MOL0     O82409   7.380   1.155   4.216  0.5260 -0.4069  0.2806
  611MOL0     C82410   7.337   1.024   4.200 -1.0980 -0.3218  0.8361
  611MOL0     C82411   7.194   1.016   4.231  0.3252 -0.4850  0.9031
  611MOL0     C82412   7.105   1.102   4.139  0.1468 -0.1120 -0.5053
  611MOL0     C82413   6.964   1.058   4.099  0.2256  0.0376 -0.3808
  611MOL0     C82414   6.974   0.927   4.034 -0.5742  0.5088 -0.2561
  611MOL0     C82415   6.996   0.818   3.977  0.0872 -0.1528  0.7468
  611MOL0     C82416   7.554   1.320   4.197 -0.2942 -0.1331  0.6427
  611MOL0     C82417   7.689   1.374   4.208 -0.0283  0.0517  0.5075
  611MOL0     H82418   8.153   1.482   4.342  0.7314  1.2492 -0.5139
  611MOL0     H82419   8.397   1.530   4.316  1.1305 -0.2750  0.8110
  611MOL0     H82420   8.705   1.216   4.227 -2.8618 -2.5250 -0.8893
  611MOL0     H82421   8.613   1.251   4.078  0.7126 -3.4941  0.8722
  611MOL0     H82422   8.828   1.344   4.035 -0.3459  0.8782 -0.5417
  611MOL0     H82423   8.744   1.487   4.062 -1.7315 -2.2138 -0.6970
  611MOL0     H82424   8.806   1.489   4.310  0.9148 -0.6907  0.9772
  611MOL0     H82425   8.889   1.337   4.295  0.4618 -0.0020 -1.6690
  611MOL0     H82426   9.051   1.460   4.124  0.1496 -2.4446  0.8163
  611MOL0     H82427   8.943   1.601   4.145  0.2883  2.0012  3.3682
  611MOL0     H82428   9.020   1.603   4.379 -0.8380  1.0476 -1.5412
  611MOL0     H82429   9.117   1.452   4.349  1.8903  1.0565  0.8355
  611MOL0     H82430   9.265   1.656   4.329  0.2611 -0.3308  0.3424
  611MOL0     H82431   9.250   1.557   4.177  2.1399  0.5382  0.1460
  611MOL0     H82432   9.094   1.741   4.092 -0.3771 -1.6589  0.9998
  611MOL0     H82433   9.097   1.817   4.248 -0.2336 -1.2447  0.5368
  611MOL0     H82434   9.330   1.817   4.062 -0.5637  1.3686 -1.5974
  611MOL0     H82435   9.345   1.865   4.229 -1.0748 -2.3762  0.6588
  611MOL0     H82436   9.186   1.964   3.893 -0.4875 -0.4758  0.1721
  611MOL0     H82437   9.078   2.320   3.931  0.1150 -0.2645  0.3180
  611MOL0     H82438   9.088   2.202   3.803  0.5448  0.0570  0.8040
  611MOL0     H82439   8.880   2.079   3.886 -0.3763  0.2186 -0.0856
  611MOL0     H82440   8.872   2.222   3.796  1.2842  3.6312  0.3594
  611MOL0     H82441   8.860   2.355   4.018 -1.9745  1.2319 -2.7705
  611MOL0     H82442   8.839   2.192   4.098  1.5983  1.9930  0.3379
  611MOL0     H82443   8.680   2.310   3.869  1.9635 -0.8516 -0.1343
  611MOL0     H82444   8.611   2.315   4.046  1.0900  0.1823  1.0309
  611MOL0     H82445   8.534   1.912   3.837 -1.2802 -1.2492 -0.1066
  611MOL0     H82446   8.221   1.810   3.689 -1.4733 -0.0088 -2.5091
  611MOL0     H82447   8.374   1.812   3.590  0.5895 -0.5278 -0.1148
  611MOL0     H82448   8.384   1.765   3.747  0.6579  0.6486 -1.8018
  611MOL0     H82449   8.057   1.765   3.398  0.8253  1.0187  0.2229
  611MOL0     H82450   7.926   1.773   3.177  1.0296 -0.7921  1.2967
  611MOL0     H82451   7.893   1.855   2.960  0.9077 -1.6029  1.9623
  611MOL0     H82452   7.751   1.812   3.050  1.3293 -0.4278 -0.2633
  611MOL0     H82453   7.624   1.985   2.928  1.4936 -0.5424  2.0068
  611MOL0     H82454   7.759   1.997   2.812 -0.5261 -0.8068 -1.4781
  611MOL0     H82455   7.609   1.723   2.849  0.0033 -1.2086 -2.8407
  611MOL0     H82456   7.750   1.763   2.760 -0.5355  0.8056 -2.3625
  611MOL0     H82457   7.485   1.892   2.701 -0.5182 -0.7141  0.4458
  611MOL0     H82458   7.632   1.925   2.605 -1.5439  1.5073 -0.4466
  611MOL0     H82459   7.472   1.682   2.651 -1.5678  1.0438  0.4278
  611MOL0     H82460   7.618   1.676   2.552 -0.6597 -0.6338  2.0855
  611MOL0     H82461   7.380   1.855   2.494  0.0287  1.0656  0.3400
  611MOL0     H82462   7.535   1.852   2.401  0.1252  1.3973  2.3078
  611MOL0     H82463   7.503   1.672   2.271 -0.2882  1.7959 -1.4541
  611MOL0     H82464   7.338   1.738   2.277 -0.2733 -0.9579  0.2916
  611MOL0     H82465   7.430   1.503   2.448  1.3023  2.7198  1.3303
  611MOL0     H82466   7.324   1.511   2.312  1.6731 -2.4769  1.3273
  611MOL0     H82467   7.931   2.187   3.197 -1.4682  3.2477  4.2241
  611MOL0     H82468   8.076   2.189   3.396 -1.9446 -0.4181  1.9284
  611MOL0     H82469   8.228   2.290   3.748 -2.3738 -1.0370 -0.4715
  611MOL0     H82470   8.442   2.336   3.879 -0.5865  0.3771 -1.3590
  611MOL0     H82471   8.460   1.137   4.189 -0.6196 -2.6732  2.5110
  611MOL0     H82472   8.220   1.095   4.212  0.7429 -0.4729  2.4565
  611MOL0     H82473   7.848   1.079   4.255 -0.2732 -0.5926 -5.3251
  611MOL0     H82474   7.610   0.992   4.274 -1.0414  1.3763  3.4758
  611MOL0     H82475   7.352   0.994   4.096  1.6380 -1.7227  1.5341
  611MOL0     H82476   7.390   0.956   4.269  4.7635  2.4358 -0.3265
  611MOL0     H82477   7.186   1.049   4.335  0.6080  0.3424  0.6700
  611MOL0     H82478   7.168   0.909   4.236  2.3611 -1.1335 -0.8437
  611MOL0     H82479   7.157   1.110   4.043  2.3140  1.1688  0.7062
  611MOL0     H82480   7.106   1.203   4.183 -1.6782 -0.7684  1.2146
  611MOL0     H82481   6.911   1.132   4.039  1.3859  1.3426  0.1549
  611MOL0     H82482   6.924   1.046   4.201  3.0803  2.5747  1.2006
  611MOL0     H82483   6.996   0.715   3.948  0.5782  0.3852 -1.2544
  611MOL0     H82484   7.480   1.395   4.170 -1.0572 -2.2360 -4.1131
  611MOL0     H82485   7.697   1.482   4.193  0.7392  0.3467  2.6866
  612MOL0     O82486   2.545  10.461   7.089  0.0642  0.2767 -0.5190
  612MOL0     C82487   2.534  10.418   7.210  1.6332  0.1806  0.3843
  612MOL0     O82488   2.571  10.297   7.258 -0.4368  0.5931  0.4177
  612MOL0     C82489   2.601  10.211   7.155 -0.3095 -0.2765  1.0517
  612MOL0     C82490   2.502  10.136   7.098 -0.1466 -0.0042 -0.0498
  612MOL0     C82491   2.534  10.033   7.013 -0.1803  1.4931 -0.4361
  612MOL0     C82492   2.657  10.020   6.964 -0.7516 -0.3139 -0.3312
  612MOL0     O82493   2.706   9.905   6.902  0.8748  0.1232  0.7294
  612MOL0     C82494   2.709   9.906   6.755  0.4356  0.1835  0.1559
  612MOL0     C82495   2.848   9.929   6.691  1.1248 -0.6036  0.1321
  612MOL0     C82496   2.862   9.899   6.543 -1.1764 -0.7789 -0.7942
  612MOL0     C82497   2.773   9.776   6.492 -0.2769 -0.9048  0.5255
  612MOL0     C82498   2.807   9.638   6.567 -0.3023  1.1242  0.0231
  612MOL0     C82499   2.957   9.596   6.545  0.5468  0.1873  0.1428
  612MOL0     C82500   2.991   9.457   6.575 -0.3413  0.6111 -0.7474
  612MOL0     C82501   3.139   9.438   6.554 -0.8615  0.2090 -0.2152
  612MOL0     N82502   3.174   9.297   6.601  0.4145 -0.3372  0.2856
  612MOL0     C82503   3.129   9.180   6.543 -1.0408  0.0868  0.5370
  612MOL0     C82504   3.170   9.090   6.634  0.3004  0.4432 -0.0540
  612MOL0     C82505   3.155   8.943   6.601  0.3535  0.3472  0.3709
  612MOL0     C82506   3.232   8.856   6.701 -0.4727 -0.0339 -0.3745
  612MOL0     C82507   3.150   8.841   6.835  0.7245  0.0668  0.6487
  612MOL0     C82508   3.048   8.728   6.827  1.0539 -0.3578 -0.5832
  612MOL0     O82509   3.128   8.613   6.810 -0.5766  0.7277  0.4182
  612MOL0     C82510   3.076   8.494   6.769  1.1975  0.4284 -0.4054
  612MOL0     C82511   2.947   8.452   6.806  0.2200 -0.0686  0.2542
  612MOL0     C82512   2.886   8.330   6.761  1.0903 -0.3335  0.8057
  612MOL0     C82513   2.748   8.276   6.790 -0.2983  0.4130  0.5555
  612MOL0     C82514   2.960   8.261   6.657 -1.0703 -0.1350 -0.2587
  612MOL0     C82515   2.907   8.144   6.585  0.5927  0.5606  1.2443
  612MOL0     O82516   3.002   8.038   6.558 -0.2880 -0.6320 -0.0342
  612MOL0     C82517   2.949   7.933   6.477  0.4871 -1.1831 -0.6165
  612MOL0     C82518   2.997   7.907   6.352 -0.7954  0.1364  0.6100
  612MOL0     C82519   2.948   7.800   6.277 -0.5466 -0.6881 -0.6968
  612MOL0     C82520   2.846   7.720   6.322 -0.5431 -0.8052  0.1486
  612MOL0     O82521   2.802   7.619   6.244 -0.5662 -0.0262 -0.1212
  612MOL0     C82522   2.716   7.646   6.132 -0.0453 -0.5844  0.1812
  612MOL0     C82523   2.583   7.697   6.191  0.6372  0.2874  0.1887
  612MOL0     C82524   2.477   7.710   6.081 -0.9481  0.8538  0.9790
  612MOL0     C82525   2.493   7.830   5.978  0.6048  0.2127 -0.5686
  612MOL0     C82526   2.374   7.865   5.887 -0.3743  0.3195  0.6103
  612MOL0     C82527   2.416   7.973   5.782 -0.1519  0.7100 -0.6040
  612MOL0     C82528   2.324   7.997   5.679  0.8797  0.0600  0.3499
  612MOL0     C82529   2.188   8.062   5.714  0.8864  1.3488 -0.0502
  612MOL0    Cl82530   2.106   8.092   5.556  0.1051  0.6794  0.2151
  612MOL0     C82531   2.800   7.737   6.454 -0.4268  0.2189 -0.0469
  612MOL0     C82532   2.848   7.848   6.533 -1.0791 -0.4732 -0.2068
  612MOL0     O82533   2.788   8.142   6.555  0.5699 -0.0689  0.3637
  612MOL0     C82534   3.099   8.297   6.630 -0.2589 -0.0197  0.1489
  612MOL0     C82535   3.156   8.411   6.694 -0.0773  0.4115  0.5799
  612MOL0     N82536   3.227   9.146   6.746 -0.0548 -1.3982  0.8962
  612MOL0     N82537   3.229   9.279   6.724 -0.9882 -0.5128  0.6040
  612MOL0     C82538   2.753  10.116   6.997 -0.0181 -0.3931 -0.1051
  612MOL0     C82539   2.728  10.210   7.097 -0.4321  0.3363 -0.9727
  612MOL0     C82540   2.478  10.509   7.305  0.0673 -0.1869  0.5089
  612MOL0     C82541   2.479  10.651   7.292  1.2432  0.7816  0.5227
  612MOL0     C82542   2.413  10.740   7.377  0.3065  0.0761  0.6899
  612MOL0     C82543   2.366  10.683   7.493  0.0923  0.5839 -0.5758
  612MOL0     O82544   2.307  10.770   7.580  0.3545 -0.2821 -0.0253
  612MOL0     C82545   2.312  10.745   7.724  0.1663  0.5928  0.1083
  612MOL0     C82546   2.194  10.801   7.798  0.7101  0.1889 -0.4759
  612MOL0     C82547   2.079  10.698   7.802  1.0414 -0.5336  0.2094
  612MOL0     C82548   1.960  10.756   7.879  0.2167  0.6950 -0.2140
  612MOL0     C82549   1.847  10.656   7.886 -0.3684  0.1694  0.2424
  612MOL0     C82550   1.744  10.586   7.895 -0.3752 -0.3586  1.1302
  612MOL0     C82551   2.354  10.545   7.516 -0.0666  0.6872  0.1144
  612MOL0     C82552   2.415  10.464   7.420 -0.3420 -0.1578  0.4898
  612MOL0     H82553   2.403  10.134   7.142 -1.0574 -2.4845 -1.9730
  612MOL0     H82554   2.457   9.958   7.000  2.7899 -1.7267 -0.8697
  612MOL0     H82555   2.663   9.810   6.729 -0.5508 -0.1264  2.6899
  612MOL0     H82556   2.640   9.987   6.727 -2.0184 -1.9077 -0.2122
  612MOL0     H82557   2.875  10.032   6.715  0.9561 -0.0705 -1.7868
  612MOL0     H82558   2.904   9.857   6.752  1.4883 -0.7976 -0.4260
  612MOL0     H82559   2.832   9.989   6.489  0.0590  0.4450  0.4761
  612MOL0     H82560   2.964   9.887   6.508 -0.7662  0.5953 -0.1396
  612MOL0     H82561   2.671   9.793   6.528 -1.2562 -7.1112  1.8833
  612MOL0     H82562   2.767   9.752   6.386 -3.2713 -0.9115  0.6100
  612MOL0     H82563   2.794   9.667   6.671 -1.1788 -2.0059  0.9026
  612MOL0     H82564   2.737   9.558   6.542  0.9381  0.4584 -1.5486
  612MOL0     H82565   2.977   9.606   6.438  0.4025  1.5861  0.2216
  612MOL0     H82566   3.024   9.654   6.609  0.5340  0.6886 -0.2882
  612MOL0     H82567   2.964   9.425   6.676  0.1600 -1.7456 -1.3058
  612MOL0     H82568   2.939   9.392   6.505  1.5408 -1.2171 -0.5465
  612MOL0     H82569   3.201   9.512   6.604  1.5878  0.2654 -3.0780
  612MOL0     H82570   3.164   9.454   6.449  2.0520 -0.8042  0.2331
  612MOL0     H82571   3.069   9.169   6.453 -0.1372  2.8094 -0.5001
  612MOL0     H82572   3.052   8.907   6.595  0.4675 -0.0193  0.5435
  612MOL0     H82573   3.194   8.940   6.499  0.6071  1.7592  0.4033
  612MOL0     H82574   3.334   8.892   6.714  0.1605 -1.3689 -1.3602
  612MOL0     H82575   3.233   8.757   6.654  0.8843  0.9105 -2.4784
  612MOL0     H82576   3.092   8.932   6.856 -1.6395 -1.0830 -0.4801
  612MOL0     H82577   3.224   8.819   6.912 -0.4862  0.1134  1.8592
  612MOL0     H82578   2.976   8.743   6.746  1.9109  2.0524 -1.0038
  612MOL0     H82579   3.003   8.735   6.927 -0.4525 -5.3669 -0.6595
  612MOL0     H82580   2.878   8.504   6.871  2.3587  3.2200  0.1020
  612MOL0     H82581   2.713   8.303   6.890 -1.0787 -4.0005  1.6999
  612MOL0     H82582   2.685   8.319   6.712  2.4793  0.9986 -1.4974
  612MOL0     H82583   2.748   8.167   6.788 -0.0171  0.4184 -0.1031
  612MOL0     H82584   3.088   7.957   6.321  0.5268 -1.7675  1.2981
  612MOL0     H82585   3.000   7.776   6.185  0.4979 -0.7306 -0.1158
  612MOL0     H82586   2.743   7.732   6.070 -1.8307  0.7835  1.1965
  612MOL0     H82587   2.692   7.557   6.074  0.5270  1.4836 -3.5390
  612MOL0     H82588   2.551   7.641   6.279  1.8146  0.0228  0.4582
  612MOL0     H82589   2.595   7.794   6.239 -2.7101 -0.8585  3.8282
  612MOL0     H82590   2.377   7.710   6.126 -2.3074 -0.6618 -1.7668
  612MOL0     H82591   2.469   7.620   6.020 -4.4248  0.1483  2.2474
  612MOL0     H82592   2.493   7.912   6.049  0.2909 -0.3493  0.0925
  612MOL0     H82593   2.588   7.813   5.926  1.6589 -0.5641  1.4997
  612MOL0     H82594   2.294   7.897   5.954  0.4106  0.3363  1.5643
  612MOL0     H82595   2.332   7.773   5.846  3.7437 -1.7446  0.4544
  612MOL0     H82596   2.437   8.064   5.839 -3.3517  1.5965 -0.6583
  612MOL0     H82597   2.510   7.937   5.739 -0.4804  0.0052 -0.7612
  612MOL0     H82598   2.311   7.894   5.643  2.1158 -0.1004  0.3340
  612MOL0     H82599   2.362   8.052   5.593 -0.4837 -0.2496 -0.4847
  612MOL0     H82600   2.206   8.154   5.769  1.3426 -0.6943  3.5306
  612MOL0     H82601   2.139   8.001   5.791  3.1301 -1.1336 -0.4217
  612MOL0     H82602   2.724   7.667   6.489  0.5302 -1.0044 -0.3850
  612MOL0     H82603   2.797   7.866   6.627  0.5112 -1.5259  0.9265
  612MOL0     H82604   3.155   8.239   6.558  0.8933  1.8769 -0.5508
  612MOL0     H82605   3.258   8.439   6.666 -0.5129 -0.2750 -1.9561
  612MOL0     H82606   2.853  10.114   6.956  0.2112 -2.7900  0.4086
  612MOL0     H82607   2.811  10.274   7.126 -0.7412 -0.0060  0.7577
  612MOL0     H82608   2.501  10.700   7.198  0.2979 -1.2613 -0.8339
  612MOL0     H82609   2.401  10.845   7.354 -0.0104 -0.4533 -1.9205
  612MOL0     H82610   2.313  10.638   7.747 -0.3504  0.7745  1.0649
  612MOL0     H82611   2.402  10.790   7.767 -0.3320  2.7825 -0.9778
  612MOL0     H82612   2.167  10.901   7.763  1.8647  0.4096 -0.7712
  612MOL0     H82613   2.220  10.823   7.902 -0.9801 -0.5978  0.1567
  612MOL0     H82614   2.110  10.608   7.857 -1.6083 -1.4759  0.2997
  612MOL0     H82615   2.041  10.667   7.704  0.0424 -0.8046  0.6699
  612MOL0     H82616   1.922  10.848   7.833  1.2559  2.5856  2.4300
  612MOL0     H82617   2.001  10.781   7.977 -0.9115 -1.6760  0.9394
  612MOL0     H82618   1.649  10.537   7.888  0.8391 -2.7291 -3.1634
  612MOL0     H82619   2.312  10.488   7.597  0.8717 -0.4661 -0.1859
  612MOL0     H82620   2.419  10.356   7.423  4.6751 -0.2016 -0.4296
  613MOL0     O82621   0.845   1.629   4.134 -0.5774 -0.4376  0.3699
  613MOL0     C82622   0.951   1.613   4.072 -0.3091  0.9218  1.5452
  613MOL0     O82623   1.004   1.694   3.979 -0.3968 -0.3806  0.3620
  613MOL0     C82624   0.928   1.805   3.947  0.0515  1.3011 -0.4198
  613MOL0     C82625   0.857   1.813   3.819 -1.7603 -0.4661 -0.7617
  613MOL0     C82626   0.786   1.928   3.806  0.2362 -0.5526 -0.9389
  613MOL0     C82627   0.778   2.038   3.899  0.0446  0.3382  0.2790
  613MOL0     O82628   0.710   2.157   3.882 -0.2260 -0.1066 -0.5444
  613MOL0     C82629   0.634   2.188   3.765  1.0281  0.6860 -0.9682
  613MOL0     C82630   0.537   2.302   3.806 -0.5226 -0.4696  0.0863
  613MOL0     C82631   0.435   2.266   3.910  0.0033 -0.1748 -0.4957
  613MOL0     C82632   0.319   2.173   3.867 -0.2782  0.6977  0.2463
  613MOL0     C82633   0.222   2.138   3.981 -0.6096 -0.3709 -0.6157
  613MOL0     C82634   0.163   2.007   3.962  0.8227  0.1163 -0.4343
  613MOL0     C82635   0.070   1.966   4.075 -0.0747 -0.4305  0.5189
  613MOL0     C82636   0.152   1.887   4.179 -0.4555  0.2049 -0.3697
  613MOL0     N82637   0.079   1.848   4.302 -1.3150 -0.4356 -0.0079
  613MOL0     C82638  -0.018   1.750   4.298  0.4457 -0.4670 -0.8379
  613MOL0     C82639  -0.057   1.732   4.434 -0.5346 -0.2146 -0.5543
  613MOL0     C82640  -0.154   1.635   4.486 -0.5827 -0.9123 -0.4732
  613MOL0     C82641  -0.286   1.649   4.401  0.6218  0.3897 -0.5059
  613MOL0     C82642  -0.370   1.520   4.391 -0.5533  0.4515  0.8559
  613MOL0     C82643  -0.506   1.519   4.312  0.8282  0.1107  0.3388
  613MOL0     O82644  -0.472   1.596   4.201  0.0869 -0.0036  0.1260
  613MOL0     C82645  -0.578   1.637   4.117  0.1103  0.9236 -0.5839
  613MOL0     C82646  -0.711   1.637   4.153 -0.0585 -0.5140 -0.0881
  613MOL0     C82647  -0.797   1.706   4.072  0.2104  0.2917 -1.3464
  613MOL0     C82648  -0.941   1.716   4.119 -0.3537 -0.4942 -0.1234
  613MOL0     C82649  -0.750   1.762   3.952  0.5302  0.7602 -0.2978
  613MOL0     C82650  -0.834   1.840   3.865 -0.2171 -1.0063  0.2218
  613MOL0     O82651  -0.767   1.938   3.786 -0.5619 -0.3157  1.0973
  613MOL0     C82652  -0.856   2.014   3.712 -0.5133 -0.2771  0.0794
  613MOL0     C82653  -0.891   1.977   3.582 -0.5820  0.0331  0.4343
  613MOL0     C82654  -0.955   2.072   3.499 -0.7683  0.0953 -0.2174
  613MOL0     C82655  -1.009   2.191   3.553 -0.0616 -0.1193  0.2430
  613MOL0     O82656  -1.089   2.261   3.460 -0.5875 -0.2063 -1.1924
  613MOL0     C82657  -1.162   2.381   3.489  0.2627 -0.0815 -0.3764
  613MOL0     C82658  -1.175   2.463   3.363 -1.0159 -0.0043 -0.4938
  613MOL0     C82659  -1.278   2.578   3.377 -0.6604 -0.0035  0.6878
  613MOL0     C82660  -1.217   2.720   3.429  0.4061 -0.4704 -0.5351
  613MOL0     C82661  -1.300   2.839   3.394  0.2339  0.5149 -0.2598
  613MOL0     C82662  -1.291   2.880   3.242 -0.3651 -0.0012  0.4210
  613MOL0     C82663  -1.160   2.933   3.210 -1.1916  0.5327 -0.4506
  613MOL0     C82664  -1.166   2.994   3.060  0.1006 -0.2765 -0.1491
  613MOL0    Cl82665  -1.216   2.866   2.947  0.2588 -0.5859 -0.2766
  613MOL0     C82666  -0.979   2.222   3.689 -0.5321 -0.2659  0.2808
  613MOL0     C82667  -0.900   2.138   3.758  0.1643  0.6905  0.6366
  613MOL0     O82668  -0.955   1.830   3.859  1.3484  0.6388  0.0448
  613MOL0     C82669  -0.619   1.750   3.914  0.1098  0.6750  0.5416
  613MOL0     C82670  -0.534   1.686   3.996  0.3267  0.3591 -0.9313
  613MOL0     N82671   0.019   1.823   4.510 -0.3676 -0.1413 -1.0265
  613MOL0     N82672   0.110   1.884   4.431  0.0341  0.1643  0.0788
  613MOL0     C82673   0.837   2.015   4.022 -0.2801 -0.7023  0.9306
  613MOL0     C82674   0.910   1.901   4.048 -0.0907  0.3880  0.5738
  613MOL0     C82675   1.013   1.478   4.081  0.0259 -0.5017 -0.0443
  613MOL0     C82676   0.968   1.386   4.179  0.9340 -0.1087 -0.1265
  613MOL0     C82677   1.033   1.268   4.203 -0.3770  0.0140 -0.5758
  613MOL0     C82678   1.147   1.231   4.128  0.8609 -0.1309 -0.3212
  613MOL0     O82679   1.204   1.115   4.141  0.4383  0.5063 -0.4756
  613MOL0     C82680   1.241   1.085   4.270 -0.8276  0.3009  0.7213
  613MOL0     C82681   1.357   0.987   4.279 -0.9572 -0.2870 -0.5657
  613MOL0     C82682   1.351   0.862   4.191  0.3094 -0.5763  0.1150
  613MOL0     C82683   1.259   0.748   4.216 -0.4694 -1.0336 -0.6925
  613MOL0     C82684   1.119   0.781   4.187 -0.2917  0.0515  0.3458
  613MOL0     C82685   1.006   0.818   4.164  0.1906 -0.3544 -0.0155
  613MOL0     C82686   1.188   1.322   4.030 -0.1643  0.9964 -0.2589
  613MOL0     C82687   1.131   1.442   4.008  0.6706 -0.1910 -0.8977
  613MOL0     H82688   0.870   1.743   3.737 -0.8216 -0.3132 -0.7482
  613MOL0     H82689   0.749   1.942   3.705  1.4648 -1.0615 -1.4870
  613MOL0     H82690   0.690   2.209   3.673  1.9701  1.5696 -0.2251
  613MOL0     H82691   0.571   2.105   3.732  0.6054  1.1731 -1.4013
  613MOL0     H82692   0.601   2.377   3.851  1.4571 -0.7676 -2.0522
  613MOL0     H82693   0.497   2.343   3.713  0.7917 -0.0499 -0.3064
  613MOL0     H82694   0.485   2.217   3.994 -0.8486 -0.2320 -0.0043
  613MOL0     H82695   0.391   2.359   3.946 -1.5241 -0.5713 -1.2210
  613MOL0     H82696   0.272   2.212   3.777  1.8438  1.2652 -0.6907
  613MOL0     H82697   0.354   2.073   3.836 -2.2962 -0.0262  0.1775
  613MOL0     H82698   0.284   2.133   4.071 -0.0444 -0.0877 -0.9893
  613MOL0     H82699   0.145   2.215   3.988 -0.8854 -0.7031  0.1418
  613MOL0     H82700   0.104   2.009   3.870 -2.0256  1.3267  1.2659
  613MOL0     H82701   0.241   1.931   3.952  0.4773 -0.7209  2.3748
  613MOL0     H82702   0.009   2.050   4.109  1.0757 -0.1851  2.0953
  613MOL0     H82703   0.001   1.894   4.029 -2.8880  1.1156  2.0570
  613MOL0     H82704   0.250   1.925   4.210  0.8697 -2.8286 -0.4680
  613MOL0     H82705   0.176   1.790   4.135  1.9354 -0.6526  2.5445
  613MOL0     H82706  -0.060   1.691   4.218 -1.5504 -1.2095  0.6547
  613MOL0     H82707  -0.111   1.534   4.487  0.4263 -0.5994  3.4182
  613MOL0     H82708  -0.178   1.660   4.589 -1.9778  3.8022 -1.6930
  613MOL0     H82709  -0.275   1.697   4.304 -0.4780  1.2500 -0.2157
  613MOL0     H82710  -0.350   1.717   4.457 -2.8509 -2.4547 -0.6826
  613MOL0     H82711  -0.404   1.497   4.492 -2.0769 -2.3011 -0.1624
  613MOL0     H82712  -0.315   1.444   4.335 -3.6848 -1.4767  0.1218
  613MOL0     H82713  -0.580   1.573   4.372 -2.6827 -2.8344 -0.9367
  613MOL0     H82714  -0.551   1.421   4.291 -0.0494  0.1124  1.9714
  613MOL0     H82715  -0.749   1.601   4.249  2.6818 -2.1594  0.4762
  613MOL0     H82716  -0.948   1.716   4.228 -2.8410 -0.2048 -0.2285
  613MOL0     H82717  -0.966   1.821   4.103  2.7083  0.4633  0.6410
  613MOL0     H82718  -1.000   1.646   4.059  0.8583  0.4479 -2.5566
  613MOL0     H82719  -0.867   1.877   3.547  1.6203  0.4084  0.7857
  613MOL0     H82720  -0.974   2.053   3.394 -1.8425 -1.0135  0.1469
  613MOL0     H82721  -1.254   2.347   3.537  1.2509 -0.7588  1.1013
  613MOL0     H82722  -1.120   2.449   3.563  0.3854  1.5906 -1.9019
  613MOL0     H82723  -1.082   2.503   3.322 -0.8050  0.2397  0.2016
  613MOL0     H82724  -1.213   2.393   3.288 -1.6252 -0.4519  0.2145
  613MOL0     H82725  -1.358   2.546   3.445 -1.8625 -2.2223 -1.6086
  613MOL0     H82726  -1.327   2.594   3.280 -0.6471 -3.6350 -0.0492
  613MOL0     H82727  -1.219   2.725   3.538 -1.3090  2.2842 -0.5782
  613MOL0     H82728  -1.118   2.739   3.388  0.1902 -0.4597 -1.0648
  613MOL0     H82729  -1.268   2.923   3.457 -1.7936 -0.4601  2.2672
  613MOL0     H82730  -1.408   2.830   3.409 -0.0220 -0.0807 -2.1294
  613MOL0     H82731  -1.300   2.787   3.186  2.3987 -0.9731  1.4016
  613MOL0     H82732  -1.366   2.954   3.214 -0.1577 -0.3350 -1.1441
  613MOL0     H82733  -1.084   2.854   3.215 -0.3730  1.3534  1.1322
  613MOL0     H82734  -1.123   3.007   3.283 -1.3464  0.5211 -0.3598
  613MOL0     H82735  -1.061   3.017   3.041  1.2770 -2.9863  2.2894
  613MOL0     H82736  -1.227   3.082   3.037  3.0207  1.9766  0.1100
  613MOL0     H82737  -1.002   2.318   3.734 -1.3859 -1.2207  1.9641
  613MOL0     H82738  -0.893   2.145   3.866  2.4118  0.9708  0.5230
  613MOL0     H82739  -0.593   1.792   3.817  2.0789  0.0687  0.7788
  613MOL0     H82740  -0.427   1.675   3.977  0.5012 -0.9363  0.6446
  613MOL0     H82741   0.828   2.087   4.104 -2.8863  0.6314 -0.3944
  613MOL0     H82742   0.965   1.882   4.139  0.5184  0.2674  0.1881
  613MOL0     H82743   0.881   1.398   4.242 -0.4718 -1.2190 -1.7637
  613MOL0     H82744   1.004   1.204   4.285  1.6153 -1.0573 -0.6580
  613MOL0     H82745   1.274   1.173   4.326 -0.6155  0.0947  0.9247
  613MOL0     H82746   1.157   1.046   4.328 -0.2844  1.5107  2.4043
  613MOL0     H82747   1.383   0.944   4.377 -3.1994  0.1697  0.2949
  613MOL0     H82748   1.450   1.042   4.260  1.1835 -2.0592  3.4536
  613MOL0     H82749   1.456   0.832   4.191  0.9715  1.5128 -1.6000
  613MOL0     H82750   1.328   0.902   4.092  1.5853  1.4002  0.5572
  613MOL0     H82751   1.269   0.715   4.320 -1.0345 -1.4292 -0.7621
  613MOL0     H82752   1.280   0.670   4.142 -1.0583 -1.4753 -0.3961
  613MOL0     H82753   0.903   0.844   4.148  0.6219  2.3171  1.0200
  613MOL0     H82754   1.279   1.313   3.972 -0.5638 -1.0809 -0.6312
  613MOL0     H82755   1.184   1.514   3.946  1.2640 -1.1609 -1.5474
  614MOL0     O82756   0.135   7.133   8.397 -0.4842 -1.1220  0.0048
  614MOL0     C82757   0.175   7.062   8.306 -1.1697 -0.4105  0.6496
  614MOL0     O82758   0.209   6.932   8.319 -0.5508  0.6344 -0.4941
  614MOL0     C82759   0.220   6.879   8.447 -0.3616 -0.1277  0.3138
  614MOL0     C82760   0.348   6.842   8.504  0.7795 -0.6086 -0.5665
  614MOL0     C82761   0.359   6.804   8.639 -0.3157 -0.5448 -0.0229
  614MOL0     C82762   0.239   6.795   8.713  0.0520  0.1572 -0.3028
  614MOL0     O82763   0.252   6.759   8.849 -0.2403 -1.6205 -0.2011
  614MOL0     C82764   0.309   6.634   8.873 -0.1242 -0.4369 -0.2396
  614MOL0     C82765   0.341   6.617   9.026 -0.2258 -0.2288  0.1689
  614MOL0     C82766   0.469   6.702   9.055  1.2817 -0.0203 -1.4619
  614MOL0     C82767   0.497   6.723   9.207  0.1016 -0.4706  0.5400
  614MOL0     C82768   0.631   6.792   9.237 -0.1919  0.0911  0.2484
  614MOL0     C82769   0.676   6.787   9.386  0.5625 -1.2174  0.7469
  614MOL0     C82770   0.763   6.907   9.429  0.2575 -0.0426  0.1130
  614MOL0     C82771   0.792   6.905   9.584  0.0523 -0.2543 -0.0899
  614MOL0     N82772   0.897   6.817   9.615  0.0938  0.4778 -0.2467
  614MOL0     C82773   0.872   6.685   9.658  0.5000 -0.2966 -0.5313
  614MOL0     C82774   1.000   6.642   9.678  0.2548 -0.4132  0.8013
  614MOL0     C82775   1.029   6.505   9.726  0.4429  0.0382 -0.6229
  614MOL0     C82776   1.117   6.509   9.856  0.4891  0.1649  1.6431
  614MOL0     C82777   1.110   6.380   9.937 -0.1026 -0.5353 -0.7852
  614MOL0     C82778   1.188   6.275   9.865 -0.4741  0.3017  0.5914
  614MOL0     O82779   1.141   6.158   9.943 -0.3832 -0.4815 -0.2204
  614MOL0     C82780   1.229   6.055   9.929  0.2444  1.5733  0.3739
  614MOL0     C82781   1.167   5.930   9.889  0.4886  0.2597 -0.4563
  614MOL0     C82782   1.244   5.809   9.876 -0.4682 -0.9523 -0.6956
  614MOL0     C82783   1.186   5.684   9.826 -0.2450  0.2985 -0.3763
  614MOL0     C82784   1.378   5.819   9.930  0.5713 -0.0899  0.0201
  614MOL0     C82785   1.461   5.697   9.939  0.2421 -0.0954  0.6857
  614MOL0     O82786   1.537   5.683  10.048 -0.2031  0.8030  0.4538
  614MOL0     C82787   1.619   5.577  10.070  0.2196  0.8477 -0.2000
  614MOL0     C82788   1.750   5.608  10.104 -0.0175  0.8328 -0.2922
  614MOL0     C82789   1.838   5.496  10.127 -0.4623  0.6004 -0.0132
  614MOL0     C82790   1.797   5.359  10.119 -0.5276 -0.4851  0.0419
  614MOL0     O82791   1.875   5.251  10.144 -0.4716  0.0553  0.1316
  614MOL0     C82792   1.976   5.238  10.046  0.6301 -0.0594 -0.1237
  614MOL0     C82793   2.049   5.107  10.083  1.0219 -0.0135  0.2825
  614MOL0     C82794   1.961   4.983  10.118  0.0635  0.1852 -0.3878
  614MOL0     C82795   1.883   4.920  10.000  0.5819  0.4777  0.6343
  614MOL0     C82796   1.979   4.833   9.923  0.4272  0.7167 -0.7133
  614MOL0     C82797   1.989   4.691  10.000 -0.4695  0.2902  0.1977
  614MOL0     C82798   2.113   4.604   9.966 -0.3284 -0.1892  0.5181
  614MOL0     C82799   2.127   4.458  10.025  0.2310 -0.2332  1.5507
  614MOL0    Cl82800   2.105   4.475  10.202  0.2259  0.1678  0.2113
  614MOL0     C82801   1.662   5.338  10.088  0.5816  0.2710  0.1975
  614MOL0     C82802   1.578   5.449  10.067  0.5423  0.6196 -0.2473
  614MOL0     O82803   1.471   5.625   9.839 -0.4425  0.3696  0.3039
  614MOL0     C82804   1.440   5.941   9.977  0.7886 -0.2539 -0.0940
  614MOL0     C82805   1.365   6.059   9.970  0.3366 -0.5507 -0.0893
  614MOL0     N82806   1.091   6.735   9.632 -0.1068 -0.2313  0.9648
  614MOL0     N82807   1.025   6.845   9.596 -1.2480 -0.4051 -1.0544
  614MOL0     C82808   0.118   6.824   8.659  0.4711  0.4734 -0.5499
  614MOL0     C82809   0.105   6.855   8.526  0.2014  0.6453 -0.3811
  614MOL0     C82810   0.172   7.120   8.171  0.0383 -0.5143  0.7449
  614MOL0     C82811   0.209   7.045   8.059 -0.2818  0.5341  0.0467
  614MOL0     C82812   0.204   7.096   7.934  0.6932 -0.8938  0.4237
  614MOL0     C82813   0.133   7.225   7.910  0.2760 -0.8776  0.6681
  614MOL0     O82814   0.108   7.252   7.780  0.3121 -0.1221 -0.0349
  614MOL0     C82815   0.199   7.350   7.729  0.2436 -0.7405 -0.2070
  614MOL0     C82816   0.143   7.458   7.642 -0.1819 -0.5516  0.3728
  614MOL0     C82817   0.231   7.499   7.518  0.8133  0.2910  0.5637
  614MOL0     C82818   0.225   7.407   7.394  0.4758  0.8965  0.1655
  614MOL0     C82819   0.301   7.460   7.278  0.5868 -0.2119 -0.5332
  614MOL0     C82820   0.363   7.523   7.189 -0.2075 -0.1380 -1.0928
  614MOL0     C82821   0.085   7.300   8.017 -0.3886  0.3243 -0.6655
  614MOL0     C82822   0.107   7.239   8.142  0.2530 -0.1606 -0.0731
  614MOL0     H82823   0.441   6.851   8.448 -0.0678 -1.9025 -2.2871
  614MOL0     H82824   0.450   6.787   8.695 -0.7734 -1.3579  0.5000
  614MOL0     H82825   0.239   6.563   8.827  0.7747 -1.0150 -0.7523
  614MOL0     H82826   0.402   6.632   8.815 -0.8481 -3.2511 -1.5010
  614MOL0     H82827   0.254   6.659   9.078 -0.7226 -0.1686 -0.6987
  614MOL0     H82828   0.361   6.512   9.050 -0.9223 -0.4091 -0.0328
  614MOL0     H82829   0.552   6.656   9.002  2.4255  0.8401 -0.4739
  614MOL0     H82830   0.465   6.800   9.007 -1.0218  0.0535 -1.2571
  614MOL0     H82831   0.421   6.787   9.252  0.8015  1.2520 -0.6387
  614MOL0     H82832   0.489   6.633   9.268 -1.1414 -1.8835 -1.5538
  614MOL0     H82833   0.720   6.752   9.187 -1.0410 -2.8333  0.8887
  614MOL0     H82834   0.600   6.892   9.205 -1.4908  0.5826  2.7324
  614MOL0     H82835   0.585   6.795   9.446  0.8279 -1.7314  1.2167
  614MOL0     H82836   0.729   6.693   9.401  1.9840 -0.5171  0.2561
  614MOL0     H82837   0.863   6.905   9.385 -0.1875 -2.5704 -1.0154
  614MOL0     H82838   0.710   6.996   9.395 -1.7067 -1.1237  0.2040
  614MOL0     H82839   0.701   6.890   9.642 -0.6051  0.2092 -0.9670
  614MOL0     H82840   0.825   7.009   9.585 -1.6579  0.3253 -0.5661
  614MOL0     H82841   0.780   6.631   9.679 -0.6887  1.4872 -0.8979
  614MOL0     H82842   0.933   6.452   9.733  0.3370 -0.8221 -5.3125
  614MOL0     H82843   1.067   6.442   9.646 -3.3855 -2.0669 -1.0587
  614MOL0     H82844   1.089   6.595   9.918 -2.0968 -0.3682  1.3119
  614MOL0     H82845   1.219   6.535   9.826 -0.0871  0.0144 -0.5923
  614MOL0     H82846   1.007   6.343   9.944 -0.9010  1.8161  2.0313
  614MOL0     H82847   1.157   6.403  10.033 -0.3478 -1.0579 -0.5377
  614MOL0     H82848   1.297   6.283   9.864 -0.1033 -3.0630 -1.8610
  614MOL0     H82849   1.155   6.265   9.762 -0.5123  1.5796  0.4584
  614MOL0     H82850   1.060   5.917   9.874  0.1336 -2.5770  3.1994
  614MOL0     H82851   1.225   5.675   9.724  2.4735  5.0865 -0.0488
  614MOL0     H82852   1.203   5.597   9.890  1.3503 -0.1662 -1.3790
  614MOL0     H82853   1.079   5.699   9.808 -0.7456 -2.1691  0.0835
  614MOL0     H82854   1.791   5.708  10.096  1.1279  0.4319  0.3796
  614MOL0     H82855   1.942   5.520  10.148 -0.7694  0.5460  1.7166
  614MOL0     H82856   1.933   5.219   9.947 -3.0418  1.8231  0.9647
  614MOL0     H82857   2.045   5.323  10.048 -1.0463  1.3252  0.3972
  614MOL0     H82858   2.128   5.091  10.009 -0.2298  1.2872 -1.4308
  614MOL0     H82859   2.114   5.125  10.169  2.2380 -1.7706 -0.2066
  614MOL0     H82860   1.889   5.002  10.198 -0.1722 -2.7296  0.2017
  614MOL0     H82861   2.021   4.911  10.173  0.5119  0.1712 -0.8979
  614MOL0     H82862   1.798   4.858  10.030  1.7001 -1.8484 -0.7297
  614MOL0     H82863   1.854   5.001   9.932  3.2156 -0.9774 -2.5008
  614MOL0     H82864   2.079   4.875   9.907  1.1650 -0.9067 -0.5711
  614MOL0     H82865   1.948   4.808   9.821 -0.1013  0.8723 -0.5907
  614MOL0     H82866   2.005   4.690  10.108  2.5531 -2.0162 -0.1490
  614MOL0     H82867   1.894   4.636   9.992 -0.1590 -0.3071  0.5141
  614MOL0     H82868   2.202   4.652  10.007  0.1424 -1.6366  1.2795
  614MOL0     H82869   2.112   4.596   9.857 -2.6509  0.1596  0.4614
  614MOL0     H82870   2.224   4.424   9.988 -0.6844 -0.2171 -1.0411
  614MOL0     H82871   2.049   4.399   9.977  0.4030  2.3145 -2.2413
  614MOL0     H82872   1.635   5.233  10.080  2.3726 -0.2992  1.1937
  614MOL0     H82873   1.473   5.425  10.057  0.9457 -1.6393  0.2754
  614MOL0     H82874   1.540   5.957  10.017  0.8135 -0.6377  0.0033
  614MOL0     H82875   1.406   6.156   9.996 -0.5814  0.6893 -2.9495
  614MOL0     H82876   0.032   6.830   8.725 -1.5280  0.3083 -2.9834
  614MOL0     H82877   0.007   6.868   8.481 -0.2458 -1.7918 -0.2126
  614MOL0     H82878   0.246   6.943   8.069  0.7506  0.6494 -1.9448
  614MOL0     H82879   0.249   7.051   7.846 -0.7995  0.6914 -1.2622
  614MOL0     H82880   0.259   7.396   7.808  1.0305  0.3833 -1.4202
  614MOL0     H82881   0.269   7.290   7.671  2.0062  2.3940 -1.5833
  614MOL0     H82882   0.122   7.539   7.713 -0.0335 -3.2802  3.7803
  614MOL0     H82883   0.040   7.427   7.620 -1.7259  1.5988  3.8027
  614MOL0     H82884   0.334   7.498   7.556  0.7216 -3.2934  0.9865
  614MOL0     H82885   0.203   7.591   7.466  1.9973 -0.5761 -1.7309
  614MOL0     H82886   0.119   7.403   7.368  0.6311  0.1129 -0.3766
  614MOL0     H82887   0.265   7.306   7.409  0.1191  0.5887 -0.8567
  614MOL0     H82888   0.419   7.577   7.116  1.1077  2.3457  1.5489
  614MOL0     H82889   0.030   7.392   8.001 -1.3103  0.0697  0.8805
  614MOL0     H82890   0.058   7.275   8.232 -1.5794 -2.4949 -0.0279
  615MOL0     O82891   0.609   3.689   6.818  0.3121 -0.6150 -0.1114
  615MOL0     C82892   0.524   3.648   6.738  0.0267 -0.8865 -0.0391
  615MOL0     O82893   0.550   3.580   6.628  0.6521  0.1339 -0.1582
  615MOL0     C82894   0.679   3.537   6.599 -0.6995 -0.0379 -0.8388
  615MOL0     C82895   0.806   3.550   6.670  0.0289  0.1463 -0.3740
  615MOL0     C82896   0.926   3.506   6.617 -0.3717  0.4287  0.8391
  615MOL0     C82897   0.936   3.443   6.494 -0.3661 -0.0238 -1.0520
  615MOL0     O82898   1.062   3.397   6.464 -0.8388 -0.4514 -0.0714
  615MOL0     C82899   1.078   3.333   6.334 -0.2514 -0.4439 -0.1059
  615MOL0     C82900   1.223   3.306   6.307  0.1986  1.1533  0.7182
  615MOL0     C82901   1.286   3.210   6.407 -0.4994  0.1859  1.1559
  615MOL0     C82902   1.437   3.210   6.374  0.6992  0.1327 -0.4302
  615MOL0     C82903   1.531   3.105   6.450  0.2244  0.3676  0.9883
  615MOL0     C82904   1.666   3.087   6.376  0.8973  0.4395  0.5759
  615MOL0     C82905   1.782   3.008   6.445  0.9870  0.0606  1.4208
  615MOL0     C82906   1.744   2.861   6.449 -1.3255 -0.1076  0.5595
  615MOL0     N82907   1.863   2.765   6.425 -0.2461  0.6848 -0.6233
  615MOL0     C82908   1.852   2.650   6.354 -0.4598  0.2865  0.2627
  615MOL0     C82909   1.986   2.605   6.340  0.4369  0.3162 -0.6069
  615MOL0     C82910   2.019   2.481   6.264 -0.0156 -0.3347  0.9362
  615MOL0     C82911   1.949   2.482   6.129  0.8081 -0.6420  0.2209
  615MOL0     C82912   2.004   2.589   6.025  0.0989  0.2454 -0.6448
  615MOL0     C82913   2.151   2.565   5.972 -0.0615 -0.1933  0.9502
  615MOL0     O82914   2.204   2.656   5.867 -0.4468  0.4594 -0.2090
  615MOL0     C82915   2.307   2.734   5.884 -0.6995 -0.1129 -0.3460
  615MOL0     C82916   2.326   2.833   5.782  0.3981  0.6926 -0.6902
  615MOL0     C82917   2.426   2.938   5.795  0.5204  0.7396 -1.2021
  615MOL0     C82918   2.428   3.038   5.678 -0.7426  0.5832 -0.6338
  615MOL0     C82919   2.516   2.927   5.905 -0.1226  0.5788  0.3100
  615MOL0     C82920   2.634   3.025   5.917 -1.0075 -0.4229 -0.1740
  615MOL0     O82921   2.701   3.069   5.806  0.9969  0.0723  0.4583
  615MOL0     C82922   2.789   3.171   5.811 -0.3318 -0.6724  0.0558
  615MOL0     C82923   2.885   3.181   5.908  0.6372  0.4839 -0.4385
  615MOL0     C82924   2.971   3.289   5.907  0.0412 -1.1655 -0.3504
  615MOL0     C82925   2.964   3.389   5.805 -0.2020  0.2589  0.5903
  615MOL0     O82926   3.051   3.499   5.819  0.5408 -0.5142 -0.0421
  615MOL0     C82927   2.999   3.620   5.752  0.0973 -1.0486 -0.1979
  615MOL0     C82928   3.081   3.743   5.805  0.7572 -0.2812 -0.6498
  615MOL0     C82929   3.233   3.692   5.800  0.7741 -0.5173  0.1876
  615MOL0     C82930   3.318   3.821   5.814  0.2104 -0.7221  0.0491
  615MOL0     C82931   3.465   3.787   5.787  0.0939  0.5052 -0.0101
  615MOL0     C82932   3.495   3.738   5.643 -1.2305 -0.1867 -0.9973
  615MOL0     C82933   3.643   3.742   5.615  0.1949  0.1447 -0.3804
  615MOL0     C82934   3.671   3.870   5.551 -0.3288  0.3693 -0.2973
  615MOL0    Cl82935   3.834   3.869   5.491 -0.7165  0.4152  0.0561
  615MOL0     C82936   2.865   3.373   5.709  0.0406  0.0764 -0.1567
  615MOL0     C82937   2.770   3.271   5.713 -0.0830 -0.4712 -0.2252
  615MOL0     O82938   2.664   3.057   6.033 -0.0105  0.0844  0.2651
  615MOL0     C82939   2.497   2.831   6.002  0.2051  0.4094  0.0494
  615MOL0     C82940   2.399   2.732   5.995  0.6964 -0.5497  0.4901
  615MOL0     N82941   2.069   2.693   6.409  0.5488  0.2979  0.0262
  615MOL0     N82942   1.994   2.791   6.444  0.5154  0.0968  0.5412
  615MOL0     C82943   0.819   3.421   6.431 -0.3526  0.8405 -0.9709
  615MOL0     C82944   0.697   3.473   6.474  0.2403 -0.3859  0.0850
  615MOL0     C82945   0.380   3.677   6.776 -0.8811  1.0614 -0.5717
  615MOL0     C82946   0.338   3.651   6.907  0.2464  0.7120  1.0437
  615MOL0     C82947   0.205   3.677   6.943 -0.0714  0.9862 -0.0577
  615MOL0     C82948   0.110   3.722   6.856  0.2299  1.2916  0.5203
  615MOL0     O82949  -0.015   3.728   6.910 -0.2005  0.2078  0.1234
  615MOL0     C82950  -0.021   3.851   6.983  0.7652  0.3779 -0.2561
  615MOL0     C82951  -0.159   3.844   7.064 -0.8669  0.8168  0.5456
  615MOL0     C82952  -0.280   3.843   6.973  0.5380  0.4501 -0.1946
  615MOL0     C82953  -0.404   3.890   7.052  0.9616  0.5038  0.6999
  615MOL0     C82954  -0.510   3.906   6.949 -0.1393  0.1090  0.3870
  615MOL0     C82955  -0.580   3.910   6.846 -0.2680 -0.0599 -1.2708
  615MOL0     C82956   0.152   3.755   6.726 -0.1918 -0.5591 -0.3567
  615MOL0     C82957   0.289   3.736   6.689  0.5020  0.1764  0.1873
  615MOL0     H82958   0.827   3.595   6.766  1.9675  1.8871 -1.5147
  615MOL0     H82959   1.015   3.543   6.667 -0.8797  3.7079 -0.4406
  615MOL0     H82960   1.017   3.243   6.329  0.4653 -0.8586 -3.2482
  615MOL0     H82961   1.040   3.395   6.252 -1.8071  0.8059  1.4802
  615MOL0     H82962   1.227   3.261   6.207 -3.4681 -1.6755  1.6333
  615MOL0     H82963   1.272   3.404   6.311 -0.0222  1.3359 -0.6885
  615MOL0     H82964   1.263   3.245   6.509  0.4749  1.7229  0.8917
  615MOL0     H82965   1.251   3.109   6.388  1.7188 -0.4364  0.1406
  615MOL0     H82966   1.437   3.193   6.266 -0.7047 -0.4609 -0.3665
  615MOL0     H82967   1.473   3.310   6.396  2.3882  0.2593 -3.3302
  615MOL0     H82968   1.552   3.132   6.554 -2.2367  1.0458  1.3714
  615MOL0     H82969   1.487   3.006   6.457  2.0367 -0.5399  0.1979
  615MOL0     H82970   1.644   3.044   6.278  2.6555 -0.6089  0.6030
  615MOL0     H82971   1.697   3.190   6.357  1.7692 -0.2185 -1.9870
  615MOL0     H82972   1.870   3.013   6.380 -1.3127 -0.8605 -2.0138
  615MOL0     H82973   1.804   3.049   6.544  3.8200 -0.2979  1.0197
  615MOL0     H82974   1.670   2.853   6.370  0.0385  3.2944 -1.2670
  615MOL0     H82975   1.696   2.852   6.547 -2.8308 -0.4950 -0.1836
  615MOL0     H82976   1.764   2.601   6.315  1.8345 -4.2209  0.1830
  615MOL0     H82977   2.123   2.450   6.256 -0.3442 -1.2401 -0.2793
  615MOL0     H82978   1.971   2.404   6.326  1.3099 -1.2231  0.9004
  615MOL0     H82979   1.845   2.510   6.149  0.5048 -0.5668 -1.3239
  615MOL0     H82980   1.937   2.379   6.095 -0.6964 -0.2045 -0.6486
  615MOL0     H82981   2.007   2.687   6.072 -1.7345  0.2253 -0.4244
  615MOL0     H82982   1.934   2.594   5.941 -0.4346 -2.1134 -0.4300
  615MOL0     H82983   2.142   2.470   5.918  0.9478 -1.3643  2.7489
  615MOL0     H82984   2.225   2.547   6.050  1.4822  1.5850 -0.0304
  615MOL0     H82985   2.252   2.828   5.703  1.1744 -2.3943 -1.3781
  615MOL0     H82986   2.344   3.007   5.616 -1.0203  0.7547 -0.3506
  615MOL0     H82987   2.397   3.137   5.714 -1.1467 -0.0861  0.9332
  615MOL0     H82988   2.519   3.021   5.620  1.0682 -3.8995  2.8481
  615MOL0     H82989   2.880   3.106   5.986  0.7816  0.6091 -0.3085
  615MOL0     H82990   3.040   3.308   5.989  0.1358 -0.2525 -0.6241
  615MOL0     H82991   3.001   3.635   5.643 -3.1813  1.0212 -0.1326
  615MOL0     H82992   2.894   3.629   5.781 -0.1584  1.4800 -1.5972
  615MOL0     H82993   3.046   3.832   5.753 -1.7979 -0.0563  1.2693
  615MOL0     H82994   3.062   3.762   5.911 -1.0530 -0.3738 -0.9287
  615MOL0     H82995   3.235   3.641   5.703 -2.2732 -0.7974  0.1645
  615MOL0     H82996   3.254   3.612   5.871 -0.4404 -1.5626 -0.5776
  615MOL0     H82997   3.285   3.891   5.737  0.1752 -2.1748 -1.3074
  615MOL0     H82998   3.316   3.871   5.911  2.3762  2.4603 -1.3424
  615MOL0     H82999   3.507   3.708   5.850 -1.1481 -1.4344 -1.4827
  615MOL0     H83000   3.506   3.887   5.804  0.3823  0.5122 -0.7094
  615MOL0     H83001   3.473   3.632   5.630  1.0299 -0.8658  0.1812
  615MOL0     H83002   3.442   3.800   5.570 -0.7273  0.2444 -1.0015
  615MOL0     H83003   3.667   3.662   5.545 -0.2016  0.7696 -1.2463
  615MOL0     H83004   3.706   3.732   5.704 -2.4728  1.9224  1.9035
  615MOL0     H83005   3.652   3.954   5.619  1.5133  0.0772  0.6354
  615MOL0     H83006   3.613   3.865   5.458  0.9505 -1.3311 -1.0627
  615MOL0     H83007   2.850   3.445   5.629 -0.6686 -1.6965 -1.6997
  615MOL0     H83008   2.681   3.262   5.652 -0.3892  0.3196  0.0874
  615MOL0     H83009   2.567   2.825   6.085  1.6206 -0.5801 -1.1422
  615MOL0     H83010   2.402   2.656   6.072  0.3271 -0.0035  1.0562
  615MOL0     H83011   0.824   3.372   6.334  1.1985 -0.9869 -0.0161
  615MOL0     H83012   0.604   3.475   6.418  1.4482 -0.5582 -2.0271
  615MOL0     H83013   0.404   3.592   6.970 -3.9642 -1.1861  4.1678
  615MOL0     H83014   0.165   3.637   7.036  0.2702  1.8756  0.4775
  615MOL0     H83015   0.063   3.862   7.052  3.0115 -0.0507 -2.7292
  615MOL0     H83016  -0.014   3.944   6.925 -0.0986  0.6882  0.1205
  615MOL0     H83017  -0.166   3.942   7.113 -1.1516  1.5419 -0.9039
  615MOL0     H83018  -0.158   3.756   7.129  1.8549 -0.4049 -0.9499
  615MOL0     H83019  -0.300   3.746   6.926 -1.5820  1.1527 -0.8397
  615MOL0     H83020  -0.258   3.903   6.884 -2.4544  1.8517 -0.0818
  615MOL0     H83021  -0.394   3.990   7.095 -1.3691  0.7859  0.7369
  615MOL0     H83022  -0.442   3.822   7.130 -0.8781  0.6295 -0.0439
  615MOL0     H83023  -0.624   3.920   6.749 -0.7984 -1.6012 -1.2242
  615MOL0     H83024   0.080   3.793   6.654 -0.3220 -2.4425 -1.2767
  615MOL0     H83025   0.311   3.766   6.587  2.7106 -0.7753  0.3353
  616MOL0     O83026   2.860   5.497   1.781 -0.7204  0.0431 -0.3748
  616MOL0     C83027   2.767   5.571   1.742  0.0791  0.0969  0.1594
  616MOL0     O83028   2.749   5.620   1.613  0.4816 -0.2967 -0.1379
  616MOL0     C83029   2.808   5.569   1.504 -0.5092  0.4072 -0.3181
  616MOL0     C83030   2.834   5.434   1.480  0.0272  0.2944  0.0034
  616MOL0     C83031   2.909   5.393   1.364  0.5521  0.5779  0.3518
  616MOL0     C83032   2.962   5.487   1.284 -0.4463 -0.9230  0.2852
  616MOL0     O83033   3.072   5.455   1.206  0.2474  0.2877  0.3234
  616MOL0     C83034   3.066   5.512   1.071 -0.0802 -0.2783 -0.7343
  616MOL0     C83035   3.187   5.603   1.041  0.6338 -0.0601 -0.5545
  616MOL0     C83036   3.204   5.651   0.899  0.2179  0.2395 -0.3985
  616MOL0     C83037   3.354   5.664   0.875  0.2975 -0.4737 -0.3240
  616MOL0     C83038   3.375   5.751   0.748 -0.7029 -0.0994 -0.6577
  616MOL0     C83039   3.509   5.718   0.685  0.7242  0.3211 -1.0162
  616MOL0     C83040   3.548   5.811   0.575 -0.4522 -0.9303 -0.1584
  616MOL0     C83041   3.695   5.806   0.547 -0.0144 -0.5438 -0.1588
  616MOL0     N83042   3.727   5.685   0.468  0.0933 -0.0781 -0.0328
  616MOL0     C83043   3.694   5.670   0.335  0.3742  0.9807  0.1670
  616MOL0     C83044   3.736   5.539   0.313 -0.6052 -0.0832 -0.1061
  616MOL0     C83045   3.747   5.479   0.174  0.0510  0.4886  0.5359
  616MOL0     C83046   3.869   5.526   0.094  0.1136  0.1887  1.1771
  616MOL0     C83047   3.896   5.452  -0.032  0.3700 -0.5478  0.3352
  616MOL0     C83048   3.782   5.440  -0.127  1.4103  0.0345  0.0079
  616MOL0     O83049   3.818   5.386  -0.255  0.8334  0.2151 -0.0982
  616MOL0     C83050   3.821   5.250  -0.256 -0.1785  0.1113  0.3472
  616MOL0     C83051   3.935   5.175  -0.225 -1.0192  0.0900 -0.0541
  616MOL0     C83052   3.937   5.032  -0.219  1.1065  0.6973  0.4564
  616MOL0     C83053   4.063   4.964  -0.214 -0.0040  0.7764 -0.0411
  616MOL0     C83054   3.813   4.962  -0.228  0.2536 -0.1892  0.3551
  616MOL0     C83055   3.801   4.810  -0.217 -0.0510 -0.1994 -0.2631
  616MOL0     O83056   3.670   4.759  -0.193 -0.1889 -0.4119 -0.6967
  616MOL0     C83057   3.649   4.619  -0.188 -0.1125 -0.8725 -0.2272
  616MOL0     C83058   3.630   4.559  -0.066 -0.6614 -0.2278 -0.1050
  616MOL0     C83059   3.601   4.415  -0.072  0.7268  0.4830 -0.5546
  616MOL0     C83060   3.596   4.333  -0.189  0.7837  0.2769 -0.2829
  616MOL0     O83061   3.550   4.206  -0.181  0.1342  0.2737 -0.1940
  616MOL0     C83062   3.529   4.123  -0.297 -0.0998 -0.0579 -0.3022
  616MOL0     C83063   3.636   4.011  -0.291  1.2491 -0.1156 -0.2334
  616MOL0     C83064   3.784   4.052  -0.333 -1.1143 -0.1918 -0.4522
  616MOL0     C83065   3.869   3.929  -0.348  0.1354 -0.2193  0.2028
  616MOL0     C83066   4.015   3.961  -0.355 -0.6782  0.2463  0.0622
  616MOL0     C83067   4.071   4.032  -0.473 -0.3896 -0.7880  0.4890
  616MOL0     C83068   4.066   3.957  -0.602 -0.9424 -0.4902 -0.2996
  616MOL0     C83069   4.092   4.061  -0.710 -0.5014  0.1088 -0.1515
  616MOL0    Cl83070   4.252   4.130  -0.711 -0.6429  0.2755 -0.3321
  616MOL0     C83071   3.624   4.406  -0.302 -0.1138  0.4390 -0.2879
  616MOL0     C83072   3.644   4.541  -0.303 -0.3496  0.1646 -0.5162
  616MOL0     O83073   3.898   4.732  -0.242 -0.0257 -0.2180 -0.5254
  616MOL0     C83074   3.698   5.034  -0.251 -0.6839  0.1038 -0.0029
  616MOL0     C83075   3.699   5.171  -0.280 -0.9019  1.1312  0.0809
  616MOL0     N83076   3.800   5.487   0.424  0.3817  0.1856 -0.1796
  616MOL0     N83077   3.796   5.575   0.517  0.8736 -0.2687  0.0979
  616MOL0     C83078   2.911   5.615   1.294 -0.1940  0.2110  0.5824
  616MOL0     C83079   2.856   5.663   1.408 -0.4487 -0.1346  0.1233
  616MOL0     C83080   2.682   5.627   1.837  0.2602 -0.0075 -1.3021
  616MOL0     C83081   2.558   5.685   1.791 -0.1889  1.1972 -0.8132
  616MOL0     C83082   2.470   5.755   1.883 -0.1637  0.2302  0.1196
  616MOL0     C83083   2.498   5.767   2.011 -0.1707  0.0853  0.1557
  616MOL0     O83084   2.401   5.814   2.093 -0.4175  0.1156 -0.4167
  616MOL0     C83085   2.436   5.920   2.179 -0.6025 -0.7218  0.4636
  616MOL0     C83086   2.338   5.949   2.298  0.0146  0.8549  0.6095
  616MOL0     C83087   2.386   6.072   2.376  0.0742  0.0846  0.0212
  616MOL0     C83088   2.295   6.101   2.492 -1.0893 -0.0306  0.2686
  616MOL0     C83089   2.289   6.239   2.534 -0.0605 -0.1554  0.2806
  616MOL0     C83090   2.280   6.358   2.557 -0.4260  0.0509 -0.3920
  616MOL0     C83091   2.619   5.715   2.059  0.3804 -0.2293 -0.1606
  616MOL0     C83092   2.711   5.647   1.976  0.2316  0.4167  1.2753
  616MOL0     H83093   2.785   5.355   1.536 -1.0909  0.6122 -0.5079
  616MOL0     H83094   2.935   5.288   1.360  1.9243  0.9322 -0.3979
  616MOL0     H83095   3.082   5.423   1.008  0.6789  0.9960 -2.4385
  616MOL0     H83096   2.973   5.566   1.050  0.7438  1.5129  0.0137
  616MOL0     H83097   3.174   5.702   1.085  0.6376 -0.1717 -0.3004
  616MOL0     H83098   3.279   5.554   1.074 -0.4564 -1.0093  1.3113
  616MOL0     H83099   3.170   5.576   0.827  0.3700 -1.4972  1.2695
  616MOL0     H83100   3.148   5.744   0.884 -0.4792  0.6528  3.6591
  616MOL0     H83101   3.395   5.708   0.966  1.2880 -2.9630  0.5207
  616MOL0     H83102   3.394   5.564   0.860 -0.7055 -0.7213 -1.5120
  616MOL0     H83103   3.294   5.711   0.686  1.4720 -1.2143 -2.9338
  616MOL0     H83104   3.370   5.859   0.766  0.9904  0.6784 -3.9789
  616MOL0     H83105   3.576   5.725   0.772 -2.2941 -1.8539  1.7408
  616MOL0     H83106   3.505   5.617   0.645 -1.0909  1.1801 -3.1713
  616MOL0     H83107   3.490   5.782   0.487  0.9693 -0.5523 -1.2720
  616MOL0     H83108   3.520   5.916   0.587 -0.2158 -0.9175  0.3022
  616MOL0     H83109   3.736   5.829   0.646 -1.2003  0.2286  0.1685
  616MOL0     H83110   3.713   5.888   0.476  2.0247 -1.5866 -0.9474
  616MOL0     H83111   3.640   5.736   0.268 -3.1536 -2.2621 -0.5602
  616MOL0     H83112   3.763   5.371   0.183  4.3251  1.0794  2.8787
  616MOL0     H83113   3.659   5.508   0.116  0.1925  0.4116  0.2828
  616MOL0     H83114   3.959   5.517   0.155  1.0203 -1.3029 -0.3012
  616MOL0     H83115   3.860   5.631   0.064  0.1014 -0.5199 -1.5058
  616MOL0     H83116   3.931   5.350  -0.011  0.5745 -0.1881  1.8668
  616MOL0     H83117   3.981   5.503  -0.079  0.0334 -1.4216 -1.2959
  616MOL0     H83118   3.754   5.542  -0.155  0.7415 -0.5016 -1.3926
  616MOL0     H83119   3.709   5.381  -0.070  3.3287 -1.6024  0.8715
  616MOL0     H83120   4.020   5.241  -0.211 -1.0072 -0.4733  3.2242
  616MOL0     H83121   4.061   4.910  -0.118 -2.3874  0.7683 -0.0197
  616MOL0     H83122   4.074   4.894  -0.297 -1.3464  0.9862 -0.4254
  616MOL0     H83123   4.145   5.035  -0.216  1.9077 -1.3266 -1.2039
  616MOL0     H83124   3.625   4.620   0.023 -1.9766  0.4416 -0.6035
  616MOL0     H83125   3.586   4.355   0.017 -0.8679  0.7261 -0.6150
  616MOL0     H83126   3.433   4.070  -0.294  0.6962 -1.5826 -0.5662
  616MOL0     H83127   3.531   4.175  -0.393 -1.9917  1.3799  0.3736
  616MOL0     H83128   3.648   3.956  -0.198 -0.0266 -0.3542 -0.1947
  616MOL0     H83129   3.597   3.927  -0.350  1.0396 -1.5312  1.8194
  616MOL0     H83130   3.814   4.117  -0.250 -1.8790  0.6497 -0.8174
  616MOL0     H83131   3.783   4.117  -0.421 -1.5200  2.4381  1.3780
  616MOL0     H83132   3.845   3.857  -0.269  0.3451  1.2972  1.7295
  616MOL0     H83133   3.832   3.886  -0.441 -3.0515  2.4156  0.0719
  616MOL0     H83134   4.066   3.867  -0.333 -2.0372 -0.9426 -1.5406
  616MOL0     H83135   4.036   4.026  -0.270  3.1086 -0.5913 -0.0954
  616MOL0     H83136   4.021   4.129  -0.481  1.6653  0.3367  0.4166
  616MOL0     H83137   4.177   4.056  -0.460 -0.8348  1.3176  0.6347
  616MOL0     H83138   3.965   3.918  -0.618 -1.5650  0.8260  0.2340
  616MOL0     H83139   4.150   3.887  -0.604 -0.6079 -0.1070  0.0814
  616MOL0     H83140   4.022   4.145  -0.719 -1.6756 -0.8759 -0.4664
  616MOL0     H83141   4.091   4.004  -0.803 -3.3954  3.3013 -2.3279
  616MOL0     H83142   3.626   4.361  -0.401 -2.5162 -0.2704 -0.0898
  616MOL0     H83143   3.663   4.581  -0.402  0.5381 -1.0791 -0.8689
  616MOL0     H83144   3.606   4.977  -0.257  0.4378 -1.7541 -0.3027
  616MOL0     H83145   3.599   5.209  -0.294 -2.7694 -2.3468  2.3506
  616MOL0     H83146   2.957   5.693   1.235  0.8829 -1.1330 -0.4000
  616MOL0     H83147   2.838   5.767   1.432  0.2042  0.7042 -2.6761
  616MOL0     H83148   2.520   5.663   1.692 -1.5240 -1.2867  0.1480
  616MOL0     H83149   2.375   5.787   1.843  0.3292  3.4288  1.2590
  616MOL0     H83150   2.534   5.902   2.222  2.5998  0.6715 -5.2446
  616MOL0     H83151   2.436   6.009   2.115 -0.9823 -2.1450 -1.6226
  616MOL0     H83152   2.332   5.855   2.353 -1.3752  0.2473 -0.5066
  616MOL0     H83153   2.238   5.962   2.255  0.4801  2.9004  0.0426
  616MOL0     H83154   2.377   6.164   2.317  0.4406  0.1223  0.0241
  616MOL0     H83155   2.489   6.062   2.409 -0.2013 -1.5794  0.4777
  616MOL0     H83156   2.313   6.033   2.576  1.2997 -0.3187 -0.3904
  616MOL0     H83157   2.202   6.062   2.449  1.2280 -2.7993 -2.7471
  616MOL0     H83158   2.287   6.465   2.561 -1.3735  0.1324 -0.8982
  616MOL0     H83159   2.648   5.731   2.162  0.3187 -0.4896 -0.1014
  616MOL0     H83160   2.808   5.621   2.018  1.7911 -0.7503 -2.5695
  617MOL0     O83161   7.976   0.319   3.880  0.5426 -0.0877 -0.6157
  617MOL0     C83162   7.883   0.388   3.914  0.6927  0.0791  0.0555
  617MOL0     O83163   7.889   0.517   3.955  0.7304  0.0203  0.1904
  617MOL0     C83164   8.003   0.581   4.003  0.2839 -0.2253 -1.1411
  617MOL0     C83165   7.981   0.697   4.080 -0.6736 -0.3940  0.0290
  617MOL0     C83166   8.089   0.778   4.111 -0.1964  0.0960 -0.2334
  617MOL0     C83167   8.224   0.745   4.065  0.1014  1.0537 -0.1951
  617MOL0     O83168   8.324   0.832   4.106  0.0223  0.4699 -0.3511
  617MOL0     C83169   8.453   0.785   4.088 -0.6070 -0.3184  1.0348
  617MOL0     C83170   8.544   0.861   4.173 -0.3669 -0.4199 -0.2830
  617MOL0     C83171   8.688   0.794   4.176  0.1804 -0.3615 -0.7994
  617MOL0     C83172   8.707   0.665   4.254 -0.4501  0.2819  0.0072
  617MOL0     C83173   8.847   0.612   4.236 -0.4788  0.8472  0.5087
  617MOL0     C83174   8.948   0.679   4.330 -0.8445  0.3059 -0.1191
  617MOL0     C83175   9.087   0.618   4.349 -0.0462 -0.7315 -0.1604
  617MOL0     C83176   9.098   0.489   4.416 -0.0858  0.6676 -0.2140
  617MOL0     N83177   9.176   0.512   4.540 -0.3243  0.4026 -0.4045
  617MOL0     C83178   9.281   0.432   4.571 -0.5961  0.3577 -1.2784
  617MOL0     C83179   9.319   0.461   4.694 -0.1189  0.4568 -0.6105
  617MOL0     C83180   9.434   0.408   4.768 -0.5758 -0.5861  0.2240
  617MOL0     C83181   9.534   0.522   4.810 -0.0067 -0.5162  0.8513
  617MOL0     C83182   9.663   0.454   4.862  0.9814 -0.1429 -0.4221
  617MOL0     C83183   9.744   0.570   4.921 -0.4298  0.0535 -0.2595
  617MOL0     O83184   9.863   0.525   4.977 -0.6023 -0.4475  0.8838
  617MOL0     C83185   9.913   0.607   5.077  0.6282  0.8372 -0.2652
  617MOL0     C83186   9.853   0.601   5.205 -0.0198 -0.4929  0.2551
  617MOL0     C83187   9.899   0.680   5.309 -0.8177 -0.0671 -0.1138
  617MOL0     C83188   9.844   0.671   5.446  0.2572  0.1810  0.8400
  617MOL0     C83189  10.015   0.767   5.285 -0.2586  0.9060 -0.5034
  617MOL0     C83190  10.084   0.858   5.383  0.4341 -0.0852 -0.3264
  617MOL0     O83191  10.213   0.896   5.363 -0.1258 -0.2965 -0.1958
  617MOL0     C83192  10.259   0.997   5.443 -1.4301 -0.6911 -0.4237
  617MOL0     C83193  10.295   0.979   5.577  0.1156 -0.1279  0.6980
  617MOL0     C83194  10.349   1.083   5.652 -0.5276  0.1018 -0.0269
  617MOL0     C83195  10.366   1.207   5.595 -0.3434 -0.2562  0.6189
  617MOL0     O83196  10.412   1.312   5.676 -0.4439  0.1583  0.5941
  617MOL0     C83197  10.366   1.448   5.653 -0.2328 -0.4183  1.1148
  617MOL0     C83198  10.458   1.532   5.563  0.0409 -0.7840 -0.2935
  617MOL0     C83199  10.613   1.510   5.593  0.0250  0.1123  0.0818
  617MOL0     C83200  10.643   1.574   5.731 -0.4928 -0.2197  0.1804
  617MOL0     C83201  10.785   1.633   5.731 -0.2988  0.7443 -0.2755
  617MOL0     C83202  10.814   1.670   5.870 -0.8732 -0.5131 -0.4284
  617MOL0     C83203  10.949   1.734   5.898 -0.1120 -0.4576 -0.3133
  617MOL0     C83204  10.981   1.756   6.045  0.0732 -0.1487  0.1355
  617MOL0    Cl83205  10.861   1.868   6.121 -0.0521  0.3128 -0.1234
  617MOL0     C83206  10.331   1.228   5.461  0.1170  0.3984  0.1824
  617MOL0     C83207  10.271   1.121   5.382 -0.6295  0.6202 -0.7935
  617MOL0     O83208  10.018   0.887   5.483 -0.2303  0.3099  0.3357
  617MOL0     C83209  10.077   0.770   5.158  0.6226 -0.3067  0.3108
  617MOL0     C83210  10.020   0.685   5.061 -0.9295 -0.6753 -0.4809
  617MOL0     N83211   9.220   0.546   4.744 -0.0811  0.1878 -1.0747
  617MOL0     N83212   9.131   0.570   4.653  0.4403  0.8435 -0.2513
  617MOL0     C83213   8.246   0.623   3.993 -0.2977  0.1301 -1.1440
  617MOL0     C83214   8.136   0.542   3.974  0.4858  0.2258 -0.4378
  617MOL0     C83215   7.747   0.336   3.886  0.1940 -0.4304  0.3264
  617MOL0     C83216   7.634   0.420   3.870 -0.1387 -0.4764  1.0350
  617MOL0     C83217   7.510   0.370   3.865  0.3149 -0.6102 -0.3325
  617MOL0     C83218   7.480   0.232   3.855  1.0124 -0.2200  0.1910
  617MOL0     O83219   7.358   0.173   3.838 -0.0811 -0.0620  0.1391
  617MOL0     C83220   7.265   0.246   3.765 -0.5982  0.2064 -0.1442
  617MOL0     C83221   7.138   0.156   3.741  0.4882 -0.4269  0.6439
  617MOL0     C83222   7.040   0.232   3.650 -0.0462  0.5378 -0.4945
  617MOL0     C83223   7.085   0.273   3.515  0.2088  0.3174 -0.3466
  617MOL0     C83224   7.151   0.159   3.447  1.0261 -0.2825 -0.6118
  617MOL0     C83225   7.200   0.067   3.386 -0.0407 -0.0009  0.1937
  617MOL0     C83226   7.589   0.152   3.894  0.0237 -0.3370  0.7710
  617MOL0     C83227   7.714   0.204   3.904 -0.6731  0.0195  0.0326
  617MOL0     H83228   7.877   0.727   4.083 -1.6281 -2.1544 -5.5098
  617MOL0     H83229   8.087   0.867   4.172  2.2700 -0.5527  0.9344
  617MOL0     H83230   8.464   0.677   4.099 -1.0551 -1.2799 -4.9276
  617MOL0     H83231   8.478   0.810   3.985  0.4749  1.2932  1.6444
  617MOL0     H83232   8.549   0.958   4.123 -0.2535  0.0077  0.5519
  617MOL0     H83233   8.508   0.887   4.273 -0.3173 -1.7651  0.1069
  617MOL0     H83234   8.717   0.764   4.075 -1.4645  2.9404 -2.4035
  617MOL0     H83235   8.752   0.867   4.226 -2.1577 -0.1582  2.1680
  617MOL0     H83236   8.681   0.675   4.360 -1.8696 -1.8787 -0.0809
  617MOL0     H83237   8.641   0.588   4.214  3.0322 -2.8437 -0.2966
  617MOL0     H83238   8.836   0.506   4.258 -1.7959  1.6335  4.5682
  617MOL0     H83239   8.881   0.617   4.132 -0.2334  1.3657  0.6117
  617MOL0     H83240   8.961   0.781   4.292  1.3190  0.3201  0.5624
  617MOL0     H83241   8.895   0.679   4.425 -1.8666  0.1673 -0.6729
  617MOL0     H83242   9.137   0.596   4.255  3.7412 -2.8477  2.0977
  617MOL0     H83243   9.140   0.697   4.402 -0.7538 -2.2560  3.0961
  617MOL0     H83244   9.136   0.413   4.346  0.8700  1.3927 -0.5001
  617MOL0     H83245   8.993   0.468   4.439 -0.3696  0.8308 -1.2827
  617MOL0     H83246   9.335   0.362   4.507  0.5993  0.6934 -0.6591
  617MOL0     H83247   9.395   0.350   4.852  0.7657 -1.0533  0.5470
  617MOL0     H83248   9.477   0.334   4.700 -3.6816 -2.2212 -0.1479
  617MOL0     H83249   9.486   0.588   4.883  1.3888 -0.1379  1.4592
  617MOL0     H83250   9.564   0.577   4.720 -2.3232 -1.4498 -0.5664
  617MOL0     H83251   9.702   0.396   4.778 -3.4704  0.3433 -3.1895
  617MOL0     H83252   9.635   0.382   4.939  1.3180  2.6094  2.5143
  617MOL0     H83253   9.690   0.621   5.002  1.9450  2.6030 -0.1452
  617MOL0     H83254   9.764   0.645   4.845 -1.7901 -0.9211 -1.6472
  617MOL0     H83255   9.761   0.544   5.214 -1.1013  0.7505 -1.8940
  617MOL0     H83256   9.813   0.769   5.482 -1.5470  0.8554 -2.2201
  617MOL0     H83257   9.758   0.604   5.448  1.0390 -0.8704  0.6620
  617MOL0     H83258   9.928   0.636   5.508 -0.4503  0.7263  2.1426
  617MOL0     H83259  10.285   0.881   5.623  0.2958 -0.4977 -0.0401
  617MOL0     H83260  10.369   1.083   5.759  2.4250 -1.0995 -0.4912
  617MOL0     H83261  10.270   1.454   5.601  0.2595  3.5645  0.3666
  617MOL0     H83262  10.348   1.503   5.746 -2.4919  0.8588  0.0101
  617MOL0     H83263  10.445   1.523   5.455 -1.2611  1.9725 -0.4553
  617MOL0     H83264  10.434   1.637   5.579 -1.8243 -1.4242  1.5897
  617MOL0     H83265  10.666   1.554   5.509  2.1598 -0.0444  1.2763
  617MOL0     H83266  10.646   1.406   5.597  1.0717  0.3911 -0.9641
  617MOL0     H83267  10.579   1.660   5.748  1.0174  0.4966  2.7452
  617MOL0     H83268  10.628   1.502   5.812  0.2747  1.8765  2.2674
  617MOL0     H83269  10.790   1.727   5.675  0.7785  0.5990 -0.4486
  617MOL0     H83270  10.863   1.565   5.698 -0.9037 -0.8806  1.4323
  617MOL0     H83271  10.735   1.744   5.883  0.5735  0.8049  1.3846
  617MOL0     H83272  10.808   1.586   5.940  1.6558 -0.8949 -0.5517
  617MOL0     H83273  10.956   1.826   5.839 -1.2558  0.6263  1.1627
  617MOL0     H83274  11.029   1.668   5.863 -0.1415  1.5293 -4.8840
  617MOL0     H83275  11.086   1.787   6.042  1.6048 -4.6280  0.0066
  617MOL0     H83276  10.972   1.658   6.091 -2.6031 -0.5043 -0.9172
  617MOL0     H83277  10.371   1.316   5.412  2.5369 -0.6856  0.0861
  617MOL0     H83278  10.240   1.131   5.279 -2.0271 -4.3468 -1.1367
  617MOL0     H83279  10.171   0.821   5.139  0.0008  0.3772 -1.0178
  617MOL0     H83280  10.074   0.683   4.968 -0.7019  0.9978 -0.4102
  617MOL0     H83281   8.334   0.575   3.953 -0.3745 -2.2836  1.2616
  617MOL0     H83282   8.159   0.459   3.908  0.7594  0.7840 -1.0655
  617MOL0     H83283   7.643   0.527   3.852 -0.5956 -0.5251  0.4821
  617MOL0     H83284   7.435   0.448   3.861 -0.3501 -1.2749 -3.6419
  617MOL0     H83285   7.232   0.335   3.820 -0.9668 -2.4589  4.4006
  617MOL0     H83286   7.310   0.270   3.668  0.6896  1.5336  0.7311
  617MOL0     H83287   7.091   0.132   3.837 -1.4541 -1.2120 -0.4404
  617MOL0     H83288   7.159   0.060   3.693  0.6329  0.0093 -0.2009
  617MOL0     H83289   7.000   0.321   3.700  0.8098 -0.1847  1.5981
  617MOL0     H83290   6.950   0.173   3.636  1.0744 -1.1116 -0.9957
  617MOL0     H83291   7.158   0.353   3.530 -1.5714  1.8998  0.2605
  617MOL0     H83292   6.998   0.300   3.455  0.8679 -1.3262 -2.1421
  617MOL0     H83293   7.228  -0.022   3.333 -2.1626 -1.0319  0.6838
  617MOL0     H83294   7.563   0.047   3.906 -4.3666  0.6469  1.6186
  617MOL0     H83295   7.789   0.134   3.940  0.9228  1.2921 -0.6516
  618MOL0     O83296   3.196   5.305   5.760  0.2197  0.5026 -0.2352
  618MOL0     C83297   3.213   5.342   5.879 -0.2116  0.0064  0.3714
  618MOL0     O83298   3.131   5.330   5.980 -0.3763 -0.2897  0.1991
  618MOL0     C83299   2.994   5.306   5.955  0.4044 -0.2345  0.7425
  618MOL0     C83300   2.969   5.176   5.920 -0.7103  0.2152  0.0766
  618MOL0     C83301   2.840   5.132   5.898 -0.1764  0.0666 -1.0032
  618MOL0     C83302   2.731   5.212   5.941 -1.0639 -0.7407 -0.2241
  618MOL0     O83303   2.610   5.159   5.930  0.1715 -0.4279  0.7280
  618MOL0     C83304   2.499   5.225   5.993 -0.2222 -0.3645 -0.4179
  618MOL0     C83305   2.381   5.132   6.017  0.0024  0.4530 -0.5337
  618MOL0     C83306   2.335   5.050   5.896  0.2083  0.2226 -0.1603
  618MOL0     C83307   2.209   4.967   5.928 -0.7966 -0.1233 -0.3135
  618MOL0     C83308   2.178   4.877   5.810  0.0269  0.4601 -0.5016
  618MOL0     C83309   2.137   4.962   5.685  0.3281  0.4188  0.1631
  618MOL0     C83310   2.133   4.871   5.565 -0.4909 -0.7641  0.1165
  618MOL0     C83311   2.123   4.951   5.435  0.0516 -0.2431 -0.5925
  618MOL0     N83312   2.224   5.042   5.412  0.0500 -1.4322 -0.4379
  618MOL0     C83313   2.361   5.012   5.423 -0.5014 -1.0643 -0.7012
  618MOL0     C83314   2.426   5.125   5.370  0.2898 -0.1333 -0.3386
  618MOL0     C83315   2.576   5.143   5.365 -0.2476 -0.5202 -0.6729
  618MOL0     C83316   2.607   5.267   5.463 -0.6606 -0.0279  0.3066
  618MOL0     C83317   2.738   5.264   5.545  0.4069  0.6589  0.9521
  618MOL0     C83318   2.835   5.169   5.472  0.1939 -0.9386  0.0696
  618MOL0     O83319   2.861   5.199   5.333  0.4525  0.7034  0.5126
  618MOL0     C83320   2.968   5.279   5.298 -0.6375  0.7008 -0.5761
  618MOL0     C83321   3.040   5.367   5.377  1.4733  0.2821  0.0775
  618MOL0     C83322   3.164   5.418   5.349  0.6425 -0.1410  0.4448
  618MOL0     C83323   3.229   5.498   5.456 -0.4320  0.2005 -0.4315
  618MOL0     C83324   3.229   5.380   5.230  0.6080 -0.3043  0.1342
  618MOL0     C83325   3.369   5.411   5.183  0.5963 -0.1367  0.3887
  618MOL0     O83326   3.409   5.344   5.075  0.0339  0.0976  0.0801
  618MOL0     C83327   3.496   5.384   4.978  0.3246  0.6242  0.2338
  618MOL0     C83328   3.463   5.347   4.853 -0.0671 -0.6272 -0.3036
  618MOL0     C83329   3.541   5.389   4.745 -0.9770  0.1157 -0.8434
  618MOL0     C83330   3.664   5.448   4.769  0.3425 -0.0708 -0.5819
  618MOL0     O83331   3.743   5.483   4.663  0.3021  0.3641  0.8953
  618MOL0     C83332   3.876   5.528   4.686 -0.0391  0.0961  0.0668
  618MOL0     C83333   3.897   5.674   4.704 -0.5624  0.2173 -0.6069
  618MOL0     C83334   4.046   5.719   4.689  1.2448 -0.1592 -0.0249
  618MOL0     C83335   4.077   5.853   4.745 -0.0817  0.1555  0.1712
  618MOL0     C83336   4.221   5.907   4.728  0.7199  0.1499 -0.6703
  618MOL0     C83337   4.220   6.074   4.733  0.2916  1.0983  1.0601
  618MOL0     C83338   4.112   6.149   4.648  0.6097 -0.8990 -0.1648
  618MOL0     C83339   4.156   6.287   4.605 -0.0016 -0.2422 -0.4388
  618MOL0    Cl83340   4.227   6.280   4.436  0.2398  0.0283 -0.2461
  618MOL0     C83341   3.702   5.483   4.905  0.1152 -0.3762  0.0473
  618MOL0     C83342   3.620   5.447   5.012 -0.7045  0.0684  0.8179
  618MOL0     O83343   3.447   5.489   5.241  1.3077 -0.3362 -0.0422
  618MOL0     C83344   3.155   5.294   5.145 -0.5704 -0.0770  0.0760
  618MOL0     C83345   3.024   5.258   5.173 -0.5840  1.1814 -0.7789
  618MOL0     N83346   2.326   5.209   5.323 -0.7152 -0.6486  1.1077
  618MOL0     N83347   2.211   5.159   5.344  0.5370  0.1640 -0.1318
  618MOL0     C83348   2.763   5.345   5.966  0.1620  0.1794 -0.3220
  618MOL0     C83349   2.890   5.401   5.955  0.4570  0.2062 -0.4167
  618MOL0     C83350   3.346   5.402   5.906  0.1987  0.3877  0.9105
  618MOL0     C83351   3.388   5.421   6.036  0.2354  0.0950 -0.2778
  618MOL0     C83352   3.496   5.485   6.068 -0.5260 -0.5215 -0.0855
  618MOL0     C83353   3.576   5.546   5.977  0.4288  0.0539 -0.7263
  618MOL0     O83354   3.684   5.627   6.022  0.0925 -0.5816  0.9170
  618MOL0     C83355   3.781   5.668   5.917 -0.0103  0.3337  0.0316
  618MOL0     C83356   3.905   5.737   5.972 -0.1160 -0.6200  0.0313
  618MOL0     C83357   4.032   5.721   5.878  0.9845  0.4483  0.1797
  618MOL0     C83358   4.094   5.573   5.853  0.7010 -1.4307 -0.9341
  618MOL0     C83359   4.108   5.478   5.973  0.2525 -0.7314  0.3262
  618MOL0     C83360   4.110   5.405   6.067  0.0929  0.2602 -0.4377
  618MOL0     C83361   3.548   5.511   5.840  0.6952  0.6758  0.2027
  618MOL0     C83362   3.431   5.445   5.797 -0.6183  0.0915 -0.1898
  618MOL0     H83363   3.058   5.114   5.913 -1.3017 -0.4646 -2.3934
  618MOL0     H83364   2.811   5.031   5.871  0.9334 -1.3658  2.6479
  618MOL0     H83365   2.541   5.271   6.082  2.3393  0.4465 -1.9499
  618MOL0     H83366   2.467   5.310   5.932  0.1815  0.1849  0.1239
  618MOL0     H83367   2.410   5.061   6.096 -2.8627 -1.9889 -1.4790
  618MOL0     H83368   2.308   5.199   6.064  0.9719 -0.1550  2.0318
  618MOL0     H83369   2.323   5.122   5.815 -1.8927  1.8288  1.4731
  618MOL0     H83370   2.410   4.972   5.884 -0.9393 -0.8408 -0.6912
  618MOL0     H83371   2.223   4.908   6.019  0.2865 -2.8612 -2.1295
  618MOL0     H83372   2.128   5.036   5.956 -0.2648  0.1092  0.7163
  618MOL0     H83373   2.268   4.818   5.788  0.3986  0.4640  0.9188
  618MOL0     H83374   2.108   4.804   5.852 -0.4325  1.5680  0.7295
  618MOL0     H83375   2.040   5.005   5.712  1.2042  0.9273  2.8819
  618MOL0     H83376   2.206   5.044   5.665  0.1260  0.6775  0.5092
  618MOL0     H83377   2.218   4.802   5.563 -0.6769 -1.0620  1.5100
  618MOL0     H83378   2.041   4.812   5.573 -1.0290 -0.8089 -4.1211
  618MOL0     H83379   2.035   5.012   5.457  1.1531  0.5694  2.0437
  618MOL0     H83380   2.106   4.890   5.346 -2.7653  1.2061 -1.1709
  618MOL0     H83381   2.407   4.930   5.478  1.7315  0.1616 -0.6339
  618MOL0     H83382   2.617   5.044   5.388 -1.7551 -0.9859  0.1067
  618MOL0     H83383   2.598   5.169   5.261 -1.6043 -0.5609 -0.9902
  618MOL0     H83384   2.522   5.295   5.525 -1.7614  0.1409 -1.2293
  618MOL0     H83385   2.623   5.348   5.391  0.9449 -0.3241  0.2903
  618MOL0     H83386   2.725   5.232   5.648  3.5550  0.2641  1.3152
  618MOL0     H83387   2.795   5.357   5.553  1.9916 -0.3568  1.7812
  618MOL0     H83388   2.807   5.063   5.469 -1.3317 -0.5519  0.1748
  618MOL0     H83389   2.928   5.171   5.530  1.8627  0.1377 -2.4189
  618MOL0     H83390   2.989   5.380   5.472  0.2470 -3.2008  0.0195
  618MOL0     H83391   3.322   5.448   5.482 -1.0639 -2.1876 -2.3601
  618MOL0     H83392   3.244   5.602   5.425 -2.7633  0.6580 -0.2426
  618MOL0     H83393   3.168   5.501   5.547 -1.5592 -2.3363 -1.0052
  618MOL0     H83394   3.380   5.278   4.842  0.0530 -1.1390  1.6014
  618MOL0     H83395   3.503   5.363   4.646  0.1206 -0.4641 -1.1272
  618MOL0     H83396   3.919   5.469   4.767 -1.3659 -0.4220  0.4225
  618MOL0     H83397   3.932   5.493   4.598  2.0767  1.1255  0.9211
  618MOL0     H83398   3.835   5.730   4.634 -2.3407  1.1006  1.5324
  618MOL0     H83399   3.858   5.708   4.800  0.5376  2.1153 -0.7925
  618MOL0     H83400   4.071   5.716   4.582 -2.3151  1.7552 -1.1017
  618MOL0     H83401   4.108   5.641   4.733 -1.6563 -3.6298 -1.5102
  618MOL0     H83402   4.006   5.917   4.691 -1.1338 -1.5248 -0.5405
  618MOL0     H83403   4.053   5.859   4.851 -1.0441  2.1908 -0.1121
  618MOL0     H83404   4.265   5.871   4.634 -3.3243 -3.3008 -1.5762
  618MOL0     H83405   4.281   5.868   4.810  1.1862  1.9096 -0.1353
  618MOL0     H83406   4.216   6.106   4.838  3.5182  1.1194  1.2482
  618MOL0     H83407   4.321   6.111   4.714  0.6149  0.7923  2.1247
  618MOL0     H83408   4.029   6.180   4.712  2.4869  5.2176 -0.0907
  618MOL0     H83409   4.068   6.091   4.566 -2.3155 -0.0263  0.6741
  618MOL0     H83410   4.233   6.315   4.678  1.8605 -0.7032 -2.1170
  618MOL0     H83411   4.077   6.360   4.620  1.4447  1.4083 -0.5227
  618MOL0     H83412   3.801   5.524   4.922  0.0492 -1.4318  4.0747
  618MOL0     H83413   3.648   5.466   5.115  0.8610 -0.8173  0.5921
  618MOL0     H83414   3.192   5.265   5.047 -2.3318  2.1362 -1.3181
  618MOL0     H83415   2.973   5.201   5.096  2.7890 -2.1994 -0.7740
  618MOL0     H83416   2.682   5.410   5.995 -0.5330 -0.7759 -0.0731
  618MOL0     H83417   2.896   5.507   5.975 -1.5735  0.5406 -1.3960
  618MOL0     H83418   3.331   5.382   6.120 -1.6459 -0.3142 -1.6540
  618MOL0     H83419   3.538   5.501   6.167 -2.3951 -0.0357  0.6836
  618MOL0     H83420   3.812   5.589   5.848 -1.1453 -1.2969  1.3170
  618MOL0     H83421   3.734   5.748   5.859  0.9916  0.4640 -0.6141
  618MOL0     H83422   3.940   5.705   6.070  2.2015  3.9906  0.9673
  618MOL0     H83423   3.881   5.841   5.993 -1.8330 -0.5888 -1.7604
  618MOL0     H83424   4.099   5.792   5.929  1.4295  1.2518 -1.4628
  618MOL0     H83425   4.006   5.767   5.782 -1.9525  0.1301  0.7319
  618MOL0     H83426   4.193   5.580   5.806  3.5877 -2.9052  4.2313
  618MOL0     H83427   4.016   5.535   5.786 -2.0550  1.1441  0.5790
  618MOL0     H83428   4.107   5.334   6.147 -0.0340 -1.5956 -1.9973
  618MOL0     H83429   3.614   5.556   5.766 -0.3463 -1.8673 -2.4892
  618MOL0     H83430   3.419   5.420   5.692  1.2390 -0.7506 -0.2504
  619MOL0     O83431   4.781  10.159   8.270  0.1103  0.4273  0.6020
  619MOL0     C83432   4.834  10.156   8.161 -0.4844  0.1370  0.0536
  619MOL0     O83433   4.875  10.040   8.091  0.7681 -0.0768  0.1265
  619MOL0     C83434   4.841   9.914   8.132 -0.8268 -0.4583  0.1774
  619MOL0     C83435   4.720   9.878   8.179 -0.6648 -0.7178  0.2987
  619MOL0     C83436   4.697   9.747   8.233  0.6006 -0.2887 -0.2057
  619MOL0     C83437   4.795   9.648   8.235  0.3123 -0.2166  0.5520
  619MOL0     O83438   4.782   9.521   8.277 -0.1982  0.0233  0.1390
  619MOL0     C83439   4.658   9.480   8.325  0.3638 -0.1708  0.8401
  619MOL0     C83440   4.634   9.326   8.344 -0.2068 -0.0335  0.2449
  619MOL0     C83441   4.491   9.289   8.390 -0.2731  0.2044  0.0209
  619MOL0     C83442   4.474   9.140   8.418 -0.7139 -0.5596  0.6980
  619MOL0     C83443   4.322   9.110   8.439  0.9081  0.7364 -0.2547
  619MOL0     C83444   4.282   8.978   8.511  0.0208  0.3074  0.6552
  619MOL0     C83445   4.350   8.863   8.442  0.3452  0.3638 -0.4728
  619MOL0     C83446   4.288   8.744   8.511 -0.6033  0.7878 -0.1944
  619MOL0     N83447   4.341   8.620   8.455  0.0164  0.2388 -0.0796
  619MOL0     C83448   4.473   8.578   8.471  0.3375  0.3084  0.0847
  619MOL0     C83449   4.491   8.494   8.367 -0.1692  0.0898  0.6550
  619MOL0     C83450   4.605   8.404   8.336 -0.6436  0.2477 -1.0086
  619MOL0     C83451   4.590   8.276   8.420  0.0796  0.2652 -0.6681
  619MOL0     C83452   4.684   8.162   8.387 -0.5309  0.1647 -0.3835
  619MOL0     C83453   4.698   8.124   8.232  0.1497 -0.3578 -0.0650
  619MOL0     O83454   4.781   8.008   8.207 -0.0173  0.5853 -0.4491
  619MOL0     C83455   4.735   7.880   8.248  0.5568  0.3018  0.2581
  619MOL0     C83456   4.833   7.780   8.254 -0.9098 -0.6629 -0.0305
  619MOL0     C83457   4.809   7.648   8.280  0.3269  0.2674  0.5646
  619MOL0     C83458   4.938   7.570   8.288 -0.2600 -0.5898 -0.6514
  619MOL0     C83459   4.674   7.606   8.304  0.8166 -0.6295 -0.0385
  619MOL0     C83460   4.643   7.467   8.350 -0.7688  0.1262 -0.0849
  619MOL0     O83461   4.508   7.447   8.373 -0.3755  0.0082 -0.4256
  619MOL0     C83462   4.469   7.317   8.397 -0.1236 -1.5353  0.5737
  619MOL0     C83463   4.470   7.223   8.293 -0.2012  0.5825 -0.2413
  619MOL0     C83464   4.419   7.095   8.322  0.8612 -0.5476 -0.0142
  619MOL0     C83465   4.364   7.062   8.449 -0.8469 -0.0490 -0.6599
  619MOL0     O83466   4.322   6.936   8.464  0.2107  0.5889 -0.3599
  619MOL0     C83467   4.215   6.916   8.553  0.9069  0.3280 -0.0721
  619MOL0     C83468   4.153   6.772   8.541 -0.7903 -1.2420 -0.4180
  619MOL0     C83469   4.260   6.674   8.595  0.0310  0.2364  0.8249
  619MOL0     C83470   4.233   6.532   8.532 -0.3348  0.3037 -0.1001
  619MOL0     C83471   4.091   6.483   8.582  0.2822 -0.1839  0.7810
  619MOL0     C83472   4.035   6.357   8.508  0.6446  1.0199 -0.2581
  619MOL0     C83473   4.076   6.221   8.564  0.1726  0.0502 -0.0269
  619MOL0     C83474   3.968   6.118   8.549  0.1166 -0.2488 -0.5873
  619MOL0    Cl83475   3.893   6.108   8.389 -0.0406  0.1124  0.0805
  619MOL0     C83476   4.380   7.162   8.551  0.4495 -0.3166 -0.5080
  619MOL0     C83477   4.424   7.288   8.527  0.4082  1.0294 -0.1820
  619MOL0     O83478   4.737   7.383   8.359  0.1277 -0.2389 -0.8316
  619MOL0     C83479   4.576   7.702   8.298  0.1765 -0.3805  0.2152
  619MOL0     C83480   4.603   7.842   8.267  0.0844 -0.3522 -0.6292
  619MOL0     N83481   4.364   8.472   8.303  0.4067 -0.0295  0.4952
  619MOL0     N83482   4.275   8.541   8.366  0.3933 -0.0188  0.6777
  619MOL0     C83483   4.912   9.687   8.173  0.1202 -0.0129  0.0567
  619MOL0     C83484   4.926   9.808   8.114 -0.2367 -0.9185 -0.2451
  619MOL0     C83485   4.860  10.281   8.093  0.2939  0.2603  0.5149
  619MOL0     C83486   4.928  10.279   7.967 -0.2690  0.0180  0.2066
  619MOL0     C83487   4.977  10.402   7.917 -0.4053 -0.3329 -0.4287
  619MOL0     C83488   4.939  10.508   7.989  0.0581 -1.2668  0.5449
  619MOL0     O83489   4.997  10.624   7.939  0.2156 -0.0484  0.3130
  619MOL0     C83490   5.145  10.627   7.927  0.1334 -0.1912 -0.4020
  619MOL0     C83491   5.215  10.619   8.065  0.3281  0.5658  0.0659
  619MOL0     C83492   5.192  10.751   8.136  0.3425 -0.8898 -0.4442
  619MOL0     C83493   5.248  10.879   8.077 -0.1643 -0.6238 -0.5110
  619MOL0     C83494   5.389  10.888   8.039 -0.6147  0.5692  0.0187
  619MOL0     C83495   5.502  10.913   8.013 -1.1093  0.2831 -0.2550
  619MOL0     C83496   4.859  10.522   8.096 -0.1633  0.4370  0.5882
  619MOL0     C83497   4.823  10.398   8.150  1.0156 -0.1339 -0.4538
  619MOL0     H83498   4.641   9.952   8.178  0.1593  0.1731 -0.5861
  619MOL0     H83499   4.598   9.724   8.272 -0.6216  1.8472 -1.8534
  619MOL0     H83500   4.653   9.523   8.426 -1.5356  1.1106  0.2559
  619MOL0     H83501   4.586   9.522   8.255  1.1154 -0.4426 -0.1119
  619MOL0     H83502   4.640   9.269   8.251 -0.2947  0.0698  0.1753
  619MOL0     H83503   4.706   9.289   8.417 -2.4895 -1.7975  1.7129
  619MOL0     H83504   4.470   9.347   8.481  3.5340  3.1309 -0.7222
  619MOL0     H83505   4.410   9.326   8.326  0.1519  3.8105  1.3379
  619MOL0     H83506   4.506   9.091   8.325  3.2037  0.0284  1.5570
  619MOL0     H83507   4.535   9.104   8.501 -4.7659 -3.9865  2.5325
  619MOL0     H83508   4.269   9.191   8.490 -0.4849 -0.6820  0.6134
  619MOL0     H83509   4.280   9.102   8.338  0.8161 -1.0421 -0.0975
  619MOL0     H83510   4.325   8.997   8.610  1.7357  2.7101 -0.4590
  619MOL0     H83511   4.173   8.965   8.509  0.3087 -3.3404 -1.8551
  619MOL0     H83512   4.331   8.856   8.334 -1.8034  2.3848 -0.3010
  619MOL0     H83513   4.460   8.859   8.443  0.3467  0.4396  0.3515
  619MOL0     H83514   4.179   8.738   8.502 -0.6363  3.1673 -3.4776
  619MOL0     H83515   4.326   8.738   8.613  3.6017  1.2526 -1.5367
  619MOL0     H83516   4.547   8.614   8.541 -0.5957  0.6155  0.9369
  619MOL0     H83517   4.605   8.382   8.229 -1.0754 -0.3879 -0.8824
  619MOL0     H83518   4.700   8.454   8.359 -0.4621 -0.9553  1.2118
  619MOL0     H83519   4.495   8.234   8.385 -0.7462  0.6767  0.9789
  619MOL0     H83520   4.592   8.292   8.528 -0.7793  0.0829 -0.6188
  619MOL0     H83521   4.657   8.066   8.431  1.2544 -1.2153 -2.1712
  619MOL0     H83522   4.781   8.195   8.426 -0.9215 -1.2781  1.9936
  619MOL0     H83523   4.756   8.205   8.188 -0.3841  1.0306  1.6597
  619MOL0     H83524   4.601   8.110   8.185  0.5553 -0.2576 -0.9378
  619MOL0     H83525   4.931   7.822   8.231  0.1867 -2.5917  0.9085
  619MOL0     H83526   4.990   7.596   8.381 -1.9671 -0.0511  0.1971
  619MOL0     H83527   4.924   7.461   8.294 -1.4699 -0.4408 -0.5964
  619MOL0     H83528   4.996   7.592   8.198 -0.5743 -0.4063 -0.8101
  619MOL0     H83529   4.508   7.241   8.193  2.4626  1.1690  0.7743
  619MOL0     H83530   4.425   7.005   8.263  0.2613 -1.7282  1.6296
  619MOL0     H83531   4.256   6.933   8.654 -3.3245 -1.4543  2.2214
  619MOL0     H83532   4.143   6.995   8.527  2.3931  1.3700 -1.2036
  619MOL0     H83533   4.061   6.761   8.600  0.3146  1.6464  2.1125
  619MOL0     H83534   4.131   6.761   8.435  0.8734 -0.3750 -0.8769
  619MOL0     H83535   4.260   6.665   8.704  0.2908 -1.1330  0.7286
  619MOL0     H83536   4.358   6.707   8.559  1.2469 -1.6271  2.2435
  619MOL0     H83537   4.216   6.537   8.424  0.3145 -0.9446 -0.2648
  619MOL0     H83538   4.298   6.451   8.565  0.1635  1.4834  2.0544
  619MOL0     H83539   4.015   6.561   8.571  1.3331  0.9927  1.6623
  619MOL0     H83540   4.104   6.456   8.687 -0.3117 -0.9070  0.6847
  619MOL0     H83541   3.928   6.355   8.529  0.7717 -1.6244  0.5189
  619MOL0     H83542   4.058   6.366   8.402  1.2235  3.1325  0.0141
  619MOL0     H83543   4.090   6.221   8.672 -0.4828 -0.5744  0.0613
  619MOL0     H83544   4.165   6.177   8.518  1.7024  1.9502  0.9642
  619MOL0     H83545   3.895   6.137   8.628  1.9153 -3.1913  1.9624
  619MOL0     H83546   4.020   6.026   8.575 -1.2902 -0.1194  3.2111
  619MOL0     H83547   4.366   7.143   8.657  3.0536  0.6432  0.0674
  619MOL0     H83548   4.434   7.360   8.608 -0.2941 -0.7657  1.5973
  619MOL0     H83549   4.474   7.684   8.329  0.8681 -0.6755  2.5251
  619MOL0     H83550   4.526   7.917   8.279 -0.1398 -0.1420 -2.9303
  619MOL0     H83551   4.988   9.610   8.163 -0.0993 -0.3566  0.9006
  619MOL0     H83552   5.012   9.838   8.055 -0.1079  2.3582  1.4173
  619MOL0     H83553   4.952  10.190   7.910  0.8981 -1.1292  2.3541
  619MOL0     H83554   5.044  10.407   7.831  1.3527  1.3100  0.9227
  619MOL0     H83555   5.180  10.536   7.877 -1.0703 -1.6876  1.3475
  619MOL0     H83556   5.172  10.718   7.873 -1.4302 -0.2594 -1.3507
  619MOL0     H83557   5.323  10.606   8.054  0.1973 -1.9845  1.0894
  619MOL0     H83558   5.172  10.538   8.124  0.4704  0.5245  0.1139
  619MOL0     H83559   5.243  10.732   8.231  0.1061 -0.0815 -0.1490
  619MOL0     H83560   5.083  10.759   8.139  0.1045 -3.4153  2.9098
  619MOL0     H83561   5.230  10.954   8.155 -2.2314  0.5072 -1.9843
  619MOL0     H83562   5.197  10.912   7.986 -1.2359 -0.9046 -0.0362
  619MOL0     H83563   5.601  10.949   7.998 -1.4979  0.7263 -1.9535
  619MOL0     H83564   4.822  10.602   8.159  2.2412 -1.2554  4.4981
  619MOL0     H83565   4.751  10.383   8.231  0.2761 -0.7370 -1.2069
  620MOL0     O83566   4.409   4.006   5.320  0.6710  0.8154  0.2761
  620MOL0     C83567   4.452   4.043   5.212 -0.4842  0.0350 -0.1331
  620MOL0     O83568   4.394   4.034   5.097  0.9162  0.0906 -0.4911
  620MOL0     C83569   4.254   3.999   5.098 -0.5504  0.6759  0.0814
  620MOL0     C83570   4.213   3.886   5.027 -0.4432 -1.1029  0.6750
  620MOL0     C83571   4.079   3.848   5.014 -1.0995  0.1326 -0.1582
  620MOL0     C83572   3.982   3.912   5.089  1.1464 -0.0070 -0.0400
  620MOL0     O83573   3.844   3.884   5.078  0.0498  0.1293 -0.9358
  620MOL0     C83574   3.793   3.762   5.025  0.3390  0.2766 -0.1322
  620MOL0     C83575   3.641   3.756   5.046 -0.4677 -0.0031 -0.3222
  620MOL0     C83576   3.621   3.692   5.186 -0.0315  0.2463  0.4304
  620MOL0     C83577   3.475   3.675   5.226  0.6656  0.7353  0.1255
  620MOL0     C83578   3.449   3.577   5.338  0.3488  0.2575 -0.4468
  620MOL0     C83579   3.444   3.430   5.288  0.3569 -0.1883  0.3909
  620MOL0     C83580   3.459   3.337   5.411 -0.7257 -0.6462 -0.2927
  620MOL0     C83581   3.557   3.226   5.397 -0.6202  0.7804  0.1399
  620MOL0     N83582   3.689   3.283   5.360 -0.2590 -0.1200  0.2596
  620MOL0     C83583   3.752   3.377   5.435 -0.7100 -0.1782  0.0901
  620MOL0     C83584   3.872   3.392   5.370 -0.2895 -0.6699  0.5930
  620MOL0     C83585   3.991   3.483   5.407 -0.3043 -0.4576 -0.6789
  620MOL0     C83586   4.057   3.431   5.534 -0.3012  0.2302 -0.2498
  620MOL0     C83587   4.178   3.513   5.579  0.4482 -0.1327 -0.8118
  620MOL0     C83588   4.236   3.464   5.715 -0.1625 -0.8518  0.2569
  620MOL0     O83589   4.140   3.489   5.821  0.1664 -0.0545 -0.1796
  620MOL0     C83590   4.149   3.423   5.944  0.8984 -0.5801  1.0349
  620MOL0     C83591   4.039   3.380   6.010 -0.4368  0.3064 -0.0274
  620MOL0     C83592   4.053   3.299   6.134 -0.8251  0.0651  0.4393
  620MOL0     C83593   3.927   3.256   6.198  1.1271  0.8213  1.2522
  620MOL0     C83594   4.185   3.267   6.179 -0.9151  0.4519 -0.4894
  620MOL0     C83595   4.217   3.182   6.295 -1.1546 -0.2724 -0.7583
  620MOL0     O83596   4.343   3.133   6.292  0.6001 -0.0214  0.4437
  620MOL0     C83597   4.383   3.045   6.380  0.0142 -1.1296  0.4436
  620MOL0     C83598   4.312   2.933   6.427 -0.4883  0.2283  0.2836
  620MOL0     C83599   4.368   2.838   6.514 -0.8343  0.1680  0.2034
  620MOL0     C83600   4.510   2.858   6.540  0.5557 -0.1414  0.3499
  620MOL0     O83601   4.585   2.789   6.636 -0.0991 -0.4969 -0.0507
  620MOL0     C83602   4.530   2.672   6.701  0.7388  0.0282 -0.4759
  620MOL0     C83603   4.636   2.602   6.792 -0.6637 -0.5848  0.3931
  620MOL0     C83604   4.774   2.580   6.734  0.6514  0.4738 -0.0009
  620MOL0     C83605   4.758   2.525   6.596 -0.2071 -0.3582  0.3117
  620MOL0     C83606   4.887   2.493   6.519 -1.0859 -0.7130 -0.4408
  620MOL0     C83607   4.970   2.630   6.514 -0.4734 -0.0642 -0.5519
  620MOL0     C83608   5.118   2.592   6.507  0.6344 -0.6005 -0.2296
  620MOL0     C83609   5.196   2.724   6.484 -0.0812  0.6189 -0.1824
  620MOL0    Cl83610   5.167   2.826   6.334 -0.4172 -0.1618 -0.0595
  620MOL0     C83611   4.577   2.954   6.476 -0.3541 -0.1945 -0.5635
  620MOL0     C83612   4.523   3.040   6.398  0.8058 -0.8545 -0.2541
  620MOL0     O83613   4.142   3.180   6.394 -0.9047  0.9103 -0.3583
  620MOL0     C83614   4.297   3.312   6.105  0.2743  0.6103  0.6626
  620MOL0     C83615   4.279   3.380   5.990  0.2483  0.0231  0.4069
  620MOL0     N83616   3.882   3.310   5.258 -0.0308 -0.3492  0.2223
  620MOL0     N83617   3.763   3.256   5.251 -0.2197  0.0211  0.0932
  620MOL0     C83618   4.023   4.027   5.168  0.9972  0.3458  0.4293
  620MOL0     C83619   4.165   4.058   5.183 -1.0922  0.3453 -0.5647
  620MOL0     C83620   4.600   4.077   5.211  0.8007 -0.1202  0.4141
  620MOL0     C83621   4.672   4.063   5.331  0.2760  0.0448  0.3814
  620MOL0     C83622   4.810   4.083   5.338  1.5279  0.0201 -0.2696
  620MOL0     C83623   4.878   4.119   5.220  0.5306 -0.1525 -1.0475
  620MOL0     O83624   5.021   4.130   5.209 -0.2889 -1.0123  0.3040
  620MOL0     C83625   5.106   4.098   5.319  0.7652  0.3331  1.0403
  620MOL0     C83626   5.120   3.942   5.326  0.5724 -0.8209 -1.2078
  620MOL0     C83627   5.192   3.905   5.461 -1.0963  0.2940 -0.1436
  620MOL0     C83628   5.344   3.920   5.456 -0.1721  0.5842  1.2629
  620MOL0     C83629   5.413   3.853   5.564  0.7051 -0.6612  0.1278
  620MOL0     C83630   5.476   3.789   5.646 -0.5458  0.1530  0.6845
  620MOL0     C83631   4.807   4.151   5.106  0.7381  0.4063 -0.0546
  620MOL0     C83632   4.668   4.115   5.092 -0.1568 -0.6179  0.7834
  620MOL0     H83633   4.282   3.828   4.968 -0.4881  2.0219 -2.8391
  620MOL0     H83634   4.067   3.761   4.950  0.3627 -1.6259  1.8235
  620MOL0     H83635   3.806   3.763   4.917 -0.1648  4.5376 -0.3033
  620MOL0     H83636   3.850   3.678   5.067  0.6472  1.0904  1.1267
  620MOL0     H83637   3.601   3.855   5.023  1.4188  0.4873 -1.7829
  620MOL0     H83638   3.597   3.689   4.971 -0.1198 -1.5277  0.7928
  620MOL0     H83639   3.678   3.599   5.180 -1.0105 -0.4302  1.2573
  620MOL0     H83640   3.681   3.752   5.254  2.1746  0.9951 -2.0244
  620MOL0     H83641   3.420   3.762   5.265 -1.9615 -1.6201  2.1748
  620MOL0     H83642   3.425   3.638   5.136 -0.3826  3.7409 -0.6501
  620MOL0     H83643   3.521   3.591   5.420  1.4562  0.4940 -1.4426
  620MOL0     H83644   3.347   3.596   5.374  0.0051  2.7915 -2.4802
  620MOL0     H83645   3.345   3.418   5.243  0.3603  1.9918 -0.3439
  620MOL0     H83646   3.519   3.410   5.211  0.2863  3.0539 -0.7060
  620MOL0     H83647   3.491   3.402   5.492  0.2853 -1.5496  0.0525
  620MOL0     H83648   3.366   3.298   5.453 -1.2877  1.6562  0.7832
  620MOL0     H83649   3.527   3.164   5.312 -0.4550  1.1812 -0.2127
  620MOL0     H83650   3.557   3.169   5.491  3.5306  2.0231  1.0983
  620MOL0     H83651   3.721   3.410   5.533 -0.8429  4.0465 -1.1926
  620MOL0     H83652   4.052   3.473   5.316  0.1376  0.0061 -0.4412
  620MOL0     H83653   3.966   3.589   5.421  0.5651 -0.6879  4.9949
  620MOL0     H83654   4.099   3.332   5.514 -0.0810 -0.1355  1.8304
  620MOL0     H83655   3.989   3.432   5.620  2.3803  1.1725  1.9883
  620MOL0     H83656   4.134   3.609   5.607  2.0263  0.5819 -0.6695
  620MOL0     H83657   4.252   3.524   5.499 -0.7313  3.1542 -1.6211
  620MOL0     H83658   4.328   3.520   5.737 -1.3103  0.5583  1.6676
  620MOL0     H83659   4.262   3.358   5.715  2.1498 -0.6721  5.9465
  620MOL0     H83660   3.937   3.413   5.997 -0.8848 -0.7865  0.6290
  620MOL0     H83661   3.864   3.184   6.145 -0.8348 -1.1599  5.7368
  620MOL0     H83662   3.933   3.218   6.301  0.7654 -3.1697 -0.0092
  620MOL0     H83663   3.869   3.348   6.208  1.8808  1.1940  2.4583
  620MOL0     H83664   4.213   2.899   6.398  0.5929 -1.8424 -1.2457
  620MOL0     H83665   4.310   2.757   6.557 -2.2363 -0.9969 -3.4797
  620MOL0     H83666   4.441   2.693   6.760 -0.1577 -1.3563 -1.2604
  620MOL0     H83667   4.501   2.605   6.619  1.9192 -0.5713 -0.4405
  620MOL0     H83668   4.653   2.658   6.884 -1.3331 -2.3524  1.6626
  620MOL0     H83669   4.597   2.501   6.808 -2.9930 -1.0291 -5.5668
  620MOL0     H83670   4.835   2.521   6.804  1.1315  0.7417 -0.1868
  620MOL0     H83671   4.817   2.681   6.733 -0.4008  1.0202  2.4704
  620MOL0     H83672   4.705   2.430   6.609  0.2972 -0.5244  1.2971
  620MOL0     H83673   4.707   2.592   6.527 -0.7928 -3.0341 -2.0812
  620MOL0     H83674   4.873   2.448   6.421  0.6773 -0.1438 -0.9932
  620MOL0     H83675   4.946   2.429   6.586  3.2111  1.1984 -2.0438
  620MOL0     H83676   4.945   2.693   6.428  1.7899  3.7945  1.3465
  620MOL0     H83677   4.959   2.692   6.604 -0.5511 -0.9201  0.0435
  620MOL0     H83678   5.128   2.524   6.421 -3.8358 -2.9445  0.7527
  620MOL0     H83679   5.143   2.532   6.595 -1.8477  1.6186  2.1954
  620MOL0     H83680   5.302   2.700   6.498  0.0113  1.8183  1.4826
  620MOL0     H83681   5.175   2.786   6.571  1.3369  2.3293 -0.9930
  620MOL0     H83682   4.684   2.955   6.492 -0.3953 -0.6941 -0.2324
  620MOL0     H83683   4.579   3.107   6.334  1.3964 -2.2756 -1.2787
  620MOL0     H83684   4.399   3.284   6.129  0.1300 -0.1097  0.4495
  620MOL0     H83685   4.364   3.407   5.929  1.9497 -2.6080  1.4276
  620MOL0     H83686   3.944   4.072   5.227  0.8335 -0.1208  0.5765
  620MOL0     H83687   4.197   4.141   5.246  0.2447  0.1830 -1.0113
  620MOL0     H83688   4.617   4.043   5.423 -0.7255  1.0118  0.0299
  620MOL0     H83689   4.857   4.053   5.431 -1.1211  0.4120  1.3030
  620MOL0     H83690   5.202   4.142   5.290 -1.5357  2.9868 -3.5169
  620MOL0     H83691   5.077   4.144   5.415 -0.8314  1.6776 -0.0272
  620MOL0     H83692   5.178   3.913   5.238  1.7561 -0.5400 -0.5390
  620MOL0     H83693   5.022   3.895   5.336  0.8682 -0.9986  1.4597
  620MOL0     H83694   5.169   3.799   5.471 -0.3583  0.2993  2.5547
  620MOL0     H83695   5.157   3.949   5.555  1.0257  0.0717  0.8070
  620MOL0     H83696   5.372   4.026   5.462 -3.2170  1.5094  1.0251
  620MOL0     H83697   5.387   3.874   5.366  1.4494  0.2189  2.1976
  620MOL0     H83698   5.530   3.732   5.719  2.2212 -0.6311 -1.7971
  620MOL0     H83699   4.859   4.177   5.014 -0.1198  1.5136 -0.2504
  620MOL0     H83700   4.627   4.103   4.992 -2.0537 -0.9005  1.5588
  621MOL0     O83701   4.522   6.731   3.489 -1.1542 -0.4516  0.2501
  621MOL0     C83702   4.422   6.695   3.553 -0.2197 -0.4887 -0.8687
  621MOL0     O83703   4.322   6.791   3.590 -0.4484  0.3542 -0.0727
  621MOL0     C83704   4.325   6.913   3.529 -0.1469  0.3067  0.0174
  621MOL0     C83705   4.230   6.954   3.436 -0.1013  0.4725 -0.5579
  621MOL0     C83706   4.230   7.085   3.390 -0.5785  0.6576 -0.3125
  621MOL0     C83707   4.325   7.181   3.437 -0.8541 -0.4170 -0.2662
  621MOL0     O83708   4.317   7.313   3.395  0.5119 -0.4574 -0.3078
  621MOL0     C83709   4.356   7.423   3.483  1.0792 -0.7782 -0.2978
  621MOL0     C83710   4.359   7.556   3.407  0.0920 -0.6461  0.4395
  621MOL0     C83711   4.501   7.607   3.362  0.6157  0.6691 -0.5728
  621MOL0     C83712   4.557   7.534   3.240  0.4358  0.5358  0.8123
  621MOL0     C83713   4.681   7.607   3.175  0.0602  0.4319 -0.6647
  621MOL0     C83714   4.804   7.563   3.252  1.6903 -0.0758  0.2077
  621MOL0     C83715   4.928   7.664   3.217 -0.1456  0.9578 -0.1358
  621MOL0     C83716   5.049   7.634   3.303 -0.8515 -0.2384 -0.0537
  621MOL0     N83717   5.011   7.645   3.448 -0.4015  0.2195 -0.1209
  621MOL0     C83718   5.022   7.754   3.530  0.5231 -0.3329 -0.3194
  621MOL0     C83719   4.972   7.709   3.643  0.1060  0.5058 -0.5374
  621MOL0     C83720   4.970   7.776   3.777  0.2239 -0.0084 -0.1288
  621MOL0     C83721   5.052   7.911   3.778 -0.1940  0.2363 -0.9383
  621MOL0     C83722   5.103   7.966   3.909  0.8437  0.2496  0.1880
  621MOL0     C83723   4.988   7.975   4.020  0.5050  0.0233 -0.1441
  621MOL0     O83724   4.887   8.067   3.971  0.0146  0.4434 -0.5073
  621MOL0     C83725   4.808   8.131   4.067  0.0314 -0.8592  0.8380
  621MOL0     C83726   4.725   8.249   4.030  0.1726 -0.3965 -0.5039
  621MOL0     C83727   4.646   8.314   4.133  0.2827  0.9869  0.9261
  621MOL0     C83728   4.578   8.438   4.081 -0.0610 -0.1242 -0.4955
  621MOL0     C83729   4.671   8.281   4.265 -0.1843 -0.1243  0.1690
  621MOL0     C83730   4.593   8.346   4.371  0.0676  0.8488 -1.1278
  621MOL0     O83731   4.644   8.332   4.494 -0.2352  0.1521  0.2253
  621MOL0     C83732   4.562   8.376   4.590 -0.8800 -0.7280  0.3182
  621MOL0     C83733   4.458   8.296   4.638 -1.3702 -0.1383  0.4076
  621MOL0     C83734   4.383   8.340   4.743  0.0815  0.1072  0.9102
  621MOL0     C83735   4.404   8.465   4.804  0.0490 -0.2557  0.2983
  621MOL0     O83736   4.306   8.516   4.889  0.3063  0.6771 -0.0050
  621MOL0     C83737   4.301   8.650   4.924  0.6718  0.4696 -0.1376
  621MOL0     C83738   4.388   8.671   5.047  0.0177  0.9702 -0.7142
  621MOL0     C83739   4.407   8.805   5.096 -0.2962  1.2294 -0.3328
  621MOL0     C83740   4.476   8.895   4.991  0.0464 -0.0150 -0.4234
  621MOL0     C83741   4.521   9.025   5.057  0.3882 -0.3025  0.1292
  621MOL0     C83742   4.556   9.128   4.954  0.7919  0.1262  0.2709
  621MOL0     C83743   4.682   9.099   4.869  0.2269 -0.5406 -1.0118
  621MOL0     C83744   4.725   9.222   4.788  0.1764 -0.2772 -0.7366
  621MOL0    Cl83745   4.603   9.282   4.676 -0.0299  0.2761 -0.2395
  621MOL0     C83746   4.520   8.536   4.777 -0.2762  1.0525 -0.5685
  621MOL0     C83747   4.598   8.485   4.673  0.3844  0.9703 -0.0155
  621MOL0     O83748   4.496   8.404   4.343 -0.1955  0.0462  0.0218
  621MOL0     C83749   4.750   8.163   4.300  0.6188 -0.4159  0.7317
  621MOL0     C83750   4.821   8.087   4.197  0.0719 -1.1641 -0.0595
  621MOL0     N83751   4.925   7.576   3.632 -0.1495 -0.7691 -0.6331
  621MOL0     N83752   4.961   7.538   3.520 -0.4612  0.2295  0.1627
  621MOL0     C83753   4.419   7.141   3.538 -0.8962  0.6356  1.6601
  621MOL0     C83754   4.422   7.009   3.567 -0.3451  0.0192 -0.5654
  621MOL0     C83755   4.399   6.555   3.583  0.6726  0.3817  0.4473
  621MOL0     C83756   4.294   6.524   3.676  0.1203 -0.1024  0.6309
  621MOL0     C83757   4.273   6.388   3.704  0.5096  1.1790  0.0850
  621MOL0     C83758   4.363   6.278   3.659 -0.4556 -0.1364 -0.4698
  621MOL0     O83759   4.347   6.143   3.694 -0.1197 -0.5446 -0.0575
  621MOL0     C83760   4.221   6.094   3.744 -0.7353 -0.5492  0.4237
  621MOL0     C83761   4.235   5.960   3.808  0.8167  0.1360  0.4930
  621MOL0     C83762   4.101   5.887   3.837 -0.2531  0.0712  0.7820
  621MOL0     C83763   4.078   5.768   3.746 -0.4942  0.1410 -0.0228
  621MOL0     C83764   4.086   5.788   3.595  0.8646 -0.2158  0.0702
  621MOL0     C83765   4.088   5.780   3.472 -0.2987 -0.4078 -0.5470
  621MOL0     C83766   4.468   6.322   3.575  0.1028  0.6071  0.1115
  621MOL0     C83767   4.484   6.456   3.536 -0.3040 -0.1915 -0.2328
  621MOL0     H83768   4.158   6.874   3.417  2.4242 -2.2302  0.5333
  621MOL0     H83769   4.149   7.108   3.322 -0.4102  0.1562 -0.6875
  621MOL0     H83770   4.278   7.427   3.559 -0.5533 -1.7074 -1.8359
  621MOL0     H83771   4.453   7.409   3.531  1.1349 -2.6674 -0.8760
  621MOL0     H83772   4.298   7.550   3.316  3.1564  2.4477 -2.0920
  621MOL0     H83773   4.340   7.633   3.482  1.4999 -1.2242  1.4206
  621MOL0     H83774   4.488   7.713   3.339  0.2126  0.5248 -1.0108
  621MOL0     H83775   4.570   7.585   3.444  1.4612  2.9630 -0.5908
  621MOL0     H83776   4.577   7.427   3.255  0.3110  0.3096 -0.5324
  621MOL0     H83777   4.486   7.543   3.158  0.2896  1.4757  1.0301
  621MOL0     H83778   4.699   7.570   3.074  0.3556  2.4200 -1.3883
  621MOL0     H83779   4.665   7.714   3.157  0.6936  0.2663 -2.4571
  621MOL0     H83780   4.777   7.579   3.357 -0.6718 -0.6641 -0.2758
  621MOL0     H83781   4.820   7.455   3.241 -3.7907 -1.1004 -0.4231
  621MOL0     H83782   4.959   7.654   3.113 -2.1302  0.8285 -0.7695
  621MOL0     H83783   4.889   7.763   3.240 -0.1900  0.5668  1.6613
  621MOL0     H83784   5.118   7.713   3.271 -0.9020 -0.3277 -0.3847
  621MOL0     H83785   5.102   7.539   3.291  2.9101  1.6406 -0.1021
  621MOL0     H83786   5.039   7.859   3.512 -1.5657 -0.2234 -2.1709
  621MOL0     H83787   4.871   7.812   3.807  0.5249  0.4310  0.3605
  621MOL0     H83788   5.016   7.714   3.853  3.0638  0.3122 -1.4555
  621MOL0     H83789   5.003   7.992   3.724 -0.1398  0.6503 -0.3739
  621MOL0     H83790   5.141   7.882   3.721  0.4315  1.4828 -0.6122
  621MOL0     H83791   5.164   8.057   3.904 -0.1218  0.9989  1.5692
  621MOL0     H83792   5.166   7.881   3.935 -0.4870 -1.2031 -1.1765
  621MOL0     H83793   5.030   8.021   4.110 -2.9688  1.5846  0.8803
  621MOL0     H83794   4.943   7.878   4.041  1.5361 -1.0345 -2.5331
  621MOL0     H83795   4.726   8.270   3.924  2.0012  1.1494 -0.2291
  621MOL0     H83796   4.600   8.530   4.137 -2.0143 -1.7825  3.3619
  621MOL0     H83797   4.601   8.457   3.976  0.0693  2.7789 -0.0195
  621MOL0     H83798   4.471   8.414   4.084 -0.4895  0.5754 -4.8024
  621MOL0     H83799   4.446   8.198   4.592  1.0684 -0.0128 -0.6452
  621MOL0     H83800   4.298   8.277   4.767  1.2532 -1.3701  1.3099
  621MOL0     H83801   4.323   8.716   4.840  2.0457 -1.9467 -1.7827
  621MOL0     H83802   4.195   8.662   4.951  0.2422 -2.2159 -0.3148
  621MOL0     H83803   4.325   8.619   5.120  1.3191  0.8258  0.3519
  621MOL0     H83804   4.480   8.615   5.031 -1.4140 -1.2005 -1.8064
  621MOL0     H83805   4.459   8.791   5.191  1.4675 -1.6371 -1.5688
  621MOL0     H83806   4.312   8.854   5.115 -0.2362  2.4568 -2.7278
  621MOL0     H83807   4.568   8.846   4.957 -1.5675 -1.0125 -3.8686
  621MOL0     H83808   4.407   8.909   4.906 -1.1222  3.5687  0.9576
  621MOL0     H83809   4.602   8.998   5.125  1.6204  2.0791 -0.2584
  621MOL0     H83810   4.434   9.064   5.110 -0.2456  0.4250 -1.3881
  621MOL0     H83811   4.468   9.139   4.890  0.9742  1.6751  0.2589
  621MOL0     H83812   4.579   9.222   5.004 -1.4827  0.2354  1.2249
  621MOL0     H83813   4.674   9.005   4.814 -0.9194 -2.0985  1.6518
  621MOL0     H83814   4.757   9.083   4.947 -0.2160  0.4023 -0.3883
  621MOL0     H83815   4.809   9.184   4.730  0.3070 -4.1604  1.6090
  621MOL0     H83816   4.758   9.301   4.857 -1.9629 -0.7698  0.9741
  621MOL0     H83817   4.555   8.635   4.804  3.1422  0.1125 -1.0147
  621MOL0     H83818   4.692   8.532   4.644  2.1180 -2.6123 -0.8540
  621MOL0     H83819   4.763   8.137   4.404 -0.2363  1.8605  1.4563
  621MOL0     H83820   4.871   7.998   4.235  0.0958 -0.5459  1.4196
  621MOL0     H83821   4.494   7.207   3.580 -1.6784  3.1022 -0.5581
  621MOL0     H83822   4.500   6.972   3.633 -1.1604  0.6462  0.7963
  621MOL0     H83823   4.230   6.601   3.717  2.7587  2.2178  0.6938
  621MOL0     H83824   4.197   6.368   3.779  2.6082 -1.0492  1.8002
  621MOL0     H83825   4.180   6.153   3.827 -0.5176 -0.0528  0.1885
  621MOL0     H83826   4.158   6.098   3.655  0.2904  2.9622 -0.3002
  621MOL0     H83827   4.272   5.996   3.905 -0.1475  2.4558  0.0651
  621MOL0     H83828   4.310   5.897   3.759 -3.1346 -3.4680 -1.6248
  621MOL0     H83829   4.021   5.960   3.840  1.7726  2.5954 -1.2372
  621MOL0     H83830   4.097   5.845   3.938  1.7601 -2.2633  0.0169
  621MOL0     H83831   3.988   5.712   3.771  1.3962 -2.7960  0.7509
  621MOL0     H83832   4.158   5.702   3.780  0.0856  0.9906  0.3051
  621MOL0     H83833   4.104   5.777   3.366  0.5967 -0.6537 -0.4117
  621MOL0     H83834   4.522   6.234   3.541  0.0780  0.9010 -0.7077
  621MOL0     H83835   4.574   6.468   3.477  1.9780 -0.8377  2.8409
  622MOL0     O83836   8.800  11.181   5.524 -0.4962 -0.1420 -0.7519
  622MOL0     C83837   8.879  11.167   5.619  0.2226  0.0837  1.0028
  622MOL0     O83838   8.860  11.083   5.718  0.5316  0.7373 -0.0171
  622MOL0     C83839   8.739  11.026   5.746 -0.3228 -0.3738 -0.3297
  622MOL0     C83840   8.739  10.911   5.815  0.1959  1.4564  0.5930
  622MOL0     C83841   8.621  10.847   5.855  0.6769 -0.6116  0.2010
  622MOL0     C83842   8.499  10.909   5.834  0.6163 -0.1971 -0.4797
  622MOL0     O83843   8.377  10.857   5.866  1.0859  0.0014 -0.2114
  622MOL0     C83844   8.362  10.719   5.917 -0.2351 -0.8311  0.8245
  622MOL0     C83845   8.348  10.706   6.068  0.3734  0.0720  1.2991
  622MOL0     C83846   8.283  10.824   6.142  0.5003  0.9253  0.4670
  622MOL0     C83847   8.385  10.933   6.180  1.2808  0.8766  0.6431
  622MOL0     C83848   8.343  11.009   6.304 -0.9623  0.2129 -0.2604
  622MOL0     C83849   8.208  11.065   6.300  0.7227 -0.2209 -0.1392
  622MOL0     C83850   8.152  11.134   6.429  0.4915  0.2659 -0.3942
  622MOL0     C83851   8.217  11.277   6.445 -0.4356  0.5113  0.1411
  622MOL0     N83852   8.351  11.273   6.509 -0.9255  0.2665 -0.2741
  622MOL0     C83853   8.464  11.313   6.450 -0.2851  0.6887  0.2923
  622MOL0     C83854   8.557  11.323   6.559  0.3797 -1.1016  1.6699
  622MOL0     C83855   8.709  11.351   6.568  0.9900 -0.6898  0.5224
  622MOL0     C83856   8.719  11.502   6.551 -0.2156 -0.3573 -0.3822
  622MOL0     C83857   8.860  11.561   6.570 -0.6226  0.4542  0.1148
  622MOL0     C83858   8.944  11.553   6.437 -0.3010 -0.0072 -0.0826
  622MOL0     O83859   8.880  11.626   6.336 -0.7380 -0.5291 -0.0284
  622MOL0     C83860   8.942  11.702   6.245 -0.8308  0.1743 -0.3325
  622MOL0     C83861   8.856  11.796   6.180  0.2842  0.2084  0.3296
  622MOL0     C83862   8.904  11.887   6.090 -1.2756  0.1733 -0.5607
  622MOL0     C83863   8.799  11.989   6.046 -0.6501 -0.8655  0.2138
  622MOL0     C83864   9.041  11.892   6.062  0.3351 -0.1396  0.0902
  622MOL0     C83865   9.100  11.989   5.965 -0.3881  0.0847  0.0861
  622MOL0     O83866   9.024  12.091   5.911  0.3343 -0.2587  0.2884
  622MOL0     C83867   9.076  12.200   5.860  0.0853  0.0346  0.9192
  622MOL0     C83868   9.145  12.195   5.737 -0.8181  0.5899  0.0142
  622MOL0     C83869   9.204  12.300   5.677 -0.3158 -0.6809 -0.5126
  622MOL0     C83870   9.204  12.427   5.742 -0.1457  0.0380  0.4537
  622MOL0     O83871   9.251  12.544   5.687  0.7565 -0.8540  0.2735
  622MOL0     C83872   9.263  12.551   5.543 -0.0454  0.3350  0.4317
  622MOL0     C83873   9.254  12.695   5.482 -0.3015  0.4120  0.7698
  622MOL0     C83874   9.348  12.793   5.552 -0.3706 -0.3253 -0.0268
  622MOL0     C83875   9.497  12.789   5.497 -0.1965 -0.9749 -0.1944
  622MOL0     C83876   9.571  12.904   5.569  0.4625 -0.8526 -0.7826
  622MOL0     C83877   9.723  12.913   5.548  0.2023  0.3356  1.1352
  622MOL0     C83878   9.797  12.791   5.581  0.2940  0.3286  0.8544
  622MOL0     C83879   9.939  12.802   5.574 -0.1540  0.8575  0.9376
  622MOL0    Cl83880  10.005  12.921   5.686 -0.3545 -0.5708 -0.0860
  622MOL0     C83881   9.143  12.437   5.868  0.6467  0.3834 -0.1243
  622MOL0     C83882   9.075  12.321   5.922 -0.3226  0.0772 -0.2293
  622MOL0     O83883   9.217  11.969   5.935 -0.8142 -0.7290 -1.1842
  622MOL0     C83884   9.126  11.805   6.130 -0.7095 -0.7156 -0.0484
  622MOL0     C83885   9.079  11.699   6.210  0.9384  0.4457 -0.9766
  622MOL0     N83886   8.493  11.292   6.676 -0.1795 -0.0137 -0.1678
  622MOL0     N83887   8.373  11.272   6.641  0.3190 -0.8061  0.1199
  622MOL0     C83888   8.502  11.024   5.756  1.1252 -0.3875 -0.9066
  622MOL0     C83889   8.616  11.091   5.725 -1.6629 -0.1520 -1.0181
  622MOL0     C83890   9.010  11.239   5.608  0.5600  0.2231  0.1451
  622MOL0     C83891   9.046  11.304   5.492  0.0975 -0.5596  0.1828
  622MOL0     C83892   9.160  11.392   5.486 -0.0809 -0.4737 -0.5780
  622MOL0     C83893   9.248  11.404   5.597 -0.3040  0.0326  0.3740
  622MOL0     O83894   9.365  11.479   5.598 -0.6370 -1.3331 -0.3568
  622MOL0     C83895   9.410  11.559   5.487  0.5201  0.4355  0.1872
  622MOL0     C83896   9.532  11.641   5.523  0.4032 -1.0062  0.4647
  622MOL0     C83897   9.609  11.695   5.394 -0.1117 -0.0045  0.6074
  622MOL0     C83898   9.546  11.820   5.342  0.2351  0.0691  0.3773
  622MOL0     C83899   9.459  11.797   5.232 -0.4292  0.2876 -0.0852
  622MOL0     C83900   9.383  11.776   5.143  0.6229  1.1931 -0.0899
  622MOL0     C83901   9.219  11.317   5.704 -0.0066 -0.3906 -0.3998
  622MOL0     C83902   9.103  11.240   5.712  0.3690  1.2169  0.1458
  622MOL0     H83903   8.833  10.858   5.833 -2.2215 -3.3444  0.7267
  622MOL0     H83904   8.618  10.760   5.921 -0.2508 -0.4728  0.3538
  622MOL0     H83905   8.270  10.674   5.879 -0.8526  1.1539 -0.1565
  622MOL0     H83906   8.444  10.655   5.882  0.9918  1.3152 -0.4262
  622MOL0     H83907   8.272  10.629   6.081 -1.3900  1.7531  1.4682
  622MOL0     H83908   8.443  10.690   6.120  1.2860 -0.9354 -0.5611
  622MOL0     H83909   8.197  10.865   6.088 -0.5982  2.7639  3.3708
  622MOL0     H83910   8.245  10.780   6.235 -0.7246  0.6510 -0.1485
  622MOL0     H83911   8.485  10.888   6.190  0.5045 -1.4564 -1.1902
  622MOL0     H83912   8.395  11.008   6.102 -2.2757  2.1275  1.2369
  622MOL0     H83913   8.355  10.950   6.396 -1.6139 -0.4864 -0.6076
  622MOL0     H83914   8.419  11.087   6.311  2.8413 -2.9613 -2.3200
  622MOL0     H83915   8.207  11.131   6.213  0.3862 -1.8257 -1.4074
  622MOL0     H83916   8.136  10.984   6.283 -0.4678 -0.1412  3.6875
  622MOL0     H83917   8.048  11.160   6.411 -0.7237 -2.1897  2.4190
  622MOL0     H83918   8.153  11.069   6.517 -0.5129  2.7330  1.5486
  622MOL0     H83919   8.144  11.333   6.503 -1.5007 -0.8847  0.1876
  622MOL0     H83920   8.230  11.328   6.349  4.4043  0.4738  0.4931
  622MOL0     H83921   8.477  11.319   6.342 -0.4191  0.0656  0.2392
  622MOL0     H83922   8.747  11.331   6.668  3.8725 -1.4365 -0.6173
  622MOL0     H83923   8.765  11.287   6.498  0.1433 -1.0139  0.1224
  622MOL0     H83924   8.668  11.548   6.637 -1.8985 -2.9037  0.0917
  622MOL0     H83925   8.679  11.541   6.457 -0.1886 -0.1870 -0.3239
  622MOL0     H83926   8.913  11.517   6.654 -0.4459 -3.5639 -1.8815
  622MOL0     H83927   8.858  11.666   6.602 -0.9554  0.2921  0.6352
  622MOL0     H83928   8.960  11.449   6.406  0.2287  0.5398 -1.7153
  622MOL0     H83929   9.046  11.592   6.449  0.2173 -0.7884 -1.6418
  622MOL0     H83930   8.752  11.792   6.210 -0.3446  4.6180 -0.6062
  622MOL0     H83931   8.833  12.085   6.005  2.9846 -2.7113 -1.5433
  622MOL0     H83932   8.738  11.942   5.969  1.7892 -1.9374 -1.1807
  622MOL0     H83933   8.737  12.004   6.135 -1.3239 -0.5406 -0.3067
  622MOL0     H83934   9.169  12.103   5.684 -1.9971  1.9153 -3.0358
  622MOL0     H83935   9.242  12.297   5.576 -0.9741 -2.8414 -0.7272
  622MOL0     H83936   9.352  12.505   5.499 -1.9116 -1.2313 -1.9482
  622MOL0     H83937   9.182  12.484   5.513 -2.6363  3.2989  0.2950
  622MOL0     H83938   9.279  12.693   5.376 -2.3979 -0.0485  0.2421
  622MOL0     H83939   9.148  12.724   5.486 -1.2003 -2.6454  3.1409
  622MOL0     H83940   9.343  12.771   5.659 -1.2655  0.4422  0.0998
  622MOL0     H83941   9.312  12.895   5.538  2.8139  0.6600 -2.1268
  622MOL0     H83942   9.543  12.693   5.519  0.2220 -0.6519  0.3539
  622MOL0     H83943   9.494  12.809   5.389 -2.5886 -0.7539 -0.1568
  622MOL0     H83944   9.567  12.890   5.677 -0.7696  0.1382 -0.6759
  622MOL0     H83945   9.529  13.004   5.555 -2.5332 -1.7062  1.0890
  622MOL0     H83946   9.746  12.934   5.443  0.0472 -0.4811  0.9279
  622MOL0     H83947   9.760  12.994   5.611 -1.8542  0.6175  2.0686
  622MOL0     H83948   9.775  12.709   5.513  1.3620  1.0604 -0.4151
  622MOL0     H83949   9.763  12.762   5.681  2.1750 -2.4720  0.7835
  622MOL0     H83950   9.986  12.815   5.476  1.5573 -0.1983  1.5745
  622MOL0     H83951   9.977  12.702   5.597 -1.1217 -0.6131 -3.0567
  622MOL0     H83952   9.149  12.535   5.915 -2.0621 -0.3100  1.8915
  622MOL0     H83953   9.025  12.334   6.018  0.1981 -2.6380  0.4928
  622MOL0     H83954   9.231  11.819   6.104 -1.0869  3.3221 -0.0523
  622MOL0     H83955   9.153  11.634   6.255 -1.9705 -1.3105  1.6759
  622MOL0     H83956   8.403  11.066   5.743  1.0663 -0.2940 -0.1724
  622MOL0     H83957   8.612  11.197   5.698 -1.4199  0.6464  1.7534
  622MOL0     H83958   8.984  11.290   5.405  0.2299 -3.4536  0.4720
  622MOL0     H83959   9.175  11.439   5.389  5.2962 -3.3454 -1.5362
  622MOL0     H83960   9.443  11.484   5.414  0.7846 -1.6874  2.3387
  622MOL0     H83961   9.332  11.632   5.461  3.1368  3.5752  0.5061
  622MOL0     H83962   9.610  11.588   5.578  1.5087 -1.3472 -1.3413
  622MOL0     H83963   9.500  11.718   5.594 -0.2178  1.9568 -2.7486
  622MOL0     H83964   9.613  11.617   5.318  1.3398  0.2486  0.4067
  622MOL0     H83965   9.713  11.715   5.419  0.2804 -0.2370 -0.7562
  622MOL0     H83966   9.634  11.873   5.304 -1.1167  0.2641 -2.7489
  622MOL0     H83967   9.508  11.870   5.432 -1.9843 -1.2249  0.2197
  622MOL0     H83968   9.317  11.745   5.064 -0.9630 -2.0367  2.3021
  622MOL0     H83969   9.277  11.312   5.795 -2.9077 -2.3734  1.5003
  622MOL0     H83970   9.076  11.190   5.805 -0.3467 -2.1123 -1.6957
  623MOL0     O83971  10.166   3.539  11.436  0.2997 -0.6627 -0.1788
  623MOL0     C83972  10.248   3.606  11.373  0.1836  0.7574  0.2890
  623MOL0     O83973  10.354   3.664  11.430  0.2799  0.3008 -0.0750
  623MOL0     C83974  10.373   3.668  11.568  0.0812 -0.7771  0.3754
  623MOL0     C83975  10.393   3.783  11.639  0.2280 -0.5379 -0.0459
  623MOL0     C83976  10.426   3.785  11.768 -0.9054  0.6129  0.5016
  623MOL0     C83977  10.435   3.663  11.841  0.1766 -0.5434  0.4892
  623MOL0     O83978  10.486   3.683  11.970 -0.1419 -0.7071 -0.4096
  623MOL0     C83979  10.541   3.563  12.034 -0.8565 -0.0910  0.5674
  623MOL0     C83980  10.435   3.480  12.110 -0.0854 -0.7641  0.9215
  623MOL0     C83981  10.498   3.359  12.181 -1.1934  0.2251 -0.1598
  623MOL0     C83982  10.600   3.407  12.288  0.1508 -0.3188 -0.6432
  623MOL0     C83983  10.609   3.320  12.408 -0.7869 -0.6509  0.6276
  623MOL0     C83984  10.732   3.335  12.492 -0.1209  0.0535  0.4318
  623MOL0     C83985  10.730   3.245  12.609  0.5439 -1.0245  0.3243
  623MOL0     C83986  10.728   3.096  12.581  0.4686  0.5127 -0.5399
  623MOL0     N83987  10.840   3.045  12.495  0.2989 -0.0778  0.0131
  623MOL0     C83988  10.979   3.078  12.492  0.0089  0.0534  0.3039
  623MOL0     C83989  11.033   2.981  12.413 -0.3635 -0.2081 -0.8876
  623MOL0     C83990  11.174   2.967  12.374 -0.4940  0.1449  0.5952
  623MOL0     C83991  11.251   3.093  12.358  0.2694 -0.5641 -0.9738
  623MOL0     C83992  11.196   3.170  12.239  0.2827 -0.1225  0.3869
  623MOL0     C83993  11.273   3.293  12.193  0.4650  0.4347  0.3813
  623MOL0     O83994  11.282   3.382  12.299  0.2031 -0.3815 -0.1228
  623MOL0     C83995  11.175   3.470  12.321 -0.3973  0.6253  0.4478
  623MOL0     C83996  11.210   3.598  12.371  0.2697 -0.1985  0.0069
  623MOL0     C83997  11.127   3.710  12.393  0.0568 -0.1824  0.2128
  623MOL0     C83998  11.186   3.838  12.461 -0.1492  0.9422  0.2099
  623MOL0     C83999  10.990   3.692  12.356  0.3530  0.1404 -1.0275
  623MOL0     C84000  10.885   3.801  12.373  0.4533 -0.1301  1.1102
  623MOL0     O84001  10.756   3.757  12.324 -0.1921  0.1774 -0.3864
  623MOL0     C84002  10.659   3.862  12.334  1.1845 -0.4196  0.4255
  623MOL0     C84003  10.619   3.914  12.457 -0.1308 -0.6496  0.6269
  623MOL0     C84004  10.509   4.000  12.467 -0.3061  1.0044 -0.6396
  623MOL0     C84005  10.426   4.026  12.360 -0.2694  0.2153 -0.2639
  623MOL0     O84006  10.320   4.109  12.383  0.1771  0.2712 -0.4321
  623MOL0     C84007  10.207   4.105  12.292  0.2080  0.3449 -0.7402
  623MOL0     C84008  10.077   4.098  12.362  0.9431 -0.5099  0.8532
  623MOL0     C84009   9.944   4.127  12.280 -0.1474  0.2649 -0.6503
  623MOL0     C84010   9.922   4.279  12.277  0.1031 -0.7494  0.2770
  623MOL0     C84011   9.789   4.322  12.203 -0.3574  0.0131 -1.0599
  623MOL0     C84012   9.656   4.274  12.267  1.0344 -0.1622  0.4185
  623MOL0     C84013   9.537   4.294  12.156  0.9059  0.3257 -1.4561
  623MOL0     C84014   9.401   4.265  12.218  0.5773 -0.7035 -0.0599
  623MOL0    Cl84015   9.284   4.277  12.088 -0.5362  0.4339 -0.4586
  623MOL0     C84016  10.477   3.980  12.239 -0.2353  0.7980  0.9217
  623MOL0     C84017  10.588   3.892  12.229  0.0204 -0.3325  0.4829
  623MOL0     O84018  10.912   3.915  12.401  0.2500  0.6765 -0.1086
  623MOL0     C84019  10.952   3.566  12.301 -0.3039 -1.0703  0.0906
  623MOL0     C84020  11.035   3.463  12.276 -0.3794  0.2216  0.5531
  623MOL0     N84021  10.930   2.903  12.367  0.0274  0.1312 -0.0457
  623MOL0     N84022  10.821   2.929  12.425  0.7093 -0.0353 -0.3506
  623MOL0     C84023  10.405   3.542  11.777 -0.0163  0.3132 -0.0745
  623MOL0     C84024  10.376   3.553  11.642  0.5123 -0.3650 -0.1643
  623MOL0     C84025  10.219   3.632  11.230 -0.3846  0.7203  0.0525
  623MOL0     C84026  10.294   3.729  11.155  0.3551  0.5287 -0.5349
  623MOL0     C84027  10.259   3.760  11.024 -0.7115  1.9317 -0.5605
  623MOL0     C84028  10.145   3.703  10.971 -0.3409 -0.1576 -0.1465
  623MOL0     O84029  10.109   3.744  10.837  0.1385  0.2817  0.5812
  623MOL0     C84030  10.106   3.882  10.798 -0.0314  0.3722 -0.4906
  623MOL0     C84031  10.017   3.907  10.688  0.0084 -0.0709  0.0245
  623MOL0     C84032  10.098   3.861  10.556 -0.5653  0.1444 -0.4390
  623MOL0     C84033  10.006   3.854  10.433 -0.7295  0.2037 -0.0193
  623MOL0     C84034  10.034   3.975  10.348  0.1393  0.1938  0.1664
  623MOL0     C84035  10.065   4.072  10.292 -0.8397 -0.9115  0.1479
  623MOL0     C84036  10.077   3.601  11.040 -0.2262  0.5480  0.8512
  623MOL0     C84037  10.117   3.560  11.169 -0.7057 -0.1158 -0.7863
  623MOL0     H84038  10.382   3.877  11.586 -4.5347 -1.1546 -0.5277
  623MOL0     H84039  10.441   3.876  11.824  0.1936  1.7419 -1.5281
  623MOL0     H84040  10.602   3.521  11.954  0.1914  0.2596  1.1730
  623MOL0     H84041  10.622   3.593  12.101 -1.5946  1.5975  0.7771
  623MOL0     H84042  10.378   3.538  12.183 -0.8667 -0.7816  0.3333
  623MOL0     H84043  10.361   3.434  12.044  1.6581 -0.7400 -1.1398
  623MOL0     H84044  10.426   3.296  12.234  0.8210 -1.7755  0.3456
  623MOL0     H84045  10.558   3.299  12.112  0.9851 -0.9008  2.5205
  623MOL0     H84046  10.691   3.378  12.233 -1.0580 -2.1314 -1.8417
  623MOL0     H84047  10.603   3.514  12.309  2.1230 -0.2995 -0.7904
  623MOL0     H84048  10.528   3.333  12.481 -0.9127  1.9198  0.1199
  623MOL0     H84049  10.613   3.217  12.372  3.0962 -0.8695  1.2692
  623MOL0     H84050  10.828   3.321  12.442  1.1238  0.3147  2.6282
  623MOL0     H84051  10.741   3.438  12.529  2.2685  1.1537 -2.7354
  623MOL0     H84052  10.828   3.261  12.655 -0.4982  0.7873  2.1371
  623MOL0     H84053  10.652   3.276  12.680 -0.2802  0.6353 -1.2349
  623MOL0     H84054  10.634   3.060  12.537  2.0859 -3.4250 -1.2442
  623MOL0     H84055  10.749   3.050  12.678  2.0351  3.4742  0.6548
  623MOL0     H84056  11.026   3.164  12.538  1.3176 -0.0917 -0.7157
  623MOL0     H84057  11.224   2.894  12.439 -2.7842 -1.3849  0.7469
  623MOL0     H84058  11.165   2.914  12.279 -4.6831 -1.6945  1.7767
  623MOL0     H84059  11.360   3.087  12.345  0.5051  0.8352  0.0304
  623MOL0     H84060  11.234   3.150  12.450  2.1431  1.3778 -1.7530
  623MOL0     H84061  11.093   3.204  12.253  0.2134  0.5873 -1.5789
  623MOL0     H84062  11.186   3.104  12.153 -2.1789  0.3287  0.2580
  623MOL0     H84063  11.202   3.331  12.119  1.9917 -1.7637 -2.4361
  623MOL0     H84064  11.366   3.260  12.147 -0.9507 -1.5713 -1.2394
  623MOL0     H84065  11.316   3.609  12.394  0.6852  2.5014 -2.6402
  623MOL0     H84066  11.154   3.926  12.405 -2.5308  0.7331  1.1312
  623MOL0     H84067  11.150   3.851  12.563  3.1054  0.6699  1.5054
  623MOL0     H84068  11.295   3.839  12.465 -0.1341 -0.6893  1.4078
  623MOL0     H84069  10.672   3.889  12.548  4.9150  0.8948 -1.5402
  623MOL0     H84070  10.478   4.032  12.566 -1.6427 -3.6380  0.6784
  623MOL0     H84071  10.213   4.194  12.228  0.3118 -0.7337 -2.2826
  623MOL0     H84072  10.216   4.013  12.234  1.0879  0.4327 -0.7565
  623MOL0     H84073  10.066   3.994  12.391  0.2719 -1.0747 -1.2751
  623MOL0     H84074  10.081   4.148  12.459  2.1606  2.0981 -0.4366
  623MOL0     H84075   9.867   4.078  12.340  2.3186 -1.0475  1.7157
  623MOL0     H84076   9.949   4.081  12.181  0.1445 -0.1277 -0.4584
  623MOL0     H84077   9.922   4.325  12.376  0.1946 -0.8120  0.3077
  623MOL0     H84078  10.012   4.325  12.234  0.0090 -0.4108  0.4488
  623MOL0     H84079   9.803   4.284  12.101 -3.0255 -2.9210 -0.4776
  623MOL0     H84080   9.776   4.431  12.200 -1.4762 -0.0962 -0.6471
  623MOL0     H84081   9.672   4.168  12.291  1.1645 -0.6698 -1.7194
  623MOL0     H84082   9.627   4.336  12.352  0.2030  0.9924 -0.6615
  623MOL0     H84083   9.565   4.235  12.068  0.6392  2.3817 -2.9940
  623MOL0     H84084   9.524   4.398  12.123 -0.4000  1.0224  1.0134
  623MOL0     H84085   9.374   4.326  12.305  0.1621 -2.0181  0.7711
  623MOL0     H84086   9.387   4.160  12.246 -2.1449 -0.0080  1.6716
  623MOL0     H84087  10.412   3.985  12.152  0.3072  1.3130  0.5383
  623MOL0     H84088  10.598   3.842  12.133 -1.5331  1.9683 -1.0030
  623MOL0     H84089  10.847   3.557  12.279 -0.0926 -0.4372 -1.3330
  623MOL0     H84090  10.986   3.379  12.229  1.7298 -0.5497 -0.3872
  623MOL0     H84091  10.422   3.442  11.816  0.3381 -0.5959 -2.4114
  623MOL0     H84092  10.358   3.464  11.581 -0.6105 -0.3573  0.1437
  623MOL0     H84093  10.386   3.769  11.197  2.2544 -2.7462 -1.1987
  623MOL0     H84094  10.323   3.830  10.971  1.0787 -0.1479 -1.2481
  623MOL0     H84095  10.077   3.944  10.883  1.2665  0.6046 -0.1974
  623MOL0     H84096  10.205   3.921  10.770 -0.7220  2.4813 -0.1210
  623MOL0     H84097  10.014   4.015  10.668 -0.4499 -0.0864 -0.0004
  623MOL0     H84098   9.913   3.873  10.696 -0.5449  0.1943 -3.9191
  623MOL0     H84099  10.156   3.770  10.573  0.1150  0.9490  1.8716
  623MOL0     H84100  10.183   3.927  10.537  0.9283 -2.2895 -3.0647
  623MOL0     H84101   9.899   3.848  10.451 -0.5315 -3.4410  0.7432
  623MOL0     H84102  10.026   3.761  10.380 -0.4713  1.0476 -1.4523
  623MOL0     H84103  10.101   4.166  10.253 -3.6692 -0.5164 -1.7910
  623MOL0     H84104   9.996   3.547  10.992 -0.0354 -0.9531  2.1341
  623MOL0     H84105  10.062   3.481  11.219 -0.2606 -0.9536 -1.5951
  624MOL0     O84106   9.939   3.112   5.719 -0.1903  0.3083  0.2080
  624MOL0     C84107   9.867   3.207   5.676 -0.1594  0.3415  0.6750
  624MOL0     O84108   9.736   3.187   5.623  0.4334 -0.4417  0.0560
  624MOL0     C84109   9.704   3.052   5.598 -0.0251  0.0469  0.0193
  624MOL0     C84110   9.693   2.957   5.703  1.0840  0.0609 -0.0605
  624MOL0     C84111   9.671   2.820   5.683  0.1396  0.4276 -0.3125
  624MOL0     C84112   9.672   2.777   5.560 -0.3131  0.3511  0.4408
  624MOL0     O84113   9.660   2.637   5.543 -0.6573 -0.5428 -1.3170
  624MOL0     C84114   9.575   2.588   5.439 -0.4391  0.1170 -0.5378
  624MOL0     C84115   9.602   2.438   5.431 -0.9265 -0.2592 -0.1826
  624MOL0     C84116   9.650   2.409   5.279 -0.8929  0.0841  0.1958
  624MOL0     C84117   9.709   2.268   5.258 -0.0697  0.3986 -0.1908
  624MOL0     C84118   9.774   2.258   5.114  0.5562  0.2256 -0.3575
  624MOL0     C84119   9.822   2.115   5.094  0.6210 -0.0871  0.3018
  624MOL0     C84120   9.804   2.084   4.945 -0.0109 -0.5300 -0.7741
  624MOL0     C84121   9.837   1.941   4.910 -0.2973 -0.1136 -0.6742
  624MOL0     N84122   9.983   1.911   4.910  0.3427  1.0900 -0.9481
  624MOL0     C84123  10.098   1.982   4.872 -0.6458 -0.0179  0.7855
  624MOL0     C84124  10.199   1.901   4.910 -0.3560 -0.0527  0.2206
  624MOL0     C84125  10.341   1.944   4.889  0.9034 -0.1715 -0.7718
  624MOL0     C84126  10.412   1.821   4.840 -0.5190 -0.0171  0.1038
  624MOL0     C84127  10.541   1.870   4.761  0.0421 -0.3788 -0.1767
  624MOL0     C84128  10.618   1.752   4.710  0.3744 -0.2415 -0.1148
  624MOL0     O84129  10.748   1.782   4.662  0.1960 -1.1885  0.4595
  624MOL0     C84130  10.771   1.866   4.545 -0.0065  0.5999  0.1816
  624MOL0     C84131  10.908   1.898   4.501  0.2618  0.5222 -0.2200
  624MOL0     C84132  10.937   1.967   4.384  0.4811  0.2033  0.6171
  624MOL0     C84133  11.086   2.007   4.361  0.4723 -0.3515  0.2389
  624MOL0     C84134  10.830   1.997   4.301 -0.3498 -0.0445  0.2620
  624MOL0     C84135  10.846   2.071   4.173 -0.2726 -0.5283  0.4059
  624MOL0     O84136  10.972   2.132   4.154  0.5871  0.1517  0.7034
  624MOL0     C84137  11.002   2.175   4.025  0.5187  0.1194 -0.1150
  624MOL0     C84138  10.918   2.247   3.944 -0.6584  0.9801 -0.5906
  624MOL0     C84139  10.959   2.301   3.817 -0.2160 -0.1285 -0.5983
  624MOL0     C84140  11.098   2.306   3.789  0.5473 -0.5493  0.1829
  624MOL0     O84141  11.144   2.350   3.670 -0.7355  0.5226 -0.3672
  624MOL0     C84142  11.068   2.319   3.554 -0.3085 -0.0274  0.9451
  624MOL0     C84143  11.082   2.167   3.525  0.4514  0.3369  0.0540
  624MOL0     C84144  10.967   2.113   3.422  0.6346  0.1484 -0.3020
  624MOL0     C84145  10.987   1.968   3.384 -0.4124  0.1584  0.8228
  624MOL0     C84146  10.894   1.924   3.280  0.0809 -0.4590  0.1249
  624MOL0     C84147  10.956   1.894   3.144  0.0107 -0.7677 -0.0844
  624MOL0     C84148  11.051   2.001   3.074  0.5174 -0.2599  0.3390
  624MOL0     C84149  11.085   1.971   2.929  0.4694  0.3640  0.3208
  624MOL0    Cl84150  11.258   1.917   2.902  0.0785  0.7114  0.0349
  624MOL0     C84151  11.186   2.228   3.867 -0.8277 -0.5745  0.0463
  624MOL0     C84152  11.140   2.166   3.981 -0.1496  0.9281 -0.3754
  624MOL0     O84153  10.752   2.068   4.089 -0.2487  0.5123  0.1459
  624MOL0     C84154  10.700   1.962   4.342  0.7715  0.1693  0.8221
  624MOL0     C84155  10.670   1.907   4.467 -0.8170 -0.7164 -0.3622
  624MOL0     N84156  10.151   1.792   4.968  0.7875  0.0706 -0.2560
  624MOL0     N84157  10.026   1.800   4.965 -0.1170 -0.5903 -0.5497
  624MOL0     C84158   9.699   2.858   5.450  0.1081 -0.1264 -0.2110
  624MOL0     C84159   9.712   2.997   5.468 -1.0131 -0.6489  1.1196
  624MOL0     C84160   9.925   3.340   5.699  0.2895  0.2456 -1.1015
  624MOL0     C84161   9.853   3.453   5.661 -1.0498  0.5160  1.4068
  624MOL0     C84162   9.914   3.580   5.684 -0.3630  0.5903 -0.0418
  624MOL0     C84163  10.037   3.593   5.743  0.0397 -0.4704  0.2815
  624MOL0     O84164  10.078   3.724   5.778 -0.1389 -0.6112 -0.5552
  624MOL0     C84165  10.144   3.763   5.899 -0.1362 -0.7383  0.1536
  624MOL0     C84166  10.225   3.885   5.870  1.0682  0.0552 -0.9676
  624MOL0     C84167  10.362   3.884   5.935 -0.1056 -0.0612  0.0733
  624MOL0     C84168  10.426   4.019   5.914  1.1042 -0.0254 -0.1837
  624MOL0     C84169  10.540   4.042   6.008  0.2364 -0.2704  0.1435
  624MOL0     C84170  10.636   4.055   6.074  0.1585 -0.8974 -0.6361
  624MOL0     C84171  10.109   3.484   5.786 -1.2637 -0.5532 -0.8994
  624MOL0     C84172  10.051   3.360   5.762 -0.6958  0.7889 -0.2879
  624MOL0     H84173   9.708   3.006   5.799  0.3726 -0.0142  0.0929
  624MOL0     H84174   9.653   2.760   5.772 -0.3299  0.5714 -0.3079
  624MOL0     H84175   9.467   2.595   5.454 -0.0624  2.4594  1.8367
  624MOL0     H84176   9.585   2.634   5.340  2.7956 -4.7498 -2.9139
  624MOL0     H84177   9.667   2.403   5.511  0.3111  2.9121  0.3125
  624MOL0     H84178   9.508   2.383   5.437 -0.4476 -1.1446 -0.5834
  624MOL0     H84179   9.566   2.424   5.211 -0.4449  1.1347 -0.1307
  624MOL0     H84180   9.741   2.464   5.257 -0.5289  0.1958  1.8026
  624MOL0     H84181   9.790   2.245   5.328  1.7493 -0.7586 -2.5151
  624MOL0     H84182   9.639   2.183   5.261 -0.8253  0.9436 -1.3823
  624MOL0     H84183   9.713   2.291   5.030 -1.4933 -2.8695 -0.2654
  624MOL0     H84184   9.860   2.326   5.108  1.6287 -1.1115 -0.7786
  624MOL0     H84185   9.923   2.090   5.127  0.8113 -0.0683 -0.2684
  624MOL0     H84186   9.761   2.051   5.159 -0.2341  0.2421 -0.1536
  624MOL0     H84187   9.700   2.092   4.912  0.2985  0.3070 -1.5715
  624MOL0     H84188   9.865   2.159   4.894 -1.7583 -0.8457 -3.5602
  624MOL0     H84189   9.803   1.912   4.810  0.6829 -3.2119 -0.2151
  624MOL0     H84190   9.791   1.870   4.979  1.1194  0.6264  1.1175
  624MOL0     H84191  10.091   2.077   4.820 -0.6449  0.3259  1.4151
  624MOL0     H84192  10.348   2.005   4.799 -1.6054 -0.2803 -1.1066
  624MOL0     H84193  10.389   1.999   4.970  2.3605 -0.2992 -1.5285
  624MOL0     H84194  10.353   1.766   4.766  0.5055 -0.1080 -0.6670
  624MOL0     H84195  10.429   1.747   4.919  2.9916 -2.6040 -2.7464
  624MOL0     H84196  10.599   1.936   4.826  2.7382 -2.2787 -0.4961
  624MOL0     H84197  10.512   1.933   4.676 -3.9709 -0.9033  0.5994
  624MOL0     H84198  10.563   1.703   4.629  0.4762  0.7875 -0.8285
  624MOL0     H84199  10.611   1.679   4.791 -0.2955  1.3058  1.2611
  624MOL0     H84200  10.989   1.855   4.558 -0.4777  0.2086  0.6236
  624MOL0     H84201  11.163   1.963   4.425  0.5163  1.8944  1.8646
  624MOL0     H84202  11.130   1.984   4.263  2.1694 -0.0244  0.8857
  624MOL0     H84203  11.095   2.111   4.393  3.4964 -0.7934  1.1852
  624MOL0     H84204  10.818   2.264   3.984 -0.0027  1.2271  0.9687
  624MOL0     H84205  10.880   2.342   3.754 -1.9777 -3.6834 -0.9098
  624MOL0     H84206  10.965   2.356   3.554 -1.1085 -2.1111  0.4746
  624MOL0     H84207  11.107   2.377   3.470  0.8988 -1.5959  0.3808
  624MOL0     H84208  11.181   2.148   3.482 -0.8689 -0.0136 -3.1154
  624MOL0     H84209  11.064   2.132   3.628 -1.7798  0.8881 -0.0833
  624MOL0     H84210  10.985   2.163   3.326  0.8550  1.3833  0.3637
  624MOL0     H84211  10.868   2.137   3.461  0.0281  0.6955 -2.0812
  624MOL0     H84212  11.090   1.949   3.355 -0.5438  0.8889 -0.1573
  624MOL0     H84213  10.975   1.919   3.481 -1.0771  1.5273  1.4670
  624MOL0     H84214  10.817   2.001   3.273  1.9505  2.0404  3.5129
  624MOL0     H84215  10.836   1.838   3.314  0.0619 -0.9302 -1.0678
  624MOL0     H84216  11.014   1.802   3.142  1.2588  0.0103 -2.3226
  624MOL0     H84217  10.869   1.875   3.081 -0.3805  1.2935 -0.2329
  624MOL0     H84218  11.141   2.002   3.136 -1.4840  2.5393  3.5531
  624MOL0     H84219  11.003   2.096   3.100 -0.8364 -0.8367  0.0317
  624MOL0     H84220  11.071   2.062   2.870 -0.2062  0.0723  0.0269
  624MOL0     H84221  11.015   1.901   2.883  0.0626  0.9233  0.0735
  624MOL0     H84222  11.295   2.228   3.862 -0.8546  0.2801 -3.4378
  624MOL0     H84223  11.201   2.098   4.040 -1.9714  0.6188  1.2711
  624MOL0     H84224  10.619   2.002   4.283  0.9496 -1.7237 -0.8075
  624MOL0     H84225  10.565   1.895   4.493 -0.7359 -2.9151 -0.8417
  624MOL0     H84226   9.691   2.823   5.348 -1.6209 -0.1195 -0.1049
  624MOL0     H84227   9.729   3.063   5.385  1.7061 -2.2973  0.2563
  624MOL0     H84228   9.754   3.447   5.617 -1.3933  1.5494  2.0075
  624MOL0     H84229   9.866   3.669   5.644  0.1119  0.8287 -0.0897
  624MOL0     H84230  10.064   3.790   5.968 -2.0188 -0.5655 -1.9581
  624MOL0     H84231  10.193   3.677   5.943 -1.1002 -0.7614  1.2168
  624MOL0     H84232  10.164   3.960   5.922 -2.4187 -3.5297  0.6465
  624MOL0     H84233  10.233   3.898   5.762 -1.1369  2.8268 -0.9480
  624MOL0     H84234  10.426   3.802   5.903  1.4704  1.6654 -1.5012
  624MOL0     H84235  10.334   3.863   6.039 -0.7533  0.3624 -0.0125
  624MOL0     H84236  10.346   4.093   5.924  1.8820  1.0244 -1.2956
  624MOL0     H84237  10.464   4.014   5.811  3.3835  0.0510  0.5873
  624MOL0     H84238  10.732   4.072   6.119 -0.1151  0.8361 -0.6480
  624MOL0     H84239  10.197   3.492   5.848 -1.8797 -1.3813  0.1164
  624MOL0     H84240  10.096   3.265   5.790 -2.2894 -0.3533 -1.4388
  625MOL0     O84241   3.001   9.128   8.438 -1.0380 -0.2383  0.6618
  625MOL0     C84242   3.111   9.187   8.451 -0.6703 -0.5578 -0.3349
  625MOL0     O84243   3.240   9.134   8.470 -0.2292  0.4306 -0.3522
  625MOL0     C84244   3.269   9.002   8.438 -0.6746  0.2487 -1.1210
  625MOL0     C84245   3.363   8.972   8.348 -0.3706 -0.2853 -0.3433
  625MOL0     C84246   3.374   8.838   8.310 -0.2856 -0.0118  1.2032
  625MOL0     C84247   3.322   8.735   8.379  0.0175  0.3279 -0.0205
  625MOL0     O84248   3.336   8.600   8.348 -0.6268 -0.6901  0.0138
  625MOL0     C84249   3.297   8.560   8.216  0.8699 -0.3891 -0.8642
  625MOL0     C84250   3.305   8.407   8.195  0.1966  0.2305  0.4834
  625MOL0     C84251   3.446   8.355   8.170 -0.2537 -0.1547 -0.6836
  625MOL0     C84252   3.444   8.210   8.116  0.2052  0.4451  0.4881
  625MOL0     C84253   3.591   8.159   8.131  0.3720  0.0565  0.7590
  625MOL0     C84254   3.621   8.033   8.049  0.0389  0.8994  0.6131
  625MOL0     C84255   3.761   7.976   8.075 -0.1891 -0.9249  0.0912
  625MOL0     C84256   3.783   7.828   8.024  0.1176 -0.7997 -0.6112
  625MOL0     N84257   3.727   7.717   8.103  0.4912 -0.3921 -0.5379
  625MOL0     C84258   3.614   7.641   8.067  0.2307  0.1751 -0.0004
  625MOL0     C84259   3.580   7.564   8.172  0.1346 -0.4690  0.6989
  625MOL0     C84260   3.485   7.451   8.160 -0.0307  0.7401 -0.1116
  625MOL0     C84261   3.365   7.479   8.252 -0.4541  0.2647 -0.4898
  625MOL0     C84262   3.372   7.397   8.392  0.0925  0.2595 -0.0757
  625MOL0     C84263   3.236   7.397   8.457 -0.5636  0.9838 -0.5350
  625MOL0     O84264   3.186   7.256   8.467  0.3600 -0.1782 -0.3200
  625MOL0     C84265   3.122   7.219   8.578 -0.3245  0.3558  0.6780
  625MOL0     C84266   3.143   7.079   8.619 -0.1602 -0.7226  0.5570
  625MOL0     C84267   3.097   7.044   8.750  0.1118  0.1757  0.1258
  625MOL0     C84268   3.124   6.904   8.792 -0.2835 -0.6330 -0.6152
  625MOL0     C84269   3.017   7.134   8.824  0.2247  0.7007  0.2295
  625MOL0     C84270   2.954   7.105   8.951  0.3058  0.4531 -0.0064
  625MOL0     O84271   2.986   6.990   9.030 -0.1838 -0.4657 -0.1703
  625MOL0     C84272   2.896   6.956   9.137 -0.2611  0.5395  0.1126
  625MOL0     C84273   2.884   7.044   9.243  0.2516 -0.5220  0.0337
  625MOL0     C84274   2.805   7.002   9.349 -0.2308  1.5981  0.0273
  625MOL0     C84275   2.727   6.884   9.349 -0.4655  0.4279  0.1409
  625MOL0     O84276   2.642   6.864   9.460  0.1593  0.2952 -0.7228
  625MOL0     C84277   2.642   6.735   9.517 -0.1042  0.2961 -0.2146
  625MOL0     C84278   2.770   6.665   9.554  0.3473  0.1999 -0.6661
  625MOL0     C84279   2.860   6.761   9.634 -0.1498 -0.0352  1.0631
  625MOL0     C84280   3.000   6.703   9.638  0.4374  0.3384 -1.1864
  625MOL0     C84281   3.105   6.779   9.719  1.1905 -1.2914 -0.5017
  625MOL0     C84282   3.249   6.737   9.687 -0.2904  0.4138  0.5259
  625MOL0     C84283   3.283   6.592   9.721  0.3902  0.8566 -0.5162
  625MOL0     C84284   3.283   6.571   9.872 -0.6625  0.3315 -0.2967
  625MOL0    Cl84285   3.438   6.633   9.938  0.1525  0.2533 -0.2990
  625MOL0     C84286   2.737   6.798   9.244 -0.6203 -1.1031  1.0028
  625MOL0     C84287   2.821   6.841   9.136  0.2532  0.0156  0.0452
  625MOL0     O84288   2.872   7.191   8.994 -0.5546  0.2113  0.5479
  625MOL0     C84289   3.006   7.268   8.777 -0.1820  0.2657  0.7409
  625MOL0     C84290   3.059   7.309   8.657  0.5780  0.4698 -0.1493
  625MOL0     N84291   3.665   7.594   8.278  0.5189  0.2435 -0.1724
  625MOL0     N84292   3.757   7.684   8.233 -0.6531 -0.4754  0.3330
  625MOL0     C84293   3.238   8.759   8.485 -0.3273 -0.6103  0.0650
  625MOL0     C84294   3.205   8.894   8.503 -0.3828  0.2111  1.5041
  625MOL0     C84295   3.102   9.333   8.442  0.0335  0.6915 -0.3959
  625MOL0     C84296   2.970   9.392   8.430 -0.2702  0.5408  0.4721
  625MOL0     C84297   2.949   9.531   8.432  0.3389  0.0809  0.6600
  625MOL0     C84298   3.066   9.621   8.435 -0.1579  0.1505  0.7924
  625MOL0     O84299   3.046   9.756   8.408 -0.9545  0.1670  0.5330
  625MOL0     C84300   2.952   9.807   8.500 -0.4018  0.9972 -0.5047
  625MOL0     C84301   2.965   9.956   8.486  0.2800  0.1686 -0.0954
  625MOL0     C84302   2.907  10.010   8.356 -0.5420  0.6683  0.2185
  625MOL0     C84303   2.940  10.161   8.355  0.3633 -0.5982  0.5655
  625MOL0     C84304   2.839  10.248   8.425 -0.1243 -0.2730  1.2070
  625MOL0     C84305   2.752  10.324   8.468  0.0104  0.9223  0.3068
  625MOL0     C84306   3.192   9.562   8.422 -0.6093  0.0272 -0.0021
  625MOL0     C84307   3.213   9.425   8.434 -0.4531 -0.2122 -0.0527
  625MOL0     H84308   3.426   9.047   8.301 -0.0481 -1.5422 -1.9887
  625MOL0     H84309   3.445   8.826   8.230 -1.8583 -3.7146  0.1798
  625MOL0     H84310   3.196   8.593   8.188  2.0975  3.1086 -1.6525
  625MOL0     H84311   3.355   8.616   8.142  2.3886  0.6651  1.0366
  625MOL0     H84312   3.268   8.373   8.292  0.1598 -0.4820  0.2305
  625MOL0     H84313   3.246   8.379   8.107  0.8381  3.4492 -1.1271
  625MOL0     H84314   3.497   8.415   8.094  1.8682 -0.6573  0.2749
  625MOL0     H84315   3.490   8.364   8.269 -1.0389  0.1206 -0.3508
  625MOL0     H84316   3.381   8.141   8.174  0.4662 -0.6846 -0.5272
  625MOL0     H84317   3.404   8.195   8.015  0.7402 -0.5537  0.4097
  625MOL0     H84318   3.665   8.231   8.094  1.4048 -1.2917  0.1369
  625MOL0     H84319   3.622   8.151   8.236 -1.5822  0.7292  1.4398
  625MOL0     H84320   3.546   7.960   8.081  1.4450 -0.3470  1.2116
  625MOL0     H84321   3.598   8.048   7.943  0.8977 -0.7182  0.1649
  625MOL0     H84322   3.829   8.047   8.028  1.6502 -0.0688  3.6649
  625MOL0     H84323   3.781   7.990   8.182  2.9984 -3.5066 -0.0199
  625MOL0     H84324   3.891   7.811   8.030  0.6763  1.2838 -3.2983
  625MOL0     H84325   3.743   7.826   7.922  0.8205 -1.0933 -0.8877
  625MOL0     H84326   3.568   7.640   7.968 -1.4276 -1.6824  0.7372
  625MOL0     H84327   3.445   7.437   8.060 -1.1469  1.3588  0.2369
  625MOL0     H84328   3.536   7.361   8.196 -0.6309 -0.4203 -2.0021
  625MOL0     H84329   3.278   7.432   8.206  1.3837 -2.6598 -1.2688
  625MOL0     H84330   3.346   7.585   8.269  0.3203 -0.1239  4.1610
  625MOL0     H84331   3.442   7.447   8.459  0.4956  2.4558 -2.0146
  625MOL0     H84332   3.414   7.298   8.371  0.0305  0.3349 -0.5705
  625MOL0     H84333   3.159   7.450   8.400 -1.9716  0.0219  0.4040
  625MOL0     H84334   3.244   7.429   8.561  3.4567  0.6840 -0.5850
  625MOL0     H84335   3.193   7.016   8.546  0.3338 -0.8615  1.0124
  625MOL0     H84336   3.041   6.833   8.800  1.8046 -3.0484  1.3511
  625MOL0     H84337   3.191   6.850   8.724  0.5427 -0.0296 -0.3039
  625MOL0     H84338   3.165   6.904   8.893 -1.5660  1.4471 -0.0396
  625MOL0     H84339   2.920   7.145   9.257 -0.3900 -0.5723  2.5056
  625MOL0     H84340   2.815   7.062   9.438  1.5412  0.6931  0.4980
  625MOL0     H84341   2.591   6.755   9.611 -0.9645 -1.8529 -0.1613
  625MOL0     H84342   2.581   6.664   9.460  1.4124 -0.3179 -1.1649
  625MOL0     H84343   2.742   6.586   9.624  1.5347 -0.1725 -0.5857
  625MOL0     H84344   2.820   6.619   9.467 -0.9829 -2.5869 -0.0817
  625MOL0     H84345   2.815   6.771   9.733 -2.0676 -1.5493  0.4110
  625MOL0     H84346   2.852   6.863   9.595  0.7172  0.0608  1.1230
  625MOL0     H84347   2.996   6.605   9.687  0.7835  1.7825  1.9947
  625MOL0     H84348   3.033   6.683   9.536 -4.1521 -2.1424 -2.4631
  625MOL0     H84349   3.083   6.777   9.826  0.2745  4.8952 -0.1973
  625MOL0     H84350   3.078   6.883   9.695 -2.8332 -2.1450 -0.4463
  625MOL0     H84351   3.264   6.756   9.581  1.4451  1.3661  0.9030
  625MOL0     H84352   3.302   6.809   9.750 -5.0326  3.7020  1.3039
  625MOL0     H84353   3.377   6.566   9.671 -1.1395 -3.5895 -1.5794
  625MOL0     H84354   3.207   6.519   9.691 -0.4661  0.6395  1.9783
  625MOL0     H84355   3.274   6.464   9.892 -4.1824  0.6900  0.6864
  625MOL0     H84356   3.192   6.612   9.916 -1.4530  0.5299 -2.0088
  625MOL0     H84357   2.680   6.707   9.228 -0.5650 -0.8090 -1.0425
  625MOL0     H84358   2.825   6.770   9.054 -0.0906 -1.3898  1.2174
  625MOL0     H84359   2.967   7.342   8.847 -1.6649 -1.4166  1.7889
  625MOL0     H84360   3.045   7.412   8.625 -1.2484  0.8790  1.7318
  625MOL0     H84361   3.183   8.681   8.537 -0.1021 -0.9604 -0.2206
  625MOL0     H84362   3.119   8.927   8.560 -0.8880  0.9036  0.3732
  625MOL0     H84363   2.883   9.327   8.424 -1.2755  1.6895  1.8280
  625MOL0     H84364   2.854   9.584   8.423  1.1423  1.2432 -2.3095
  625MOL0     H84365   2.849   9.779   8.476 -0.6631 -0.3921  1.9437
  625MOL0     H84366   2.978   9.772   8.600  0.3592  1.3505 -0.5764
  625MOL0     H84367   3.072   9.977   8.485  0.7653 -2.0657  0.4588
  625MOL0     H84368   2.917  10.009   8.569 -4.3529 -1.3800 -1.4472
  625MOL0     H84369   2.804   9.985   8.331 -0.0220 -2.3460  0.7437
  625MOL0     H84370   2.973   9.972   8.277 -1.3174 -1.5236  0.5663
  625MOL0     H84371   2.936  10.182   8.248 -2.9824  0.4802  0.7947
  625MOL0     H84372   3.040  10.183   8.393 -0.7128  0.9464  2.6960
  625MOL0     H84373   2.683  10.383   8.526  0.0497 -0.5222  1.9136
  625MOL0     H84374   3.272   9.633   8.405 -0.9344  0.2684 -0.5412
  625MOL0     H84375   3.313   9.383   8.424 -0.2279  0.2187  0.3536
  626MOL0     O84376   8.086  10.446   9.105  0.3204 -0.0625 -0.4197
  626MOL0     C84377   8.136  10.338   9.143  0.5817  0.3646 -0.3638
  626MOL0     O84378   8.271  10.308   9.133 -0.2251 -0.0955 -0.5299
  626MOL0     C84379   8.345  10.402   9.064  1.0480  0.2634  0.8421
  626MOL0     C84380   8.329  10.404   8.926  0.6800 -0.2350  1.2682
  626MOL0     C84381   8.401  10.483   8.837 -0.0824  0.5000 -1.5370
  626MOL0     C84382   8.502  10.574   8.894  0.5143  0.2662  0.9117
  626MOL0     O84383   8.585  10.663   8.821 -0.2116  0.2728  0.6855
  626MOL0     C84384   8.615  10.629   8.683  0.7798 -0.0093 -1.1625
  626MOL0     C84385   8.517  10.685   8.583 -0.2809  0.1863  0.0998
  626MOL0     C84386   8.556  10.839   8.568  1.2926 -0.0511 -0.4615
  626MOL0     C84387   8.450  10.915   8.484 -0.3822  0.8852 -0.2696
  626MOL0     C84388   8.494  11.053   8.422  0.5891 -0.0770 -0.4384
  626MOL0     C84389   8.572  11.150   8.514  0.2545 -0.4147  0.6130
  626MOL0     C84390   8.496  11.225   8.628 -0.1100  0.1759 -0.3722
  626MOL0     C84391   8.381  11.313   8.584 -0.6043 -0.3952  0.2227
  626MOL0     N84392   8.346  11.408   8.686 -0.1392 -0.1736  0.4881
  626MOL0     C84393   8.411  11.524   8.722  0.0777 -0.3676  0.0409
  626MOL0     C84394   8.337  11.576   8.815  0.4213 -0.2973 -1.4746
  626MOL0     C84395   8.342  11.710   8.886  1.1189 -0.6053  0.3883
  626MOL0     C84396   8.216  11.792   8.864  0.0342  0.4040 -0.2315
  626MOL0     C84397   8.197  11.897   8.967  0.9283 -0.1120  0.4543
  626MOL0     C84398   8.059  11.965   8.961 -0.5848  0.0538  0.1712
  626MOL0     O84399   8.051  12.028   8.830  0.2201  0.4526  0.1226
  626MOL0     C84400   7.954  12.122   8.816 -0.0991  1.0330  0.9823
  626MOL0     C84401   7.849  12.153   8.905 -0.6203 -0.2154  0.6712
  626MOL0     C84402   7.754  12.258   8.870 -0.7901  0.6811 -0.5094
  626MOL0     C84403   7.632  12.274   8.968  0.2872  0.2052 -0.4518
  626MOL0     C84404   7.777  12.331   8.749 -0.6486 -0.0883  0.1826
  626MOL0     C84405   7.677  12.441   8.709  0.1761 -0.8031  0.7053
  626MOL0     O84406   7.700  12.486   8.584 -0.3403  0.7609 -0.0373
  626MOL0     C84407   7.596  12.551   8.519 -0.4562  1.5048  0.0715
  626MOL0     C84408   7.487  12.469   8.475  0.9746 -0.3871 -0.8506
  626MOL0     C84409   7.369  12.535   8.447  0.2681 -0.7593 -0.9014
  626MOL0     C84410   7.366  12.675   8.436  0.2320 -0.8292  0.8601
  626MOL0     O84411   7.246  12.733   8.386 -0.1882  0.4485 -0.0854
  626MOL0     C84412   7.156  12.749   8.488 -0.3639  0.5323 -0.1088
  626MOL0     C84413   7.024  12.779   8.425  0.3022 -0.2968 -0.1922
  626MOL0     C84414   6.910  12.803   8.533 -0.5156  1.0516  0.1457
  626MOL0     C84415   6.883  12.670   8.610 -0.5610 -0.2620 -0.2453
  626MOL0     C84416   6.808  12.558   8.534 -0.2265 -0.1384  0.1856
  626MOL0     C84417   6.684  12.614   8.471  0.4098 -0.3052  0.2303
  626MOL0     C84418   6.575  12.500   8.432 -0.6676  0.7211 -1.0232
  626MOL0     C84419   6.439  12.573   8.426 -0.3026 -0.0387 -0.3200
  626MOL0    Cl84420   6.321  12.481   8.331 -0.0226  0.2194 -0.1534
  626MOL0     C84421   7.482  12.755   8.466  1.1707  0.1985 -0.8513
  626MOL0     C84422   7.593  12.688   8.509 -0.7330 -0.8481 -0.4804
  626MOL0     O84423   7.582  12.473   8.778 -0.2064  0.0037 -0.1122
  626MOL0     C84424   7.888  12.304   8.665 -0.8462 -0.0108 -0.1476
  626MOL0     C84425   7.968  12.192   8.703 -0.4362  0.3120 -0.2197
  626MOL0     N84426   8.234  11.482   8.849 -0.4872 -1.3752  0.2165
  626MOL0     N84427   8.238  11.379   8.771  0.0222  0.2512 -0.7620
  626MOL0     C84428   8.511  10.585   9.029  0.2400  0.4322  0.2677
  626MOL0     C84429   8.447  10.490   9.112  0.3279 -0.3688 -0.9440
  626MOL0     C84430   8.041  10.239   9.194 -0.2097 -0.0260 -0.1217
  626MOL0     C84431   8.080  10.122   9.257 -1.5464 -0.2309 -0.2099
  626MOL0     C84432   7.999  10.016   9.288 -0.6866 -0.4574  0.5902
  626MOL0     C84433   7.868  10.027   9.250  0.4575 -0.3170 -1.0297
  626MOL0     O84434   7.785   9.939   9.302 -0.4409  0.6868  0.5381
  626MOL0     C84435   7.751   9.849   9.202  0.7436 -0.2576  0.2694
  626MOL0     C84436   7.681   9.728   9.274  0.2760 -0.2721 -0.2185
  626MOL0     C84437   7.761   9.664   9.389  0.8551 -0.0959  0.0736
  626MOL0     C84438   7.658   9.556   9.445 -0.7476  0.0491  0.3237
  626MOL0     C84439   7.736   9.478   9.543  0.5279  0.4341  0.0050
  626MOL0     C84440   7.801   9.412   9.619 -0.7894 -0.2433  0.2711
  626MOL0     C84441   7.813  10.142   9.178  0.2324  0.5918 -0.0097
  626MOL0     C84442   7.901  10.242   9.146 -1.0501 -0.1941 -0.6121
  626MOL0     H84443   8.252  10.342   8.879  2.2722 -0.2840 -1.4662
  626MOL0     H84444   8.374  10.476   8.732 -0.0382  2.4454 -1.7275
  626MOL0     H84445   8.714  10.661   8.651  1.5600 -1.1027  0.0812
  626MOL0     H84446   8.616  10.520   8.674 -2.5299 -0.4526  1.5418
  626MOL0     H84447   8.538  10.632   8.490  0.8312  1.2438 -0.2664
  626MOL0     H84448   8.411  10.670   8.605 -0.1330  0.5657  1.1282
  626MOL0     H84449   8.563  10.900   8.659  2.4669  1.8088 -1.7239
  626MOL0     H84450   8.654  10.847   8.519  1.9350 -2.4132  0.3341
  626MOL0     H84451   8.418  10.854   8.399 -1.8491  0.7011  0.3724
  626MOL0     H84452   8.360  10.921   8.547 -0.7818 -1.7870 -0.4676
  626MOL0     H84453   8.559  11.034   8.336 -0.0891 -1.2071 -0.7214
  626MOL0     H84454   8.407  11.103   8.378  1.2668 -0.0553 -1.8048
  626MOL0     H84455   8.651  11.085   8.554  0.2926 -0.5876  0.2558
  626MOL0     H84456   8.624  11.229   8.459  0.3581 -1.7838 -1.3571
  626MOL0     H84457   8.454  11.152   8.697  2.2185 -0.0852  0.8743
  626MOL0     H84458   8.563  11.288   8.687 -1.4995 -1.5540  3.3225
  626MOL0     H84459   8.293  11.250   8.564 -1.5872  1.4049 -1.4691
  626MOL0     H84460   8.397  11.372   8.493 -1.5204  0.8033  0.8168
  626MOL0     H84461   8.483  11.575   8.660 -1.7116  0.8859 -1.0930
  626MOL0     H84462   8.344  11.688   8.994  0.0526 -1.9206  0.1607
  626MOL0     H84463   8.433  11.764   8.857  0.7915 -0.0613  0.3633
  626MOL0     H84464   8.126  11.730   8.869  0.2605 -0.0255 -1.1762
  626MOL0     H84465   8.222  11.843   8.767  3.0246  0.3424 -0.1811
  626MOL0     H84466   8.275  11.974   8.960  2.3723 -1.1955  3.3019
  626MOL0     H84467   8.189  11.849   9.065 -0.1937 -1.9487 -0.4728
  626MOL0     H84468   8.043  12.032   9.046  1.2051  0.4049  0.2837
  626MOL0     H84469   7.980  11.898   8.995  2.8941 -3.7961  1.4740
  626MOL0     H84470   7.829  12.090   8.991  3.6711  0.1606  2.2244
  626MOL0     H84471   7.542  12.262   8.907 -0.5303 -2.7454  1.1509
  626MOL0     H84472   7.621  12.191   9.038 -0.7225  0.3654 -0.4133
  626MOL0     H84473   7.635  12.375   9.008  0.6439  1.8842 -4.2401
  626MOL0     H84474   7.479  12.362   8.461 -4.5762  0.0759 -4.6781
  626MOL0     H84475   7.277  12.487   8.416 -3.4966  6.5590 -3.5251
  626MOL0     H84476   7.158  12.653   8.540 -0.8093  0.8151  0.4409
  626MOL0     H84477   7.201  12.829   8.547  2.9571 -1.9139  0.9504
  626MOL0     H84478   7.028  12.872   8.368 -2.5879  0.1498  0.2146
  626MOL0     H84479   6.988  12.699   8.361 -1.8783 -0.5793  1.2899
  626MOL0     H84480   6.814  12.834   8.490 -1.1798 -1.1952 -0.1218
  626MOL0     H84481   6.952  12.874   8.605 -0.1007  1.5651 -0.5851
  626MOL0     H84482   6.979  12.632   8.647  1.4166  1.1595 -3.4860
  626MOL0     H84483   6.820  12.687   8.698  3.4379 -0.3587  2.9716
  626MOL0     H84484   6.779  12.480   8.605  1.5760  0.8894  2.1528
  626MOL0     H84485   6.869  12.519   8.452 -0.2157  2.2423 -1.0267
  626MOL0     H84486   6.642  12.690   8.538  0.4534  1.4317 -1.6086
  626MOL0     H84487   6.700  12.677   8.383 -3.5213  0.6296 -0.0156
  626MOL0     H84488   6.580  12.418   8.503 -2.6128  0.4879 -1.1079
  626MOL0     H84489   6.608  12.454   8.338 -2.9083  1.7000 -2.3670
  626MOL0     H84490   6.441  12.675   8.389 -1.9186  1.4516  3.2048
  626MOL0     H84491   6.411  12.569   8.532  3.5923  0.8739  0.8901
  626MOL0     H84492   7.485  12.863   8.467  0.5636  0.2154  0.0438
  626MOL0     H84493   7.671  12.748   8.553 -1.1984  1.0071 -2.0268
  626MOL0     H84494   7.895  12.358   8.571  1.7343  0.9696  0.5322
  626MOL0     H84495   8.059  12.174   8.647 -0.6600  1.4372 -0.9705
  626MOL0     H84496   8.576  10.657   9.078 -0.2095  2.7350 -2.3038
  626MOL0     H84497   8.440  10.512   9.218 -0.4666  1.7891 -1.3896
  626MOL0     H84498   8.180  10.114   9.299 -2.2396  1.8058  2.0683
  626MOL0     H84499   8.030   9.930   9.347  2.9547 -1.0138 -1.7501
  626MOL0     H84500   7.699   9.892   9.116  0.5519  0.8313  0.9099
  626MOL0     H84501   7.838   9.798   9.160 -0.4677 -2.5773  0.4318
  626MOL0     H84502   7.655   9.644   9.208  2.0467 -1.9332  1.0917
  626MOL0     H84503   7.583   9.770   9.299 -0.0896 -0.8923 -0.5893
  626MOL0     H84504   7.792   9.736   9.465 -1.5031 -0.9525  1.9802
  626MOL0     H84505   7.842   9.602   9.349 -0.7602 -1.5175 -1.1412
  626MOL0     H84506   7.638   9.488   9.362  4.4777 -0.7628 -0.6802
  626MOL0     H84507   7.571   9.599   9.494 -1.2735 -0.4993 -0.1144
  626MOL0     H84508   7.850   9.346   9.687 -0.7182  0.8976  1.3590
  626MOL0     H84509   7.713  10.136   9.137 -0.0819  1.9275  0.5225
  626MOL0     H84510   7.874  10.335   9.098  0.8861 -0.0457 -1.4661
  627MOL0     O84511   9.988  10.095   0.859  0.6098  0.4154 -0.1829
  627MOL0     C84512   9.988   9.981   0.809 -0.5245  0.1921  0.0234
  627MOL0     O84513   9.911   9.880   0.850 -0.7936  0.3918  0.5078
  627MOL0     C84514   9.805   9.912   0.937 -0.0345 -0.2153 -0.9597
  627MOL0     C84515   9.781   9.823   1.040 -0.2569 -0.2238 -0.4886
  627MOL0     C84516   9.683   9.849   1.140 -0.2620 -0.3272 -0.7797
  627MOL0     C84517   9.595   9.951   1.115  0.6073 -0.2182  0.1151
  627MOL0     O84518   9.497   9.963   1.210  0.0317 -1.1720  0.2179
  627MOL0     C84519   9.385  10.039   1.174  0.0257  0.4370 -1.3573
  627MOL0     C84520   9.279   9.984   1.085 -0.3912  0.0528  0.4192
  627MOL0     C84521   9.215   9.851   1.120  0.3259  0.3390  0.6323
  627MOL0     C84522   9.117   9.865   1.238 -0.2662 -0.2638 -0.3786
  627MOL0     C84523   9.040   9.738   1.264 -0.2391 -0.0509 -0.3005
  627MOL0     C84524   8.977   9.671   1.146 -0.7627  0.4707  0.1423
  627MOL0     C84525   8.890   9.549   1.194 -0.6063 -0.3186  0.3850
  627MOL0     C84526   8.754   9.598   1.255 -0.2571  0.9386 -0.5660
  627MOL0     N84527   8.678   9.494   1.330 -0.1217  0.1110  0.2834
  627MOL0     C84528   8.723   9.366   1.359  1.2016  0.2026 -0.0774
  627MOL0     C84529   8.615   9.300   1.415  1.2454 -0.2439  0.4197
  627MOL0     C84530   8.626   9.161   1.461 -0.6519  0.4376 -0.4423
  627MOL0     C84531   8.569   9.124   1.595  0.1035 -0.3498  0.1545
  627MOL0     C84532   8.563   8.977   1.635  0.0230  0.0185  0.2444
  627MOL0     C84533   8.692   8.925   1.671  0.0142  0.0810  0.6074
  627MOL0     O84534   8.681   8.815   1.767  0.2132  0.0208  0.1552
  627MOL0     C84535   8.671   8.685   1.725 -0.0110  0.4477  0.0149
  627MOL0     C84536   8.651   8.644   1.587 -0.5409  0.1746  0.1617
  627MOL0     C84537   8.644   8.509   1.548 -0.2651 -0.4569  0.2134
  627MOL0     C84538   8.636   8.465   1.403 -0.2367  0.6071  0.0555
  627MOL0     C84539   8.656   8.415   1.650  0.5207  0.5978 -0.0825
  627MOL0     C84540   8.654   8.271   1.618  0.1526 -0.0903  0.1034
  627MOL0     O84541   8.591   8.218   1.508 -0.4713  0.4506  0.3725
  627MOL0     C84542   8.584   8.081   1.478  0.9202 -0.1255  0.4857
  627MOL0     C84543   8.531   7.990   1.566  0.0230  0.4703  0.1662
  627MOL0     C84544   8.516   7.865   1.527 -0.1571 -0.2879  0.3238
  627MOL0     C84545   8.559   7.816   1.411 -0.9558 -0.7610  0.2970
  627MOL0     O84546   8.534   7.680   1.387  0.1268 -0.6295 -0.8930
  627MOL0     C84547   8.474   7.654   1.254  0.2500  0.1299  0.0742
  627MOL0     C84548   8.328   7.700   1.251  0.8082 -0.1642  0.3775
  627MOL0     C84549   8.320   7.836   1.173  0.4071  0.4301 -0.8176
  627MOL0     C84550   8.186   7.893   1.201  0.0283  0.0317  0.7569
  627MOL0     C84551   8.183   8.023   1.110  0.3608 -0.4729 -0.1266
  627MOL0     C84552   8.256   8.145   1.174  0.1596  0.3344  0.2907
  627MOL0     C84553   8.195   8.181   1.305 -0.3829  0.1064  0.0071
  627MOL0     C84554   8.044   8.210   1.305 -0.0115  0.1175  1.0083
  627MOL0    Cl84555   8.020   8.362   1.228 -0.2832  0.1511 -0.1939
  627MOL0     C84556   8.622   7.904   1.322  0.9691  1.1591 -0.6191
  627MOL0     C84557   8.633   8.040   1.357  0.3893 -0.2033 -0.4314
  627MOL0     O84558   8.715   8.205   1.699  0.6450  0.2066  0.8239
  627MOL0     C84559   8.669   8.458   1.787 -0.4052 -0.9813  0.3470
  627MOL0     C84560   8.661   8.589   1.824 -0.4932  0.6458  0.5553
  627MOL0     N84561   8.515   9.400   1.434 -0.1160 -0.0633 -0.1927
  627MOL0     N84562   8.555   9.515   1.376  0.0764 -0.5743  0.6622
  627MOL0     C84563   9.604  10.042   1.008 -0.2411  0.4151 -0.2717
  627MOL0     C84564   9.718  10.026   0.919  1.0196  0.4828 -0.7363
  627MOL0     C84565  10.093   9.949   0.702  0.9071  0.1263  0.3091
  627MOL0     C84566  10.152  10.045   0.619 -0.1893  0.3600 -0.5748
  627MOL0     C84567  10.243  10.010   0.520 -1.0163  0.3370 -1.2005
  627MOL0     C84568  10.282   9.879   0.500 -0.0925  0.2420 -0.5445
  627MOL0     O84569  10.369   9.866   0.398 -0.4846 -0.1026 -0.0967
  627MOL0     C84570  10.402   9.736   0.355 -0.2768 -0.5719 -0.5428
  627MOL0     C84571  10.550   9.690   0.346 -0.0884  0.1081 -0.3246
  627MOL0     C84572  10.621   9.775   0.239 -0.1339  0.8577 -0.6615
  627MOL0     C84573  10.780   9.750   0.244  0.2996 -1.0262  0.3037
  627MOL0     C84574  10.846   9.824   0.131  0.1134  0.1448 -0.6609
  627MOL0     C84575  10.915   9.883   0.052 -0.2549  0.1618 -0.6518
  627MOL0     C84576  10.220   9.777   0.582  0.6074 -0.7433  0.8114
  627MOL0     C84577  10.119   9.817   0.676  0.2464  0.0494 -0.3611
  627MOL0     H84578   9.851   9.740   1.043 -0.0226 -0.0434  2.9934
  627MOL0     H84579   9.673   9.779   1.223  2.5615 -1.4815 -1.2894
  627MOL0     H84580   9.329  10.044   1.268  3.5454 -3.2763  1.2751
  627MOL0     H84581   9.410  10.145   1.162  0.6683  0.2020 -2.2356
  627MOL0     H84582   9.200  10.058   1.065  1.6178  1.6504 -2.3356
  627MOL0     H84583   9.320   9.970   0.985  0.0822  0.4436  0.5572
  627MOL0     H84584   9.153   9.814   1.038 -2.2445 -0.7599  2.8963
  627MOL0     H84585   9.295   9.778   1.133 -2.1665 -2.2135  3.0501
  627MOL0     H84586   9.166   9.905   1.327  1.8778  0.8915 -1.9822
  627MOL0     H84587   9.044   9.943   1.216 -0.4441 -0.9873 -2.5910
  627MOL0     H84588   9.097   9.663   1.320 -0.9001  0.0147  0.4787
  627MOL0     H84589   8.958   9.776   1.325  1.5505 -0.5427  2.6103
  627MOL0     H84590   8.917   9.738   1.083 -1.5461  0.6681  1.0636
  627MOL0     H84591   9.051   9.630   1.077 -2.2084  0.4530 -1.4731
  627MOL0     H84592   8.876   9.480   1.110  0.6721 -0.6820  0.4470
  627MOL0     H84593   8.950   9.493   1.267  3.4373 -0.6597 -2.8322
  627MOL0     H84594   8.691   9.643   1.177 -2.4178 -2.5226 -1.0580
  627MOL0     H84595   8.767   9.674   1.333 -5.3399 -0.1908  1.8488
  627MOL0     H84596   8.817   9.322   1.327  0.3689 -1.4456 -0.3842
  627MOL0     H84597   8.565   9.102   1.393 -1.6330 -2.5161  2.6988
  627MOL0     H84598   8.732   9.134   1.464 -0.2852  1.4437 -2.6890
  627MOL0     H84599   8.461   9.140   1.595 -0.1199 -1.7081  0.9817
  627MOL0     H84600   8.623   9.171   1.678  1.0756 -1.3207  0.1026
  627MOL0     H84601   8.516   8.924   1.552  1.2954 -3.1418  1.3566
  627MOL0     H84602   8.486   8.971   1.712 -2.2764  0.9057 -1.8591
  627MOL0     H84603   8.764   8.999   1.707 -1.6535  1.0585  2.1069
  627MOL0     H84604   8.739   8.898   1.576 -0.2066  0.3829  0.4117
  627MOL0     H84605   8.634   8.717   1.508  1.1123  0.6726  0.2390
  627MOL0     H84606   8.536   8.427   1.382 -0.3378  0.6634  0.4339
  627MOL0     H84607   8.648   8.549   1.333 -0.2922  0.6933  0.1496
  627MOL0     H84608   8.708   8.387   1.376 -0.2626  0.4697  0.3887
  627MOL0     H84609   8.492   8.027   1.660 -2.9815 -1.7008 -0.0722
  627MOL0     H84610   8.461   7.795   1.590 -4.3822 -0.7355 -3.3023
  627MOL0     H84611   8.530   7.708   1.177 -2.6999  2.4337 -0.6212
  627MOL0     H84612   8.483   7.554   1.209  1.2618  0.9574 -1.7076
  627MOL0     H84613   8.263   7.624   1.207  1.1689 -1.7002  2.3425
  627MOL0     H84614   8.292   7.709   1.354  2.1433 -2.6142  1.1203
  627MOL0     H84615   8.327   7.823   1.065 -1.9877  1.1716 -1.1205
  627MOL0     H84616   8.399   7.900   1.215 -1.1078  1.1492  1.0594
  627MOL0     H84617   8.111   7.819   1.171  1.4406 -0.2697 -2.3033
  627MOL0     H84618   8.167   7.915   1.307  1.6529 -0.0217  1.0839
  627MOL0     H84619   8.077   8.046   1.097  0.7178  5.1729  3.5728
  627MOL0     H84620   8.229   8.007   1.012  2.3133  0.4252  0.5921
  627MOL0     H84621   8.359   8.111   1.183  0.1865  0.6729  1.4230
  627MOL0     H84622   8.264   8.238   1.117  0.5160  0.0305 -0.1598
  627MOL0     H84623   8.250   8.264   1.351  0.8637 -0.9334  0.4432
  627MOL0     H84624   8.214   8.094   1.368 -3.2781 -1.3259 -0.9313
  627MOL0     H84625   8.007   8.219   1.407 -0.8754  0.1957  0.6959
  627MOL0     H84626   7.980   8.134   1.258 -1.6922  3.2968 -2.3744
  627MOL0     H84627   8.641   7.872   1.220  2.0560 -1.4650  0.3350
  627MOL0     H84628   8.679   8.109   1.287  2.2637 -3.3892 -2.6005
  627MOL0     H84629   8.684   8.395   1.875  1.1472 -1.1549 -0.0196
  627MOL0     H84630   8.677   8.621   1.926  3.1088 -0.1593  0.4068
  627MOL0     H84631   9.538  10.129   1.004 -3.2011 -1.7014 -2.9848
  627MOL0     H84632   9.735  10.103   0.844  0.7831  2.1734  0.8684
  627MOL0     H84633  10.105  10.143   0.628  0.7655  0.7142  1.1716
  627MOL0     H84634  10.283  10.098   0.472 -2.1849  2.3683  1.2819
  627MOL0     H84635  10.361   9.654   0.415  0.2214  0.9042  1.9067
  627MOL0     H84636  10.365   9.731   0.252 -0.3386  0.3580 -0.5686
  627MOL0     H84637  10.553   9.583   0.322 -0.9902  0.1594 -0.7153
  627MOL0     H84638  10.586   9.710   0.447 -0.2788  1.9972 -0.6003
  627MOL0     H84639  10.599   9.880   0.262 -4.2625  0.1955 -0.7596
  627MOL0     H84640  10.574   9.744   0.145 -0.7266  2.0000 -0.7612
  627MOL0     H84641  10.811   9.647   0.223  2.2284 -0.6670  1.1849
  627MOL0     H84642  10.830   9.775   0.338  2.3783 -0.0153 -1.0241
  627MOL0     H84643  10.976   9.941  -0.015  0.5288  4.8183  3.5385
  627MOL0     H84644  10.237   9.670   0.575 -2.3615 -1.2651  0.1865
  627MOL0     H84645  10.069   9.741   0.735  1.5243  0.1016  0.8495
  628MOL0     O84646   8.563   1.606   0.090  0.3902 -0.6465 -0.4209
  628MOL0     C84647   8.533   1.593  -0.026 -0.3883  0.2285  0.6405
  628MOL0     O84648   8.578   1.488  -0.113  0.3389 -0.0094  0.7424
  628MOL0     C84649   8.649   1.381  -0.072  0.1019 -0.1192  0.4921
  628MOL0     C84650   8.738   1.361   0.037  0.4917  0.7179 -0.7184
  628MOL0     C84651   8.808   1.243   0.045  0.8985 -0.0745 -0.5675
  628MOL0     C84652   8.774   1.132  -0.043 -0.4163 -0.3703 -1.3666
  628MOL0     O84653   8.833   1.017  -0.017  0.9505  0.8625  0.1123
  628MOL0     C84654   8.864   0.930  -0.134 -0.0148  0.0494 -0.0904
  628MOL0     C84655   8.779   0.801  -0.141  0.9895 -0.3524  0.4512
  628MOL0     C84656   8.799   0.699  -0.252 -0.0969  0.7153 -0.7765
  628MOL0     C84657   8.751   0.755  -0.389 -0.3425 -0.3639  0.2252
  628MOL0     C84658   8.722   0.652  -0.502  0.0011  0.2398  0.1849
  628MOL0     C84659   8.839   0.561  -0.534  0.1128 -0.1940 -0.3482
  628MOL0     C84660   8.969   0.624  -0.569 -1.2849  0.8641 -0.5992
  628MOL0     C84661   8.987   0.690  -0.705  0.6192  0.2297  0.0266
  628MOL0     N84662   8.985   0.836  -0.695 -0.0998 -0.7953  0.7915
  628MOL0     C84663   8.872   0.919  -0.677 -0.0916 -0.0079  0.5638
  628MOL0     C84664   8.932   1.040  -0.660 -0.6706  0.1047  0.7757
  628MOL0     C84665   8.860   1.154  -0.587 -1.9633 -0.0335  0.1448
  628MOL0     C84666   8.943   1.181  -0.459  0.3760 -0.6977  0.3121
  628MOL0     C84667   8.903   1.321  -0.402  0.2708  0.1162 -0.9178
  628MOL0     C84668   9.021   1.370  -0.312 -0.8931  0.1633  0.5948
  628MOL0     O84669   8.978   1.473  -0.219  0.1856  0.7126 -0.6160
  628MOL0     C84670   9.069   1.543  -0.150  0.1250 -0.3365 -0.5177
  628MOL0     C84671   9.036   1.567  -0.021 -0.0333 -0.5492 -0.6606
  628MOL0     C84672   9.113   1.635   0.066  0.1798  0.2805  0.5543
  628MOL0     C84673   9.054   1.644   0.201  1.0843 -0.6073  0.0927
  628MOL0     C84674   9.241   1.688   0.025  0.1560 -0.0581  0.9240
  628MOL0     C84675   9.334   1.764   0.118 -0.3675  0.5899  0.4606
  628MOL0     O84676   9.467   1.781   0.068  0.2344  0.1709 -0.4268
  628MOL0     C84677   9.551   1.837   0.171  0.4390 -0.4416 -0.0324
  628MOL0     C84678   9.551   1.976   0.171  0.6453 -0.5083  0.1447
  628MOL0     C84679   9.618   2.035   0.273  1.2880 -0.5420 -0.8451
  628MOL0     C84680   9.691   1.970   0.377  0.5203  0.0707 -0.5576
  628MOL0     O84681   9.719   2.041   0.498 -0.0118  0.1136  0.7897
  628MOL0     C84682   9.806   1.991   0.598 -1.1183  0.5703 -0.2025
  628MOL0     C84683   9.857   2.104   0.674 -0.1688 -0.7275  0.5502
  628MOL0     C84684  10.001   2.076   0.720 -0.8024 -0.7746  0.4483
  628MOL0     C84685  10.099   2.102   0.602 -0.2175 -0.4399  0.3440
  628MOL0     C84686  10.244   2.060   0.652  0.1059 -0.1994 -1.1361
  628MOL0     C84687  10.344   2.104   0.546 -0.2323 -0.5454 -0.7426
  628MOL0     C84688  10.487   2.090   0.601 -0.6532  0.2188  0.0397
  628MOL0     C84689  10.580   2.129   0.492 -0.0920  1.1590  0.1097
  628MOL0    Cl84690  10.740   2.168   0.558  0.3858 -0.1764 -0.1147
  628MOL0     C84691   9.679   1.832   0.373  0.2088  0.4904  0.3966
  628MOL0     C84692   9.610   1.764   0.275 -0.9003  0.6683  0.1098
  628MOL0     O84693   9.288   1.809   0.224 -0.5300  0.2126 -0.1555
  628MOL0     C84694   9.276   1.657  -0.108 -0.8889  0.4658 -0.2942
  628MOL0     C84695   9.191   1.582  -0.197  0.5204 -0.4810 -0.5418
  628MOL0     N84696   9.069   1.033  -0.681  0.1733  0.5672  0.2412
  628MOL0     N84697   9.096   0.909  -0.700 -0.7685 -0.5519 -0.0606
  628MOL0     C84698   8.682   1.156  -0.141  1.1895  0.7326 -0.1626
  628MOL0     C84699   8.608   1.274  -0.158 -0.5303 -0.4048 -1.1783
  628MOL0     C84700   8.450   1.694  -0.095  0.6511  0.3809 -0.4457
  628MOL0     C84701   8.380   1.790  -0.023 -0.3300  0.4764 -0.6331
  628MOL0     C84702   8.303   1.880  -0.096  0.3073 -2.3017  0.0797
  628MOL0     C84703   8.303   1.887  -0.230 -0.6075 -1.0602  1.0290
  628MOL0     O84704   8.223   1.990  -0.268 -0.6067 -1.4215  0.9798
  628MOL0     C84705   8.260   2.035  -0.401  0.6796 -0.1659 -0.3265
  628MOL0     C84706   8.203   2.181  -0.410  0.6484  0.1851 -0.2606
  628MOL0     C84707   8.234   2.237  -0.546  0.2969  0.7658  0.0617
  628MOL0     C84708   8.210   2.380  -0.559  1.0085  0.9884  0.5234
  628MOL0     C84709   8.068   2.420  -0.540 -0.8047  1.0337 -0.1130
  628MOL0     C84710   7.960   2.466  -0.516 -0.1223  0.6735 -0.4651
  628MOL0     C84711   8.370   1.793  -0.303  0.0907 -0.2105 -0.0273
  628MOL0     C84712   8.446   1.702  -0.234 -0.8407  0.8452  0.0365
  628MOL0     H84713   8.765   1.437   0.110  4.3970 -0.0396 -1.1600
  628MOL0     H84714   8.864   1.230   0.137 -1.4870  0.6545  1.0935
  628MOL0     H84715   8.859   0.987  -0.227  2.1664  0.3572 -0.0777
  628MOL0     H84716   8.964   0.889  -0.120 -1.5042 -3.8456  0.4013
  628MOL0     H84717   8.806   0.749  -0.049 -2.2668 -2.5437  0.3472
  628MOL0     H84718   8.676   0.831  -0.119  1.2609  1.1673 -0.1914
  628MOL0     H84719   8.904   0.672  -0.259 -0.4926 -0.6593 -1.8672
  628MOL0     H84720   8.750   0.603  -0.233 -0.3406 -0.1149 -4.6889
  628MOL0     H84721   8.663   0.817  -0.369 -0.7000 -1.8149  4.2654
  628MOL0     H84722   8.828   0.828  -0.415  0.2221 -1.1055 -0.2287
  628MOL0     H84723   8.643   0.583  -0.469 -1.6204  2.6302  1.5835
  628MOL0     H84724   8.692   0.706  -0.593  2.0199  1.7820  0.3709
  628MOL0     H84725   8.842   0.498  -0.445  0.7084 -1.7346 -1.4112
  628MOL0     H84726   8.807   0.482  -0.603 -1.3544  0.6859 -0.7398
  628MOL0     H84727   8.997   0.690  -0.486 -0.8797  1.6043 -1.3033
  628MOL0     H84728   9.032   0.536  -0.568 -3.9914 -1.2139  0.5290
  628MOL0     H84729   8.913   0.650  -0.775 -0.1803 -2.7148  2.3349
  628MOL0     H84730   9.083   0.666  -0.751 -0.4526 -2.0133 -1.2025
  628MOL0     H84731   8.766   0.893  -0.668 -0.9798  2.5106 -1.3776
  628MOL0     H84732   8.873   1.243  -0.648  2.8533 -0.3706  0.3062
  628MOL0     H84733   8.752   1.136  -0.581 -1.6636 -2.5215 -0.9462
  628MOL0     H84734   9.049   1.184  -0.488 -0.4324  0.7598 -3.0206
  628MOL0     H84735   8.931   1.097  -0.390 -2.1505 -2.2963 -1.9160
  628MOL0     H84736   8.817   1.294  -0.340  2.3541 -0.9637  1.6858
  628MOL0     H84737   8.886   1.390  -0.485  0.7067 -1.0574 -2.0040
  628MOL0     H84738   9.101   1.405  -0.378  0.5845  0.8267  2.6517
  628MOL0     H84739   9.066   1.284  -0.262  0.2551 -0.8710 -2.0346
  628MOL0     H84740   8.945   1.523   0.021 -1.0933  3.0423  1.1951
  628MOL0     H84741   8.970   1.576   0.211  1.1107 -0.5360  0.8400
  628MOL0     H84742   9.130   1.597   0.264  0.6084  0.3998  1.4617
  628MOL0     H84743   9.024   1.745   0.231  1.1703 -0.3578 -0.6301
  628MOL0     H84744   9.509   2.041   0.096 -0.5596  1.2423  2.2094
  628MOL0     H84745   9.610   2.143   0.279  1.3257 -0.5994  0.7027
  628MOL0     H84746   9.767   1.920   0.671 -0.5617 -0.6229 -1.0344
  628MOL0     H84747   9.885   1.941   0.542 -0.3699  0.6546  0.7628
  628MOL0     H84748   9.840   2.196   0.618 -2.5889 -3.6938 -4.2534
  628MOL0     H84749   9.794   2.101   0.764  0.1047  1.0404  0.8305
  628MOL0     H84750  10.013   1.972   0.753  0.9162 -1.5276 -2.2485
  628MOL0     H84751  10.018   2.135   0.810  0.4751  1.7780 -1.3528
  628MOL0     H84752  10.066   2.048   0.513 -1.4540  0.6592  0.0893
  628MOL0     H84753  10.099   2.209   0.578  3.6262 -0.3492  0.2237
  628MOL0     H84754  10.235   1.954   0.678 -1.1046  0.8839  3.8987
  628MOL0     H84755  10.258   2.114   0.746 -2.7556  0.0004 -0.7350
  628MOL0     H84756  10.342   2.034   0.461  1.3026  2.9731 -4.0030
  628MOL0     H84757  10.319   2.207   0.521 -1.3768 -0.2344  1.5045
  628MOL0     H84758  10.510   1.985   0.621 -0.7648  0.0548 -0.6513
  628MOL0     H84759  10.506   2.149   0.690  2.1281 -0.6469  0.1035
  628MOL0     H84760  10.554   2.221   0.438 -2.0141 -0.1839 -1.3813
  628MOL0     H84761  10.583   2.060   0.407 -0.8318  1.9580 -0.5865
  628MOL0     H84762   9.711   1.769   0.456  1.0196  0.5781  0.1592
  628MOL0     H84763   9.598   1.656   0.275 -0.4860  0.5820  2.1464
  628MOL0     H84764   9.360   1.701  -0.159 -0.7137  2.9063  1.8787
  628MOL0     H84765   9.204   1.567  -0.304 -3.8655 -1.1362 -1.1596
  628MOL0     H84766   8.641   1.081  -0.207 -1.5838  2.0374 -0.0618
  628MOL0     H84767   8.528   1.285  -0.230 -1.2542  1.6327 -0.1374
  628MOL0     H84768   8.391   1.799   0.084  1.4700 -2.3296 -0.4919
  628MOL0     H84769   8.244   1.951  -0.040  4.4169 -0.7556  2.9408
  628MOL0     H84770   8.367   2.032  -0.422  0.9270 -0.2241  0.8703
  628MOL0     H84771   8.212   1.972  -0.477  1.3093  1.7066 -2.4051
  628MOL0     H84772   8.251   2.239  -0.330 -2.4643  0.4045  1.6066
  628MOL0     H84773   8.098   2.197  -0.386  0.3411 -3.7089  1.6311
  628MOL0     H84774   8.173   2.182  -0.618 -0.6519 -0.7404  1.9033
  628MOL0     H84775   8.339   2.218  -0.570  0.0791 -1.6177  0.7135
  628MOL0     H84776   8.251   2.409  -0.656  1.0685  0.4662  0.3885
  628MOL0     H84777   8.266   2.429  -0.479  0.2770  2.5560  0.1135
  628MOL0     H84778   7.858   2.492  -0.495 -0.1647  1.4849 -1.5800
  628MOL0     H84779   8.379   1.799  -0.411 -1.4002 -0.8057 -0.2138
  628MOL0     H84780   8.512   1.625  -0.275 -0.9321 -1.2782  3.4602
  629MOL0     O84781   9.686   9.896   9.532  0.4771 -0.4846 -0.0024
  629MOL0     C84782   9.659   9.775   9.519 -0.0225  0.0012 -0.2286
  629MOL0     O84783   9.544   9.727   9.464 -0.1477 -0.1954  0.1522
  629MOL0     C84784   9.446   9.816   9.428 -0.1985 -0.2966 -0.7803
  629MOL0     C84785   9.340   9.831   9.522 -0.2279 -0.4645 -0.1423
  629MOL0     C84786   9.234   9.917   9.498  0.3475  0.9716 -1.0123
  629MOL0     C84787   9.224   9.988   9.379 -0.0733  0.2375  0.8427
  629MOL0     O84788   9.131  10.084   9.353 -0.2040  0.3906  0.8760
  629MOL0     C84789   9.118  10.177   9.459  0.3743  0.0929  0.4026
  629MOL0     C84790   9.069  10.309   9.395  0.0006 -0.7531  0.4650
  629MOL0     C84791   8.949  10.314   9.301 -0.8066 -0.6225  0.6946
  629MOL0     C84792   8.825  10.280   9.389  0.6863  0.4504  0.0025
  629MOL0     C84793   8.743  10.165   9.329 -0.2103  1.0011  0.1900
  629MOL0     C84794   8.615  10.133   9.403  0.8673  0.3648 -0.5318
  629MOL0     C84795   8.496  10.214   9.349 -0.3443 -0.3286  0.3529
  629MOL0     C84796   8.377  10.223   9.444  0.1262  1.1107 -0.4525
  629MOL0     N84797   8.414  10.278   9.574  0.0138  0.3263  0.1010
  629MOL0     C84798   8.454  10.402   9.587  0.2857  0.3035  0.3959
  629MOL0     C84799   8.494  10.409   9.721  0.7350  0.0358  0.4310
  629MOL0     C84800   8.544  10.528   9.792  0.2623 -0.4219 -1.1998
  629MOL0     C84801   8.690  10.495   9.841 -0.4753 -0.3947 -0.9421
  629MOL0     C84802   8.745  10.626   9.895 -0.4281  0.5311 -0.6851
  629MOL0     C84803   8.880  10.611   9.964  0.1730  0.0273  0.0391
  629MOL0     O84804   8.886  10.723  10.050 -0.7355 -0.6736  0.0705
  629MOL0     C84805   9.004  10.785  10.087 -0.7398 -0.6164  0.6461
  629MOL0     C84806   9.137  10.744  10.050  0.0630 -0.4165 -1.1811
  629MOL0     C84807   9.252  10.806  10.103 -0.7154  0.1886 -0.1084
  629MOL0     C84808   9.395  10.762  10.052  0.2621 -0.3162  0.4485
  629MOL0     C84809   9.245  10.915  10.199  0.2241  0.0398  0.6570
  629MOL0     C84810   9.357  10.981  10.275 -0.3053  0.1055 -0.5267
  629MOL0     O84811   9.329  11.110  10.315  0.0189 -0.6002 -0.4047
  629MOL0     C84812   9.397  11.196  10.399 -0.1782 -0.3280  0.2717
  629MOL0     C84813   9.523  11.166  10.449 -0.1384 -0.1779 -0.1389
  629MOL0     C84814   9.588  11.250  10.540  0.2308 -0.9143  0.0266
  629MOL0     C84815   9.525  11.365  10.590  0.4199 -0.7382 -0.4802
  629MOL0     O84816   9.584  11.445  10.686  0.8127  0.3160 -0.6691
  629MOL0     C84817   9.693  11.387  10.770  0.4704  0.2956  1.0350
  629MOL0     C84818   9.830  11.425  10.711 -0.5590 -0.1262 -1.1086
  629MOL0     C84819   9.853  11.568  10.744  0.2790  0.3133  0.1204
  629MOL0     C84820   9.977  11.609  10.660 -0.1592 -0.5941 -1.4105
  629MOL0     C84821  10.036  11.749  10.685 -0.9388 -0.2079 -0.8779
  629MOL0     C84822  10.166  11.770  10.614  0.1627 -0.2178  0.4972
  629MOL0     C84823  10.240  11.905  10.651  0.5160  0.1497  0.2706
  629MOL0     C84824  10.383  11.909  10.585  0.1957 -0.8546 -0.1154
  629MOL0    Cl84825  10.365  11.924  10.411 -0.0257  0.3059 -0.3154
  629MOL0     C84826   9.394  11.389  10.550  0.0175 -0.0026  0.3353
  629MOL0     C84827   9.336  11.307  10.457 -0.1166 -0.0553  0.3774
  629MOL0     O84828   9.471  10.923  10.282  0.1618 -0.5400  0.7124
  629MOL0     C84829   9.116  10.954  10.237 -0.5962  0.3079  0.1369
  629MOL0     C84830   9.001  10.882  10.189 -0.3683 -0.2265 -0.6356
  629MOL0     N84831   8.487  10.287   9.782  0.8190  0.0199  0.2585
  629MOL0     N84832   8.443  10.204   9.687  0.0703 -0.0001  0.0050
  629MOL0     C84833   9.335   9.985   9.292  0.0849 -0.5337 -0.1742
  629MOL0     C84834   9.437   9.891   9.313  0.8237  0.4048 -0.6549
  629MOL0     C84835   9.760   9.668   9.546 -0.1376 -0.1189 -0.2925
  629MOL0     C84836   9.738   9.538   9.502  0.0628 -0.2290  0.0863
  629MOL0     C84837   9.834   9.435   9.526  0.4038  0.0930  0.0239
  629MOL0     C84838   9.949   9.451   9.602  0.3112 -1.1121 -0.5578
  629MOL0     O84839  10.043   9.363   9.656  0.3980 -0.5901 -0.7700
  629MOL0     C84840  10.012   9.219   9.660  0.2699  0.1990  0.7831
  629MOL0     C84841  10.106   9.154   9.755  0.0210 -0.2937 -0.9157
  629MOL0     C84842  10.085   9.214   9.905 -0.5737  0.7979  0.7767
  629MOL0     C84843   9.939   9.221   9.958 -1.7005  0.0797 -0.0666
  629MOL0     C84844   9.890   9.083   9.976 -0.2019 -0.7498  0.5725
  629MOL0     C84845   9.837   8.981   9.999 -0.3250  0.3581 -0.2247
  629MOL0     C84846   9.968   9.583   9.645  0.4316 -0.3463  0.1044
  629MOL0     C84847   9.877   9.696   9.610  0.0490 -0.0832  0.1573
  629MOL0     H84848   9.341   9.779   9.618 -0.6057  0.6248  0.4655
  629MOL0     H84849   9.157   9.917   9.574 -0.1378  0.7192 -1.4996
  629MOL0     H84850   9.050  10.137   9.535 -0.2448 -0.1633 -0.2732
  629MOL0     H84851   9.214  10.199   9.506  0.4040 -0.1844  0.4692
  629MOL0     H84852   9.046  10.384   9.471 -2.4273  0.9073 -1.7378
  629MOL0     H84853   9.152  10.355   9.340  0.1302  4.1692  4.1283
  629MOL0     H84854   8.935  10.406   9.243  0.8117 -1.2624 -0.8059
  629MOL0     H84855   8.959  10.244   9.217  0.8542 -0.3939  0.6547
  629MOL0     H84856   8.848  10.260   9.494 -1.3615  0.8790  0.5916
  629MOL0     H84857   8.754  10.361   9.370 -1.7340 -1.3947  0.5139
  629MOL0     H84858   8.717  10.185   9.225 -3.0974 -1.3652  0.3203
  629MOL0     H84859   8.793  10.067   9.335  1.7946  2.0447  3.8009
  629MOL0     H84860   8.603  10.026   9.382 -4.0045  0.3203  1.2581
  629MOL0     H84861   8.627  10.142   9.511 -0.0270  1.2593 -0.4893
  629MOL0     H84862   8.538  10.313   9.328 -0.2878 -0.6729 -1.3679
  629MOL0     H84863   8.465  10.168   9.254  2.1225 -1.0254 -0.1882
  629MOL0     H84864   8.344  10.119   9.454 -1.1213  1.3508 -1.6720
  629MOL0     H84865   8.294  10.278   9.398 -0.6105  2.1145  1.9310
  629MOL0     H84866   8.446  10.481   9.513 -1.8897 -1.3611 -1.3124
  629MOL0     H84867   8.553  10.617   9.729  2.8818  0.1868 -0.0894
  629MOL0     H84868   8.493  10.545   9.887  3.4099  3.4732  0.0699
  629MOL0     H84869   8.753  10.452   9.763 -1.7924  1.7931 -3.3626
  629MOL0     H84870   8.684  10.421   9.921 -1.9338  1.5895  0.9388
  629MOL0     H84871   8.674  10.678   9.960  1.4614  1.1659  1.0048
  629MOL0     H84872   8.766  10.690   9.808  0.4608  2.0821  0.6190
  629MOL0     H84873   8.951  10.619   9.881 -0.9779 -0.1150 -0.9733
  629MOL0     H84874   8.884  10.512  10.009  1.7820 -0.9259 -2.0044
  629MOL0     H84875   9.157  10.650   9.999 -0.5753 -0.8089 -0.7298
  629MOL0     H84876   9.459  10.725  10.132 -0.0704 -1.1831  0.3201
  629MOL0     H84877   9.381  10.684   9.977  0.0922  0.5973 -0.5080
  629MOL0     H84878   9.454  10.843  10.008  0.4758  0.9716  2.9340
  629MOL0     H84879   9.585  11.082  10.418  4.3306  2.4652  0.6873
  629MOL0     H84880   9.686  11.208  10.559  0.3835 -0.7141 -0.3203
  629MOL0     H84881   9.687  11.421  10.874 -0.5593  0.0980  1.0550
  629MOL0     H84882   9.686  11.278  10.767 -2.1684  0.4066 -0.9273
  629MOL0     H84883   9.894  11.353  10.764 -0.5537  2.2762  2.5204
  629MOL0     H84884   9.830  11.399  10.605 -0.8708 -3.0626 -0.4792
  629MOL0     H84885   9.863  11.576  10.853  0.2764  1.8762  0.0238
  629MOL0     H84886   9.772  11.631  10.708  0.6858 -0.4514 -2.3342
  629MOL0     H84887  10.046  11.527  10.683 -3.4924 -2.8686  1.5045
  629MOL0     H84888   9.955  11.603  10.553 -1.0827 -0.0019 -1.2593
  629MOL0     H84889  10.042  11.743  10.794 -2.7826  1.8638 -0.5770
  629MOL0     H84890   9.972  11.835  10.662 -2.2537 -1.4018 -1.8731
  629MOL0     H84891  10.234  11.687  10.635  0.3871 -0.6541 -1.7101
  629MOL0     H84892  10.140  11.775  10.508 -0.0905  1.2633  0.6008
  629MOL0     H84893  10.245  11.920  10.759  1.6546  2.3023 -0.0361
  629MOL0     H84894  10.173  11.985  10.618 -2.3488 -2.1610  0.0345
  629MOL0     H84895  10.432  11.812  10.595 -2.7004 -2.4748 -0.2693
  629MOL0     H84896  10.440  11.991  10.629 -1.3935 -0.9530  2.2906
  629MOL0     H84897   9.355  11.484  10.585  1.4454  0.2453  1.3462
  629MOL0     H84898   9.230  11.322  10.438  0.3850  0.4840 -2.5082
  629MOL0     H84899   9.103  11.036  10.306  1.5864  1.3955 -0.6347
  629MOL0     H84900   8.914  10.915  10.245  0.6150 -0.6429  1.2094
  629MOL0     H84901   9.330  10.056   9.210 -2.5202  1.9409  1.9308
  629MOL0     H84902   9.513   9.886   9.236 -0.8752 -0.9673 -2.3443
  629MOL0     H84903   9.659   9.511   9.433  1.0718  1.6943 -1.9601
  629MOL0     H84904   9.807   9.339   9.484 -0.2125  1.5558 -3.2567
  629MOL0     H84905   9.909   9.200   9.689  0.1219 -0.5093 -0.1718
  629MOL0     H84906  10.025   9.178   9.559 -1.7819  1.9955 -0.2881
  629MOL0     H84907  10.209   9.175   9.724 -0.3977  0.6867 -1.7068
  629MOL0     H84908  10.078   9.049   9.763 -0.0775 -0.1476  1.0882
  629MOL0     H84909  10.125   9.315   9.901  0.9987  0.1699 -0.6917
  629MOL0     H84910  10.143   9.150   9.973 -4.6274 -1.4237  2.4609
  629MOL0     H84911   9.894   9.295   9.892  2.6572  2.2697 -1.0001
  629MOL0     H84912   9.946   9.270  10.056  0.4733 -1.8955  0.8729
  629MOL0     H84913   9.787   8.888  10.018 -0.1457  0.5545  1.3236
  629MOL0     H84914  10.053   9.604   9.709  0.7028  1.6575 -0.8523
  629MOL0     H84915   9.894   9.796   9.649  0.2423 -0.7871  1.9858
  630MOL0     O84916  10.073   0.162   4.966 -0.3155  0.1955 -0.0914
  630MOL0     C84917   9.953   0.147   4.988 -0.2593 -0.5327  0.1323
  630MOL0     O84918   9.886   0.158   5.111  0.2089  0.4970 -0.5018
  630MOL0     C84919   9.963   0.162   5.218  0.4625  0.5425 -0.7924
  630MOL0     C84920   9.955   0.049   5.311  0.7252  0.1068 -0.4321
  630MOL0     C84921  10.024   0.061   5.431 -0.6804  0.1437  0.3292
  630MOL0     C84922  10.117   0.159   5.444 -0.0962 -0.4806 -1.3772
  630MOL0     O84923  10.184   0.161   5.562  0.6573  0.5469  0.0764
  630MOL0     C84924  10.256   0.281   5.603 -0.2031  0.1024  0.1881
  630MOL0     C84925  10.298   0.268   5.751  0.0794  0.0189  0.8097
  630MOL0     C84926  10.388   0.390   5.791  0.7042  0.7104  0.8527
  630MOL0     C84927  10.399   0.374   5.936  0.3595  0.5423  0.7818
  630MOL0     C84928  10.466   0.489   6.005 -0.9766 -0.3742  0.3280
  630MOL0     C84929  10.461   0.483   6.164 -1.2941 -0.3844 -0.3594
  630MOL0     C84930  10.535   0.599   6.236  0.1192 -0.5499  0.6870
  630MOL0     C84931  10.682   0.615   6.188  0.0395  0.3473 -0.4322
  630MOL0     N84932  10.769   0.661   6.298 -0.8587 -0.7976 -0.6676
  630MOL0     C84933  10.841   0.776   6.299 -0.4765  0.1059  0.5842
  630MOL0     C84934  10.913   0.790   6.412 -0.1494  0.0112 -0.2061
  630MOL0     C84935  10.991   0.911   6.457 -0.1900  0.4179  0.5472
  630MOL0     C84936  10.912   1.043   6.460 -0.3646 -0.4815  0.6490
  630MOL0     C84937  10.832   1.053   6.587 -0.2414 -0.5988  0.0932
  630MOL0     C84938  10.717   1.145   6.596  0.3072  0.2968 -0.1349
  630MOL0     O84939  10.638   1.147   6.476  0.2277  0.5393 -0.1237
  630MOL0     C84940  10.523   1.083   6.466 -0.0496 -0.1133 -0.3714
  630MOL0     C84941  10.423   1.155   6.414  0.2936  0.3587  0.2388
  630MOL0     C84942  10.293   1.111   6.405  0.1191 -0.2923  0.8431
  630MOL0     C84943  10.195   1.205   6.345  0.3135 -0.7165  0.1733
  630MOL0     C84944  10.256   0.984   6.455 -0.2567 -0.0674 -0.5677
  630MOL0     C84945  10.114   0.928   6.464 -0.2538  0.1439 -1.2946
  630MOL0     O84946  10.101   0.803   6.499 -0.0456  0.2259 -0.6508
  630MOL0     C84947   9.986   0.764   6.568 -0.3802 -0.2742 -0.3476
  630MOL0     C84948   9.957   0.795   6.711  0.2814 -0.0306 -1.2822
  630MOL0     C84949   9.837   0.749   6.763 -0.5347  0.5430 -1.6360
  630MOL0     C84950   9.745   0.676   6.683  0.6466  0.2590 -0.0016
  630MOL0     O84951   9.623   0.653   6.748  0.1095 -0.3220  0.1133
  630MOL0     C84952   9.579   0.517   6.736  0.4080  0.9457 -0.4471
  630MOL0     C84953   9.578   0.447   6.879 -0.2953 -0.2478 -0.8143
  630MOL0     C84954   9.510   0.311   6.873  0.3419 -0.0256 -0.5439
  630MOL0     C84955   9.365   0.328   6.836  0.2405 -0.5414 -0.2749
  630MOL0     C84956   9.263   0.228   6.909  0.1536 -0.0830 -0.6049
  630MOL0     C84957   9.114   0.250   6.865 -0.4349  0.4470  0.8982
  630MOL0     C84958   9.021   0.164   6.956 -0.0037  0.0625  0.4256
  630MOL0     C84959   8.891   0.222   6.910  0.3663 -0.0294  0.4221
  630MOL0    Cl84960   8.750   0.181   7.018 -0.1822  0.3421 -0.1923
  630MOL0     C84961   9.771   0.655   6.547 -0.2165 -0.0198  0.9847
  630MOL0     C84962   9.895   0.686   6.500  0.3827 -0.7944 -0.3063
  630MOL0     O84963  10.013   0.996   6.422 -0.7152 -0.0524 -0.8556
  630MOL0     C84964  10.360   0.906   6.503 -0.1938 -0.9395 -0.0767
  630MOL0     C84965  10.491   0.946   6.513 -0.4054 -0.3055  0.6995
  630MOL0     N84966  10.874   0.678   6.488  0.1592 -0.2419 -0.8446
  630MOL0     N84967  10.805   0.599   6.414  1.1072 -0.3082  0.9622
  630MOL0     C84968  10.131   0.269   5.353 -0.9504  0.6530 -0.9144
  630MOL0     C84969  10.051   0.268   5.242  0.1232  0.5605  0.4102
  630MOL0     C84970   9.861   0.124   4.876  0.1042  0.6638  0.1249
  630MOL0     C84971   9.930   0.091   4.751 -0.6498 -0.4469 -0.2984
  630MOL0     C84972   9.854   0.058   4.641  0.7112  0.3085  0.1612
  630MOL0     C84973   9.711   0.066   4.649  0.0136 -0.5515 -0.2272
  630MOL0     O84974   9.642   0.036   4.537 -0.5024  0.1356 -0.5584
  630MOL0     C84975   9.543   0.130   4.493 -0.6435 -0.4006 -0.4819
  630MOL0     C84976   9.479   0.080   4.376 -0.6691  0.0281  0.5989
  630MOL0     C84977   9.540   0.109   4.232 -0.6673 -0.2876  0.5564
  630MOL0     C84978   9.484   0.243   4.160 -0.1914 -0.1240 -0.3675
  630MOL0     C84979   9.488   0.362   4.248 -0.7939  0.0282 -0.0735
  630MOL0     C84980   9.509   0.453   4.329 -0.4418  0.1505 -0.1428
  630MOL0     C84981   9.648   0.098   4.769 -0.1210 -0.3821 -0.7733
  630MOL0     C84982   9.722   0.115   4.887  0.6293 -0.4814 -0.4796
  630MOL0     H84983   9.869  -0.014   5.292 -0.1685  1.1757 -0.0920
  630MOL0     H84984  10.010  -0.011   5.511 -1.2688 -2.2811 -1.8183
  630MOL0     H84985  10.352   0.289   5.551 -0.8884  1.5555 -0.9131
  630MOL0     H84986  10.189   0.366   5.590 -0.9771 -0.5117  0.0772
  630MOL0     H84987  10.207   0.245   5.807  2.0492 -0.8840  3.8509
  630MOL0     H84988  10.363   0.180   5.751 -2.3128 -1.9109 -1.5679
  630MOL0     H84989  10.485   0.370   5.744  0.8436  0.3946  1.2670
  630MOL0     H84990  10.340   0.478   5.746 -0.5542 -0.9960 -1.3875
  630MOL0     H84991  10.296   0.385   5.972  0.3633  2.9346  0.2488
  630MOL0     H84992  10.447   0.279   5.961  1.0457 -0.6443 -4.0714
  630MOL0     H84993  10.567   0.501   5.964 -1.5185 -0.3710 -1.0579
  630MOL0     H84994  10.411   0.578   5.972 -0.8459 -0.4832 -0.1856
  630MOL0     H84995  10.361   0.500   6.205 -0.6098 -2.4963  2.5209
  630MOL0     H84996  10.483   0.386   6.210 -3.9809 -0.0317  1.9602
  630MOL0     H84997  10.483   0.693   6.214  0.1036 -1.3973 -3.8636
  630MOL0     H84998  10.533   0.583   6.344 -1.9100  1.3168  0.9873
  630MOL0     H84999  10.675   0.679   6.100 -2.6958 -0.1616 -0.6822
  630MOL0     H85000  10.718   0.515   6.161  1.7937  0.8589 -0.0844
  630MOL0     H85001  10.828   0.858   6.230 -0.0084  0.8171  1.3128
  630MOL0     H85002  11.016   0.902   6.563 -0.6476  0.4633  0.6649
  630MOL0     H85003  11.074   0.932   6.390 -1.5409  2.3713 -0.6292
  630MOL0     H85004  10.864   1.067   6.365  1.2983 -0.0383 -0.1258
  630MOL0     H85005  10.987   1.123   6.460  0.3151 -1.1031  0.7720
  630MOL0     H85006  10.909   1.083   6.659 -1.6402  0.5048  1.1889
  630MOL0     H85007  10.792   0.952   6.605 -3.1843  0.4658  0.1157
  630MOL0     H85008  10.757   1.246   6.607  1.9037 -0.2555 -0.6046
  630MOL0     H85009  10.668   1.126   6.691  0.9371 -2.2208 -0.2475
  630MOL0     H85010  10.449   1.255   6.382  3.5687 -0.7541 -0.9934
  630MOL0     H85011  10.121   1.228   6.423 -0.1701 -2.2125  0.1940
  630MOL0     H85012  10.237   1.298   6.306 -2.1947  0.5696  0.3430
  630MOL0     H85013  10.154   1.154   6.257 -1.9945  1.1115  0.0779
  630MOL0     H85014  10.035   0.854   6.756  0.0178 -0.4407 -0.2648
  630MOL0     H85015   9.827   0.750   6.871 -0.5201 -2.8069 -1.4904
  630MOL0     H85016   9.478   0.529   6.695  0.4554 -1.4254 -1.4003
  630MOL0     H85017   9.618   0.454   6.655 -0.9637 -1.8428  0.9223
  630MOL0     H85018   9.682   0.431   6.911 -0.6143 -1.5911 -0.3645
  630MOL0     H85019   9.531   0.508   6.957 -2.6782 -2.8979 -0.0227
  630MOL0     H85020   9.528   0.264   6.971  3.2478  1.9131  0.0031
  630MOL0     H85021   9.546   0.247   6.792  1.8479  0.5598 -0.3731
  630MOL0     H85022   9.332   0.422   6.882  2.5737  0.3696 -0.3203
  630MOL0     H85023   9.341   0.343   6.730 -1.3266  1.8664  0.3400
  630MOL0     H85024   9.254   0.251   7.015 -0.3030 -2.6036 -0.0416
  630MOL0     H85025   9.292   0.124   6.894  0.1557 -0.1926  0.1499
  630MOL0     H85026   9.101   0.357   6.885  0.2050  0.3007  2.2041
  630MOL0     H85027   9.090   0.233   6.760  1.0387  1.6827  0.3161
  630MOL0     H85028   9.044   0.189   7.060  2.4444  1.9536 -0.4845
  630MOL0     H85029   9.019   0.056   6.938  1.9506  0.4238 -2.6020
  630MOL0     H85030   8.864   0.167   6.820  0.0122 -0.5730  0.8554
  630MOL0     H85031   8.891   0.331   6.895  4.3695  0.7947  4.2208
  630MOL0     H85032   9.701   0.607   6.478 -1.8164 -1.3738  3.4083
  630MOL0     H85033   9.918   0.665   6.396  0.6595 -2.5609  0.0771
  630MOL0     H85034  10.340   0.806   6.541  1.2798 -0.8679  0.9693
  630MOL0     H85035  10.570   0.886   6.557  0.5148 -0.1638 -0.7022
  630MOL0     H85036  10.211   0.340   5.372 -1.3105  1.4173 -2.1196
  630MOL0     H85037  10.069   0.346   5.169 -0.5936  1.3777  1.0902
  630MOL0     H85038  10.037   0.103   4.738 -0.5283 -2.9334 -2.6136
  630MOL0     H85039   9.917   0.038   4.555  3.7977  2.2199  1.7980
  630MOL0     H85040   9.467   0.154   4.568  1.3003  0.5589  1.2929
  630MOL0     H85041   9.589   0.227   4.471 -2.2772  0.4302 -0.4086
  630MOL0     H85042   9.377   0.120   4.372 -0.4955  0.3909 -2.7975
  630MOL0     H85043   9.462  -0.028   4.376 -0.1414 -0.1141 -2.0086
  630MOL0     H85044   9.525   0.019   4.172  2.3200 -0.4939 -0.0186
  630MOL0     H85045   9.648   0.117   4.244 -0.5738 -1.8558  0.9489
  630MOL0     H85046   9.379   0.226   4.135 -0.2193 -2.0787  0.8900
  630MOL0     H85047   9.538   0.271   4.069 -0.7736  1.9637 -0.1386
  630MOL0     H85048   9.531   0.528   4.402  2.9795 -3.1157  2.6183
  630MOL0     H85049   9.542   0.109   4.785  0.0760 -0.6927  0.8930
  630MOL0     H85050   9.666   0.131   4.979 -0.5607 -0.6152 -1.1689
  631MOL0     O85051  10.068   7.356   8.323  0.3753 -0.2324  0.4740
  631MOL0     C85052   9.949   7.388   8.308 -0.3653  0.5806  0.6130
  631MOL0     O85053   9.846   7.341   8.390  0.8021  0.5058  0.2298
  631MOL0     C85054   9.871   7.291   8.521 -0.5971 -1.6967 -0.2058
  631MOL0     C85055   9.796   7.187   8.568  1.2789  0.8084 -0.8725
  631MOL0     C85056   9.788   7.156   8.697  0.1235 -0.1648 -0.1138
  631MOL0     C85057   9.869   7.223   8.789 -0.6953 -1.0886 -0.8748
  631MOL0     O85058   9.849   7.195   8.917  0.4806  0.0425 -0.0858
  631MOL0     C85059   9.920   7.083   8.971 -0.3337  0.5474 -0.1859
  631MOL0     C85060   9.917   7.104   9.128 -0.0548 -0.1140 -0.8374
  631MOL0     C85061   9.981   7.244   9.166  0.6392 -0.9251 -0.4288
  631MOL0     C85062   9.880   7.357   9.185  1.0620 -0.6758 -0.3734
  631MOL0     C85063   9.792   7.353   9.310 -0.7227 -0.0340 -0.1849
  631MOL0     C85064   9.860   7.386   9.444 -0.4231 -0.8416 -1.1478
  631MOL0     C85065   9.768   7.391   9.565  0.3546  0.6836  0.0484
  631MOL0     C85066   9.626   7.441   9.539 -0.8455  0.1699  0.4408
  631MOL0     N85067   9.563   7.449   9.666  0.4051  0.8027  0.4150
  631MOL0     C85068   9.593   7.546   9.756  0.5363  0.1033 -0.7426
  631MOL0     C85069   9.521   7.517   9.869 -0.2202  0.7056 -0.0155
  631MOL0     C85070   9.539   7.599   9.995  0.4361 -0.5684 -0.8388
  631MOL0     C85071   9.486   7.742   9.997  0.5042 -0.3439  0.8885
  631MOL0     C85072   9.492   7.818  10.128 -1.0888 -0.7265 -1.0218
  631MOL0     C85073   9.423   7.961  10.113  0.9524 -0.4033  0.4331
  631MOL0     O85074   9.469   8.042  10.227 -0.4857 -0.0716  0.0494
  631MOL0     C85075   9.456   8.180  10.232 -0.3628 -1.2086  0.9042
  631MOL0     C85076   9.503   8.249  10.342  0.8793 -0.1322 -0.0532
  631MOL0     C85077   9.491   8.384  10.364  0.9041 -0.0313  0.2669
  631MOL0     C85078   9.551   8.449  10.491 -0.1114  0.5341  0.1613
  631MOL0     C85079   9.439   8.460  10.257 -1.2984  0.5820 -0.9062
  631MOL0     C85080   9.429   8.602  10.265  0.7084  0.2961  0.5351
  631MOL0     O85081   9.400   8.672  10.154 -0.0248 -0.2228 -0.2031
  631MOL0     C85082   9.436   8.805  10.138  0.0563  0.7353 -0.2625
  631MOL0     C85083   9.397   8.867  10.020 -0.4388 -0.5671  0.2900
  631MOL0     C85084   9.425   9.008  10.000 -0.2506 -0.3022  0.1107
  631MOL0     C85085   9.503   9.077  10.096 -0.2358 -0.1267 -0.4028
  631MOL0     O85086   9.532   9.216  10.099 -0.2904 -0.1513 -0.3664
  631MOL0     C85087   9.551   9.286   9.975  0.2153  0.5522 -0.1114
  631MOL0     C85088   9.621   9.424   9.984 -0.3548  0.8263 -0.1193
  631MOL0     C85089   9.633   9.491   9.848 -0.1780 -0.1039  0.5959
  631MOL0     C85090   9.497   9.501   9.774  0.1989  0.0061  0.1095
  631MOL0     C85091   9.467   9.382   9.681 -0.0860  0.2150  0.9332
  631MOL0     C85092   9.393   9.418   9.548 -0.6422 -0.1574  0.0243
  631MOL0     C85093   9.256   9.460   9.582  0.3400  0.4898  0.0953
  631MOL0     C85094   9.165   9.499   9.462  0.8054  0.3006  0.0544
  631MOL0    Cl85095   9.169   9.369   9.336 -0.1667 -0.5253  0.0819
  631MOL0     C85096   9.568   8.996  10.196  0.3019 -0.4206  0.1948
  631MOL0     C85097   9.535   8.862  10.209  0.0880 -1.0750  1.1141
  631MOL0     O85098   9.399   8.647  10.377 -0.6502  0.3362 -0.8063
  631MOL0     C85099   9.394   8.392  10.146  0.3843  0.3847 -0.8531
  631MOL0     C85100   9.395   8.252  10.134  0.3535 -0.5102  0.4896
  631MOL0     N85101   9.441   7.409   9.844  0.4950 -0.0036 -0.0318
  631MOL0     N85102   9.467   7.366   9.723 -1.0870 -0.0852  0.5342
  631MOL0     C85103   9.952   7.326   8.746  0.1269  0.8589 -0.1158
  631MOL0     C85104   9.958   7.355   8.610  0.4448 -1.0328 -0.7307
  631MOL0     C85105   9.924   7.473   8.197 -0.5949 -0.7179  0.9588
  631MOL0     C85106   9.807   7.553   8.186 -1.1533 -0.2715 -0.2700
  631MOL0     C85107   9.792   7.630   8.075  0.7538 -0.5106  0.3752
  631MOL0     C85108   9.880   7.633   7.961  0.3330 -0.1221  0.0235
  631MOL0     O85109   9.841   7.704   7.851  0.0413 -0.4040 -0.8666
  631MOL0     C85110   9.940   7.781   7.781  0.6579 -0.3639 -0.4902
  631MOL0     C85111   9.948   7.918   7.831  0.6368 -1.0380 -0.4465
  631MOL0     C85112  10.006   7.931   7.974 -0.5086  0.7641 -0.0882
  631MOL0     C85113  10.033   8.082   8.021  0.0830  0.1864 -0.0266
  631MOL0     C85114  10.165   8.128   7.975  0.2804 -0.4054  0.3359
  631MOL0     C85115  10.273   8.167   7.944 -0.2763 -0.7970  0.5268
  631MOL0     C85116  10.001   7.562   7.978 -0.7499  0.2168  0.1305
  631MOL0     C85117  10.011   7.481   8.086 -0.5031 -0.4085  0.0624
  631MOL0     H85118   9.723   7.151   8.497 -1.3008  2.5241  0.7449
  631MOL0     H85119   9.720   7.087   8.745 -0.0716  1.9346  2.8932
  631MOL0     H85120   9.870   6.988   8.948 -2.9815  2.3248 -2.3479
  631MOL0     H85121  10.023   7.075   8.934  0.0258 -2.5314  1.1196
  631MOL0     H85122   9.810   7.102   9.153 -0.0951  0.6968 -0.9196
  631MOL0     H85123   9.977   7.027   9.178 -0.7699 -0.1521 -0.0015
  631MOL0     H85124  10.039   7.232   9.258 -1.3082  2.8375  1.5263
  631MOL0     H85125  10.050   7.286   9.092 -0.9603  0.0956 -1.3955
  631MOL0     H85126   9.919   7.456   9.209 -0.9823 -0.3200  1.8929
  631MOL0     H85127   9.810   7.356   9.101 -0.8670 -2.2593  1.1391
  631MOL0     H85128   9.721   7.436   9.300  1.1839  1.5946 -0.6845
  631MOL0     H85129   9.740   7.256   9.302  1.1756 -0.9993 -6.5091
  631MOL0     H85130   9.936   7.311   9.470 -3.5150 -3.5211  0.8633
  631MOL0     H85131   9.893   7.490   9.431 -0.2277 -0.6013  0.9697
  631MOL0     H85132   9.770   7.292   9.611  2.7996  0.1434 -1.0754
  631MOL0     H85133   9.816   7.464   9.631  3.0738  0.3499 -1.3831
  631MOL0     H85134   9.575   7.370   9.475  0.8827 -1.4587  0.7855
  631MOL0     H85135   9.626   7.538   9.489  4.5119  0.3125  0.1453
  631MOL0     H85136   9.668   7.624   9.744 -0.2842  1.4298  2.0164
  631MOL0     H85137   9.493   7.532  10.068  0.0699 -0.7962 -1.2706
  631MOL0     H85138   9.643   7.608  10.026 -0.5886  2.8174  2.3691
  631MOL0     H85139   9.387   7.739   9.949  2.0429  2.3513 -2.9344
  631MOL0     H85140   9.551   7.789   9.923  0.4302 -1.2936  0.2038
  631MOL0     H85141   9.598   7.830  10.153 -0.9626  2.2326 -2.4315
  631MOL0     H85142   9.438   7.763  10.205  0.2486  2.5243  2.5435
  631MOL0     H85143   9.314   7.951  10.110  0.8246  0.6187  0.9695
  631MOL0     H85144   9.440   8.008  10.016 -3.5229 -0.6287 -0.6579
  631MOL0     H85145   9.545   8.183  10.417  0.3153  0.7812  1.0987
  631MOL0     H85146   9.466   8.499  10.539 -0.5682  0.0127 -0.0842
  631MOL0     H85147   9.590   8.376  10.562 -1.0820  1.8304  2.1340
  631MOL0     H85148   9.620   8.528  10.460 -0.4994  0.8581  0.1058
  631MOL0     H85149   9.335   8.815   9.947  2.8967  0.0214 -3.3001
  631MOL0     H85150   9.363   9.064   9.930 -1.0217 -1.5656 -0.2559
  631MOL0     H85151   9.609   9.225   9.905 -0.9379  1.3823 -1.8943
  631MOL0     H85152   9.449   9.288   9.935  0.6882 -0.5024 -1.4426
  631MOL0     H85153   9.567   9.484  10.057 -0.7148 -0.9930  1.1564
  631MOL0     H85154   9.722   9.416  10.026 -0.2314  1.7344 -0.2049
  631MOL0     H85155   9.708   9.454   9.777  0.5902 -2.0668  2.3004
  631MOL0     H85156   9.661   9.593   9.876 -1.1657  0.2391  0.3615
  631MOL0     H85157   9.423   9.492   9.854  1.5594  3.2535  1.9272
  631MOL0     H85158   9.485   9.600   9.729  1.1811  0.9402  1.7797
  631MOL0     H85159   9.394   9.316   9.727 -2.7572  0.5175 -2.4288
  631MOL0     H85160   9.559   9.325   9.667 -0.7855 -0.7741  0.2808
  631MOL0     H85161   9.442   9.499   9.494  1.8255 -2.1335 -0.8664
  631MOL0     H85162   9.388   9.327   9.488  1.7670  0.0485 -0.5667
  631MOL0     H85163   9.259   9.554   9.637 -1.3546  0.5839  0.0538
  631MOL0     H85164   9.209   9.392   9.652  1.3490 -2.2500 -1.7119
  631MOL0     H85165   9.194   9.598   9.423  1.3508 -0.3574 -1.2915
  631MOL0     H85166   9.060   9.502   9.492 -0.7853 -0.9469 -4.4828
  631MOL0     H85167   9.618   9.047  10.278 -2.6371  1.3240  1.0861
  631MOL0     H85168   9.581   8.808  10.291 -1.7322 -2.1438  1.5011
  631MOL0     H85169   9.345   8.438  10.061  0.4063 -0.6746 -1.4620
  631MOL0     H85170   9.344   8.200  10.054  0.8701 -2.2315  1.2122
  631MOL0     H85171   9.995   7.394   8.819 -0.4700 -2.1390  3.4020
  631MOL0     H85172  10.011   7.441   8.571 -1.7436 -0.3572 -2.4460
  631MOL0     H85173   9.736   7.550   8.267  0.4985 -4.4146  1.2945
  631MOL0     H85174   9.702   7.690   8.068  2.3073  2.0110  0.9710
  631MOL0     H85175  10.044   7.749   7.778  0.5425 -1.1438  1.7896
  631MOL0     H85176   9.913   7.787   7.675  2.3368 -1.6931 -1.0397
  631MOL0     H85177   9.852   7.968   7.820  1.3620  0.4584 -0.2235
  631MOL0     H85178  10.010   7.977   7.762  2.3134 -0.7344  1.2290
  631MOL0     H85179  10.094   7.867   7.985 -0.8399  0.2019 -0.6513
  631MOL0     H85180   9.942   7.891   8.053 -1.2272 -2.0685 -1.9603
  631MOL0     H85181  10.040   8.081   8.131 -1.6764  0.8612  0.1181
  631MOL0     H85182   9.957   8.147   7.977  0.0782 -0.7199 -1.3974
  631MOL0     H85183  10.374   8.186   7.916  0.0894 -3.0574  0.0627
  631MOL0     H85184  10.091   7.570   7.917  0.6848 -0.1919  2.0992
  631MOL0     H85185  10.100   7.418   8.084  0.9459  1.2808  3.0919
  632MOL0     O85186   6.394   8.083   6.066 -0.5310 -0.2014 -0.4024
  632MOL0     C85187   6.276   8.058   6.085  0.6670  0.3518 -1.0219
  632MOL0     O85188   6.165   8.112   6.030  0.6221 -0.3559 -0.3427
  632MOL0     C85189   6.176   8.193   5.920 -0.4858 -0.7166  0.0240
  632MOL0     C85190   6.065   8.191   5.831  0.2169  0.6331 -0.2693
  632MOL0     C85191   6.052   8.271   5.727  0.3443 -0.0642  0.5706
  632MOL0     C85192   6.152   8.372   5.693 -0.6237 -1.0615 -1.0111
  632MOL0     O85193   6.139   8.480   5.610  0.2271 -0.0984 -0.1428
  632MOL0     C85194   6.052   8.475   5.496 -0.1873 -0.2335  0.1147
  632MOL0     C85195   6.108   8.368   5.396  0.3480  0.2759 -1.0670
  632MOL0     C85196   6.018   8.338   5.267  0.2617  0.8625 -0.4264
  632MOL0     C85197   5.975   8.470   5.204 -0.4669  1.0319 -0.1534
  632MOL0     C85198   5.969   8.465   5.050 -0.4938 -1.2868  0.7498
  632MOL0     C85199   5.985   8.602   4.988  1.3310  0.0595  0.1440
  632MOL0     C85200   5.939   8.594   4.841 -0.4917  0.6949 -0.2210
  632MOL0     C85201   5.939   8.730   4.774 -0.6315  0.8033  0.6985
  632MOL0     N85202   6.075   8.766   4.754 -0.3766  0.0771  0.3574
  632MOL0     C85203   6.152   8.825   4.850  0.4951  0.5595  0.0275
  632MOL0     C85204   6.254   8.873   4.781  0.0274 -0.3760 -0.5106
  632MOL0     C85205   6.376   8.953   4.824  1.2300  0.0619 -0.4887
  632MOL0     C85206   6.506   8.877   4.831  0.7193  0.3109 -0.6351
  632MOL0     C85207   6.607   8.978   4.891  0.6375  0.7750  0.4332
  632MOL0     C85208   6.734   8.910   4.950 -1.7140  0.0340  0.1560
  632MOL0     O85209   6.832   8.998   5.010  0.1736 -0.6317 -0.0901
  632MOL0     C85210   6.937   8.929   5.067  0.6207  0.1504 -0.7769
  632MOL0     C85211   7.030   9.006   5.129  0.3857 -0.3450 -0.2351
  632MOL0     C85212   7.136   8.959   5.207 -0.1725  0.6143 -0.2637
  632MOL0     C85213   7.215   9.059   5.276 -0.6106 -0.5474  0.1781
  632MOL0     C85214   7.152   8.821   5.215  0.3883  0.6077 -0.5911
  632MOL0     C85215   7.272   8.752   5.273  0.0945 -0.4693  0.0643
  632MOL0     O85216   7.379   8.825   5.299 -0.2159  0.4796  0.0610
  632MOL0     C85217   7.485   8.770   5.359 -0.3099 -0.6079 -0.0620
  632MOL0     C85218   7.558   8.656   5.310 -0.1695  0.3352 -0.1770
  632MOL0     C85219   7.673   8.606   5.374 -0.0701 -0.2304  0.0675
  632MOL0     C85220   7.720   8.676   5.481  0.3449 -0.3538 -1.0108
  632MOL0     O85221   7.822   8.639   5.561 -0.0766 -0.4047  0.1970
  632MOL0     C85222   7.865   8.503   5.572 -0.0615 -1.1696 -0.0733
  632MOL0     C85223   7.959   8.508   5.689  0.1804 -0.3605 -1.0237
  632MOL0     C85224   8.044   8.384   5.739  0.1600 -0.4866  0.4687
  632MOL0     C85225   7.983   8.248   5.734  0.2613  1.3211 -0.0791
  632MOL0     C85226   8.074   8.154   5.809  0.3665 -0.4516 -0.7904
  632MOL0     C85227   8.017   8.012   5.817 -0.3087  0.9742 -0.0677
  632MOL0     C85228   8.115   7.907   5.880  0.2407 -1.2785 -0.2130
  632MOL0     C85229   8.047   7.802   5.958 -0.2975  0.3619 -0.8345
  632MOL0    Cl85230   7.951   7.702   5.841  0.1545  0.3208  0.1647
  632MOL0     C85231   7.640   8.787   5.532 -0.6090  0.5210  0.2894
  632MOL0     C85232   7.538   8.835   5.461 -0.6667  0.3854  0.2772
  632MOL0     O85233   7.254   8.629   5.297  0.0868 -0.1554  0.3082
  632MOL0     C85234   7.057   8.742   5.142 -0.3580 -0.4853  0.3448
  632MOL0     C85235   6.948   8.795   5.077  0.1682  0.5826 -0.5802
  632MOL0     N85236   6.239   8.845   4.647 -0.7356 -0.4846 -0.9281
  632MOL0     N85237   6.130   8.784   4.631 -1.1757  0.2014 -0.3876
  632MOL0     C85238   6.260   8.374   5.779 -0.6561 -0.3573  0.3168
  632MOL0     C85239   6.286   8.285   5.888  0.1546 -0.4162 -0.0979
  632MOL0     C85240   6.255   7.957   6.196 -0.1514  0.4171  0.9717
  632MOL0     C85241   6.359   7.872   6.233  0.9621 -0.4161 -0.5401
  632MOL0     C85242   6.332   7.782   6.339  0.0950 -0.5465 -0.1087
  632MOL0     C85243   6.215   7.774   6.407  0.2778 -0.1127 -0.0733
  632MOL0     O85244   6.221   7.670   6.497  0.3369 -0.8366  0.3258
  632MOL0     C85245   6.117   7.672   6.595 -0.0079 -0.6768  1.1183
  632MOL0     C85246   6.141   7.560   6.700  0.1492  0.4415 -0.2576
  632MOL0     C85247   6.158   7.412   6.642  0.8066 -0.2075  0.1059
  632MOL0     C85248   6.031   7.363   6.575  1.4227  0.2685 -0.2488
  632MOL0     C85249   6.035   7.214   6.570  0.1639 -0.7598 -0.0400
  632MOL0     C85250   6.033   7.093   6.556  0.1991  0.3978  0.4582
  632MOL0     C85251   6.105   7.858   6.368 -0.0638  0.0660  0.1356
  632MOL0     C85252   6.133   7.955   6.270 -0.3305  0.2923  0.0880
  632MOL0     H85253   5.994   8.110   5.849  1.3167 -0.5387 -1.0220
  632MOL0     H85254   5.951   8.271   5.688 -0.9188 -1.0266  3.5113
  632MOL0     H85255   5.951   8.452   5.532 -0.4019  2.0377  1.0997
  632MOL0     H85256   6.048   8.573   5.449  1.4579 -1.5161 -2.9735
  632MOL0     H85257   6.205   8.410   5.368  0.7194 -1.6050 -2.8788
  632MOL0     H85258   6.116   8.281   5.462  3.8621  1.3145  0.1127
  632MOL0     H85259   6.077   8.281   5.193 -0.2624  0.8754 -0.8608
  632MOL0     H85260   5.929   8.276   5.282 -0.0246  1.0141 -1.4375
  632MOL0     H85261   5.873   8.486   5.240  0.1458  1.3953  1.4870
  632MOL0     H85262   6.037   8.553   5.238  0.0043  0.8655 -0.5806
  632MOL0     H85263   6.048   8.405   5.004  0.4148  0.3902  0.0259
  632MOL0     H85264   5.868   8.438   5.021 -0.2012 -1.9386  0.3282
  632MOL0     H85265   5.919   8.677   5.034  0.8918  0.1965 -0.6719
  632MOL0     H85266   6.090   8.633   4.989  1.6524 -0.9411  2.2472
  632MOL0     H85267   6.006   8.525   4.789 -0.7389  1.1628 -1.2020
  632MOL0     H85268   5.836   8.558   4.842  0.5219 -2.4986 -0.9176
  632MOL0     H85269   5.886   8.806   4.832 -0.1175  2.0129 -0.3757
  632MOL0     H85270   5.895   8.712   4.675  0.7052  2.9807 -0.3518
  632MOL0     H85271   6.129   8.849   4.954 -2.2603 -0.9698 -0.1281
  632MOL0     H85272   6.383   9.040   4.759  1.2218  1.3879  1.2175
  632MOL0     H85273   6.339   9.003   4.915  1.5678 -0.0743 -0.2739
  632MOL0     H85274   6.537   8.839   4.733  0.9221  3.3787 -1.8967
  632MOL0     H85275   6.489   8.798   4.905  1.5993  0.3420 -0.3836
  632MOL0     H85276   6.556   9.028   4.974  1.1367 -0.7165  1.6584
  632MOL0     H85277   6.641   9.051   4.817  0.3757  1.6455  1.1487
  632MOL0     H85278   6.789   8.860   4.869 -1.9980  0.2831 -0.1931
  632MOL0     H85279   6.695   8.843   5.027 -0.4427  0.8239  1.5454
  632MOL0     H85280   7.021   9.114   5.119  1.2105 -0.3392 -0.9707
  632MOL0     H85281   7.316   9.065   5.233 -0.4430 -1.6773  0.4011
  632MOL0     H85282   7.171   9.157   5.253 -0.1042 -0.2110  0.6018
  632MOL0     H85283   7.216   9.055   5.385 -0.7097  0.2291  0.2174
  632MOL0     H85284   7.511   8.599   5.230 -2.2671  0.9797  0.5211
  632MOL0     H85285   7.725   8.515   5.345 -1.3211 -1.0351  0.2932
  632MOL0     H85286   7.782   8.439   5.601  0.0542 -0.3732  2.2268
  632MOL0     H85287   7.910   8.459   5.482 -1.0609 -3.4105  0.4687
  632MOL0     H85288   8.025   8.594   5.669 -0.1030  0.4823  1.4036
  632MOL0     H85289   7.892   8.537   5.770 -0.3234  1.3354 -1.9974
  632MOL0     H85290   8.065   8.408   5.843 -2.0027 -0.2024  0.8883
  632MOL0     H85291   8.143   8.389   5.692 -0.5681  2.9006 -0.9976
  632MOL0     H85292   7.881   8.248   5.775  0.6201 -0.6586  0.9479
  632MOL0     H85293   7.988   8.193   5.639  1.0712 -0.9817  1.2293
  632MOL0     H85294   8.092   8.185   5.913  4.7457 -1.1276 -1.1538
  632MOL0     H85295   8.171   8.154   5.758  0.8889  0.0054  0.1731
  632MOL0     H85296   7.924   7.997   5.874 -0.9159 -0.1552 -1.2863
  632MOL0     H85297   8.003   7.983   5.713  3.3682  3.4681 -1.4590
  632MOL0     H85298   8.193   7.957   5.940  0.7909 -1.3005 -0.8949
  632MOL0     H85299   8.177   7.875   5.796 -2.5551  0.4979 -3.1699
  632MOL0     H85300   7.980   7.835   6.038  1.2160  0.7057  0.3399
  632MOL0     H85301   8.122   7.740   6.009 -1.3691  1.6197  2.5922
  632MOL0     H85302   7.671   8.827   5.628 -0.4399  2.2134 -0.4383
  632MOL0     H85303   7.484   8.918   5.505 -1.6606 -0.0100 -0.1697
  632MOL0     H85304   7.067   8.637   5.115 -0.2022 -0.0255 -1.5260
  632MOL0     H85305   6.875   8.725   5.037  1.1327 -0.8602  0.0737
  632MOL0     H85306   6.328   8.459   5.771 -1.2401  0.2131  1.2794
  632MOL0     H85307   6.373   8.294   5.952  0.3695  0.0336 -0.4482
  632MOL0     H85308   6.462   7.864   6.199  3.3088  1.5565  5.0087
  632MOL0     H85309   6.398   7.696   6.346  1.3959 -0.0024 -3.6706
  632MOL0     H85310   6.116   7.770   6.643  1.4980  0.8708 -1.7307
  632MOL0     H85311   6.021   7.660   6.545  0.6459 -1.1708 -0.0651
  632MOL0     H85312   6.061   7.567   6.775  1.3132 -2.1121  1.3509
  632MOL0     H85313   6.237   7.555   6.751  2.0101 -0.8564 -3.5850
  632MOL0     H85314   6.178   7.342   6.725 -3.6912 -1.0076  0.7605
  632MOL0     H85315   6.245   7.410   6.576  1.6085  4.0956  0.7804
  632MOL0     H85316   6.017   7.413   6.479 -4.8417 -0.3077 -0.0585
  632MOL0     H85317   5.947   7.397   6.636  1.9327  0.0261  0.6151
  632MOL0     H85318   6.005   6.990   6.542 -0.9407  0.9423 -1.5290
  632MOL0     H85319   6.006   7.865   6.412  0.4208  0.6385  1.1763
  632MOL0     H85320   6.048   8.022   6.267  1.3910  2.6050 -0.5666
  633MOL0     O85321   1.005   2.960  10.842  0.3759 -0.1962  0.2365
  633MOL0     C85322   0.995   2.889  10.938  0.6931  0.2151 -0.0762
  633MOL0     O85323   0.880   2.858  11.003 -0.4768  0.4941  0.2593
  633MOL0     C85324   0.762   2.920  10.957 -0.6095  0.6849  0.3758
  633MOL0     C85325   0.696   2.986  11.058  0.4159  0.4375 -1.0082
  633MOL0     C85326   0.566   3.036  11.043  0.0390 -0.1434 -0.2591
  633MOL0     C85327   0.518   3.043  10.911 -0.3735  0.1143  1.4791
  633MOL0     O85328   0.396   3.107  10.897  0.1515 -0.0272 -0.1845
  633MOL0     C85329   0.342   3.107  10.768  0.5136 -0.1489 -0.7262
  633MOL0     C85330   0.269   2.978  10.756  0.2047 -0.5681  0.2348
  633MOL0     C85331   0.199   2.997  10.623  0.1504 -1.0114  0.5241
  633MOL0     C85332   0.127   2.868  10.585 -0.0110  0.2384 -0.2839
  633MOL0     C85333   0.022   2.891  10.478 -0.2633 -0.7858  0.1216
  633MOL0     C85334  -0.025   2.752  10.430 -0.3322 -0.4411 -0.7294
  633MOL0     C85335  -0.159   2.773  10.359  0.1260  1.3240 -0.6701
  633MOL0     C85336  -0.206   2.636  10.304  0.7860  0.4404  0.0517
  633MOL0     N85337  -0.254   2.541  10.408  0.0266 -0.5810 -0.3539
  633MOL0     C85338  -0.376   2.550  10.470 -0.6881  0.7120 -0.5208
  633MOL0     C85339  -0.379   2.428  10.535 -0.1480 -0.5061 -1.4938
  633MOL0     C85340  -0.502   2.377  10.597  0.5464  0.7286  1.2207
  633MOL0     C85341  -0.622   2.470  10.622 -0.0683 -0.0798 -0.8605
  633MOL0     C85342  -0.600   2.570  10.744  0.4954  0.1472  0.0069
  633MOL0     C85343  -0.713   2.575  10.845 -0.0949 -0.2303 -0.4764
  633MOL0     O85344  -0.837   2.613  10.781 -0.3215 -0.9561  0.2826
  633MOL0     C85345  -0.953   2.623  10.854 -0.7435  0.1182  0.3041
  633MOL0     C85346  -0.962   2.576  10.986  0.1316 -0.2777 -0.6162
  633MOL0     C85347  -1.077   2.585  11.061  0.6609  0.1404  0.3207
  633MOL0     C85348  -1.083   2.519  11.197 -0.6801 -0.8108 -0.0605
  633MOL0     C85349  -1.193   2.641  11.003  0.0382 -0.2734 -0.0709
  633MOL0     C85350  -1.324   2.636  11.072 -0.1206 -0.0658  0.2964
  633MOL0     O85351  -1.366   2.522  11.117 -0.1136 -0.8390  0.2879
  633MOL0     C85352  -1.480   2.498  11.184  0.1961  0.5508 -0.0358
  633MOL0     C85353  -1.498   2.361  11.222 -0.1494  0.3621  0.1102
  633MOL0     C85354  -1.590   2.329  11.324 -0.2869 -0.0853 -0.5161
  633MOL0     C85355  -1.664   2.430  11.381  0.4804 -0.6524  1.3832
  633MOL0     O85356  -1.758   2.393  11.479 -0.6145 -0.5727 -0.1955
  633MOL0     C85357  -1.894   2.438  11.452  0.9334  0.0547  0.1951
  633MOL0     C85358  -1.954   2.392  11.321 -0.9336 -0.8109 -0.3645
  633MOL0     C85359  -2.106   2.383  11.312  0.1319 -0.0638 -0.0514
  633MOL0     C85360  -2.158   2.243  11.363  0.1948 -0.1841 -0.5574
  633MOL0     C85361  -2.298   2.231  11.410  1.5212 -0.4358  0.5893
  633MOL0     C85362  -2.340   2.119  11.511 -0.0584 -0.6705  0.2600
  633MOL0     C85363  -2.327   2.169  11.655  0.0505  0.0029  0.7034
  633MOL0     C85364  -2.415   2.088  11.750 -0.0154 -0.3978 -0.0613
  633MOL0    Cl85365  -2.486   2.195  11.879  0.4138 -0.6695  0.1263
  633MOL0     C85366  -1.663   2.556  11.326  0.3863 -0.5731 -0.4960
  633MOL0     C85367  -1.568   2.591  11.229  1.1354 -0.6440 -0.3279
  633MOL0     O85368  -1.382   2.746  11.069 -0.5038  0.6172 -0.1228
  633MOL0     C85369  -1.188   2.680  10.866 -0.8558 -0.5384  0.2510
  633MOL0     C85370  -1.068   2.681  10.799  0.3885  0.4750  0.8754
  633MOL0     N85371  -0.260   2.363  10.521 -0.4164 -0.2581  0.2488
  633MOL0     N85372  -0.186   2.431  10.446 -0.5203  0.5547  0.2646
  633MOL0     C85373   0.594   2.983  10.810 -0.3872 -0.2076  1.3145
  633MOL0     C85374   0.709   2.908  10.832 -0.4615  0.9010 -0.4987
  633MOL0     C85375   1.124   2.824  10.988 -1.4463 -0.2417  0.4221
  633MOL0     C85376   1.126   2.744  11.105  0.1356  0.0390 -0.5636
  633MOL0     C85377   1.246   2.686  11.139  0.2445 -0.3518  0.2315
  633MOL0     C85378   1.360   2.687  11.054 -0.2052  0.0129  0.4879
  633MOL0     O85379   1.481   2.624  11.083 -0.5141 -0.1043  0.4233
  633MOL0     C85380   1.521   2.615  11.229 -0.4178 -1.1295 -0.0066
  633MOL0     C85381   1.479   2.476  11.284  1.1281  0.0728 -0.2826
  633MOL0     C85382   1.550   2.366  11.223 -0.3835  0.0226  0.1819
  633MOL0     C85383   1.485   2.227  11.241 -0.7849  0.9774 -0.4502
  633MOL0     C85384   1.368   2.188  11.164 -0.8158  0.0121 -0.4155
  633MOL0     C85385   1.286   2.146  11.088 -0.5991 -0.7999  0.0135
  633MOL0     C85386   1.361   2.750  10.937 -0.0307  0.6930  0.7753
  633MOL0     C85387   1.243   2.816  10.905 -0.4447  0.0117 -0.3314
  633MOL0     H85388   0.731   2.990  11.161  0.5402 -1.9896 -0.8789
  633MOL0     H85389   0.517   3.084  11.127  0.6590 -1.0940  0.6689
  633MOL0     H85390   0.269   3.189  10.767  2.6525  1.8571 -1.0578
  633MOL0     H85391   0.407   3.136  10.685 -1.0367  0.0627 -1.9289
  633MOL0     H85392   0.347   2.902  10.744  1.7057  0.9783 -0.1956
  633MOL0     H85393   0.197   2.946  10.833 -4.1321  0.4611 -2.9924
  633MOL0     H85394   0.121   3.073  10.635  3.0198  2.1560  0.9242
  633MOL0     H85395   0.274   3.017  10.546  2.3089 -0.7304  2.5825
  633MOL0     H85396   0.206   2.796  10.559  0.4522  1.5606 -2.8963
  633MOL0     H85397   0.077   2.825  10.672 -0.3289  0.6480 -0.2619
  633MOL0     H85398  -0.052   2.968  10.500  0.7437 -0.4531  2.6679
  633MOL0     H85399   0.081   2.944  10.403 -0.0954 -0.5136  0.4455
  633MOL0     H85400   0.063   2.705  10.385  3.3762  2.5242  2.6498
  633MOL0     H85401  -0.042   2.684  10.514  2.9514 -0.0815  0.3721
  633MOL0     H85402  -0.238   2.801  10.429  1.3850  4.4235 -0.3217
  633MOL0     H85403  -0.140   2.851  10.284 -0.7260  5.0274  2.6094
  633MOL0     H85404  -0.126   2.578  10.257 -0.0944 -1.3887  0.7091
  633MOL0     H85405  -0.277   2.659  10.224  3.8613  0.4150 -2.8891
  633MOL0     H85406  -0.464   2.613  10.462 -1.1174 -0.0452 -2.4080
  633MOL0     H85407  -0.536   2.290  10.540  0.2098  0.0154  2.4662
  633MOL0     H85408  -0.467   2.328  10.688 -1.2168 -1.7980  0.6644
  633MOL0     H85409  -0.710   2.408  10.643 -1.8807  2.7052  0.3090
  633MOL0     H85410  -0.648   2.528  10.533 -0.0853  2.7038  0.8585
  633MOL0     H85411  -0.598   2.669  10.697  1.7235  0.7175  1.1962
  633MOL0     H85412  -0.505   2.553  10.795  0.6066  3.3090  1.1087
  633MOL0     H85413  -0.694   2.646  10.926  1.0887  0.7508 -1.5709
  633MOL0     H85414  -0.724   2.476  10.891 -1.0856 -0.9619 -2.1839
  633MOL0     H85415  -0.871   2.532  11.027  2.2914  1.6175 -3.0195
  633MOL0     H85416  -1.174   2.548  11.251  1.1181  3.0432  1.2543
  633MOL0     H85417  -1.080   2.410  11.198 -0.7252 -0.8104  0.3543
  633MOL0     H85418  -0.993   2.541  11.256  1.4119 -4.1243 -1.7333
  633MOL0     H85419  -1.434   2.281  11.186  0.3803  0.4044  0.9506
  633MOL0     H85420  -1.604   2.228  11.364  0.8770 -0.1044 -0.1047
  633MOL0     H85421  -1.956   2.389  11.528 -0.9227 -0.0967 -1.3603
  633MOL0     H85422  -1.907   2.546  11.461 -3.0448 -0.3056  0.2160
  633MOL0     H85423  -1.941   2.470  11.245  1.6940  2.2553  2.8923
  633MOL0     H85424  -1.898   2.307  11.281  1.3402  1.2810 -2.0185
  633MOL0     H85425  -2.143   2.402  11.211  1.5440 -1.2155 -0.8370
  633MOL0     H85426  -2.144   2.472  11.363  1.2883  2.4769 -3.2283
  633MOL0     H85427  -2.127   2.172  11.285  4.2880 -0.5661  1.1526
  633MOL0     H85428  -2.091   2.223  11.447  0.3745 -1.3539 -0.9584
  633MOL0     H85429  -2.359   2.237  11.320 -0.8361 -1.8100  1.9902
  633MOL0     H85430  -2.317   2.324  11.464  0.5361 -0.7448  0.8005
  633MOL0     H85431  -2.442   2.087  11.487 -0.8395 -2.3240  4.7354
  633MOL0     H85432  -2.272   2.034  11.497 -1.4377 -1.7498 -0.1415
  633MOL0     H85433  -2.380   2.264  11.655 -2.2054 -1.1844  1.0414
  633MOL0     H85434  -2.224   2.184  11.689  0.6331  1.2029 -1.3854
  633MOL0     H85435  -2.355   2.007  11.793  1.1452  0.2433 -0.4100
  633MOL0     H85436  -2.494   2.036  11.695  0.4547  1.6328 -2.8772
  633MOL0     H85437  -1.726   2.623  11.385  2.4646  1.1770 -0.1256
  633MOL0     H85438  -1.572   2.691  11.188 -3.6732 -2.0348 -4.1606
  633MOL0     H85439  -1.268   2.733  10.814  0.1566 -0.2117 -1.0107
  633MOL0     H85440  -1.068   2.726  10.700 -1.5410 -2.1622 -0.4300
  633MOL0     H85441   0.569   3.000  10.706 -4.0746  2.7032  2.4427
  633MOL0     H85442   0.770   2.874  10.748  1.0771  5.8577 -1.7281
  633MOL0     H85443   1.041   2.730  11.171 -0.9796  0.2469 -1.9253
  633MOL0     H85444   1.245   2.632  11.234 -0.1554 -0.7427  0.0087
  633MOL0     H85445   1.629   2.631  11.229 -0.6953  2.0459  3.4034
  633MOL0     H85446   1.483   2.699  11.289  1.2073 -3.1526  4.2213
  633MOL0     H85447   1.373   2.470  11.260  1.2055 -0.6407 -0.4705
  633MOL0     H85448   1.488   2.481  11.393  0.2013  0.9881 -0.2463
  633MOL0     H85449   1.650   2.370  11.269  0.1119 -3.9977 -0.2110
  633MOL0     H85450   1.560   2.391  11.117  1.0709 -0.9236  0.0583
  633MOL0     H85451   1.457   2.194  11.342  1.0780 -2.7390 -0.9764
  633MOL0     H85452   1.563   2.155  11.213 -0.3751  1.3750 -0.3406
  633MOL0     H85453   1.226   2.103  11.010  1.5923  1.1183 -2.9145
  633MOL0     H85454   1.438   2.744  10.862  0.0032  0.4119  0.8310
  633MOL0     H85455   1.240   2.861  10.806  0.2402  0.8484  0.0169
  634MOL0     O85456   0.884   4.405   0.496  0.2661 -0.4925  0.4376
  634MOL0     C85457   0.967   4.487   0.471 -0.5661 -0.0297  0.1940
  634MOL0     O85458   0.970   4.613   0.518  0.3477  0.3093 -0.4345
  634MOL0     C85459   0.854   4.670   0.564 -0.2162  0.3899 -0.0313
  634MOL0     C85460   0.824   4.799   0.526  0.1133  0.4867  0.3368
  634MOL0     C85461   0.722   4.880   0.579  0.3054 -0.5601 -0.2236
  634MOL0     C85462   0.656   4.840   0.699 -0.5161 -0.4848 -0.4610
  634MOL0     O85463   0.555   4.910   0.745  0.8541 -0.3542 -0.7847
  634MOL0     C85464   0.605   4.974   0.859 -0.1648 -0.2657 -0.9036
  634MOL0     C85465   0.663   5.108   0.826  0.7081  0.4183 -0.2373
  634MOL0     C85466   0.565   5.207   0.750 -0.7125 -0.1435 -0.9204
  634MOL0     C85467   0.488   5.295   0.852 -1.0909 -0.6088 -1.3338
  634MOL0     C85468   0.354   5.336   0.807  0.6633  0.6444  0.2762
  634MOL0     C85469   0.279   5.409   0.922 -0.3181 -0.2024  0.3296
  634MOL0     C85470   0.138   5.429   0.885 -0.5055  0.6329  0.0656
  634MOL0     C85471   0.061   5.503   0.997 -1.1173 -0.8929 -0.5695
  634MOL0     N85472  -0.077   5.525   0.971 -0.1634 -0.6211 -0.9240
  634MOL0     C85473  -0.159   5.458   0.877  0.4439 -0.5721 -0.5252
  634MOL0     C85474  -0.271   5.517   0.899  0.5079 -0.2749  0.7000
  634MOL0     C85475  -0.387   5.488   0.809  1.5485 -0.7802 -0.4602
  634MOL0     C85476  -0.441   5.616   0.736 -0.6769 -0.7612  0.2749
  634MOL0     C85477  -0.519   5.573   0.602 -0.6815 -1.2038 -0.0084
  634MOL0     C85478  -0.579   5.686   0.524  0.2605  0.3537  0.5263
  634MOL0     O85479  -0.581   5.654   0.389  0.2045 -0.0897 -0.4016
  634MOL0     C85480  -0.677   5.692   0.297 -0.5872 -0.3893 -0.6223
  634MOL0     C85481  -0.741   5.806   0.302  0.4462  0.4705  0.0746
  634MOL0     C85482  -0.833   5.839   0.195 -0.7070  0.6128  1.0922
  634MOL0     C85483  -0.896   5.976   0.203  0.3567  0.5594 -0.6706
  634MOL0     C85484  -0.859   5.752   0.086  0.1259  0.8293  0.3811
  634MOL0     C85485  -0.959   5.770  -0.020 -0.2876  0.7672 -0.2108
  634MOL0     O85486  -1.074   5.822   0.026  0.2852  0.0380 -0.3085
  634MOL0     C85487  -1.184   5.845  -0.065 -0.1594 -0.0129 -0.8025
  634MOL0     C85488  -1.233   5.748  -0.155  0.3509  0.5437  0.5934
  634MOL0     C85489  -1.336   5.775  -0.252  0.3777 -0.0316  0.5085
  634MOL0     C85490  -1.399   5.900  -0.251  1.0281 -0.6411  0.4818
  634MOL0     O85491  -1.510   5.936  -0.330 -0.8782 -0.2426 -0.5276
  634MOL0     C85492  -1.535   5.845  -0.443  1.0890 -0.4688 -0.4891
  634MOL0     C85493  -1.648   5.906  -0.531 -0.6580  0.3836 -0.6206
  634MOL0     C85494  -1.594   5.962  -0.662  0.0505 -0.2048 -0.1175
  634MOL0     C85495  -1.690   6.021  -0.749 -0.3325 -0.4759  0.1174
  634MOL0     C85496  -1.719   6.175  -0.740  0.1232 -0.4661  0.0013
  634MOL0     C85497  -1.785   6.215  -0.608  0.6877  0.6470  0.9316
  634MOL0     C85498  -1.849   6.347  -0.627  0.3285 -0.8997  0.1151
  634MOL0     C85499  -1.968   6.358  -0.534 -0.2111  0.1308 -0.0912
  634MOL0    Cl85500  -2.044   6.506  -0.545  0.2673 -0.1718 -0.2733
  634MOL0     C85501  -1.370   5.989  -0.152 -0.1084  0.0377 -0.2842
  634MOL0     C85502  -1.267   5.962  -0.054 -0.1440  0.2673  0.8016
  634MOL0     O85503  -0.942   5.728  -0.132 -0.2058  0.0285 -0.0909
  634MOL0     C85504  -0.778   5.636   0.082 -0.1153 -0.1299  0.3525
  634MOL0     C85505  -0.695   5.603   0.191 -0.0283  0.4650 -0.3315
  634MOL0     N85506  -0.267   5.612   0.994 -0.0842  0.0403  0.1317
  634MOL0     N85507  -0.145   5.621   1.034 -0.7201  0.1801 -0.3100
  634MOL0     C85508   0.687   4.711   0.737  0.5349  0.3047  0.2694
  634MOL0     C85509   0.779   4.622   0.671 -1.0701 -0.5175  0.3577
  634MOL0     C85510   1.079   4.459   0.373  0.0016  0.5248  0.2224
  634MOL0     C85511   1.145   4.560   0.300 -0.3196 -0.5848 -0.3817
  634MOL0     C85512   1.245   4.543   0.211 -0.4974  1.0152 -0.1438
  634MOL0     C85513   1.289   4.411   0.183 -0.0408 -0.5051  0.7535
  634MOL0     O85514   1.385   4.397   0.086 -0.2730 -0.1617  0.9408
  634MOL0     C85515   1.448   4.276   0.059  0.5279  0.2806 -0.6935
  634MOL0     C85516   1.554   4.283  -0.049  0.1604 -0.7121  0.4093
  634MOL0     C85517   1.662   4.393  -0.041 -0.1722  0.0677 -0.4085
  634MOL0     C85518   1.735   4.412  -0.177  0.3665  0.7824 -0.2160
  634MOL0     C85519   1.792   4.541  -0.186 -0.2833 -0.1383 -0.0667
  634MOL0     C85520   1.850   4.651  -0.180  0.4633 -0.2893  0.4192
  634MOL0     C85521   1.227   4.301   0.244  1.0681 -0.7874 -0.5736
  634MOL0     C85522   1.127   4.324   0.347  0.3605  0.0778 -0.1993
  634MOL0     H85523   0.884   4.846   0.449 -1.8002  0.1159 -1.4885
  634MOL0     H85524   0.701   4.981   0.547  0.7267  0.2741  1.9226
  634MOL0     H85525   0.532   4.982   0.939  0.8345 -4.0481  0.5863
  634MOL0     H85526   0.671   4.908   0.915 -1.6568 -2.8844 -2.0520
  634MOL0     H85527   0.720   5.160   0.904  1.2159 -0.0513 -0.2854
  634MOL0     H85528   0.739   5.085   0.751  2.2191  0.9107  1.0932
  634MOL0     H85529   0.623   5.276   0.688 -0.8055  1.2671  0.4979
  634MOL0     H85530   0.502   5.140   0.692 -3.3715  0.7278  0.7832
  634MOL0     H85531   0.475   5.238   0.945  0.2490  1.4101  0.1943
  634MOL0     H85532   0.547   5.386   0.865 -0.3777 -1.0095 -1.7468
  634MOL0     H85533   0.371   5.401   0.721 -1.5233  2.3495  1.0565
  634MOL0     H85534   0.295   5.255   0.762 -0.4047  3.3412 -3.7667
  634MOL0     H85535   0.283   5.340   1.007 -2.5041 -1.8767 -0.8075
  634MOL0     H85536   0.315   5.508   0.949 -1.3972  0.5769 -0.9873
  634MOL0     H85537   0.120   5.487   0.794  1.7278 -0.6310 -1.2833
  634MOL0     H85538   0.095   5.329   0.875 -2.1954  1.3158  0.1396
  634MOL0     H85539   0.103   5.595   1.037 -1.7946 -1.4808  1.6825
  634MOL0     H85540   0.069   5.439   1.086  0.0661  2.4633  1.9217
  634MOL0     H85541  -0.133   5.376   0.811  0.0125 -0.6883 -0.5506
  634MOL0     H85542  -0.376   5.397   0.749  0.7993 -1.0571 -0.1874
  634MOL0     H85543  -0.468   5.469   0.880 -1.1134  1.3158 -2.7073
  634MOL0     H85544  -0.349   5.671   0.714 -1.8355  0.5727 -1.5341
  634MOL0     H85545  -0.496   5.679   0.807 -0.4848  2.1970 -2.0267
  634MOL0     H85546  -0.607   5.517   0.639 -0.1039  0.3084  4.2568
  634MOL0     H85547  -0.454   5.516   0.536  0.6933 -0.7785  0.9339
  634MOL0     H85548  -0.525   5.780   0.542 -0.2452  0.3483  2.2035
  634MOL0     H85549  -0.681   5.702   0.559 -0.0753 -0.4703 -0.0490
  634MOL0     H85550  -0.719   5.883   0.376  0.8965 -1.6701  2.2802
  634MOL0     H85551  -0.942   6.014   0.111 -0.3667 -0.7938 -0.8946
  634MOL0     H85552  -0.968   5.970   0.284  3.8545  1.5726  2.8197
  634MOL0     H85553  -0.820   6.038   0.252  2.8908  0.1203 -3.7199
  634MOL0     H85554  -1.182   5.652  -0.155 -2.6259 -1.2496  3.8197
  634MOL0     H85555  -1.347   5.703  -0.333  1.7724  1.0364 -0.6793
  634MOL0     H85556  -1.448   5.843  -0.509  0.7464  4.3057 -1.4119
  634MOL0     H85557  -1.574   5.753  -0.399  0.9587  0.6043  1.7845
  634MOL0     H85558  -1.715   5.821  -0.549 -0.9716 -0.0205  2.1514
  634MOL0     H85559  -1.704   5.982  -0.475 -1.0262 -1.6300  1.9145
  634MOL0     H85560  -1.536   5.890  -0.720  0.4019  0.4685 -0.6177
  634MOL0     H85561  -1.516   6.037  -0.648 -1.0311  1.2738 -1.5708
  634MOL0     H85562  -1.657   5.989  -0.849  0.6405  1.3948 -0.2106
  634MOL0     H85563  -1.778   5.963  -0.718  3.2489 -4.0799  5.0890
  634MOL0     H85564  -1.781   6.206  -0.824 -1.3239 -0.9054  0.8669
  634MOL0     H85565  -1.620   6.221  -0.750 -0.2972  0.1553 -1.4290
  634MOL0     H85566  -1.861   6.137  -0.591  2.4747 -0.9878  1.7553
  634MOL0     H85567  -1.715   6.214  -0.525  1.6323 -2.1444  0.2256
  634MOL0     H85568  -1.884   6.360  -0.730  3.0088  1.6199 -0.6110
  634MOL0     H85569  -1.771   6.421  -0.604  0.8363 -1.1512 -0.7543
  634MOL0     H85570  -1.945   6.330  -0.431  1.7884  2.2499  0.1240
  634MOL0     H85571  -2.043   6.284  -0.562 -0.9837  0.9582 -0.2682
  634MOL0     H85572  -1.433   6.073  -0.125  1.4237  1.9045 -2.1728
  634MOL0     H85573  -1.233   6.023   0.029 -1.9924 -0.4407  2.1515
  634MOL0     H85574  -0.796   5.569  -0.002 -2.1202 -0.3758  0.9107
  634MOL0     H85575  -0.654   5.502   0.194  0.4860  0.6317  3.9389
  634MOL0     H85576   0.636   4.671   0.825  2.6337  0.8833  1.8239
  634MOL0     H85577   0.794   4.521   0.705  0.5354 -0.3117  0.3239
  634MOL0     H85578   1.100   4.659   0.300  1.6000  0.3410 -0.8720
  634MOL0     H85579   1.298   4.632   0.180  1.9139  0.0529  0.9905
  634MOL0     H85580   1.501   4.254   0.153 -3.1513  1.8106  1.9728
  634MOL0     H85581   1.381   4.190   0.046  1.3046 -0.3783 -0.4834
  634MOL0     H85582   1.502   4.304  -0.143  0.0337 -1.5273  0.2835
  634MOL0     H85583   1.609   4.190  -0.068  0.1620 -0.4527 -0.9404
  634MOL0     H85584   1.725   4.360   0.042  0.5656  1.7267 -0.2624
  634MOL0     H85585   1.617   4.486  -0.006 -0.4324  0.1132 -0.8527
  634MOL0     H85586   1.655   4.411  -0.251 -0.6246 -2.7778  0.7223
  634MOL0     H85587   1.805   4.330  -0.194  0.6003  0.9349 -0.0027
  634MOL0     H85588   1.874   4.755  -0.164  0.9428 -0.3360 -0.0094
  634MOL0     H85589   1.261   4.201   0.221  0.7447 -0.5655 -2.1773
  634MOL0     H85590   1.074   4.256   0.412 -0.1322  0.6592  0.0198
  635MOL0     O85591   5.167   8.951   3.257 -0.6856  0.4891 -0.1692
  635MOL0     C85592   5.263   8.876   3.243 -0.0712  0.2546  0.7461
  635MOL0     O85593   5.357   8.842   3.343 -0.1025  0.1501 -0.4402
  635MOL0     C85594   5.307   8.853   3.468 -0.4964 -0.1181  0.5363
  635MOL0     C85595   5.259   8.738   3.536 -0.0509 -0.6809 -0.8396
  635MOL0     C85596   5.230   8.748   3.669 -0.2749 -0.8474 -0.1089
  635MOL0     C85597   5.227   8.873   3.731  0.1969 -0.0816 -0.9229
  635MOL0     O85598   5.178   8.863   3.865 -0.1348 -0.2909  1.4967
  635MOL0     C85599   5.154   8.987   3.928 -0.4109  0.1853 -0.3234
  635MOL0     C85600   5.103   8.963   4.069 -0.0504 -0.4154  0.5777
  635MOL0     C85601   4.962   8.889   4.075 -0.2772 -0.4333 -0.3233
  635MOL0     C85602   4.924   8.847   4.216  0.3047 -0.0655  0.0075
  635MOL0     C85603   4.767   8.837   4.215  0.4781 -0.8705  0.2445
  635MOL0     C85604   4.712   8.773   4.346 -0.2527 -0.5532 -0.3324
  635MOL0     C85605   4.579   8.812   4.414 -0.4681 -0.2905 -0.2532
  635MOL0     C85606   4.591   8.961   4.466  0.4853 -1.4614 -0.7422
  635MOL0     N85607   4.467   9.008   4.526  0.1503 -0.1724 -0.0291
  635MOL0     C85608   4.374   8.921   4.588  0.5682 -0.9149  0.0196
  635MOL0     C85609   4.261   8.991   4.599  0.7317  0.0381 -0.1886
  635MOL0     C85610   4.125   8.951   4.644  0.0368  0.4688 -0.8249
  635MOL0     C85611   4.124   8.976   4.792  0.1424 -1.4787  0.2355
  635MOL0     C85612   3.994   8.939   4.851 -0.0567  0.3967 -0.6560
  635MOL0     C85613   4.010   8.922   4.997 -0.4428  0.3040  0.1205
  635MOL0     O85614   4.090   9.008   5.080  0.6932  0.0116  0.8096
  635MOL0     C85615   4.073   9.145   5.088 -0.8607 -0.8533  0.1077
  635MOL0     C85616   3.958   9.216   5.127 -0.7264  0.1262  0.3190
  635MOL0     C85617   3.948   9.355   5.140 -1.1983  0.4249 -0.7371
  635MOL0     C85618   3.809   9.426   5.177  0.1051  0.3495  0.3887
  635MOL0     C85619   4.061   9.444   5.114 -1.1186 -1.0853 -0.2510
  635MOL0     C85620   4.061   9.595   5.127 -1.0122 -0.0699 -0.4706
  635MOL0     O85621   4.174   9.655   5.181  0.7548 -0.4226 -0.4065
  635MOL0     C85622   4.146   9.792   5.207  0.4757  1.6768  0.0371
  635MOL0     C85623   4.052   9.852   5.292 -0.3497 -0.2046  0.1396
  635MOL0     C85624   4.057   9.992   5.313  0.2178  0.4511 -0.1319
  635MOL0     C85625   4.129  10.078   5.228 -1.0401 -0.6355 -0.2254
  635MOL0     O85626   4.117  10.216   5.249  0.2264  0.9269  0.0905
  635MOL0     C85627   4.221  10.311   5.204 -0.3375 -0.4560 -0.0852
  635MOL0     C85628   4.245  10.399   5.328  0.5346  0.3119  0.7104
  635MOL0     C85629   4.322  10.537   5.311  0.5522  1.2274  0.1108
  635MOL0     C85630   4.262  10.632   5.198  0.4434  0.8611 -0.5351
  635MOL0     C85631   4.348  10.761   5.195 -0.3255  1.0068  0.0356
  635MOL0     C85632   4.313  10.847   5.074 -0.0338 -0.2722  0.1413
  635MOL0     C85633   4.169  10.899   5.060 -0.0783 -0.4939  1.0867
  635MOL0     C85634   4.154  10.964   4.923  0.9916 -0.0201 -0.2582
  635MOL0    Cl85635   4.289  11.068   4.876  0.0730 -0.1017 -0.2046
  635MOL0     C85636   4.217  10.015   5.139 -0.7474  0.4827 -0.2607
  635MOL0     C85637   4.225   9.877   5.134  0.6217  0.5561  1.3053
  635MOL0     O85638   3.962   9.654   5.079 -0.8521 -0.3249 -0.2435
  635MOL0     C85639   4.178   9.379   5.087  0.2160 -0.2803  0.3041
  635MOL0     C85640   4.184   9.233   5.075 -1.4702  0.2160  0.2167
  635MOL0     N85641   4.277   9.101   4.533  1.0901  0.2557 -0.0329
  635MOL0     N85642   4.393   9.115   4.492 -0.2907 -0.0643  0.5445
  635MOL0     C85643   5.261   8.995   3.654 -0.5023  0.1326 -0.0978
  635MOL0     C85644   5.307   8.980   3.533  0.1151  0.0162  1.5547
  635MOL0     C85645   5.282   8.800   3.115 -0.1092 -0.2291 -0.1223
  635MOL0     C85646   5.168   8.785   3.026 -0.1882  0.7449 -0.5413
  635MOL0     C85647   5.175   8.691   2.913  0.5433  0.2488 -0.0322
  635MOL0     C85648   5.301   8.639   2.882 -0.2472  0.4017  1.2365
  635MOL0     O85649   5.337   8.560   2.776  0.3667 -0.1401 -0.1141
  635MOL0     C85650   5.247   8.532   2.669  0.6545 -0.4175 -0.1436
  635MOL0     C85651   5.169   8.411   2.729  0.0557 -0.2465 -0.8105
  635MOL0     C85652   5.082   8.370   2.617  0.2361  0.0541  0.0467
  635MOL0     C85653   4.962   8.290   2.665 -0.0105 -0.2755 -0.4810
  635MOL0     C85654   4.899   8.235   2.548  1.0292 -0.3372 -0.8187
  635MOL0     C85655   4.858   8.197   2.441  0.1994  0.5275 -0.5571
  635MOL0     C85656   5.404   8.667   2.969 -0.6769  0.3957  0.9760
  635MOL0     C85657   5.394   8.731   3.091  0.1251  0.5624 -0.0671
  635MOL0     H85658   5.263   8.644   3.483 -0.6070 -0.7185 -0.8245
  635MOL0     H85659   5.187   8.670   3.730  1.4577 -1.2481  0.6759
  635MOL0     H85660   5.244   9.049   3.933  0.5913 -0.6131 -4.4741
  635MOL0     H85661   5.081   9.042   3.869 -0.9985 -0.7890 -0.5422
  635MOL0     H85662   5.191   8.910   4.108  2.1135  0.7827 -2.3210
  635MOL0     H85663   5.091   9.053   4.128 -2.1823  1.4360 -2.3888
  635MOL0     H85664   4.881   8.960   4.056  0.7068  1.5130  2.2332
  635MOL0     H85665   4.946   8.814   3.996 -0.8833  2.7543 -3.4870
  635MOL0     H85666   4.970   8.750   4.238  2.4518  0.7554 -0.6787
  635MOL0     H85667   4.945   8.922   4.292 -0.2198  2.1676 -1.9356
  635MOL0     H85668   4.726   8.939   4.206  0.6287 -0.8672 -0.4161
  635MOL0     H85669   4.730   8.796   4.120  2.7382 -2.1091 -0.1596
  635MOL0     H85670   4.685   8.670   4.321 -0.8541 -0.0546 -1.8242
  635MOL0     H85671   4.790   8.776   4.423  0.3913  4.1994 -0.8698
  635MOL0     H85672   4.492   8.786   4.352 -0.2540  0.0468 -0.7074
  635MOL0     H85673   4.562   8.741   4.495  1.0910  1.8368  2.0708
  635MOL0     H85674   4.605   9.024   4.378 -1.2570 -0.0970 -0.0925
  635MOL0     H85675   4.667   8.972   4.545  0.1956 -3.2624 -0.1578
  635MOL0     H85676   4.392   8.817   4.615 -2.7395 -1.5032  0.4474
  635MOL0     H85677   4.044   9.016   4.611 -0.6368  1.1322  1.8431
  635MOL0     H85678   4.111   8.846   4.617  0.0656  0.6344 -1.4881
  635MOL0     H85679   4.151   9.080   4.813 -0.0293 -1.7175  1.7518
  635MOL0     H85680   4.200   8.909   4.832 -0.3974 -1.3161  1.5852
  635MOL0     H85681   3.954   8.849   4.803 -1.6584  0.8722 -0.2757
  635MOL0     H85682   3.924   9.020   4.834 -1.3270 -0.4263  0.4018
  635MOL0     H85683   4.055   8.823   5.007 -0.7753  0.2008  0.6471
  635MOL0     H85684   3.910   8.926   5.041  0.3317  2.9192  1.8943
  635MOL0     H85685   3.876   9.147   5.140  0.6946 -1.3257  2.2644
  635MOL0     H85686   3.754   9.435   5.083  0.3972  1.4591  0.3178
  635MOL0     H85687   3.756   9.358   5.244  0.8023  1.2035  1.8565
  635MOL0     H85688   3.809   9.520   5.231  1.2335 -1.7589  4.4378
  635MOL0     H85689   3.991   9.796   5.362 -0.5656  1.4277  1.3066
  635MOL0     H85690   3.992  10.042   5.384 -0.2306  3.3096 -2.3514
  635MOL0     H85691   4.318  10.269   5.174 -0.0820  0.7444 -0.9876
  635MOL0     H85692   4.189  10.357   5.110 -0.3779 -1.5689 -0.6317
  635MOL0     H85693   4.158  10.403   5.395 -1.1892 -3.4024 -1.0369
  635MOL0     H85694   4.312  10.325   5.374 -2.0929 -2.0622  0.9448
  635MOL0     H85695   4.424  10.501   5.293 -0.0869 -0.3901 -0.5296
  635MOL0     H85696   4.316  10.580   5.411  0.3899 -1.1852  1.2239
  635MOL0     H85697   4.268  10.582   5.100 -1.7985 -4.9126  1.8532
  635MOL0     H85698   4.156  10.655   5.211  0.0907 -1.8839  2.4743
  635MOL0     H85699   4.456  10.749   5.181  0.0415 -0.2043  3.1587
  635MOL0     H85700   4.346  10.811   5.292 -0.9480 -2.4019  1.9385
  635MOL0     H85701   4.379  10.934   5.084 -2.9966  1.8924  2.6947
  635MOL0     H85702   4.338  10.792   4.983  3.0697  1.2647 -0.0621
  635MOL0     H85703   4.142  10.971   5.137 -0.4270  0.1015  0.4112
  635MOL0     H85704   4.096  10.818   5.075  0.5461 -1.1526  0.6707
  635MOL0     H85705   4.064  11.022   4.906  1.8360  0.5441 -3.3542
  635MOL0     H85706   4.160  10.884   4.848 -1.7587  0.9197 -1.5772
  635MOL0     H85707   4.287  10.072   5.080 -0.7014  0.9369  0.2333
  635MOL0     H85708   4.300   9.831   5.071 -0.2346 -3.0482  2.7047
  635MOL0     H85709   4.274   9.429   5.081 -1.5766  3.4668  0.3205
  635MOL0     H85710   4.283   9.190   5.069 -1.6144 -0.2356  0.9981
  635MOL0     H85711   5.265   9.091   3.704  1.1491  0.6700 -1.1615
  635MOL0     H85712   5.338   9.064   3.471 -0.3713 -1.3573 -0.6450
  635MOL0     H85713   5.073   8.836   3.042  0.3278  1.0786  1.9086
  635MOL0     H85714   5.091   8.686   2.844  0.0063  1.3389  0.5085
  635MOL0     H85715   5.178   8.614   2.647 -1.6661 -2.9822 -3.3345
  635MOL0     H85716   5.303   8.503   2.580  1.7218 -0.0405  0.3799
  635MOL0     H85717   5.096   8.445   2.803  1.5718  1.2254  0.0908
  635MOL0     H85718   5.221   8.327   2.776 -1.0389 -0.2529  0.4597
  635MOL0     H85719   5.148   8.302   2.562  0.2817 -3.2189  3.7474
  635MOL0     H85720   5.039   8.458   2.567  0.4883  1.7582  2.6541
  635MOL0     H85721   4.882   8.344   2.717  0.3836 -1.4645  1.4797
  635MOL0     H85722   4.993   8.212   2.735 -1.5001 -0.9555 -0.5268
  635MOL0     H85723   4.808   8.163   2.352  0.4503  0.6785 -0.7549
  635MOL0     H85724   5.501   8.632   2.934 -1.1554  1.1860 -1.3145
  635MOL0     H85725   5.476   8.739   3.162 -0.1281  0.0983  0.2791
  636MOL0     O85726   8.427   5.933   5.939  0.0041  0.3767 -0.4986
  636MOL0     C85727   8.415   5.896   6.054  0.5367  0.5331  0.9565
  636MOL0     O85728   8.396   5.767   6.093 -0.1526 -0.5030 -0.7995
  636MOL0     C85729   8.368   5.677   5.998 -0.2215 -0.0331  1.1768
  636MOL0     C85730   8.463   5.642   5.889  0.4424  0.1543  0.2794
  636MOL0     C85731   8.430   5.538   5.799 -0.4580  0.4857 -0.5285
  636MOL0     C85732   8.300   5.484   5.800 -0.0999 -0.4037  0.6975
  636MOL0     O85733   8.276   5.388   5.704 -0.3481  0.3262 -0.1170
  636MOL0     C85734   8.155   5.312   5.696 -0.8106 -0.3202 -0.8025
  636MOL0     C85735   8.150   5.213   5.808 -0.7033  0.4015 -0.5927
  636MOL0     C85736   8.259   5.101   5.818 -0.2627 -0.2574 -0.2106
  636MOL0     C85737   8.201   4.955   5.820  0.0024 -0.3857  0.0638
  636MOL0     C85738   8.306   4.845   5.813  1.4471 -0.0296  0.2189
  636MOL0     C85739   8.234   4.712   5.785  0.0728 -0.4425  0.1466
  636MOL0     C85740   8.311   4.593   5.833 -0.1221 -0.3595  0.1679
  636MOL0     C85741   8.452   4.576   5.790 -0.7585  0.9033  0.3730
  636MOL0     N85742   8.467   4.589   5.643 -0.5257  0.7794  0.8194
  636MOL0     C85743   8.567   4.663   5.591  0.1933 -0.6653  0.3500
  636MOL0     C85744   8.610   4.622   5.473 -0.0466  0.0509  0.0827
  636MOL0     C85745   8.723   4.661   5.375  0.3046 -0.4644  0.1908
  636MOL0     C85746   8.660   4.740   5.254  0.1097 -0.1002  0.7319
  636MOL0     C85747   8.588   4.642   5.146  0.0558 -1.0975  0.2488
  636MOL0     C85748   8.537   4.724   5.021  0.3064 -0.0957 -0.3971
  636MOL0     O85749   8.479   4.854   5.049 -0.1984  0.1628 -0.3549
  636MOL0     C85750   8.363   4.848   5.129 -0.0906  0.1222  0.3139
  636MOL0     C85751   8.342   4.950   5.223 -0.1938 -0.3854 -0.0971
  636MOL0     C85752   8.225   4.954   5.295  0.8041 -0.3714 -0.1186
  636MOL0     C85753   8.210   5.054   5.414 -0.3118 -0.0644 -0.4390
  636MOL0     C85754   8.122   4.861   5.277 -0.0611  0.3878  1.1306
  636MOL0     C85755   7.997   4.848   5.358 -0.8793  1.0460  0.8184
  636MOL0     O85756   7.956   4.955   5.419 -0.1344 -0.5533  0.2225
  636MOL0     C85757   7.872   4.939   5.532  0.5455 -0.3042  0.2553
  636MOL0     C85758   7.886   4.842   5.634 -0.8788 -0.5767 -0.3109
  636MOL0     C85759   7.821   4.853   5.755 -1.1812 -0.5761  0.1410
  636MOL0     C85760   7.729   4.956   5.764  0.0391  0.7865 -0.4244
  636MOL0     O85761   7.641   4.976   5.871  0.0992 -1.1441  1.1814
  636MOL0     C85762   7.571   4.858   5.903  0.0112  0.1758  0.1341
  636MOL0     C85763   7.495   4.860   6.034 -0.1055 -0.0486 -0.4882
  636MOL0     C85764   7.575   4.835   6.164 -0.0337 -0.3354 -0.6420
  636MOL0     C85765   7.685   4.729   6.158 -0.5246  0.5825  0.4106
  636MOL0     C85766   7.627   4.597   6.096  0.1140  0.2189  0.1095
  636MOL0     C85767   7.538   4.515   6.192  0.2168 -0.5164 -0.4638
  636MOL0     C85768   7.524   4.371   6.140 -0.1576 -0.6581 -0.3611
  636MOL0     C85769   7.638   4.287   6.208 -0.7280  0.3661  0.7059
  636MOL0    Cl85770   7.547   4.181   6.326 -0.2269  0.0233  0.1041
  636MOL0     C85771   7.710   5.057   5.673  1.1177  0.3236 -0.1494
  636MOL0     C85772   7.783   5.050   5.558  0.7308 -0.4478 -0.0400
  636MOL0     O85773   7.941   4.739   5.378 -0.7297  0.5906  0.3928
  636MOL0     C85774   8.135   4.775   5.168 -0.6181 -0.0490 -0.1192
  636MOL0     C85775   8.253   4.762   5.100 -1.1475 -0.0363  0.0452
  636MOL0     N85776   8.539   4.504   5.461  0.0115 -0.6014  1.1057
  636MOL0     N85777   8.459   4.482   5.555 -0.5786 -0.0043 -0.8252
  636MOL0     C85778   8.207   5.519   5.899 -0.4619 -0.7366  0.0929
  636MOL0     C85779   8.248   5.609   6.006 -0.7616  0.2175  0.5025
  636MOL0     C85780   8.423   5.992   6.170  1.0232  0.4786 -0.5596
  636MOL0     C85781   8.399   6.129   6.147  0.6687 -0.1941 -0.1722
  636MOL0     C85782   8.387   6.228   6.247  0.6576  0.1672  0.7080
  636MOL0     C85783   8.426   6.193   6.381  0.2600 -0.2240  0.3658
  636MOL0     O85784   8.411   6.289   6.477  0.5087  0.2705  0.3661
  636MOL0     C85785   8.504   6.285   6.592  0.3143  0.7955  1.1361
  636MOL0     C85786   8.519   6.418   6.648  0.2726  0.0169 -0.6507
  636MOL0     C85787   8.590   6.414   6.786 -0.1123  0.2960 -1.1373
  636MOL0     C85788   8.528   6.507   6.886 -0.3711  0.0282  0.1718
  636MOL0     C85789   8.406   6.438   6.942 -0.2198 -0.2948  0.0734
  636MOL0     C85790   8.320   6.382   6.997  0.2953 -0.9588  0.1733
  636MOL0     C85791   8.460   6.059   6.405  0.2245  0.0721 -0.4901
  636MOL0     C85792   8.451   5.957   6.304 -0.6092 -0.1736 -0.3824
  636MOL0     H85793   8.561   5.686   5.874  0.8078 -1.1870 -1.5725
  636MOL0     H85794   8.496   5.510   5.718 -2.3193 -1.3088 -1.5220
  636MOL0     H85795   8.070   5.380   5.688  0.9188  1.8383 -1.9364
  636MOL0     H85796   8.147   5.260   5.601  0.1188 -0.6663 -0.7032
  636MOL0     H85797   8.146   5.259   5.907  1.6356 -1.2438  0.3690
  636MOL0     H85798   8.052   5.173   5.782 -1.1292  2.5923 -2.7148
  636MOL0     H85799   8.312   5.109   5.722  2.5510 -0.3884  1.2398
  636MOL0     H85800   8.334   5.125   5.893 -0.5865  0.7222 -0.1724
  636MOL0     H85801   8.153   4.956   5.918  0.0027  2.5928  0.1379
  636MOL0     H85802   8.124   4.943   5.743 -0.3253 -1.9324  0.5924
  636MOL0     H85803   8.383   4.871   5.740  0.8503  0.1315 -0.3563
  636MOL0     H85804   8.356   4.844   5.911 -2.1135  1.8165  2.2630
  636MOL0     H85805   8.134   4.722   5.829 -0.7779  1.6135 -2.0010
  636MOL0     H85806   8.196   4.704   5.682 -1.8858  0.9363  0.6983
  636MOL0     H85807   8.300   4.589   5.942  2.1219  3.1325  0.6769
  636MOL0     H85808   8.257   4.509   5.787  0.4218  0.7537 -2.7066
  636MOL0     H85809   8.480   4.471   5.805 -1.6785  0.9401  2.9144
  636MOL0     H85810   8.518   4.654   5.827  1.8344 -1.5265  1.1997
  636MOL0     H85811   8.624   4.736   5.648 -0.9493 -0.8473  1.7829
  636MOL0     H85812   8.796   4.724   5.428  0.5972  0.6704 -1.4913
  636MOL0     H85813   8.783   4.578   5.337  1.1074  0.9280 -1.7611
  636MOL0     H85814   8.730   4.806   5.201  2.2323 -1.7721  1.3355
  636MOL0     H85815   8.584   4.804   5.301  0.5243  0.0263  1.2344
  636MOL0     H85816   8.496   4.591   5.178 -1.0115 -0.3741 -1.4858
  636MOL0     H85817   8.660   4.567   5.112 -0.1460 -1.5947  0.8947
  636MOL0     H85818   8.476   4.657   4.959  0.9418 -1.1917  0.1401
  636MOL0     H85819   8.630   4.748   4.969 -0.1208  4.0275  0.3423
  636MOL0     H85820   8.417   5.026   5.242  0.7246 -1.1699 -0.5227
  636MOL0     H85821   8.137   5.131   5.387 -1.2150 -1.6593 -2.9747
  636MOL0     H85822   8.167   5.000   5.499 -0.5160 -2.7825 -2.1049
  636MOL0     H85823   8.300   5.097   5.458 -1.3936  2.6124 -0.6652
  636MOL0     H85824   7.951   4.755   5.629 -0.7352 -0.3972 -1.8253
  636MOL0     H85825   7.835   4.775   5.829 -2.7066 -1.6880 -0.6790
  636MOL0     H85826   7.500   4.850   5.820  2.4613 -1.3621 -1.9648
  636MOL0     H85827   7.630   4.766   5.901 -0.7382 -0.5696 -5.9747
  636MOL0     H85828   7.445   4.956   6.046 -3.9393 -2.0599  1.5968
  636MOL0     H85829   7.419   4.781   6.041  0.1867 -0.1632  2.5790
  636MOL0     H85830   7.495   4.813   6.235  0.7641  1.9063  1.0806
  636MOL0     H85831   7.633   4.923   6.195 -2.0179  0.6937  0.3320
  636MOL0     H85832   7.765   4.756   6.089 -0.8457 -0.1938 -0.2837
  636MOL0     H85833   7.729   4.715   6.257  0.2312 -0.4684 -0.0580
  636MOL0     H85834   7.717   4.536   6.082  1.5310  2.5995 -1.9424
  636MOL0     H85835   7.574   4.609   6.001 -0.8038  0.6112  0.6625
  636MOL0     H85836   7.588   4.527   6.288 -0.3147  4.1662 -0.5644
  636MOL0     H85837   7.447   4.573   6.206  1.9826  2.1150  1.0566
  636MOL0     H85838   7.537   4.375   6.031  0.6405  1.5490 -0.2488
  636MOL0     H85839   7.421   4.345   6.166 -0.5666  1.7902  0.8576
  636MOL0     H85840   7.716   4.349   6.252 -2.8107  2.1485  2.1011
  636MOL0     H85841   7.683   4.223   6.131 -1.5638 -0.5915  0.9823
  636MOL0     H85842   7.644   5.139   5.699  2.5106  0.8051  2.1197
  636MOL0     H85843   7.765   5.127   5.483  3.7735 -0.0857 -0.5075
  636MOL0     H85844   8.051   4.707   5.152  0.9516 -2.5505  1.6405
  636MOL0     H85845   8.273   4.689   5.022  0.2397 -0.0274  0.3693
  636MOL0     H85846   8.105   5.484   5.894 -0.4789 -0.6677 -0.0452
  636MOL0     H85847   8.164   5.632   6.071 -0.8217 -1.5755  1.0911
  636MOL0     H85848   8.383   6.162   6.045 -0.9735  1.5711  0.5841
  636MOL0     H85849   8.343   6.323   6.219  2.8369  1.4355  1.3493
  636MOL0     H85850   8.467   6.217   6.669  1.1267 -0.5813  0.3383
  636MOL0     H85851   8.602   6.245   6.564 -1.2183 -1.0067 -2.3052
  636MOL0     H85852   8.418   6.458   6.662 -0.1846 -0.9996 -0.9430
  636MOL0     H85853   8.561   6.490   6.578 -0.5068 -0.1516 -1.3081
  636MOL0     H85854   8.690   6.450   6.764 -0.2270  0.8653 -0.7591
  636MOL0     H85855   8.599   6.312   6.827  0.9819  0.1713 -1.6719
  636MOL0     H85856   8.503   6.600   6.834  1.7317  0.5291 -0.0426
  636MOL0     H85857   8.595   6.526   6.971  1.3742  1.0777 -1.3572
  636MOL0     H85858   8.246   6.329   7.053 -2.7224  0.4979 -2.1640
  636MOL0     H85859   8.487   6.018   6.502 -1.4532  2.0877  0.9388
  636MOL0     H85860   8.469   5.854   6.334 -2.3478 -1.0249 -2.0503
  637MOL0     O85861   2.921   5.761   4.758 -0.3340 -0.0222 -0.0597
  637MOL0     C85862   2.940   5.671   4.840 -0.0307 -0.0854  0.2676
  637MOL0     O85863   3.055   5.653   4.908  0.3665  0.5020  0.9390
  637MOL0     C85864   3.161   5.741   4.910 -0.3567  0.1356 -0.0769
  637MOL0     C85865   3.290   5.688   4.921  0.7187  1.0369  0.4927
  637MOL0     C85866   3.392   5.775   4.940 -0.7923  0.0002 -0.8716
  637MOL0     C85867   3.372   5.909   4.948 -0.9889 -0.5630  0.8086
  637MOL0     O85868   3.481   5.989   4.989 -0.4692 -0.1670 -0.0228
  637MOL0     C85869   3.491   6.126   4.951 -0.2204 -0.4493 -0.4371
  637MOL0     C85870   3.613   6.186   5.021  0.4522  0.8374  0.3079
  637MOL0     C85871   3.743   6.119   4.987 -1.4018 -0.1217  0.0682
  637MOL0     C85872   3.852   6.161   5.086  0.2138  0.5397  0.5656
  637MOL0     C85873   3.967   6.053   5.069 -0.2411 -0.2201 -0.0044
  637MOL0     C85874   4.029   6.010   5.209 -0.6346 -0.0334  0.8279
  637MOL0     C85875   4.119   5.892   5.209  0.0347  0.0486 -0.4187
  637MOL0     C85876   4.047   5.767   5.221 -0.2891  0.1603  0.5246
  637MOL0     N85877   4.104   5.657   5.138  0.9742 -0.3636  0.1987
  637MOL0     C85878   4.236   5.641   5.100 -0.2076  0.1295 -0.1300
  637MOL0     C85879   4.224   5.559   4.992 -0.2043  0.0574  0.5569
  637MOL0     C85880   4.329   5.503   4.905  0.0630  0.3049 -0.1417
  637MOL0     C85881   4.461   5.443   4.978 -0.6356 -0.2779 -0.0545
  637MOL0     C85882   4.563   5.394   4.873 -0.2334  0.0750  0.4006
  637MOL0     C85883   4.701   5.378   4.938 -0.2163 -0.4564 -0.4158
  637MOL0     O85884   4.798   5.334   4.838  0.1710 -0.4657  0.8172
  637MOL0     C85885   4.930   5.316   4.867  0.0140  1.0506  0.1875
  637MOL0     C85886   5.006   5.275   4.755  0.1953 -0.6154  0.4446
  637MOL0     C85887   5.151   5.275   4.765  0.5219  0.1579 -0.2125
  637MOL0     C85888   5.218   5.251   4.629 -0.1863  0.3233 -0.6068
  637MOL0     C85889   5.212   5.298   4.896  0.2382 -0.3853 -0.5146
  637MOL0     C85890   5.355   5.289   4.935  0.0647 -0.0896  0.8548
  637MOL0     O85891   5.403   5.314   5.068  0.8544 -0.1518  0.6900
  637MOL0     C85892   5.540   5.328   5.078  0.1281  0.2423  0.3581
  637MOL0     C85893   5.611   5.221   5.114 -0.3235  0.5927 -0.0060
  637MOL0     C85894   5.755   5.228   5.112  0.3765 -0.8489  0.1716
  637MOL0     C85895   5.820   5.345   5.068  0.1889 -0.4261 -0.6257
  637MOL0     O85896   5.960   5.346   5.062  0.0118  0.2134  0.7924
  637MOL0     C85897   6.027   5.471   5.080 -0.2258 -0.4363 -0.2485
  637MOL0     C85898   6.163   5.438   5.113  0.1260  0.1644 -0.3531
  637MOL0     C85899   6.249   5.563   5.137  0.3710 -0.2670 -0.3699
  637MOL0     C85900   6.384   5.517   5.207  1.0542 -0.4098  0.3115
  637MOL0     C85901   6.461   5.626   5.266 -0.7776  0.0770 -1.0417
  637MOL0     C85902   6.479   5.758   5.193  0.1439 -0.3558  1.2337
  637MOL0     C85903   6.556   5.850   5.282  0.5118 -0.4180  1.0063
  637MOL0     C85904   6.565   5.991   5.215  0.1720 -0.1256 -0.8715
  637MOL0    Cl85905   6.657   5.999   5.065 -0.1550  0.4343 -0.0346
  637MOL0     C85906   5.739   5.457   5.034 -0.5169 -0.1543 -0.0950
  637MOL0     C85907   5.608   5.441   5.040  0.4428  0.7124 -0.5279
  637MOL0     O85908   5.422   5.252   4.839 -0.4424  0.1359 -0.1956
  637MOL0     C85909   5.130   5.332   5.006  1.0694 -0.1490 -1.2698
  637MOL0     C85910   4.988   5.346   4.983 -0.4457  0.2659 -0.4329
  637MOL0     N85911   4.091   5.511   4.975  0.1264 -0.0059 -0.4163
  637MOL0     N85912   4.019   5.570   5.068 -0.0479 -0.3144  0.5072
  637MOL0     C85913   3.253   5.965   4.935 -0.4586 -0.7930 -0.4993
  637MOL0     C85914   3.143   5.885   4.909 -0.0528 -0.3795  0.0301
  637MOL0     C85915   2.822   5.589   4.885 -0.7211 -0.9348  0.3409
  637MOL0     C85916   2.823   5.541   5.020  0.5813  0.7214 -0.1234
  637MOL0     C85917   2.735   5.430   5.052  0.3336 -0.8257  0.5157
  637MOL0     C85918   2.644   5.384   4.958  1.2297 -0.0728 -0.7734
  637MOL0     O85919   2.561   5.286   5.005 -0.0086  0.3565  0.5912
  637MOL0     C85920   2.431   5.262   4.951  0.7400  0.1049 -0.0290
  637MOL0     C85921   2.424   5.169   4.829  0.8223  0.4898 -1.0960
  637MOL0     C85922   2.279   5.121   4.779 -0.1047  0.5936  0.1159
  637MOL0     C85923   2.211   5.223   4.693 -0.2456 -0.4295 -0.4048
  637MOL0     C85924   2.113   5.152   4.614  0.7558 -0.7232 -0.2105
  637MOL0     C85925   2.017   5.133   4.542 -0.4557 -0.3577  0.3058
  637MOL0     C85926   2.640   5.450   4.831 -1.1217 -0.8697  0.5569
  637MOL0     C85927   2.733   5.548   4.791  0.4106 -1.1396 -0.6490
  637MOL0     H85928   3.311   5.582   4.917 -2.4670  0.3690 -1.4045
  637MOL0     H85929   3.496   5.746   4.957 -1.5118 -1.4193  1.8376
  637MOL0     H85930   3.489   6.137   4.843 -3.0302 -3.3810 -0.8325
  637MOL0     H85931   3.404   6.184   4.983  0.6726  2.6418 -3.0759
  637MOL0     H85932   3.617   6.293   4.998  1.9083  1.6329  3.5806
  637MOL0     H85933   3.605   6.198   5.130  1.6880 -1.1739  0.6820
  637MOL0     H85934   3.726   6.011   4.983 -2.6952  0.0961 -1.2251
  637MOL0     H85935   3.766   6.164   4.890  3.3860  1.4102  1.6436
  637MOL0     H85936   3.901   6.257   5.064  4.3466 -1.8247 -1.6466
  637MOL0     H85937   3.814   6.165   5.189  0.4545  2.5904  0.6258
  637MOL0     H85938   3.937   5.961   5.018 -0.9664 -0.1416  0.2692
  637MOL0     H85939   4.045   6.103   5.011 -0.2340  0.3433  0.4828
  637MOL0     H85940   4.075   6.103   5.243  1.6872  1.0162 -4.2981
  637MOL0     H85941   3.955   5.987   5.287  0.5966  0.4344  2.1797
  637MOL0     H85942   4.175   5.898   5.115  0.8123 -2.0167 -0.1569
  637MOL0     H85943   4.189   5.893   5.293  2.0863 -2.4795 -1.9252
  637MOL0     H85944   3.945   5.775   5.182 -0.2102 -0.6697  0.1288
  637MOL0     H85945   4.042   5.739   5.327 -1.6530  0.2021  0.4930
  637MOL0     H85946   4.330   5.689   5.127 -1.0816  1.8691 -0.1194
  637MOL0     H85947   4.285   5.423   4.844 -3.1538  2.4420 -0.8416
  637MOL0     H85948   4.354   5.571   4.824 -0.3324 -2.4701 -2.7873
  637MOL0     H85949   4.442   5.351   5.035 -0.6065 -1.0218 -1.2177
  637MOL0     H85950   4.518   5.518   5.034  2.6682 -1.7657 -1.1491
  637MOL0     H85951   4.577   5.470   4.795 -0.1201 -2.8949 -2.6706
  637MOL0     H85952   4.531   5.301   4.827  0.3885 -0.3305  0.7726
  637MOL0     H85953   4.692   5.307   5.021  2.8726  0.6382  0.9714
  637MOL0     H85954   4.730   5.478   4.970 -1.2997  0.5560 -2.4119
  637MOL0     H85955   4.945   5.239   4.673  0.2079 -0.2121  0.2588
  637MOL0     H85956   5.173   5.158   4.591  0.6964 -1.1335  1.6841
  637MOL0     H85957   5.194   5.338   4.567 -0.9934  1.2120  0.9097
  637MOL0     H85958   5.325   5.228   4.638 -0.2743  0.2676  0.4183
  637MOL0     H85959   5.549   5.135   5.139  0.2346 -0.6601 -2.5589
  637MOL0     H85960   5.809   5.140   5.144  1.9161  0.4194  1.2001
  637MOL0     H85961   6.023   5.529   4.987  0.1185 -1.8727 -1.1852
  637MOL0     H85962   5.986   5.532   5.161  0.3965  2.0085 -1.6770
  637MOL0     H85963   6.162   5.380   5.206 -2.5462  0.4604 -0.1380
  637MOL0     H85964   6.212   5.374   5.040  0.2994 -1.5190  1.1673
  637MOL0     H85965   6.185   5.625   5.200  0.2768  0.5030 -1.2073
  637MOL0     H85966   6.261   5.607   5.038  0.5545 -4.7765 -2.6180
  637MOL0     H85967   6.359   5.449   5.289 -2.8853 -2.1683 -2.0299
  637MOL0     H85968   6.438   5.458   5.133 -1.0495 -0.3041 -1.4176
  637MOL0     H85969   6.555   5.582   5.300 -2.4379 -3.0749 -0.1959
  637MOL0     H85970   6.415   5.646   5.363 -0.0470  2.7274 -1.1609
  637MOL0     H85971   6.537   5.741   5.102  0.5612 -1.4308  1.6802
  637MOL0     H85972   6.383   5.803   5.169  0.3617 -0.2278  0.5853
  637MOL0     H85973   6.655   5.813   5.309  2.2198  4.0311  1.6695
  637MOL0     H85974   6.490   5.867   5.368 -1.3481  3.8518 -0.9334
  637MOL0     H85975   6.593   6.070   5.284  0.3335 -0.4265 -0.5895
  637MOL0     H85976   6.466   6.021   5.179 -1.3375 -0.5190  2.5497
  637MOL0     H85977   5.788   5.554   5.022 -3.0933  0.9452 -2.8551
  637MOL0     H85978   5.541   5.522   5.014 -0.0942 -0.0542 -1.6291
  637MOL0     H85979   5.169   5.369   5.100  0.3836 -0.4935 -0.8349
  637MOL0     H85980   4.927   5.385   5.064 -2.8555 -5.8613  1.2737
  637MOL0     H85981   3.244   6.071   4.955  0.0967 -0.5989 -1.2091
  637MOL0     H85982   3.049   5.940   4.907 -1.2350 -2.0633  3.3073
  637MOL0     H85983   2.898   5.580   5.088  0.1784  3.1306 -0.9398
  637MOL0     H85984   2.719   5.385   5.149  2.9596 -0.9169  0.9707
  637MOL0     H85985   2.381   5.214   5.035 -0.2900 -2.1807 -1.8148
  637MOL0     H85986   2.390   5.361   4.926  1.5994 -0.1547 -2.8861
  637MOL0     H85987   2.485   5.084   4.860 -3.9880 -2.2182  2.3495
  637MOL0     H85988   2.477   5.218   4.747  0.3095  1.4869 -0.8497
  637MOL0     H85989   2.216   5.113   4.868  1.0791  0.1201  0.9393
  637MOL0     H85990   2.285   5.036   4.711  1.0933  3.9323 -4.5339
  637MOL0     H85991   2.283   5.280   4.633 -0.6472 -0.2782 -0.7501
  637MOL0     H85992   2.169   5.294   4.765 -0.0141 -1.2549  0.5642
  637MOL0     H85993   1.936   5.103   4.480  1.1003 -1.1442 -1.4094
  637MOL0     H85994   2.561   5.428   4.760 -0.7950  0.9109 -0.4241
  637MOL0     H85995   2.741   5.591   4.691 -0.0033  0.5014 -0.0137
  638MOL0     O85996   7.392   4.845   4.639  0.2499  0.2882  0.6387
  638MOL0     C85997   7.316   4.779   4.563  0.3722  0.8336 -0.0946
  638MOL0     O85998   7.206   4.829   4.497 -0.3961 -0.3670 -0.0880
  638MOL0     C85999   7.205   4.953   4.431  0.2859 -0.0810 -0.4852
  638MOL0     C86000   7.083   4.993   4.386  1.2328 -0.0076  1.2602
  638MOL0     C86001   7.065   5.122   4.313 -0.2556  0.1214  0.4739
  638MOL0     C86002   7.167   5.212   4.306 -0.7504  0.4042 -0.2291
  638MOL0     O86003   7.146   5.339   4.255 -0.3903  0.2797  0.0265
  638MOL0     C86004   7.107   5.423   4.370 -0.1785 -0.0887  0.3828
  638MOL0     C86005   7.062   5.559   4.312  0.0296 -0.1729  0.6025
  638MOL0     C86006   6.935   5.554   4.223 -0.0107 -1.8080  0.2269
  638MOL0     C86007   6.891   5.700   4.181  0.6044 -0.1597 -0.2654
  638MOL0     C86008   6.743   5.700   4.146  1.8632  1.1709  0.2005
  638MOL0     C86009   6.706   5.650   4.004 -0.2260  0.2274  0.8225
  638MOL0     C86010   6.555   5.701   3.973  1.6227 -0.0415  0.5002
  638MOL0     C86011   6.530   5.701   3.824  0.6841 -0.8891  0.0512
  638MOL0     N86012   6.385   5.732   3.793 -1.3482  0.0889 -0.7323
  638MOL0     C86013   6.281   5.649   3.840 -0.2336  0.2439 -0.8237
  638MOL0     C86014   6.173   5.706   3.802 -0.2414 -0.7090 -0.6810
  638MOL0     C86015   6.026   5.658   3.826 -0.4029 -0.5714 -0.1722
  638MOL0     C86016   5.931   5.744   3.738 -1.2358  0.3180  0.1133
  638MOL0     C86017   5.801   5.670   3.715 -0.6756 -0.0751 -0.2245
  638MOL0     C86018   5.734   5.600   3.835 -0.2093  0.3060 -0.2993
  638MOL0     O86019   5.626   5.530   3.773  0.7008 -0.9970  0.5610
  638MOL0     C86020   5.639   5.402   3.731  0.0203 -0.4939  0.0343
  638MOL0     C86021   5.525   5.341   3.694 -0.5702  1.0981  0.2302
  638MOL0     C86022   5.526   5.203   3.642  0.1998 -0.5952 -0.0153
  638MOL0     C86023   5.390   5.147   3.598  0.1238  0.4740  0.1350
  638MOL0     C86024   5.640   5.126   3.647  1.4056 -0.3543  0.0493
  638MOL0     C86025   5.646   4.984   3.619 -0.0196  0.6209  0.4970
  638MOL0     O86026   5.740   4.933   3.542  0.5386 -0.7818  0.1235
  638MOL0     C86027   5.734   4.801   3.494  0.2785  0.2835  0.0963
  638MOL0     C86028   5.669   4.688   3.542  0.1199  0.2868 -0.9320
  638MOL0     C86029   5.669   4.566   3.475 -0.3331  1.1767 -0.1266
  638MOL0     C86030   5.747   4.550   3.363  0.4236  0.5597  0.3379
  638MOL0     O86031   5.745   4.420   3.310  0.0168  0.6791 -0.6992
  638MOL0     C86032   5.832   4.387   3.191  0.9331 -0.2604 -0.4646
  638MOL0     C86033   5.812   4.241   3.139 -0.4238  0.4444 -0.6140
  638MOL0     C86034   5.893   4.201   3.011  0.3586  0.9411 -0.9749
  638MOL0     C86035   5.824   4.263   2.898 -0.5333 -0.0629  0.4582
  638MOL0     C86036   5.923   4.354   2.824  0.5042  0.0727 -0.8171
  638MOL0     C86037   6.015   4.284   2.722 -0.6515 -0.5761 -0.4198
  638MOL0     C86038   6.095   4.394   2.658  0.0596 -0.1564 -0.1158
  638MOL0     C86039   6.171   4.338   2.536  0.2244 -0.8994  0.1496
  638MOL0    Cl86040   6.254   4.183   2.564 -0.3978 -0.0240 -0.0949
  638MOL0     C86041   5.808   4.659   3.300  0.0584  0.9917  0.6724
  638MOL0     C86042   5.799   4.783   3.372 -0.3404 -0.1231  0.0975
  638MOL0     O86043   5.569   4.921   3.691  0.3809  1.0111 -0.3016
  638MOL0     C86044   5.756   5.198   3.676 -0.2759 -0.2354 -0.1286
  638MOL0     C86045   5.762   5.331   3.708  0.2887  0.4620 -0.4994
  638MOL0     N86046   6.213   5.819   3.735  0.7825  0.6119  0.5431
  638MOL0     N86047   6.337   5.841   3.726  0.4715  0.4742  0.6775
  638MOL0     C86048   7.293   5.175   4.350 -0.6181  0.3674 -0.5371
  638MOL0     C86049   7.312   5.049   4.418 -0.9173 -1.0250  0.4819
  638MOL0     C86050   7.328   4.634   4.565 -1.1486 -0.1613 -0.0573
  638MOL0     C86051   7.452   4.576   4.595 -0.2744 -1.2774  0.3214
  638MOL0     C86052   7.467   4.443   4.579 -0.6806  0.0879  0.0663
  638MOL0     C86053   7.357   4.358   4.548 -0.1850 -0.5660  0.5931
  638MOL0     O86054   7.368   4.217   4.516 -0.5318 -0.3115 -0.3684
  638MOL0     C86055   7.493   4.158   4.509 -0.6539  0.1865 -0.3256
  638MOL0     C86056   7.491   4.014   4.459  0.3342  0.5780  0.5673
  638MOL0     C86057   7.460   3.928   4.580 -0.2507 -0.2497 -0.0288
  638MOL0     C86058   7.493   3.785   4.562  1.2161  0.9925  0.3327
  638MOL0     C86059   7.421   3.720   4.455  1.0398 -0.2728 -0.4660
  638MOL0     C86060   7.361   3.659   4.366  0.7824 -0.2553 -1.0297
  638MOL0     C86061   7.234   4.412   4.529  0.2259 -0.8055 -1.1056
  638MOL0     C86062   7.215   4.553   4.537  0.3748  0.4579  0.3975
  638MOL0     H86063   6.996   4.930   4.398 -1.4216  3.5756  2.6519
  638MOL0     H86064   6.968   5.158   4.281  0.2674  1.2011  0.0559
  638MOL0     H86065   7.019   5.376   4.415 -1.5380 -0.7979 -2.6926
  638MOL0     H86066   7.176   5.435   4.454 -0.7604 -0.5906  0.9433
  638MOL0     H86067   7.052   5.631   4.394  2.4053 -0.1228  0.9131
  638MOL0     H86068   7.139   5.591   4.241 -1.4888  0.6074 -0.7773
  638MOL0     H86069   6.950   5.497   4.131 -1.8984  0.1075 -1.3765
  638MOL0     H86070   6.858   5.501   4.280 -0.0722 -3.0856 -0.9739
  638MOL0     H86071   6.902   5.762   4.270  1.3596 -3.0837  1.8542
  638MOL0     H86072   6.941   5.735   4.091 -1.7966  4.2010 -0.1571
  638MOL0     H86073   6.680   5.645   4.217 -0.5474  0.2695 -2.4600
  638MOL0     H86074   6.708   5.804   4.153  1.0075  0.8867  0.2706
  638MOL0     H86075   6.771   5.693   3.927 -2.1946  0.9254 -0.5241
  638MOL0     H86076   6.711   5.541   4.011 -3.6074 -0.0902  0.0589
  638MOL0     H86077   6.488   5.640   4.034  0.1526  1.6936  0.6736
  638MOL0     H86078   6.547   5.802   4.013  0.4955  0.5899 -1.2107
  638MOL0     H86079   6.567   5.605   3.789  2.7657 -0.3572  0.6349
  638MOL0     H86080   6.582   5.783   3.772 -1.7300  0.4885 -0.3379
  638MOL0     H86081   6.304   5.556   3.892 -1.0848 -0.0813 -1.0122
  638MOL0     H86082   6.027   5.551   3.802  0.6523 -0.9958  1.5876
  638MOL0     H86083   5.992   5.676   3.928 -0.7744 -1.4784 -0.1262
  638MOL0     H86084   5.960   5.749   3.632 -1.5156 -4.1431 -0.3533
  638MOL0     H86085   5.919   5.838   3.794 -0.5964  0.2013  0.4528
  638MOL0     H86086   5.837   5.597   3.642 -0.0444 -0.4928  0.4914
  638MOL0     H86087   5.724   5.733   3.669 -2.5719 -2.8314 -1.0340
  638MOL0     H86088   5.699   5.664   3.916  0.8903  0.0427  0.4200
  638MOL0     H86089   5.803   5.526   3.879  0.7920 -0.0035 -2.2544
  638MOL0     H86090   5.426   5.385   3.687 -2.3724 -2.5892  0.1249
  638MOL0     H86091   5.380   5.038   3.606 -2.5317  0.7539  1.9812
  638MOL0     H86092   5.303   5.187   3.651 -3.4431 -5.8625  0.0026
  638MOL0     H86093   5.375   5.169   3.492 -1.1040 -2.0808 -0.2858
  638MOL0     H86094   5.618   4.697   3.637 -0.7866 -0.8140 -1.2984
  638MOL0     H86095   5.615   4.482   3.518  2.0212 -0.5417 -0.3319
  638MOL0     H86096   5.809   4.453   3.108  1.6251 -0.0116 -0.4670
  638MOL0     H86097   5.938   4.399   3.217  1.0652 -3.8495  1.3448
  638MOL0     H86098   5.820   4.171   3.223 -1.2580 -0.1206 -0.9878
  638MOL0     H86099   5.710   4.236   3.099  0.8971 -0.4704 -4.2564
  638MOL0     H86100   5.888   4.093   2.995  0.8836  1.0610 -1.9982
  638MOL0     H86101   6.000   4.221   3.024  0.4933 -0.5574  0.5295
  638MOL0     H86102   5.794   4.186   2.827  1.3551 -0.3973 -0.0295
  638MOL0     H86103   5.740   4.325   2.929  0.1961  0.3151  1.8056
  638MOL0     H86104   5.978   4.416   2.894 -0.6672 -0.3465  0.5141
  638MOL0     H86105   5.862   4.426   2.768  0.4533 -0.3251 -1.2801
  638MOL0     H86106   6.086   4.213   2.765  1.4165 -0.2220 -2.9995
  638MOL0     H86107   5.949   4.242   2.645 -0.4416  0.7608 -1.3658
  638MOL0     H86108   6.167   4.440   2.726 -2.8021  3.4517  0.8139
  638MOL0     H86109   6.032   4.477   2.626 -0.1709  0.6179  2.1619
  638MOL0     H86110   6.250   4.408   2.507  0.0991 -0.7777  0.0972
  638MOL0     H86111   6.098   4.316   2.457 -0.0268  0.8634 -0.1410
  638MOL0     H86112   5.861   4.667   3.205  0.2828  4.0213  0.9536
  638MOL0     H86113   5.852   4.874   3.346  1.2077 -0.6223  1.3002
  638MOL0     H86114   5.850   5.145   3.675  1.1812  2.2241 -1.6415
  638MOL0     H86115   5.862   5.368   3.732  0.3321 -0.8426  1.5482
  638MOL0     H86116   7.380   5.236   4.327  2.0779 -3.6803 -2.2244
  638MOL0     H86117   7.415   5.043   4.452 -0.4833 -0.0703 -0.6227
  638MOL0     H86118   7.539   4.638   4.613 -1.6278 -0.0253  3.1109
  638MOL0     H86119   7.561   4.393   4.600 -1.9473 -1.5779  2.0916
  638MOL0     H86120   7.562   4.215   4.445 -0.5662  2.9769  2.0592
  638MOL0     H86121   7.537   4.158   4.609 -0.7378 -0.1776 -0.2888
  638MOL0     H86122   7.590   3.980   4.428 -1.0814 -1.4485 -2.1552
  638MOL0     H86123   7.424   3.999   4.374  2.8531  1.3077 -1.6902
  638MOL0     H86124   7.352   3.941   4.593 -0.3320  3.5183 -2.7647
  638MOL0     H86125   7.506   3.967   4.671  1.6099 -0.4240 -0.8504
  638MOL0     H86126   7.470   3.730   4.654 -2.4232  2.0653  0.1998
  638MOL0     H86127   7.600   3.776   4.538  1.0581  0.3074 -0.1306
  638MOL0     H86128   7.308   3.613   4.285  0.3164 -1.2813 -0.1656
  638MOL0     H86129   7.141   4.358   4.540 -0.9279  1.4680  2.1003
  638MOL0     H86130   7.115   4.593   4.521 -0.9502 -1.6169  2.8541
  639MOL0     O86131   3.379   5.716  10.355 -0.6461 -0.7804  0.6394
  639MOL0     C86132   3.256   5.714  10.360 -0.2281 -0.2911  0.2122
  639MOL0     O86133   3.173   5.679  10.255  0.2716  0.3126 -0.1032
  639MOL0     C86134   3.233   5.649  10.136  0.1344  0.3795  0.0766
  639MOL0     C86135   3.201   5.727  10.023  0.3460  0.2751  0.3320
  639MOL0     C86136   3.259   5.698   9.902  0.2532 -0.0684 -0.0023
  639MOL0     C86137   3.345   5.590   9.881 -0.7440 -0.4349 -0.1931
  639MOL0     O86138   3.387   5.554   9.756 -0.2139 -0.3979  0.9240
  639MOL0     C86139   3.468   5.653   9.691 -0.2546  0.4239  0.2110
  639MOL0     C86140   3.408   5.696   9.554 -0.7482 -0.2259 -0.1776
  639MOL0     C86141   3.494   5.797   9.488 -0.0557 -0.1989 -0.9828
  639MOL0     C86142   3.432   5.847   9.363  0.3690  0.3091  0.0367
  639MOL0     C86143   3.536   5.938   9.292 -0.4001  0.1689 -0.3743
  639MOL0     C86144   3.488   6.000   9.163 -0.9268 -0.1486 -0.1493
  639MOL0     C86145   3.581   6.128   9.113 -0.7764  1.4077  0.6699
  639MOL0     C86146   3.517   6.194   8.984  0.0132  0.5827  0.4542
  639MOL0     N86147   3.582   6.321   8.961  0.5639 -1.0515  0.5249
  639MOL0     C86148   3.684   6.349   8.870 -0.0972 -1.0963 -0.5688
  639MOL0     C86149   3.691   6.484   8.863 -0.0753 -0.0809 -0.6075
  639MOL0     C86150   3.797   6.560   8.779 -0.3933 -0.0524 -0.4510
  639MOL0     C86151   3.896   6.632   8.874 -1.3167  0.5759  0.1108
  639MOL0     C86152   3.832   6.770   8.912  0.2779  0.4692  0.2174
  639MOL0     C86153   3.913   6.837   9.024 -0.2849 -0.2244 -0.0660
  639MOL0     O86154   4.041   6.851   8.976  0.0082 -0.2503 -0.2601
  639MOL0     C86155   4.087   6.981   8.948 -0.2340  1.2767 -0.0331
  639MOL0     C86156   4.184   7.032   9.027 -1.1741 -0.0783 -0.2831
  639MOL0     C86157   4.232   7.164   9.010  0.5047 -0.9715 -0.5328
  639MOL0     C86158   4.331   7.215   9.099 -0.3597 -0.8319  0.0533
  639MOL0     C86159   4.183   7.242   8.899 -0.1226  0.4261  0.4335
  639MOL0     C86160   4.204   7.382   8.865  0.2235  0.8297  0.6184
  639MOL0     O86161   4.192   7.405   8.729  1.2058 -0.5327 -0.3528
  639MOL0     C86162   4.210   7.529   8.673 -0.3775 -0.7162 -0.1468
  639MOL0     C86163   4.144   7.549   8.550 -0.2800  0.4171  0.5786
  639MOL0     C86164   4.162   7.662   8.470  0.0249 -0.3258 -0.0361
  639MOL0     C86165   4.255   7.759   8.510  0.8605  0.0654 -1.0083
  639MOL0     O86166   4.284   7.878   8.444 -0.0792  0.0086 -0.4399
  639MOL0     C86167   4.179   7.958   8.377 -0.3473  0.5409 -0.8011
  639MOL0     C86168   4.230   8.099   8.347  0.4210 -0.3408  0.3154
  639MOL0     C86169   4.124   8.200   8.296  0.0191 -0.2439 -0.1255
  639MOL0     C86170   4.003   8.217   8.391  0.1763  0.0551  0.5665
  639MOL0     C86171   3.896   8.309   8.335 -0.5632 -0.1391 -0.4867
  639MOL0     C86172   3.777   8.350   8.428 -0.5742 -0.2782  0.1624
  639MOL0     C86173   3.821   8.418   8.561  0.7330 -0.9785  0.7421
  639MOL0     C86174   3.894   8.560   8.558 -0.4440  0.9510 -0.3608
  639MOL0    Cl86175   3.814   8.673   8.460  0.5678 -0.4354  0.2638
  639MOL0     C86176   4.329   7.738   8.630  0.5045  0.8172  0.0122
  639MOL0     C86177   4.306   7.629   8.719  0.7639 -1.6135  1.1464
  639MOL0     O86178   4.198   7.469   8.948  0.2039  0.4173 -0.8184
  639MOL0     C86179   4.087   7.179   8.817 -0.5151  0.7165 -0.4845
  639MOL0     C86180   4.039   7.045   8.836  0.3165 -1.1358 -0.6852
  639MOL0     N86181   3.589   6.545   8.936  0.4822  0.1380 -0.8119
  639MOL0     N86182   3.522   6.444   8.991 -0.4403  0.6403  0.4212
  639MOL0     C86183   3.375   5.504   9.985  0.0053 -0.5916  0.5935
  639MOL0     C86184   3.324   5.535  10.110 -0.5086 -0.4716 -1.3830
  639MOL0     C86185   3.200   5.720  10.492  0.0574  0.7286 -0.3628
  639MOL0     C86186   3.066   5.753  10.499 -0.2936  0.0575  0.2693
  639MOL0     C86187   3.011   5.766  10.620  0.4755 -0.0013  0.5478
  639MOL0     C86188   3.074   5.733  10.739  0.5018  0.7005 -0.0568
  639MOL0     O86189   3.000   5.750  10.856 -0.1853 -0.9051  0.9217
  639MOL0     C86190   3.064   5.722  10.985  0.0941  0.3981 -0.0560
  639MOL0     C86191   2.980   5.794  11.088  0.6012 -0.2647 -0.7555
  639MOL0     C86192   3.037   5.932  11.102  0.1194 -0.6457 -0.4936
  639MOL0     C86193   2.965   5.994  11.217  0.4399  0.1961  0.0310
  639MOL0     C86194   2.996   5.960  11.354  0.4679  0.4932 -1.2527
  639MOL0     C86195   3.009   5.934  11.472 -0.3221 -0.8138 -0.4419
  639MOL0     C86196   3.206   5.688  10.731  0.3620  0.5369  0.3929
  639MOL0     C86197   3.273   5.687  10.609 -0.2093 -0.1939 -0.0547
  639MOL0     H86198   3.122   5.801  10.030 -0.9966 -0.4743 -3.8021
  639MOL0     H86199   3.246   5.758   9.812 -1.2484 -2.5004 -1.4954
  639MOL0     H86200   3.479   5.750   9.741 -0.3519  0.8620 -0.6049
  639MOL0     H86201   3.566   5.605   9.683 -0.4748 -0.2209  1.1924
  639MOL0     H86202   3.393   5.606   9.494  1.4341 -0.3765 -0.5978
  639MOL0     H86203   3.312   5.745   9.572  0.7285  4.4458 -3.3632
  639MOL0     H86204   3.508   5.885   9.552 -0.1039 -0.2736 -0.8705
  639MOL0     H86205   3.587   5.743   9.466 -1.4140 -2.3604 -1.7246
  639MOL0     H86206   3.398   5.771   9.292 -1.4019  0.5405  0.5863
  639MOL0     H86207   3.350   5.918   9.379 -0.1204 -0.3620  0.5414
  639MOL0     H86208   3.564   6.020   9.358  0.3477  0.7882 -1.4228
  639MOL0     H86209   3.629   5.886   9.267 -0.4069 -0.3716  0.6575
  639MOL0     H86210   3.488   5.916   9.093 -1.6439  0.1388 -0.5091
  639MOL0     H86211   3.386   6.038   9.175 -0.4591  1.4707 -0.9999
  639MOL0     H86212   3.598   6.203   9.190 -0.0265  1.4337  0.4893
  639MOL0     H86213   3.682   6.086   9.105 -0.6096  1.9369 -0.1515
  639MOL0     H86214   3.409   6.213   8.987 -0.3350 -0.8157 -1.4743
  639MOL0     H86215   3.547   6.123   8.906  2.0833 -1.6171  3.0710
  639MOL0     H86216   3.747   6.283   8.811 -1.1409 -3.6225  0.9825
  639MOL0     H86217   3.855   6.491   8.717  1.6497  0.1194  1.1313
  639MOL0     H86218   3.748   6.626   8.708 -0.9724 -0.6612 -0.6218
  639MOL0     H86219   3.992   6.647   8.822 -0.0827  3.1472  2.7909
  639MOL0     H86220   3.909   6.576   8.967  0.8469  3.3664  1.6713
  639MOL0     H86221   3.732   6.752   8.952  0.0367 -3.5990 -1.7073
  639MOL0     H86222   3.820   6.841   8.830 -0.2185  1.7307  1.3544
  639MOL0     H86223   3.911   6.787   9.121 -3.3459  0.0814  0.1424
  639MOL0     H86224   3.864   6.930   9.055 -0.0975 -0.2215  0.2250
  639MOL0     H86225   4.222   6.975   9.112 -3.3481 -0.6673  0.3479
  639MOL0     H86226   4.382   7.137   9.155  1.7272  1.5423  1.7109
  639MOL0     H86227   4.401   7.275   9.039  2.1467 -2.2137  1.4248
  639MOL0     H86228   4.298   7.283   9.178  1.7955  1.2259 -0.6880
  639MOL0     H86229   4.067   7.479   8.520 -0.5592  0.9714 -0.0301
  639MOL0     H86230   4.114   7.683   8.375  1.9303 -0.0342 -0.9749
  639MOL0     H86231   4.152   7.908   8.283  0.9926  0.8289 -1.3738
  639MOL0     H86232   4.097   7.952   8.449 -0.2760  0.4973 -0.7231
  639MOL0     H86233   4.283   8.144   8.431 -1.4252  0.3223  1.1864
  639MOL0     H86234   4.297   8.081   8.262  0.9586 -1.4604  0.9459
  639MOL0     H86235   4.094   8.145   8.207  0.7993  2.6701 -2.3142
  639MOL0     H86236   4.176   8.294   8.278  2.1966 -2.1423 -6.4155
  639MOL0     H86237   3.963   8.120   8.423 -2.8688  0.8215 -0.5728
  639MOL0     H86238   4.049   8.273   8.473 -3.0238  1.9860  1.2135
  639MOL0     H86239   3.862   8.245   8.253  0.7287 -0.0666 -1.1109
  639MOL0     H86240   3.940   8.397   8.286 -0.2303 -1.2789 -2.3381
  639MOL0     H86241   3.716   8.413   8.364 -0.9351  0.0963  0.8662
  639MOL0     H86242   3.726   8.260   8.463  0.8307 -0.0466  3.1351
  639MOL0     H86243   3.890   8.347   8.608  1.8338  1.6288  3.3551
  639MOL0     H86244   3.733   8.423   8.625  1.6341 -3.6776  2.3816
  639MOL0     H86245   3.989   8.533   8.510 -1.0530  1.5237 -1.9621
  639MOL0     H86246   3.903   8.600   8.659 -3.2856 -1.8057  1.1427
  639MOL0     H86247   4.400   7.815   8.656 -1.2827  2.3898  0.4723
  639MOL0     H86248   4.362   7.619   8.811  1.9723 -1.1667  0.4838
  639MOL0     H86249   4.048   7.245   8.740 -0.8070  4.5817  2.6575
  639MOL0     H86250   3.966   6.998   8.769 -0.2778 -3.4059  1.4017
  639MOL0     H86251   3.442   5.419   9.979 -0.6167 -0.9780 -4.2942
  639MOL0     H86252   3.354   5.472  10.193 -2.4747  0.6514  0.2906
  639MOL0     H86253   3.005   5.761  10.409  0.5167 -1.9382 -0.5160
  639MOL0     H86254   2.907   5.794  10.633  0.5422  0.1964  0.6618
  639MOL0     H86255   3.050   5.616  11.006  0.8840  0.4420  0.7268
  639MOL0     H86256   3.169   5.747  10.995 -0.0224  1.3872 -1.0428
  639MOL0     H86257   2.978   5.734  11.179  1.6964  0.8231  0.0265
  639MOL0     H86258   2.878   5.804  11.051  0.7862  0.5841 -1.0645
  639MOL0     H86259   3.019   5.969  11.001 -0.2697 -2.3951 -1.0988
  639MOL0     H86260   3.146   5.936  11.110  0.3566 -1.4651 -2.6659
  639MOL0     H86261   2.858   5.977  11.202  0.7987 -2.7849  0.3259
  639MOL0     H86262   2.997   6.098  11.206 -0.0761  0.1762 -2.0255
  639MOL0     H86263   3.016   5.910  11.576 -2.3556  4.5554  1.3269
  639MOL0     H86264   3.255   5.647  10.818  2.4484  2.2988  0.1095
  639MOL0     H86265   3.379   5.664  10.613 -0.4356 -1.3263 -0.2154
  640MOL0     O86266   6.173  11.430   8.042 -0.0346 -0.6737  0.3874
  640MOL0     C86267   6.091  11.370   7.978 -1.8651  1.1288 -0.8130
  640MOL0     O86268   6.007  11.422   7.891  0.3739 -0.1884 -0.0274
  640MOL0     C86269   6.006  11.559   7.871  0.0024 -0.5208  0.1602
  640MOL0     C86270   5.912  11.635   7.946 -0.1440 -0.1406 -0.0620
  640MOL0     C86271   5.905  11.774   7.942 -0.5454  0.1760 -0.0354
  640MOL0     C86272   5.991  11.841   7.858  0.2721  0.5752  0.1232
  640MOL0     O86273   5.981  11.980   7.868  0.0906  0.1904 -1.5682
  640MOL0     C86274   6.099  12.040   7.824  0.3801 -0.5979  0.0470
  640MOL0     C86275   6.099  12.179   7.900 -0.1735 -0.4784 -1.0470
  640MOL0     C86276   6.230  12.251   7.875 -0.2660 -0.4093  0.6447
  640MOL0     C86277   6.335  12.209   7.970  0.0586 -0.9501  0.4377
  640MOL0     C86278   6.471  12.281   7.963  0.1172  0.1780  1.0487
  640MOL0     C86279   6.477  12.434   7.956 -0.2365 -0.4387 -0.6991
  640MOL0     C86280   6.619  12.500   7.946  0.4475 -0.0164 -0.5127
  640MOL0     C86281   6.700  12.473   8.069  0.9850  0.0954 -0.2375
  640MOL0     N86282   6.829  12.541   8.058 -0.0065 -0.5712 -0.0337
  640MOL0     C86283   6.951  12.485   8.066 -0.0101 -0.0842  0.1218
  640MOL0     C86284   7.047  12.583   8.055  0.7153  0.3908 -0.2418
  640MOL0     C86285   7.197  12.577   8.062  0.5467  0.4126 -0.3698
  640MOL0     C86286   7.259  12.441   8.114 -1.0223 -0.0971 -0.9224
  640MOL0     C86287   7.411  12.420   8.083 -0.0762 -0.2897 -0.6602
  640MOL0     C86288   7.456  12.274   8.102  0.8438  0.1534  0.1215
  640MOL0     O86289   7.380  12.195   8.021 -0.3654  0.0663  0.2986
  640MOL0     C86290   7.390  12.056   8.045  0.4753  0.0940 -0.6320
  640MOL0     C86291   7.513  12.003   8.082 -0.4290  0.6407  0.1480
  640MOL0     C86292   7.523  11.861   8.091 -0.0063 -0.0254  0.1649
  640MOL0     C86293   7.669  11.818   8.132  0.1536  0.5067 -0.2857
  640MOL0     C86294   7.412  11.772   8.068  0.2659 -1.2326  0.9186
  640MOL0     C86295   7.418  11.636   8.104 -0.1838  0.8655  0.4193
  640MOL0     O86296   7.528  11.578   8.160  0.2860  0.4130  0.2499
  640MOL0     C86297   7.534  11.437   8.172 -0.9317  0.0805 -0.0887
  640MOL0     C86298   7.566  11.364   8.058  0.4245 -0.2231  0.1885
  640MOL0     C86299   7.583  11.223   8.069  0.1351  0.1966  0.2787
  640MOL0     C86300   7.557  11.156   8.186 -0.3780  0.3010  1.0921
  640MOL0     O86301   7.601  11.028   8.176 -0.5251 -0.2474  0.2707
  640MOL0     C86302   7.606  10.956   8.304  0.5958  0.1708 -0.5266
  640MOL0     C86303   7.611  10.804   8.308  0.5124  0.7290  0.4882
  640MOL0     C86304   7.750  10.759   8.252  0.4040  0.6238 -0.6254
  640MOL0     C86305   7.816  10.663   8.346 -0.2620  1.0503 -0.5817
  640MOL0     C86306   7.961  10.631   8.300 -0.5156  0.8809 -0.2958
  640MOL0     C86307   8.025  10.513   8.372 -0.1768 -1.2897 -0.0760
  640MOL0     C86308   8.163  10.477   8.318 -0.1850  0.9324  0.4990
  640MOL0     C86309   8.196  10.333   8.379  0.4586  0.0588 -0.1476
  640MOL0    Cl86310   8.207  10.316   8.561  0.0925  0.2434 -0.4414
  640MOL0     C86311   7.502  11.229   8.293 -0.5255  0.1138  0.8199
  640MOL0     C86312   7.490  11.366   8.286 -0.2147  0.8973 -0.2212
  640MOL0     O86313   7.319  11.574   8.071  0.2753 -0.2547  0.6431
  640MOL0     C86314   7.295  11.840   8.019  0.3763  0.0441 -0.7297
  640MOL0     C86315   7.288  11.982   8.007  0.2511 -0.3549 -0.0592
  640MOL0     N86316   6.972  12.698   8.044  0.1896  0.4462  0.4889
  640MOL0     N86317   6.850  12.676   8.037  0.6135  0.2373  0.0049
  640MOL0     C86318   6.070  11.779   7.770 -0.6815  0.0656  0.8245
  640MOL0     C86319   6.082  11.636   7.779  0.5350 -0.0860 -0.5651
  640MOL0     C86320   6.055  11.235   8.009 -0.3360  0.3166 -0.3925
  640MOL0     C86321   5.971  11.150   7.936  0.0689 -0.7586 -0.8616
  640MOL0     C86322   5.943  11.022   7.976 -0.2305 -0.0822  0.8761
  640MOL0     C86323   6.007  10.957   8.083  0.0649  0.0752 -0.1413
  640MOL0     O86324   5.981  10.829   8.119 -0.0550 -0.2370 -0.3393
  640MOL0     C86325   5.884  10.751   8.057 -0.0841  0.3866  0.3794
  640MOL0     C86326   5.894  10.713   7.906 -0.5895  0.3534 -0.6927
  640MOL0     C86327   5.992  10.597   7.892 -0.3825 -0.1328  0.5919
  640MOL0     C86328   5.925  10.467   7.846 -1.0974  0.2804  0.8695
  640MOL0     C86329   6.004  10.352   7.816 -0.7139 -0.9125  0.2455
  640MOL0     C86330   6.070  10.255   7.798  0.1952  0.0782 -0.8439
  640MOL0     C86331   6.102  11.034   8.155 -0.3595  0.4793 -0.7015
  640MOL0     C86332   6.125  11.173   8.122  0.2368 -0.3573 -0.1179
  640MOL0     H86333   5.844  11.582   8.012  0.1742 -1.4827 -0.7670
  640MOL0     H86334   5.844  11.820   8.018 -0.4381  1.8779 -0.9461
  640MOL0     H86335   6.188  11.978   7.836 -0.1717 -1.3422  0.3887
  640MOL0     H86336   6.083  12.064   7.719 -1.7305  0.2401  0.5012
  640MOL0     H86337   6.025  12.249   7.861 -1.0040 -0.4090  0.5622
  640MOL0     H86338   6.077  12.164   8.006 -2.1633 -1.1397 -1.5252
  640MOL0     H86339   6.253  12.227   7.771 -3.9174  1.5406 -0.7951
  640MOL0     H86340   6.211  12.359   7.871  1.2896 -0.1353 -0.6644
  640MOL0     H86341   6.285  12.222   8.067  0.6195 -2.2659  0.9344
  640MOL0     H86342   6.355  12.104   7.947 -0.8296 -1.0303 -0.0057
  640MOL0     H86343   6.540  12.242   8.039  0.7488  3.5736  2.4443
  640MOL0     H86344   6.518  12.257   7.867  0.9849 -1.6133  1.8701
  640MOL0     H86345   6.435  12.473   7.862  0.5363 -2.0361 -1.7550
  640MOL0     H86346   6.425  12.482   8.039  0.4898  1.4044 -1.2518
  640MOL0     H86347   6.663  12.452   7.858 -2.3293  2.1651 -3.3412
  640MOL0     H86348   6.607  12.608   7.934  3.5063  0.2603 -2.1949
  640MOL0     H86349   6.714  12.365   8.081 -2.2827 -0.2304  1.8253
  640MOL0     H86350   6.655  12.524   8.155  2.8247  0.9678  0.2621
  640MOL0     H86351   6.978  12.379   8.066  0.3477 -0.0885  3.0986
  640MOL0     H86352   7.223  12.585   7.956 -0.0796 -4.2153 -1.0731
  640MOL0     H86353   7.249  12.648   8.127  2.8053 -2.2741  0.9620
  640MOL0     H86354   7.203  12.355   8.077 -0.1074 -0.3347 -1.8054
  640MOL0     H86355   7.243  12.439   8.222  1.6944 -0.8559 -0.4600
  640MOL0     H86356   7.482  12.482   8.138 -0.2696 -0.3656 -0.3218
  640MOL0     H86357   7.434  12.447   7.979  1.4978 -0.4670 -0.3748
  640MOL0     H86358   7.436  12.242   8.204  0.3411 -2.8032 -0.8177
  640MOL0     H86359   7.563  12.261   8.086  0.6465 -2.2579  0.4196
  640MOL0     H86360   7.605  12.058   8.095 -0.9844  1.1883  2.1133
  640MOL0     H86361   7.692  11.727   8.077  1.0080  0.5886 -0.0772
  640MOL0     H86362   7.745  11.893   8.109  0.8459 -0.5280 -1.4716
  640MOL0     H86363   7.651  11.798   8.239 -1.8581  2.5668 -0.1598
  640MOL0     H86364   7.595  11.410   7.964  0.6831 -0.9930 -0.1196
  640MOL0     H86365   7.620  11.177   7.977  2.0781  1.1659  0.5285
  640MOL0     H86366   7.691  11.004   8.354 -0.6087  1.8038  0.0518
  640MOL0     H86367   7.521  10.982   8.368 -0.0515 -2.2291 -0.3342
  640MOL0     H86368   7.581  10.764   8.405 -0.9398 -2.1572 -0.9897
  640MOL0     H86369   7.533  10.765   8.241 -0.6815  2.2620  0.9487
  640MOL0     H86370   7.808  10.851   8.252  2.8514 -0.8247 -1.7882
  640MOL0     H86371   7.745  10.714   8.152  0.0090  0.0805 -0.3724
  640MOL0     H86372   7.821  10.694   8.451 -0.9307  0.4701 -0.3711
  640MOL0     H86373   7.763  10.568   8.342 -1.0472  1.4446  0.1426
  640MOL0     H86374   8.029  10.716   8.299  0.7513 -0.0252  1.6870
  640MOL0     H86375   7.954  10.594   8.197 -1.0925 -1.9221  0.6571
  640MOL0     H86376   8.041  10.546   8.475 -1.4105 -1.9181  0.3360
  640MOL0     H86377   7.957  10.428   8.373  0.3604 -1.7343 -0.5910
  640MOL0     H86378   8.233  10.552   8.358 -0.7446  1.1589  1.0723
  640MOL0     H86379   8.169  10.482   8.209  1.6617  2.1435  0.6056
  640MOL0     H86380   8.295  10.298   8.348  1.3405  1.9571  0.3898
  640MOL0     H86381   8.117  10.264   8.346 -0.0185 -1.1020  3.0970
  640MOL0     H86382   7.470  11.176   8.383 -0.6709 -1.4521 -0.1105
  640MOL0     H86383   7.445  11.428   8.362 -2.6569 -0.1626 -0.7100
  640MOL0     H86384   7.211  11.776   7.996  0.1912  0.2229 -0.5609
  640MOL0     H86385   7.190  12.022   7.985  1.3536  2.3253 -0.4287
  640MOL0     H86386   6.123  11.828   7.689  3.2930 -0.0155  3.1159
  640MOL0     H86387   6.167  11.605   7.718 -0.5688 -1.7646 -1.3100
  640MOL0     H86388   5.913  11.194   7.855 -2.5374 -1.5436  0.4529
  640MOL0     H86389   5.864  10.978   7.915 -2.7580  1.0985  3.0990
  640MOL0     H86390   5.870  10.665   8.123  1.5456 -0.4026 -0.2563
  640MOL0     H86391   5.786  10.800   8.061 -0.3874 -0.1421 -0.3773
  640MOL0     H86392   5.928  10.800   7.849 -2.4740  0.4076 -1.8335
  640MOL0     H86393   5.798  10.686   7.860 -1.0691  0.1760  0.3819
  640MOL0     H86394   6.067  10.583   7.970  0.5964  2.3315  0.1935
  640MOL0     H86395   6.053  10.638   7.812 -3.4966  4.1797  0.0717
  640MOL0     H86396   5.858  10.478   7.761 -0.0354 -3.3151 -0.6586
  640MOL0     H86397   5.856  10.431   7.923 -1.3190  0.1119  0.5954
  640MOL0     H86398   6.147  10.182   7.786  1.0478  0.8123  0.0025
  640MOL0     H86399   6.141  10.991   8.247 -0.6667  0.4093 -0.6016
  640MOL0     H86400   6.197  11.225   8.183 -1.5071 -1.3109  2.9669
  641MOL0     O86401   0.483   6.067   3.563  0.6083 -0.6068  0.4771
  641MOL0     C86402   0.405   6.072   3.469  0.7349  0.9095 -0.6243
  641MOL0     O86403   0.297   5.987   3.454 -0.4748 -0.5125 -0.0683
  641MOL0     C86404   0.266   5.884   3.536  0.3263 -0.0351 -0.1037
  641MOL0     C86405   0.205   5.768   3.479  0.1550  0.3802 -0.7288
  641MOL0     C86406   0.169   5.660   3.560 -0.3258 -0.3050 -0.5225
  641MOL0     C86407   0.213   5.660   3.701  0.3362 -0.2851  0.8975
  641MOL0     O86408   0.204   5.554   3.784  0.6350 -0.7905  0.6899
  641MOL0     C86409   0.270   5.437   3.735 -0.4247 -0.1598  0.0068
  641MOL0     C86410   0.400   5.411   3.816 -0.4319 -0.7934 -0.3806
  641MOL0     C86411   0.446   5.271   3.854  0.7183 -0.9249 -0.1924
  641MOL0     C86412   0.590   5.253   3.891 -0.9056 -0.4762 -0.3420
  641MOL0     C86413   0.608   5.284   4.043  0.5809  0.4441 -0.0174
  641MOL0     C86414   0.753   5.308   4.100  0.1330  0.1040 -0.2480
  641MOL0     C86415   0.792   5.453   4.076  0.6671  0.7398 -0.5413
  641MOL0     C86416   0.929   5.480   4.135 -1.0005 -0.3155 -0.5866
  641MOL0     N86417   0.913   5.512   4.277 -0.1747 -0.2550  0.4553
  641MOL0     C86418   0.865   5.630   4.330  0.6241 -0.0480 -0.4139
  641MOL0     C86419   0.868   5.609   4.463 -0.1186 -0.5386 -0.2994
  641MOL0     C86420   0.821   5.701   4.570 -0.6861  0.6137  0.4711
  641MOL0     C86421   0.895   5.839   4.576 -0.1346 -0.5963 -0.5335
  641MOL0     C86422   1.044   5.844   4.611 -0.5459  0.4967  1.0637
  641MOL0     C86423   1.098   5.988   4.605  0.1057  0.1491 -0.2005
  641MOL0     O86424   1.057   6.057   4.723 -0.0925  0.0813 -0.7776
  641MOL0     C86425   1.091   6.193   4.738 -0.1628  0.3612 -0.2844
  641MOL0     C86426   1.047   6.262   4.853  0.1940 -0.6503  0.0685
  641MOL0     C86427   1.080   6.396   4.882 -0.5152 -0.1738 -0.1661
  641MOL0     C86428   1.035   6.454   5.018  0.2068  0.2038  0.0166
  641MOL0     C86429   1.178   6.468   4.795  0.1645  0.9147  0.0968
  641MOL0     C86430   1.230   6.610   4.814 -0.1836  0.6920  0.4364
  641MOL0     O86431   1.358   6.628   4.774  0.2014 -0.0651  0.7347
  641MOL0     C86432   1.404   6.751   4.823  0.4226 -0.6584  0.6497
  641MOL0     C86433   1.367   6.874   4.767 -0.2559 -0.8551  0.6382
  641MOL0     C86434   1.423   6.994   4.805  0.2825  0.2925 -0.9886
  641MOL0     C86435   1.503   7.003   4.925  0.2203 -0.0812 -0.1094
  641MOL0     O86436   1.543   7.134   4.967 -0.9219  0.1395 -0.7404
  641MOL0     C86437   1.592   7.144   5.110  0.1216  0.1732  0.1533
  641MOL0     C86438   1.693   7.265   5.116 -0.6335  0.0059 -0.9379
  641MOL0     C86439   1.640   7.403   5.103 -0.1312 -0.5455  0.6378
  641MOL0     C86440   1.517   7.441   5.185  0.4374  0.2931  0.1664
  641MOL0     C86441   1.543   7.414   5.338 -0.3672 -0.1281  0.0853
  641MOL0     C86442   1.408   7.368   5.404  0.9502  1.3647 -0.4946
  641MOL0     C86443   1.304   7.480   5.425  0.2196  0.0855  0.5032
  641MOL0     C86444   1.197   7.458   5.528  0.1199 -0.2850 -0.5375
  641MOL0    Cl86445   1.267   7.497   5.697 -0.1328  0.5595 -0.4113
  641MOL0     C86446   1.545   6.883   4.972  0.0023 -0.1871 -0.4464
  641MOL0     C86447   1.497   6.756   4.929  0.2175  0.5759  0.1247
  641MOL0     O86448   1.151   6.700   4.842 -0.1672 -0.6217  0.5026
  641MOL0     C86449   1.234   6.401   4.685  0.9106  0.0655  0.3114
  641MOL0     C86450   1.182   6.268   4.653 -0.1744 -1.1625  0.7307
  641MOL0     N86451   0.925   5.489   4.494  0.4597  0.5200  0.5887
  641MOL0     N86452   0.943   5.423   4.375  1.0698  0.3429 -0.0630
  641MOL0     C86453   0.249   5.784   3.761 -0.9488  0.3335 -1.4539
  641MOL0     C86454   0.270   5.893   3.678 -0.8852  0.3171 -0.5541
  641MOL0     C86455   0.458   6.129   3.345  0.0055  0.5557  0.5240
  641MOL0     C86456   0.379   6.129   3.223 -0.6726 -0.3298  0.9043
  641MOL0     C86457   0.429   6.180   3.103 -0.0333 -0.2856  0.9054
  641MOL0     C86458   0.552   6.239   3.103  0.4735 -0.6412  0.4949
  641MOL0     O86459   0.601   6.278   2.981 -0.1575 -0.3137  0.0286
  641MOL0     C86460   0.703   6.379   2.970  0.6264  0.6394 -0.1162
  641MOL0     C86461   0.735   6.413   2.826 -0.1810  0.5053 -0.2610
  641MOL0     C86462   0.618   6.496   2.758  0.5502  0.6670 -0.2010
  641MOL0     C86463   0.653   6.555   2.623  0.2353  0.8325 -0.3377
  641MOL0     C86464   0.754   6.661   2.637  1.0115  0.2637 -0.9512
  641MOL0     C86465   0.820   6.762   2.649 -0.4043 -0.0863  0.7309
  641MOL0     C86466   0.635   6.246   3.215  0.1076 -0.7743 -0.1744
  641MOL0     C86467   0.586   6.177   3.333 -1.3181  0.3561 -0.6827
  641MOL0     H86468   0.185   5.756   3.373 -1.5215  2.2736 -0.6864
  641MOL0     H86469   0.141   5.561   3.526  0.5886 -0.8200  0.1666
  641MOL0     H86470   0.209   5.347   3.746 -2.3686  1.3334  2.2637
  641MOL0     H86471   0.296   5.434   3.628  0.8489  0.1429  0.2912
  641MOL0     H86472   0.482   5.457   3.761  0.5998  0.8483  2.3543
  641MOL0     H86473   0.391   5.470   3.907 -3.2919 -1.7034  0.0294
  641MOL0     H86474   0.393   5.232   3.941 -0.6541  2.7187  0.7964
  641MOL0     H86475   0.425   5.215   3.762  0.5601 -1.0398 -0.0863
  641MOL0     H86476   0.629   5.154   3.864 -0.5335 -0.1496 -1.0151
  641MOL0     H86477   0.657   5.321   3.840 -0.0324  0.8367  2.3602
  641MOL0     H86478   0.561   5.376   4.079 -0.8057 -0.3573  0.2744
  641MOL0     H86479   0.556   5.202   4.093 -1.2452  2.1031  0.9404
  641MOL0     H86480   0.756   5.296   4.208  0.1678  1.4414 -0.0898
  641MOL0     H86481   0.820   5.233   4.055  1.5267  0.2787  1.4342
  641MOL0     H86482   0.792   5.483   3.971 -2.3691  0.2979 -0.7402
  641MOL0     H86483   0.728   5.513   4.141  0.8426  1.0073 -0.6166
  641MOL0     H86484   0.957   5.570   4.081  0.6296 -0.4363  0.0207
  641MOL0     H86485   1.006   5.407   4.108  0.5957  2.3434 -3.8552
  641MOL0     H86486   0.829   5.714   4.271 -1.1152  1.4012  2.4486
  641MOL0     H86487   0.712   5.709   4.565 -1.0046 -2.9399 -1.4921
  641MOL0     H86488   0.837   5.647   4.664 -5.2972  0.8966  1.6829
  641MOL0     H86489   0.843   5.908   4.643 -0.8631 -1.4602 -0.1968
  641MOL0     H86490   0.883   5.879   4.475 -0.0328  1.5189  0.2306
  641MOL0     H86491   1.094   5.780   4.537  0.9786  2.3875  0.3540
  641MOL0     H86492   1.060   5.795   4.708  0.9292 -0.8775  0.1818
  641MOL0     H86493   1.066   6.044   4.517 -1.8033  0.7220  0.7805
  641MOL0     H86494   1.207   5.988   4.605  0.2013 -0.5543 -3.5739
  641MOL0     H86495   0.985   6.215   4.929  2.3508  1.1383  3.1566
  641MOL0     H86496   0.926   6.449   5.025  0.1066 -1.9656 -1.7623
  641MOL0     H86497   1.067   6.387   5.098 -0.8906 -1.6406 -1.0100
  641MOL0     H86498   1.082   6.550   5.040  0.8835 -0.3555  1.0829
  641MOL0     H86499   1.296   6.872   4.684  1.2936 -2.0870 -0.7456
  641MOL0     H86500   1.400   7.079   4.742  1.7347  0.9671 -0.6611
  641MOL0     H86501   1.498   7.157   5.165  0.7206  3.2037  0.6489
  641MOL0     H86502   1.642   7.049   5.132 -0.5960 -0.5492 -1.2060
  641MOL0     H86503   1.759   7.254   5.202  3.6382 -1.0347 -4.0299
  641MOL0     H86504   1.762   7.245   5.034 -0.2475  1.3106 -0.9485
  641MOL0     H86505   1.621   7.416   4.996  1.7323  1.4546  0.4629
  641MOL0     H86506   1.720   7.477   5.113 -2.7816  3.2091 -2.8414
  641MOL0     H86507   1.478   7.543   5.177 -1.0551 -0.1694  1.1050
  641MOL0     H86508   1.432   7.382   5.149  0.7422 -2.3270  3.2158
  641MOL0     H86509   1.584   7.503   5.385  2.1091 -1.9764  1.6831
  641MOL0     H86510   1.615   7.332   5.346  1.7282  1.1993 -3.2523
  641MOL0     H86511   1.352   7.301   5.339 -1.9081  0.9154  2.1752
  641MOL0     H86512   1.414   7.320   5.502 -0.2884  0.2720 -0.9260
  641MOL0     H86513   1.246   7.507   5.336 -2.1966 -0.9288  1.6970
  641MOL0     H86514   1.364   7.561   5.468  2.0151 -0.3706 -0.9793
  641MOL0     H86515   1.155   7.357   5.536 -0.6507  0.0934  0.3316
  641MOL0     H86516   1.124   7.535   5.505  0.0557 -0.1713  0.0425
  641MOL0     H86517   1.607   6.876   5.061  0.9411  2.4926 -0.8077
  641MOL0     H86518   1.530   6.667   4.980  1.4874  1.4902  0.9578
  641MOL0     H86519   1.298   6.456   4.617  0.3656 -0.1646 -0.3998
  641MOL0     H86520   1.228   6.214   4.571 -0.0011  0.9881 -0.6412
  641MOL0     H86521   0.269   5.802   3.866  0.2716 -0.2905 -1.5598
  641MOL0     H86522   0.288   5.981   3.739 -0.4905 -1.2907  1.8070
  641MOL0     H86523   0.278   6.092   3.215 -1.8150  2.6975 -0.0186
  641MOL0     H86524   0.372   6.168   3.011  1.9153  2.5762 -0.8402
  641MOL0     H86525   0.677   6.468   3.029  2.0733 -0.0848  1.6995
  641MOL0     H86526   0.798   6.339   3.006  2.7448  2.8311 -2.8388
  641MOL0     H86527   0.742   6.316   2.775  1.5237  0.8459 -0.7368
  641MOL0     H86528   0.832   6.462   2.816 -0.8394  1.5532 -2.0001
  641MOL0     H86529   0.593   6.590   2.807  1.8063  0.9546 -0.0926
  641MOL0     H86530   0.532   6.428   2.755  0.7492  0.3664 -3.8667
  641MOL0     H86531   0.560   6.590   2.576 -1.6380  1.0164  3.2048
  641MOL0     H86532   0.686   6.478   2.552  0.6533  0.8919 -0.2132
  641MOL0     H86533   0.880   6.851   2.643 -0.8672  0.2200  0.6319
  641MOL0     H86534   0.737   6.283   3.213  0.2247 -0.9469  1.3199
  641MOL0     H86535   0.658   6.167   3.414 -0.3957  1.8085 -1.2872
  642MOL0     O86536  10.222   1.991  10.172 -0.4498 -0.2836  0.0225
  642MOL0     C86537  10.266   2.106  10.169 -0.3050 -1.1482 -0.5027
  642MOL0     O86538  10.351   2.168  10.269  0.1275 -0.6175  0.7645
  642MOL0     C86539  10.381   2.082  10.368 -0.9994  0.3426 -0.3888
  642MOL0     C86540  10.298   2.063  10.485  0.3930 -0.2442 -0.9290
  642MOL0     C86541  10.347   1.987  10.600 -0.5858 -0.6380  0.2392
  642MOL0     C86542  10.471   1.928  10.600 -0.1664  0.2100  0.0222
  642MOL0     O86543  10.524   1.849  10.704  0.1281 -0.4215  0.3482
  642MOL0     C86544  10.436   1.794  10.801  0.2003 -1.6758  0.0031
  642MOL0     C86545  10.509   1.705  10.907  1.0867  0.6678 -0.0689
  642MOL0     C86546  10.604   1.782  10.999  0.0219 -0.7861 -0.4969
  642MOL0     C86547  10.599   1.705  11.136 -0.7477 -0.1543 -0.0130
  642MOL0     C86548  10.677   1.577  11.147  0.8344 -1.0190  0.5824
  642MOL0     C86549  10.679   1.498  11.276 -0.2178  0.5973 -0.3526
  642MOL0     C86550  10.553   1.406  11.287  0.3702 -0.0175  0.5481
  642MOL0     C86551  10.549   1.302  11.404 -0.0996 -0.6881 -0.9613
  642MOL0     N86552  10.684   1.236  11.414 -0.3710 -0.3687 -0.7774
  642MOL0     C86553  10.732   1.150  11.322 -0.2053 -0.3082  0.6455
  642MOL0     C86554  10.845   1.095  11.373  0.9609 -0.0800  0.2395
  642MOL0     C86555  10.942   0.988  11.313 -0.4710  0.8324 -0.6966
  642MOL0     C86556  11.016   1.062  11.198  0.2556 -0.0175 -0.7211
  642MOL0     C86557  11.114   0.965  11.129 -0.1097 -0.4066  0.0071
  642MOL0     C86558  11.185   1.037  11.010  0.2023 -0.3002 -0.6131
  642MOL0     O86559  11.288   0.948  10.957 -0.5466 -0.1288  0.2079
  642MOL0     C86560  11.268   0.823  10.886  0.1062 -1.6717 -0.4427
  642MOL0     C86561  11.151   0.777  10.826  0.1022  0.5885  0.4287
  642MOL0     C86562  11.138   0.635  10.777 -0.2680  0.2069  0.4910
  642MOL0     C86563  11.005   0.599  10.717  0.1885  0.6611 -1.1029
  642MOL0     C86564  11.253   0.550  10.792  0.0207  0.6041 -0.1468
  642MOL0     C86565  11.271   0.413  10.749 -0.6138 -0.7932 -0.1864
  642MOL0     O86566  11.169   0.359  10.680  0.4866 -0.7176 -0.1840
  642MOL0     C86567  11.190   0.237  10.630 -1.1451 -0.6943  0.7073
  642MOL0     C86568  11.309   0.211  10.561 -0.4205 -0.1686  0.4325
  642MOL0     C86569  11.341   0.081  10.523  0.6935  0.3660  0.3244
  642MOL0     C86570  11.258  -0.031  10.545 -0.5965 -1.1587  0.4413
  642MOL0     O86571  11.309  -0.145  10.492  0.8230  0.6986  0.5313
  642MOL0     C86572  11.224  -0.268  10.510 -0.9215 -1.0516  1.4280
  642MOL0     C86573  11.296  -0.383  10.446  0.2623 -0.0731  0.3529
  642MOL0     C86574  11.258  -0.399  10.297 -0.3447  0.1592 -1.1042
  642MOL0     C86575  11.332  -0.506  10.224 -1.1177 -1.2927  0.1362
  642MOL0     C86576  11.480  -0.462  10.200  0.2252 -0.2253 -1.6840
  642MOL0     C86577  11.561  -0.569  10.125 -0.1473 -0.2074 -0.5638
  642MOL0     C86578  11.708  -0.525  10.136 -0.2865 -0.2816  0.6324
  642MOL0     C86579  11.786  -0.563  10.011  0.5889 -0.4861  0.2363
  642MOL0    Cl86580  11.788  -0.747  10.023 -0.1305  0.3230  0.0593
  642MOL0     C86581  11.134  -0.001  10.598  0.6508  0.2847  0.2223
  642MOL0     C86582  11.100   0.135  10.646 -0.6460 -0.0413 -0.4073
  642MOL0     O86583  11.375   0.346  10.786  0.4700  0.3702  0.5412
  642MOL0     C86584  11.365   0.607  10.851  0.3384  1.1352  0.6020
  642MOL0     C86585  11.372   0.736  10.897 -0.1221  0.8736  0.4565
  642MOL0     N86586  10.861   1.148  11.502  0.1482 -0.0224 -0.0012
  642MOL0     N86587  10.766   1.230  11.526  0.1416  0.0004 -0.0643
  642MOL0     C86588  10.548   1.951  10.489  0.2184  0.7054  0.3817
  642MOL0     C86589  10.503   2.032  10.384  0.2252  0.0381  0.7569
  642MOL0     C86590  10.207   2.201  10.070 -0.6366  0.4798  0.3207
  642MOL0     C86591  10.110   2.151   9.980 -0.0525 -0.9205  0.3521
  642MOL0     C86592  10.037   2.244   9.903 -0.3821 -0.8895  0.0900
  642MOL0     C86593  10.076   2.383   9.899 -0.3044 -0.6065  0.1776
  642MOL0     O86594  10.011   2.477   9.826 -0.0531  0.3064 -0.0903
  642MOL0     C86595  10.040   2.617   9.842 -0.1025  0.1660 -0.2313
  642MOL0     C86596   9.920   2.696   9.783 -0.1067  0.6062 -0.7980
  642MOL0     C86597   9.932   2.850   9.815 -0.3498  0.5053 -0.2314
  642MOL0     C86598   9.875   2.927   9.705 -0.9712 -0.6944  0.6395
  642MOL0     C86599   9.969   2.944   9.588  0.3493 -0.1351  0.1180
  642MOL0     C86600  10.055   2.965   9.505 -0.4327 -0.1761 -0.0421
  642MOL0     C86601  10.189   2.425   9.982  0.5902 -0.1702 -0.5587
  642MOL0     C86602  10.254   2.333  10.069 -0.1034  0.2282  0.3641
  642MOL0     H86603  10.199   2.107  10.491  0.2085 -0.8394  2.2309
  642MOL0     H86604  10.288   1.970  10.690 -3.4214  3.3013 -0.6318
  642MOL0     H86605  10.385   1.871  10.861  0.2207 -1.9191  0.3296
  642MOL0     H86606  10.366   1.733  10.743  1.7510 -2.6006 -0.9649
  642MOL0     H86607  10.423   1.676  10.968  1.3001 -0.6066 -0.3290
  642MOL0     H86608  10.560   1.617  10.867  2.3093  1.0465  0.6165
  642MOL0     H86609  10.707   1.792  10.963  0.3937 -0.7375  0.5502
  642MOL0     H86610  10.560   1.881  11.010  0.4874 -0.7962  2.1325
  642MOL0     H86611  10.630   1.779  11.210  0.7193 -1.9251  1.2331
  642MOL0     H86612  10.498   1.675  11.164 -1.0337 -1.8185 -2.4741
  642MOL0     H86613  10.662   1.524  11.052  0.4565  2.1135 -1.2681
  642MOL0     H86614  10.774   1.628  11.145 -0.2956  1.2845  0.5154
  642MOL0     H86615  10.764   1.430  11.265  0.5896  1.7612 -1.5750
  642MOL0     H86616  10.687   1.565  11.362 -3.1241  0.9853 -0.2703
  642MOL0     H86617  10.465   1.471  11.294  0.5183  0.2344  0.1033
  642MOL0     H86618  10.548   1.347  11.196  2.6283  0.6459 -0.0753
  642MOL0     H86619  10.473   1.227  11.380 -1.3036  0.3093 -0.3741
  642MOL0     H86620  10.505   1.349  11.492 -0.1709  1.8046 -2.2398
  642MOL0     H86621  10.676   1.138  11.230 -0.8771 -0.5802  1.0862
  642MOL0     H86622  11.003   0.936  11.387 -4.7233 -0.9061  1.9797
  642MOL0     H86623  10.880   0.910  11.269 -2.7921  0.9101  2.1326
  642MOL0     H86624  11.075   1.139  11.248 -0.5931  0.2618 -0.1232
  642MOL0     H86625  10.943   1.108  11.131  1.3552  2.9308 -0.0125
  642MOL0     H86626  11.064   0.874  11.097 -0.8240  0.2670 -0.8372
  642MOL0     H86627  11.197   0.930  11.192  0.1860 -3.2565 -1.8073
  642MOL0     H86628  11.233   1.127  11.052 -3.6336  1.6048  0.1088
  642MOL0     H86629  11.111   1.065  10.935 -1.0714  2.8245  1.5956
  642MOL0     H86630  11.074   0.851  10.843 -0.5813  0.4557 -1.8009
  642MOL0     H86631  10.950   0.683  10.674 -0.5975 -0.4474 -2.3473
  642MOL0     H86632  11.010   0.519  10.643  0.5908  1.1515 -1.6088
  642MOL0     H86633  10.950   0.563  10.805  1.2871 -2.4624 -1.5708
  642MOL0     H86634  11.377   0.294  10.546 -2.8470  2.5525  3.1356
  642MOL0     H86635  11.437   0.077  10.473 -0.2247  0.8934 -1.6007
  642MOL0     H86636  11.209  -0.290  10.616  4.1336 -2.1950  2.1968
  642MOL0     H86637  11.126  -0.254  10.464 -2.8223  1.2157  5.6237
  642MOL0     H86638  11.404  -0.361  10.447  0.5502 -1.3951  0.4124
  642MOL0     H86639  11.282  -0.476  10.502 -1.2177  1.5144  2.8288
  642MOL0     H86640  11.276  -0.301  10.252 -1.2942 -0.6249 -3.2894
  642MOL0     H86641  11.152  -0.425  10.292 -0.0705 -0.7933 -2.5785
  642MOL0     H86642  11.333  -0.590  10.294 -0.8253  0.3825  2.2669
  642MOL0     H86643  11.293  -0.530  10.125  0.0107 -0.4809 -0.5348
  642MOL0     H86644  11.528  -0.433  10.293 -2.4401  1.6494 -0.7508
  642MOL0     H86645  11.466  -0.372  10.138  0.5147  1.0340  0.0088
  642MOL0     H86646  11.556  -0.664  10.178 -2.8666 -0.7839 -1.6825
  642MOL0     H86647  11.528  -0.588  10.023 -2.8371  0.0061  0.1987
  642MOL0     H86648  11.763  -0.585  10.209  2.3284  0.1667 -0.8313
  642MOL0     H86649  11.708  -0.416  10.148  0.4007 -0.1827 -0.1701
  642MOL0     H86650  11.887  -0.519  10.007  1.1615 -1.7607 -0.0806
  642MOL0     H86651  11.734  -0.532   9.920 -0.2877 -1.1076  0.5184
  642MOL0     H86652  11.057  -0.075  10.615  0.0866  0.9039  0.4284
  642MOL0     H86653  11.005   0.155  10.694  0.4404  0.1074  1.8344
  642MOL0     H86654  11.460   0.555  10.845 -0.7739 -1.2333  2.2802
  642MOL0     H86655  11.456   0.764  10.959 -2.6648 -0.0594  4.7868
  642MOL0     H86656  10.651   1.919  10.487 -0.0498 -0.2385 -2.7497
  642MOL0     H86657  10.568   2.048  10.298 -1.1991  0.8155 -0.2152
  642MOL0     H86658  10.105   2.043   9.977 -0.3883 -0.9349 -3.6315
  642MOL0     H86659   9.953   2.204   9.845  0.1825 -0.9791 -0.6829
  642MOL0     H86660  10.033   2.634   9.950 -2.3524 -0.5425 -0.2147
  642MOL0     H86661  10.140   2.647   9.810  0.4892 -2.2449 -0.8554
  642MOL0     H86662   9.835   2.645   9.829  0.4195 -0.1269 -0.6142
  642MOL0     H86663   9.936   2.685   9.675 -1.4690 -0.0354 -0.9545
  642MOL0     H86664  10.035   2.866   9.848  0.9222 -2.3932 -2.3730
  642MOL0     H86665   9.855   2.868   9.892  1.0788  0.8768  1.1651
  642MOL0     H86666   9.852   3.030   9.735 -0.4930  0.2254 -1.8592
  642MOL0     H86667   9.782   2.891   9.661  0.5587 -2.3195 -1.4810
  642MOL0     H86668  10.119   3.002   9.428 -0.4635  1.4774  0.6665
  642MOL0     H86669  10.239   2.521   9.978  0.7187 -0.1442  1.1144
  642MOL0     H86670  10.331   2.358  10.141 -0.5621  1.2367  0.5298
  643MOL0     O86671   0.997   8.979   1.122 -0.1924  0.5882 -0.4033
  643MOL0     C86672   0.960   9.070   1.206 -0.4570 -0.7532 -0.4923
  643MOL0     O86673   0.975   9.070   1.344  0.1453  0.1253  0.1087
  643MOL0     C86674   1.009   8.950   1.404  0.4688  0.0867 -0.0751
  643MOL0     C86675   0.913   8.876   1.475 -0.2680  0.2437 -0.0126
  643MOL0     C86676   0.950   8.744   1.534  0.3437 -0.2922  0.2248
  643MOL0     C86677   1.078   8.711   1.533 -0.2488 -0.4601  0.4444
  643MOL0     O86678   1.111   8.610   1.625  0.2583  0.0327 -0.0492
  643MOL0     C86679   1.230   8.609   1.695 -0.6085  0.2310 -0.3844
  643MOL0     C86680   1.240   8.499   1.802 -0.1825 -0.0059  1.2317
  643MOL0     C86681   1.374   8.483   1.884  0.2355  0.1620 -0.2623
  643MOL0     C86682   1.351   8.409   2.021 -1.1158  0.1823 -0.0749
  643MOL0     C86683   1.438   8.282   2.036  0.0185  0.1436 -0.3193
  643MOL0     C86684   1.595   8.315   2.063  0.7686 -0.1648 -0.2229
  643MOL0     C86685   1.667   8.208   2.144 -0.6442 -0.5255  0.2301
  643MOL0     C86686   1.646   8.203   2.289 -0.2112 -0.8525  0.4959
  643MOL0     N86687   1.751   8.140   2.370  0.0340 -1.0147  0.0546
  643MOL0     C86688   1.891   8.126   2.346 -0.0293 -1.0984  0.4216
  643MOL0     C86689   1.932   8.075   2.466  0.4479 -0.6218  0.4164
  643MOL0     C86690   2.074   8.070   2.526  0.1129  0.1686  0.9179
  643MOL0     C86691   2.171   8.184   2.489 -0.2313  0.3509  0.7202
  643MOL0     C86692   2.169   8.298   2.588  0.3005 -0.0758  0.0330
  643MOL0     C86693   2.046   8.380   2.569 -0.4386 -0.3011 -0.1612
  643MOL0     O86694   2.044   8.417   2.429 -0.2228  0.4115 -0.2258
  643MOL0     C86695   1.937   8.483   2.369  0.3248  1.7384  0.5805
  643MOL0     C86696   1.813   8.510   2.425  0.0620 -0.7601 -0.1907
  643MOL0     C86697   1.706   8.572   2.360  0.0549 -0.3860  1.1464
  643MOL0     C86698   1.580   8.585   2.434  0.5599 -0.1550  0.6072
  643MOL0     C86699   1.727   8.622   2.223 -0.6611  0.1940  0.1853
  643MOL0     C86700   1.641   8.709   2.144  0.0977 -0.1824 -0.1713
  643MOL0     O86701   1.647   8.700   2.006 -0.5614  0.5962  0.6634
  643MOL0     C86702   1.571   8.774   1.917 -0.5579 -0.7012 -0.5365
  643MOL0     C86703   1.578   8.740   1.780 -0.4002  0.4957  0.0922
  643MOL0     C86704   1.508   8.813   1.685  0.0375 -0.7502  0.1646
  643MOL0     C86705   1.430   8.923   1.717 -0.1397 -0.2388 -0.5256
  643MOL0     O86706   1.378   8.986   1.605  0.2279 -0.0062 -0.2635
  643MOL0     C86707   1.392   9.128   1.607 -0.0639  0.0210 -0.1823
  643MOL0     C86708   1.380   9.193   1.473 -0.7410  0.1760 -0.3122
  643MOL0     C86709   1.496   9.168   1.385 -0.2900 -0.0520 -0.4210
  643MOL0     C86710   1.494   9.243   1.254 -0.1242 -0.1488 -0.1294
  643MOL0     C86711   1.361   9.235   1.184  0.1365  0.0533 -0.2898
  643MOL0     C86712   1.354   9.293   1.043 -0.6663  0.4190 -0.2268
  643MOL0     C86713   1.388   9.446   1.031  0.3451  0.4531 -0.3311
  643MOL0     C86714   1.355   9.510   0.898  0.0775  0.6060  0.0737
  643MOL0    Cl86715   1.179   9.555   0.888  0.2036  0.1535  0.1320
  643MOL0     C86716   1.423   8.962   1.852 -0.2875 -0.3658 -0.2641
  643MOL0     C86717   1.493   8.884   1.948  0.6575 -0.0911  0.0019
  643MOL0     O86718   1.572   8.797   2.197  0.5238 -1.3260 -0.9927
  643MOL0     C86719   1.852   8.589   2.167  0.1533 -0.3402 -0.8639
  643MOL0     C86720   1.952   8.517   2.237  0.2070 -0.1114 -0.1717
  643MOL0     N86721   1.825   8.044   2.545  0.1036  0.0789  0.3142
  643MOL0     N86722   1.712   8.085   2.485  0.3086  0.4895  0.2702
  643MOL0     C86723   1.178   8.788   1.473 -0.3973  0.5310  0.3698
  643MOL0     C86724   1.137   8.904   1.404  0.3011  0.5602 -0.3382
  643MOL0     C86725   0.931   9.199   1.147  0.4178 -1.0762  0.8113
  643MOL0     C86726   0.856   9.211   1.032  1.0397  0.3909  0.0402
  643MOL0     C86727   0.805   9.336   0.986  0.3708  0.4104 -0.5072
  643MOL0     C86728   0.834   9.451   1.059 -0.0238 -0.3633 -0.9299
  643MOL0     O86729   0.797   9.571   1.008 -0.5045  0.7676 -0.0534
  643MOL0     C86730   0.814   9.691   1.076  0.0821 -0.9821 -0.4497
  643MOL0     C86731   0.954   9.745   1.069 -0.1559 -0.1006  0.6685
  643MOL0     C86732   0.948   9.888   1.127  0.3535  0.5328  0.9630
  643MOL0     C86733   1.081   9.947   1.164 -0.2604 -1.1804 -0.3013
  643MOL0     C86734   1.075  10.019   1.293  0.1597 -0.0636 -0.2363
  643MOL0     C86735   1.082  10.072   1.401 -0.3409  0.1321 -0.2975
  643MOL0     C86736   0.913   9.429   1.171  0.8058 -0.1551 -0.6092
  643MOL0     C86737   0.968   9.312   1.211 -0.4937 -0.8939 -0.3780
  643MOL0     H86738   0.806   8.892   1.482 -0.8514 -2.3335 -1.6252
  643MOL0     H86739   0.883   8.681   1.593  1.7763 -3.2392 -1.0741
  643MOL0     H86740   1.299   8.564   1.623 -0.8304 -1.5238  0.4560
  643MOL0     H86741   1.261   8.704   1.738  0.0412 -0.2446  0.2254
  643MOL0     H86742   1.165   8.522   1.878  1.2349 -2.5548  3.5421
  643MOL0     H86743   1.213   8.402   1.759 -1.6538  0.3128  1.3643
  643MOL0     H86744   1.456   8.441   1.826 -0.5313 -0.6315 -0.7913
  643MOL0     H86745   1.408   8.585   1.905  2.0812 -0.5832  0.5433
  643MOL0     H86746   1.369   8.479   2.103  0.1704 -0.8501  0.5620
  643MOL0     H86747   1.254   8.370   2.051  1.0658 -4.3274  2.0587
  643MOL0     H86748   1.402   8.207   2.107 -1.4357 -0.3237 -1.4979
  643MOL0     H86749   1.433   8.222   1.945  0.1388  0.4382 -0.5240
  643MOL0     H86750   1.640   8.319   1.964 -0.4671  1.1413 -0.7685
  643MOL0     H86751   1.600   8.419   2.097  1.6499  0.2386 -1.5204
  643MOL0     H86752   1.639   8.112   2.099  1.4232 -0.5811 -1.0856
  643MOL0     H86753   1.774   8.217   2.124 -0.7831 -0.4830 -0.5345
  643MOL0     H86754   1.559   8.139   2.307  1.1897 -2.7867  0.6973
  643MOL0     H86755   1.628   8.308   2.316 -1.0633  0.1968 -3.5266
  643MOL0     H86756   1.941   8.177   2.264 -2.2990 -0.0864 -0.4155
  643MOL0     H86757   2.064   8.074   2.635  0.8973  1.7029  0.9665
  643MOL0     H86758   2.119   7.976   2.493 -0.4796 -0.6060  2.2309
  643MOL0     H86759   2.179   8.215   2.384  0.5683 -1.6500  0.1294
  643MOL0     H86760   2.260   8.124   2.511 -1.4570 -0.6943  3.2415
  643MOL0     H86761   2.253   8.368   2.578 -0.7601  1.6323  2.3743
  643MOL0     H86762   2.190   8.262   2.689  0.4297 -0.2591 -0.0589
  643MOL0     H86763   2.044   8.457   2.647  0.6926 -1.6597  1.2992
  643MOL0     H86764   1.959   8.320   2.595 -1.8048  1.1919 -1.1493
  643MOL0     H86765   1.795   8.488   2.530  1.6654  1.0569  0.5550
  643MOL0     H86766   1.580   8.633   2.532 -0.0696 -2.0116  1.5716
  643MOL0     H86767   1.512   8.652   2.380  0.3142 -0.9217 -0.0687
  643MOL0     H86768   1.532   8.489   2.455 -2.1152  0.9124 -0.2079
  643MOL0     H86769   1.647   8.661   1.756  1.8814  1.2827  3.3207
  643MOL0     H86770   1.521   8.782   1.582 -0.3567 -2.2097  0.5336
  643MOL0     H86771   1.310   9.159   1.673 -0.1416 -1.7426  0.6132
  643MOL0     H86772   1.491   9.152   1.646  0.3141  1.3261 -1.8597
  643MOL0     H86773   1.285   9.162   1.430 -0.8884  0.7894 -0.4369
  643MOL0     H86774   1.382   9.302   1.489 -1.2623  0.6681 -3.0710
  643MOL0     H86775   1.509   9.060   1.387  0.1309  0.0022  1.4146
  643MOL0     H86776   1.586   9.206   1.435  1.9043 -3.4351 -1.4486
  643MOL0     H86777   1.515   9.347   1.280 -1.9390 -0.5362  3.4474
  643MOL0     H86778   1.576   9.202   1.194  2.3995  1.6541  1.8784
  643MOL0     H86779   1.283   9.288   1.240  2.0598  0.0404  2.6333
  643MOL0     H86780   1.334   9.130   1.197  2.3543 -0.4946  0.2256
  643MOL0     H86781   1.423   9.253   0.969  0.3786  1.6609  0.0384
  643MOL0     H86782   1.253   9.271   1.009 -1.4140  3.0760  0.0148
  643MOL0     H86783   1.494   9.449   1.057  0.7672 -0.6944 -1.7898
  643MOL0     H86784   1.327   9.498   1.105 -0.7301 -1.8403  0.4784
  643MOL0     H86785   1.378   9.442   0.815 -2.4126 -1.0050  0.6036
  643MOL0     H86786   1.417   9.599   0.885  3.2638 -1.6743 -1.9013
  643MOL0     H86787   1.349   9.036   1.880 -3.9360 -3.7153 -0.2174
  643MOL0     H86788   1.488   8.928   2.048 -0.5494 -0.5436  0.1521
  643MOL0     H86789   1.878   8.630   2.070 -0.3795  1.9620 -0.0975
  643MOL0     H86790   2.041   8.481   2.187 -0.3979 -1.8536 -0.0657
  643MOL0     H86791   1.280   8.753   1.464  0.2651  2.2536  0.7895
  643MOL0     H86792   1.205   8.967   1.348 -0.1617  0.8023 -0.6307
  643MOL0     H86793   0.824   9.121   0.980  0.3581  2.3916 -3.2441
  643MOL0     H86794   0.741   9.336   0.898 -1.3955  0.1025  0.7230
  643MOL0     H86795   0.753   9.762   1.019 -0.1493 -1.4469 -0.7891
  643MOL0     H86796   0.777   9.686   1.179 -1.7203 -0.1736 -1.0056
  643MOL0     H86797   0.993   9.760   0.968  0.3050  0.0319  0.8606
  643MOL0     H86798   1.021   9.681   1.129  0.0167 -1.0269 -0.4736
  643MOL0     H86799   0.879   9.895   1.212 -0.5336 -1.1046  0.4412
  643MOL0     H86800   0.915   9.951   1.044  1.7622  0.9805  0.7315
  643MOL0     H86801   1.104  10.019   1.085 -2.1731 -0.5899 -0.3698
  643MOL0     H86802   1.160   9.871   1.161  1.3930  0.4044 -4.5731
  643MOL0     H86803   1.104  10.119   1.495 -0.4282 -0.1421 -0.1408
  643MOL0     H86804   0.941   9.507   1.241 -1.7725  0.7954 -0.5379
  643MOL0     H86805   1.022   9.319   1.305  0.3818 -0.4100 -0.9123
  644MOL0     O86806  10.024   1.642   3.795 -0.4080  0.1353  0.3111
  644MOL0     C86807   9.983   1.645   3.916  1.6241  0.3424  0.7999
  644MOL0     O86808  10.029   1.573   4.020  0.5856 -0.7090 -0.8021
  644MOL0     C86809  10.133   1.483   3.994 -0.7654  0.0678 -1.1672
  644MOL0     C86810  10.115   1.356   4.054 -0.2081 -1.0623  0.7213
  644MOL0     C86811  10.223   1.266   4.067  0.3506  0.2202  0.3586
  644MOL0     C86812  10.346   1.293   4.007  0.0739  0.9247  0.4204
  644MOL0     O86813  10.434   1.190   4.004 -0.5081 -0.3902  0.4146
  644MOL0     C86814  10.500   1.146   3.884  0.3236 -0.9339  0.1687
  644MOL0     C86815  10.622   1.059   3.921 -0.0005  0.9873 -1.2473
  644MOL0     C86816  10.728   1.156   3.979 -0.0632  0.6727  0.4467
  644MOL0     C86817  10.829   1.206   3.866 -0.5547 -0.0822 -0.2040
  644MOL0     C86818  10.910   1.327   3.914 -0.0362 -0.5436 -0.3708
  644MOL0     C86819  11.000   1.304   4.041  0.2638 -0.3253 -0.5186
  644MOL0     C86820  11.088   1.177   4.044  0.0827 -0.2268  0.2730
  644MOL0     C86821  11.176   1.148   3.928  0.1632  0.1468 -0.6571
  644MOL0     N86822  11.285   1.048   3.946  0.9273 -0.0005  0.5664
  644MOL0     C86823  11.410   1.068   3.971  0.0038  0.4813  0.1480
  644MOL0     C86824  11.469   0.951   3.983 -0.2839 -0.6038 -0.5836
  644MOL0     C86825  11.615   0.912   4.006 -0.2913 -0.0002 -0.5320
  644MOL0     C86826  11.639   0.919   4.156  0.7076 -0.1099 -0.1230
  644MOL0     C86827  11.769   0.853   4.206 -0.2154 -0.5661  1.1178
  644MOL0     C86828  11.761   0.864   4.356 -0.6608  0.0194  0.7022
  644MOL0     O86829  11.894   0.843   4.412  0.9784  0.8146  0.2528
  644MOL0     C86830  11.951   0.714   4.406 -0.8149  0.4118 -0.2913
  644MOL0     C86831  12.077   0.712   4.437 -1.1640 -0.1334  0.0478
  644MOL0     C86832  12.153   0.590   4.442 -0.6095 -1.1084  0.1079
  644MOL0     C86833  12.299   0.594   4.470  0.2271  0.1543 -0.5598
  644MOL0     C86834  12.095   0.471   4.418  0.3072  0.9481  0.0401
  644MOL0     C86835  12.161   0.337   4.417  0.1618  0.4026  0.5399
  644MOL0     O86836  12.120   0.249   4.320  0.0142  0.2858 -0.2953
  644MOL0     C86837  12.165   0.119   4.310 -0.8381  0.1400 -0.5084
  644MOL0     C86838  12.085   0.007   4.344 -0.2244 -0.1932  0.2502
  644MOL0     C86839  12.126  -0.121   4.331  0.0665 -1.0949 -1.2634
  644MOL0     C86840  12.262  -0.143   4.293  0.3556 -0.0935 -0.0991
  644MOL0     O86841  12.306  -0.274   4.271  0.0132 -0.2114  0.5255
  644MOL0     C86842  12.218  -0.376   4.231 -0.1467 -0.8381  0.0699
  644MOL0     C86843  12.262  -0.517   4.264 -0.3042 -0.3926  0.8551
  644MOL0     C86844  12.387  -0.567   4.190 -0.3507  0.5560 -0.1324
  644MOL0     C86845  12.393  -0.719   4.174 -0.0202 -0.0345 -0.1999
  644MOL0     C86846  12.417  -0.788   4.309  0.2921  0.7344  0.0768
  644MOL0     C86847  12.491  -0.912   4.274  0.4368 -0.4117 -0.3569
  644MOL0     C86848  12.529  -0.989   4.399  0.0390  0.5657  0.4303
  644MOL0     C86849  12.585  -1.129   4.369  0.2603 -0.0587  0.5191
  644MOL0    Cl86850  12.470  -1.260   4.336  0.4349 -0.4134 -0.5775
  644MOL0     C86851  12.349  -0.041   4.284 -0.1070  0.1357 -0.5136
  644MOL0     C86852  12.301   0.094   4.277 -0.5154  0.9087  0.0473
  644MOL0     O86853  12.255   0.315   4.492 -1.1297  1.0435  0.0071
  644MOL0     C86854  11.950   0.478   4.386 -0.8843 -0.0435 -1.3141
  644MOL0     C86855  11.883   0.600   4.385  0.4839  0.7370 -0.3000
  644MOL0     N86856  11.368   0.855   3.970  0.0047  0.4084  0.1805
  644MOL0     N86857  11.256   0.915   3.948  0.3895  1.1527  0.8172
  644MOL0     C86858  10.369   1.423   3.957 -0.4694  0.3833 -1.2828
  644MOL0     C86859  10.264   1.514   3.951 -0.8126  1.2601  0.0456
  644MOL0     C86860   9.869   1.735   3.936 -0.1005 -0.4931  0.6510
  644MOL0     C86861   9.790   1.787   3.824 -0.6755  0.5449  0.3078
  644MOL0     C86862   9.682   1.862   3.847  0.8089 -0.3364  0.0723
  644MOL0     C86863   9.649   1.907   3.978 -0.4313 -0.3782 -0.5978
  644MOL0     O86864   9.542   1.987   4.011  0.8073 -0.3305  0.6899
  644MOL0     C86865   9.496   2.071   3.905 -0.1632 -0.8711 -0.2814
  644MOL0     C86866   9.472   2.217   3.953  0.1164 -0.1867 -0.7799
  644MOL0     C86867   9.411   2.309   3.851 -0.8041  0.0323  0.0510
  644MOL0     C86868   9.390   2.441   3.912 -0.1977 -0.0601 -0.3322
  644MOL0     C86869   9.522   2.499   3.948  0.0619 -1.3477 -1.3347
  644MOL0     C86870   9.635   2.534   3.976  0.0133  0.5456 -0.1182
  644MOL0     C86871   9.720   1.860   4.089 -0.2078  0.0035  1.3164
  644MOL0     C86872   9.839   1.780   4.066  0.7886 -0.7389 -0.9778
  644MOL0     H86873  10.011   1.340   4.082 -1.0436 -1.4932 -2.2589
  644MOL0     H86874  10.217   1.173   4.123  1.4791  0.1501  0.3804
  644MOL0     H86875  10.440   1.082   3.819  1.9940  0.0409 -2.5203
  644MOL0     H86876  10.527   1.233   3.823  0.9227 -1.1818  0.0734
  644MOL0     H86877  10.593   0.987   3.998  1.2644 -0.1428 -1.7990
  644MOL0     H86878  10.658   0.995   3.840  3.2847 -0.3648  1.0485
  644MOL0     H86879  10.683   1.246   4.023  1.6294  2.3536 -1.0725
  644MOL0     H86880  10.785   1.101   4.055  1.3340  0.8351 -0.4550
  644MOL0     H86881  10.907   1.135   3.836  0.8722  2.2724 -2.5551
  644MOL0     H86882  10.770   1.230   3.777 -0.8952  0.4889  0.1680
  644MOL0     H86883  10.973   1.364   3.833  0.7924  0.4979  0.7153
  644MOL0     H86884  10.849   1.415   3.936  0.3460 -0.9628  2.7787
  644MOL0     H86885  11.074   1.383   4.053  1.3165 -1.3576  0.0636
  644MOL0     H86886  10.928   1.298   4.123  0.4443  2.1116 -0.1246
  644MOL0     H86887  11.149   1.187   4.134  0.1276 -1.9739  0.4626
  644MOL0     H86888  11.022   1.092   4.062  0.6370 -0.4106  1.5451
  644MOL0     H86889  11.224   1.245   3.908  0.5508  0.4895  1.6720
  644MOL0     H86890  11.110   1.108   3.850 -1.1215  1.5060 -0.3151
  644MOL0     H86891  11.460   1.164   3.966 -0.0462  0.5499  0.8238
  644MOL0     H86892  11.643   0.815   3.965  1.9044  1.0958 -1.7938
  644MOL0     H86893  11.670   0.985   3.946 -0.6570  0.4654 -0.3153
  644MOL0     H86894  11.557   0.890   4.223  1.4565  0.6991  1.1888
  644MOL0     H86895  11.633   1.027   4.175  0.0930  0.2067 -1.9389
  644MOL0     H86896  11.859   0.901   4.167 -0.2524 -1.0499  0.4130
  644MOL0     H86897  11.769   0.747   4.178  1.7731 -1.0693  2.7134
  644MOL0     H86898  11.695   0.790   4.403 -1.0164 -2.6024 -3.4448
  644MOL0     H86899  11.709   0.955   4.386 -1.7387  0.3354 -1.8686
  644MOL0     H86900  12.137   0.801   4.450  0.1268 -0.9438 -0.1694
  644MOL0     H86901  12.366   0.535   4.405  0.6924 -0.6584  0.6305
  644MOL0     H86902  12.323   0.698   4.446  1.1760  0.2804  0.8084
  644MOL0     H86903  12.330   0.577   4.573 -3.4349  1.3200  0.8738
  644MOL0     H86904  11.984   0.031   4.374 -0.6220  1.7210 -2.3192
  644MOL0     H86905  12.055  -0.197   4.362 -1.1632  0.8688  1.0736
  644MOL0     H86906  12.131  -0.363   4.295 -0.0551  0.8263 -0.0888
  644MOL0     H86907  12.198  -0.378   4.124  0.7159  0.5946 -0.1458
  644MOL0     H86908  12.277  -0.520   4.372  1.3162 -0.9461  0.6377
  644MOL0     H86909  12.184  -0.588   4.236 -0.0026 -0.1290 -0.7425
  644MOL0     H86910  12.478  -0.530   4.237 -0.4580  1.5069 -0.6482
  644MOL0     H86911  12.384  -0.524   4.089 -1.4870 -1.2034 -0.9051
  644MOL0     H86912  12.306  -0.759   4.122 -1.1060  1.3037  0.5202
  644MOL0     H86913  12.471  -0.743   4.101 -2.5079 -0.6183 -2.8285
  644MOL0     H86914  12.322  -0.811   4.358 -0.9040 -1.1668 -2.8856
  644MOL0     H86915  12.479  -0.731   4.378  1.5613 -2.2973  1.6258
  644MOL0     H86916  12.428  -0.965   4.201 -0.2821 -2.1287  1.4015
  644MOL0     H86917  12.582  -0.876   4.227  1.4339  2.1104  3.1328
  644MOL0     H86918  12.442  -1.010   4.462 -1.1406  0.5430 -1.1223
  644MOL0     H86919  12.602  -0.932   4.456  0.7447 -1.4656  1.6678
  644MOL0     H86920  12.643  -1.160   4.457 -0.4551  1.6331  1.6466
  644MOL0     H86921  12.664  -1.120   4.294  0.6215 -0.4588  0.8512
  644MOL0     H86922  12.452  -0.069   4.265 -1.1215 -3.8972 -0.8460
  644MOL0     H86923  12.359   0.177   4.237 -0.5814  0.6490 -0.5990
  644MOL0     H86924  11.899   0.389   4.351 -2.2633  1.1886 -2.5615
  644MOL0     H86925  11.777   0.600   4.360  0.6975  0.4192 -1.2568
  644MOL0     H86926  10.470   1.429   3.918 -0.0854 -5.2324 -2.0483
  644MOL0     H86927  10.285   1.612   3.909 -0.8158  0.7866 -1.0912
  644MOL0     H86928   9.812   1.749   3.724 -2.1945 -2.7817  1.1025
  644MOL0     H86929   9.618   1.889   3.763  1.9105  1.0759 -0.3493
  644MOL0     H86930   9.544   2.087   3.808 -1.6867 -0.0873 -0.9376
  644MOL0     H86931   9.397   2.033   3.881 -0.4585  0.7245 -1.7957
  644MOL0     H86932   9.564   2.259   3.995  0.1617 -0.9473 -0.0786
  644MOL0     H86933   9.405   2.205   4.039 -0.0881  2.1183 -0.5646
  644MOL0     H86934   9.326   2.252   3.810  1.7060 -4.3458  0.3616
  644MOL0     H86935   9.493   2.316   3.779  1.9895 -0.2632  2.9952
  644MOL0     H86936   9.318   2.434   3.994 -2.3051 -2.4105 -2.2471
  644MOL0     H86937   9.335   2.500   3.839  2.3083 -0.6682 -2.8864
  644MOL0     H86938   9.730   2.577   4.004  2.7904 -3.1362 -2.9866
  644MOL0     H86939   9.690   1.890   4.189  0.2455 -0.3951  1.5774
  644MOL0     H86940   9.902   1.744   4.147  3.2559 -2.6096 -3.5158
  645MOL0     O86941   8.120   6.176   1.236 -0.2539  0.6284  0.2071
  645MOL0     C86942   8.239   6.201   1.268  0.5078  1.1260  0.5680
  645MOL0     O86943   8.279   6.253   1.384 -0.4750  0.0108 -0.3399
  645MOL0     C86944   8.191   6.269   1.489 -0.5323 -0.1061 -0.0949
  645MOL0     C86945   8.161   6.153   1.562 -0.6006 -0.1712  0.0410
  645MOL0     C86946   8.088   6.158   1.678 -0.0711 -0.0690 -0.2730
  645MOL0     C86947   8.039   6.279   1.725 -0.3982  0.2289  0.5133
  645MOL0     O86948   7.972   6.283   1.849  0.7140 -0.1008 -0.7756
  645MOL0     C86949   7.947   6.411   1.904 -0.1598  0.3735 -0.6208
  645MOL0     C86950   7.862   6.397   2.036 -0.2260 -0.0626  0.3494
  645MOL0     C86951   7.829   6.532   2.109 -0.0571 -0.3636  0.4742
  645MOL0     C86952   7.739   6.506   2.230  0.4904  0.0847  0.4281
  645MOL0     C86953   7.690   6.623   2.326 -0.2449 -1.6495 -0.3922
  645MOL0     C86954   7.796   6.662   2.440  1.1295 -1.0114  0.1522
  645MOL0     C86955   7.722   6.744   2.551 -0.4138 -0.3745  1.0131
  645MOL0     C86956   7.683   6.881   2.499  0.2069  0.5778  0.6182
  645MOL0     N86957   7.799   6.963   2.467 -0.4674  0.4542  0.0588
  645MOL0     C86958   7.831   6.990   2.333 -0.7839  0.2038  0.2621
  645MOL0     C86959   7.932   7.085   2.350  0.2160  0.8868  0.2083
  645MOL0     C86960   8.014   7.146   2.239  0.6087 -1.8094  0.1206
  645MOL0     C86961   7.929   7.263   2.173 -0.3342  0.3233  0.4283
  645MOL0     C86962   7.980   7.287   2.030  0.3654  0.1350 -0.2675
  645MOL0     C86963   7.942   7.424   1.964  0.6345  0.1276  0.0241
  645MOL0     O86964   7.958   7.422   1.823  0.2086  0.3344 -0.1091
  645MOL0     C86965   7.971   7.548   1.768  0.0620 -0.4363 -0.5885
  645MOL0     C86966   7.870   7.639   1.782 -0.1356 -0.4588  0.0409
  645MOL0     C86967   7.883   7.772   1.746 -0.1072  0.4335  0.0230
  645MOL0     C86968   7.761   7.856   1.759 -1.2108 -1.1893 -0.2364
  645MOL0     C86969   8.008   7.814   1.700 -0.1291 -0.1278 -0.3767
  645MOL0     C86970   8.028   7.957   1.658  0.6446 -0.2408  0.5039
  645MOL0     O86971   8.035   8.062   1.751 -0.2973  1.2545  0.5066
  645MOL0     C86972   8.050   8.184   1.694  0.2540  0.3164  0.0067
  645MOL0     C86973   7.931   8.256   1.668 -0.7539  0.2323 -0.5973
  645MOL0     C86974   7.946   8.382   1.611 -0.5146 -0.3063 -0.3171
  645MOL0     C86975   8.076   8.438   1.597 -0.3858  0.3605 -0.7428
  645MOL0     O86976   8.079   8.555   1.534  0.3165  0.5531  0.2408
  645MOL0     C86977   8.206   8.605   1.478  0.1445  0.2503 -1.0473
  645MOL0     C86978   8.176   8.722   1.379 -0.2249  0.4838  0.4590
  645MOL0     C86979   8.296   8.802   1.342 -0.9188  0.1426  0.5128
  645MOL0     C86980   8.266   8.901   1.234  0.1926  0.2317 -0.0649
  645MOL0     C86981   8.375   8.997   1.189 -0.2338 -0.1751 -0.1398
  645MOL0     C86982   8.513   8.925   1.180  0.8111  0.0553  0.0543
  645MOL0     C86983   8.611   9.007   1.103  0.0618  0.5152  0.4237
  645MOL0     C86984   8.751   8.937   1.086 -0.0643 -0.1280  0.0756
  645MOL0    Cl86985   8.820   8.927   1.253 -0.5736 -0.0956  0.1037
  645MOL0     C86986   8.195   8.365   1.628 -0.4724 -0.4705 -0.0831
  645MOL0     C86987   8.174   8.227   1.662 -0.1823 -0.1696 -0.2374
  645MOL0     O86988   8.066   7.964   1.542  0.0975 -0.4410  0.8958
  645MOL0     C86989   8.104   7.714   1.684 -0.1631  0.1126 -0.2742
  645MOL0     C86990   8.090   7.581   1.712  1.0455 -0.5314  0.7491
  645MOL0     N86991   7.959   7.116   2.476 -0.5672 -0.6245 -0.7055
  645MOL0     N86992   7.879   7.045   2.547  0.4584 -0.5018  0.4165
  645MOL0     C86993   8.067   6.393   1.645 -0.3764  0.1983 -1.3085
  645MOL0     C86994   8.151   6.394   1.534  0.6183  0.3881  0.0760
  645MOL0     C86995   8.338   6.217   1.162  0.5727 -0.2015  0.1976
  645MOL0     C86996   8.446   6.300   1.189  0.6027  0.1967  0.3381
  645MOL0     C86997   8.541   6.319   1.088  0.2473 -0.7590  0.6937
  645MOL0     C86998   8.535   6.245   0.964  0.1608 -0.3319 -0.5120
  645MOL0     O86999   8.615   6.268   0.854 -0.1468  0.2452 -0.3442
  645MOL0     C87000   8.736   6.348   0.842  0.2549 -0.1391 -0.3468
  645MOL0     C87001   8.851   6.281   0.910  0.3462 -0.4670 -0.4259
  645MOL0     C87002   8.915   6.151   0.851 -0.5159  0.1169  0.2347
  645MOL0     C87003   9.043   6.107   0.923 -0.1246  0.6476  0.4284
  645MOL0     C87004   9.109   5.997   0.849 -0.1831 -0.0262 -0.6021
  645MOL0     C87005   9.174   5.905   0.808  0.0851 -0.8529  0.6085
  645MOL0     C87006   8.424   6.171   0.925 -0.6595 -0.0911 -0.3300
  645MOL0     C87007   8.330   6.153   1.030  0.3391 -0.4735  0.2084
  645MOL0     H87008   8.195   6.056   1.527 -0.4872  0.1791 -0.8514
  645MOL0     H87009   8.072   6.065   1.733  2.6675 -0.7529 -0.4649
  645MOL0     H87010   8.045   6.453   1.929  1.3949 -2.2225 -1.9420
  645MOL0     H87011   7.887   6.474   1.839 -1.3519  1.7040  1.6275
  645MOL0     H87012   7.762   6.354   2.019 -1.5698  3.0153 -0.2270
  645MOL0     H87013   7.925   6.340   2.105  0.5316  0.8322  0.4031
  645MOL0     H87014   7.925   6.574   2.142  0.9737  0.6495 -3.2917
  645MOL0     H87015   7.781   6.610   2.049  0.6977  0.0973  0.4521
  645MOL0     H87016   7.644   6.465   2.195  0.3408 -0.6790  1.6757
  645MOL0     H87017   7.776   6.418   2.284 -3.8092 -0.7406  2.4837
  645MOL0     H87018   7.665   6.711   2.266 -3.9015 -1.0842  1.6729
  645MOL0     H87019   7.594   6.602   2.373 -0.6914  0.8428 -0.0960
  645MOL0     H87020   7.842   6.578   2.492  2.1759  0.0603  1.0197
  645MOL0     H87021   7.887   6.709   2.400  2.3231 -4.4387 -1.5304
  645MOL0     H87022   7.637   6.692   2.596 -1.5325 -0.3126 -0.9151
  645MOL0     H87023   7.800   6.771   2.623  0.6521  1.2941 -0.6911
  645MOL0     H87024   7.618   6.934   2.569 -1.7166 -0.8864  0.0388
  645MOL0     H87025   7.622   6.883   2.408 -0.9199  0.2466  1.3383
  645MOL0     H87026   7.789   6.945   2.244 -2.2893 -0.4123  1.2543
  645MOL0     H87027   8.103   7.187   2.289 -0.6997 -1.3365  2.1665
  645MOL0     H87028   8.046   7.075   2.162  0.8604 -2.8345  1.1379
  645MOL0     H87029   7.953   7.355   2.226  0.6533 -0.9225  2.2944
  645MOL0     H87030   7.821   7.248   2.182 -0.1226 -1.1470  0.7630
  645MOL0     H87031   7.937   7.206   1.971  1.2443  1.2965 -2.6353
  645MOL0     H87032   8.089   7.277   2.022  0.3473  0.2194 -0.6288
  645MOL0     H87033   8.012   7.495   2.009  1.6462  0.0479 -1.3541
  645MOL0     H87034   7.843   7.446   2.005 -0.5061 -0.8327 -2.0816
  645MOL0     H87035   7.777   7.605   1.826 -1.8413  2.8139 -0.7593
  645MOL0     H87036   7.717   7.874   1.660  3.1418  1.6420 -1.9202
  645MOL0     H87037   7.690   7.802   1.823 -1.4254  0.6145  1.1188
  645MOL0     H87038   7.781   7.958   1.792  2.8360 -2.2572  1.1386
  645MOL0     H87039   7.835   8.208   1.686 -0.9083  1.6167  3.0720
  645MOL0     H87040   7.853   8.422   1.572 -0.4944 -2.6954 -3.1109
  645MOL0     H87041   8.268   8.639   1.561 -2.2226  0.4923  0.7119
  645MOL0     H87042   8.257   8.524   1.424 -2.6348 -1.7228 -0.9207
  645MOL0     H87043   8.135   8.685   1.284  0.8550 -0.6271  0.3860
  645MOL0     H87044   8.104   8.789   1.425 -0.3926  0.7963 -0.2412
  645MOL0     H87045   8.372   8.731   1.310 -1.6507 -1.8867  2.9736
  645MOL0     H87046   8.334   8.856   1.429  2.0813  2.6622 -2.0711
  645MOL0     H87047   8.238   8.844   1.145 -0.0384  1.5066 -0.8369
  645MOL0     H87048   8.179   8.959   1.268 -1.5199 -1.5123 -1.2714
  645MOL0     H87049   8.386   9.089   1.247  2.1967 -0.8507  0.6135
  645MOL0     H87050   8.338   9.020   1.089  0.4909 -5.3114 -1.8976
  645MOL0     H87051   8.546   8.919   1.285 -3.2836 -0.6782  1.4827
  645MOL0     H87052   8.507   8.825   1.137  0.2116 -1.4918  3.3681
  645MOL0     H87053   8.629   9.108   1.144  4.2489  1.3377 -2.7566
  645MOL0     H87054   8.569   9.025   1.004  0.3116  0.2144  0.2650
  645MOL0     H87055   8.824   8.999   1.033  0.8153 -0.4700  0.8570
  645MOL0     H87056   8.739   8.843   1.032 -0.0322 -0.4637  0.6422
  645MOL0     H87057   8.298   8.401   1.626  0.8424 -3.7592  1.6186
  645MOL0     H87058   8.258   8.160   1.681 -0.2720  0.2727  1.9269
  645MOL0     H87059   8.204   7.727   1.645  0.7924 -0.2535  1.9070
  645MOL0     H87060   8.156   7.496   1.695 -0.8621 -2.6336  3.0639
  645MOL0     H87061   8.019   6.486   1.675  2.5284  1.2422  0.5801
  645MOL0     H87062   8.184   6.487   1.489  1.1910 -0.5455 -1.5148
  645MOL0     H87063   8.453   6.356   1.282 -3.4758 -1.2531  1.7376
  645MOL0     H87064   8.628   6.383   1.100 -0.9749  0.9653  0.7271
  645MOL0     H87065   8.762   6.362   0.737 -5.3281 -3.6065 -2.7235
  645MOL0     H87066   8.704   6.438   0.894  2.7780  1.2256 -1.0117
  645MOL0     H87067   8.824   6.271   1.015 -3.6444  0.8802 -1.1730
  645MOL0     H87068   8.933   6.354   0.914 -1.6222  1.8037  3.0944
  645MOL0     H87069   8.943   6.161   0.746 -1.5753  2.1830  0.1026
  645MOL0     H87070   8.849   6.063   0.852  0.1566 -0.6272 -3.6389
  645MOL0     H87071   9.024   6.075   1.026  0.6032  1.4950  0.8454
  645MOL0     H87072   9.111   6.192   0.932 -1.7657  2.3169 -1.7220
  645MOL0     H87073   9.233   5.819   0.781 -0.5093 -0.7653 -1.0558
  645MOL0     H87074   8.425   6.128   0.826  2.1032  2.9818 -1.7983
  645MOL0     H87075   8.248   6.084   1.009 -1.2257  0.2826  3.3004
  646MOL0     O87076   3.544   1.119  11.059 -0.4200  0.1181  0.9336
  646MOL0     C87077   3.562   1.159  10.942 -0.2570  0.1334  0.1766
  646MOL0     O87078   3.557   1.083  10.826 -0.9347  0.6137  0.0112
  646MOL0     C87079   3.547   0.945  10.818 -0.2183  0.8326 -0.2067
  646MOL0     C87080   3.522   0.905  10.685  0.0598  0.1524 -0.0174
  646MOL0     C87081   3.509   0.768  10.666  0.5181  0.2205  0.5462
  646MOL0     C87082   3.519   0.672  10.765 -0.7679  0.8846  0.3042
  646MOL0     O87083   3.486   0.536  10.743  0.3789 -1.1415  0.0417
  646MOL0     C87084   3.388   0.482  10.838  0.1457 -0.2328 -1.3906
  646MOL0     C87085   3.462   0.362  10.909 -0.0613 -0.9847 -0.3066
  646MOL0     C87086   3.388   0.308  11.038  0.1686  0.5102  0.3344
  646MOL0     C87087   3.459   0.179  11.078 -0.2986 -0.4761 -0.6689
  646MOL0     C87088   3.430   0.120  11.218  0.4139 -0.5559 -0.7527
  646MOL0     C87089   3.467  -0.033  11.213  0.2236  0.3113  0.4442
  646MOL0     C87090   3.489  -0.096  11.353  0.1348  0.5475 -0.0701
  646MOL0     C87091   3.542  -0.236  11.347 -0.0346 -0.1663 -1.2495
  646MOL0     N87092   3.560  -0.285  11.489 -0.9915 -0.3589  0.8766
  646MOL0     C87093   3.621  -0.212  11.589 -0.2508 -0.8654 -0.1458
  646MOL0     C87094   3.639  -0.309  11.680 -0.5169 -0.5005  0.2494
  646MOL0     C87095   3.694  -0.291  11.812  1.5021 -0.0009 -0.7281
  646MOL0     C87096   3.837  -0.225  11.831  0.8834  0.8897 -0.2426
  646MOL0     C87097   3.877  -0.237  11.985 -0.3742  0.7118 -0.2976
  646MOL0     C87098   4.030  -0.198  12.010  0.5144  0.5307  0.1384
  646MOL0     O87099   4.102  -0.318  11.990  0.2177 -0.7732 -1.2555
  646MOL0     C87100   4.140  -0.374  12.112 -0.9948  0.3588 -0.0377
  646MOL0     C87101   4.251  -0.326  12.175 -0.0089 -0.0510  0.1582
  646MOL0     C87102   4.307  -0.396  12.283 -0.7916  0.4339  0.1028
  646MOL0     C87103   4.438  -0.338  12.333 -0.1044  0.0804  0.7492
  646MOL0     C87104   4.245  -0.514  12.337 -0.3649  0.4586  0.8577
  646MOL0     C87105   4.276  -0.578  12.468 -0.1686 -0.5131  0.0234
  646MOL0     O87106   4.176  -0.628  12.546 -0.2238 -0.7535 -0.3401
  646MOL0     C87107   4.212  -0.694  12.660  0.2696  0.4865 -0.2415
  646MOL0     C87108   4.237  -0.624  12.779 -0.3215 -0.4476 -0.5276
  646MOL0     C87109   4.255  -0.698  12.895 -0.0042 -0.0237 -0.3069
  646MOL0     C87110   4.242  -0.844  12.899  0.4452  0.2656 -1.0246
  646MOL0     O87111   4.268  -0.924  13.009 -0.0480  0.9830 -0.2893
  646MOL0     C87112   4.291  -0.870  13.136 -0.4230  0.3037 -0.3529
  646MOL0     C87113   4.340  -0.980  13.221 -0.1455 -0.6896 -0.5938
  646MOL0     C87114   4.345  -0.934  13.366  0.5405 -0.4774 -0.8386
  646MOL0     C87115   4.417  -1.020  13.462 -0.5443  0.1550  0.0506
  646MOL0     C87116   4.394  -0.989  13.607  0.3180  0.2991 -0.1743
  646MOL0     C87117   4.492  -1.082  13.678 -0.7429 -0.2155 -0.3371
  646MOL0     C87118   4.502  -1.052  13.826  0.3134 -0.2568  0.6144
  646MOL0     C87119   4.612  -1.141  13.888  0.0646  0.3210 -0.4850
  646MOL0    Cl87120   4.779  -1.073  13.872  0.2725  0.0648  0.5892
  646MOL0     C87121   4.217  -0.909  12.783 -0.9945  0.5144  0.4643
  646MOL0     C87122   4.198  -0.839  12.666 -0.1216 -0.1543 -0.2232
  646MOL0     O87123   4.385  -0.557  12.508 -1.2691 -0.9584  0.9665
  646MOL0     C87124   4.134  -0.559  12.276 -0.6407 -0.0993 -0.3998
  646MOL0     C87125   4.088  -0.495  12.158 -0.3977  0.0487 -0.2675
  646MOL0     N87126   3.598  -0.430  11.633  0.3769 -1.1426 -0.2817
  646MOL0     N87127   3.563  -0.415  11.507  0.0017  0.5950  0.2505
  646MOL0     C87128   3.550   0.717  10.894 -0.6974 -0.4854  0.5208
  646MOL0     C87129   3.573   0.855  10.920 -0.2532  1.2611 -0.1046
  646MOL0     C87130   3.576   1.309  10.916  0.7105 -0.0191 -1.1564
  646MOL0     C87131   3.551   1.364  10.784  0.2666  0.0446 -0.8443
  646MOL0     C87132   3.558   1.501  10.766 -0.6949  0.2369  0.5103
  646MOL0     C87133   3.607   1.585  10.871  0.0263  0.5168  1.1141
  646MOL0     O87134   3.632   1.711  10.830  0.6584 -0.6156 -0.3431
  646MOL0     C87135   3.662   1.813  10.927  0.6472  0.5412 -0.2942
  646MOL0     C87136   3.813   1.808  10.968 -0.6017  0.2320 -0.2900
  646MOL0     C87137   3.848   1.921  11.067  0.9137  0.3240  0.4104
  646MOL0     C87138   3.785   1.916  11.199  0.1424 -0.5492  0.3074
  646MOL0     C87139   3.820   1.800  11.269  0.0807  0.1519  0.5448
  646MOL0     C87140   3.841   1.697  11.331  0.5028 -0.5826 -0.4957
  646MOL0     C87141   3.623   1.536  10.999  0.4317  0.2295  0.7072
  646MOL0     C87142   3.621   1.396  11.014 -0.5607 -0.8110  0.0340
  646MOL0     H87143   3.496   0.972  10.604 -0.2652 -1.4164 -1.2742
  646MOL0     H87144   3.478   0.732  10.568  0.3737  1.3189  0.1713
  646MOL0     H87145   3.353   0.557  10.910 -3.0324  0.2923 -3.3077
  646MOL0     H87146   3.301   0.444  10.785  0.2738  0.6237 -2.2315
  646MOL0     H87147   3.470   0.286  10.831  2.9808 -1.1531  0.0649
  646MOL0     H87148   3.561   0.401  10.933 -0.4063 -1.9531  3.2728
  646MOL0     H87149   3.385   0.376  11.124 -0.6879 -0.8400  1.4175
  646MOL0     H87150   3.291   0.268  11.008  1.6319 -3.2664  0.1059
  646MOL0     H87151   3.432   0.105  11.002 -0.3478 -2.0008  0.7774
  646MOL0     H87152   3.567   0.194  11.084 -0.5267  0.6122  1.8144
  646MOL0     H87153   3.497   0.167  11.291 -2.1760  1.2868  0.5687
  646MOL0     H87154   3.328   0.137  11.252  0.0391  1.3812 -2.6735
  646MOL0     H87155   3.380  -0.084  11.170 -0.1246  2.5964 -1.7749
  646MOL0     H87156   3.557  -0.034  11.151 -0.3387  0.4431 -0.4001
  646MOL0     H87157   3.557  -0.029  11.406 -2.8053  3.9527 -0.1841
  646MOL0     H87158   3.400  -0.113  11.414  1.5288 -0.8333  1.6805
  646MOL0     H87159   3.641  -0.243  11.301  1.2767  1.3654  1.1198
  646MOL0     H87160   3.470  -0.298  11.294 -0.3202 -1.2189  0.3043
  646MOL0     H87161   3.637  -0.105  11.587 -0.6123 -0.8098 -1.9367
  646MOL0     H87162   3.620  -0.235  11.869  0.0188 -1.3906 -1.1946
  646MOL0     H87163   3.691  -0.387  11.864  0.1591 -0.1745 -1.0834
  646MOL0     H87164   3.852  -0.119  11.809  0.1748  1.8549  3.2976
  646MOL0     H87165   3.910  -0.275  11.766  3.6847  1.8885  1.9467
  646MOL0     H87166   3.874  -0.344  12.008 -2.3997  0.5914 -0.9424
  646MOL0     H87167   3.799  -0.186  12.042 -1.8712 -1.3634 -0.3835
  646MOL0     H87168   4.032  -0.154  12.110 -1.0913  2.5944 -0.6765
  646MOL0     H87169   4.059  -0.120  11.939 -3.2542  1.6467 -0.3677
  646MOL0     H87170   4.317  -0.247  12.140  0.1898 -0.0697  0.4873
  646MOL0     H87171   4.446  -0.344  12.442  2.0812  0.5336  0.6715
  646MOL0     H87172   4.519  -0.390  12.280 -0.2452  1.0009 -0.4011
  646MOL0     H87173   4.433  -0.230  12.319 -1.3726 -0.0954 -0.3038
  646MOL0     H87174   4.260  -0.518  12.781 -2.9961  0.2950  3.6269
  646MOL0     H87175   4.258  -0.634  12.982  0.2223 -0.0392 -0.3027
  646MOL0     H87176   4.360  -0.787  13.124 -0.2909  0.7142  2.5547
  646MOL0     H87177   4.194  -0.836  13.174 -1.7496  1.2730 -4.1596
  646MOL0     H87178   4.286  -1.074  13.237 -0.7573 -0.1484  0.6415
  646MOL0     H87179   4.446  -0.998  13.202  0.0377  0.8166 -1.1083
  646MOL0     H87180   4.245  -0.914  13.404  1.3260  2.6264 -0.2018
  646MOL0     H87181   4.410  -0.846  13.366  0.1033 -0.0698  1.9582
  646MOL0     H87182   4.399  -1.127  13.443 -0.8448 -0.0344  1.3081
  646MOL0     H87183   4.519  -0.996  13.431 -0.8474  1.4781  0.0405
  646MOL0     H87184   4.294  -1.008  13.647  0.6049 -1.7362 -0.3182
  646MOL0     H87185   4.411  -0.883  13.630  2.5603  0.1511 -0.9097
  646MOL0     H87186   4.475  -1.189  13.663 -3.7902  0.0558  0.5913
  646MOL0     H87187   4.592  -1.068  13.637  0.8668 -3.2928  2.0418
  646MOL0     H87188   4.405  -1.068  13.873  0.3644  2.2386  1.7123
  646MOL0     H87189   4.530  -0.947  13.839  2.2583 -0.6838  0.2306
  646MOL0     H87190   4.596  -1.241  13.847 -2.5427  0.3623  0.2358
  646MOL0     H87191   4.579  -1.146  13.992 -0.8631 -3.5860 -0.8377
  646MOL0     H87192   4.206  -1.017  12.779 -4.0746  0.6517  2.0384
  646MOL0     H87193   4.184  -0.896  12.574  5.6204  2.5390 -3.2712
  646MOL0     H87194   4.082  -0.651  12.300  2.5029 -1.4739  1.8468
  646MOL0     H87195   4.007  -0.546  12.106 -0.6435  1.7367 -1.6520
  646MOL0     H87196   3.553   0.646  10.976 -2.5366 -0.3703  0.7183
  646MOL0     H87197   3.600   0.883  11.021 -0.2945  1.5280 -0.1673
  646MOL0     H87198   3.505   1.302  10.707 -0.6178  1.5458 -1.5578
  646MOL0     H87199   3.543   1.534  10.663  3.7945 -0.3000 -0.5462
  646MOL0     H87200   3.644   1.915  10.892  0.3850  1.0378  1.1969
  646MOL0     H87201   3.599   1.811  11.016 -0.5912  0.7363 -1.1483
  646MOL0     H87202   3.875   1.810  10.878  0.7942 -0.1705  0.6331
  646MOL0     H87203   3.832   1.711  11.014 -0.3160  1.7383  3.0475
  646MOL0     H87204   3.816   2.012  11.015 -3.1715 -1.3555 -0.4184
  646MOL0     H87205   3.956   1.933  11.081  0.3581  3.2873  3.4829
  646MOL0     H87206   3.677   1.916  11.181  0.2343 -2.3793 -0.4139
  646MOL0     H87207   3.815   2.012  11.243  1.4729 -0.3748 -0.8978
  646MOL0     H87208   3.873   1.614  11.391  1.8997  1.9940  2.6361
  646MOL0     H87209   3.660   1.603  11.076  1.4135 -1.2803  1.5779
  646MOL0     H87210   3.638   1.354  11.112 -2.0891 -4.1819 -1.0064
  647MOL0     O87211   1.765   5.971  10.968  0.5379 -0.0428  0.0386
  647MOL0     C87212   1.680   5.945  11.056 -0.4831  0.5555 -0.4068
  647MOL0     O87213   1.593   5.839  11.065 -0.1505 -0.0960 -0.1141
  647MOL0     C87214   1.553   5.789  10.946 -0.1038 -0.1324  0.9650
  647MOL0     C87215   1.646   5.693  10.882  1.3083 -1.1498  0.2805
  647MOL0     C87216   1.606   5.628  10.761  0.2861 -0.0123  0.4735
  647MOL0     C87217   1.483   5.662  10.700 -0.1923 -0.9151  0.6654
  647MOL0     O87218   1.462   5.600  10.575  0.4187 -0.5274 -0.0322
  647MOL0     C87219   1.392   5.673  10.481 -0.8143 -0.8416 -0.5662
  647MOL0     C87220   1.371   5.565  10.370  0.7650  0.1306 -0.1943
  647MOL0     C87221   1.230   5.509  10.352 -0.2709  0.3390  0.0279
  647MOL0     C87222   1.189   5.485  10.206 -0.0875  0.2223  0.7259
  647MOL0     C87223   1.069   5.386  10.195  0.3394 -0.3313  1.0943
  647MOL0     C87224   1.025   5.389  10.044 -0.3242 -0.3264 -0.6406
  647MOL0     C87225   0.913   5.291  10.005  0.5542 -0.0240  0.0192
  647MOL0     C87226   0.876   5.286   9.864 -0.1221  0.7558 -0.9018
  647MOL0     N87227   0.767   5.195   9.826  0.6650  0.1009 -0.5129
  647MOL0     C87228   0.636   5.206   9.867 -0.1874  0.4195  0.0113
  647MOL0     C87229   0.571   5.094   9.821  0.2829  0.6060  0.0674
  647MOL0     C87230   0.421   5.049   9.821  0.6650  1.0036  0.5620
  647MOL0     C87231   0.385   4.932   9.908 -0.0300  0.4980  0.4640
  647MOL0     C87232   0.240   4.882   9.887  0.7655  0.1864  0.2420
  647MOL0     C87233   0.207   4.756   9.965 -0.1099 -0.0387  0.0330
  647MOL0     O87234   0.242   4.641   9.887  0.0536  0.3022 -0.8765
  647MOL0     C87235   0.222   4.513   9.928  0.1601  0.2126 -1.1111
  647MOL0     C87236   0.187   4.477  10.063  0.2947 -1.4572  0.5072
  647MOL0     C87237   0.186   4.339  10.101  0.5790 -0.4779 -0.2058
  647MOL0     C87238   0.148   4.315  10.248  0.3074 -0.4970  1.0360
  647MOL0     C87239   0.197   4.244  10.001 -0.2166 -0.4596 -0.2279
  647MOL0     C87240   0.191   4.094  10.041  0.1906 -0.3220  0.3905
  647MOL0     O87241   0.230   4.011   9.938  0.1912  0.4107  0.0916
  647MOL0     C87242   0.247   3.880   9.987  0.3533 -0.2129  0.0966
  647MOL0     C87243   0.378   3.844  10.011  0.2950  0.1169  0.5983
  647MOL0     C87244   0.406   3.719  10.070 -0.9285 -0.5044 -0.1505
  647MOL0     C87245   0.302   3.621  10.076 -0.0903  0.1330 -0.4397
  647MOL0     O87246   0.318   3.496  10.141 -0.1374  0.0136  0.0792
  647MOL0     C87247   0.447   3.444  10.171  0.4985 -0.1511  1.0422
  647MOL0     C87248   0.439   3.293  10.200 -0.0193  0.9518  0.4924
  647MOL0     C87249   0.361   3.211  10.094  0.6277  0.0322 -0.2594
  647MOL0     C87250   0.283   3.096  10.157 -0.7116 -0.1204  0.5528
  647MOL0     C87251   0.248   2.990  10.052 -0.3648  0.4637 -0.6813
  647MOL0     C87252   0.167   2.876  10.114  0.2641  0.0151 -0.6275
  647MOL0     C87253   0.109   2.788  10.011  0.2860  0.7788 -0.5789
  647MOL0     C87254   0.089   2.639  10.062  0.5427  0.1574 -0.8495
  647MOL0    Cl87255  -0.030   2.544   9.976 -0.1076  0.5322 -0.6546
  647MOL0     C87256   0.173   3.658  10.031 -0.4298 -0.4896  0.4039
  647MOL0     C87257   0.138   3.792   9.989  0.2859  0.9001 -0.4740
  647MOL0     O87258   0.146   4.054  10.154  0.0569  0.3050  0.1774
  647MOL0     C87259   0.225   4.284   9.868 -0.0225  0.0734 -0.0502
  647MOL0     C87260   0.240   4.419   9.824  0.3233  0.7432 -0.0055
  647MOL0     N87261   0.656   5.021   9.750 -2.1291  0.0275 -0.1383
  647MOL0     N87262   0.767   5.083   9.748 -0.7696  0.9981  0.2912
  647MOL0     C87263   1.398   5.749  10.771 -0.4367 -0.3719  0.1054
  647MOL0     C87264   1.428   5.806  10.890 -0.0545 -0.1440  0.0264
  647MOL0     C87265   1.684   6.035  11.170  0.2575  0.6003  0.5556
  647MOL0     C87266   1.777   6.143  11.183 -0.9862  1.1229  0.5667
  647MOL0     C87267   1.759   6.239  11.283  0.0722  0.1099  0.2970
  647MOL0     C87268   1.669   6.222  11.388  0.9260 -0.0605  0.2741
  647MOL0     O87269   1.657   6.313  11.490  1.0763  0.5237 -0.8166
  647MOL0     C87270   1.651   6.457  11.454  0.1493 -0.3549  0.3756
  647MOL0     C87271   1.531   6.509  11.370 -0.8342  0.3390 -0.0996
  647MOL0     C87272   1.471   6.636  11.432 -0.6791 -0.3093  0.1567
  647MOL0     C87273   1.346   6.682  11.345 -0.5646 -0.3413 -0.5214
  647MOL0     C87274   1.389   6.719  11.216 -0.3993  0.7245 -0.7780
  647MOL0     C87275   1.424   6.741  11.103  0.3521 -0.4275 -0.0742
  647MOL0     C87276   1.586   6.113  11.391  0.0219  0.9464  0.3025
  647MOL0     C87277   1.600   6.019  11.282  0.5705 -0.1203 -0.1068
  647MOL0     H87278   1.739   5.696  10.937  2.4814 -0.8679 -1.6320
  647MOL0     H87279   1.664   5.547  10.718 -1.0388  0.1376 -1.7026
  647MOL0     H87280   1.297   5.714  10.517 -1.1081  1.0629 -3.1954
  647MOL0     H87281   1.444   5.758  10.437 -0.2869 -0.7807  0.1700
  647MOL0     H87282   1.412   5.606  10.277 -2.3711 -1.4472 -2.5036
  647MOL0     H87283   1.445   5.485  10.373  0.9953  0.3630  0.5913
  647MOL0     H87284   1.216   5.414  10.404 -0.2280  0.7017  0.7163
  647MOL0     H87285   1.166   5.586  10.395  2.0806  4.7533 -3.5213
  647MOL0     H87286   1.163   5.580  10.157 -4.8304  0.1862  2.5901
  647MOL0     H87287   1.279   5.441  10.162  0.8701  0.1820  2.6255
  647MOL0     H87288   1.092   5.281  10.215 -1.4881 -0.5810  2.1242
  647MOL0     H87289   0.983   5.424  10.251 -0.6913  0.8457 -1.1136
  647MOL0     H87290   0.979   5.488  10.034 -1.2098 -0.4610  1.6651
  647MOL0     H87291   1.118   5.383   9.987  1.6682 -0.9482  2.4673
  647MOL0     H87292   0.940   5.189  10.032 -2.0004 -1.1546 -1.3190
  647MOL0     H87293   0.819   5.320  10.054 -0.7305 -0.6372 -1.9300
  647MOL0     H87294   0.968   5.269   9.806  0.2106 -1.1158  0.0982
  647MOL0     H87295   0.848   5.383   9.823 -1.1259  0.6771 -0.4312
  647MOL0     H87296   0.596   5.292   9.920  1.9183  2.4697 -1.4988
  647MOL0     H87297   0.358   5.135   9.847  0.3364  0.7284  0.6736
  647MOL0     H87298   0.408   5.020   9.716  4.3021 -1.1971  0.5464
  647MOL0     H87299   0.409   4.964  10.010  1.2862 -1.7542  0.9383
  647MOL0     H87300   0.451   4.851   9.876  0.0966  0.8838 -0.2879
  647MOL0     H87301   0.205   4.861   9.785 -1.2195  0.0754  0.9162
  647MOL0     H87302   0.187   4.974   9.909  1.3777  0.5289  0.3211
  647MOL0     H87303   0.099   4.769   9.973 -0.2973 -1.3635 -0.1770
  647MOL0     H87304   0.262   4.761  10.060 -1.3619 -2.2896  0.9585
  647MOL0     H87305   0.168   4.553  10.138  3.7410 -1.5539  1.6803
  647MOL0     H87306   0.215   4.238  10.288  0.7739 -0.5309  0.2231
  647MOL0     H87307   0.157   4.411  10.299  0.5673  0.3428 -0.5305
  647MOL0     H87308   0.050   4.268  10.257  1.5494 -3.6159 -0.0710
  647MOL0     H87309   0.463   3.910   9.994 -0.3621  0.0288 -4.4147
  647MOL0     H87310   0.505   3.695  10.107 -1.7489 -1.8796  1.2802
  647MOL0     H87311   0.508   3.444  10.080 -0.8568  0.4531  0.1009
  647MOL0     H87312   0.488   3.509  10.250  0.3933  0.3434  0.6966
  647MOL0     H87313   0.544   3.263  10.205  0.2282  1.3244 -1.6470
  647MOL0     H87314   0.394   3.269  10.297  1.7814 -2.5798  0.6053
  647MOL0     H87315   0.431   3.168  10.022  0.1932  0.8842 -1.2031
  647MOL0     H87316   0.288   3.273  10.042  0.6053 -0.8385 -1.2871
  647MOL0     H87317   0.357   3.045  10.220  1.4035  2.6980  0.5424
  647MOL0     H87318   0.203   3.121  10.226 -1.0997 -1.0721  0.4614
  647MOL0     H87319   0.339   2.949  10.006 -1.5356 -0.5904 -2.1729
  647MOL0     H87320   0.180   3.033   9.977 -1.5225  1.4687  0.8815
  647MOL0     H87321   0.242   2.813  10.164  0.9290  1.7868  0.7324
  647MOL0     H87322   0.087   2.898  10.186  0.8064  1.3057 -0.3941
  647MOL0     H87323   0.186   2.787   9.933  2.9165 -2.0578  1.7768
  647MOL0     H87324   0.016   2.829   9.972 -0.3415 -0.1066 -0.0663
  647MOL0     H87325   0.054   2.650  10.166  1.1488  1.4179 -0.7559
  647MOL0     H87326   0.182   2.584  10.070 -0.3049 -1.1825  5.4853
  647MOL0     H87327   0.091   3.587  10.040 -2.6015  1.9721  1.4715
  647MOL0     H87328   0.037   3.821   9.962 -1.7899 -3.8575  1.1103
  647MOL0     H87329   0.224   4.213   9.786  0.3588  0.1809 -0.1490
  647MOL0     H87330   0.260   4.444   9.721 -1.1925  0.2604 -0.4438
  647MOL0     H87331   1.295   5.766  10.741 -0.8639 -0.6328  1.3655
  647MOL0     H87332   1.358   5.865  10.948 -1.2568 -0.4256 -1.0929
  647MOL0     H87333   1.863   6.147  11.117  0.7830  0.1155  2.6694
  647MOL0     H87334   1.833   6.318  11.290 -0.3158  0.3911  1.5174
  647MOL0     H87335   1.639   6.499  11.554 -1.7616 -2.0484  0.9437
  647MOL0     H87336   1.742   6.498  11.410  1.0625 -1.1178  1.4618
  647MOL0     H87337   1.449   6.436  11.366 -1.8561  1.4623 -0.2676
  647MOL0     H87338   1.556   6.530  11.266 -1.3431 -0.7197 -0.4559
  647MOL0     H87339   1.545   6.717  11.441 -0.6844 -0.2745 -0.1170
  647MOL0     H87340   1.440   6.613  11.535 -0.9677 -0.3712  0.0560
  647MOL0     H87341   1.294   6.768  11.388 -0.1488 -0.2490 -0.2017
  647MOL0     H87342   1.279   6.595  11.349  1.2110 -1.8104 -1.5851
  647MOL0     H87343   1.453   6.760  11.001  0.5134  1.9078  0.3521
  647MOL0     H87344   1.514   6.093  11.471 -4.5200 -0.3264 -3.6280
  647MOL0     H87345   1.517   5.949  11.287  1.4631 -1.1713  3.5146
  648MOL0     O87346   2.939   5.937   2.205 -0.6465  0.4877 -0.1752
  648MOL0     C87347   2.993   5.898   2.308  0.1056 -0.3713  0.2662
  648MOL0     O87348   3.096   5.810   2.313  0.3922 -1.0228  0.5303
  648MOL0     C87349   3.121   5.738   2.196  0.5330 -0.6879 -0.5801
  648MOL0     C87350   3.219   5.783   2.110  0.1816  0.2774  0.7226
  648MOL0     C87351   3.264   5.698   2.011 -0.4008  0.2165  0.6890
  648MOL0     C87352   3.212   5.571   1.992  0.1705  0.5004  0.5793
  648MOL0     O87353   3.254   5.504   1.881  0.3961 -0.0509  0.5722
  648MOL0     C87354   3.182   5.418   1.794  0.4063 -0.5216 -0.8142
  648MOL0     C87355   3.282   5.342   1.716 -0.6980 -0.6666  0.0893
  648MOL0     C87356   3.235   5.201   1.675 -0.4997  0.2000  0.6706
  648MOL0     C87357   3.151   5.200   1.539  0.2292 -0.3771  0.0282
  648MOL0     C87358   3.098   5.054   1.516 -0.0963 -0.7827 -0.3520
  648MOL0     C87359   2.976   5.000   1.591 -0.3070  0.2966 -0.1266
  648MOL0     C87360   2.941   4.855   1.560 -0.0184 -0.3658  0.3228
  648MOL0     C87361   2.910   4.840   1.408  0.1378 -0.1542  0.6437
  648MOL0     N87362   2.807   4.739   1.395 -0.8973  0.2034 -0.3282
  648MOL0     C87363   2.670   4.777   1.377  0.4106  0.8666 -0.5707
  648MOL0     C87364   2.614   4.655   1.392  0.3383  0.2162 -0.2110
  648MOL0     C87365   2.465   4.653   1.417  0.8399 -0.6509  0.2281
  648MOL0     C87366   2.415   4.512   1.410  0.1412 -0.1181 -0.2541
  648MOL0     C87367   2.276   4.521   1.470  1.0149 -1.1806 -0.5281
  648MOL0     C87368   2.216   4.383   1.454 -0.2514 -0.3191  0.0306
  648MOL0     O87369   2.109   4.348   1.550 -0.2260  0.9032 -0.0800
  648MOL0     C87370   2.029   4.241   1.518 -1.1614  1.0063  0.1098
  648MOL0     C87371   1.903   4.223   1.584  0.1854 -0.7073 -0.6649
  648MOL0     C87372   1.825   4.106   1.565  0.3491  0.8760  0.1542
  648MOL0     C87373   1.693   4.103   1.641 -0.4619 -0.0204  0.2029
  648MOL0     C87374   1.874   4.002   1.476 -0.0960 -0.5385 -0.5101
  648MOL0     C87375   1.801   3.873   1.445  0.9453  1.0486  0.7344
  648MOL0     O87376   1.859   3.784   1.350 -0.1361 -0.6042  0.4665
  648MOL0     C87377   1.813   3.670   1.323  0.5702 -0.1839  0.3041
  648MOL0     C87378   1.814   3.638   1.187  1.1328  0.1968 -0.3286
  648MOL0     C87379   1.758   3.518   1.139  0.0403  0.1634  0.9522
  648MOL0     C87380   1.696   3.425   1.222 -0.5520 -1.0547  0.0303
  648MOL0     O87381   1.630   3.312   1.175 -0.2059 -1.0744 -0.0401
  648MOL0     C87382   1.597   3.200   1.258  0.4983  0.5768  0.4608
  648MOL0     C87383   1.538   3.093   1.162 -0.0963 -0.4178  0.0677
  648MOL0     C87384   1.643   3.043   1.068 -0.9702  0.6528 -0.3208
  648MOL0     C87385   1.768   2.960   1.124 -0.3983  0.7683 -0.1669
  648MOL0     C87386   1.833   2.874   1.011 -0.5456 -0.2901 -1.0166
  648MOL0     C87387   1.765   2.740   0.993 -0.4302  0.5550 -0.1265
  648MOL0     C87388   1.874   2.623   0.975  0.7218  0.2559  0.1883
  648MOL0     C87389   1.911   2.582   1.114 -0.2779  1.3906  0.6510
  648MOL0    Cl87390   1.783   2.489   1.184  0.2319  0.1875  0.4337
  648MOL0     C87391   1.695   3.461   1.361  0.1493  0.2770 -0.4760
  648MOL0     C87392   1.748   3.584   1.417  0.7059  0.5618  0.5801
  648MOL0     O87393   1.690   3.842   1.497 -0.6998  0.0240  0.5706
  648MOL0     C87394   2.002   4.020   1.417 -0.8722 -0.0497 -0.5489
  648MOL0     C87395   2.081   4.137   1.435 -0.0433  0.3882  0.0148
  648MOL0     N87396   2.705   4.552   1.412  0.5489  0.2142 -1.1772
  648MOL0     N87397   2.827   4.606   1.421  1.5711  0.9678  0.2649
  648MOL0     C87398   3.104   5.529   2.076 -0.8633  0.8172 -0.1604
  648MOL0     C87399   3.073   5.607   2.184  0.9381 -0.0189 -0.7806
  648MOL0     C87400   2.935   5.946   2.438  0.4641  0.2111  0.2886
  648MOL0     C87401   2.992   5.910   2.569  0.3005 -0.1034 -0.1720
  648MOL0     C87402   2.930   5.961   2.688  0.0938  0.6315 -0.4848
  648MOL0     C87403   2.825   6.052   2.687 -0.3760  0.3182  0.4045
  648MOL0     O87404   2.783   6.100   2.804  0.4305 -0.0345  0.0311
  648MOL0     C87405   2.644   6.062   2.825 -0.1069 -0.7816 -0.7727
  648MOL0     C87406   2.617   6.101   2.972  0.5972  1.5128  0.3177
  648MOL0     C87407   2.629   6.252   2.998 -0.8890 -0.2111 -0.3035
  648MOL0     C87408   2.569   6.344   2.893 -0.2213  0.2811 -0.4060
  648MOL0     C87409   2.539   6.491   2.922  0.2802 -0.2791  0.8210
  648MOL0     C87410   2.495   6.600   2.936 -0.1785  0.0103 -0.5624
  648MOL0     C87411   2.778   6.086   2.567  0.1195  0.0658  0.6425
  648MOL0     C87412   2.830   6.034   2.443  0.2544  0.5203 -0.6861
  648MOL0     H87413   3.246   5.887   2.124 -1.9432  0.7888  1.2470
  648MOL0     H87414   3.344   5.727   1.944 -0.3224 -2.4820 -0.4846
  648MOL0     H87415   3.112   5.358   1.853  2.1500 -0.5418  1.3412
  648MOL0     H87416   3.119   5.476   1.725  0.2841  0.6638  0.2653
  648MOL0     H87417   3.312   5.386   1.621  1.0383 -3.7966 -0.9504
  648MOL0     H87418   3.376   5.335   1.771 -0.7235 -1.9226  0.0083
  648MOL0     H87419   3.313   5.125   1.666 -1.1295 -0.3889  0.0282
  648MOL0     H87420   3.166   5.172   1.755 -0.4101  2.1168  1.5156
  648MOL0     H87421   3.069   5.269   1.558 -2.4398 -2.7468 -1.9694
  648MOL0     H87422   3.221   5.224   1.458  1.4455  0.8706  1.3845
  648MOL0     H87423   3.086   5.056   1.407 -2.5509 -0.4797 -0.1478
  648MOL0     H87424   3.183   4.990   1.539  1.8840  1.7097 -0.2258
  648MOL0     H87425   2.997   5.010   1.698  0.5551  2.2865 -0.4488
  648MOL0     H87426   2.891   5.065   1.566  0.3135  0.9005 -0.7165
  648MOL0     H87427   3.021   4.788   1.592  0.2723  0.4838  1.4267
  648MOL0     H87428   2.851   4.824   1.615 -2.0134  2.0336 -1.3275
  648MOL0     H87429   3.005   4.805   1.365 -0.5312 -2.7164  1.1139
  648MOL0     H87430   2.879   4.934   1.362  1.1438 -0.1158  0.0126
  648MOL0     H87431   2.629   4.876   1.362  0.7801  1.0451 -0.4360
  648MOL0     H87432   2.455   4.691   1.519 -4.2952 -0.6700  0.0016
  648MOL0     H87433   2.409   4.720   1.351  2.9400 -0.9927 -2.0367
  648MOL0     H87434   2.485   4.450   1.467 -1.0069  1.1528  2.7681
  648MOL0     H87435   2.418   4.485   1.304 -0.9388  0.4901 -0.4572
  648MOL0     H87436   2.215   4.594   1.417  1.1396  0.9290  2.0752
  648MOL0     H87437   2.277   4.554   1.574  2.4482  0.5123 -1.0250
  648MOL0     H87438   2.298   4.316   1.485  1.8291  1.8933 -0.4052
  648MOL0     H87439   2.191   4.367   1.349  0.0972 -0.2879 -0.0600
  648MOL0     H87440   1.879   4.305   1.650  0.3067 -1.4806  0.3669
  648MOL0     H87441   1.660   4.196   1.689  0.6068  1.3209 -1.5134
  648MOL0     H87442   1.612   4.071   1.575 -1.8330  1.0888  1.2884
  648MOL0     H87443   1.690   4.028   1.720 -0.9727  0.6572  0.8400
  648MOL0     H87444   1.859   3.712   1.122  0.4527 -1.6961 -3.0872
  648MOL0     H87445   1.758   3.503   1.032  0.3245  0.3026  0.9312
  648MOL0     H87446   1.679   3.165   1.322  1.1703 -1.7306 -1.5027
  648MOL0     H87447   1.508   3.239   1.308 -1.3578  2.8321 -4.0298
  648MOL0     H87448   1.519   3.010   1.231 -1.4289 -0.0400  0.1861
  648MOL0     H87449   1.447   3.129   1.113 -0.6465  1.5942  2.3786
  648MOL0     H87450   1.687   3.128   1.014  0.5671  0.9283  1.2690
  648MOL0     H87451   1.586   2.980   0.999 -3.0681  2.0966  0.0258
  648MOL0     H87452   1.836   3.031   1.171  1.2119 -2.9882  3.9508
  648MOL0     H87453   1.741   2.886   1.201  1.3615  0.2530  0.0010
  648MOL0     H87454   1.932   2.853   1.053  0.5703 -0.6310 -3.6537
  648MOL0     H87455   1.854   2.939   0.926  3.0969  0.3124  0.1465
  648MOL0     H87456   1.702   2.705   1.075  0.0088  0.0478 -0.0005
  648MOL0     H87457   1.696   2.751   0.908 -2.6224  0.6047  1.5782
  648MOL0     H87458   1.957   2.664   0.916  0.4816  2.2051  1.1135
  648MOL0     H87459   1.828   2.540   0.922  1.2837  1.7742 -2.9516
  648MOL0     H87460   1.951   2.663   1.176 -1.2019  0.9976  1.7936
  648MOL0     H87461   1.995   2.513   1.103 -1.1096 -0.3695  3.9475
  648MOL0     H87462   1.647   3.386   1.424 -3.1029 -0.5451 -3.5541
  648MOL0     H87463   1.739   3.619   1.519  0.1590 -0.7625  1.0029
  648MOL0     H87464   2.034   3.930   1.365 -1.3370 -2.9933  3.7392
  648MOL0     H87465   2.180   4.153   1.393  1.3374 -1.3385  2.3796
  648MOL0     H87466   3.073   5.425   2.071  1.7389 -0.2762  2.5698
  648MOL0     H87467   3.015   5.573   2.269  1.6430  4.4420  1.8327
  648MOL0     H87468   3.081   5.848   2.579  1.4301  1.4983 -0.0415
  648MOL0     H87469   2.983   5.933   2.778  1.2333  0.6714 -1.1210
  648MOL0     H87470   2.572   6.109   2.757 -0.8124  1.2836  1.2782
  648MOL0     H87471   2.629   5.954   2.812  1.2319 -1.2319  1.0064
  648MOL0     H87472   2.686   6.042   3.033 -1.7496 -1.1696  0.5796
  648MOL0     H87473   2.518   6.063   2.999  0.8287 -1.6662 -2.6469
  648MOL0     H87474   2.736   6.275   3.002 -0.5364 -1.6478 -0.8518
  648MOL0     H87475   2.587   6.261   3.099  1.2167 -0.4084  0.6606
  648MOL0     H87476   2.472   6.303   2.863  0.9737 -1.7415 -1.7269
  648MOL0     H87477   2.633   6.358   2.806  0.5500  1.2965  0.2949
  648MOL0     H87478   2.471   6.704   2.944  1.8414  0.4811  0.0177
  648MOL0     H87479   2.713   6.172   2.560  0.7917  0.4903 -0.6864
  648MOL0     H87480   2.777   6.095   2.371 -2.0659  1.1705  1.4321
  649MOL0     O87481   7.999  10.057  11.232 -0.3772  0.2022  0.5046
  649MOL0     C87482   8.005   9.967  11.311 -0.2968 -0.7215  0.2943
  649MOL0     O87483   8.070   9.979  11.432 -0.2902  0.0107 -0.0751
  649MOL0     C87484   8.133  10.093  11.467  0.5530 -0.6276 -0.6432
  649MOL0     C87485   8.108  10.161  11.592 -0.1259  0.1523  1.2968
  649MOL0     C87486   8.180  10.274  11.640 -0.3256  0.5472 -0.1573
  649MOL0     C87487   8.274  10.331  11.552  0.2220 -0.4800  0.1447
  649MOL0     O87488   8.362  10.432  11.582 -0.2433 -0.1523 -0.4974
  649MOL0     C87489   8.369  10.471  11.723 -0.4970  0.2574  0.3055
  649MOL0     C87490   8.483  10.567  11.735 -1.0072 -0.0871 -0.0703
  649MOL0     C87491   8.529  10.605  11.877 -0.4771  0.1757 -1.3904
  649MOL0     C87492   8.683  10.612  11.880  0.7047  0.1341  0.1707
  649MOL0     C87493   8.739  10.729  11.792  1.1595  0.3667  0.4508
  649MOL0     C87494   8.890  10.746  11.805 -0.4940 -0.6092 -0.7938
  649MOL0     C87495   8.977  10.648  11.737 -0.7537  0.0094  0.2532
  649MOL0     C87496   9.129  10.679  11.771  0.1026  1.0638  0.1363
  649MOL0     N87497   9.206  10.581  11.702  0.2000  0.8320 -0.2088
  649MOL0     C87498   9.334  10.545  11.733 -0.0322  0.6118 -0.1725
  649MOL0     C87499   9.374  10.453  11.636 -0.1035  0.1620  0.4387
  649MOL0     C87500   9.511  10.377  11.630  0.1184 -0.4427 -0.2421
  649MOL0     C87501   9.505  10.224  11.641  1.2675 -0.8800 -0.2226
  649MOL0     C87502   9.469  10.186  11.784 -0.7726 -0.2941  0.1881
  649MOL0     C87503   9.321  10.168  11.815 -0.5435  0.4729  0.4585
  649MOL0     O87504   9.319  10.126  11.952 -0.3072  0.0899 -0.2586
  649MOL0     C87505   9.196  10.067  11.989 -0.3380 -1.1007  0.2357
  649MOL0     C87506   9.085  10.040  11.915 -0.0541 -0.4798 -0.7721
  649MOL0     C87507   8.964   9.985  11.976 -0.4499  0.6859 -0.0798
  649MOL0     C87508   8.858   9.936  11.874  0.1780 -0.4982  1.2531
  649MOL0     C87509   8.963   9.966  12.119  0.1657 -0.2981  0.7566
  649MOL0     C87510   8.843   9.928  12.186  0.1388  1.1200 -0.5747
  649MOL0     O87511   8.848   9.881  12.311 -0.7488  0.1784  0.5186
  649MOL0     C87512   8.733   9.825  12.369  0.0429 -1.0582 -0.0218
  649MOL0     C87513   8.722   9.690  12.401  0.6043  0.3214  0.5183
  649MOL0     C87514   8.614   9.643  12.462 -0.0137  0.9385 -0.1377
  649MOL0     C87515   8.497   9.724  12.495  0.6609 -0.4863 -0.5163
  649MOL0     O87516   8.382   9.680  12.554  0.1475  0.0943 -0.9667
  649MOL0     C87517   8.354   9.539  12.557 -0.6950  0.6712  0.5672
  649MOL0     C87518   8.240   9.516  12.652 -0.4156  0.7297 -0.0034
  649MOL0     C87519   8.228   9.370  12.700  0.7271  0.4044 -0.3831
  649MOL0     C87520   8.146   9.368  12.829  1.2449  0.6541  0.6650
  649MOL0     C87521   8.158   9.232  12.903 -0.9536 -0.2629  0.3197
  649MOL0     C87522   8.058   9.254  13.013  0.0276 -0.5097 -0.2576
  649MOL0     C87523   8.031   9.131  13.099  0.2419  0.5787 -0.3483
  649MOL0     C87524   8.156   9.079  13.175  0.7241 -0.1537  0.7133
  649MOL0    Cl87525   8.120   8.983  13.326 -0.0002 -0.1949  0.1864
  649MOL0     C87526   8.506   9.856  12.462 -0.7964 -0.1253 -0.7257
  649MOL0     C87527   8.613   9.903  12.388  0.2139 -0.0334 -0.3272
  649MOL0     O87528   8.738   9.942  12.124 -0.4279 -0.0644  0.5233
  649MOL0     C87529   9.088   9.976  12.191  0.4532  0.0775 -0.6281
  649MOL0     C87530   9.204  10.027  12.126 -0.1720 -0.9592  0.5929
  649MOL0     N87531   9.269  10.458  11.547  0.7108 -0.2087  0.5752
  649MOL0     N87532   9.178  10.532  11.581 -0.4660 -0.7277  0.0639
  649MOL0     C87533   8.300  10.272  11.428 -0.7513  0.2689 -0.4009
  649MOL0     C87534   8.228  10.153  11.383  0.1925 -0.5502  0.4232
  649MOL0     C87535   7.937   9.849  11.274  0.4358 -0.1967  0.1904
  649MOL0     C87536   7.922   9.809  11.140  0.4428  0.1979  0.2647
  649MOL0     C87537   7.835   9.696  11.112  0.2880  0.0906  0.4889
  649MOL0     C87538   7.788   9.609  11.212  0.1625 -0.1957  0.6625
  649MOL0     O87539   7.713   9.492  11.199 -1.0693 -0.3669 -0.3467
  649MOL0     C87540   7.703   9.438  11.064 -0.1851 -0.5083  0.3368
  649MOL0     C87541   7.606   9.315  11.061 -0.9892  1.1693 -0.5017
  649MOL0     C87542   7.641   9.228  10.929 -0.3701  0.0925 -0.3687
  649MOL0     C87543   7.578   9.095  10.955 -0.0788  0.2174  0.1153
  649MOL0     C87544   7.430   9.098  10.931 -0.6087 -1.3305  0.2785
  649MOL0     C87545   7.306   9.097  10.920  0.0797 -0.3414  0.7685
  649MOL0     C87546   7.799   9.649  11.342  0.0117  0.0070 -0.0061
  649MOL0     C87547   7.865   9.775  11.368 -0.4989  0.2898 -0.2251
  649MOL0     H87548   8.035  10.126  11.664 -0.9440  1.7548  1.2670
  649MOL0     H87549   8.164  10.307  11.742 -1.6129 -0.9930  0.1740
  649MOL0     H87550   8.278  10.523  11.753 -0.3712  0.4437  0.3690
  649MOL0     H87551   8.389  10.385  11.788  2.4293 -1.1246 -2.1488
  649MOL0     H87552   8.562  10.524  11.673 -1.3066  0.0739 -0.5705
  649MOL0     H87553   8.456  10.663  11.690 -0.8341 -0.7350 -1.6078
  649MOL0     H87554   8.490  10.702  11.910 -1.1658 -1.3001  2.7612
  649MOL0     H87555   8.489  10.533  11.949  0.3282  1.1213  0.0476
  649MOL0     H87556   8.722  10.628  11.981 -0.2726  3.4751  0.1370
  649MOL0     H87557   8.723  10.521  11.834  1.0292  0.2400  0.2413
  649MOL0     H87558   8.715  10.718  11.686 -1.6006  0.2347  1.0135
  649MOL0     H87559   8.691  10.819  11.832  0.3151  0.9389 -1.7093
  649MOL0     H87560   8.907  10.847  11.766 -0.0507  0.3682  1.7520
  649MOL0     H87561   8.911  10.744  11.912 -3.6187 -2.2837 -0.1251
  649MOL0     H87562   8.974  10.544  11.769  2.9848 -0.1704  0.4936
  649MOL0     H87563   8.954  10.657  11.631 -1.7601 -0.3903  0.4283
  649MOL0     H87564   9.134  10.671  11.880  1.3677  0.5129  0.0568
  649MOL0     H87565   9.169  10.773  11.731 -1.0113  0.5377 -2.4580
  649MOL0     H87566   9.388  10.577  11.821 -2.6795  0.4588  1.6415
  649MOL0     H87567   9.545  10.406  11.530 -0.4585  0.4026 -0.2007
  649MOL0     H87568   9.570  10.426  11.707  1.6884  1.7234 -2.6284
  649MOL0     H87569   9.602  10.190  11.605  1.8966 -0.3997  0.9931
  649MOL0     H87570   9.433  10.176  11.573  0.5277 -2.2327  1.4395
  649MOL0     H87571   9.512  10.253  11.860  2.2424  2.0077 -3.2082
  649MOL0     H87572   9.511  10.086  11.791 -1.0433 -0.4537 -0.3773
  649MOL0     H87573   9.282  10.093  11.745  0.0749  2.2861 -1.9381
  649MOL0     H87574   9.279  10.266  11.792  3.4503  2.1265 -0.6767
  649MOL0     H87575   9.074  10.052  11.807 -0.0626  2.1964 -0.5349
  649MOL0     H87576   8.884   9.969  11.773  0.3196 -0.5935  1.2573
  649MOL0     H87577   8.864   9.827  11.866  0.1003 -0.3506 -2.2257
  649MOL0     H87578   8.763   9.989  11.878  1.1508  1.4447  0.4032
  649MOL0     H87579   8.795   9.614  12.376  0.0128  0.8687 -3.5721
  649MOL0     H87580   8.613   9.540  12.495 -2.5360  1.4150  1.5483
  649MOL0     H87581   8.329   9.501  12.458  1.5113  1.6137 -0.4249
  649MOL0     H87582   8.438   9.479  12.596 -0.2014  2.1338  1.8852
  649MOL0     H87583   8.261   9.569  12.745  0.9594 -1.8498  1.2766
  649MOL0     H87584   8.150   9.555  12.603  0.7200  1.4690 -1.6132
  649MOL0     H87585   8.325   9.327  12.724 -0.3448 -1.5508  0.7323
  649MOL0     H87586   8.194   9.297  12.626  0.8919  0.3789 -0.4344
  649MOL0     H87587   8.182   9.450  12.892 -4.2630  3.4553  0.8055
  649MOL0     H87588   8.044   9.403  12.810  1.4127  0.5326 -0.5093
  649MOL0     H87589   8.262   9.211  12.930 -0.4835 -0.2877 -1.4194
  649MOL0     H87590   8.128   9.158  12.828  0.3700 -0.1421 -0.3669
  649MOL0     H87591   8.096   9.333  13.079  0.6813 -2.3409  1.6617
  649MOL0     H87592   7.962   9.292  12.976  0.5771  0.5366 -0.6627
  649MOL0     H87593   7.991   9.050  13.037 -0.4272 -1.0434  2.0527
  649MOL0     H87594   7.946   9.158  13.163 -0.5610 -2.4264 -0.0081
  649MOL0     H87595   8.233   9.152  13.202  0.4161  0.7298 -0.7003
  649MOL0     H87596   8.207   9.011  13.105 -0.7223 -0.7096  0.1534
  649MOL0     H87597   8.409   9.904  12.472 -1.4006 -1.7428  3.2777
  649MOL0     H87598   8.617  10.006  12.353  0.0758  0.6836  1.6111
  649MOL0     H87599   9.095   9.944  12.294 -0.5868 -1.2476 -0.9507
  649MOL0     H87600   9.300  10.042  12.174 -0.0302  3.2525 -0.6168
  649MOL0     H87601   8.385  10.307  11.371 -0.3069  0.3521  0.3070
  649MOL0     H87602   8.258  10.093  11.297  1.1842  0.6890 -0.1283
  649MOL0     H87603   7.983   9.860  11.067  3.0896 -1.1622  1.3679
  649MOL0     H87604   7.824   9.676  11.006  3.0215 -2.8796  0.5858
  649MOL0     H87605   7.686   9.509  10.982  1.2542 -0.9124 -0.3585
  649MOL0     H87606   7.802   9.406  11.030  0.9543  3.1765 -0.2282
  649MOL0     H87607   7.511   9.369  11.057 -0.0882  2.8058 -0.6350
  649MOL0     H87608   7.619   9.269  11.159  1.8542  0.8746 -0.9252
  649MOL0     H87609   7.750   9.218  10.920 -0.0860  0.6809  1.7412
  649MOL0     H87610   7.602   9.273  10.837 -2.3441  0.0572  0.4109
  649MOL0     H87611   7.596   9.059  11.057  1.1669 -2.1807 -0.8687
  649MOL0     H87612   7.626   9.020  10.891 -2.9272 -1.6506 -0.0011
  649MOL0     H87613   7.201   9.103  10.904  0.1675 -0.4135  0.1335
  649MOL0     H87614   7.759   9.587  11.422  0.4634 -0.1774  0.0800
  649MOL0     H87615   7.861   9.818  11.467 -2.9794  1.6220 -0.8128
  650MOL0     O87616   3.787   2.349   1.445 -0.4631 -0.2381  0.1724
  650MOL0     C87617   3.676   2.391   1.437  0.3841  0.1942 -0.9000
  650MOL0     O87618   3.613   2.443   1.330 -0.1110 -0.0063  0.0645
  650MOL0     C87619   3.676   2.411   1.212  0.1734  1.2761 -0.1384
  650MOL0     C87620   3.702   2.519   1.120 -0.8226 -0.1838  0.2884
  650MOL0     C87621   3.769   2.492   1.007 -0.1510  0.8759  0.3748
  650MOL0     C87622   3.810   2.359   0.979  0.5359 -0.2423  0.5582
  650MOL0     O87623   3.865   2.338   0.859 -0.9847 -0.2864  0.4387
  650MOL0     C87624   3.778   2.267   0.761  0.3322 -0.1215 -0.8387
  650MOL0     C87625   3.831   2.249   0.616 -0.1356  0.0149  0.7538
  650MOL0     C87626   3.708   2.217   0.521  0.2717 -0.0623  0.1225
  650MOL0     C87627   3.619   2.336   0.472 -0.1727  0.9324 -0.4505
  650MOL0     C87628   3.509   2.304   0.374 -0.7151  0.1008 -0.3523
  650MOL0     C87629   3.429   2.434   0.334 -0.1413  1.3724  0.1484
  650MOL0     C87630   3.369   2.406   0.189  0.5893  1.5112  0.3079
  650MOL0     C87631   3.229   2.343   0.198  0.6945 -0.3451  0.6414
  650MOL0     N87632   3.174   2.355   0.070 -0.4907  0.3583  1.7404
  650MOL0     C87633   3.050   2.398   0.030  1.0079 -0.0307 -0.3989
  650MOL0     C87634   3.014   2.324  -0.078 -0.3208 -0.1402  0.6839
  650MOL0     C87635   2.892   2.324  -0.165  0.5285  0.6839  0.0418
  650MOL0     C87636   2.859   2.195  -0.235 -0.4808  0.2398 -1.2108
  650MOL0     C87637   2.741   2.193  -0.313  0.6034 -0.7186  0.4574
  650MOL0     C87638   2.747   2.065  -0.400  0.7601 -0.5007 -0.2659
  650MOL0     O87639   2.628   2.053  -0.472  0.3913  0.2111  0.5247
  650MOL0     C87640   2.636   1.969  -0.579 -0.6671 -0.3221  0.0906
  650MOL0     C87641   2.716   1.852  -0.581  0.0300 -0.4824 -0.2760
  650MOL0     C87642   2.683   1.747  -0.672 -0.5165 -0.3873  0.4207
  650MOL0     C87643   2.752   1.613  -0.652 -0.7777  0.4116 -0.1012
  650MOL0     C87644   2.592   1.773  -0.776  0.0992  0.0745  0.1558
  650MOL0     C87645   2.562   1.675  -0.886 -0.7015 -0.2196  0.6427
  650MOL0     O87646   2.450   1.695  -0.961  0.3092 -0.1118 -0.1217
  650MOL0     C87647   2.411   1.605  -1.062  0.0491  0.3124  0.4567
  650MOL0     C87648   2.272   1.618  -1.091 -0.4502 -0.3804 -0.2282
  650MOL0     C87649   2.212   1.549  -1.197 -0.4349  0.9497 -0.3435
  650MOL0     C87650   2.291   1.446  -1.262  0.6267  0.6459  0.8870
  650MOL0     O87651   2.216   1.368  -1.346 -0.3653  0.3394 -0.7220
  650MOL0     C87652   2.252   1.231  -1.379 -0.8641 -0.2673  0.4708
  650MOL0     C87653   2.154   1.161  -1.464  1.2482  0.4174  0.1946
  650MOL0     C87654   2.208   1.050  -1.546  0.6663  0.6764  0.2499
  650MOL0     C87655   2.110   0.977  -1.640  0.5339  1.0274  0.9294
  650MOL0     C87656   2.183   0.861  -1.701  0.0776  0.6730  0.5019
  650MOL0     C87657   2.085   0.752  -1.753 -0.1398  0.2086 -0.3994
  650MOL0     C87658   2.139   0.624  -1.793 -0.3220  1.3024  0.3897
  650MOL0     C87659   2.205   0.629  -1.931  0.0877  1.1022  0.9218
  650MOL0    Cl87660   2.077   0.644  -2.063  0.0689  0.1270  0.0830
  650MOL0     C87661   2.420   1.445  -1.237  0.0531 -0.2100  0.6846
  650MOL0     C87662   2.482   1.518  -1.147  0.3204 -0.1804 -0.1561
  650MOL0     O87663   2.645   1.595  -0.911 -0.2857  0.4663  0.4417
  650MOL0     C87664   2.509   1.878  -0.762 -0.9724  0.2519  0.1719
  650MOL0     C87665   2.534   1.983  -0.673 -0.7838 -0.4490  0.0927
  650MOL0     N87666   3.111   2.236  -0.110 -0.4768  0.0230  0.3184
  650MOL0     N87667   3.209   2.252  -0.017 -0.9671 -0.3117 -0.4612
  650MOL0     C87668   3.786   2.251   1.066  0.4358  1.0087 -0.0850
  650MOL0     C87669   3.718   2.275   1.177  0.4310  0.0314 -0.5547
  650MOL0     C87670   3.592   2.403   1.556 -0.4591  0.0208 -1.0852
  650MOL0     C87671   3.454   2.433   1.543  0.0669 -1.1785 -0.0708
  650MOL0     C87672   3.374   2.421   1.657 -0.7712  0.3648 -0.6819
  650MOL0     C87673   3.428   2.393   1.776  0.3359  0.7340  0.1085
  650MOL0     O87674   3.348   2.393   1.879  0.2676 -0.0011  0.1436
  650MOL0     C87675   3.399   2.338   2.010  0.1581 -0.4927  0.6144
  650MOL0     C87676   3.296   2.332   2.116 -0.2513  0.6331  0.3885
  650MOL0     C87677   3.334   2.249   2.233  0.7500  0.2521 -0.1452
  650MOL0     C87678   3.439   2.314   2.331 -1.4954  0.9018  0.8266
  650MOL0     C87679   3.488   2.222   2.433  0.1528  0.7173  0.0774
  650MOL0     C87680   3.540   2.171   2.530 -0.0536  1.1139  0.4886
  650MOL0     C87681   3.564   2.360   1.785 -0.3535 -0.6105 -0.4934
  650MOL0     C87682   3.642   2.379   1.685  0.5422 -0.1154  0.5797
  650MOL0     H87683   3.664   2.617   1.147  0.4438  0.5994 -0.6567
  650MOL0     H87684   3.807   2.581   0.959  0.6455  2.6099  3.9069
  650MOL0     H87685   3.736   2.172   0.796 -2.5653  1.7474  1.1607
  650MOL0     H87686   3.688   2.330   0.756  0.5586  0.4253  1.2414
  650MOL0     H87687   3.881   2.335   0.570 -0.4983 -0.7463 -1.1323
  650MOL0     H87688   3.896   2.161   0.615 -0.3579 -0.1538  1.2113
  650MOL0     H87689   3.734   2.141   0.447 -1.1484  0.8792 -1.4021
  650MOL0     H87690   3.630   2.172   0.583  0.9986  1.5511  2.3207
  650MOL0     H87691   3.570   2.383   0.558  1.3780  1.3368  0.2397
  650MOL0     H87692   3.683   2.414   0.430 -1.1887  1.8802 -0.2814
  650MOL0     H87693   3.550   2.248   0.290  1.2667  0.6468  0.1951
  650MOL0     H87694   3.437   2.239   0.425 -0.2835  0.2626  0.4868
  650MOL0     H87695   3.351   2.464   0.404  1.6059  3.6547  1.2165
  650MOL0     H87696   3.498   2.517   0.318  1.4852 -0.1285 -1.1275
  650MOL0     H87697   3.372   2.497   0.129 -0.5373  0.8727 -0.7729
  650MOL0     H87698   3.417   2.329   0.127 -1.2689  0.1098  0.5200
  650MOL0     H87699   3.168   2.405   0.265 -0.8473  0.2949 -1.2350
  650MOL0     H87700   3.230   2.239   0.230 -0.2667 -0.8742 -0.9239
  650MOL0     H87701   2.975   2.459   0.080  0.4499 -0.4390 -0.7245
  650MOL0     H87702   2.802   2.359  -0.114  0.2678 -0.0254  0.0778
  650MOL0     H87703   2.908   2.393  -0.248 -1.3455 -0.3513 -1.2585
  650MOL0     H87704   2.843   2.114  -0.163  4.0096  0.3751  0.2888
  650MOL0     H87705   2.949   2.172  -0.293  0.2174 -3.4844  0.9898
  650MOL0     H87706   2.744   2.283  -0.376  3.0196 -3.3939 -3.7479
  650MOL0     H87707   2.661   2.180  -0.240  1.3786  1.8412  1.8999
  650MOL0     H87708   2.756   1.970  -0.345  0.3654 -0.6709 -0.4872
  650MOL0     H87709   2.835   2.084  -0.461  1.4822 -0.2431  0.8216
  650MOL0     H87710   2.802   1.855  -0.514  0.7452  3.7114 -1.1166
  650MOL0     H87711   2.850   1.608  -0.701  0.2222 -0.5589  1.8906
  650MOL0     H87712   2.774   1.590  -0.548 -1.8207  1.6143  0.4116
  650MOL0     H87713   2.692   1.530  -0.689 -0.4717  1.0433 -2.1552
  650MOL0     H87714   2.216   1.688  -1.029 -2.0517  0.3480 -2.3805
  650MOL0     H87715   2.108   1.555  -1.225 -1.1218  0.5142  1.9489
  650MOL0     H87716   2.348   1.227  -1.431  0.0386 -2.8556  2.1261
  650MOL0     H87717   2.268   1.171  -1.289 -1.8069 -1.1793  0.0474
  650MOL0     H87718   2.066   1.123  -1.410  0.6496 -0.2906 -1.2115
  650MOL0     H87719   2.107   1.229  -1.536  0.3625 -0.9008 -0.5263
  650MOL0     H87720   2.248   0.977  -1.476 -0.8444 -1.4243 -0.9663
  650MOL0     H87721   2.296   1.077  -1.605 -0.2139 -2.3745 -2.7745
  650MOL0     H87722   2.022   0.940  -1.588  1.3557 -0.3385  1.4008
  650MOL0     H87723   2.077   1.034  -1.728 -2.4541 -3.8185 -1.4829
  650MOL0     H87724   2.228   0.809  -1.616 -0.4678  1.7250  1.4646
  650MOL0     H87725   2.260   0.895  -1.771  1.9092  2.1438  3.0117
  650MOL0     H87726   2.013   0.718  -1.679 -0.1177 -1.6542 -1.1766
  650MOL0     H87727   2.026   0.794  -1.835 -1.7931  0.7864  1.0242
  650MOL0     H87728   2.067   0.542  -1.794  0.9461  0.1656 -0.9654
  650MOL0     H87729   2.217   0.597  -1.721  0.0882 -1.1245 -0.8501
  650MOL0     H87730   2.271   0.545  -1.956  1.1476  2.9294 -3.2778
  650MOL0     H87731   2.269   0.717  -1.931 -2.1369  2.7939  1.1516
  650MOL0     H87732   2.471   1.356  -1.271 -1.1517 -0.9169  0.6451
  650MOL0     H87733   2.589   1.506  -1.136  0.1441 -2.4566 -0.3111
  650MOL0     H87734   2.433   1.897  -0.837 -0.9150  0.2469  0.1119
  650MOL0     H87735   2.477   2.075  -0.677 -0.5052 -0.3318 -2.2314
  650MOL0     H87736   3.811   2.148   1.041 -0.5450  0.3550  1.4482
  650MOL0     H87737   3.689   2.200   1.249 -1.6362  0.3429 -0.9916
  650MOL0     H87738   3.408   2.447   1.445  1.7468  1.2331 -0.6247
  650MOL0     H87739   3.269   2.422   1.630 -0.6966 -0.5065 -1.0223
  650MOL0     H87740   3.431   2.236   1.987 -1.9582 -1.2326  0.7085
  650MOL0     H87741   3.475   2.410   2.040  0.9351 -1.3208  0.6862
  650MOL0     H87742   3.206   2.292   2.067  1.6868 -4.3254  0.2704
  650MOL0     H87743   3.273   2.431   2.157  1.4022  2.0366 -1.8539
  650MOL0     H87744   3.371   2.152   2.198 -0.8584 -0.6437  0.5663
  650MOL0     H87745   3.236   2.237   2.280  1.0708 -1.1852  0.2068
  650MOL0     H87746   3.405   2.409   2.374  1.3920  1.5039  2.0347
  650MOL0     H87747   3.527   2.341   2.270 -0.9712  0.0779  1.2008
  650MOL0     H87748   3.592   2.130   2.614 -1.9930 -1.8584  0.3938
  650MOL0     H87749   3.602   2.345   1.886 -0.8395  0.2404 -0.1755
  650MOL0     H87750   3.746   2.355   1.703  0.8188  1.8908  2.1344
  651MOL0     O87751   0.938  10.837   6.464  0.3933 -0.0631  0.3761
  651MOL0     C87752   0.972  10.785   6.565 -1.0866 -0.6901  0.3562
  651MOL0     O87753   0.893  10.731   6.662  0.4606  0.3342  0.1550
  651MOL0     C87754   0.768  10.713   6.615  0.3758 -0.2022 -0.5169
  651MOL0     C87755   0.738  10.578   6.574 -0.3929 -0.0359  0.1593
  651MOL0     C87756   0.606  10.555   6.527 -0.4047  0.0307 -1.0980
  651MOL0     C87757   0.506  10.649   6.524  0.2177  0.4320  1.1103
  651MOL0     O87758   0.385  10.626   6.464  0.2270  0.4963  0.0149
  651MOL0     C87759   0.348  10.713   6.362  0.0121 -0.2823 -0.2613
  651MOL0     C87760   0.214  10.678   6.302  0.1464  0.8483  0.1275
  651MOL0     C87761   0.232  10.562   6.195 -0.2200  0.8883 -0.5744
  651MOL0     C87762   0.144  10.566   6.068 -0.9021  0.2090  0.2527
  651MOL0     C87763   0.156  10.431   5.993 -0.1855 -0.0808  0.2445
  651MOL0     C87764   0.083  10.429   5.855  0.9891  0.0842  0.1083
  651MOL0     C87765  -0.072  10.426   5.878 -0.5719 -0.5090  0.8719
  651MOL0     C87766  -0.138  10.427   5.735  0.4461  1.0917  0.7110
  651MOL0     N87767  -0.284  10.404   5.737  0.6923 -0.8487  0.6174
  651MOL0     C87768  -0.340  10.281   5.734 -0.2000 -0.7876  0.5496
  651MOL0     C87769  -0.469  10.309   5.710  0.6639 -0.8209 -0.0674
  651MOL0     C87770  -0.585  10.211   5.716  0.2601  0.5240 -0.5053
  651MOL0     C87771  -0.610  10.170   5.859 -0.3103  0.6870  0.1299
  651MOL0     C87772  -0.675  10.277   5.939  0.3055 -0.0709 -0.5474
  651MOL0     C87773  -0.817  10.296   5.913  0.3672  0.2156 -0.7594
  651MOL0     O87774  -0.904  10.216   6.004  0.7795  0.2088  0.3489
  651MOL0     C87775  -1.035  10.222   5.970  0.0728  0.4680  0.4579
  651MOL0     C87776  -1.101  10.326   5.909  0.0661 -0.6731 -0.3110
  651MOL0     C87777  -1.241  10.328   5.884  0.6097  0.0705 -0.5501
  651MOL0     C87778  -1.299  10.447   5.825 -0.0714  1.3007  0.8378
  651MOL0     C87779  -1.325  10.214   5.922 -0.4682  1.3283 -0.4920
  651MOL0     C87780  -1.472  10.194   5.893  0.7837  0.3600 -0.3981
  651MOL0     O87781  -1.519  10.065   5.889  0.5894  0.0796 -0.2580
  651MOL0     C87782  -1.643  10.030   5.831 -0.6685 -0.5190  0.2356
  651MOL0     C87783  -1.695  10.087   5.717 -0.0084  0.7695 -1.0084
  651MOL0     C87784  -1.821  10.042   5.666 -0.9451 -0.1313  0.4983
  651MOL0     C87785  -1.888   9.927   5.709 -0.2384 -0.1289 -0.8321
  651MOL0     O87786  -1.995   9.873   5.645 -0.1968  0.2485  1.1606
  651MOL0     C87787  -2.093   9.975   5.617  0.5875 -0.0947 -0.1110
  651MOL0     C87788  -2.234   9.915   5.595 -0.5681  0.4262 -0.4336
  651MOL0     C87789  -2.325  10.027   5.555  0.5659 -0.2063 -1.2434
  651MOL0     C87790  -2.459   9.988   5.501 -0.3120 -0.3612  0.3124
  651MOL0     C87791  -2.533  10.105   5.457  1.1385  0.3963 -0.5359
  651MOL0     C87792  -2.478  10.190   5.344  0.7547 -0.1673  0.0285
  651MOL0     C87793  -2.457  10.109   5.212  0.4551 -0.7628  0.1909
  651MOL0     C87794  -2.382  10.210   5.117  0.4074 -0.1520 -0.3967
  651MOL0    Cl87795  -2.421  10.158   4.952  0.4848  0.2176  0.1942
  651MOL0     C87796  -1.820   9.860   5.813 -1.1691  0.1147 -0.8174
  651MOL0     C87797  -1.706   9.910   5.879 -0.5930  0.4532  0.4096
  651MOL0     O87798  -1.541  10.290   5.889  0.5225  0.2670 -0.0709
  651MOL0     C87799  -1.248  10.102   5.976 -0.0196  0.3106  0.0873
  651MOL0     C87800  -1.103  10.108   6.002  0.5833 -0.1545  0.1131
  651MOL0     N87801  -0.494  10.448   5.702 -0.2116 -0.1042  0.3364
  651MOL0     N87802  -0.373  10.502   5.720  0.5426 -0.3617 -0.3998
  651MOL0     C87803   0.542  10.779   6.568  0.4296  0.0428  0.0679
  651MOL0     C87804   0.669  10.814   6.611  0.3508  0.1351 -0.1841
  651MOL0     C87805   1.114  10.770   6.598 -0.3863 -0.0382 -0.3059
  651MOL0     C87806   1.159  10.669   6.681  0.6525 -0.0342  1.5762
  651MOL0     C87807   1.291  10.664   6.719 -0.6714  0.6433  0.1111
  651MOL0     C87808   1.387  10.760   6.676 -0.2016 -0.1409 -0.1288
  651MOL0     O87809   1.524  10.758   6.720  0.1681 -0.3498  0.6303
  651MOL0     C87810   1.610  10.871   6.696 -0.5296  0.1584 -0.0615
  651MOL0     C87811   1.747  10.838   6.755  0.4384  0.4014 -0.0043
  651MOL0     C87812   1.841  10.752   6.661 -0.4598  0.1037 -0.1283
  651MOL0     C87813   1.853  10.604   6.694 -0.1666  0.0721 -0.5002
  651MOL0     C87814   1.962  10.543   6.618  0.2809 -0.6525 -1.3368
  651MOL0     C87815   2.055  10.500   6.547  0.9933  0.7629 -0.3071
  651MOL0     C87816   1.337  10.860   6.587 -0.9448 -0.4882 -0.3245
  651MOL0     C87817   1.206  10.869   6.554  0.0429  0.3975 -0.6415
  651MOL0     H87818   0.815  10.501   6.574 -0.6643 -0.3106 -0.0277
  651MOL0     H87819   0.580  10.454   6.496  1.6080 -0.4282 -1.4073
  651MOL0     H87820   0.333  10.818   6.392 -0.3146  0.0920 -1.6590
  651MOL0     H87821   0.441  10.709   6.305  1.7835  0.5016  2.3697
  651MOL0     H87822   0.134  10.644   6.369 -1.3285  0.9938 -1.4674
  651MOL0     H87823   0.175  10.768   6.252 -1.4377  1.2364  1.9334
  651MOL0     H87824   0.339  10.556   6.177  0.3381  4.3022  0.8996
  651MOL0     H87825   0.213  10.465   6.243 -0.5124  0.6308 -1.1859
  651MOL0     H87826   0.041  10.593   6.093 -0.2497  1.9916  1.2902
  651MOL0     H87827   0.168  10.650   6.002  1.6925 -2.6824 -2.8171
  651MOL0     H87828   0.264  10.420   5.982  0.0369 -0.7608  2.6492
  651MOL0     H87829   0.115  10.342   6.043 -0.1309  0.2063  0.8029
  651MOL0     H87830   0.129  10.510   5.796  2.1660  0.0793  0.9765
  651MOL0     H87831   0.104  10.332   5.809  1.0301 -0.1851  0.6946
  651MOL0     H87832  -0.100  10.335   5.931 -1.1017 -1.3985 -0.8428
  651MOL0     H87833  -0.111  10.504   5.945 -0.7657 -0.7627  1.0547
  651MOL0     H87834  -0.087  10.345   5.683 -1.2928  0.3234  0.1436
  651MOL0     H87835  -0.114  10.514   5.672 -2.1436  0.4134 -1.3808
  651MOL0     H87836  -0.292  10.183   5.739  0.8726 -0.3426 -0.5424
  651MOL0     H87837  -0.677  10.260   5.684 -1.3847 -2.2886 -0.4354
  651MOL0     H87838  -0.571  10.124   5.650  2.2473  2.0242 -2.1852
  651MOL0     H87839  -0.515  10.134   5.900  0.1196  3.4950  1.8509
  651MOL0     H87840  -0.676  10.083   5.857 -0.7058  0.9906 -1.5994
  651MOL0     H87841  -0.617  10.367   5.912 -0.8511  0.9256  0.1977
  651MOL0     H87842  -0.662  10.261   6.046  1.0110  0.1700 -0.5876
  651MOL0     H87843  -0.846  10.277   5.810  0.4993 -1.9660 -0.4289
  651MOL0     H87844  -0.846  10.401   5.923 -2.2136 -0.5760  1.4591
  651MOL0     H87845  -1.058  10.422   5.883 -4.5009  2.2969  1.7406
  651MOL0     H87846  -1.220  10.512   5.788  2.3905 -0.5665  2.4661
  651MOL0     H87847  -1.366  10.429   5.741 -0.6986  0.4731  1.4875
  651MOL0     H87848  -1.355  10.508   5.897 -2.3102  1.3686 -0.8680
  651MOL0     H87849  -1.652  10.178   5.678  3.6200 -0.7154 -0.8541
  651MOL0     H87850  -1.877  10.101   5.594 -1.4319 -0.3947  0.6553
  651MOL0     H87851  -2.092  10.040   5.705  1.8271 -0.2143 -0.0148
  651MOL0     H87852  -2.064  10.036   5.531 -1.1097  0.3675 -0.3851
  651MOL0     H87853  -2.237   9.838   5.517  0.0463 -1.1689  1.0417
  651MOL0     H87854  -2.266   9.868   5.688  2.2780  1.0671  0.9784
  651MOL0     H87855  -2.278  10.096   5.484  1.3929  2.7387  1.8683
  651MOL0     H87856  -2.358  10.086   5.641 -3.6074 -0.5885 -2.3316
  651MOL0     H87857  -2.449   9.919   5.416  0.3905  0.3674 -0.2119
  651MOL0     H87858  -2.516   9.946   5.584  0.2573  1.8058  1.8973
  651MOL0     H87859  -2.559  10.167   5.544 -1.4848 -0.9369 -0.2785
  651MOL0     H87860  -2.629  10.065   5.422  1.0880  0.4902 -0.5056
  651MOL0     H87861  -2.548  10.270   5.320  1.5415  1.2712  2.2444
  651MOL0     H87862  -2.378  10.226   5.369  2.2331 -3.4873 -0.5084
  651MOL0     H87863  -2.549  10.075   5.164  1.7426 -0.5901 -2.5833
  651MOL0     H87864  -2.395  10.019   5.224 -0.7204 -1.7456 -0.7416
  651MOL0     H87865  -2.274  10.204   5.135  0.3203  1.4213  0.9615
  651MOL0     H87866  -2.420  10.310   5.140 -0.5479 -1.2971  3.7752
  651MOL0     H87867  -1.868   9.769   5.849  2.5763 -0.8783  2.3913
  651MOL0     H87868  -1.673   9.861   5.970 -0.1536 -2.1728 -1.0530
  651MOL0     H87869  -1.311  10.021   6.010  0.6400 -0.5364 -0.6468
  651MOL0     H87870  -1.055  10.027   6.056  3.0512 -0.2619 -2.0619
  651MOL0     H87871   0.462  10.853   6.574  2.4328  2.3754 -0.3464
  651MOL0     H87872   0.684  10.914   6.650 -0.8119  0.0708  0.4414
  651MOL0     H87873   1.092  10.600   6.731 -1.1919  1.7410  1.7092
  651MOL0     H87874   1.328  10.582   6.780  1.8779  0.6520 -1.2938
  651MOL0     H87875   1.627  10.911   6.595  2.8362  1.4086  0.8838
  651MOL0     H87876   1.574  10.950   6.763  1.5150  0.3948  0.8332
  651MOL0     H87877   1.743  10.788   6.852 -0.1988 -1.0275 -0.7392
  651MOL0     H87878   1.802  10.931   6.769 -0.1821  1.1717 -2.2530
  651MOL0     H87879   1.938  10.803   6.665 -0.9533  1.0082  1.3333
  651MOL0     H87880   1.800  10.765   6.561 -2.6820  1.4317  0.8734
  651MOL0     H87881   1.756  10.561   6.666 -0.4324 -0.8300  1.6462
  651MOL0     H87882   1.886  10.564   6.790  2.4352  1.2896 -0.7972
  651MOL0     H87883   2.123  10.439   6.491  1.0866 -1.0489  1.6371
  651MOL0     H87884   1.396  10.943   6.549  0.4169 -0.3888  1.8565
  651MOL0     H87885   1.166  10.949   6.492 -0.6314 -0.8314 -1.8339
  652MOL0     O87886   4.431   6.890   5.900  0.3196 -1.3064 -0.1089
  652MOL0     C87887   4.303   6.880   5.901 -1.1101  0.5087 -0.1026
  652MOL0     O87888   4.242   6.766   5.915  0.1435 -0.5348  0.3595
  652MOL0     C87889   4.323   6.650   5.930  0.3980 -0.3220  0.5661
  652MOL0     C87890   4.434   6.639   6.024 -0.7027  0.4979 -0.6245
  652MOL0     C87891   4.489   6.511   6.046  0.0404 -0.1239 -0.2446
  652MOL0     C87892   4.453   6.396   5.973  0.1527  0.0184  0.5285
  652MOL0     O87893   4.520   6.278   5.979 -0.4347  0.1812  0.1248
  652MOL0     C87894   4.571   6.234   6.113 -0.2585 -0.6309  0.3544
  652MOL0     C87895   4.608   6.087   6.099 -0.2960  0.0321  0.7745
  652MOL0     C87896   4.691   6.043   6.222 -0.4964  0.2565  1.0648
  652MOL0     C87897   4.734   5.901   6.235  0.5480  0.3589  0.5542
  652MOL0     C87898   4.820   5.872   6.361  0.2407 -0.1987 -0.6543
  652MOL0     C87899   4.751   5.915   6.492  0.2219 -0.2264 -0.1758
  652MOL0     C87900   4.819   5.873   6.623 -0.7067  1.1358 -0.3932
  652MOL0     C87901   4.703   5.870   6.719  0.4248  0.6820 -0.2923
  652MOL0     N87902   4.647   6.000   6.755 -0.0724 -0.0379  0.1997
  652MOL0     C87903   4.555   6.076   6.685  0.4936  0.5374 -0.4222
  652MOL0     C87904   4.538   6.177   6.770  0.5406  0.1837  0.1619
  652MOL0     C87905   4.423   6.272   6.754 -0.9379  0.5142 -0.2490
  652MOL0     C87906   4.275   6.228   6.772  0.7677 -0.5537  0.5087
  652MOL0     C87907   4.256   6.174   6.909  0.4074 -0.4963  0.7967
  652MOL0     C87908   4.120   6.160   6.973  0.5954  0.3436  0.0469
  652MOL0     O87909   4.032   6.093   6.880 -0.8955 -0.4679 -0.0198
  652MOL0     C87910   3.953   6.167   6.798  0.0151  1.0424  0.4892
  652MOL0     C87911   3.898   6.097   6.693  0.6078  0.5811 -0.8258
  652MOL0     C87912   3.830   6.157   6.584 -0.7243  0.5862  0.0359
  652MOL0     C87913   3.780   6.065   6.473  0.6338 -0.0731 -0.6397
  652MOL0     C87914   3.811   6.302   6.588  0.9148 -1.0711 -0.0224
  652MOL0     C87915   3.753   6.387   6.475 -0.2103 -0.1059 -0.4945
  652MOL0     O87916   3.701   6.502   6.515  0.8171 -0.2911 -0.6871
  652MOL0     C87917   3.650   6.586   6.425  0.1661 -0.8479 -0.3598
  652MOL0     C87918   3.548   6.552   6.341  0.3061 -0.6114  0.0525
  652MOL0     C87919   3.468   6.655   6.281  0.3514 -1.0540 -0.4249
  652MOL0     C87920   3.502   6.794   6.304  0.3909  0.3005 -0.8514
  652MOL0     O87921   3.418   6.887   6.246  0.3536 -0.5318 -0.2943
  652MOL0     C87922   3.397   7.020   6.295 -0.5535 -0.6093 -0.5457
  652MOL0     C87923   3.284   7.083   6.213  0.0216 -0.4127 -0.2781
  652MOL0     C87924   3.271   7.049   6.062 -0.1276 -0.8931 -0.5834
  652MOL0     C87925   3.162   7.131   6.007 -0.0464 -0.0960  0.8652
  652MOL0     C87926   3.142   7.095   5.859 -0.3814 -0.0747 -1.3077
  652MOL0     C87927   2.998   7.123   5.805  0.7695  0.7552 -0.6459
  652MOL0     C87928   2.945   7.271   5.829  0.2905  0.4367 -0.3928
  652MOL0     C87929   2.812   7.296   5.752 -0.0282  0.4140  0.6852
  652MOL0    Cl87930   2.731   7.447   5.788  0.1985 -0.3821 -0.4212
  652MOL0     C87931   3.605   6.824   6.388 -0.2906  0.2941 -0.1840
  652MOL0     C87932   3.680   6.724   6.446 -0.3758 -0.2013 -0.5409
  652MOL0     O87933   3.754   6.347   6.355  0.3536 -1.1053  0.0555
  652MOL0     C87934   3.847   6.371   6.707 -0.6680  0.5114  0.1035
  652MOL0     C87935   3.929   6.304   6.801  0.1683  0.1232 -0.1338
  652MOL0     N87936   4.624   6.175   6.873 -0.9608 -0.0055 -0.0254
  652MOL0     N87937   4.687   6.059   6.871  0.1025  0.0337 -0.4731
  652MOL0     C87938   4.352   6.405   5.874  0.2707  0.2473  0.2793
  652MOL0     C87939   4.287   6.524   5.862  0.3370 -0.0606  0.1219
  652MOL0     C87940   4.225   6.998   5.871  0.0143  0.9450  0.2506
  652MOL0     C87941   4.268   7.129   5.907 -0.0618 -0.1946 -0.5453
  652MOL0     C87942   4.195   7.243   5.864  0.7312  0.2460 -2.0874
  652MOL0     C87943   4.068   7.227   5.805 -0.2216  1.0423 -0.2222
  652MOL0     O87944   4.004   7.337   5.764 -0.2414 -0.2911  0.3293
  652MOL0     C87945   3.861   7.333   5.751  0.4637 -0.3993  0.8656
  652MOL0     C87946   3.817   7.470   5.730  0.5490  0.3716  0.3052
  652MOL0     C87947   3.665   7.495   5.726 -0.2540 -1.5747 -0.2916
  652MOL0     C87948   3.644   7.634   5.680 -0.3186  1.2902 -1.1724
  652MOL0     C87949   3.681   7.660   5.540 -0.5080  0.0234 -0.5081
  652MOL0     C87950   3.736   7.690   5.433 -0.3126  0.1576  0.6770
  652MOL0     C87951   4.019   7.097   5.786 -0.1315 -0.1768 -1.4826
  652MOL0     C87952   4.098   6.983   5.812  0.1298  0.3342 -0.1971
  652MOL0     H87953   4.476   6.723   6.077  0.7531 -1.1399  0.9076
  652MOL0     H87954   4.561   6.506   6.127  1.0065 -1.3289 -1.1369
  652MOL0     H87955   4.640   6.315   6.139  2.2619 -3.0142  1.5454
  652MOL0     H87956   4.492   6.239   6.189 -0.6384 -1.7228  0.0568
  652MOL0     H87957   4.519   6.023   6.105 -0.3783  0.2380  2.0631
  652MOL0     H87958   4.660   6.079   6.003  0.0966 -0.4602  1.0214
  652MOL0     H87959   4.785   6.099   6.212  0.4285 -0.9818  2.3391
  652MOL0     H87960   4.625   6.085   6.299 -3.1748  0.4064 -1.1617
  652MOL0     H87961   4.648   5.838   6.211 -1.0459  1.8253  2.1236
  652MOL0     H87962   4.786   5.880   6.141 -2.4035 -2.6134 -0.6220
  652MOL0     H87963   4.839   5.764   6.359  0.8176 -0.1587  1.0328
  652MOL0     H87964   4.921   5.914   6.357  1.1025 -1.9531  0.9873
  652MOL0     H87965   4.735   6.023   6.499 -2.2425 -0.6016  1.0856
  652MOL0     H87966   4.648   5.882   6.477 -0.5213  2.3381 -1.2471
  652MOL0     H87967   4.861   5.773   6.609  0.4417  1.7635 -1.7360
  652MOL0     H87968   4.902   5.941   6.648  1.8085 -1.7062 -0.4722
  652MOL0     H87969   4.736   5.818   6.809 -0.8222  0.7471  0.2172
  652MOL0     H87970   4.620   5.816   6.673 -0.3964  1.2174  0.5211
  652MOL0     H87971   4.497   6.044   6.598  2.4358 -1.4293 -1.0916
  652MOL0     H87972   4.437   6.351   6.828  2.8501  3.9331 -4.0562
  652MOL0     H87973   4.443   6.318   6.657  1.4866  0.8938  0.3610
  652MOL0     H87974   4.246   6.155   6.697 -0.5842 -0.4156  0.8839
  652MOL0     H87975   4.213   6.317   6.759  3.3060  1.5267  1.5276
  652MOL0     H87976   4.318   6.236   6.975 -0.3925 -0.1317  1.2204
  652MOL0     H87977   4.302   6.075   6.901 -1.4737 -1.3461 -0.1592
  652MOL0     H87978   4.069   6.253   6.999 -0.3067 -0.3223  0.7228
  652MOL0     H87979   4.132   6.105   7.067 -5.8634 -1.2525  0.4001
  652MOL0     H87980   3.917   5.990   6.698  3.5956  1.1041  2.0188
  652MOL0     H87981   3.851   6.049   6.391  1.4833  2.9338 -0.6048
  652MOL0     H87982   3.754   5.970   6.522 -0.1053  0.7170  0.5407
  652MOL0     H87983   3.682   6.099   6.436  0.3975  1.1399  1.0155
  652MOL0     H87984   3.511   6.451   6.330 -1.1098 -0.5987  3.6319
  652MOL0     H87985   3.382   6.638   6.218 -0.0626  1.0068 -0.4671
  652MOL0     H87986   3.371   7.014   6.402 -1.4117  0.5461 -0.6717
  652MOL0     H87987   3.484   7.083   6.277 -0.8902 -0.8292 -3.4229
  652MOL0     H87988   3.204   7.039   6.274 -0.7856  1.9941  0.5139
  652MOL0     H87989   3.299   7.191   6.218 -0.2327 -0.0038 -4.4121
  652MOL0     H87990   3.232   6.947   6.054 -1.7363 -0.2527 -1.5190
  652MOL0     H87991   3.372   7.053   6.020  0.9323  0.5505  1.9238
  652MOL0     H87992   3.070   7.106   6.061  0.2803  1.1755  2.0462
  652MOL0     H87993   3.179   7.238   6.021  0.5177  0.4771 -3.0816
  652MOL0     H87994   3.156   6.987   5.848  1.5195  0.0581 -0.5262
  652MOL0     H87995   3.230   7.132   5.806  0.1294  0.8976  0.1669
  652MOL0     H87996   2.990   7.094   5.700  3.2217 -0.2859 -0.6207
  652MOL0     H87997   2.922   7.061   5.853  0.6010  0.4271 -1.3271
  652MOL0     H87998   3.015   7.348   5.795  0.2353  0.2165 -1.0223
  652MOL0     H87999   2.923   7.288   5.935 -2.1274  0.6261 -0.8635
  652MOL0     H88000   2.731   7.223   5.764 -2.9952  3.2574 -0.4758
  652MOL0     H88001   2.845   7.299   5.648 -2.9515 -0.5651 -0.3676
  652MOL0     H88002   3.627   6.927   6.417 -1.0275 -0.6386  4.5431
  652MOL0     H88003   3.755   6.736   6.523  0.2306  1.7120 -1.3653
  652MOL0     H88004   3.825   6.477   6.719  0.0970  0.9753 -2.0872
  652MOL0     H88005   3.951   6.369   6.886 -3.3801 -1.3969  2.2116
  652MOL0     H88006   4.310   6.320   5.821  0.1093  0.6129 -0.1838
  652MOL0     H88007   4.199   6.531   5.798 -1.9360  0.2656  3.0635
  652MOL0     H88008   4.371   7.136   5.941  0.0287  2.0387 -1.0667
  652MOL0     H88009   4.234   7.343   5.883  3.2918 -1.1530  0.8943
  652MOL0     H88010   3.834   7.272   5.665 -1.2686  1.0225  0.3322
  652MOL0     H88011   3.809   7.294   5.839 -1.3885  2.6255  1.2389
  652MOL0     H88012   3.872   7.509   5.644  2.3462 -2.7641 -0.1268
  652MOL0     H88013   3.854   7.524   5.817  0.2703 -1.4459  1.6217
  652MOL0     H88014   3.617   7.480   5.823 -0.7996  2.5012  0.2489
  652MOL0     H88015   3.615   7.417   5.667 -4.5198  0.5370  0.1192
  652MOL0     H88016   3.685   7.710   5.747 -1.7785  1.8411 -0.8490
  652MOL0     H88017   3.535   7.638   5.690 -0.5904 -3.3663  0.0591
  652MOL0     H88018   3.780   7.713   5.338 -6.1082 -0.1657 -2.5511
  652MOL0     H88019   3.928   7.076   5.731  1.2955 -3.9730 -2.7975
  652MOL0     H88020   4.053   6.886   5.790  0.4912 -0.4303  2.1743
  653MOL0     O88021  10.842   3.481   0.513 -0.1901 -0.0092  0.3243
  653MOL0     C88022  10.899   3.472   0.398  0.6968 -1.6456 -0.3827
  653MOL0     O88023  10.946   3.357   0.341 -0.3099  0.3795  0.8563
  653MOL0     C88024  10.948   3.235   0.402 -1.0032 -1.1504 -0.1788
  653MOL0     C88025  11.029   3.137   0.347  0.3307 -0.7509 -0.7872
  653MOL0     C88026  11.019   3.001   0.389  0.1466 -0.8652 -0.9021
  653MOL0     C88027  10.939   2.958   0.500 -1.3834  0.1462  0.2847
  653MOL0     O88028  10.938   2.827   0.542  0.0220 -0.1131  0.8666
  653MOL0     C88029  11.070   2.768   0.563  0.1622 -0.3754  0.3280
  653MOL0     C88030  11.079   2.649   0.463  0.5791 -0.1164  0.7481
  653MOL0     C88031  11.167   2.542   0.508  0.0401 -0.3546 -0.1469
  653MOL0     C88032  11.317   2.580   0.516  0.0279  1.0494 -0.2970
  653MOL0     C88033  11.409   2.455   0.547 -0.6789 -0.4507  0.4947
  653MOL0     C88034  11.556   2.488   0.575  0.3229 -0.5621  0.4087
  653MOL0     C88035  11.645   2.366   0.588  0.2918 -0.1004  0.3963
  653MOL0     C88036  11.603   2.278   0.710 -0.2061  0.4931 -0.5453
  653MOL0     N88037  11.609   2.343   0.839 -0.2725  0.4515  0.6286
  653MOL0     C88038  11.692   2.318   0.935  0.2697 -0.1957  0.0718
  653MOL0     C88039  11.653   2.385   1.043 -0.0040 -0.1231  0.6285
  653MOL0     C88040  11.717   2.392   1.179 -1.3308  0.3490 -0.2648
  653MOL0     C88041  11.711   2.255   1.259 -0.5387 -0.6240  0.5765
  653MOL0     C88042  11.565   2.197   1.255 -0.0831  1.0153 -0.4543
  653MOL0     C88043  11.452   2.281   1.319  0.0639  0.2058 -0.5643
  653MOL0     O88044  11.488   2.305   1.455 -0.3304  0.2615  0.9307
  653MOL0     C88045  11.398   2.378   1.527  0.6131  0.3061 -0.2110
  653MOL0     C88046  11.258   2.368   1.531 -0.2797 -0.0879 -0.1897
  653MOL0     C88047  11.172   2.459   1.587  0.1238  0.0567  0.3885
  653MOL0     C88048  11.022   2.442   1.569  0.0633  0.3840 -0.1704
  653MOL0     C88049  11.224   2.570   1.661 -0.2240 -0.2961  0.0718
  653MOL0     C88050  11.148   2.684   1.717 -1.0037  0.5304 -0.1503
  653MOL0     O88051  11.214   2.802   1.746 -0.2460 -0.0708  0.3634
  653MOL0     C88052  11.152   2.914   1.788 -0.6773 -0.0425 -0.5740
  653MOL0     C88053  11.149   2.959   1.922  0.8761  0.1684 -0.4467
  653MOL0     C88054  11.081   3.079   1.958  0.3142 -0.4352  0.8126
  653MOL0     C88055  11.032   3.157   1.861 -0.9232  0.0189 -0.8894
  653MOL0     O88056  10.962   3.274   1.872 -0.7782 -1.0009 -0.1986
  653MOL0     C88057  10.964   3.339   1.995  0.2067  0.4330  0.0035
  653MOL0     C88058  10.958   3.493   2.013  0.3620  0.5254  0.1613
  653MOL0     C88059  11.060   3.560   1.934 -1.1306 -0.2379 -1.3400
  653MOL0     C88060  11.051   3.552   1.780 -0.2340 -0.4834  0.1858
  653MOL0     C88061  10.912   3.587   1.714  0.5541  0.1369  0.6153
  653MOL0     C88062  10.917   3.543   1.568 -0.0680  0.5503  0.5992
  653MOL0     C88063  10.788   3.568   1.495  0.5056  0.3927  0.1984
  653MOL0     C88064  10.736   3.704   1.459 -0.1299 -0.0693 -0.3369
  653MOL0    Cl88065  10.598   3.718   1.341  0.5371  0.0998 -0.2598
  653MOL0     C88066  11.038   3.124   1.724 -0.3287  0.0445  0.0473
  653MOL0     C88067  11.096   3.004   1.689 -0.9011  0.3560 -0.3135
  653MOL0     O88068  11.033   2.667   1.750 -0.1680 -0.7663  0.2851
  653MOL0     C88069  11.366   2.571   1.668  0.6726  0.1984  0.2975
  653MOL0     C88070  11.445   2.482   1.596 -0.0303  0.1492 -0.5984
  653MOL0     N88071  11.523   2.431   1.016 -0.9976  0.3985  0.6503
  653MOL0     N88072  11.507   2.409   0.891 -0.2772  0.1880  0.2922
  653MOL0     C88073  10.854   3.054   0.548  0.8333 -0.0114 -0.7643
  653MOL0     C88074  10.860   3.188   0.500  0.3005  0.4722 -0.3921
  653MOL0     C88075  10.886   3.596   0.313 -0.0818  1.0958 -0.1468
  653MOL0     C88076  10.919   3.583   0.178 -0.2574 -0.0456  0.2631
  653MOL0     C88077  10.883   3.691   0.094  0.3955 -0.9928 -0.4051
  653MOL0     C88078  10.846   3.823   0.142  1.5637  0.0672  0.7898
  653MOL0     O88079  10.846   3.927   0.043  0.3877  1.0587  0.1297
  653MOL0     C88080  10.741   4.031   0.042 -0.2664 -0.4180  0.5521
  653MOL0     C88081  10.805   4.170   0.065 -0.3658  0.4689 -0.0772
  653MOL0     C88082  10.896   4.209  -0.043 -0.0948  0.2376 -0.4303
  653MOL0     C88083  10.951   4.352  -0.034  0.3648 -0.5521  0.3704
  653MOL0     C88084  10.988   4.402  -0.166 -0.6582 -0.1765 -0.8566
  653MOL0     C88085  11.027   4.441  -0.267 -0.5439 -0.2593 -0.8259
  653MOL0     C88086  10.822   3.835   0.279 -0.5729 -0.2069  0.3315
  653MOL0     C88087  10.832   3.721   0.358 -0.0732  0.1248 -0.0987
  653MOL0     H88088  11.106   3.174   0.279  1.2625 -1.3990 -0.1203
  653MOL0     H88089  11.068   2.931   0.322  1.7729 -1.4484  0.8135
  653MOL0     H88090  11.151   2.838   0.544 -0.5702  1.1606  2.5540
  653MOL0     H88091  11.064   2.737   0.667 -1.0674  2.3157  1.1368
  653MOL0     H88092  10.980   2.604   0.450  0.0384  1.0717  0.6178
  653MOL0     H88093  11.112   2.690   0.367  1.0087 -1.4226  0.3231
  653MOL0     H88094  11.138   2.502   0.605  1.6273 -0.1306  0.4467
  653MOL0     H88095  11.157   2.465   0.431 -1.6272 -0.4978  0.1911
  653MOL0     H88096  11.343   2.636   0.426 -0.7429  2.1525  0.1444
  653MOL0     H88097  11.333   2.646   0.602  2.2232  2.2983 -1.5776
  653MOL0     H88098  11.369   2.405   0.635 -1.9538  2.0249  1.4164
  653MOL0     H88099  11.410   2.395   0.455 -0.6068  3.0287 -1.9639
  653MOL0     H88100  11.582   2.543   0.484 -3.3722 -0.7353 -0.9226
  653MOL0     H88101  11.559   2.555   0.661 -0.1863 -0.4266  0.3281
  653MOL0     H88102  11.647   2.313   0.492 -0.7436  1.1281 -0.3372
  653MOL0     H88103  11.748   2.400   0.602  0.8658 -0.8150 -1.6439
  653MOL0     H88104  11.675   2.195   0.706  1.4845  1.9534 -3.0114
  653MOL0     H88105  11.503   2.243   0.682 -0.8969  3.9291 -2.9555
  653MOL0     H88106  11.778   2.252   0.930  1.6033  0.9309  4.1046
  653MOL0     H88107  11.817   2.433   1.163 -1.7382  1.3797 -0.2664
  653MOL0     H88108  11.669   2.469   1.240  0.3197 -2.6459  5.6058
  653MOL0     H88109  11.748   2.263   1.361  1.2693 -1.4720  0.0314
  653MOL0     H88110  11.773   2.187   1.200 -0.8369  1.6625 -2.6664
  653MOL0     H88111  11.563   2.102   1.309 -1.8451 -0.0648 -2.2694
  653MOL0     H88112  11.547   2.175   1.149 -0.0221  2.2049 -0.7262
  653MOL0     H88113  11.354   2.234   1.301 -0.1088  0.1716  0.4437
  653MOL0     H88114  11.458   2.379   1.270  1.7770 -0.6222 -2.1161
  653MOL0     H88115  11.206   2.290   1.477 -0.7674 -0.3983  0.7151
  653MOL0     H88116  11.002   2.407   1.468 -0.0839  2.0193 -0.7458
  653MOL0     H88117  10.965   2.378   1.637 -0.3931  1.3442  0.3822
  653MOL0     H88118  10.969   2.538   1.579 -0.7693 -0.1777  0.9402
  653MOL0     H88119  11.182   2.894   2.002 -0.3736 -0.8719 -0.7420
  653MOL0     H88120  11.075   3.104   2.064 -0.5705 -0.9114  0.8882
  653MOL0     H88121  10.886   3.292   2.054 -0.5816  1.0932 -0.4873
  653MOL0     H88122  11.063   3.328   2.040 -0.5080 -0.0270  1.5232
  653MOL0     H88123  10.856   3.517   1.978  0.2103 -0.6098 -0.2230
  653MOL0     H88124  10.965   3.525   2.117 -4.6682 -0.6708  1.1717
  653MOL0     H88125  11.160   3.530   1.969 -0.8623  1.0862 -0.8994
  653MOL0     H88126  11.059   3.668   1.956 -2.3872 -0.6350  0.8671
  653MOL0     H88127  11.131   3.613   1.735 -0.2880  2.1597  3.3324
  653MOL0     H88128  11.081   3.450   1.750 -1.3751 -0.9518  0.6034
  653MOL0     H88129  10.874   3.689   1.726 -2.1599 -0.6092 -0.8928
  653MOL0     H88130  10.836   3.525   1.763 -0.1484  1.1178  0.8050
  653MOL0     H88131  10.994   3.586   1.503 -0.7548  2.5735  1.0629
  653MOL0     H88132  10.939   3.436   1.572 -3.3382 -0.2038  0.7972
  653MOL0     H88133  10.710   3.514   1.550 -0.4172 -0.6728 -1.9982
  653MOL0     H88134  10.798   3.511   1.402  1.3608  0.7792  0.0497
  653MOL0     H88135  10.808   3.775   1.418 -0.6629 -1.8561 -4.9355
  653MOL0     H88136  10.707   3.752   1.553  4.5988  1.4459  0.5973
  653MOL0     H88137  11.004   3.192   1.647  2.6183 -0.2529 -1.6502
  653MOL0     H88138  11.092   2.964   1.588  0.4532  0.6014 -0.4778
  653MOL0     H88139  11.419   2.651   1.719  4.3483 -0.6531 -1.8269
  653MOL0     H88140  11.552   2.499   1.608 -0.1328  0.7990 -0.5882
  653MOL0     H88141  10.775   3.027   0.617  2.3929  0.4344  1.2902
  653MOL0     H88142  10.786   3.243   0.556 -2.5596 -2.6811 -0.7309
  653MOL0     H88143  10.966   3.497   0.132 -3.8609 -1.6201 -0.8502
  653MOL0     H88144  10.875   3.679  -0.014 -4.9008  0.6049 -0.4806
  653MOL0     H88145  10.690   4.026  -0.055 -0.5808 -3.3022  0.7598
  653MOL0     H88146  10.660   4.026   0.115 -0.9122 -2.1677 -0.2198
  653MOL0     H88147  10.866   4.158   0.155 -1.2146 -3.2466  0.1757
  653MOL0     H88148  10.720   4.235   0.088 -0.0314  0.1918  2.1894
  653MOL0     H88149  10.833   4.194  -0.131  0.9520 -1.3880 -0.9544
  653MOL0     H88150  10.986   4.147  -0.044  0.4654  1.0241 -0.0394
  653MOL0     H88151  11.046   4.344   0.020  0.3506 -3.0652  0.1394
  653MOL0     H88152  10.881   4.428  -0.000 -1.9737 -0.6180 -3.6997
  653MOL0     H88153  11.067   4.479  -0.360 -2.4657 -1.6558 -2.2996
  653MOL0     H88154  10.816   3.937   0.314  0.5258 -0.5785  1.6916
  653MOL0     H88155  10.811   3.724   0.464 -1.5990  0.5650 -0.3939
  654MOL0     O88156  10.736   8.283   7.023  0.7553 -0.7585 -0.5076
  654MOL0     C88157  10.722   8.273   7.150 -0.0020  0.0762  0.0932
  654MOL0     O88158  10.719   8.151   7.226  0.8682 -0.2439 -0.0280
  654MOL0     C88159  10.725   8.028   7.167  0.3408 -0.5484  0.1705
  654MOL0     C88160  10.843   7.991   7.100  0.1678  0.1228  1.1983
  654MOL0     C88161  10.850   7.864   7.032 -0.1491  0.3564  0.0482
  654MOL0     C88162  10.744   7.771   7.041  1.1488 -1.2963 -0.6055
  654MOL0     O88163  10.734   7.649   6.975  0.0242 -0.4048 -0.3007
  654MOL0     C88164  10.829   7.630   6.866  0.3396  0.0497 -0.2370
  654MOL0     C88165  10.942   7.531   6.899 -0.2090 -0.6884  0.3407
  654MOL0     C88166  10.894   7.390   6.897  0.0369 -1.2244  0.2606
  654MOL0     C88167  10.899   7.328   6.756 -0.7255  1.1468  0.5173
  654MOL0     C88168  10.887   7.171   6.756  0.1308  0.4828 -0.7272
  654MOL0     C88169  10.913   7.110   6.619  0.3252  0.2069  0.9490
  654MOL0     C88170  10.946   6.957   6.628  0.7959  0.2583 -0.1384
  654MOL0     C88171  10.996   6.890   6.502  0.2699  0.2620 -0.1815
  654MOL0     N88172  10.884   6.870   6.404 -0.0068  0.3730 -0.2023
  654MOL0     C88173  10.792   6.767   6.414 -0.2575  0.4289  0.0229
  654MOL0     C88174  10.707   6.786   6.309  0.6536 -0.0123 -0.4250
  654MOL0     C88175  10.610   6.681   6.257 -0.4689  0.2361 -0.8198
  654MOL0     C88176  10.629   6.534   6.311  0.5177  0.1510  0.6586
  654MOL0     C88177  10.522   6.430   6.261 -0.1701 -0.7396  0.0500
  654MOL0     C88178  10.586   6.295   6.230  0.6562 -0.5348  0.1180
  654MOL0     O88179  10.670   6.230   6.330  0.2491 -1.1295  0.3206
  654MOL0     C88180  10.614   6.198   6.449 -0.1494 -0.0534  0.4173
  654MOL0     C88181  10.475   6.186   6.471 -0.4740 -0.0610 -0.6106
  654MOL0     C88182  10.427   6.182   6.601  0.1200 -0.2637  1.8810
  654MOL0     C88183  10.273   6.162   6.613  0.6798  0.0523  0.2283
  654MOL0     C88184  10.521   6.169   6.714  0.4725  0.1639  0.5468
  654MOL0     C88185  10.485   6.152   6.852  0.0007  0.9068  0.4140
  654MOL0     O88186  10.586   6.122   6.945  0.2472  0.5707  0.0864
  654MOL0     C88187  10.563   6.083   7.069 -0.1060  0.0289 -0.8785
  654MOL0     C88188  10.588   5.955   7.111 -0.8666 -1.0739 -0.3538
  654MOL0     C88189  10.580   5.916   7.247 -0.6734  0.3202 -0.2632
  654MOL0     C88190  10.540   6.008   7.343  0.1660 -0.5897  0.3195
  654MOL0     O88191  10.523   5.972   7.484 -0.4745 -0.1643 -0.1620
  654MOL0     C88192  10.612   6.043   7.566 -0.4615  0.8017  0.2719
  654MOL0     C88193  10.551   6.046   7.707  0.7998 -1.3684  0.5709
  654MOL0     C88194  10.621   6.149   7.802  0.0797  0.2902  0.5548
  654MOL0     C88195  10.654   6.098   7.940  0.7918  0.0919  0.0017
  654MOL0     C88196  10.697   6.208   8.032  0.5408  0.6189  0.4840
  654MOL0     C88197  10.789   6.156   8.135  0.0190 -0.2246  0.2559
  654MOL0     C88198  10.800   6.254   8.253  0.0005 -0.1089 -0.1549
  654MOL0     C88199  10.888   6.228   8.378 -0.4517  0.4986 -0.1011
  654MOL0    Cl88200  10.872   6.361   8.496 -0.1186  0.0788 -0.2182
  654MOL0     C88201  10.503   6.139   7.294  0.3393  0.0559 -0.6807
  654MOL0     C88202  10.518   6.178   7.159  0.2133  0.5285 -0.1200
  654MOL0     O88203  10.376   6.175   6.885 -0.1230 -0.7503 -0.0923
  654MOL0     C88204  10.658   6.179   6.685  0.5088  0.3204 -0.1337
  654MOL0     C88205  10.700   6.186   6.556  0.1921 -0.3341 -0.2497
  654MOL0     N88206  10.748   6.900   6.233 -0.3621  0.5962  0.2248
  654MOL0     N88207  10.854   6.947   6.291  0.5419  0.5880 -0.1337
  654MOL0     C88208  10.639   7.804   7.120 -0.0961  0.7005  0.4615
  654MOL0     C88209  10.623   7.934   7.179 -1.5341 -0.4106 -0.6415
  654MOL0     C88210  10.728   8.391   7.242  0.2249  0.1365  0.7098
  654MOL0     C88211  10.721   8.375   7.379 -0.1028 -0.4853 -1.0836
  654MOL0     C88212  10.709   8.493   7.469  0.5863  0.1749 -0.6585
  654MOL0     C88213  10.720   8.627   7.412 -0.3055  0.5196  0.3108
  654MOL0     O88214  10.689   8.739   7.482  0.7546 -0.2396 -0.1636
  654MOL0     C88215  10.677   8.864   7.412  0.2131  0.0435  0.1990
  654MOL0     C88216  10.807   8.936   7.384  0.1383  0.7853  1.1903
  654MOL0     C88217  10.795   9.040   7.278  0.8680 -0.7351  0.9038
  654MOL0     C88218  10.905   9.136   7.262 -0.0740  0.2855  0.7855
  654MOL0     C88219  10.882   9.224   7.146  0.7677 -0.2876 -0.6568
  654MOL0     C88220  10.854   9.311   7.066 -0.2486  0.8390  0.8478
  654MOL0     C88221  10.754   8.633   7.276 -0.1183  0.8757  0.3362
  654MOL0     C88222  10.752   8.517   7.191  0.7941 -0.1110  0.4280
  654MOL0     H88223  10.926   8.059   7.092  1.4894 -1.1552  3.1995
  654MOL0     H88224  10.940   7.822   6.989 -2.4350 -2.3702 -2.5498
  654MOL0     H88225  10.774   7.583   6.784  1.7494  0.1685 -1.2807
  654MOL0     H88226  10.869   7.721   6.820 -0.7766  0.0943 -1.1891
  654MOL0     H88227  11.020   7.548   6.825 -0.1863  2.1341  0.8903
  654MOL0     H88228  10.995   7.562   6.990  4.6737  0.2441 -2.4442
  654MOL0     H88229  10.963   7.328   6.956  2.7017 -1.7141 -3.0317
  654MOL0     H88230  10.794   7.390   6.942  0.7819 -2.4199  2.0488
  654MOL0     H88231  10.834   7.367   6.678  0.4539  1.5625 -0.2869
  654MOL0     H88232  11.003   7.351   6.730 -0.7563  0.4729 -0.2378
  654MOL0     H88233  10.961   7.135   6.828 -1.0497  0.4317  0.4892
  654MOL0     H88234  10.786   7.143   6.786 -0.5473  2.5603 -0.8855
  654MOL0     H88235  10.832   7.140   6.552  1.0404 -0.1176 -0.0917
  654MOL0     H88236  10.998   7.154   6.567 -0.3564  0.8531  0.3530
  654MOL0     H88237  11.016   6.940   6.710  1.6869 -1.9557 -1.2571
  654MOL0     H88238  10.853   6.910   6.664  1.9003 -2.6429 -0.7527
  654MOL0     H88239  11.049   6.803   6.541 -1.8261 -0.5440  1.0607
  654MOL0     H88240  11.071   6.956   6.457  1.0093  0.2269  0.9561
  654MOL0     H88241  10.796   6.689   6.490 -2.2594  0.4842  0.2425
  654MOL0     H88242  10.506   6.697   6.286 -0.9005 -2.9713 -0.1758
  654MOL0     H88243  10.621   6.682   6.148 -2.1684  0.8992 -1.0206
  654MOL0     H88244  10.631   6.529   6.420  1.8854  0.2053  0.6582
  654MOL0     H88245  10.728   6.493   6.288  0.1873  0.1096 -0.8148
  654MOL0     H88246  10.465   6.471   6.177 -0.6273 -1.0791  0.1953
  654MOL0     H88247  10.447   6.413   6.338 -0.8683  0.9472 -0.2277
  654MOL0     H88248  10.656   6.312   6.148 -1.0715  4.1074 -0.6917
  654MOL0     H88249  10.507   6.223   6.205  0.3814  0.1751 -1.1338
  654MOL0     H88250  10.399   6.163   6.396 -2.2569  0.8541  0.8220
  654MOL0     H88251  10.215   6.216   6.537 -1.7769 -1.5166  0.8648
  654MOL0     H88252  10.242   6.058   6.599 -3.2580  1.1703 -0.6230
  654MOL0     H88253  10.234   6.195   6.710  1.7034  2.4685 -0.1049
  654MOL0     H88254  10.626   5.883   7.039 -0.2790 -1.6322  0.5018
  654MOL0     H88255  10.593   5.812   7.274 -0.9792  0.5689  0.8746
  654MOL0     H88256  10.704   5.983   7.570 -0.1957  1.2271  0.7618
  654MOL0     H88257  10.638   6.143   7.529  2.1151 -0.4567 -1.6033
  654MOL0     H88258  10.447   6.080   7.698  1.0507 -0.7494 -0.0152
  654MOL0     H88259  10.557   5.950   7.758 -1.0860 -0.8552  1.9223
  654MOL0     H88260  10.553   6.232   7.826 -0.1468  0.0499  0.7643
  654MOL0     H88261  10.716   6.194   7.774  0.9487 -1.7423  0.0587
  654MOL0     H88262  10.578   6.042   7.995 -0.0234  0.3607 -0.8114
  654MOL0     H88263  10.740   6.033   7.923 -0.5331 -0.9449 -4.0943
  654MOL0     H88264  10.608   6.246   8.082  0.1075  1.3309 -0.7707
  654MOL0     H88265  10.750   6.288   7.979  2.2858  0.8643  2.5030
  654MOL0     H88266  10.754   6.057   8.168 -0.6817 -0.1302 -0.1791
  654MOL0     H88267  10.890   6.143   8.096  0.2834  1.9797  0.0945
  654MOL0     H88268  10.702   6.281   8.294  0.3861 -2.1085  2.3180
  654MOL0     H88269  10.844   6.347   8.217  1.6323 -1.5015 -2.0219
  654MOL0     H88270  10.990   6.208   8.345 -1.3571 -1.8951 -1.7583
  654MOL0     H88271  10.861   6.132   8.425 -0.6785  0.7795  0.3567
  654MOL0     H88272  10.470   6.210   7.369  0.5742  1.8554 -2.2182
  654MOL0     H88273  10.510   6.282   7.131  1.3553  0.9795  1.1572
  654MOL0     H88274  10.731   6.183   6.765  0.7548  0.3153 -0.3579
  654MOL0     H88275  10.807   6.182   6.538  0.9950 -1.9973  3.6519
  654MOL0     H88276  10.573   7.719   7.134  1.1552 -0.0541  2.1385
  654MOL0     H88277  10.542   7.954   7.249 -2.8458  0.3335 -2.3038
  654MOL0     H88278  10.734   8.272   7.411 -1.1155 -0.0318  1.0175
  654MOL0     H88279  10.690   8.463   7.571 -0.2557  1.3678 -0.4460
  654MOL0     H88280  10.616   8.854   7.322  1.0233 -4.0728 -0.1065
  654MOL0     H88281  10.624   8.935   7.477 -2.3000 -0.2469 -1.3683
  654MOL0     H88282  10.886   8.868   7.351 -0.2854  1.9967 -2.7109
  654MOL0     H88283  10.847   8.981   7.476  0.0377  1.3682  0.9516
  654MOL0     H88284  10.705   9.100   7.296  0.9707  0.2775 -1.5879
  654MOL0     H88285  10.773   8.986   7.185  0.6486  0.4258  0.2690
  654MOL0     H88286  10.997   9.078   7.248 -1.4733 -2.4096  1.8598
  654MOL0     H88287  10.902   9.186   7.359 -0.4492 -2.9310  2.5888
  654MOL0     H88288  10.795   9.370   6.998  2.6020  1.3020 -1.4101
  654MOL0     H88289  10.769   8.727   7.223 -1.3443 -0.3110 -2.2891
  654MOL0     H88290  10.775   8.535   7.087 -1.5977 -1.9461 -0.5313
  655MOL0     O88291   0.305  11.448   0.909 -0.5251 -0.2207  0.1688
  655MOL0     C88292   0.342  11.512   1.010 -0.3060  0.3401 -0.1883
  655MOL0     O88293   0.394  11.641   1.011  0.1227  0.5144 -0.2130
  655MOL0     C88294   0.385  11.726   0.903 -0.3966 -0.6131  0.0654
  655MOL0     C88295   0.287  11.730   0.795 -0.8872  0.8342 -0.0296
  655MOL0     C88296   0.276  11.839   0.702  0.7387 -0.1947  0.4758
  655MOL0     C88297   0.348  11.955   0.721  0.1720 -0.1905  0.5695
  655MOL0     O88298   0.347  12.075   0.657  0.8068 -0.5955  0.6076
  655MOL0     C88299   0.216  12.116   0.628  0.3128  1.2021  0.2735
  655MOL0     C88300   0.227  12.226   0.520 -0.2463  0.0434  0.0529
  655MOL0     C88301   0.354  12.318   0.516  0.4394  0.1348  0.0654
  655MOL0     C88302   0.339  12.433   0.411  0.4037  0.1672  0.2137
  655MOL0     C88303   0.457  12.528   0.408  1.3615  0.0155  0.6765
  655MOL0     C88304   0.596  12.464   0.409  0.2834  0.2704 -0.2171
  655MOL0     C88305   0.721  12.565   0.419  0.0779 -1.2330 -0.1123
  655MOL0     C88306   0.835  12.525   0.323 -0.2578  0.0514  0.2419
  655MOL0     N88307   0.897  12.392   0.337  0.1914 -0.6543  0.1062
  655MOL0     C88308   0.831  12.275   0.323 -0.1441  1.0214 -0.1799
  655MOL0     C88309   0.911  12.178   0.380 -0.2223  0.4901  0.0831
  655MOL0     C88310   0.910  12.029   0.388  0.8100 -0.0381  0.3130
  655MOL0     C88311   0.779  11.969   0.439 -0.8925 -0.0010 -0.2499
  655MOL0     C88312   0.710  11.882   0.333  0.1787  0.4604 -0.0659
  655MOL0     C88313   0.568  11.838   0.364  0.4479  0.1788 -0.2997
  655MOL0     O88314   0.469  11.933   0.317  0.7025 -0.0051  0.7291
  655MOL0     C88315   0.342  11.890   0.305 -0.1576  0.0109 -0.3811
  655MOL0     C88316   0.289  11.755   0.325  0.7683 -0.3475  0.1608
  655MOL0     C88317   0.159  11.724   0.297 -0.1690  0.1722 -0.5906
  655MOL0     C88318   0.120  11.577   0.321  0.3760 -0.3474 -0.3954
  655MOL0     C88319   0.071  11.824   0.238  0.1721 -0.3276  1.4225
  655MOL0     C88320  -0.079  11.808   0.201 -0.2718  1.2271 -0.5490
  655MOL0     O88321  -0.155  11.914   0.180  0.3795  0.6909  0.5737
  655MOL0     C88322  -0.276  11.884   0.125  0.5280  0.3977  0.2439
  655MOL0     C88323  -0.386  11.858   0.214  0.1912  0.4957  0.0953
  655MOL0     C88324  -0.500  11.807   0.163  0.0529 -1.4952  0.4819
  655MOL0     C88325  -0.509  11.775   0.026 -0.9309  0.8120  0.0006
  655MOL0     O88326  -0.626  11.721  -0.036 -0.2864 -0.5931  0.3082
  655MOL0     C88327  -0.758  11.711   0.020  0.8034  0.1277  0.1472
  655MOL0     C88328  -0.841  11.840   0.022 -0.2478  0.6417 -0.5063
  655MOL0     C88329  -0.987  11.816   0.025 -0.3826  0.1799 -0.0827
  655MOL0     C88330  -1.073  11.952   0.060 -0.4032  0.7300  0.9580
  655MOL0     C88331  -1.230  11.918   0.055  0.4945  0.5042 -0.6034
  655MOL0     C88332  -1.313  12.046   0.075  0.0512 -1.0994  0.5100
  655MOL0     C88333  -1.458  12.012   0.071  0.8465  0.7328 -0.1567
  655MOL0     C88334  -1.559  12.128   0.109  0.2008  0.4217  1.0865
  655MOL0    Cl88335  -1.525  12.270  -0.005  0.1127 -0.2987 -0.1666
  655MOL0     C88336  -0.399  11.790  -0.059 -0.2014  1.2309 -0.0659
  655MOL0     C88337  -0.287  11.858  -0.009 -0.0032 -0.0207  0.1450
  655MOL0     O88338  -0.121  11.689   0.207 -0.8303  0.6319 -0.4560
  655MOL0     C88339   0.128  11.949   0.214 -0.3311 -1.1728  0.5523
  655MOL0     C88340   0.253  11.979   0.248  0.0327  0.7747  0.3805
  655MOL0     N88341   1.025  12.246   0.438 -0.0474  0.6484  1.3222
  655MOL0     N88342   1.004  12.371   0.408 -0.1274 -0.1739  0.6262
  655MOL0     C88343   0.452  11.949   0.813  0.4815  0.4607 -0.1224
  655MOL0     C88344   0.469  11.839   0.916  0.1156  1.1630  0.2923
  655MOL0     C88345   0.350  11.437   1.139 -0.3768  0.6082 -0.2660
  655MOL0     C88346   0.422  11.493   1.243 -0.1706 -0.5085 -0.0224
  655MOL0     C88347   0.421  11.442   1.370  0.3964  0.5306  0.0375
  655MOL0     C88348   0.348  11.334   1.404  0.1587 -0.3442 -0.0922
  655MOL0     O88349   0.338  11.282   1.535  0.4019 -0.5770  0.3041
  655MOL0     C88350   0.216  11.318   1.601  0.4597  0.2626 -1.0032
  655MOL0     C88351   0.197  11.265   1.740  0.1081  0.2401 -0.4762
  655MOL0     C88352   0.078  11.337   1.805  0.0950  0.4366 -0.5728
  655MOL0     C88353   0.087  11.318   1.951 -0.2279  0.0693  0.0090
  655MOL0     C88354   0.064  11.181   1.997 -0.3947  0.3257  0.1607
  655MOL0     C88355   0.032  11.071   2.042 -0.6904  0.2307 -0.4830
  655MOL0     C88356   0.286  11.266   1.289  0.1280 -0.4088 -0.2743
  655MOL0     C88357   0.290  11.319   1.165 -0.4588 -0.0712  0.4753
  655MOL0     H88358   0.210  11.654   0.789 -2.1368  2.0165  0.4772
  655MOL0     H88359   0.193  11.842   0.632  1.1556  2.1213  0.0131
  655MOL0     H88360   0.160  12.032   0.586 -0.6415  1.3107  1.2842
  655MOL0     H88361   0.160  12.152   0.715 -2.1080 -0.0662 -0.6900
  655MOL0     H88362   0.221  12.185   0.419  3.7908  2.9634 -1.6314
  655MOL0     H88363   0.138  12.289   0.534 -0.1456  0.6046 -1.6501
  655MOL0     H88364   0.366  12.359   0.617  0.3749 -1.0985  0.5910
  655MOL0     H88365   0.443  12.259   0.496  0.7572  1.2251 -2.0336
  655MOL0     H88366   0.326  12.381   0.316  0.5038  0.1767  0.1947
  655MOL0     H88367   0.251  12.493   0.437  1.1219  1.4391 -0.2184
  655MOL0     H88368   0.444  12.606   0.333  0.2332  0.8208  1.6637
  655MOL0     H88369   0.446  12.585   0.501 -2.0129  2.5514 -1.0526
  655MOL0     H88370   0.610  12.387   0.485  3.2604  1.7930  0.9218
  655MOL0     H88371   0.593  12.419   0.309  0.3608  2.5663 -1.3147
  655MOL0     H88372   0.675  12.662   0.398 -0.1326 -1.2290  0.3579
  655MOL0     H88373   0.760  12.566   0.521  1.7378  2.9906 -0.5687
  655MOL0     H88374   0.915  12.599   0.320 -1.2768  1.1580 -2.3150
  655MOL0     H88375   0.797  12.525   0.220 -1.6487  1.6105  0.7131
  655MOL0     H88376   0.732  12.267   0.281 -0.0124  0.7112 -0.4339
  655MOL0     H88377   0.931  11.996   0.286  1.7600  3.5016 -0.8101
  655MOL0     H88378   0.986  11.993   0.457 -1.2743 -0.8429  2.3008
  655MOL0     H88379   0.725  12.053   0.484  0.2897 -0.6821  2.7498
  655MOL0     H88380   0.816  11.902   0.517 -0.2939  0.5126 -0.0816
  655MOL0     H88381   0.764  11.787   0.325 -2.0674 -0.7331 -2.3725
  655MOL0     H88382   0.713  11.931   0.236  1.4625 -0.5442 -0.5731
  655MOL0     H88383   0.567  11.829   0.473  2.5558 -0.8268 -0.3108
  655MOL0     H88384   0.558  11.748   0.304 -0.4592  1.8184 -2.7747
  655MOL0     H88385   0.347  11.673   0.365 -2.4543 -3.5176 -1.1624
  655MOL0     H88386   0.072  11.557   0.417  0.8823 -0.5059 -0.1697
  655MOL0     H88387   0.058  11.540   0.239  2.9514 -0.2795 -2.5058
  655MOL0     H88388   0.214  11.522   0.331 -0.4156 -1.5485  0.8588
  655MOL0     H88389  -0.365  11.878   0.318  0.1181  0.3651  0.1357
  655MOL0     H88390  -0.580  11.789   0.234 -0.4913  0.8078  0.5419
  655MOL0     H88391  -0.812  11.641  -0.045  1.6383 -0.4619  0.0777
  655MOL0     H88392  -0.766  11.662   0.118 -0.6058  0.7733  0.3904
  655MOL0     H88393  -0.816  11.895   0.113 -1.7876 -0.1786  0.4562
  655MOL0     H88394  -0.814  11.896  -0.068 -0.0044  2.7033  0.7631
  655MOL0     H88395  -1.005  11.737   0.098  2.5860 -3.2698 -2.7002
  655MOL0     H88396  -1.021  11.774  -0.070  0.9792  1.6099 -1.2668
  655MOL0     H88397  -1.048  11.975   0.164 -0.7738  3.1030  0.5717
  655MOL0     H88398  -1.038  12.033  -0.004  2.7647  0.8254  2.6020
  655MOL0     H88399  -1.263  11.853   0.137 -1.0173  1.1291 -0.6834
  655MOL0     H88400  -1.242  11.868  -0.041 -1.7010  0.0719 -0.1445
  655MOL0     H88401  -1.284  12.074   0.176  1.1669  0.1523 -0.1294
  655MOL0     H88402  -1.294  12.118  -0.005 -2.1490 -0.5507  0.4202
  655MOL0     H88403  -1.479  11.932   0.143  1.1401  0.1120 -0.7502
  655MOL0     H88404  -1.491  11.994  -0.031 -1.1815 -0.1987  0.5984
  655MOL0     H88405  -1.537  12.145   0.215 -0.2820  0.3811  1.1942
  655MOL0     H88406  -1.661  12.090   0.104  0.7545 -1.2202  1.8345
  655MOL0     H88407  -0.427  11.770  -0.162 -1.1299 -1.4290  0.6225
  655MOL0     H88408  -0.208  11.883  -0.079 -1.3198 -1.3904 -1.9625
  655MOL0     H88409   0.072  12.029   0.167 -0.5259 -1.0276  1.0218
  655MOL0     H88410   0.285  12.079   0.220 -0.1463  0.5276 -0.7258
  655MOL0     H88411   0.514  12.036   0.833 -1.5319  1.4320  2.3414
  655MOL0     H88412   0.535  11.870   0.996 -1.5775  0.1017  2.2035
  655MOL0     H88413   0.490  11.577   1.238 -0.9033  0.5334  4.0140
  655MOL0     H88414   0.491  11.485   1.442  0.6329 -0.3617  0.3543
  655MOL0     H88415   0.213  11.428   1.597  2.6614  0.3552 -1.6688
  655MOL0     H88416   0.134  11.279   1.539  0.3629 -1.1106 -0.0406
  655MOL0     H88417   0.285  11.286   1.802 -0.2283  2.1720 -0.5750
  655MOL0     H88418   0.172  11.159   1.736  1.7361 -0.1591 -0.9030
  655MOL0     H88419  -0.012  11.297   1.759  0.3883 -2.6196  1.2858
  655MOL0     H88420   0.104  11.441   1.779  5.0164 -0.9582 -2.4747
  655MOL0     H88421  -0.001  11.372   1.989  0.2658 -0.3655  1.9100
  655MOL0     H88422   0.183  11.354   1.988 -0.5824 -1.1054  2.2798
  655MOL0     H88423  -0.001  10.987   2.100  1.4278 -0.2444  0.1462
  655MOL0     H88424   0.224  11.177   1.302  0.3796 -0.2271  2.8783
  655MOL0     H88425   0.246  11.271   1.078  0.5322  0.1748 -0.1807
  656MOL0     O88426   3.067   8.953   2.413 -0.2777  0.6960 -0.4418
  656MOL0     C88427   3.003   9.015   2.499 -0.4178  0.1315 -0.4069
  656MOL0     O88428   3.048   9.076   2.612 -0.0186  0.1206 -0.4731
  656MOL0     C88429   3.182   9.047   2.643  0.4975  0.4262  1.1448
  656MOL0     C88430   3.220   8.909   2.654  0.5730  0.7088  0.5322
  656MOL0     C88431   3.352   8.883   2.696 -1.7880 -0.0220  0.2576
  656MOL0     C88432   3.443   8.989   2.721 -0.6053 -0.4100  0.4457
  656MOL0     O88433   3.568   8.960   2.755  0.4763 -1.0918  0.0723
  656MOL0     C88434   3.650   8.971   2.637  0.3546 -0.1835 -0.5117
  656MOL0     C88435   3.787   9.007   2.698 -0.4214 -0.0252  0.7681
  656MOL0     C88436   3.887   8.888   2.698  0.0565 -0.7010 -0.1584
  656MOL0     C88437   4.028   8.925   2.737 -0.3017  0.3167 -0.2618
  656MOL0     C88438   4.079   8.861   2.862 -0.6637  0.0990 -0.4002
  656MOL0     C88439   4.228   8.895   2.904  0.6305 -0.2173  0.2530
  656MOL0     C88440   4.276   8.825   3.033  0.5356 -0.3918  0.0379
  656MOL0     C88441   4.398   8.879   3.097  0.1121  0.0586  0.7153
  656MOL0     N88442   4.376   8.981   3.200  0.2190  0.3159 -0.5930
  656MOL0     C88443   4.460   9.079   3.232  0.3539 -0.5456  0.6696
  656MOL0     C88444   4.402   9.141   3.334 -0.0349  0.0648 -0.2022
  656MOL0     C88445   4.477   9.233   3.417  1.1984  0.5311  0.0972
  656MOL0     C88446   4.451   9.381   3.403  0.2776  0.6169 -0.2059
  656MOL0     C88447   4.480   9.444   3.265 -0.3599  0.3943 -0.6824
  656MOL0     C88448   4.367   9.421   3.175  0.1026 -0.0677  0.7934
  656MOL0     O88449   4.368   9.527   3.082 -0.4905  0.8129  0.2986
  656MOL0     C88450   4.280   9.540   2.980  0.4669  0.1760  0.9206
  656MOL0     C88451   4.186   9.438   2.947 -0.6473  1.0040  0.2402
  656MOL0     C88452   4.097   9.453   2.840  0.4843 -0.3266  0.4271
  656MOL0     C88453   3.994   9.336   2.811 -0.3708 -0.1001  0.4482
  656MOL0     C88454   4.108   9.563   2.753  0.4524 -0.0791  0.8273
  656MOL0     C88455   4.006   9.589   2.641 -0.6201  0.4245  0.7126
  656MOL0     O88456   3.959   9.712   2.643  0.0608  0.1383 -0.6083
  656MOL0     C88457   3.887   9.759   2.538  0.5338 -0.2188  0.2798
  656MOL0     C88458   3.760   9.802   2.567  0.0965  0.3536 -0.2875
  656MOL0     C88459   3.671   9.842   2.464 -1.0941 -0.4842 -0.5594
  656MOL0     C88460   3.725   9.835   2.325 -1.0344  0.0191 -0.1593
  656MOL0     O88461   3.653   9.848   2.203 -0.4643  0.1551 -0.4659
  656MOL0     C88462   3.610   9.731   2.146 -0.7927  0.1011  0.8906
  656MOL0     C88463   3.477   9.677   2.206 -1.1936  0.6838  1.0261
  656MOL0     C88464   3.423   9.553   2.126 -0.7706 -0.1245 -0.4096
  656MOL0     C88465   3.530   9.439   2.119  0.1800 -0.3993 -0.7621
  656MOL0     C88466   3.485   9.318   2.203  1.1670  0.7564  0.1244
  656MOL0     C88467   3.489   9.335   2.356  0.9432 -0.6329  0.3161
  656MOL0     C88468   3.623   9.397   2.406 -0.5911 -0.4324  0.2631
  656MOL0     C88469   3.625   9.430   2.555 -0.3701  0.5353  0.6135
  656MOL0    Cl88470   3.534   9.568   2.606  0.3127 -0.2882  0.3546
  656MOL0     C88471   3.863   9.818   2.304  0.8689  0.7437  0.6449
  656MOL0     C88472   3.938   9.768   2.407 -0.9352 -0.7029  0.2189
  656MOL0     O88473   3.978   9.500   2.556  0.2860  0.1293  0.1979
  656MOL0     C88474   4.215   9.652   2.778  0.2234 -0.3002 -1.2230
  656MOL0     C88475   4.288   9.651   2.897 -0.1314  0.1576  0.1519
  656MOL0     N88476   4.277   9.089   3.363 -0.3040  0.5638 -1.3392
  656MOL0     N88477   4.261   8.990   3.275  0.3793 -0.5848  0.1193
  656MOL0     C88478   3.401   9.121   2.721  0.0210 -0.0612  0.8891
  656MOL0     C88479   3.271   9.151   2.682 -0.5348  0.7592 -0.2617
  656MOL0     C88480   2.867   9.031   2.462  1.1031  0.8323  0.1508
  656MOL0     C88481   2.799   9.148   2.501  0.7513 -0.3014 -0.1006
  656MOL0     C88482   2.664   9.157   2.483 -0.4239 -1.1019 -0.1181
  656MOL0     C88483   2.583   9.067   2.419  0.3081  0.2618  0.6206
  656MOL0     O88484   2.445   9.076   2.407 -0.3251  0.1131 -0.3595
  656MOL0     C88485   2.390   9.193   2.349 -1.0481 -0.7780  0.3238
  656MOL0     C88486   2.421   9.198   2.194  1.3129 -0.7839  0.4702
  656MOL0     C88487   2.385   9.074   2.117 -0.4637 -0.1714 -0.4771
  656MOL0     C88488   2.420   9.077   1.968  0.2924  0.2455  0.1519
  656MOL0     C88489   2.336   9.169   1.897  0.2191 -0.5251 -1.2149
  656MOL0     C88490   2.277   9.258   1.839 -0.4008  0.1056 -0.4510
  656MOL0     C88491   2.650   8.957   2.377 -0.0846  0.7299 -0.8118
  656MOL0     C88492   2.782   8.937   2.400 -0.2834  0.8945  0.5843
  656MOL0     H88493   3.157   8.822   2.639 -3.0679  2.9085  1.8711
  656MOL0     H88494   3.378   8.778   2.689  4.4923  1.2328 -1.5037
  656MOL0     H88495   3.642   8.877   2.582  3.4358 -1.8928  1.6325
  656MOL0     H88496   3.625   9.062   2.582 -0.2596  0.3880  0.6518
  656MOL0     H88497   3.826   9.090   2.638  0.0731 -1.6655 -1.3039
  656MOL0     H88498   3.781   9.054   2.797  1.1242  3.7274 -0.7296
  656MOL0     H88499   3.847   8.800   2.750  1.6862 -1.1573  0.3797
  656MOL0     H88500   3.900   8.849   2.596 -1.7619  1.2347 -1.1903
  656MOL0     H88501   4.097   8.911   2.653  0.3794  0.6208  0.2320
  656MOL0     H88502   4.023   9.033   2.755 -1.0494  0.1713  0.4694
  656MOL0     H88503   4.010   8.892   2.941 -1.3842 -1.9128 -0.1954
  656MOL0     H88504   4.079   8.754   2.842  3.7537 -0.1537  0.0542
  656MOL0     H88505   4.290   8.861   2.820 -2.1270 -0.4400 -1.8692
  656MOL0     H88506   4.231   9.003   2.921  0.6638 -0.4574  1.8905
  656MOL0     H88507   4.187   8.844   3.093  0.1637 -0.0161 -0.6220
  656MOL0     H88508   4.296   8.721   3.003  0.7536  0.4945 -3.3452
  656MOL0     H88509   4.468   8.924   3.026  1.0929 -2.7453 -0.2484
  656MOL0     H88510   4.447   8.787   3.130 -1.1877 -1.9589 -2.4350
  656MOL0     H88511   4.554   9.093   3.179 -0.1345  0.6976  0.0849
  656MOL0     H88512   4.436   9.204   3.514 -0.4931 -0.2289 -0.8072
  656MOL0     H88513   4.585   9.216   3.408  1.0824 -1.7550  2.0931
  656MOL0     H88514   4.520   9.426   3.475  0.0420  1.2810 -0.3936
  656MOL0     H88515   4.355   9.398   3.451  0.8215 -2.5415  2.3735
  656MOL0     H88516   4.571   9.407   3.217 -1.2015 -1.9841 -0.6050
  656MOL0     H88517   4.500   9.550   3.284  1.3148  0.0212 -0.2582
  656MOL0     H88518   4.275   9.417   3.233  0.8079 -1.1848  1.8775
  656MOL0     H88519   4.387   9.324   3.129 -0.3348 -0.1343  0.7354
  656MOL0     H88520   4.186   9.344   3.001 -2.4702 -0.1858 -1.7013
  656MOL0     H88521   3.994   9.276   2.903 -4.2320  2.4678  2.4137
  656MOL0     H88522   3.892   9.376   2.815 -1.1718 -1.7433 -1.6890
  656MOL0     H88523   3.991   9.281   2.717 -0.3200  1.1755 -0.3197
  656MOL0     H88524   3.722   9.774   2.665 -1.9016  0.6531 -0.9418
  656MOL0     H88525   3.565   9.857   2.482 -1.3076 -0.4225 -1.8146
  656MOL0     H88526   3.589   9.760   2.043  0.6991 -3.2534 -0.5342
  656MOL0     H88527   3.690   9.657   2.149  1.4115  2.3118 -0.0353
  656MOL0     H88528   3.495   9.635   2.306 -0.8812  1.1309  1.1621
  656MOL0     H88529   3.401   9.756   2.209 -1.1394  0.7200  2.7478
  656MOL0     H88530   3.385   9.591   2.031 -2.1226  3.0461  1.2389
  656MOL0     H88531   3.337   9.518   2.184 -0.1802  0.3125  0.7637
  656MOL0     H88532   3.536   9.402   2.016 -0.5011 -1.6754 -0.3650
  656MOL0     H88533   3.631   9.466   2.152 -0.2411  0.2928 -0.0269
  656MOL0     H88534   3.553   9.238   2.175 -0.3459  0.1278 -2.0342
  656MOL0     H88535   3.386   9.292   2.166  1.8471 -1.1493 -0.4494
  656MOL0     H88536   3.401   9.382   2.402 -0.4569 -0.6168 -2.2095
  656MOL0     H88537   3.487   9.237   2.405  1.4198  0.3404  2.3885
  656MOL0     H88538   3.637   9.494   2.358 -2.9256  0.5331  1.3744
  656MOL0     H88539   3.704   9.329   2.378 -0.0513 -0.3477  1.5454
  656MOL0     H88540   3.729   9.447   2.585 -0.3237  1.3157  0.0361
  656MOL0     H88541   3.587   9.344   2.611  0.9711 -2.0996 -2.2426
  656MOL0     H88542   3.901   9.823   2.203 -0.5005  0.5000  0.1001
  656MOL0     H88543   4.040   9.731   2.396 -0.4653  0.2366  1.1871
  656MOL0     H88544   4.232   9.740   2.716  1.0433 -0.4986 -1.2982
  656MOL0     H88545   4.364   9.728   2.910 -2.3331  2.1759  1.8643
  656MOL0     H88546   3.463   9.209   2.734 -0.4445  0.7398 -1.7337
  656MOL0     H88547   3.244   9.256   2.679 -3.7321  0.0801  0.5916
  656MOL0     H88548   2.844   9.236   2.546  0.2046 -0.4305  0.7347
  656MOL0     H88549   2.628   9.252   2.523 -0.4923 -0.7466 -1.0063
  656MOL0     H88550   2.282   9.202   2.361 -0.9684 -0.5142  0.8919
  656MOL0     H88551   2.420   9.287   2.397  2.4589 -1.7107  0.2291
  656MOL0     H88552   2.530   9.212   2.194  0.9524  3.5908  1.6632
  656MOL0     H88553   2.384   9.288   2.144  3.6578 -0.2678 -0.5097
  656MOL0     H88554   2.285   9.029   2.124 -2.7083  3.8949 -2.6596
  656MOL0     H88555   2.457   9.003   2.159 -0.9283 -1.0662 -1.1586
  656MOL0     H88556   2.396   8.978   1.929  0.4733 -0.9283  2.7833
  656MOL0     H88557   2.521   9.110   1.942 -0.4367  1.2832 -1.5430
  656MOL0     H88558   2.228   9.331   1.778 -0.4986 -0.6108 -1.2459
  656MOL0     H88559   2.602   8.873   2.328  1.6547 -0.1252 -1.1209
  656MOL0     H88560   2.818   8.838   2.371  0.5883  1.4286 -0.2107
  657MOL0     O88561  11.109   2.147   2.256  0.5075  0.7005 -0.6506
  657MOL0     C88562  11.071   2.036   2.300 -1.0139 -0.8450  0.0614
  657MOL0     O88563  11.003   2.015   2.415 -0.1631 -0.2884 -0.4139
  657MOL0     C88564  10.949   2.134   2.476 -0.4378 -0.4405  0.6709
  657MOL0     C88565  10.819   2.136   2.499 -0.3627 -0.6132 -0.5938
  657MOL0     C88566  10.756   2.237   2.563  0.0352 -0.8074 -0.0851
  657MOL0     C88567  10.827   2.350   2.599 -0.3693 -0.3762  0.4841
  657MOL0     O88568  10.763   2.438   2.681 -0.5501  0.0283  0.6336
  657MOL0     C88569  10.830   2.525   2.777 -0.3921  0.4714 -0.4170
  657MOL0     C88570  10.735   2.627   2.829 -0.1363 -0.4455 -0.2926
  657MOL0     C88571  10.797   2.736   2.920  0.2409  0.3560 -0.3334
  657MOL0     C88572  10.846   2.865   2.851 -0.2821  0.4858 -0.1959
  657MOL0     C88573  10.901   2.962   2.958 -0.1234  0.7692  0.4048
  657MOL0     C88574  11.056   2.954   2.967  0.3702 -0.1752 -0.4792
  657MOL0     C88575  11.131   3.066   3.027  0.1376 -1.3948  0.4909
  657MOL0     C88576  11.101   3.078   3.175 -0.1511 -0.0030 -0.6435
  657MOL0     N88577  11.170   3.189   3.239 -0.8326  0.4730 -0.3259
  657MOL0     C88578  11.175   3.324   3.208 -0.1564  0.7860 -0.2896
  657MOL0     C88579  11.277   3.374   3.280 -0.2245  1.3169 -0.0808
  657MOL0     C88580  11.325   3.513   3.280  0.2043 -0.9341 -0.3014
  657MOL0     C88581  11.480   3.522   3.270  0.0724  0.7038  0.7288
  657MOL0     C88582  11.526   3.433   3.154  0.1076 -0.2952  0.1868
  657MOL0     C88583  11.666   3.464   3.104 -0.9614 -0.1854  0.1062
  657MOL0     O88584  11.749   3.359   3.149  0.0807 -0.7581 -0.1093
  657MOL0     C88585  11.766   3.244   3.076 -0.9582 -0.3644 -0.5174
  657MOL0     C88586  11.867   3.165   3.128  0.9886  0.5682  0.5223
  657MOL0     C88587  11.903   3.050   3.063 -1.3457 -0.0580  0.1704
  657MOL0     C88588  12.027   2.979   3.122 -0.8510 -0.6024  0.1596
  657MOL0     C88589  11.834   3.007   2.946  0.5101  0.5786 -0.1224
  657MOL0     C88590  11.852   2.872   2.870 -0.0083  0.7689  0.3063
  657MOL0     O88591  11.941   2.789   2.907 -0.9840  0.1612 -0.2164
  657MOL0     C88592  11.944   2.659   2.859  0.5686 -0.7366 -0.8977
  657MOL0     C88593  12.061   2.582   2.869 -0.6548 -0.1999  1.5965
  657MOL0     C88594  12.080   2.458   2.808  0.8206 -0.1968 -0.9863
  657MOL0     C88595  11.967   2.398   2.749 -0.4568  0.4040  0.5044
  657MOL0     O88596  11.972   2.273   2.691 -0.2685 -0.7660  0.3852
  657MOL0     C88597  12.086   2.189   2.717 -0.8168 -0.1197 -0.6771
  657MOL0     C88598  12.204   2.201   2.612  0.8164  0.4392 -0.5980
  657MOL0     C88599  12.174   2.124   2.486 -0.4125 -0.1019  0.1808
  657MOL0     C88600  12.297   2.061   2.413  0.5565 -0.2007  0.5989
  657MOL0     C88601  12.304   1.911   2.438 -0.5113 -0.1497  0.0798
  657MOL0     C88602  12.403   1.834   2.349  0.0833 -0.3295 -0.1808
  657MOL0     C88603  12.360   1.831   2.203  0.3201  0.1450  0.8394
  657MOL0     C88604  12.435   1.727   2.124 -0.6189 -0.4647 -0.4095
  657MOL0    Cl88605  12.344   1.574   2.153 -0.0979 -0.2021 -0.2017
  657MOL0     C88606  11.850   2.466   2.739  0.2457 -0.8560 -0.4568
  657MOL0     C88607  11.839   2.595   2.796 -0.5905  0.4991  0.5248
  657MOL0     O88608  11.787   2.867   2.767  0.2987 -1.3009 -0.1836
  657MOL0     C88609  11.715   3.075   2.924  0.1408 -0.9764 -0.0626
  657MOL0     C88610  11.679   3.200   2.982  0.1989 -0.0797 -0.0227
  657MOL0     N88611  11.327   3.276   3.357 -0.1244 -0.8390 -0.4569
  657MOL0     N88612  11.261   3.171   3.331  0.3646 -0.1804 -0.2692
  657MOL0     C88613  10.965   2.357   2.578  0.4484 -0.1374  0.0651
  657MOL0     C88614  11.023   2.242   2.530  1.0215  0.0031  0.5942
  657MOL0     C88615  11.090   1.920   2.224 -0.5386 -0.7237  1.4663
  657MOL0     C88616  11.192   1.904   2.125  1.7122 -0.3083  0.5468
  657MOL0     C88617  11.201   1.790   2.041 -0.1794  0.0738  0.5242
  657MOL0     C88618  11.127   1.679   2.054 -0.4520 -0.9624 -0.0415
  657MOL0     O88619  11.159   1.579   1.969  0.3165  0.2765 -0.1642
  657MOL0     C88620  11.085   1.456   1.975  0.1931  0.2886 -1.0052
  657MOL0     C88621  11.127   1.393   1.847 -0.7387 -0.3126  0.2108
  657MOL0     C88622  11.228   1.286   1.881  0.7066 -0.6197 -0.4669
  657MOL0     C88623  11.207   1.173   1.792 -0.3363  0.0499 -0.6832
  657MOL0     C88624  11.080   1.102   1.822  1.1264 -0.7487 -0.4756
  657MOL0     C88625  10.982   1.025   1.828 -0.8163  0.4857 -0.0866
  657MOL0     C88626  11.036   1.685   2.161 -0.0325 -0.3368 -0.3769
  657MOL0     C88627  11.020   1.799   2.242  0.7536  0.2122  0.5038
  657MOL0     H88628  10.758   2.048   2.482 -0.4521 -2.1290  5.2813
  657MOL0     H88629  10.656   2.213   2.596  0.6989 -2.4264  0.8525
  657MOL0     H88630  10.853   2.474   2.871 -3.8580  1.1957  0.9952
  657MOL0     H88631  10.920   2.575   2.740  1.0329  0.1188  2.3314
  657MOL0     H88632  10.691   2.688   2.749 -1.8976  1.0691  1.7359
  657MOL0     H88633  10.670   2.567   2.892  2.5222 -1.3247  1.7927
  657MOL0     H88634  10.720   2.771   2.990  1.0442 -0.1082  0.7994
  657MOL0     H88635  10.874   2.693   2.984 -1.1749  1.2298  2.1195
  657MOL0     H88636  10.925   2.836   2.781 -1.2526  0.8697 -1.4828
  657MOL0     H88637  10.769   2.925   2.802  1.0518  2.9084  0.5175
  657MOL0     H88638  10.866   3.061   2.927 -1.0320  0.4735  0.4493
  657MOL0     H88639  10.861   2.938   3.057 -0.1245 -0.0757  0.2029
  657MOL0     H88640  11.091   2.867   3.025  1.2061 -1.7923 -3.1928
  657MOL0     H88641  11.095   2.921   2.870  1.0556 -0.8544  0.0100
  657MOL0     H88642  11.235   3.037   3.008  0.2605 -0.9367  0.4361
  657MOL0     H88643  11.105   3.165   2.988  1.8193  0.2991  3.2463
  657MOL0     H88644  11.122   2.993   3.241 -0.7833  2.4235  2.9967
  657MOL0     H88645  10.995   3.102   3.181  0.5203  3.1253  2.7237
  657MOL0     H88646  11.104   3.366   3.138 -1.0956  1.2040  0.8697
  657MOL0     H88647  11.284   3.567   3.193  0.0548  1.3109  1.0785
  657MOL0     H88648  11.300   3.576   3.366 -1.7309 -0.6534 -1.0144
  657MOL0     H88649  11.533   3.485   3.359 -1.2431 -1.6141  0.6381
  657MOL0     H88650  11.500   3.627   3.248 -0.0369  0.4066 -0.8686
  657MOL0     H88651  11.462   3.421   3.066 -0.7889 -4.9933  1.1906
  657MOL0     H88652  11.541   3.331   3.191  2.4760  0.4979  1.6519
  657MOL0     H88653  11.707   3.552   3.153 -0.6103 -1.2149  1.7307
  657MOL0     H88654  11.663   3.496   2.999  1.3610  2.2379  0.6894
  657MOL0     H88655  11.916   3.206   3.216 -3.2180  3.2996  1.8951
  657MOL0     H88656  11.987   2.900   3.186 -2.0917 -0.3822 -0.2979
  657MOL0     H88657  12.098   2.936   3.052  1.3441  3.6294 -0.5579
  657MOL0     H88658  12.084   3.050   3.182  0.2145  0.2218 -1.7482
  657MOL0     H88659  12.150   2.627   2.913 -0.3921  3.3994 -2.0706
  657MOL0     H88660  12.179   2.415   2.815  0.3360 -1.2782 -0.5110
  657MOL0     H88661  12.125   2.191   2.819 -0.1364 -2.6575 -0.8206
  657MOL0     H88662  12.052   2.085   2.717 -1.6058  0.1192 -0.0088
  657MOL0     H88663  12.220   2.303   2.578  0.1780  0.3788 -1.0829
  657MOL0     H88664  12.291   2.157   2.663 -0.9663 -2.4882  0.1198
  657MOL0     H88665  12.107   2.183   2.423 -0.0220 -0.7368 -0.8638
  657MOL0     H88666  12.103   2.046   2.515 -2.5822  1.0131 -1.8214
  657MOL0     H88667  12.274   2.080   2.308  0.2215  1.7402  0.9693
  657MOL0     H88668  12.388   2.117   2.437 -0.5754  1.8976  0.2476
  657MOL0     H88669  12.215   1.858   2.404 -0.0124 -2.4412  2.1169
  657MOL0     H88670  12.320   1.892   2.544  0.3265 -1.3453 -0.2505
  657MOL0     H88671  12.503   1.879   2.354  0.0191 -0.1566 -0.4443
  657MOL0     H88672  12.425   1.736   2.392  0.4408  1.0431  3.0503
  657MOL0     H88673  12.381   1.928   2.156  2.0969 -0.3500  0.5287
  657MOL0     H88674  12.256   1.814   2.173  1.7361 -0.4575 -4.7129
  657MOL0     H88675  12.541   1.727   2.150 -0.0332  2.9558 -2.2904
  657MOL0     H88676  12.432   1.740   2.015  0.9335  0.8405 -0.3311
  657MOL0     H88677  11.775   2.419   2.676 -0.4230 -0.9883  0.4182
  657MOL0     H88678  11.743   2.644   2.785 -0.8687 -0.1327  0.1399
  657MOL0     H88679  11.651   3.035   2.846 -2.3199  1.5743  0.4917
  657MOL0     H88680  11.591   3.253   2.948  1.0463 -0.5081 -3.2232
  657MOL0     H88681  11.020   2.447   2.603 -0.9070  0.8496 -0.4102
  657MOL0     H88682  11.131   2.226   2.528  1.3243  1.4288  2.2901
  657MOL0     H88683  11.251   1.993   2.102 -0.5284  1.3651  0.9566
  657MOL0     H88684  11.260   1.788   1.950  0.4595 -1.4563  0.9332
  657MOL0     H88685  11.103   1.399   2.067  1.7560  1.7083 -0.3875
  657MOL0     H88686  10.979   1.484   1.970  0.2613  0.9987  0.8569
  657MOL0     H88687  11.161   1.453   1.761  0.9395 -2.9051 -1.0733
  657MOL0     H88688  11.042   1.352   1.792  0.4815  0.0074 -2.0684
  657MOL0     H88689  11.215   1.249   1.983 -1.3561 -0.5175 -0.6675
  657MOL0     H88690  11.328   1.327   1.864  0.5512  0.3391  0.8586
  657MOL0     H88691  11.298   1.113   1.791  0.1886  0.7895 -3.0263
  657MOL0     H88692  11.185   1.207   1.691 -1.9496 -1.1092 -0.7703
  657MOL0     H88693  10.911   0.945   1.819  0.0474 -0.3812  0.5207
  657MOL0     H88694  10.966   1.603   2.172 -0.7630  0.4116  0.8087
  657MOL0     H88695  10.954   1.802   2.329  0.5780  1.9434  0.3476
  658MOL0     O88696   4.854   7.658   4.134 -0.8245  0.2874 -0.5758
  658MOL0     C88697   4.781   7.568   4.101  0.4823 -0.9761 -0.4692
  658MOL0     O88698   4.641   7.577   4.115 -0.4379  0.0005  0.3246
  658MOL0     C88699   4.576   7.696   4.157  1.1495  0.8704 -0.1818
  658MOL0     C88700   4.464   7.687   4.238  0.3245  0.2013 -0.3705
  658MOL0     C88701   4.371   7.799   4.254 -0.3880  0.1047  0.0080
  658MOL0     C88702   4.399   7.922   4.186 -1.6116  0.0988 -0.6273
  658MOL0     O88703   4.304   8.019   4.194 -0.0438 -0.3098  0.1510
  658MOL0     C88704   4.316   8.124   4.096 -0.0971 -0.3503 -0.4094
  658MOL0     C88705   4.209   8.227   4.136 -0.2976  0.5089 -0.7180
  658MOL0     C88706   4.146   8.290   4.013  0.6823 -0.1302 -0.1653
  658MOL0     C88707   4.000   8.321   4.035  0.9945  0.2252 -0.1481
  658MOL0     C88708   3.949   8.397   3.918 -0.5798 -0.3923 -0.1062
  658MOL0     C88709   3.798   8.428   3.910  0.2802 -0.2340 -0.5692
  658MOL0     C88710   3.769   8.474   3.762  0.4302  0.4840 -0.2226
  658MOL0     C88711   3.631   8.537   3.736 -1.2032  0.2935  0.0236
  658MOL0     N88712   3.532   8.436   3.761  0.4415  0.2661 -0.0582
  658MOL0     C88713   3.544   8.293   3.760 -0.2655 -0.2332 -0.3005
  658MOL0     C88714   3.420   8.248   3.786 -0.2705  0.3330 -0.2284
  658MOL0     C88715   3.387   8.094   3.792  0.0788 -0.1744  0.1450
  658MOL0     C88716   3.449   8.033   3.914 -0.0367 -0.2025 -0.0794
  658MOL0     C88717   3.400   7.884   3.935  0.0568 -0.0778  0.0074
  658MOL0     C88718   3.432   7.843   4.080  0.2975 -0.5812 -0.7790
  658MOL0     O88719   3.334   7.751   4.119 -0.4446  0.7098 -0.4842
  658MOL0     C88720   3.349   7.682   4.240  0.3175  0.1166  0.8425
  658MOL0     C88721   3.447   7.706   4.342 -0.3840 -0.1423  0.6065
  658MOL0     C88722   3.449   7.633   4.453 -0.1194 -0.1671 -0.6989
  658MOL0     C88723   3.571   7.647   4.544 -0.0016 -0.4948  0.0392
  658MOL0     C88724   3.359   7.523   4.471 -1.1087  0.4729 -1.0095
  658MOL0     C88725   3.360   7.428   4.587 -0.1207  0.4498  0.0788
  658MOL0     O88726   3.291   7.314   4.562 -0.4346  0.5714  0.7545
  658MOL0     C88727   3.279   7.233   4.676 -0.5566 -0.2246 -0.2241
  658MOL0     C88728   3.157   7.251   4.753  0.3723 -0.2748 -0.1025
  658MOL0     C88729   3.150   7.157   4.858  0.3673  0.3514  0.7478
  658MOL0     C88730   3.247   7.064   4.887  0.0384  0.3246 -0.4593
  658MOL0     O88731   3.211   6.971   4.981  0.4615 -0.4343 -0.0006
  658MOL0     C88732   3.310   6.899   5.042 -0.4886  0.7035 -0.3395
  658MOL0     C88733   3.278   6.878   5.196  0.7681  0.5501  0.2954
  658MOL0     C88734   3.348   6.750   5.233  0.7671 -0.2048 -0.5486
  658MOL0     C88735   3.318   6.707   5.383  1.2692  0.4717  0.1550
  658MOL0     C88736   3.367   6.566   5.418 -0.6885  0.1525 -0.3011
  658MOL0     C88737   3.521   6.544   5.399  0.3521 -0.3269 -0.3204
  658MOL0     C88738   3.563   6.401   5.437 -0.7682  0.1970 -0.2666
  658MOL0     C88739   3.705   6.389   5.516  0.3667 -0.4419  0.2629
  658MOL0    Cl88740   3.850   6.428   5.402 -0.0602 -0.1974  0.2379
  658MOL0     C88741   3.367   7.070   4.823 -0.1928  0.1482 -0.9173
  658MOL0     C88742   3.377   7.146   4.721 -1.0219 -0.9175 -0.0490
  658MOL0     O88743   3.424   7.460   4.693  0.5832 -0.3201 -0.4095
  658MOL0     C88744   3.247   7.518   4.382  0.0984  1.7686 -0.3419
  658MOL0     C88745   3.247   7.586   4.261 -0.4019 -0.7568 -0.6000
  658MOL0     N88746   3.335   8.354   3.798  0.3953 -0.9584 -0.6830
  658MOL0     N88747   3.398   8.464   3.788  0.3403 -0.4798  0.5456
  658MOL0     C88748   4.528   7.939   4.118 -0.1032  0.2037  0.5011
  658MOL0     C88749   4.606   7.826   4.097 -0.6830  0.6106 -0.1071
  658MOL0     C88750   4.841   7.439   4.104 -0.8960 -0.9472  0.8200
  658MOL0     C88751   4.776   7.337   4.176  0.7685  1.1437  0.8205
  658MOL0     C88752   4.837   7.213   4.178  0.5022  0.3610 -0.6925
  658MOL0     C88753   4.967   7.198   4.122  0.4039  0.4274 -0.1213
  658MOL0     O88754   5.035   7.078   4.135  0.3108  0.2642 -0.2319
  658MOL0     C88755   5.020   7.001   4.016  0.1025 -0.0291 -0.2010
  658MOL0     C88756   5.096   6.870   4.041  0.1146 -0.4792  0.7579
  658MOL0     C88757   5.042   6.793   4.156  0.8280 -0.2984 -0.5709
  658MOL0     C88758   4.900   6.732   4.147  0.8225  0.8784  0.5793
  658MOL0     C88759   4.883   6.624   4.045  0.1646 -0.4546  0.8078
  658MOL0     C88760   4.871   6.538   3.963 -0.8166 -0.2527 -1.0947
  658MOL0     C88761   5.035   7.302   4.066  0.6775  0.9177 -0.5929
  658MOL0     C88762   4.977   7.423   4.057  0.9079  0.5157 -0.0420
  658MOL0     H88763   4.455   7.596   4.296  1.1370  1.4029  1.7238
  658MOL0     H88764   4.280   7.785   4.312 -1.1620 -1.2723 -1.4649
  658MOL0     H88765   4.410   8.180   4.108  0.0349 -0.3781 -1.2353
  658MOL0     H88766   4.297   8.099   3.991 -3.6895  0.2400 -0.0193
  658MOL0     H88767   4.132   8.174   4.193  0.6943 -1.7454 -1.3462
  658MOL0     H88768   4.256   8.302   4.200  2.0491  0.2661 -2.0453
  658MOL0     H88769   4.204   8.380   3.990 -1.2999  1.3864  0.4258
  658MOL0     H88770   4.148   8.219   3.930 -0.4743 -0.1378 -0.2069
  658MOL0     H88771   3.932   8.235   4.043  1.4050 -0.1094 -0.1752
  658MOL0     H88772   3.971   8.386   4.117  2.0273  0.2728  0.1888
  658MOL0     H88773   4.003   8.492   3.913 -1.5087  0.1231 -0.4649
  658MOL0     H88774   3.957   8.339   3.826 -0.2709 -0.2662 -0.1596
  658MOL0     H88775   3.733   8.344   3.936 -2.4543  1.6228 -0.8797
  658MOL0     H88776   3.775   8.514   3.975  0.9575  0.6110 -1.4150
  658MOL0     H88777   3.855   8.540   3.748  1.7346 -1.2806 -0.9046
  658MOL0     H88778   3.788   8.398   3.686 -1.5184 -2.3138  1.8698
  658MOL0     H88779   3.638   8.573   3.633 -0.6779 -1.2299 -0.4936
  658MOL0     H88780   3.618   8.626   3.800 -0.4274  1.0838 -0.8855
  658MOL0     H88781   3.629   8.232   3.733 -0.5817 -0.7508 -0.1314
  658MOL0     H88782   3.280   8.078   3.778  0.2168  0.4359 -1.7996
  658MOL0     H88783   3.436   8.041   3.710 -0.8049  0.1983 -0.6341
  658MOL0     H88784   3.427   8.092   4.004  0.8293  0.2415 -0.1499
  658MOL0     H88785   3.557   8.024   3.910 -0.2037 -2.6337 -0.9687
  658MOL0     H88786   3.475   7.830   3.877 -0.0269 -3.2483  2.5517
  658MOL0     H88787   3.297   7.867   3.903 -0.5842 -1.1697  2.3938
  658MOL0     H88788   3.444   7.924   4.152  0.7922  0.4838 -1.9978
  658MOL0     H88789   3.530   7.796   4.087 -1.1330 -3.6742 -0.1313
  658MOL0     H88790   3.528   7.778   4.335 -0.5455  0.2452  2.3780
  658MOL0     H88791   3.655   7.702   4.502 -0.1403  1.0658  1.6743
  658MOL0     H88792   3.532   7.712   4.623 -1.0145  1.7306 -2.1764
  658MOL0     H88793   3.603   7.546   4.573 -0.2131  0.1225  2.7820
  658MOL0     H88794   3.083   7.324   4.721 -0.2553 -1.3447 -1.1638
  658MOL0     H88795   3.065   7.140   4.924 -0.6131 -0.5651 -0.6993
  658MOL0     H88796   3.311   6.798   4.999 -0.8205  0.0213  1.1864
  658MOL0     H88797   3.409   6.943   5.045  0.5728 -1.5818  0.2611
  658MOL0     H88798   3.325   6.948   5.266  2.2976  0.2995 -0.4445
  658MOL0     H88799   3.170   6.867   5.212  0.6068 -3.5441 -2.2429
  658MOL0     H88800   3.456   6.765   5.235  0.4411  2.7242 -1.0718
  658MOL0     H88801   3.309   6.671   5.169  0.4609 -0.9970  0.5737
  658MOL0     H88802   3.354   6.775   5.460  2.7933 -1.7204  1.4822
  658MOL0     H88803   3.209   6.706   5.399  1.2872  1.3792  0.3945
  658MOL0     H88804   3.324   6.488   5.355  0.6958 -0.0923 -0.9783
  658MOL0     H88805   3.335   6.529   5.516 -3.2860  2.1825 -0.2483
  658MOL0     H88806   3.554   6.555   5.295  3.0148 -2.1811  0.2370
  658MOL0     H88807   3.573   6.623   5.453 -3.1729  0.9819  1.4581
  658MOL0     H88808   3.564   6.332   5.352 -1.0328 -0.7341  0.4705
  658MOL0     H88809   3.481   6.363   5.499 -1.2976  0.1002 -1.0137
  658MOL0     H88810   3.713   6.292   5.565  1.4855 -0.2966  0.4043
  658MOL0     H88811   3.699   6.453   5.605 -0.8648 -0.0834 -0.0623
  658MOL0     H88812   3.441   6.991   4.833 -1.4781 -0.9037  0.9414
  658MOL0     H88813   3.470   7.134   4.666 -1.3505 -0.9657 -0.6046
  658MOL0     H88814   3.165   7.448   4.400 -0.5034  2.1054 -1.6822
  658MOL0     H88815   3.169   7.570   4.187  0.0740 -1.1784 -1.0170
  658MOL0     H88816   4.551   8.032   4.068 -2.3553  0.2017 -0.6670
  658MOL0     H88817   4.676   7.832   4.014 -2.0822  3.5110 -1.2259
  658MOL0     H88818   4.678   7.357   4.220  1.4800  4.0555  1.3512
  658MOL0     H88819   4.797   7.122   4.222  2.8052 -0.2525  0.2803
  658MOL0     H88820   4.917   6.977   3.990  0.3004 -4.2238  2.0034
  658MOL0     H88821   5.053   7.055   3.927 -4.5327 -0.6817 -2.5893
  658MOL0     H88822   5.202   6.895   4.042  0.8776 -2.2337 -4.6900
  658MOL0     H88823   5.073   6.813   3.951 -3.2782  0.8934  0.6077
  658MOL0     H88824   5.050   6.857   4.244  2.2800 -1.6672  0.3523
  658MOL0     H88825   5.102   6.702   4.165 -0.9749 -1.3251  1.7376
  658MOL0     H88826   4.825   6.811   4.143  0.4172  0.5633  1.6803
  658MOL0     H88827   4.879   6.679   4.241  0.8651  0.3805  0.3120
  658MOL0     H88828   4.873   6.487   3.869 -0.4197 -2.2189 -0.0869
  658MOL0     H88829   5.127   7.282   4.011 -0.6931 -3.0925 -1.7582
  658MOL0     H88830   5.023   7.503   4.001  2.1764  0.4699  0.8992
  659MOL0     O88831   2.320   1.358   0.606 -0.4674 -0.1003 -0.6845
  659MOL0     C88832   2.283   1.288   0.702  0.1991  0.5171  0.8406
  659MOL0     O88833   2.279   1.151   0.700 -0.0175 -0.2191 -0.1922
  659MOL0     C88834   2.318   1.090   0.583 -0.9312  0.8187  0.7210
  659MOL0     C88835   2.452   1.045   0.564 -0.0270  0.3432  0.1088
  659MOL0     C88836   2.483   0.976   0.454 -0.5026 -0.4861 -0.2176
  659MOL0     C88837   2.390   0.944   0.351  0.8647  0.8514  0.3465
  659MOL0     O88838   2.420   0.854   0.247 -0.1245 -1.0550 -0.1091
  659MOL0     C88839   2.435   0.925   0.125 -0.4828  0.6164  0.5458
  659MOL0     C88840   2.572   0.980   0.098 -0.7760  0.0216 -0.1074
  659MOL0     C88841   2.692   0.881   0.145 -0.6420 -0.4884  0.1644
  659MOL0     C88842   2.818   0.871   0.043  0.2985 -0.3959  0.5638
  659MOL0     C88843   2.942   0.800   0.114  0.2312  0.5241  0.0392
  659MOL0     C88844   2.915   0.643   0.146 -0.2849 -1.2453 -0.4561
  659MOL0     C88845   3.022   0.595   0.249 -0.1998 -0.4566  0.3494
  659MOL0     C88846   3.173   0.627   0.238  0.3557 -0.0909  0.5812
  659MOL0     N88847   3.250   0.602   0.358  0.1240  0.0308 -0.8122
  659MOL0     C88848   3.225   0.630   0.492 -0.6782  0.2043  0.5373
  659MOL0     C88849   3.328   0.589   0.562 -0.4730  0.2415  0.7966
  659MOL0     C88850   3.358   0.622   0.703  0.2105  0.5173  0.6094
  659MOL0     C88851   3.339   0.775   0.729 -0.2357 -0.5163 -0.5697
  659MOL0     C88852   3.358   0.823   0.874 -0.8389 -0.1243  0.1271
  659MOL0     C88853   3.327   0.973   0.882 -1.0038 -0.1710 -0.1138
  659MOL0     O88854   3.423   1.054   0.813  0.2475 -0.9813 -0.0485
  659MOL0     C88855   3.383   1.156   0.728  0.2911  0.2557 -0.7238
  659MOL0     C88856   3.488   1.208   0.647  0.2273  0.2896  0.3840
  659MOL0     C88857   3.465   1.313   0.547  0.4455 -0.1347 -0.3241
  659MOL0     C88858   3.577   1.355   0.457 -1.0820 -0.2855 -0.2090
  659MOL0     C88859   3.329   1.361   0.533 -0.4110 -1.0044  0.8881
  659MOL0     C88860   3.289   1.464   0.439  1.6575 -0.9026 -0.5518
  659MOL0     O88861   3.184   1.549   0.491  0.1128 -0.3292  0.3465
  659MOL0     C88862   3.140   1.661   0.413  0.5553  0.5146 -0.6524
  659MOL0     C88863   3.063   1.741   0.492  0.2382 -0.9444  0.8870
  659MOL0     C88864   3.022   1.864   0.449  1.1824 -1.2724 -0.4724
  659MOL0     C88865   3.033   1.898   0.315  0.0920 -0.4866  0.0737
  659MOL0     O88866   2.968   2.012   0.282 -0.4407 -0.5570  0.7519
  659MOL0     C88867   2.911   2.020   0.142  0.1563 -0.8987 -0.2748
  659MOL0     C88868   2.810   2.140   0.148 -0.5080  0.0418  0.0995
  659MOL0     C88869   2.666   2.106   0.204 -0.0512 -0.3951  0.2487
  659MOL0     C88870   2.616   1.983   0.135  0.1123 -0.2336  0.4788
  659MOL0     C88871   2.470   1.940   0.162 -1.1346 -0.2854 -0.6556
  659MOL0     C88872   2.453   1.788   0.198 -0.4032 -0.2095 -0.4699
  659MOL0     C88873   2.314   1.737   0.202  0.0251  0.3423  0.3152
  659MOL0     C88874   2.257   1.721   0.055 -0.5049  0.5513 -0.3235
  659MOL0    Cl88875   2.086   1.705   0.051  0.0953  0.2015  0.3912
  659MOL0     C88876   3.100   1.809   0.227 -0.4378 -0.1333 -0.9901
  659MOL0     C88877   3.164   1.701   0.285 -0.1956  0.5372 -0.2157
  659MOL0     O88878   3.343   1.471   0.328 -0.6545 -1.0083 -0.0171
  659MOL0     C88879   3.229   1.316   0.623  0.2276 -0.1720 -0.4469
  659MOL0     C88880   3.255   1.211   0.717 -0.2126  0.5062  0.1559
  659MOL0     N88881   3.418   0.537   0.471  0.8150 -0.0929  0.7121
  659MOL0     N88882   3.370   0.538   0.348  0.2193 -0.3021 -0.1426
  659MOL0     C88883   2.250   0.977   0.376 -0.3987  0.6111  0.5453
  659MOL0     C88884   2.222   1.043   0.498  0.4563  0.5453  0.9603
  659MOL0     C88885   2.231   1.365   0.816  0.4208 -1.1849 -0.7950
  659MOL0     C88886   2.178   1.297   0.933 -0.3308 -0.7736 -0.2049
  659MOL0     C88887   2.119   1.373   1.042 -1.0477  0.6346  0.1666
  659MOL0     C88888   2.121   1.509   1.044  0.0272  0.5199 -0.2041
  659MOL0     O88889   2.066   1.583   1.145  0.0066 -0.4915  0.0224
  659MOL0     C88890   1.923   1.602   1.120 -0.2857 -0.6475 -0.3464
  659MOL0     C88891   1.869   1.720   1.208  1.0515 -0.5871 -0.5717
  659MOL0     C88892   1.933   1.853   1.156  0.1573  0.3661 -1.0948
  659MOL0     C88893   1.829   1.931   1.074 -0.2486 -0.8112  0.0283
  659MOL0     C88894   1.885   2.065   1.050  0.4157  0.5827 -0.2203
  659MOL0     C88895   1.918   2.176   1.016  0.4632  0.5322  0.1409
  659MOL0     C88896   2.188   1.571   0.937 -0.2418 -0.7536  0.2248
  659MOL0     C88897   2.240   1.508   0.827 -0.2992 -1.3085  0.0875
  659MOL0     H88898   2.532   1.078   0.629  0.0846  3.4230 -1.3929
  659MOL0     H88899   2.586   0.942   0.444 -1.1168 -1.6375 -4.1446
  659MOL0     H88900   2.426   0.846   0.050 -2.0128 -0.3324  1.6603
  659MOL0     H88901   2.355   0.997   0.107 -1.0865  0.0354  0.8690
  659MOL0     H88902   2.592   1.003  -0.007 -0.0759 -0.7061 -0.1467
  659MOL0     H88903   2.586   1.068   0.162  3.5083 -1.4612  1.3586
  659MOL0     H88904   2.725   0.909   0.245 -4.6928 -0.6288  1.7322
  659MOL0     H88905   2.657   0.779   0.164 -1.3906 -0.9321 -3.0836
  659MOL0     H88906   2.796   0.815  -0.048  0.4871  0.7197 -0.1989
  659MOL0     H88907   2.850   0.973   0.018 -2.0764  0.2091 -0.2769
  659MOL0     H88908   3.028   0.802   0.046 -0.4429 -0.5744 -0.8856
  659MOL0     H88909   2.974   0.858   0.201  0.0326  3.8331 -1.9296
  659MOL0     H88910   2.817   0.642   0.195  0.6246  1.6806  1.7094
  659MOL0     H88911   2.918   0.585   0.053  0.6080  2.2185 -2.7956
  659MOL0     H88912   2.985   0.620   0.348  0.5395 -2.7932  1.2990
  659MOL0     H88913   3.020   0.485   0.248 -2.3339 -0.4789 -0.9491
  659MOL0     H88914   3.194   0.730   0.208  0.6597  0.2070  1.7544
  659MOL0     H88915   3.215   0.552   0.170  1.5746 -1.4619  2.7382
  659MOL0     H88916   3.137   0.670   0.541 -1.6369  0.0658 -0.9881
  659MOL0     H88917   3.283   0.569   0.762 -1.0529  2.8024  1.1499
  659MOL0     H88918   3.455   0.580   0.732 -0.2294 -0.3390  0.8645
  659MOL0     H88919   3.243   0.809   0.687  0.8507  2.4891 -0.8806
  659MOL0     H88920   3.422   0.820   0.674 -0.5517 -1.6599 -2.0420
  659MOL0     H88921   3.461   0.799   0.902  0.2104  2.5621 -1.1048
  659MOL0     H88922   3.278   0.767   0.923 -1.0890 -1.0249 -1.2357
  659MOL0     H88923   3.327   1.004   0.987 -3.9974 -1.2541  0.2988
  659MOL0     H88924   3.223   0.985   0.850 -1.3712  0.7152  1.2916
  659MOL0     H88925   3.590   1.171   0.639  0.3914  0.8286 -0.0948
  659MOL0     H88926   3.668   1.296   0.473 -1.1061 -0.4418 -0.6380
  659MOL0     H88927   3.547   1.354   0.352 -2.0691  2.4798 -0.0379
  659MOL0     H88928   3.617   1.455   0.478 -0.0298 -0.7854  0.3030
  659MOL0     H88929   3.052   1.728   0.600  0.6784 -0.1480  1.0377
  659MOL0     H88930   2.975   1.935   0.515  0.7417 -0.5323 -1.5449
  659MOL0     H88931   2.993   2.034   0.070  2.0699 -0.9809  1.7804
  659MOL0     H88932   2.866   1.922   0.120 -0.9154 -0.5897  0.4759
  659MOL0     H88933   2.858   2.219   0.207  2.1318  1.0341 -3.0357
  659MOL0     H88934   2.799   2.186   0.049 -0.3101 -1.1608 -0.4947
  659MOL0     H88935   2.597   2.190   0.190  0.2685 -0.4438 -1.8548
  659MOL0     H88936   2.683   2.095   0.312  0.8714 -0.2777  0.1235
  659MOL0     H88937   2.638   2.011   0.031  0.1769  3.4659  1.3278
  659MOL0     H88938   2.677   1.896   0.160 -0.5580 -0.2391  2.2519
  659MOL0     H88939   2.417   1.961   0.069 -0.1604  1.0889 -0.9429
  659MOL0     H88940   2.428   1.993   0.247  0.6721 -1.8091  1.2880
  659MOL0     H88941   2.506   1.729   0.122  0.0335  1.1579 -1.2756
  659MOL0     H88942   2.505   1.761   0.290  1.9271 -0.1969 -1.6819
  659MOL0     H88943   2.257   1.807   0.265  0.9802  0.5353  0.9802
  659MOL0     H88944   2.311   1.643   0.257 -1.9570 -1.4124 -2.5333
  659MOL0     H88945   2.301   1.628   0.018 -1.2321  0.8886 -2.1414
  659MOL0     H88946   2.283   1.789  -0.026  2.3069  0.3016  0.2670
  659MOL0     H88947   3.104   1.828   0.120 -2.2444  0.4639 -0.9721
  659MOL0     H88948   3.232   1.647   0.220  0.2976 -1.3269  1.7202
  659MOL0     H88949   3.125   1.348   0.616  0.3906  0.4514 -0.1170
  659MOL0     H88950   3.187   1.178   0.795 -2.7703 -1.0974 -2.5382
  659MOL0     H88951   2.164   0.941   0.320 -2.3602  2.8251  1.9365
  659MOL0     H88952   2.117   1.053   0.520 -0.1578  0.7827 -1.7593
  659MOL0     H88953   2.184   1.190   0.951 -2.7778 -0.8967  0.1960
  659MOL0     H88954   2.073   1.319   1.124 -2.2057  2.6491  0.9280
  659MOL0     H88955   1.896   1.631   1.018 -2.0325  5.1767  1.3872
  659MOL0     H88956   1.872   1.510   1.150 -2.1863  0.1144 -1.1119
  659MOL0     H88957   1.890   1.701   1.313  0.6502  2.4546  0.1310
  659MOL0     H88958   1.766   1.753   1.195  1.2972 -0.0069 -1.1189
  659MOL0     H88959   2.033   1.835   1.115  0.4889 -0.6991  0.1309
  659MOL0     H88960   1.947   1.910   1.249  0.1653 -0.4743 -0.5712
  659MOL0     H88961   1.733   1.933   1.125  0.7916 -1.7226  2.1670
  659MOL0     H88962   1.810   1.885   0.976  0.4666 -0.2575 -0.3753
  659MOL0     H88963   1.942   2.280   1.021  0.6663  0.4370  1.8902
  659MOL0     H88964   2.199   1.679   0.943  2.7293 -0.8554 -1.5814
  659MOL0     H88965   2.283   1.566   0.746 -0.9428  0.0388  0.6819
  660MOL0     O88966   8.237  10.561   4.413  0.3584  0.1467  0.6917
  660MOL0     C88967   8.308  10.527   4.316 -0.2759  0.0573 -0.2229
  660MOL0     O88968   8.444  10.554   4.305  0.0044 -0.2949 -0.4312
  660MOL0     C88969   8.513  10.619   4.411  2.0833  0.2710  0.8586
  660MOL0     C88970   8.605  10.702   4.366  0.0625  0.0552 -0.5897
  660MOL0     C88971   8.664  10.789   4.460  0.0753  0.3896 -1.0628
  660MOL0     C88972   8.652  10.770   4.604  0.5871 -0.3892 -0.0679
  660MOL0     O88973   8.700  10.833   4.718 -0.4143  0.9973 -0.2068
  660MOL0     C88974   8.769  10.957   4.710  0.3720 -0.1398  0.2034
  660MOL0     C88975   8.878  10.968   4.821 -0.3570  0.6020  0.2040
  660MOL0     C88976   8.805  10.963   4.959  0.1315  0.8700 -0.1080
  660MOL0     C88977   8.893  11.024   5.064 -0.2369 -1.0244 -0.0892
  660MOL0     C88978   9.019  10.941   5.078 -0.5880 -0.2559 -0.8214
  660MOL0     C88979   9.128  11.027   5.145 -0.4389 -0.2740 -0.1349
  660MOL0     C88980   9.259  10.949   5.148 -0.7934 -0.4879  0.4432
  660MOL0     C88981   9.364  11.051   5.207  0.4380 -0.5202 -0.5132
  660MOL0     N88982   9.507  11.004   5.182  0.3882 -0.6700 -0.1243
  660MOL0     C88983   9.583  10.939   5.271  0.8723  0.8609 -0.0343
  660MOL0     C88984   9.682  10.905   5.190 -1.0097  0.4842 -0.3423
  660MOL0     C88985   9.818  10.833   5.225  0.5481 -0.2364  0.1870
  660MOL0     C88986   9.795  10.685   5.237 -0.3641  0.3762  0.2180
  660MOL0     C88987   9.923  10.608   5.278 -0.1449 -0.1276 -0.1129
  660MOL0     C88988   9.881  10.460   5.303  1.2846  0.0639 -0.0556
  660MOL0     O88989   9.999  10.403   5.351  0.1256 -0.0627 -0.0836
  660MOL0     C88990  10.003  10.272   5.394 -0.1708 -0.0154  0.4811
  660MOL0     C88991  10.101  10.226   5.488 -0.1544  0.1988 -0.3186
  660MOL0     C88992  10.113  10.085   5.521  0.5451 -0.1613  0.2644
  660MOL0     C88993  10.209  10.047   5.617  0.4676  0.3856 -0.5446
  660MOL0     C88994  10.028   9.990   5.459 -0.6460  0.5225  0.0360
  660MOL0     C88995  10.042   9.849   5.490 -0.5653 -0.5888  0.0545
  660MOL0     O88996   9.930   9.777   5.484 -1.0972 -0.0803  0.8309
  660MOL0     C88997   9.928   9.640   5.503  0.9922 -0.3046 -0.2764
  660MOL0     C88998   9.833   9.588   5.598  0.4191 -0.5667  0.1881
  660MOL0     C88999   9.811   9.453   5.614 -0.5552 -0.0626 -0.3363
  660MOL0     C89000   9.887   9.356   5.547 -0.2568 -0.9909 -1.0303
  660MOL0     O89001   9.855   9.226   5.589  0.8247 -0.6436 -0.5023
  660MOL0     C89002   9.932   9.135   5.524 -0.2149  1.2170 -0.2819
  660MOL0     C89003   9.908   8.999   5.558 -0.6553  0.6079 -0.2845
  660MOL0     C89004   9.769   8.951   5.520 -0.1508  1.0809 -0.3864
  660MOL0     C89005   9.756   8.800   5.542  0.5371 -0.5725 -0.3553
  660MOL0     C89006   9.609   8.744   5.519  0.4961 -0.5422  0.1864
  660MOL0     C89007   9.605   8.606   5.576 -0.3299 -0.9473 -0.4557
  660MOL0     C89008   9.492   8.515   5.528 -0.0583  0.2715  0.1960
  660MOL0     C89009   9.525   8.374   5.555  0.0321 -0.2606  0.6364
  660MOL0    Cl89010   9.397   8.262   5.494 -0.5384 -0.4592  0.2878
  660MOL0     C89011   9.965   9.405   5.441  0.1771  0.0463  0.8664
  660MOL0     C89012   9.986   9.547   5.422 -0.7056  0.0551  0.2005
  660MOL0     O89013  10.156   9.805   5.485  0.1022  0.4685 -0.1450
  660MOL0     C89014   9.921  10.036   5.384 -1.1195 -0.4534 -0.3653
  660MOL0     C89015   9.915  10.175   5.349 -0.2776 -0.6307  0.3972
  660MOL0     N89016   9.662  10.944   5.060  0.7447 -0.9830 -0.8466
  660MOL0     N89017   9.555  11.008   5.063  0.1420 -0.1142 -0.5685
  660MOL0     C89018   8.559  10.675   4.639  0.1639  0.6740 -0.2007
  660MOL0     C89019   8.481  10.604   4.547 -0.3760  0.3103 -0.8308
  660MOL0     C89020   8.242  10.456   4.201 -0.0915 -0.2019 -0.5078
  660MOL0     C89021   8.102  10.434   4.203  0.7040  0.1003  0.0897
  660MOL0     C89022   8.042  10.372   4.088  0.5916  0.3551  1.0678
  660MOL0     C89023   8.122  10.329   3.988  0.1912  0.3197  0.2642
  660MOL0     O89024   8.065  10.265   3.886  0.3145 -0.0029 -0.1053
  660MOL0     C89025   8.136  10.140   3.845  0.5838 -0.9977 -0.7753
  660MOL0     C89026   8.202  10.153   3.713 -0.6044  0.0766  0.1253
  660MOL0     C89027   8.104  10.169   3.600  0.0663  0.5073  0.1760
  660MOL0     C89028   8.166  10.163   3.460 -0.1646 -0.5926 -1.2635
  660MOL0     C89029   8.231  10.039   3.430  0.8289 -0.1273 -0.0855
  660MOL0     C89030   8.296   9.945   3.394  0.6040  0.7839  0.3560
  660MOL0     C89031   8.264  10.342   3.987  0.8288  0.4824  0.4953
  660MOL0     C89032   8.316  10.409   4.093  0.0838 -0.1307 -0.1656
  660MOL0     H89033   8.612  10.726   4.260 -1.4151  1.2553 -0.4590
  660MOL0     H89034   8.711  10.880   4.424  2.9205  0.9922  3.4673
  660MOL0     H89035   8.819  10.965   4.613 -2.0598  2.6387 -0.9907
  660MOL0     H89036   8.702  11.043   4.717  1.0019  0.3246  0.6996
  660MOL0     H89037   8.950  10.886   4.814 -0.6807  0.1475  1.7553
  660MOL0     H89038   8.933  11.061   4.804  0.1632 -0.0700 -2.0767
  660MOL0     H89039   8.713  11.021   4.951 -0.0522  0.8521  1.4824
  660MOL0     H89040   8.791  10.858   4.989  3.0013  0.3866 -0.1607
  660MOL0     H89041   8.921  11.128   5.042 -0.6757 -1.3323 -2.3933
  660MOL0     H89042   8.841  11.030   5.160  2.4865  0.9541  1.3831
  660MOL0     H89043   9.005  10.854   5.143  0.0466 -0.2935 -0.7271
  660MOL0     H89044   9.054  10.898   4.984 -1.0905 -0.4185 -0.9360
  660MOL0     H89045   9.135  11.127   5.099  0.6917  0.0484  0.6924
  660MOL0     H89046   9.111  11.032   5.253  0.1946  0.6325 -0.0623
  660MOL0     H89047   9.254  10.850   5.193 -2.1984 -0.0803  1.2768
  660MOL0     H89048   9.285  10.931   5.043 -3.4691 -3.1999  0.1076
  660MOL0     H89049   9.358  11.052   5.316  0.5681 -2.7011 -0.4388
  660MOL0     H89050   9.349  11.153   5.171 -0.6746 -0.0315  1.2339
  660MOL0     H89051   9.568  10.928   5.378 -1.5485  0.5585 -0.3433
  660MOL0     H89052   9.897  10.856   5.152  1.2939 -2.0935  0.3341
  660MOL0     H89053   9.844  10.860   5.328 -0.0372 -4.2821  1.6029
  660MOL0     H89054   9.775  10.652   5.134  3.1173  2.2528 -1.2531
  660MOL0     H89055   9.715  10.666   5.309 -1.3286 -1.2185 -1.1985
  660MOL0     H89056   9.964  10.661   5.364 -1.0990  1.5396 -0.6341
  660MOL0     H89057   9.999  10.624   5.201 -0.6262  2.5882 -0.1286
  660MOL0     H89058   9.854  10.407   5.212 -2.0622  1.0597  0.2356
  660MOL0     H89059   9.800  10.457   5.377  0.7509  2.3155 -0.4768
  660MOL0     H89060  10.177  10.291   5.529  2.6011 -4.2073  2.4399
  660MOL0     H89061  10.280   9.975   5.577  1.5631 -1.2118  3.7684
  660MOL0     H89062  10.250  10.142   5.654 -0.3789  0.7077 -0.4005
  660MOL0     H89063  10.158  10.007   5.705 -1.6792  1.3774 -1.2672
  660MOL0     H89064   9.784   9.651   5.671 -1.3845 -1.7939  0.0949
  660MOL0     H89065   9.732   9.415   5.678  0.3535  0.0826  0.9255
  660MOL0     H89066   9.925   9.143   5.416 -1.9310 -2.6228 -0.5856
  660MOL0     H89067  10.036   9.152   5.553 -1.1040  0.8991  3.6701
  660MOL0     H89068   9.978   8.941   5.498 -2.5492 -3.8767  1.3724
  660MOL0     H89069   9.940   8.975   5.660 -0.3493  0.5778 -0.3853
  660MOL0     H89070   9.741   8.965   5.415 -2.6121 -5.4221 -1.0506
  660MOL0     H89071   9.697   9.000   5.587  2.4728 -0.7786  4.2330
  660MOL0     H89072   9.816   8.750   5.465  2.0287  0.5875  0.0210
  660MOL0     H89073   9.808   8.773   5.635  0.4907 -2.1447 -0.7478
  660MOL0     H89074   9.594   8.749   5.411 -0.3180 -1.9589  0.2062
  660MOL0     H89075   9.536   8.803   5.576  1.8575 -1.3807  3.0097
  660MOL0     H89076   9.698   8.558   5.545  0.5949  0.5806 -0.1824
  660MOL0     H89077   9.598   8.605   5.685  0.6570 -2.2526 -0.3875
  660MOL0     H89078   9.484   8.523   5.419 -3.2389 -1.0068  0.2162
  660MOL0     H89079   9.394   8.547   5.563 -1.5135 -1.1132 -2.3034
  660MOL0     H89080   9.545   8.361   5.661  1.4520  1.4262  0.6182
  660MOL0     H89081   9.613   8.349   5.496 -0.4597 -2.4270  0.7234
  660MOL0     H89082  10.016   9.333   5.378 -1.2205  0.2083 -0.4922
  660MOL0     H89083  10.055   9.576   5.343 -2.0830 -3.4856 -2.5469
  660MOL0     H89084   9.851   9.966   5.340 -6.0807  2.4352  2.1158
  660MOL0     H89085   9.833  10.199   5.282 -0.8542 -2.3245  0.4551
  660MOL0     H89086   8.532  10.658   4.743  0.4057 -1.0802 -0.3974
  660MOL0     H89087   8.408  10.533   4.586  3.5904 -3.1075  1.2767
  660MOL0     H89088   8.038  10.454   4.288  2.5991  1.3101  1.2983
  660MOL0     H89089   7.938  10.348   4.065  0.7826 -0.0110  0.5827
  660MOL0     H89090   8.214  10.113   3.916 -0.3974  0.2095  0.8287
  660MOL0     H89091   8.064  10.058   3.847 -0.9143  0.2787  1.1637
  660MOL0     H89092   8.274  10.072   3.699 -0.2414  0.5227 -0.6657
  660MOL0     H89093   8.266  10.242   3.716 -1.7612  1.0872 -2.2959
  660MOL0     H89094   8.052  10.264   3.615  0.4337  0.7288  0.0832
  660MOL0     H89095   8.033  10.086   3.594 -1.7761  2.1268 -3.0515
  660MOL0     H89096   8.247  10.236   3.451  1.4485 -1.2613  3.9916
  660MOL0     H89097   8.092  10.176   3.381 -3.3034 -0.6346  1.4035
  660MOL0     H89098   8.345   9.859   3.353 -2.2261 -1.4567  1.3625
  660MOL0     H89099   8.324  10.304   3.905 -0.2582 -2.5826  0.9835
  660MOL0     H89100   8.421  10.433   4.106 -0.4919  3.2935 -0.9883
  661MOL0     O89101   0.377   1.992  11.060  0.7680  1.2885 -0.3222
  661MOL0     C89102   0.328   1.969  11.170  0.8060  0.8231 -0.4945
  661MOL0     O89103   0.336   1.853  11.240  0.2230  0.3012  0.0830
  661MOL0     C89104   0.396   1.753  11.162 -0.1509 -0.1727 -0.0299
  661MOL0     C89105   0.534   1.721  11.177 -0.0971  0.1718 -0.4309
  661MOL0     C89106   0.580   1.613  11.105  0.4599  0.9537 -0.4307
  661MOL0     C89107   0.495   1.528  11.032 -0.1330  0.0993  0.0057
  661MOL0     O89108   0.547   1.420  10.962 -0.3531 -0.3113 -0.5736
  661MOL0     C89109   0.487   1.380  10.839  0.3995 -0.2886  0.4672
  661MOL0     C89110   0.588   1.320  10.761  0.5185  0.6092  0.1596
  661MOL0     C89111   0.538   1.298  10.615  0.3453  0.2304 -0.5153
  661MOL0     C89112   0.414   1.221  10.605 -0.6938  0.2598  0.7773
  661MOL0     C89113   0.407   1.158  10.472 -0.9028  0.1504 -0.2674
  661MOL0     C89114   0.271   1.081  10.474  0.5673 -0.0604 -0.0641
  661MOL0     C89115   0.256   0.999  10.348  0.3982 -0.5364  0.1928
  661MOL0     C89116   0.131   0.908  10.343 -0.8580  0.8191  0.4487
  661MOL0     N89117  -0.007   0.975  10.362 -1.0954 -0.1623  0.4140
  661MOL0     C89118  -0.062   1.056  10.456  0.0405  0.9515 -0.1838
  661MOL0     C89119  -0.186   1.084  10.413  0.2806 -0.4670 -0.4339
  661MOL0     C89120  -0.296   1.166  10.473  0.8047 -0.7644 -0.2445
  661MOL0     C89121  -0.396   1.074  10.555 -0.7280 -0.0373 -0.8244
  661MOL0     C89122  -0.485   0.985  10.464 -0.6186 -0.1271  0.2920
  661MOL0     C89123  -0.572   1.055  10.356 -0.5832  0.2357 -1.0035
  661MOL0     O89124  -0.666   1.121  10.436  0.7826  0.0795  0.5344
  661MOL0     C89125  -0.779   1.153  10.354  0.2095 -0.1796 -0.3866
  661MOL0     C89126  -0.772   1.233  10.240  0.0476 -0.2301  1.1235
  661MOL0     C89127  -0.875   1.241  10.142  0.1808 -0.1612 -0.3540
  661MOL0     C89128  -0.843   1.312  10.010  0.0510 -0.4802  0.6958
  661MOL0     C89129  -1.000   1.172  10.178  0.6873  0.0302  1.3476
  661MOL0     C89130  -1.134   1.179  10.100  0.0056 -0.6887  0.0298
  661MOL0     O89131  -1.232   1.085  10.128 -0.1022 -0.6080  0.2311
  661MOL0     C89132  -1.359   1.093  10.074  0.0053 -0.5141  0.1220
  661MOL0     C89133  -1.439   1.210  10.071 -0.0573 -0.2231 -0.1826
  661MOL0     C89134  -1.558   1.219  10.005  0.8378 -0.3264 -1.1197
  661MOL0     C89135  -1.626   1.101   9.970 -0.1019 -0.8609  0.4940
  661MOL0     O89136  -1.747   1.121   9.909  0.1276  0.3354 -0.7220
  661MOL0     C89137  -1.858   1.024   9.928  0.2789 -0.8727  0.8231
  661MOL0     C89138  -1.990   1.087   9.881  0.4003  0.7939  0.4496
  661MOL0     C89139  -2.103   0.994   9.890  0.5314  0.2435 -0.0620
  661MOL0     C89140  -2.236   1.053   9.880 -0.7244 -0.0291  0.5283
  661MOL0     C89141  -2.256   1.118   9.734 -0.0690 -0.6252  0.3748
  661MOL0     C89142  -2.268   1.031   9.612 -0.1092 -0.5935  0.2920
  661MOL0     C89143  -2.138   0.998   9.539  0.5747  0.3813  0.1208
  661MOL0     C89144  -2.164   0.953   9.391 -0.1582  0.4391 -0.5449
  661MOL0    Cl89145  -2.268   0.817   9.409  0.0134 -0.3992 -0.1671
  661MOL0     C89146  -1.559   0.978  10.001  0.7218  0.3437  0.0874
  661MOL0     C89147  -1.432   0.972  10.053  0.5228  0.2740 -0.2201
  661MOL0     O89148  -1.142   1.262  10.008 -0.1958 -0.3384  0.1663
  661MOL0     C89149  -1.017   1.098  10.294  0.0818 -0.7294 -0.7823
  661MOL0     C89150  -0.907   1.091  10.381 -0.5285 -0.8453  0.0339
  661MOL0     N89151  -0.204   1.020  10.296  0.7440  0.5203  0.5159
  661MOL0     N89152  -0.105   0.942  10.271 -0.7721 -0.1516  0.0395
  661MOL0     C89153   0.356   1.562  11.028 -0.3108 -0.1829 -0.4576
  661MOL0     C89154   0.316   1.682  11.084 -0.2651  0.1699 -0.1270
  661MOL0     C89155   0.239   2.068  11.238 -0.4439 -0.2999 -0.7083
  661MOL0     C89156   0.139   2.010  11.322  0.3508 -0.6177 -0.4485
  661MOL0     C89157   0.056   2.092  11.383 -0.2609 -0.3133 -0.0588
  661MOL0     C89158   0.058   2.233  11.353 -0.5675  0.3606  0.1918
  661MOL0     O89159  -0.026   2.317  11.414 -0.2708 -0.1937  0.0910
  661MOL0     C89160  -0.166   2.283  11.431  0.2587  0.7294  0.4666
  661MOL0     C89161  -0.193   2.310  11.580 -0.6816  0.7343  1.1014
  661MOL0     C89162  -0.326   2.274  11.644 -0.3083  0.0735  0.0550
  661MOL0     C89163  -0.434   2.379  11.612 -0.0510  0.2665  0.5780
  661MOL0     C89164  -0.531   2.392  11.719 -0.2987 -0.6222  0.6729
  661MOL0     C89165  -0.609   2.408  11.814 -0.8128 -0.5521 -0.8645
  661MOL0     C89166   0.153   2.286  11.260 -0.1108  0.1150  0.4125
  661MOL0     C89167   0.243   2.200  11.202 -0.3099  0.9195 -0.2452
  661MOL0     H89168   0.603   1.765  11.248  1.7733 -1.9319 -0.8417
  661MOL0     H89169   0.687   1.595  11.093 -0.1572 -2.7963 -1.5626
  661MOL0     H89170   0.402   1.315  10.860 -0.0717  0.4748  0.9526
  661MOL0     H89171   0.454   1.462  10.775 -1.7008 -1.3587  0.0951
  661MOL0     H89172   0.677   1.383  10.751 -1.4845  3.2719 -3.0092
  661MOL0     H89173   0.611   1.229  10.816 -0.0926  2.6347  4.1009
  661MOL0     H89174   0.513   1.401  10.588 -1.5138  0.5253  1.9741
  661MOL0     H89175   0.621   1.261  10.553  0.6068  0.5897 -0.3824
  661MOL0     H89176   0.414   1.136  10.674  0.7735 -1.8249 -1.5822
  661MOL0     H89177   0.333   1.293  10.621  0.4590  2.0750 -1.0666
  661MOL0     H89178   0.409   1.225  10.386  2.2369 -1.5003 -1.6359
  661MOL0     H89179   0.492   1.089  10.463  1.1044  2.1972  1.8334
  661MOL0     H89180   0.268   1.021  10.565  1.5619  3.3590  2.4296
  661MOL0     H89181   0.186   1.150  10.475 -2.0352 -3.0052 -0.3870
  661MOL0     H89182   0.248   1.084  10.280 -0.7999 -0.1921  0.7403
  661MOL0     H89183   0.346   0.937  10.351  0.8739  0.1728  2.2278
  661MOL0     H89184   0.146   0.832  10.421  2.1196  2.4813  1.6320
  661MOL0     H89185   0.134   0.863  10.244  1.5125  1.0495  0.3620
  661MOL0     H89186  -0.014   1.087  10.549 -2.7414  0.6613  1.4785
  661MOL0     H89187  -0.247   1.235  10.542 -1.0813  1.5803 -1.1154
  661MOL0     H89188  -0.348   1.224  10.396  0.6192  0.5970  0.8708
  661MOL0     H89189  -0.472   1.131  10.610  1.6042  3.0819 -0.6133
  661MOL0     H89190  -0.346   1.010  10.629  0.9311  3.3605  1.2068
  661MOL0     H89191  -0.550   0.924  10.529 -0.5274  0.9210  1.3974
  661MOL0     H89192  -0.430   0.909  10.408 -0.8553 -1.1595  1.3996
  661MOL0     H89193  -0.614   0.978  10.291 -2.7787  0.3364  0.1919
  661MOL0     H89194  -0.510   1.112  10.287  1.9039 -0.7295  0.3210
  661MOL0     H89195  -0.687   1.286  10.198  1.3372 -2.0003  1.3636
  661MOL0     H89196  -0.844   1.421  10.018 -0.1343 -0.1628 -2.4754
  661MOL0     H89197  -0.743   1.274   9.988  0.0122 -0.5607  0.6579
  661MOL0     H89198  -0.899   1.271   9.926 -2.9094 -1.7318  3.0978
  661MOL0     H89199  -1.405   1.309  10.097 -0.2332 -0.0909 -0.4471
  661MOL0     H89200  -1.602   1.316   9.985  0.2260 -0.2645  0.3898
  661MOL0     H89201  -1.852   0.933   9.868 -2.1657 -0.8440  0.4095
  661MOL0     H89202  -1.869   1.005  10.035  0.1923 -2.7562  0.5062
  661MOL0     H89203  -2.018   1.178   9.935  2.0731  2.2411 -1.0319
  661MOL0     H89204  -1.972   1.107   9.775 -1.0083 -0.0027  0.0283
  661MOL0     H89205  -2.086   0.948   9.988  0.1128 -0.8700 -0.5000
  661MOL0     H89206  -2.104   0.912   9.818 -3.1069 -2.8854  3.0959
  661MOL0     H89207  -2.315   0.978   9.892 -3.0559  2.5227  2.4452
  661MOL0     H89208  -2.256   1.125   9.960 -1.1520  0.1012  0.3115
  661MOL0     H89209  -2.173   1.187   9.714 -1.3993  0.0901 -3.5185
  661MOL0     H89210  -2.351   1.172   9.733 -0.5383 -1.3768 -2.1366
  661MOL0     H89211  -2.312   0.933   9.629 -0.2329 -1.1435 -2.6545
  661MOL0     H89212  -2.332   1.082   9.539  0.2327 -1.8866 -0.9732
  661MOL0     H89213  -2.084   0.914   9.584  2.3573  0.8869 -1.0012
  661MOL0     H89214  -2.070   1.084   9.542  0.1460  0.7132  0.4751
  661MOL0     H89215  -2.069   0.930   9.341  0.8245  0.6151  1.1786
  661MOL0     H89216  -2.216   1.030   9.335 -1.9824  0.9678  1.7203
  661MOL0     H89217  -1.614   0.887   9.977 -2.4063  1.7486  1.3175
  661MOL0     H89218  -1.387   0.873  10.060  1.0657  0.4410 -1.1529
  661MOL0     H89219  -1.106   1.045  10.324 -1.2643  2.1997  0.8359
  661MOL0     H89220  -0.908   1.019  10.463 -0.1131  0.1454  0.9310
  661MOL0     H89221   0.294   1.496  10.968 -0.2865 -2.0293  1.4308
  661MOL0     H89222   0.215   1.719  11.067  0.5641  2.1544 -1.0921
  661MOL0     H89223   0.127   1.903  11.338 -1.3606 -0.8986 -3.1025
  661MOL0     H89224  -0.020   2.063  11.455 -2.4580  3.4217 -0.5810
  661MOL0     H89225  -0.231   2.346  11.371 -1.5527 -0.8493  0.6850
  661MOL0     H89226  -0.194   2.180  11.406  3.4758 -0.2516  0.4298
  661MOL0     H89227  -0.172   2.415  11.602  1.7652 -0.2263  4.0244
  661MOL0     H89228  -0.122   2.251  11.638  0.4847  1.4022  0.3948
  661MOL0     H89229  -0.308   2.272  11.752 -0.0867  1.0241  0.0434
  661MOL0     H89230  -0.351   2.172  11.615  0.9460 -0.3716  0.4720
  661MOL0     H89231  -0.490   2.348  11.523 -2.0744  1.0978  1.5136
  661MOL0     H89232  -0.387   2.477  11.604  1.8721 -0.4035  2.6810
  661MOL0     H89233  -0.679   2.418  11.895  1.7741  0.1141  1.4605
  661MOL0     H89234   0.153   2.389  11.224  1.9888  0.6133  1.6258
  661MOL0     H89235   0.313   2.223  11.123  0.5622 -1.7686 -0.3686
  662MOL0     O89236   0.858   7.248   2.769  0.5609 -0.6506 -0.3034
  662MOL0     C89237   0.778   7.338   2.805  0.3792 -0.1843  0.3052
  662MOL0     O89238   0.655   7.320   2.862  0.5930  0.8931 -0.5386
  662MOL0     C89239   0.624   7.184   2.868 -0.0143 -0.3105  0.2304
  662MOL0     C89240   0.624   7.124   2.989 -0.4663  1.7067 -0.9511
  662MOL0     C89241   0.578   6.988   2.991 -1.3003  0.7311 -1.0895
  662MOL0     C89242   0.527   6.917   2.886 -0.0904  0.0859 -0.2080
  662MOL0     O89243   0.472   6.790   2.897  0.6760 -0.7282  0.1441
  662MOL0     C89244   0.463   6.730   3.026 -0.9916  0.4989 -0.5962
  662MOL0     C89245   0.365   6.605   3.037 -0.5746 -0.1517  0.4499
  662MOL0     C89246   0.222   6.644   2.998  0.3278 -0.3658  0.3680
  662MOL0     C89247   0.166   6.527   2.918 -0.2906 -0.0511 -0.2779
  662MOL0     C89248   0.222   6.501   2.777 -0.4858  0.4539  0.0249
  662MOL0     C89249   0.121   6.446   2.673 -0.5611  0.0766 -0.2142
  662MOL0     C89250   0.185   6.440   2.537 -0.7354  0.3718  0.3197
  662MOL0     C89251   0.107   6.347   2.437  0.0283 -0.2509  1.0002
  662MOL0     N89252  -0.033   6.393   2.412 -0.1431  0.3004  0.5080
  662MOL0     C89253  -0.147   6.352   2.475  0.1231  0.2066  0.1279
  662MOL0     C89254  -0.252   6.416   2.409  0.2037 -0.5131  0.4690
  662MOL0     C89255  -0.404   6.408   2.422  0.1080 -0.3668 -0.4306
  662MOL0     C89256  -0.458   6.289   2.349  0.2786 -0.2051  0.0219
  662MOL0     C89257  -0.472   6.165   2.441 -0.9227 -0.4295 -1.7999
  662MOL0     C89258  -0.493   6.038   2.361 -0.3727  0.1392  0.6374
  662MOL0     O89259  -0.445   5.916   2.431 -0.2797 -0.5088 -0.2858
  662MOL0     C89260  -0.537   5.839   2.490 -0.1202 -0.3326  0.1415
  662MOL0     C89261  -0.668   5.885   2.532 -0.4096 -0.8054 -0.7883
  662MOL0     C89262  -0.769   5.798   2.581  0.0654  0.4344 -0.5672
  662MOL0     C89263  -0.902   5.861   2.613  0.5498 -0.7078  1.2208
  662MOL0     C89264  -0.724   5.665   2.598  0.0455 -0.3940  0.7971
  662MOL0     C89265  -0.825   5.564   2.654 -0.1791  0.3575 -0.4435
  662MOL0     O89266  -0.776   5.432   2.664  0.1775 -0.2374  0.1057
  662MOL0     C89267  -0.847   5.336   2.735  0.1353 -0.3503  0.4366
  662MOL0     C89268  -0.791   5.275   2.842  0.0286 -0.1625 -0.4851
  662MOL0     C89269  -0.863   5.176   2.911  0.4800 -0.0262  0.0828
  662MOL0     C89270  -1.006   5.155   2.886  0.7015  0.2670  0.8057
  662MOL0     O89271  -1.087   5.077   2.966 -0.0321  0.1828  0.0527
  662MOL0     C89272  -1.037   4.964   3.034 -0.1621 -0.6537 -0.8417
  662MOL0     C89273  -1.138   4.849   3.034  0.6062  0.4946 -0.1172
  662MOL0     C89274  -1.279   4.902   3.072 -0.6628  0.2382 -1.7255
  662MOL0     C89275  -1.379   4.778   3.075 -1.5087  0.2295 -0.1972
  662MOL0     C89276  -1.371   4.713   3.212  0.0739 -0.5381 -0.0272
  662MOL0     C89277  -1.476   4.600   3.212  0.2077 -0.3298 -0.3461
  662MOL0     C89278  -1.516   4.555   3.357 -0.1884  0.8125 -0.6739
  662MOL0     C89279  -1.401   4.486   3.442  0.8765 -0.5211  0.0521
  662MOL0    Cl89280  -1.436   4.527   3.606 -0.1065  0.1462  0.1990
  662MOL0     C89281  -1.061   5.220   2.777 -0.7771  0.1689  0.0714
  662MOL0     C89282  -0.984   5.309   2.709  0.4131  0.8086  0.5294
  662MOL0     O89283  -0.934   5.603   2.689  0.0606  0.0694  0.2987
  662MOL0     C89284  -0.598   5.618   2.567  0.1723 -0.5873 -0.0326
  662MOL0     C89285  -0.504   5.704   2.510  0.5383 -0.0190  0.7099
  662MOL0     N89286  -0.193   6.481   2.296 -0.0258 -0.7587 -0.8054
  662MOL0     N89287  -0.069   6.470   2.309 -0.3921  0.7430  1.2245
  662MOL0     C89288   0.530   6.980   2.761 -0.1217 -0.6903 -0.5038
  662MOL0     C89289   0.571   7.114   2.754  0.7352 -0.9553  0.0784
  662MOL0     C89290   0.826   7.480   2.800 -0.6229  0.0821 -0.2070
  662MOL0     C89291   0.957   7.506   2.748 -0.3201 -0.7746  0.5817
  662MOL0     C89292   1.001   7.641   2.726  0.6504 -0.8029 -1.3267
  662MOL0     C89293   0.915   7.746   2.765  1.2938 -0.1916  0.2709
  662MOL0     O89294   0.970   7.875   2.747 -0.3791 -0.0521  0.1653
  662MOL0     C89295   0.881   7.992   2.777 -0.1001 -0.4064 -0.5895
  662MOL0     C89296   0.961   8.117   2.736 -0.2738  0.6387  0.1283
  662MOL0     C89297   0.972   8.117   2.587  0.0986  0.1186  0.1757
  662MOL0     C89298   0.977   8.265   2.541  0.2211  0.3222  0.3480
  662MOL0     C89299   1.107   8.331   2.558  0.6334  0.1505  0.1034
  662MOL0     C89300   1.215   8.390   2.555  0.1696  0.2446  0.0572
  662MOL0     C89301   0.784   7.727   2.798 -0.2646  0.0946 -0.8949
  662MOL0     C89302   0.739   7.591   2.827 -0.5582 -0.5305  0.6476
  662MOL0     H89303   0.645   7.185   3.076  0.7031  0.1925 -0.1135
  662MOL0     H89304   0.585   6.953   3.093 -0.2144 -0.7149 -1.6151
  662MOL0     H89305   0.564   6.698   3.050 -1.3445 -0.8404 -0.8427
  662MOL0     H89306   0.439   6.785   3.118  1.3442 -0.4754  0.6696
  662MOL0     H89307   0.410   6.524   2.979  1.2870 -1.1842  3.1200
  662MOL0     H89308   0.357   6.577   3.143  0.5518  0.1439  0.6348
  662MOL0     H89309   0.142   6.659   3.071  0.4744  1.3677  0.2247
  662MOL0     H89310   0.231   6.733   2.934  1.1892  0.4944  1.6182
  662MOL0     H89311   0.169   6.436   2.979 -3.1121 -2.6751 -3.6223
  662MOL0     H89312   0.060   6.551   2.902 -1.3618 -1.9704  2.9131
  662MOL0     H89313   0.266   6.595   2.743  1.5022 -1.4368 -3.0735
  662MOL0     H89314   0.309   6.435   2.794 -2.4966 -1.6001  3.7204
  662MOL0     H89315   0.089   6.344   2.700  1.3160 -1.3418 -2.8675
  662MOL0     H89316   0.029   6.504   2.669 -1.6530 -0.8211  4.8601
  662MOL0     H89317   0.175   6.543   2.501 -3.4101 -0.1477 -0.6709
  662MOL0     H89318   0.287   6.401   2.533 -1.8312 -3.0211  1.6960
  662MOL0     H89319   0.099   6.250   2.488  2.6767 -0.6672  0.7347
  662MOL0     H89320   0.167   6.340   2.346  1.9232  3.3464  1.7935
  662MOL0     H89321  -0.158   6.274   2.550  1.2084  0.8506  1.0004
  662MOL0     H89322  -0.432   6.413   2.528  4.0773 -2.3682  0.9138
  662MOL0     H89323  -0.452   6.491   2.371 -0.7202  0.2568  1.2782
  662MOL0     H89324  -0.395   6.254   2.267 -2.7084 -1.2505 -2.0063
  662MOL0     H89325  -0.559   6.306   2.310 -0.3542 -1.9516  0.7902
  662MOL0     H89326  -0.544   6.172   2.523  1.0535  0.6860 -0.0384
  662MOL0     H89327  -0.382   6.155   2.503  0.2485  4.6633 -2.2240
  662MOL0     H89328  -0.430   6.054   2.274  1.8388  0.0115  2.1303
  662MOL0     H89329  -0.601   6.033   2.342 -0.3228  0.5221  0.2499
  662MOL0     H89330  -0.682   5.992   2.539 -0.7542 -0.9373  1.9072
  662MOL0     H89331  -0.903   5.962   2.569  2.5307 -0.3084  1.9789
  662MOL0     H89332  -0.992   5.804   2.591 -3.0353  4.3548  0.9622
  662MOL0     H89333  -0.921   5.878   2.719 -1.8760 -0.7509  0.8554
  662MOL0     H89334  -0.686   5.299   2.857 -0.5030  1.9492  0.2388
  662MOL0     H89335  -0.818   5.133   3.000  1.8526  1.1120 -0.0258
  662MOL0     H89336  -0.940   4.946   2.986  0.5297 -1.1638  0.6954
  662MOL0     H89337  -1.025   4.980   3.141  1.3629 -1.9386 -0.7732
  662MOL0     H89338  -1.154   4.793   2.942  0.0999 -0.8093  0.7462
  662MOL0     H89339  -1.102   4.784   3.113  0.8480  1.9933  1.0508
  662MOL0     H89340  -1.313   4.976   2.999 -3.1202  0.9099 -0.0247
  662MOL0     H89341  -1.269   4.954   3.167  3.2723 -1.7405 -0.8598
  662MOL0     H89342  -1.474   4.830   3.056 -2.4852 -1.1305  0.7672
  662MOL0     H89343  -1.360   4.706   2.995  1.8177 -1.1819  1.6550
  662MOL0     H89344  -1.399   4.793   3.281  0.0653  0.9403 -1.6616
  662MOL0     H89345  -1.275   4.676   3.250  1.0476  2.1363  0.3206
  662MOL0     H89346  -1.572   4.628   3.168 -1.1556  0.8382  3.0686
  662MOL0     H89347  -1.433   4.524   3.145  0.3742  1.0265 -1.8445
  662MOL0     H89348  -1.601   4.486   3.354  1.0042 -0.8044  0.5577
  662MOL0     H89349  -1.540   4.645   3.415  0.5363  1.4422 -1.3249
  662MOL0     H89350  -1.305   4.517   3.401 -0.6673  1.7856 -2.0823
  662MOL0     H89351  -1.411   4.377   3.444 -1.8077 -0.3516 -0.5321
  662MOL0     H89352  -1.163   5.229   2.742  0.7879  1.5811 -5.0696
  662MOL0     H89353  -1.035   5.360   2.627  0.4635  0.7943  0.4891
  662MOL0     H89354  -0.567   5.514   2.576 -3.2544 -1.8913 -1.4185
  662MOL0     H89355  -0.412   5.669   2.465 -0.7219 -2.8855  0.1248
  662MOL0     H89356   0.498   6.919   2.678 -0.2297  0.5213 -1.3812
  662MOL0     H89357   0.543   7.152   2.656  1.0924  0.5752  0.5526
  662MOL0     H89358   1.023   7.426   2.715  0.1358 -0.2033  0.0817
  662MOL0     H89359   1.092   7.651   2.668  1.1657 -2.4585 -0.8472
  662MOL0     H89360   0.790   7.983   2.717  0.8965  0.7801 -2.3713
  662MOL0     H89361   0.840   7.998   2.878 -4.5042 -0.5850 -2.1548
  662MOL0     H89362   1.061   8.125   2.780 -0.4400  1.8238  0.3419
  662MOL0     H89363   0.903   8.198   2.782  0.4479  0.3238  1.6810
  662MOL0     H89364   0.888   8.062   2.545 -0.7068 -0.7838  2.7692
  662MOL0     H89365   1.069   8.077   2.556 -0.1136  1.1181 -1.9124
  662MOL0     H89366   0.897   8.319   2.594 -1.3999 -0.0120 -1.6493
  662MOL0     H89367   0.953   8.271   2.435 -0.0104  0.9535  0.4287
  662MOL0     H89368   1.284   8.471   2.560  0.9534 -0.0665 -3.3606
  662MOL0     H89369   0.720   7.811   2.824  1.1330  0.9400 -0.0934
  662MOL0     H89370   0.638   7.581   2.866 -3.3075  2.1294 -4.6850
  663MOL0     O89371   3.467  10.950   2.848  0.0314 -0.0564  0.3391
  663MOL0     C89372   3.441  10.833   2.811 -0.0493 -0.2280 -0.2429
  663MOL0     O89373   3.425  10.795   2.680 -0.0642 -0.6566 -0.0689
  663MOL0     C89374   3.384  10.877   2.581  0.8665  0.8580  0.0959
  663MOL0     C89375   3.278  10.967   2.609 -0.0554  0.0967 -0.1011
  663MOL0     C89376   3.248  11.070   2.522 -0.3358  0.5284  0.3440
  663MOL0     C89377   3.312  11.076   2.394 -0.0834  0.5836 -0.4210
  663MOL0     O89378   3.266  11.169   2.303  0.3830 -0.2272  0.8750
  663MOL0     C89379   3.315  11.169   2.169  0.2817  0.6670  0.5323
  663MOL0     C89380   3.243  11.277   2.082 -0.2871 -0.1017  0.0720
  663MOL0     C89381   3.304  11.290   1.940  0.2846 -0.3495  1.4999
  663MOL0     C89382   3.206  11.373   1.850 -0.5394  0.4817  0.1618
  663MOL0     C89383   3.279  11.442   1.725  0.5137 -0.3273  0.1302
  663MOL0     C89384   3.329  11.338   1.625 -0.0244 -0.3992 -0.2191
  663MOL0     C89385   3.365  11.402   1.491  0.1447  0.6131  0.0134
  663MOL0     C89386   3.413  11.307   1.388  0.3129  0.0447 -0.4965
  663MOL0     N89387   3.555  11.261   1.401 -0.3045  0.4739 -0.0501
  663MOL0     C89388   3.574  11.135   1.442  0.0822 -0.1278  0.3448
  663MOL0     C89389   3.690  11.111   1.386  0.1510 -0.2849  0.1256
  663MOL0     C89390   3.752  10.982   1.418  0.4356  0.6317  0.2100
  663MOL0     C89391   3.890  10.995   1.485 -0.0298  0.5666 -0.3016
  663MOL0     C89392   3.899  11.067   1.618 -0.3265 -0.4650  0.5364
  663MOL0     C89393   4.046  11.117   1.647 -0.9198  1.1760 -0.9143
  663MOL0     O89394   4.138  11.000   1.639  0.3140  0.1475  0.0517
  663MOL0     C89395   4.227  10.988   1.745 -0.1975  0.8450  0.2764
  663MOL0     C89396   4.360  11.030   1.730 -0.7849  0.1461 -1.0820
  663MOL0     C89397   4.459  11.028   1.832 -0.1136 -0.2125 -1.0758
  663MOL0     C89398   4.600  11.089   1.800  0.7853  0.4716  0.2217
  663MOL0     C89399   4.407  10.978   1.953 -1.2440  0.7521  0.0523
  663MOL0     C89400   4.504  10.972   2.066  0.3450 -0.1865 -0.3773
  663MOL0     O89401   4.615  11.044   2.072 -0.5441  0.9922  0.1876
  663MOL0     C89402   4.701  11.030   2.185  0.1244  0.4757 -0.1645
  663MOL0     C89403   4.658  11.026   2.316 -0.0838 -0.7310  1.3358
  663MOL0     C89404   4.755  11.003   2.414  0.0989 -0.0800  0.5275
  663MOL0     C89405   4.889  11.008   2.397 -0.0479  0.8412  0.6294
  663MOL0     O89406   4.965  10.969   2.503 -0.7797 -0.0928 -0.1057
  663MOL0     C89407   5.077  10.890   2.473 -0.5883  0.1323  0.4618
  663MOL0     C89408   5.141  10.875   2.608  0.0136 -0.6330 -0.0516
  663MOL0     C89409   5.263  10.783   2.621 -1.0898  0.5974  0.7936
  663MOL0     C89410   5.389  10.851   2.569  1.0038  0.1957 -0.2169
  663MOL0     C89411   5.516  10.787   2.627 -0.8479  0.1759 -0.1311
  663MOL0     C89412   5.640  10.853   2.585 -0.1058 -0.4936  0.3123
  663MOL0     C89413   5.767  10.798   2.642 -0.9685  0.5357  0.4681
  663MOL0     C89414   5.879  10.909   2.657  0.5295  0.3709 -0.0383
  663MOL0    Cl89415   6.045  10.834   2.644 -0.2981 -0.0327 -0.2352
  663MOL0     C89416   4.931  11.012   2.262 -0.0554  0.2277  0.5000
  663MOL0     C89417   4.838  11.022   2.155  0.3815 -0.0914  0.4788
  663MOL0     O89418   4.473  10.882   2.145 -0.3836 -0.2697 -0.0399
  663MOL0     C89419   4.280  10.913   1.961 -0.4516 -0.9981  0.1429
  663MOL0     C89420   4.189  10.929   1.861 -0.4086 -0.7083 -0.0624
  663MOL0     N89421   3.742  11.233   1.329 -0.9679  0.2821 -0.2538
  663MOL0     N89422   3.658  11.329   1.342 -0.1291  0.4407  0.4962
  663MOL0     C89423   3.408  10.975   2.365  0.3788  0.4117  0.7741
  663MOL0     C89424   3.444  10.880   2.456 -1.5443 -0.1442 -0.4081
  663MOL0     C89425   3.431  10.727   2.914 -0.7985  0.2368  1.0168
  663MOL0     C89426   3.380  10.594   2.896  0.4831 -0.7036 -0.4540
  663MOL0     C89427   3.381  10.499   2.996  1.1258 -1.0961 -0.6648
  663MOL0     C89428   3.425  10.521   3.133 -0.6903  0.0740 -0.6125
  663MOL0     O89429   3.430  10.427   3.239 -1.8817 -0.3866 -1.1303
  663MOL0     C89430   3.401  10.283   3.216 -0.1440 -0.3995 -0.3560
  663MOL0     C89431   3.370  10.204   3.346  1.0756 -0.4825 -0.9651
  663MOL0     C89432   3.342  10.064   3.310  0.0188 -0.3555 -0.1109
  663MOL0     C89433   3.463   9.974   3.275  0.0156 -0.1519  0.1592
  663MOL0     C89434   3.554   9.943   3.387 -0.0899 -0.3878 -1.1364
  663MOL0     C89435   3.641   9.943   3.471 -0.2010  0.3394 -0.3015
  663MOL0     C89436   3.476  10.658   3.153 -0.2674  0.1214  0.5826
  663MOL0     C89437   3.483  10.757   3.043 -0.6890  0.9421 -0.1761
  663MOL0     H89438   3.234  10.961   2.708  2.9623  0.0200  1.3617
  663MOL0     H89439   3.158  11.130   2.523 -1.1999 -0.5695 -2.3270
  663MOL0     H89440   3.422  11.190   2.155  0.7688 -1.3580  0.9211
  663MOL0     H89441   3.295  11.069   2.129 -2.5523  0.3039  2.6059
  663MOL0     H89442   3.139  11.244   2.078  0.0446 -1.8838  3.1073
  663MOL0     H89443   3.250  11.373   2.132  1.2459 -0.5504  0.7604
  663MOL0     H89444   3.393  11.353   1.949  0.7462 -0.6963 -0.2626
  663MOL0     H89445   3.332  11.190   1.905 -1.6114 -0.6538  0.7378
  663MOL0     H89446   3.129  11.302   1.820 -1.0858  0.7273  0.9613
  663MOL0     H89447   3.149  11.443   1.911 -0.2808  1.7168 -0.9791
  663MOL0     H89448   3.216  11.523   1.687  2.0696  1.3196  0.9452
  663MOL0     H89449   3.367  11.492   1.767  0.3677  0.4082 -0.4290
  663MOL0     H89450   3.410  11.280   1.670  1.3862  1.5157 -0.1910
  663MOL0     H89451   3.254  11.261   1.604 -1.4998  0.9747 -0.1697
  663MOL0     H89452   3.274  11.455   1.461 -0.8841 -0.1493  1.6660
  663MOL0     H89453   3.438  11.481   1.510 -1.7584  1.8363  2.7514
  663MOL0     H89454   3.420  11.360   1.292 -0.6314 -0.9103 -1.1135
  663MOL0     H89455   3.339  11.227   1.393 -1.1191  1.3763  0.6647
  663MOL0     H89456   3.515  11.091   1.522  0.0374 -0.5794  0.0650
  663MOL0     H89457   3.683  10.925   1.483  1.0058 -4.1343 -2.8688
  663MOL0     H89458   3.758  10.913   1.334 -0.5111  2.5587 -1.5133
  663MOL0     H89459   3.949  11.046   1.409  3.5089 -2.0004  0.4644
  663MOL0     H89460   3.938  10.897   1.491  1.9735  1.4467 -0.9010
  663MOL0     H89461   3.855  11.012   1.701  0.7655  0.2455  1.6270
  663MOL0     H89462   3.836  11.156   1.612 -0.6032 -0.7441 -2.3522
  663MOL0     H89463   4.064  11.169   1.741 -1.8991 -0.7764  0.4360
  663MOL0     H89464   4.064  11.189   1.567  1.3332  0.6929 -0.8995
  663MOL0     H89465   4.392  11.073   1.635  3.4863 -0.7087 -0.2740
  663MOL0     H89466   4.625  11.163   1.876 -3.7593  1.6034  0.9099
  663MOL0     H89467   4.667  11.002   1.797  0.4329  0.2149 -0.3770
  663MOL0     H89468   4.607  11.136   1.702  0.8248 -1.7354 -0.8940
  663MOL0     H89469   4.551  11.026   2.335 -0.4563  1.4374 -0.3746
  663MOL0     H89470   4.709  10.976   2.509 -0.8478  1.4260  0.5322
  663MOL0     H89471   5.046  10.794   2.432  3.1398 -0.4977 -1.2366
  663MOL0     H89472   5.152  10.935   2.408 -1.2964  1.9372  0.8213
  663MOL0     H89473   5.170  10.972   2.649 -0.8524 -0.5499  0.4094
  663MOL0     H89474   5.064  10.828   2.672 -1.1998 -1.1730 -1.8266
  663MOL0     H89475   5.251  10.684   2.576  2.7749  0.5741 -0.5854
  663MOL0     H89476   5.271  10.779   2.730 -0.6862  3.3720  0.9439
  663MOL0     H89477   5.386  10.826   2.462  0.4519 -0.6580 -0.0126
  663MOL0     H89478   5.385  10.956   2.598  0.1444 -0.7573  3.7278
  663MOL0     H89479   5.521  10.680   2.605 -0.5127  0.2428 -0.3829
  663MOL0     H89480   5.508  10.786   2.736 -2.3853 -1.7829 -0.2069
  663MOL0     H89481   5.652  10.839   2.477  6.4108 -3.5720  0.9426
  663MOL0     H89482   5.638  10.958   2.616  0.6093 -1.1180  2.6557
  663MOL0     H89483   5.805  10.722   2.573  0.9277  2.8690 -1.2235
  663MOL0     H89484   5.752  10.762   2.744  0.3900 -0.4588  0.3404
  663MOL0     H89485   5.869  10.967   2.749 -1.2050 -2.6017  1.8165
  663MOL0     H89486   5.868  10.984   2.578 -1.7423  2.5932  2.2076
  663MOL0     H89487   5.035  10.999   2.236  0.2921  2.5834  0.5886
  663MOL0     H89488   4.870  11.010   2.052  0.5222 -0.0674  0.5186
  663MOL0     H89489   4.232  10.880   2.053 -0.2611  0.9751  1.0050
  663MOL0     H89490   4.084  10.903   1.873 -0.0866 -3.4097 -2.0604
  663MOL0     H89491   3.446  10.956   2.265 -1.5084  0.3986  0.0207
  663MOL0     H89492   3.530  10.813   2.456  1.3912  3.2778  1.7927
  663MOL0     H89493   3.332  10.562   2.804  0.4852  1.5200 -1.2805
  663MOL0     H89494   3.331  10.410   2.959 -2.4720  1.3282 -2.1666
  663MOL0     H89495   3.313  10.283   3.150 -1.4002 -2.0967  1.2235
  663MOL0     H89496   3.486  10.237   3.166 -0.9011 -1.2842 -0.8644
  663MOL0     H89497   3.292  10.250   3.407  3.6774 -0.4046  2.6009
  663MOL0     H89498   3.458  10.200   3.411  0.4858 -3.4424 -0.2234
  663MOL0     H89499   3.267  10.063   3.230 -0.5554  1.5753  0.3432
  663MOL0     H89500   3.307  10.012   3.399  0.0364  0.5880  0.4523
  663MOL0     H89501   3.529  10.020   3.202  1.5809 -0.6281  1.2175
  663MOL0     H89502   3.426   9.882   3.227 -1.5322  0.3695  0.2965
  663MOL0     H89503   3.730   9.943   3.530 -1.3815  2.8404  1.6664
  663MOL0     H89504   3.529  10.685   3.243  0.9336  0.4092 -0.1908
  663MOL0     H89505   3.545  10.845   3.053  3.3479 -1.1245 -3.6660
  664MOL0     O89506   3.945   1.231   0.185 -0.5736 -0.5532  0.2416
  664MOL0     C89507   3.985   1.178   0.295  0.2564 -1.3296  0.3192
  664MOL0     O89508   4.036   1.054   0.321  0.2920  1.2562 -0.1424
  664MOL0     C89509   4.032   0.976   0.206  0.8236  0.3279  0.9174
  664MOL0     C89510   3.937   0.873   0.185 -0.4100  0.0920 -0.2005
  664MOL0     C89511   3.943   0.802   0.062  0.3342  0.6682 -1.0577
  664MOL0     C89512   4.052   0.809  -0.029  0.7952 -0.0144 -0.4212
  664MOL0     O89513   4.068   0.720  -0.121 -0.1324 -0.3693 -0.3558
  664MOL0     C89514   3.960   0.681  -0.200  0.1145  0.5419 -0.8100
  664MOL0     C89515   4.009   0.627  -0.335 -0.2665 -0.5535  0.6260
  664MOL0     C89516   3.922   0.692  -0.451 -1.1859  0.3425 -0.2138
  664MOL0     C89517   4.000   0.808  -0.514 -0.1265  0.0108 -0.9981
  664MOL0     C89518   3.919   0.876  -0.619  0.0910  0.4415 -0.0088
  664MOL0     C89519   4.019   0.967  -0.681 -0.2296 -0.7055  0.2715
  664MOL0     C89520   3.962   1.053  -0.796  0.5296  0.4763 -0.3845
  664MOL0     C89521   3.871   1.169  -0.745 -0.5851  0.1464 -0.1776
  664MOL0     N89522   3.933   1.295  -0.748 -0.3789 -0.3932  0.2815
  664MOL0     C89523   3.928   1.390  -0.849  0.2733 -0.0990 -0.6061
  664MOL0     C89524   4.001   1.494  -0.801 -0.2982 -0.6642  0.7375
  664MOL0     C89525   4.025   1.624  -0.862  0.5731  0.2152  0.0474
  664MOL0     C89526   4.155   1.623  -0.943 -0.5149 -0.2125 -0.3180
  664MOL0     C89527   4.280   1.594  -0.861 -0.0083 -0.2264 -0.3106
  664MOL0     C89528   4.411   1.577  -0.936 -0.2954  0.5212  0.3883
  664MOL0     O89529   4.423   1.444  -0.997 -0.9299 -0.6762  0.0146
  664MOL0     C89530   4.421   1.332  -0.923 -0.1344 -0.0723  0.2122
  664MOL0     C89531   4.376   1.206  -0.974 -0.5822 -0.4440 -0.0910
  664MOL0     C89532   4.395   1.084  -0.904 -0.3238 -0.2640  0.1951
  664MOL0     C89533   4.356   0.957  -0.979 -0.3768  0.7859 -0.1209
  664MOL0     C89534   4.437   1.083  -0.770 -1.1011 -0.5211  0.0497
  664MOL0     C89535   4.440   0.963  -0.681 -0.4477 -0.4790  0.3497
  664MOL0     O89536   4.438   1.003  -0.551  0.6093  1.0045  0.0127
  664MOL0     C89537   4.465   0.914  -0.453 -0.1844  0.0552  0.3615
  664MOL0     C89538   4.355   0.866  -0.383  0.5964  0.0772 -0.5235
  664MOL0     C89539   4.376   0.774  -0.288 -0.1050  0.1111  0.4596
  664MOL0     C89540   4.508   0.721  -0.266  0.3523  0.9613 -0.0374
  664MOL0     O89541   4.545   0.624  -0.174  0.4416 -0.0553  0.0016
  664MOL0     C89542   4.445   0.548  -0.109  0.4378  0.9323  0.2337
  664MOL0     C89543   4.358   0.469  -0.199 -0.2539 -0.0604  0.1047
  664MOL0     C89544   4.322   0.335  -0.135  0.3465  0.7854  0.5558
  664MOL0     C89545   4.269   0.237  -0.243 -0.6083 -0.0693 -0.0787
  664MOL0     C89546   4.138   0.268  -0.313  0.7630 -0.6504  1.1003
  664MOL0     C89547   4.091   0.177  -0.425  0.2383 -0.0068  0.4923
  664MOL0     C89548   3.964   0.198  -0.505  0.5936  0.5722  0.2730
  664MOL0     C89549   3.875   0.073  -0.539 -0.0508 -0.2927 -0.2028
  664MOL0    Cl89550   3.740   0.117  -0.651 -0.2582 -0.2698  0.0102
  664MOL0     C89551   4.619   0.774  -0.336 -0.6613 -0.7882 -0.8044
  664MOL0     C89552   4.593   0.867  -0.435 -0.3851 -1.0235 -0.4064
  664MOL0     O89553   4.432   0.848  -0.721 -0.2864 -0.1729  0.4393
  664MOL0     C89554   4.472   1.210  -0.722  0.7156  0.4956 -0.0140
  664MOL0     C89555   4.453   1.331  -0.791 -1.1258 -0.5312  0.6487
  664MOL0     N89556   4.044   1.457  -0.679 -0.5522 -0.5239  0.6613
  664MOL0     N89557   4.004   1.342  -0.648 -0.1105 -0.2050  0.8755
  664MOL0     C89558   4.147   0.904   0.008 -0.7477  0.0663 -0.5631
  664MOL0     C89559   4.141   0.988   0.115  0.1105 -1.1163  0.1780
  664MOL0     C89560   3.991   1.271   0.407  0.5006  0.3124  0.3949
  664MOL0     C89561   4.012   1.414   0.398  0.5963 -0.1218  0.3339
  664MOL0     C89562   3.992   1.500   0.505 -0.3498 -0.8309 -1.0992
  664MOL0     C89563   3.950   1.456   0.628  0.6058  0.1148 -0.0851
  664MOL0     O89564   3.931   1.547   0.725 -0.6228  0.0633  0.2196
  664MOL0     C89565   3.856   1.521   0.840 -0.1713  0.5596 -1.0286
  664MOL0     C89566   3.706   1.478   0.812 -1.9200  0.1337  0.0732
  664MOL0     C89567   3.627   1.499   0.950 -0.1007 -0.7476  0.5249
  664MOL0     C89568   3.479   1.471   0.931 -0.2142 -0.3956 -0.0491
  664MOL0     C89569   3.408   1.406   1.036 -1.5207 -0.7296  0.5788
  664MOL0     C89570   3.341   1.349   1.124  0.0600  0.5009 -0.2015
  664MOL0     C89571   3.941   1.322   0.646 -0.4604  0.5848 -0.3168
  664MOL0     C89572   3.961   1.231   0.538  0.0631  0.6054 -0.4248
  664MOL0     H89573   3.853   0.855   0.252 -1.9736  0.4763 -1.9549
  664MOL0     H89574   3.868   0.730   0.032  0.9445 -0.5361  0.1826
  664MOL0     H89575   3.903   0.602  -0.151  2.5525 -0.3933  0.7153
  664MOL0     H89576   3.896   0.769  -0.214  0.3805  0.5325 -2.2700
  664MOL0     H89577   4.115   0.648  -0.351 -0.7414  3.4167  1.5898
  664MOL0     H89578   3.998   0.518  -0.335  1.4375 -0.7566 -1.1661
  664MOL0     H89579   3.900   0.621  -0.531  0.7379 -0.5977  0.0447
  664MOL0     H89580   3.824   0.724  -0.412 -0.6839 -0.4237  1.8087
  664MOL0     H89581   4.016   0.884  -0.437 -0.9029 -1.8215  1.1007
  664MOL0     H89582   4.099   0.775  -0.546 -0.6906 -2.0265 -0.8051
  664MOL0     H89583   3.877   0.806  -0.692 -2.4218  2.7172 -0.8911
  664MOL0     H89584   3.830   0.920  -0.573 -0.3080 -1.0356  0.6907
  664MOL0     H89585   4.068   1.040  -0.616 -0.9952 -0.1803  0.2816
  664MOL0     H89586   4.098   0.906  -0.726 -0.3126 -1.5820  1.2625
  664MOL0     H89587   4.037   1.089  -0.867 -1.4448  0.3336 -2.6337
  664MOL0     H89588   3.906   0.982  -0.857  0.2816 -2.0256  2.4932
  664MOL0     H89589   3.837   1.149  -0.643 -0.5495  1.2020  0.0492
  664MOL0     H89590   3.780   1.177  -0.805 -1.0730  0.8156  0.6234
  664MOL0     H89591   3.873   1.388  -0.943  0.6135 -0.2136 -0.8050
  664MOL0     H89592   3.943   1.652  -0.928  2.3321  0.9240 -1.9351
  664MOL0     H89593   4.034   1.699  -0.783  0.3620  0.9827 -0.6471
  664MOL0     H89594   4.171   1.716  -0.997 -3.7562  1.1096  0.7632
  664MOL0     H89595   4.143   1.536  -1.009 -0.9903 -0.0462 -0.4528
  664MOL0     H89596   4.264   1.507  -0.797  0.0222  0.5204  0.7319
  664MOL0     H89597   4.298   1.681  -0.798 -0.4639  2.0464 -3.0811
  664MOL0     H89598   4.494   1.599  -0.869  2.4782 -0.3812 -2.5067
  664MOL0     H89599   4.415   1.645  -1.022 -1.8464 -3.0930 -2.8143
  664MOL0     H89600   4.340   1.193  -1.076 -3.7075 -4.7725  1.2893
  664MOL0     H89601   4.265   0.905  -0.945  1.6544 -3.0225  0.0543
  664MOL0     H89602   4.339   0.970  -1.086 -2.4050  1.8099  0.2665
  664MOL0     H89603   4.434   0.883  -0.959 -0.5385 -0.2298 -2.8109
  664MOL0     H89604   4.258   0.915  -0.384  0.5361 -0.0350 -0.2837
  664MOL0     H89605   4.299   0.740  -0.219  0.6419 -1.0674  0.7443
  664MOL0     H89606   4.503   0.485  -0.041  3.3393  0.7285 -2.2367
  664MOL0     H89607   4.375   0.605  -0.048  0.5689  0.7362  0.5697
  664MOL0     H89608   4.263   0.523  -0.207 -0.5235 -0.3318  1.3217
  664MOL0     H89609   4.412   0.460  -0.294 -0.7421  0.4407 -0.2273
  664MOL0     H89610   4.236   0.360  -0.072 -0.3217 -2.4372  1.1122
  664MOL0     H89611   4.407   0.292  -0.083 -0.7051 -0.2207  1.5001
  664MOL0     H89612   4.336   0.216  -0.327 -1.7001  1.3282 -1.3387
  664MOL0     H89613   4.261   0.138  -0.196 -1.5994 -0.0767 -0.2511
  664MOL0     H89614   4.151   0.368  -0.356  0.4724 -0.5748  1.1875
  664MOL0     H89615   4.059   0.276  -0.239 -0.2576 -1.0094  0.0751
  664MOL0     H89616   4.170   0.172  -0.502 -0.1537  0.0817  0.0811
  664MOL0     H89617   4.090   0.074  -0.388  4.3202 -1.8862 -3.5681
  664MOL0     H89618   3.996   0.246  -0.599  1.9991  1.3839  1.1393
  664MOL0     H89619   3.897   0.267  -0.453  0.1073  0.3079  0.0034
  664MOL0     H89620   3.848   0.021  -0.447  3.0692  1.2561  1.7814
  664MOL0     H89621   3.937   0.002  -0.594  0.3126 -1.6881  1.8847
  664MOL0     H89622   4.723   0.747  -0.321 -0.4798 -0.9940 -2.2605
  664MOL0     H89623   4.672   0.902  -0.501  1.2742 -3.3080  0.2657
  664MOL0     H89624   4.514   1.216  -0.622 -0.4707 -0.2282  0.5442
  664MOL0     H89625   4.492   1.419  -0.740  1.0355  0.0431 -1.7813
  664MOL0     H89626   4.241   0.911  -0.046  1.5976 -0.8420  3.0074
  664MOL0     H89627   4.230   1.048   0.133 -0.3679  0.3418 -1.9983
  664MOL0     H89628   4.050   1.445   0.301  5.3531  0.6500  2.1810
  664MOL0     H89629   4.008   1.605   0.482  0.5883 -1.0170 -1.3558
  664MOL0     H89630   3.906   1.449   0.905  2.1191  3.5098  0.7778
  664MOL0     H89631   3.861   1.612   0.900  1.4353  0.2099 -0.5802
  664MOL0     H89632   3.703   1.370   0.794 -1.2572  0.1286 -0.0114
  664MOL0     H89633   3.664   1.537   0.730 -3.5537 -1.3680 -0.2337
  664MOL0     H89634   3.623   1.606   0.974 -2.6281  0.0976 -2.7427
  664MOL0     H89635   3.654   1.432   1.031 -0.6393 -0.3232  1.0675
  664MOL0     H89636   3.469   1.409   0.841 -1.5681  0.9630 -0.8889
  664MOL0     H89637   3.411   1.556   0.918 -1.3742 -0.8221  2.6659
  664MOL0     H89638   3.297   1.292   1.204  0.9212 -0.8624 -0.6652
  664MOL0     H89639   3.928   1.271   0.741 -2.2486 -1.3683 -1.5111
  664MOL0     H89640   3.948   1.126   0.560 -2.5066  1.1113  0.8548
  665MOL0     O89641   6.791   7.363   0.860  0.7373 -0.1181  0.2768
  665MOL0     C89642   6.763   7.408   0.969  0.2550 -0.0909 -0.4084
  665MOL0     O89643   6.834   7.497   1.044 -0.2086 -0.2087  0.7143
  665MOL0     C89644   6.953   7.535   0.990  0.2280  0.0778 -0.7271
  665MOL0     C89645   6.959   7.663   0.943 -0.1423 -0.4948 -0.0371
  665MOL0     C89646   7.076   7.705   0.876 -0.2080 -0.1723  0.5388
  665MOL0     C89647   7.185   7.623   0.860  0.5364  0.5036 -0.0942
  665MOL0     O89648   7.308   7.655   0.817 -0.7560 -0.1086  0.0110
  665MOL0     C89649   7.357   7.791   0.815 -0.0824 -0.5031 -0.0221
  665MOL0     C89650   7.500   7.781   0.787 -0.2825 -0.3698  0.1122
  665MOL0     C89651   7.579   7.914   0.776 -0.1885 -0.7431  0.1543
  665MOL0     C89652   7.513   7.994   0.661  0.0737 -0.3978 -0.2230
  665MOL0     C89653   7.585   8.120   0.629 -0.3586 -0.5486 -0.0228
  665MOL0     C89654   7.720   8.108   0.541 -0.7397  0.5201 -0.5105
  665MOL0     C89655   7.692   8.077   0.390  0.0070  0.0534 -0.4444
  665MOL0     C89656   7.809   8.100   0.301 -0.2949 -0.1221 -0.0265
  665MOL0     N89657   7.780   8.074   0.159  0.0233  0.3595 -0.1750
  665MOL0     C89658   7.723   7.962   0.100  0.1626  0.0777 -0.8221
  665MOL0     C89659   7.741   7.984  -0.030  0.1011 -0.2004 -0.6182
  665MOL0     C89660   7.690   7.887  -0.117 -0.3968  1.0968  0.0983
  665MOL0     C89661   7.791   7.784  -0.152 -0.3209  0.7964 -0.0321
  665MOL0     C89662   7.735   7.689  -0.265  0.3379  0.4319  0.7051
  665MOL0     C89663   7.808   7.559  -0.280 -0.7213 -1.2704  0.4610
  665MOL0     O89664   7.950   7.596  -0.291  0.0014  0.4455 -0.2195
  665MOL0     C89665   8.036   7.491  -0.333 -0.4872 -0.5889 -1.3093
  665MOL0     C89666   8.007   7.370  -0.393  0.0676 -0.4211  0.0192
  665MOL0     C89667   8.098   7.276  -0.435 -0.0930 -0.1910 -0.2625
  665MOL0     C89668   8.044   7.156  -0.519 -0.1284 -0.3297 -0.0716
  665MOL0     C89669   8.233   7.303  -0.408  0.8066  0.4737  0.7532
  665MOL0     C89670   8.346   7.226  -0.455  0.2650 -0.6240 -0.2661
  665MOL0     O89671   8.462   7.299  -0.488 -0.1499  0.5864 -1.8697
  665MOL0     C89672   8.586   7.239  -0.506 -0.3429  1.2793  0.5476
  665MOL0     C89673   8.705   7.311  -0.485  0.6423 -0.0828 -0.6721
  665MOL0     C89674   8.834   7.259  -0.518  0.6126 -0.4977  0.0217
  665MOL0     C89675   8.846   7.127  -0.574  0.2475 -0.3315  0.1025
  665MOL0     O89676   8.966   7.061  -0.599  1.0673 -0.0251 -0.4146
  665MOL0     C89677   9.089   7.131  -0.577 -0.5161 -0.8376  0.4344
  665MOL0     C89678   9.203   7.026  -0.581 -0.4109 -0.4867 -0.3758
  665MOL0     C89679   9.326   7.082  -0.534 -0.2398 -0.0930 -0.7298
  665MOL0     C89680   9.410   7.160  -0.649  0.4031  0.0833  0.2285
  665MOL0     C89681   9.549   7.221  -0.594 -0.9918  0.0419  0.1856
  665MOL0     C89682   9.515   7.346  -0.520 -0.3000  1.6397  0.7747
  665MOL0     C89683   9.628   7.417  -0.444 -1.0195  0.1011 -0.0075
  665MOL0     C89684   9.731   7.475  -0.545 -0.6359 -0.3844 -0.2376
  665MOL0    Cl89685   9.666   7.612  -0.642  0.3243 -0.2601 -0.2414
  665MOL0     C89686   8.731   7.051  -0.584  1.1067 -0.2453 -0.2364
  665MOL0     C89687   8.605   7.104  -0.552  0.5315 -0.3951  1.2149
  665MOL0     O89688   8.332   7.105  -0.458 -0.2100 -0.4188  0.2067
  665MOL0     C89689   8.266   7.416  -0.331  0.4339  0.7326  0.0342
  665MOL0     C89690   8.169   7.511  -0.296  0.6420  0.1319  0.2714
  665MOL0     N89691   7.820   8.097  -0.052 -0.0613  0.3195 -0.2962
  665MOL0     N89692   7.846   8.151   0.061 -0.1853  0.7958 -0.4359
  665MOL0     C89693   7.178   7.490   0.910 -0.6151 -0.1288  0.3437
  665MOL0     C89694   7.067   7.446   0.979 -0.4048  0.6334  0.1595
  665MOL0     C89695   6.645   7.346   1.034 -0.5911 -0.1102  0.3418
  665MOL0     C89696   6.629   7.349   1.170 -0.0605  0.0532 -0.2611
  665MOL0     C89697   6.519   7.295   1.229  0.3432 -0.2430  0.1587
  665MOL0     C89698   6.417   7.251   1.146  1.0722 -1.1306  0.3337
  665MOL0     O89699   6.300   7.205   1.206  1.0573 -0.3645 -0.3310
  665MOL0     C89700   6.308   7.096   1.300 -0.6083  0.0938 -0.8004
  665MOL0     C89701   6.294   7.153   1.439  0.9096 -0.0082  0.1066
  665MOL0     C89702   6.153   7.196   1.478  0.6042  0.0671 -0.4991
  665MOL0     C89703   6.139   7.288   1.593  0.0663 -0.7637 -0.3654
  665MOL0     C89704   5.997   7.286   1.630 -0.5365 -0.2296 -0.3260
  665MOL0     C89705   5.892   7.281   1.687 -0.3578  0.3035 -0.9728
  665MOL0     C89706   6.425   7.260   1.012  0.2360 -0.1671  0.5689
  665MOL0     C89707   6.538   7.308   0.955 -0.0096  0.1843 -0.2009
  665MOL0     H89708   6.871   7.727   0.940 -1.7127 -2.5536 -2.9721
  665MOL0     H89709   7.097   7.807   0.843  2.5702 -0.8902 -0.1339
  665MOL0     H89710   7.293   7.839   0.741  2.9959  0.1452 -2.5249
  665MOL0     H89711   7.355   7.841   0.912  0.4233 -1.4061  0.4701
  665MOL0     H89712   7.544   7.710   0.858  0.2524 -0.8229 -0.6547
  665MOL0     H89713   7.527   7.723   0.698  1.9883  2.7607 -1.4392
  665MOL0     H89714   7.570   7.976   0.866 -0.1515 -0.3966 -0.0771
  665MOL0     H89715   7.682   7.896   0.745 -0.6058  0.2445 -1.9578
  665MOL0     H89716   7.517   7.926   0.576  0.3918 -0.8420  0.1400
  665MOL0     H89717   7.408   8.021   0.677 -0.6758  1.1676 -5.7965
  665MOL0     H89718   7.518   8.189   0.578  0.3685  0.3068  0.1457
  665MOL0     H89719   7.629   8.174   0.713  0.2388 -3.0243  1.3684
  665MOL0     H89720   7.758   8.210   0.549  0.0026  0.0748  2.6114
  665MOL0     H89721   7.801   8.048   0.582 -1.7055 -0.7798 -0.4362
  665MOL0     H89722   7.650   7.977   0.377  2.0531 -0.8605 -0.4146
  665MOL0     H89723   7.613   8.136   0.345  0.2735 -0.3327 -1.4485
  665MOL0     H89724   7.886   8.028   0.329  1.2183  2.0492  1.6887
  665MOL0     H89725   7.847   8.200   0.322 -1.5162  0.0549  1.4637
  665MOL0     H89726   7.657   7.882   0.132  2.2340 -0.4821  2.7389
  665MOL0     H89727   7.602   7.832  -0.084 -0.5930 -0.0977 -2.2314
  665MOL0     H89728   7.660   7.949  -0.202  1.4430 -2.5419 -3.5368
  665MOL0     H89729   7.824   7.729  -0.064  0.7456 -0.3454 -1.1058
  665MOL0     H89730   7.868   7.847  -0.197 -1.6363  2.3139 -0.2653
  665MOL0     H89731   7.747   7.733  -0.365 -2.2890  0.7190  0.4353
  665MOL0     H89732   7.628   7.664  -0.255 -0.5030  1.4951 -3.6212
  665MOL0     H89733   7.786   7.518  -0.379 -0.1442 -1.7567  0.5295
  665MOL0     H89734   7.788   7.500  -0.190 -0.0447 -0.4053  1.1958
  665MOL0     H89735   7.904   7.345  -0.418  0.2886 -0.6429 -0.6949
  665MOL0     H89736   8.094   7.062  -0.493  1.4576  0.1540 -1.1699
  665MOL0     H89737   7.941   7.125  -0.500 -0.0826 -1.8198 -1.9411
  665MOL0     H89738   8.081   7.173  -0.620  2.6474  0.5920  0.9985
  665MOL0     H89739   8.688   7.412  -0.448 -0.9114 -0.5272 -0.0840
  665MOL0     H89740   8.912   7.333  -0.511  1.0970 -1.1136  1.8268
  665MOL0     H89741   9.097   7.208  -0.653  1.5522 -1.1996  0.2327
  665MOL0     H89742   9.101   7.173  -0.477  5.2805 -0.8100  0.0634
  665MOL0     H89743   9.166   6.946  -0.516  3.0105 -0.3313  2.0056
  665MOL0     H89744   9.212   6.997  -0.686  1.2365  2.8641 -1.2993
  665MOL0     H89745   9.369   6.991  -0.490  1.9026  1.5052  0.6656
  665MOL0     H89746   9.306   7.147  -0.449  0.4443  0.7843 -1.2180
  665MOL0     H89747   9.431   7.102  -0.739  4.8135 -2.2750  2.4644
  665MOL0     H89748   9.333   7.233  -0.677  1.3449  1.3011  0.7167
  665MOL0     H89749   9.610   7.253  -0.679 -3.4302  2.1137 -0.9318
  665MOL0     H89750   9.598   7.150  -0.527  3.5544  1.1127 -1.6404
  665MOL0     H89751   9.462   7.417  -0.584  1.2211  0.7493 -1.5728
  665MOL0     H89752   9.452   7.310  -0.438 -0.7690 -0.6163 -0.5020
  665MOL0     H89753   9.671   7.344  -0.374 -2.9403 -2.0821 -0.9689
  665MOL0     H89754   9.579   7.497  -0.387  0.6293  1.1466 -0.0006
  665MOL0     H89755   9.784   7.399  -0.603  0.3393 -0.0257  0.1486
  665MOL0     H89756   9.819   7.517  -0.495  0.1917 -1.7570 -0.4958
  665MOL0     H89757   8.744   6.949  -0.617 -1.0012 -0.1935 -1.4622
  665MOL0     H89758   8.511   7.052  -0.567  0.9330 -0.7017 -0.3771
  665MOL0     H89759   8.365   7.452  -0.303  1.5851 -0.4157 -2.2083
  665MOL0     H89760   8.194   7.602  -0.242 -3.8890  1.6410  0.2159
  665MOL0     H89761   7.268   7.431   0.898 -3.4165 -5.2976  1.5214
  665MOL0     H89762   7.075   7.344   1.015 -1.2544 -1.3244 -4.4595
  665MOL0     H89763   6.715   7.381   1.227  2.9574 -2.0042 -3.2014
  665MOL0     H89764   6.518   7.276   1.336 -2.4828  2.3835  0.7527
  665MOL0     H89765   6.233   7.019   1.280 -3.0865  2.4160 -1.0605
  665MOL0     H89766   6.405   7.047   1.305  1.0108  3.0358 -1.1273
  665MOL0     H89767   6.347   7.249   1.436 -3.4720  2.6594 -1.6657
  665MOL0     H89768   6.333   7.076   1.506  0.0844 -1.4627 -1.0192
  665MOL0     H89769   6.094   7.106   1.494 -3.1268  2.2213 -0.9240
  665MOL0     H89770   6.105   7.247   1.394 -1.0094 -0.9412 -0.2237
  665MOL0     H89771   6.170   7.386   1.556  1.9042 -1.8347 -1.8630
  665MOL0     H89772   6.204   7.263   1.677  1.1616  3.9403  0.4771
  665MOL0     H89773   5.793   7.279   1.728  0.5933  3.9696  2.1492
  665MOL0     H89774   6.338   7.225   0.956  0.3770 -0.2935  0.4272
  665MOL0     H89775   6.546   7.322   0.848 -0.0424  0.4712 -0.1655
  666MOL0     O89776   2.458   0.753  10.005 -0.1505 -0.2890  0.3163
  666MOL0     C89777   2.553   0.813   9.957 -0.7602 -0.6960  0.2190
  666MOL0     O89778   2.623   0.784   9.846 -0.2496 -0.1048 -0.4190
  666MOL0     C89779   2.588   0.681   9.764  0.7912  0.3175 -0.8945
  666MOL0     C89780   2.531   0.559   9.812 -0.0978  0.5169  0.1736
  666MOL0     C89781   2.506   0.458   9.724  0.5501 -0.6025 -0.2212
  666MOL0     C89782   2.520   0.474   9.586  0.1373 -0.3699 -0.0348
  666MOL0     O89783   2.507   0.371   9.495 -0.0309 -0.6471 -0.6824
  666MOL0     C89784   2.600   0.269   9.522 -0.4518  0.5129  0.6532
  666MOL0     C89785   2.709   0.268   9.406 -0.3689  0.7070 -0.0928
  666MOL0     C89786   2.662   0.224   9.266  0.4842 -0.2159  0.0688
  666MOL0     C89787   2.759   0.233   9.151 -0.7773 -0.9582  0.2087
  666MOL0     C89788   2.699   0.229   9.008 -0.5255 -0.1951  1.0061
  666MOL0     C89789   2.796   0.274   8.893  0.9472 -0.7320 -0.3398
  666MOL0     C89790   2.748   0.222   8.757  1.0224  0.5861  0.7161
  666MOL0     C89791   2.845   0.261   8.644  0.1462  0.0203 -0.1883
  666MOL0     N89792   2.921   0.152   8.583  0.0901 -0.0246 -0.4668
  666MOL0     C89793   2.916   0.100   8.452 -0.3206  0.2887 -0.4355
  666MOL0     C89794   3.015  -0.001   8.454  0.2266 -0.1411 -0.9192
  666MOL0     C89795   3.040  -0.101   8.347 -0.1185  0.2092  0.5221
  666MOL0     C89796   2.989  -0.239   8.394  0.8808  0.5949  0.1168
  666MOL0     C89797   3.086  -0.306   8.499 -0.4622  0.0711  0.4013
  666MOL0     C89798   3.234  -0.292   8.479  0.0407 -0.2340 -0.2389
  666MOL0     O89799   3.282  -0.291   8.346  0.1200 -0.1975  0.6869
  666MOL0     C89800   3.401  -0.343   8.308  1.1678  0.0190 -0.2966
  666MOL0     C89801   3.430  -0.328   8.173  0.0518  0.4188  0.1292
  666MOL0     C89802   3.555  -0.376   8.115  0.1405 -1.1306 -1.0877
  666MOL0     C89803   3.572  -0.352   7.961 -0.0912  0.6815  0.7652
  666MOL0     C89804   3.642  -0.453   8.197  0.6440 -0.2605  0.6540
  666MOL0     C89805   3.769  -0.520   8.148 -0.0190  0.6303  0.3819
  666MOL0     O89806   3.841  -0.588   8.240 -0.5058  0.5961  0.5048
  666MOL0     C89807   3.939  -0.670   8.203  0.7054 -0.0642  0.0766
  666MOL0     C89808   3.953  -0.791   8.258  0.0593  0.7940 -1.0958
  666MOL0     C89809   4.041  -0.886   8.219  0.0770  0.9852 -0.0195
  666MOL0     C89810   4.133  -0.852   8.116  0.0135  0.0450 -1.0447
  666MOL0     O89811   4.208  -0.958   8.068  0.0689 -0.0650  0.0343
  666MOL0     C89812   4.343  -0.922   8.027  0.6937  0.3692 -0.6760
  666MOL0     C89813   4.443  -1.044   8.007 -0.2569  0.6284 -0.1408
  666MOL0     C89814   4.388  -1.142   7.900  0.4889 -1.2868 -0.1674
  666MOL0     C89815   4.486  -1.250   7.867  0.0661  0.3517 -0.3711
  666MOL0     C89816   4.423  -1.365   7.789 -0.5362  0.3287 -0.3259
  666MOL0     C89817   4.498  -1.491   7.752 -0.3535  0.1783 -0.1969
  666MOL0     C89818   4.594  -1.525   7.865 -0.5613 -0.2706  0.0957
  666MOL0     C89819   4.639  -1.676   7.859 -0.5204 -0.0763 -0.9280
  666MOL0    Cl89820   4.513  -1.760   7.956 -0.6579  0.3074 -0.1909
  666MOL0     C89821   4.143  -0.720   8.081  0.2568 -0.6398  0.9639
  666MOL0     C89822   4.037  -0.632   8.120  0.3173  0.5427 -0.1496
  666MOL0     O89823   3.803  -0.524   8.027 -0.0641 -1.1948  0.6001
  666MOL0     C89824   3.606  -0.468   8.328 -0.2521 -0.0425 -0.0204
  666MOL0     C89825   3.496  -0.407   8.386 -0.4830  0.5127  0.2218
  666MOL0     N89826   3.075  -0.004   8.578 -0.3374  0.1536 -0.2071
  666MOL0     N89827   3.024   0.097   8.645 -0.2169  0.8858 -0.7691
  666MOL0     C89828   2.545   0.601   9.534 -0.2139  0.2704  0.0520
  666MOL0     C89829   2.589   0.696   9.628  0.3084 -1.3755 -0.1736
  666MOL0     C89830   2.589   0.948  10.023  0.4351 -0.2597 -1.0486
  666MOL0     C89831   2.600   0.948  10.163 -1.3779  1.0927 -0.0259
  666MOL0     C89832   2.638   1.063  10.227  0.3980 -0.1285 -0.1159
  666MOL0     C89833   2.676   1.181  10.163  0.0749 -0.2075  0.5628
  666MOL0     O89834   2.717   1.300  10.223 -0.3724  0.1718 -0.6834
  666MOL0     C89835   2.838   1.287  10.296 -0.6326 -0.4456 -0.1998
  666MOL0     C89836   2.930   1.403  10.272  0.2716 -0.2777  0.0829
  666MOL0     C89837   2.872   1.535  10.324 -0.2908 -0.4512 -0.3068
  666MOL0     C89838   2.979   1.637  10.302  0.0329 -0.6846  0.1901
  666MOL0     C89839   2.924   1.763  10.364 -0.0100  0.2164 -0.7368
  666MOL0     C89840   2.878   1.861  10.414  0.2735  0.2330 -1.1091
  666MOL0     C89841   2.649   1.186  10.030  0.1694  0.6612 -0.0196
  666MOL0     C89842   2.614   1.070   9.959  0.4316 -0.0149 -0.7372
  666MOL0     H89843   2.543   0.538   9.918  0.1387 -3.0854 -0.4328
  666MOL0     H89844   2.486   0.358   9.762 -0.4003  0.2008  1.5216
  666MOL0     H89845   2.647   0.282   9.619  3.3512 -1.0789 -0.7853
  666MOL0     H89846   2.547   0.173   9.526 -2.3381  1.3402 -1.7823
  666MOL0     H89847   2.742   0.372   9.400  0.7713  0.2750 -1.9137
  666MOL0     H89848   2.801   0.214   9.426 -0.4787 -0.3542 -2.2357
  666MOL0     H89849   2.637   0.117   9.267 -0.5562  0.0231  0.4956
  666MOL0     H89850   2.565   0.272   9.253  0.9600  0.3104 -1.8678
  666MOL0     H89851   2.791   0.338   9.157 -3.1755 -0.2564  1.6213
  666MOL0     H89852   2.850   0.172   9.157  0.1102  0.2329 -0.4573
  666MOL0     H89853   2.660   0.135   8.970  1.6182 -0.8998  0.4132
  666MOL0     H89854   2.607   0.287   9.021  0.7032  2.0678  0.1312
  666MOL0     H89855   2.772   0.381   8.896 -1.9768 -1.2450 -1.9726
  666MOL0     H89856   2.899   0.250   8.921  0.1161 -2.2050  1.6809
  666MOL0     H89857   2.723   0.116   8.742 -0.6126  0.8751  1.1233
  666MOL0     H89858   2.657   0.279   8.735  1.5573  1.4852  0.8279
  666MOL0     H89859   2.921   0.336   8.670 -0.1463 -0.3672  1.9421
  666MOL0     H89860   2.784   0.296   8.560  1.4737  0.7993 -0.8721
  666MOL0     H89861   2.859   0.137   8.367  0.0094  1.5815 -0.1084
  666MOL0     H89862   2.975  -0.075   8.263  0.3715 -0.7517 -0.1718
  666MOL0     H89863   3.144  -0.109   8.315  0.5282  0.7462  2.3540
  666MOL0     H89864   2.979  -0.317   8.318  2.2976  0.6061 -0.0994
  666MOL0     H89865   2.888  -0.226   8.434 -1.6215 -1.1977 -4.8353
  666MOL0     H89866   3.071  -0.414   8.510  2.1953 -0.1590  3.0571
  666MOL0     H89867   3.076  -0.263   8.599 -0.9085 -2.4692  1.5261
  666MOL0     H89868   3.276  -0.369   8.545 -1.2619 -1.5563 -0.8695
  666MOL0     H89869   3.259  -0.197   8.527 -0.4811 -1.1260  1.8976
  666MOL0     H89870   3.364  -0.272   8.108  2.1998  1.7475 -1.0298
  666MOL0     H89871   3.522  -0.264   7.921  0.4556  1.9742  2.7747
  666MOL0     H89872   3.678  -0.340   7.936  1.0486 -5.0679  1.3677
  666MOL0     H89873   3.538  -0.442   7.909 -1.4981  1.0137  1.0817
  666MOL0     H89874   3.877  -0.830   8.326 -1.6291  0.9651 -2.8006
  666MOL0     H89875   4.029  -0.986   8.260 -2.8740 -0.5358 -3.9597
  666MOL0     H89876   4.335  -0.867   7.933 -2.3756 -1.5776 -1.7003
  666MOL0     H89877   4.392  -0.869   8.108  1.9807 -3.0303  0.9803
  666MOL0     H89878   4.541  -0.998   7.989  0.0939 -0.5681 -1.5452
  666MOL0     H89879   4.452  -1.094   8.103  0.7859 -0.0268 -0.5593
  666MOL0     H89880   4.363  -1.088   7.808  1.8577  1.0019  0.7121
  666MOL0     H89881   4.298  -1.195   7.931  0.2775  0.0166  1.5554
  666MOL0     H89882   4.558  -1.209   7.796  0.7694 -0.0274  0.1117
  666MOL0     H89883   4.540  -1.286   7.955 -0.0596 -1.6772 -1.0855
  666MOL0     H89884   4.392  -1.311   7.699 -1.3027  0.6800  0.1335
  666MOL0     H89885   4.330  -1.401   7.836 -0.6251 -1.1149 -1.5283
  666MOL0     H89886   4.428  -1.572   7.730  1.9114 -1.9849  0.1399
  666MOL0     H89887   4.561  -1.466   7.666  1.1290 -0.0928  0.7690
  666MOL0     H89888   4.546  -1.507   7.962 -1.4481 -2.3234  0.0923
  666MOL0     H89889   4.675  -1.451   7.863  0.1440 -1.0349 -0.3584
  666MOL0     H89890   4.734  -1.708   7.903 -2.1228 -1.9931  1.4158
  666MOL0     H89891   4.630  -1.702   7.754 -1.6551  0.2509 -0.9325
  666MOL0     H89892   4.198  -0.667   8.003  0.9558 -0.3856  1.6109
  666MOL0     H89893   4.042  -0.531   8.079  2.1353  0.0149 -1.3757
  666MOL0     H89894   3.656  -0.534   8.398 -1.5437 -0.9996  0.0308
  666MOL0     H89895   3.478  -0.414   8.493  2.4289  2.3914  0.9254
  666MOL0     H89896   2.541   0.610   9.426 -2.3096  0.0543  0.0688
  666MOL0     H89897   2.625   0.796   9.605  2.4274 -1.7833  1.1017
  666MOL0     H89898   2.572   0.858  10.217 -2.8749  1.1110 -0.7223
  666MOL0     H89899   2.635   1.057  10.336  0.3325 -0.6452 -0.1436
  666MOL0     H89900   2.796   1.293  10.397 -0.1830  2.5814 -0.1137
  666MOL0     H89901   2.884   1.189  10.279 -2.2439 -1.6462  1.8116
  666MOL0     H89902   2.924   1.412  10.163  2.3275 -3.4187 -0.4032
  666MOL0     H89903   3.035   1.384  10.298  0.2586  2.4739  2.7894
  666MOL0     H89904   2.848   1.530  10.430 -1.1451 -0.9859 -0.5113
  666MOL0     H89905   2.772   1.562  10.289 -0.4127  0.3876  0.6491
  666MOL0     H89906   2.993   1.659  10.196  2.6582  1.5668  0.8701
  666MOL0     H89907   3.082   1.617  10.334  0.4445 -1.9703 -1.7851
  666MOL0     H89908   2.819   1.939  10.457 -0.4888 -0.0939 -1.5309
  666MOL0     H89909   2.664   1.285   9.990 -2.7520  1.2017  0.0638
  666MOL0     H89910   2.584   1.071   9.855 -1.2040  2.7940 -0.3482
  667MOL0     O89911   9.879   1.602   4.508 -0.1225  0.1735 -0.0522
  667MOL0     C89912   9.959   1.543   4.585  0.3652 -0.4672  0.0067
  667MOL0     O89913  10.089   1.569   4.583 -0.8302 -0.0449 -0.5170
  667MOL0     C89914  10.129   1.675   4.501 -0.2582  0.7577  0.1873
  667MOL0     C89915  10.134   1.797   4.567  0.1398 -1.0676  1.0041
  667MOL0     C89916  10.194   1.908   4.509 -0.1566  0.1313 -0.4659
  667MOL0     C89917  10.242   1.894   4.380 -0.6263 -0.2362  0.2780
  667MOL0     O89918  10.305   2.001   4.326  0.1367  0.1111  0.8259
  667MOL0     C89919  10.285   2.035   4.188 -0.1074 -0.0283 -0.0576
  667MOL0     C89920  10.133   2.067   4.144  0.2625 -0.0155 -1.0966
  667MOL0     C89921  10.125   2.145   4.013 -0.8523  0.5252 -0.5070
  667MOL0     C89922   9.989   2.163   3.975  1.3701 -0.8597  0.8923
  667MOL0     C89923   9.972   2.244   3.853  0.0441 -0.2492  0.4686
  667MOL0     C89924   9.819   2.258   3.809  0.2038  1.1105 -0.6106
  667MOL0     C89925   9.799   2.346   3.683  0.3144  0.5393  0.1062
  667MOL0     C89926   9.799   2.258   3.568 -0.1732 -0.7965  1.0297
  667MOL0     N89927   9.814   2.344   3.448 -0.1813 -0.1382  0.3855
  667MOL0     C89928   9.737   2.341   3.339 -0.3898  0.1593 -0.9077
  667MOL0     C89929   9.795   2.422   3.243  0.7544  0.8195  0.1124
  667MOL0     C89930   9.749   2.432   3.102  0.1719  0.0337 -0.1299
  667MOL0     C89931   9.773   2.566   3.038 -0.7198 -0.2892 -0.7685
  667MOL0     C89932   9.681   2.578   2.912 -0.2402 -0.2997  0.5414
  667MOL0     C89933   9.714   2.711   2.835  0.8952  0.5187  0.6032
  667MOL0     O89934   9.636   2.814   2.899  0.2231  0.2895  0.4196
  667MOL0     C89935   9.688   2.890   2.998  0.3382 -0.6466  0.3241
  667MOL0     C89936   9.793   2.977   2.967 -0.3176  0.4690 -0.2255
  667MOL0     C89937   9.843   3.067   3.067  0.4687  0.1469 -0.3621
  667MOL0     C89938   9.935   3.169   3.011  0.8726  0.0745 -0.2382
  667MOL0     C89939   9.803   3.049   3.201  0.0151  0.5463  0.1670
  667MOL0     C89940   9.863   3.121   3.307 -0.4048 -0.4331 -0.8228
  667MOL0     O89941   9.805   3.103   3.426 -0.4426  0.1587  0.3811
  667MOL0     C89942   9.872   3.137   3.542  0.0248 -0.4202 -0.2103
  667MOL0     C89943   9.993   3.076   3.595  0.4005 -0.1973  0.6351
  667MOL0     C89944  10.047   3.108   3.714  0.2334 -0.5469 -0.2246
  667MOL0     C89945   9.992   3.196   3.799  0.8770  0.0926  0.2268
  667MOL0     O89946  10.056   3.214   3.917 -0.3510 -0.0392  0.2993
  667MOL0     C89947   9.974   3.253   4.029  0.2993  0.6889  0.0425
  667MOL0     C89948  10.067   3.229   4.151 -0.4352  0.3365  0.6282
  667MOL0     C89949  10.035   3.311   4.280 -0.2741 -0.9187 -1.1219
  667MOL0     C89950  10.143   3.296   4.396  0.1587 -0.0181  0.1406
  667MOL0     C89951  10.282   3.356   4.371  0.4924  0.5906  0.1879
  667MOL0     C89952  10.276   3.511   4.386 -0.1961  1.0205  0.3729
  667MOL0     C89953  10.379   3.566   4.484  0.1495  0.6420  1.3317
  667MOL0     C89954  10.377   3.712   4.522 -0.3573 -0.3381  0.5710
  667MOL0    Cl89955  10.524   3.721   4.631 -0.0191  0.6435 -0.3235
  667MOL0     C89956   9.873   3.269   3.755 -0.5633 -0.2309  0.0513
  667MOL0     C89957   9.816   3.234   3.627 -0.9378  0.3555 -0.3509
  667MOL0     O89958   9.949   3.209   3.284  0.2749  1.3925 -0.7731
  667MOL0     C89959   9.705   2.950   3.222  0.5447 -0.6868  0.2156
  667MOL0     C89960   9.631   2.888   3.122  0.3880  0.1285 -1.6026
  667MOL0     N89961   9.910   2.470   3.294  0.4477  0.6910  0.0611
  667MOL0     N89962   9.925   2.425   3.420  0.2593 -0.1137  0.7413
  667MOL0     C89963  10.232   1.772   4.312 -0.7945 -0.0572 -0.5332
  667MOL0     C89964  10.181   1.661   4.370  0.4890  0.2403  0.0885
  667MOL0     C89965   9.910   1.430   4.666 -0.4919 -0.5414 -0.6275
  667MOL0     C89966   9.987   1.311   4.683 -0.4704  0.1253  0.4170
  667MOL0     C89967   9.930   1.201   4.750 -0.0676 -0.5521 -0.5706
  667MOL0     C89968   9.786   1.200   4.784 -0.9195 -0.8356 -0.0255
  667MOL0     O89969   9.735   1.091   4.833  0.6937  0.3263 -0.5044
  667MOL0     C89970   9.596   1.079   4.822  0.0374  0.7233  0.6037
  667MOL0     C89971   9.556   0.944   4.897 -0.2677 -0.7540  1.5796
  667MOL0     C89972   9.408   0.945   4.944 -0.5968 -0.0915  0.6490
  667MOL0     C89973   9.409   0.938   5.092  0.8423 -0.6691 -0.9162
  667MOL0     C89974   9.273   0.939   5.159 -0.3130  1.0008 -0.1588
  667MOL0     C89975   9.167   0.951   5.223  0.4715  0.2042 -0.2543
  667MOL0     C89976   9.711   1.321   4.761  0.4182 -0.4830 -0.8897
  667MOL0     C89977   9.774   1.430   4.707  1.1976 -0.7933 -0.9539
  667MOL0     H89978  10.090   1.810   4.666  0.5917  2.5162  0.8649
  667MOL0     H89979  10.227   1.990   4.572 -1.0597  0.4079 -0.3503
  667MOL0     H89980  10.344   2.123   4.164  2.0534 -1.1518  0.8403
  667MOL0     H89981  10.322   1.954   4.124 -3.1008 -1.2750 -0.3812
  667MOL0     H89982  10.079   1.972   4.133  0.7660 -0.1778 -2.3356
  667MOL0     H89983  10.095   2.131   4.224  1.1117 -0.1726 -0.5549
  667MOL0     H89984  10.197   2.227   4.004  3.2409 -2.9628 -3.6034
  667MOL0     H89985  10.161   2.065   3.947 -0.8963 -1.3943  1.6843
  667MOL0     H89986   9.952   2.063   3.954 -0.6825  0.2037 -1.0802
  667MOL0     H89987   9.928   2.203   4.056  1.2510 -0.1270  0.4513
  667MOL0     H89988  10.016   2.342   3.873  1.6111 -1.1296  1.5320
  667MOL0     H89989  10.029   2.196   3.772  0.4803 -0.5080  0.9269
  667MOL0     H89990   9.765   2.164   3.804 -0.8423  1.6542  0.0546
  667MOL0     H89991   9.760   2.297   3.893 -1.7272 -1.6664 -0.5712
  667MOL0     H89992   9.704   2.400   3.684  0.1538  0.2722  1.5493
  667MOL0     H89993   9.887   2.410   3.676  1.1091 -0.6927 -1.8870
  667MOL0     H89994   9.709   2.197   3.558  0.0946 -0.9011 -1.0906
  667MOL0     H89995   9.881   2.186   3.578  0.9141  0.0243 -1.2679
  667MOL0     H89996   9.643   2.286   3.330 -0.5750  0.5658 -1.4849
  667MOL0     H89997   9.795   2.354   3.040  3.1253  0.0435  1.8842
  667MOL0     H89998   9.640   2.417   3.095  0.1274  0.8831 -1.6736
  667MOL0     H89999   9.877   2.577   3.007 -0.1401  1.5230  1.5192
  667MOL0     H90000   9.750   2.639   3.117  2.2590 -1.9805  1.8926
  667MOL0     H90001   9.578   2.570   2.950 -1.1262 -1.0840 -1.8380
  667MOL0     H90002   9.694   2.497   2.840 -0.6636 -1.1798  1.4371
  667MOL0     H90003   9.666   2.715   2.737  0.0225 -1.7223  0.8684
  667MOL0     H90004   9.820   2.729   2.819  1.2009  0.1891  2.0493
  667MOL0     H90005   9.815   2.979   2.860  2.1075 -1.2073  0.1699
  667MOL0     H90006  10.039   3.140   3.025  1.1829  1.9360  1.8839
  667MOL0     H90007   9.917   3.185   2.904 -2.8895  2.2123  0.5281
  667MOL0     H90008   9.932   3.267   3.060  3.8253  0.0336  0.1908
  667MOL0     H90009  10.030   2.993   3.536 -2.6250 -1.4255  0.2766
  667MOL0     H90010  10.140   3.063   3.748  1.3348  0.1361 -2.1318
  667MOL0     H90011   9.940   3.355   4.009 -1.3215  0.3768  1.0888
  667MOL0     H90012   9.887   3.186   4.029  0.9537 -0.2809  2.4442
  667MOL0     H90013  10.081   3.122   4.166 -5.4580 -0.5821  0.2632
  667MOL0     H90014  10.163   3.272   4.120 -0.1982 -0.4373  0.2877
  667MOL0     H90015   9.933   3.292   4.314  0.2861 -0.4344  0.9855
  667MOL0     H90016  10.024   3.416   4.249  0.5605  0.1881  1.9877
  667MOL0     H90017  10.109   3.353   4.483  2.8010  1.1212  0.5231
  667MOL0     H90018  10.156   3.188   4.410  1.6285  0.1998  0.6973
  667MOL0     H90019  10.327   3.318   4.280 -1.4315 -1.5385  0.0335
  667MOL0     H90020  10.347   3.327   4.454 -0.4222 -3.9895 -0.4369
  667MOL0     H90021  10.286   3.560   4.289 -0.5911 -1.7950 -1.2062
  667MOL0     H90022  10.173   3.538   4.409 -0.4029  1.7056 -1.2206
  667MOL0     H90023  10.482   3.554   4.448  0.7336  1.6538  2.5754
  667MOL0     H90024  10.368   3.526   4.586  3.9794  0.3314  1.7741
  667MOL0     H90025  10.287   3.741   4.576 -0.8767 -2.2316  0.7809
  667MOL0     H90026  10.382   3.775   4.433  0.1518  2.1756  2.2688
  667MOL0     H90027   9.832   3.356   3.805  3.2816  2.1637 -0.5768
  667MOL0     H90028   9.727   3.288   3.595 -3.8995 -1.9227  3.1506
  667MOL0     H90029   9.682   2.940   3.328  2.9285  1.7077  1.0702
  667MOL0     H90030   9.547   2.823   3.145  1.2022  0.3405  2.8042
  667MOL0     H90031  10.277   1.763   4.214  0.6747  1.8675 -0.0912
  667MOL0     H90032  10.178   1.566   4.319  1.2575 -0.2533  0.9359
  667MOL0     H90033  10.089   1.305   4.646 -0.9914 -2.6609 -0.7521
  667MOL0     H90034   9.993   1.114   4.770 -0.2288 -0.9258 -1.6333
  667MOL0     H90035   9.545   1.157   4.879  1.9855  0.7336  2.4429
  667MOL0     H90036   9.556   1.066   4.721 -0.4247 -1.5803  1.0217
  667MOL0     H90037   9.617   0.929   4.986 -0.1293 -1.8982  1.3119
  667MOL0     H90038   9.581   0.859   4.832 -0.9918  0.3567 -0.2305
  667MOL0     H90039   9.367   0.851   4.907  2.9055 -0.6523 -2.4005
  667MOL0     H90040   9.345   1.029   4.916 -1.2123  0.6022  3.7004
  667MOL0     H90041   9.470   1.015   5.141 -0.8227 -0.0288  0.2575
  667MOL0     H90042   9.448   0.842   5.126  0.1156 -0.5835  0.2596
  667MOL0     H90043   9.066   0.949   5.258  0.7112 -1.3042  0.4205
  667MOL0     H90044   9.605   1.339   4.770  0.4429  1.4665 -3.1842
  667MOL0     H90045   9.723   1.524   4.689  0.9363 -1.0141 -1.3619
  668MOL0     O90046   2.988   1.123  11.345 -0.0623  0.1795 -0.0010
  668MOL0     C90047   3.032   1.190  11.252 -0.0378 -0.2677 -0.4678
  668MOL0     O90048   2.974   1.204  11.126  0.0140  0.6127  0.0870
  668MOL0     C90049   2.845   1.158  11.112  0.1760 -0.3012  0.3019
  668MOL0     C90050   2.768   1.239  11.025 -0.0037  0.0128  0.0703
  668MOL0     C90051   2.632   1.208  10.991  0.0727 -0.4654  0.5073
  668MOL0     C90052   2.573   1.090  11.038 -1.1094 -0.3118 -0.5335
  668MOL0     O90053   2.444   1.061  11.021 -0.2391 -0.0025 -0.7968
  668MOL0     C90054   2.422   0.994  10.900  0.2735  0.5926  0.0802
  668MOL0     C90055   2.283   0.922  10.881 -0.4590 -0.3597 -0.5612
  668MOL0     C90056   2.259   0.801  10.962 -0.0830 -0.7955  0.1011
  668MOL0     C90057   2.116   0.748  10.931  0.3159  0.6822 -0.1991
  668MOL0     C90058   2.112   0.592  10.957 -0.4902 -0.1682  0.0076
  668MOL0     C90059   2.176   0.514  10.829  0.7765 -0.2073 -0.0645
  668MOL0     C90060   2.166   0.364  10.841 -0.5268  0.0982  0.7864
  668MOL0     C90061   2.236   0.296  10.954  0.7808 -0.8615  0.3769
  668MOL0     N90062   2.382   0.303  10.945 -0.6592  0.2486  0.2930
  668MOL0     C90063   2.457   0.256  10.838 -0.2125  0.1951  0.1183
  668MOL0     C90064   2.579   0.265  10.887 -0.2720  1.1905 -0.1091
  668MOL0     C90065   2.707   0.219  10.816  0.8588  0.1777  0.2291
  668MOL0     C90066   2.836   0.221  10.889  1.4139  0.1404 -0.1319
  668MOL0     C90067   2.942   0.146  10.814  0.4953 -1.2217  0.4698
  668MOL0     C90068   3.070   0.197  10.872 -0.0193 -0.0245  0.0894
  668MOL0     O90069   3.184   0.125  10.831  0.1410 -0.4219  0.8807
  668MOL0     C90070   3.199   0.002  10.885 -0.0339 -0.4284  0.2780
  668MOL0     C90071   3.309  -0.065  10.841  0.1003 -0.0291  0.2846
  668MOL0     C90072   3.347  -0.195  10.886 -0.2621 -0.1096 -1.1815
  668MOL0     C90073   3.482  -0.252  10.844 -0.5353 -0.1342 -0.7045
  668MOL0     C90074   3.264  -0.251  10.984 -0.0998 -0.2676 -0.0936
  668MOL0     C90075   3.293  -0.382  11.050  0.1398  0.1231  0.7694
  668MOL0     O90076   3.185  -0.438  11.112 -0.2297  0.2355 -0.4871
  668MOL0     C90077   3.213  -0.538  11.196 -0.2130 -0.0328  0.2953
  668MOL0     C90078   3.258  -0.505  11.325 -0.5863  0.7944  0.4886
  668MOL0     C90079   3.304  -0.602  11.408  0.3472  0.7871 -0.3005
  668MOL0     C90080   3.280  -0.738  11.379  0.4413 -0.4673  0.4211
  668MOL0     O90081   3.319  -0.839  11.460  0.1711  0.1133 -0.2318
  668MOL0     C90082   3.446  -0.834  11.519  0.9607  0.4644 -0.1339
  668MOL0     C90083   3.549  -0.846  11.415 -0.7742  0.1655  0.1575
  668MOL0     C90084   3.560  -0.982  11.337  0.5604 -0.3400 -0.7940
  668MOL0     C90085   3.659  -0.969  11.218 -0.5942 -0.6061  1.1249
  668MOL0     C90086   3.807  -0.989  11.249 -0.1589  0.6542 -0.2033
  668MOL0     C90087   3.894  -1.026  11.125 -1.1214  0.0128  0.3875
  668MOL0     C90088   4.046  -1.057  11.152  0.4106  0.1839 -0.0233
  668MOL0     C90089   4.116  -1.114  11.027  0.6853  0.0247 -0.8314
  668MOL0    Cl90090   4.027  -1.241  10.939 -0.1884 -0.3853 -0.2647
  668MOL0     C90091   3.219  -0.769  11.256 -0.8414  0.5686 -0.2082
  668MOL0     C90092   3.183  -0.670  11.165 -0.1100 -0.0939 -0.1647
  668MOL0     O90093   3.411  -0.419  11.058  0.2674  0.0121 -0.1679
  668MOL0     C90094   3.153  -0.183  11.030  0.0780 -0.3272  0.7894
  668MOL0     C90095   3.123  -0.059  10.981  0.5944  0.9771  0.7996
  668MOL0     N90096   2.576   0.300  11.015  0.1662  0.7501 -0.5300
  668MOL0     N90097   2.460   0.324  11.054 -0.7419  0.0414 -0.7214
  668MOL0     C90098   2.649   1.011  11.123  0.3447 -0.0489  0.2861
  668MOL0     C90099   2.780   1.045  11.162  0.0959  0.6959  1.0141
  668MOL0     C90100   3.143   1.289  11.281 -0.6968  0.0936 -0.2322
  668MOL0     C90101   3.176   1.318  11.419  0.1376  0.0310 -0.4942
  668MOL0     C90102   3.277   1.408  11.453 -0.1758  0.3844  0.0279
  668MOL0     C90103   3.351   1.465  11.354  0.2694 -0.0793 -0.2889
  668MOL0     O90104   3.462   1.550  11.370  0.2092  0.5482 -0.0957
  668MOL0     C90105   3.534   1.515  11.489 -1.0192  0.8004 -0.5677
  668MOL0     C90106   3.506   1.616  11.598 -0.5925 -1.0478  0.1053
  668MOL0     C90107   3.604   1.734  11.594 -0.3357 -0.4537 -1.0236
  668MOL0     C90108   3.565   1.816  11.725  0.0416  0.0944 -0.0256
  668MOL0     C90109   3.441   1.900  11.706 -0.5418  0.8505  0.4263
  668MOL0     C90110   3.343   1.972  11.672 -0.6076  0.0658 -0.1393
  668MOL0     C90111   3.322   1.440  11.217  0.4241  0.6297  0.0808
  668MOL0     C90112   3.216   1.353  11.179  1.1178 -0.3090  0.8553
  668MOL0     H90113   2.810   1.335  10.997 -0.2778  0.4432  1.0878
  668MOL0     H90114   2.570   1.286  10.947 -1.3308 -3.5013 -3.5332
  668MOL0     H90115   2.428   1.070  10.821 -0.2967  0.9021  0.3307
  668MOL0     H90116   2.497   0.915  10.887 -0.0724  0.1385  0.7843
  668MOL0     H90117   2.202   0.994  10.896 -0.6662 -0.3558 -1.6658
  668MOL0     H90118   2.290   0.896  10.775 -2.1620  0.6291 -0.9534
  668MOL0     H90119   2.331   0.722  10.936 -2.1278 -3.1421  1.1208
  668MOL0     H90120   2.279   0.836  11.064  4.5047 -0.8674 -0.5609
  668MOL0     H90121   2.045   0.792  11.002 -2.5649  0.6423 -2.8337
  668MOL0     H90122   2.074   0.771  10.833  1.5611 -2.2579 -1.5295
  668MOL0     H90123   2.171   0.569  11.046 -1.1814  0.1317  0.5470
  668MOL0     H90124   2.012   0.557  10.981 -0.3491 -1.9112 -1.6698
  668MOL0     H90125   2.111   0.532  10.743  1.4390  0.3355 -0.4581
  668MOL0     H90126   2.282   0.537  10.816  1.4179 -0.8326  3.0877
  668MOL0     H90127   2.062   0.332  10.833 -0.2937 -0.2618 -1.4262
  668MOL0     H90128   2.216   0.335  10.748  0.8807  2.9384  0.5437
  668MOL0     H90129   2.186   0.200  10.967 -1.8856  0.5599  1.7078
  668MOL0     H90130   2.208   0.354  11.043  1.7848 -0.5454  0.4997
  668MOL0     H90131   2.423   0.248  10.735 -2.0216  1.6782  0.5585
  668MOL0     H90132   2.676   0.116  10.795  2.7315 -0.3459 -0.1484
  668MOL0     H90133   2.717   0.268  10.718 -1.8663 -1.4984 -0.9987
  668MOL0     H90134   2.820   0.176  10.988 -1.2962 -2.2569 -1.5018
  668MOL0     H90135   2.866   0.323  10.913  0.8818 -0.3207  3.0036
  668MOL0     H90136   2.931   0.165  10.707  0.0884 -0.6182  0.6146
  668MOL0     H90137   2.935   0.037  10.824 -1.5365 -1.0552  1.4662
  668MOL0     H90138   3.074   0.196  10.982 -1.4229  0.2470  0.1634
  668MOL0     H90139   3.082   0.301  10.839  2.4864 -1.2226 -3.3168
  668MOL0     H90140   3.375  -0.004  10.780 -0.6705  0.3358 -0.1909
  668MOL0     H90141   3.542  -0.285  10.929 -0.0174  2.5375  0.0479
  668MOL0     H90142   3.457  -0.338  10.781 -0.3912 -1.9145  1.5203
  668MOL0     H90143   3.549  -0.185  10.789  1.9649 -3.6094 -2.2640
  668MOL0     H90144   3.273  -0.399  11.344 -1.9375  1.0152  0.3891
  668MOL0     H90145   3.343  -0.572  11.505 -1.3008  1.0862  0.2997
  668MOL0     H90146   3.455  -0.733  11.560  3.0045 -0.7469  2.7357
  668MOL0     H90147   3.456  -0.903  11.603  0.5055  0.8351  0.2293
  668MOL0     H90148   3.526  -0.763  11.347 -3.5567 -1.8794 -1.6315
  668MOL0     H90149   3.647  -0.822  11.457 -1.3348  2.7732  0.1446
  668MOL0     H90150   3.458  -0.991  11.300  1.0283  0.3319 -2.2994
  668MOL0     H90151   3.583  -1.068  11.401 -0.0971 -0.8651 -1.2443
  668MOL0     H90152   3.633  -1.034  11.134 -0.3111  1.9795 -1.0919
  668MOL0     H90153   3.640  -0.885  11.152 -1.8158 -0.8452  1.1441
  668MOL0     H90154   3.818  -1.069  11.324 -0.5479  1.7454  1.0541
  668MOL0     H90155   3.847  -0.898  11.294  3.0271 -1.2396  1.2003
  668MOL0     H90156   3.847  -1.116  11.084  2.9503 -1.2259 -2.1787
  668MOL0     H90157   3.889  -0.958  11.040  0.4299 -2.1316 -1.5546
  668MOL0     H90158   4.042  -1.133  11.231 -1.2531 -1.7143 -1.8302
  668MOL0     H90159   4.094  -0.969  11.197  2.7238 -0.9786 -0.0552
  668MOL0     H90160   4.208  -1.156  11.070 -0.1638  1.2452  2.4480
  668MOL0     H90161   4.148  -1.032  10.962  0.4636  2.2815  1.7454
  668MOL0     H90162   3.185  -0.870  11.234 -0.0122  0.5396 -1.4178
  668MOL0     H90163   3.129  -0.703  11.077  0.1769 -1.5763  0.1931
  668MOL0     H90164   3.098  -0.220  11.116  3.2332  0.2244  3.2362
  668MOL0     H90165   3.029  -0.020  11.017 -1.2122 -4.1398  2.5419
  668MOL0     H90166   2.605   0.917  11.154  1.7762 -1.1673 -0.9324
  668MOL0     H90167   2.829   0.973  11.227 -0.6919 -1.7084 -0.9330
  668MOL0     H90168   3.118   1.271  11.497 -0.4185  3.8908  1.6734
  668MOL0     H90169   3.291   1.439  11.556  1.0660  3.8531 -1.0427
  668MOL0     H90170   3.515   1.413  11.522  1.9211 -0.7653 -3.0966
  668MOL0     H90171   3.641   1.512  11.465 -1.5823 -1.5238 -3.4113
  668MOL0     H90172   3.520   1.560  11.691  2.0683 -1.8379 -0.6695
  668MOL0     H90173   3.408   1.662  11.587  1.5036  3.9059 -0.6754
  668MOL0     H90174   3.590   1.804  11.512  0.0671  0.0464 -0.6759
  668MOL0     H90175   3.707   1.699  11.589 -0.2278  0.0630 -3.6124
  668MOL0     H90176   3.651   1.879  11.745  1.4337 -1.4845 -0.7730
  668MOL0     H90177   3.564   1.751  11.813 -0.2226 -2.3719 -1.7421
  668MOL0     H90178   3.266   2.042  11.645  0.4760  1.6650  0.7528
  668MOL0     H90179   3.370   1.493  11.136  1.0215 -0.7880 -0.5361
  668MOL0     H90180   3.180   1.345  11.077 -4.0923 -2.5345  2.5247
  669MOL0     O90181   1.070  11.039   5.099  0.6986 -0.5993 -0.2670
  669MOL0     C90182   1.106  11.050   5.222  1.0788 -0.5207 -0.0345
  669MOL0     O90183   1.178  10.966   5.291 -0.8064  0.4979  0.0572
  669MOL0     C90184   1.257  10.874   5.229 -0.2377  0.8530 -0.2881
  669MOL0     C90185   1.403  10.872   5.225 -0.8533  0.1083  0.5624
  669MOL0     C90186   1.477  10.761   5.173 -0.2458  0.3058  0.4467
  669MOL0     C90187   1.414  10.650   5.111 -0.5596  0.3812 -0.3822
  669MOL0     O90188   1.494  10.547   5.060  0.8377  0.5284  0.3730
  669MOL0     C90189   1.432  10.490   4.945 -0.3837  0.8019 -0.1296
  669MOL0     C90190   1.550  10.408   4.871  0.0479 -0.0951 -0.0822
  669MOL0     C90191   1.494  10.334   4.745 -0.2943  0.0441 -0.3601
  669MOL0     C90192   1.462  10.429   4.629  0.8119 -0.4821  0.8032
  669MOL0     C90193   1.413  10.354   4.500 -0.1554  0.3055 -0.0728
  669MOL0     C90194   1.528  10.325   4.407  0.4300  0.5742  0.3988
  669MOL0     C90195   1.490  10.251   4.275  0.0541 -0.0999  0.1839
  669MOL0     C90196   1.615  10.176   4.225 -0.0252  0.1350 -0.2190
  669MOL0     N90197   1.572  10.072   4.137  0.2796  0.4121 -0.4137
  669MOL0     C90198   1.532   9.948   4.191  0.9605 -0.9854 -0.1019
  669MOL0     C90199   1.487   9.874   4.086 -0.5761  0.0323 -0.4739
  669MOL0     C90200   1.424   9.741   4.078  0.3248  0.4335 -0.6571
  669MOL0     C90201   1.318   9.731   3.970 -0.1176  0.6494 -0.2672
  669MOL0     C90202   1.256   9.592   3.961 -0.3713 -0.0233  0.4806
  669MOL0     C90203   1.139   9.578   4.050  0.3274  0.1316 -0.1996
  669MOL0     O90204   1.061   9.457   4.015 -0.2614  0.6354 -0.3738
  669MOL0     C90205   0.958   9.411   4.101 -0.8200 -0.0116  0.3387
  669MOL0     C90206   0.916   9.283   4.072  0.1415  0.3187 -0.1893
  669MOL0     C90207   0.801   9.233   4.140 -0.3708  0.4065 -0.1411
  669MOL0     C90208   0.738   9.107   4.106  0.9154  0.2592  0.6166
  669MOL0     C90209   0.750   9.308   4.249  0.2727 -0.5169 -0.0759
  669MOL0     C90210   0.650   9.259   4.353 -0.9646 -0.1571  0.9261
  669MOL0     O90211   0.651   9.122   4.376 -0.2857  0.8307  0.1411
  669MOL0     C90212   0.539   9.077   4.453 -0.9231  0.0043  0.4892
  669MOL0     C90213   0.412   9.071   4.403 -0.0580  0.2642  0.5735
  669MOL0     C90214   0.305   9.061   4.490 -0.2556  0.2687 -0.7939
  669MOL0     C90215   0.322   9.035   4.627 -0.5120 -0.4179  0.3742
  669MOL0     O90216   0.223   9.000   4.723 -0.1992 -0.7000 -0.2924
  669MOL0     C90217   0.079   8.979   4.692  0.3175  0.2221 -0.2088
  669MOL0     C90218   0.004   8.982   4.822 -1.1496 -0.5437 -0.7365
  669MOL0     C90219  -0.138   8.942   4.796 -0.0903 -1.1745  0.1966
  669MOL0     C90220  -0.219   9.048   4.725 -0.3958  0.3108 -0.2420
  669MOL0     C90221  -0.357   8.985   4.718 -0.2559 -0.1999  0.1623
  669MOL0     C90222  -0.445   9.096   4.663 -0.5679 -0.1790  0.3012
  669MOL0     C90223  -0.601   9.064   4.654  0.1515  0.7490  0.0790
  669MOL0     C90224  -0.651   9.020   4.789  0.7025  0.8962 -0.1149
  669MOL0    Cl90225  -0.821   8.988   4.776  0.3083  0.4220  0.1678
  669MOL0     C90226   0.450   9.048   4.675 -0.6356  0.6104  0.1398
  669MOL0     C90227   0.559   9.059   4.589 -0.1209 -0.1097 -0.3731
  669MOL0     O90228   0.572   9.345   4.402  0.0085  0.3682  0.3368
  669MOL0     C90229   0.801   9.434   4.281 -0.5583  0.3910 -0.4332
  669MOL0     C90230   0.910   9.483   4.209  0.8700  0.5869 -1.1622
  669MOL0     N90231   1.508   9.952   3.975 -0.2103 -0.7177  0.4920
  669MOL0     N90232   1.557  10.069   4.005 -0.1326 -0.2226  0.5730
  669MOL0     C90233   1.270  10.658   5.105 -0.2494 -0.2147  0.0516
  669MOL0     C90234   1.192  10.767   5.166  0.5755 -0.3177 -0.1568
  669MOL0     C90235   1.082  11.186   5.285 -0.0929  0.8336  0.2617
  669MOL0     C90236   0.996  11.279   5.218  0.2278  0.3121 -0.3218
  669MOL0     C90237   0.978  11.401   5.277  0.2749 -0.3361  0.4000
  669MOL0     C90238   1.035  11.434   5.407  0.1265  0.3090  0.4742
  669MOL0     O90239   1.016  11.566   5.463 -0.3917 -0.4958  0.0394
  669MOL0     C90240   1.009  11.685   5.382  0.2430  0.6280  0.0599
  669MOL0     C90241   1.026  11.811   5.462  0.4308  0.3994 -0.4857
  669MOL0     C90242   0.989  11.934   5.382  0.0008  0.2574 -0.3946
  669MOL0     C90243   1.030  12.056   5.466  0.9952  0.7501 -0.8685
  669MOL0     C90244   0.981  12.170   5.394 -0.5032 -0.0044  0.6516
  669MOL0     C90245   0.921  12.261   5.346  0.7165 -0.3936 -0.7449
  669MOL0     C90246   1.110  11.340   5.472  0.1044 -0.4470  0.3801
  669MOL0     C90247   1.136  11.223   5.411 -0.7433 -0.2993 -0.3578
  669MOL0     H90248   1.477  10.940   5.265  2.8331 -3.5583  0.7058
  669MOL0     H90249   1.584  10.763   5.188  0.1092 -2.2040 -1.0784
  669MOL0     H90250   1.366  10.411   4.984  2.0876 -1.4605 -0.2724
  669MOL0     H90251   1.371  10.562   4.889 -1.5600  0.3603  0.5367
  669MOL0     H90252   1.621  10.475   4.821 -0.0888 -0.3025 -0.5629
  669MOL0     H90253   1.606  10.334   4.930  2.0375  1.7002  0.3959
  669MOL0     H90254   1.573  10.265   4.713 -1.0854 -2.0648  1.8731
  669MOL0     H90255   1.400  10.284   4.769 -1.8359  3.5189  1.4500
  669MOL0     H90256   1.373  10.489   4.651  0.1729  0.0700 -2.6661
  669MOL0     H90257   1.556  10.485   4.620  1.6986 -1.8685  1.1376
  669MOL0     H90258   1.389  10.256   4.541  0.8552  0.5563  1.2305
  669MOL0     H90259   1.328  10.404   4.453  0.5748  3.3829  1.5489
  669MOL0     H90260   1.582  10.414   4.372  0.1180 -0.2659 -2.4773
  669MOL0     H90261   1.595  10.261   4.464 -0.0006 -0.6823 -0.4609
  669MOL0     H90262   1.418  10.172   4.300 -0.1521 -0.1751 -0.6152
  669MOL0     H90263   1.437  10.326   4.215  1.7060  1.7736  0.9762
  669MOL0     H90264   1.665  10.132   4.312  2.0145  0.5401 -1.1326
  669MOL0     H90265   1.680  10.243   4.169  0.2536 -2.0276 -2.6557
  669MOL0     H90266   1.536   9.923   4.296  0.8237  0.0962  0.1782
  669MOL0     H90267   1.514   9.683   4.054  1.0412  2.1421 -2.3449
  669MOL0     H90268   1.379   9.716   4.174 -3.4861 -0.4914 -2.4712
  669MOL0     H90269   1.352   9.761   3.871 -1.5199 -1.1597 -1.3626
  669MOL0     H90270   1.233   9.797   3.991  1.0405  1.9944  0.3333
  669MOL0     H90271   1.329   9.513   3.981 -0.2187  0.0444  0.1967
  669MOL0     H90272   1.236   9.579   3.854  3.9207  4.5914 -1.2813
  669MOL0     H90273   1.075   9.667   4.052  0.3895  0.1620  0.7436
  669MOL0     H90274   1.178   9.575   4.152 -1.3019  1.4178  0.5048
  669MOL0     H90275   0.953   9.235   3.982 -0.0256 -1.8422  0.8314
  669MOL0     H90276   0.769   9.089   4.003 -2.3681  2.6627 -0.9896
  669MOL0     H90277   0.767   9.028   4.177 -1.3842  1.6031  3.2489
  669MOL0     H90278   0.630   9.120   4.095  1.1439 -0.0223 -3.4648
  669MOL0     H90279   0.391   9.119   4.308 -1.9942  0.1890  0.9372
  669MOL0     H90280   0.218   9.039   4.427 -0.1178 -0.0471 -0.8771
  669MOL0     H90281   0.048   9.062   4.628 -0.1636 -0.9450 -1.5378
  669MOL0     H90282   0.071   8.880   4.647 -0.4066 -1.0880  2.5827
  669MOL0     H90283   0.044   8.901   4.884  2.3511  3.6674  3.1938
  669MOL0     H90284   0.012   9.075   4.879  1.8839 -1.1766  0.0368
  669MOL0     H90285  -0.185   8.901   4.886 -3.4851  0.2441 -0.7879
  669MOL0     H90286  -0.131   8.851   4.735  2.7898 -1.5992  1.0190
  669MOL0     H90287  -0.223   9.143   4.777  1.7551  0.5089 -0.3527
  669MOL0     H90288  -0.173   9.059   4.626  0.2789 -0.4936 -0.0225
  669MOL0     H90289  -0.386   8.962   4.821  0.7647 -0.8935  0.3086
  669MOL0     H90290  -0.356   8.900   4.649  1.3961 -0.0948  0.0088
  669MOL0     H90291  -0.433   9.195   4.709 -0.7666  0.1225 -0.2811
  669MOL0     H90292  -0.411   9.118   4.561 -1.5307  1.3208  0.2634
  669MOL0     H90293  -0.609   8.981   4.583 -1.8459 -0.8406  2.0191
  669MOL0     H90294  -0.657   9.149   4.615  0.8301  1.4060  0.4916
  669MOL0     H90295  -0.636   9.108   4.851  0.9918  0.6879  0.1123
  669MOL0     H90296  -0.593   8.934   4.824  0.8831 -0.2161 -2.8495
  669MOL0     H90297   0.479   9.042   4.780  2.9775 -0.1916 -0.7545
  669MOL0     H90298   0.657   9.063   4.636 -0.9064 -0.6729  1.3980
  669MOL0     H90299   0.751   9.492   4.358  0.1532 -2.0152  1.9977
  669MOL0     H90300   0.938   9.582   4.242 -4.1004  1.1700  2.4930
  669MOL0     H90301   1.233  10.566   5.061  1.3117 -0.4751 -0.8000
  669MOL0     H90302   1.084  10.766   5.163  0.3734  2.2885  1.9482
  669MOL0     H90303   0.952  11.250   5.123 -3.0026  2.4317  0.3508
  669MOL0     H90304   0.915  11.467   5.218 -0.7695 -1.2623  0.4526
  669MOL0     H90305   1.094  11.677   5.314  1.2523 -1.2653  1.4782
  669MOL0     H90306   0.914  11.691   5.328  1.4228  3.0841 -1.9977
  669MOL0     H90307   1.127  11.826   5.503  0.1605  0.9189 -0.0007
  669MOL0     H90308   0.954  11.818   5.544  3.0048  2.8140  1.7882
  669MOL0     H90309   0.881  11.938   5.366  0.1160  0.0947 -1.2423
  669MOL0     H90310   1.040  11.933   5.285 -1.0639 -1.7067 -0.9799
  669MOL0     H90311   1.137  12.069   5.485  1.0890  0.2268 -1.0136
  669MOL0     H90312   0.983  12.042   5.564  3.3166  1.9513  0.5174
  669MOL0     H90313   0.865  12.343   5.305  0.9698 -0.8981 -2.1629
  669MOL0     H90314   1.155  11.347   5.571  2.3626  1.4867 -0.6650
  669MOL0     H90315   1.185  11.142   5.462  0.1386 -0.0876 -0.8592
  670MOL0     O90316   0.272   8.611   6.137 -0.8066 -0.0947  1.4353
  670MOL0     C90317   0.152   8.588   6.141 -0.2432  0.2569 -0.7189
  670MOL0     O90318   0.095   8.552   6.258 -0.1608  0.1362  0.0390
  670MOL0     C90319   0.178   8.549   6.368 -0.3986  0.8389 -0.3333
  670MOL0     C90320   0.221   8.662   6.449 -0.4165 -0.1898  0.7798
  670MOL0     C90321   0.308   8.650   6.562 -0.4869  0.5345  0.9897
  670MOL0     C90322   0.364   8.524   6.595 -0.1896  0.7511  0.8980
  670MOL0     O90323   0.469   8.507   6.685  0.2431 -0.1350 -0.2498
  670MOL0     C90324   0.587   8.540   6.616 -0.2909  0.2735 -0.5953
  670MOL0     C90325   0.699   8.566   6.713  0.4570  1.1209 -0.5349
  670MOL0     C90326   0.840   8.576   6.651  0.1307  0.4466 -0.2912
  670MOL0     C90327   0.872   8.445   6.580  0.3883 -0.6018 -0.5330
  670MOL0     C90328   1.013   8.458   6.526 -0.3869 -0.1080  0.3019
  670MOL0     C90329   1.064   8.320   6.505 -0.6492  0.9203  0.0751
  670MOL0     C90330   1.217   8.325   6.489 -0.5057  0.4749  0.1460
  670MOL0     C90331   1.270   8.187   6.441  0.3466 -0.0013 -0.6996
  670MOL0     N90332   1.218   8.075   6.520  0.2765 -0.3459  0.0544
  670MOL0     C90333   1.281   8.006   6.616 -0.1007  0.1664  0.0495
  670MOL0     C90334   1.193   7.911   6.645  1.5087  0.0959  0.4064
  670MOL0     C90335   1.223   7.795   6.723  0.0995  0.8914  0.1173
  670MOL0     C90336   1.270   7.824   6.867 -0.1862 -0.6416  0.4432
  670MOL0     C90337   1.175   7.910   6.946  0.0211  0.2561  0.0323
  670MOL0     C90338   1.219   7.893   7.102  0.2407 -0.3598 -0.4828
  670MOL0     O90339   1.143   7.965   7.196  0.1675  0.0317  0.4614
  670MOL0     C90340   1.164   8.098   7.217 -0.4806 -0.3563 -0.9915
  670MOL0     C90341   1.051   8.169   7.277 -0.7829  0.3179 -0.2196
  670MOL0     C90342   1.064   8.303   7.319 -0.3127 -0.6935 -0.9952
  670MOL0     C90343   0.950   8.368   7.396  0.8259  0.0031  0.4916
  670MOL0     C90344   1.189   8.374   7.290  0.0984 -0.2051  0.1181
  670MOL0     C90345   1.214   8.517   7.311 -0.4839  0.4955 -0.4966
  670MOL0     O90346   1.349   8.551   7.312  0.1502 -0.0427 -0.0549
  670MOL0     C90347   1.378   8.691   7.310 -0.6935 -0.2678  0.4328
  670MOL0     C90348   1.319   8.803   7.245  1.1775 -0.7859 -0.5873
  670MOL0     C90349   1.352   8.933   7.256  0.1170 -0.5963  0.5387
  670MOL0     C90350   1.459   8.968   7.338 -0.5338  0.2063  0.3520
  670MOL0     O90351   1.498   9.100   7.375  0.4756  0.4223 -1.1374
  670MOL0     C90352   1.434   9.204   7.307  0.6371  0.4887  0.0943
  670MOL0     C90353   1.292   9.226   7.356  0.7879  1.0661 -0.2210
  670MOL0     C90354   1.283   9.276   7.501  0.1504 -0.7880  0.1733
  670MOL0     C90355   1.138   9.280   7.552  0.7253 -0.1618 -0.4856
  670MOL0     C90356   1.139   9.359   7.687 -0.2268 -0.6092  1.1124
  670MOL0     C90357   1.185   9.272   7.800  0.2066 -0.2691  0.0229
  670MOL0     C90358   1.160   9.328   7.941 -0.7024  0.3738  0.9021
  670MOL0     C90359   1.258   9.268   8.042  0.4369  0.3518 -0.4941
  670MOL0    Cl90360   1.225   9.101   8.061  0.4971  0.3279 -0.0739
  670MOL0     C90361   1.523   8.860   7.406  0.5655 -1.2391 -0.5817
  670MOL0     C90362   1.482   8.724   7.393 -0.2790  0.7276  0.2618
  670MOL0     O90363   1.123   8.598   7.354  0.0956 -0.3419 -0.5962
  670MOL0     C90364   1.291   8.302   7.226  0.0277 -0.7286  0.0413
  670MOL0     C90365   1.280   8.171   7.186  0.1470 -0.1799 -0.4262
  670MOL0     N90366   1.071   7.922   6.563  0.0581  0.4305 -0.0630
  670MOL0     N90367   1.101   8.013   6.485  0.0759 -0.4545 -0.1680
  670MOL0     C90368   0.327   8.420   6.514 -0.2346 -0.0871  0.6533
  670MOL0     C90369   0.242   8.426   6.404  1.1537 -0.0195  0.5223
  670MOL0     C90370   0.061   8.584   6.021 -0.2020 -0.4379 -0.7233
  670MOL0     C90371   0.123   8.589   5.894 -0.6762  0.9660 -0.5286
  670MOL0     C90372   0.041   8.584   5.781 -0.4375  0.5153  0.2431
  670MOL0     C90373  -0.095   8.575   5.788  0.7249 -0.0705 -0.1834
  670MOL0     O90374  -0.178   8.566   5.677  0.0431  0.1806 -0.1049
  670MOL0     C90375  -0.161   8.675   5.577  0.3355  0.8834 -0.8063
  670MOL0     C90376  -0.293   8.739   5.539  0.6882  0.0959 -0.0505
  670MOL0     C90377  -0.349   8.818   5.657 -1.0963  0.4295  0.2272
  670MOL0     C90378  -0.462   8.735   5.721 -0.5576 -0.2002  0.0096
  670MOL0     C90379  -0.507   8.776   5.859 -0.9093 -0.0391  0.9038
  670MOL0     C90380  -0.522   8.792   5.979 -0.1561 -0.7709  0.4954
  670MOL0     C90381  -0.159   8.579   5.914  0.3092  1.4652 -0.2787
  670MOL0     C90382  -0.082   8.581   6.027  0.4787 -0.7954  0.1318
  670MOL0     H90383   0.182   8.755   6.409 -2.7005 -1.7771 -0.9538
  670MOL0     H90384   0.335   8.736   6.623 -2.6740  1.1801  1.1396
  670MOL0     H90385   0.619   8.450   6.562  3.4133  0.1356  1.4588
  670MOL0     H90386   0.571   8.632   6.559 -1.8753  2.5593  3.1557
  670MOL0     H90387   0.682   8.660   6.767  5.7980  1.3988  1.2298
  670MOL0     H90388   0.708   8.484   6.785  3.8386  0.0123 -2.0177
  670MOL0     H90389   0.855   8.653   6.574  0.2791  1.2507  0.5254
  670MOL0     H90390   0.909   8.597   6.733 -1.3977  0.3661  1.0720
  670MOL0     H90391   0.865   8.365   6.654 -1.8924 -2.2125 -2.3158
  670MOL0     H90392   0.804   8.419   6.498 -0.6729  0.8683 -0.1575
  670MOL0     H90393   0.996   8.514   6.434  0.8803  0.4209  0.3670
  670MOL0     H90394   1.066   8.513   6.604  0.4178 -1.0944  0.4715
  670MOL0     H90395   1.042   8.258   6.592 -0.8061 -1.6517 -1.6855
  670MOL0     H90396   1.021   8.267   6.420  0.8006 -3.5754  1.8183
  670MOL0     H90397   1.226   8.388   6.400  0.3648  0.6518  0.3512
  670MOL0     H90398   1.265   8.362   6.580 -0.9898  0.8557  0.2491
  670MOL0     H90399   1.378   8.186   6.431  0.4373  0.9346  0.0121
  670MOL0     H90400   1.233   8.165   6.340  0.1343 -3.1499 -0.0202
  670MOL0     H90401   1.385   8.002   6.646 -0.2050  1.6213  0.6552
  670MOL0     H90402   1.132   7.734   6.728 -0.2852  0.9268 -3.6646
  670MOL0     H90403   1.296   7.733   6.672 -2.3586 -4.4622  2.2937
  670MOL0     H90404   1.363   7.882   6.860 -1.2430  0.8923 -2.9658
  670MOL0     H90405   1.289   7.733   6.925  2.4738  0.2981  1.1837
  670MOL0     H90406   1.073   7.871   6.936  1.1390 -2.5661 -1.4621
  670MOL0     H90407   1.186   8.016   6.919  4.2487  0.3140  1.2273
  670MOL0     H90408   1.325   7.919   7.109 -0.3979  2.3731  0.2600
  670MOL0     H90409   1.214   7.786   7.119 -2.8140 -0.5076 -1.7961
  670MOL0     H90410   0.976   8.096   7.306  1.5106 -1.3086  2.0854
  670MOL0     H90411   0.880   8.416   7.327  1.0338 -1.8082 -1.0644
  670MOL0     H90412   0.895   8.291   7.450  0.3022  0.9756  1.3871
  670MOL0     H90413   0.980   8.441   7.472 -1.5961  2.4290 -0.7053
  670MOL0     H90414   1.241   8.779   7.174 -1.5442  0.8855  1.6193
  670MOL0     H90415   1.293   8.995   7.189 -2.1396 -2.5336  0.6169
  670MOL0     H90416   1.492   9.297   7.311  0.4502  0.6536 -0.8431
  670MOL0     H90417   1.433   9.165   7.205 -1.1954  2.8880 -0.9082
  670MOL0     H90418   1.242   9.300   7.293  2.6116  1.5663 -1.1577
  670MOL0     H90419   1.233   9.134   7.353  0.8502  0.9830  0.6340
  670MOL0     H90420   1.334   9.373   7.501  3.8014 -2.5092 -0.5816
  670MOL0     H90421   1.352   9.218   7.562  0.2520 -1.2231 -0.3433
  670MOL0     H90422   1.073   9.333   7.482 -0.1276  0.1934  0.5518
  670MOL0     H90423   1.099   9.179   7.570  2.2449 -0.8264 -0.7257
  670MOL0     H90424   1.034   9.379   7.711 -1.2443 -0.7938 -2.5863
  670MOL0     H90425   1.204   9.445   7.671  0.6321 -1.3102  0.7056
  670MOL0     H90426   1.126   9.180   7.791  2.3030 -1.9808  2.3769
  670MOL0     H90427   1.289   9.239   7.794 -0.4226 -2.5184  0.4121
  670MOL0     H90428   1.058   9.307   7.974 -0.2552 -0.4581  1.7927
  670MOL0     H90429   1.160   9.437   7.944 -3.2760  0.4693  0.0301
  670MOL0     H90430   1.224   9.313   8.136 -3.3003  1.7799 -2.3181
  670MOL0     H90431   1.365   9.280   8.025  0.8356  0.2978  1.7375
  670MOL0     H90432   1.596   8.872   7.485 -0.8739  2.9439  0.3543
  670MOL0     H90433   1.531   8.647   7.451 -1.8696  0.1456  0.9039
  670MOL0     H90434   1.379   8.356   7.192 -1.9292  0.4880 -3.7108
  670MOL0     H90435   1.356   8.128   7.121 -0.7321 -1.4386 -0.6627
  670MOL0     H90436   0.369   8.330   6.558  0.4867  1.4764  3.3321
  670MOL0     H90437   0.228   8.333   6.351 -1.6682  0.7361 -0.2075
  670MOL0     H90438   0.232   8.589   5.889 -0.3303  4.5510  2.2458
  670MOL0     H90439   0.080   8.567   5.682 -0.1606 -1.9998  0.7041
  670MOL0     H90440  -0.093   8.751   5.618 -0.4969  1.3597 -0.2815
  670MOL0     H90441  -0.103   8.634   5.494  0.8272  0.7661 -0.4133
  670MOL0     H90442  -0.364   8.671   5.490 -0.5508  1.3755 -0.0892
  670MOL0     H90443  -0.269   8.819   5.468  1.5645 -1.2851 -1.3739
  670MOL0     H90444  -0.398   8.904   5.612 -3.6064 -1.4352 -0.8033
  670MOL0     H90445  -0.275   8.842   5.735 -0.7164  1.7868 -0.5225
  670MOL0     H90446  -0.434   8.629   5.719  1.1199  0.2280 -0.4517
  670MOL0     H90447  -0.549   8.738   5.655 -1.6973 -2.4357  1.2604
  670MOL0     H90448  -0.518   8.825   6.081 -0.3668  4.4066 -0.8854
  670MOL0     H90449  -0.266   8.562   5.918 -0.3116  4.1904 -2.0789
  670MOL0     H90450  -0.132   8.574   6.123  0.0394 -1.6077 -0.1505
  671MOL0     O90451   2.385   9.860  10.824  0.5212 -0.6146 -0.0278
  671MOL0     C90452   2.429   9.751  10.799 -0.3870  0.5109 -1.3184
  671MOL0     O90453   2.390   9.637  10.865 -0.9428 -0.2599  0.3866
  671MOL0     C90454   2.318   9.656  10.982 -0.1955 -0.2641 -1.1242
  671MOL0     C90455   2.182   9.629  10.982 -0.6146 -0.0056  0.6571
  671MOL0     C90456   2.094   9.641  11.086 -0.1277 -0.6635 -0.2654
  671MOL0     C90457   2.156   9.693  11.204 -0.6361 -0.0492  0.4637
  671MOL0     O90458   2.093   9.718  11.319 -0.2875 -0.1004 -0.6354
  671MOL0     C90459   2.000   9.620  11.369  0.2858 -0.5441  0.0119
  671MOL0     C90460   1.992   9.647  11.523 -0.9377  0.2255 -0.3748
  671MOL0     C90461   1.934   9.527  11.604 -0.6243  0.5775 -0.5271
  671MOL0     C90462   2.016   9.515  11.739  0.3764 -0.5324 -0.5653
  671MOL0     C90463   2.131   9.419  11.731 -0.9077 -0.0405  0.0605
  671MOL0     C90464   2.219   9.401  11.851 -0.0716 -0.4944 -0.0796
  671MOL0     C90465   2.321   9.282  11.836 -0.3770  0.1807 -0.1220
  671MOL0     C90466   2.453   9.330  11.891  0.4071  1.0037 -0.3146
  671MOL0     N90467   2.482   9.316  12.035 -0.4631 -0.5263 -0.4509
  671MOL0     C90468   2.398   9.280  12.136 -0.1665  0.0674  0.2569
  671MOL0     C90469   2.480   9.246  12.234  0.0510  0.4305 -0.5762
  671MOL0     C90470   2.437   9.164  12.351  0.0920  0.1702  0.6655
  671MOL0     C90471   2.425   9.224  12.481 -0.3648 -0.1098 -1.8233
  671MOL0     C90472   2.559   9.280  12.540 -0.0852  0.9903  0.1162
  671MOL0     C90473   2.539   9.417  12.588  0.5390 -0.5047  1.0746
  671MOL0     O90474   2.647   9.477  12.654 -0.5656 -1.1022 -0.2389
  671MOL0     C90475   2.754   9.521  12.580  0.4506 -0.7667 -0.9830
  671MOL0     C90476   2.779   9.523  12.443 -0.9836  0.5361  0.9055
  671MOL0     C90477   2.890   9.583  12.396 -0.2796 -0.7578  0.0776
  671MOL0     C90478   2.911   9.584  12.247  0.9663  1.0907  0.4358
  671MOL0     C90479   2.977   9.665  12.479 -0.1520  0.3273 -0.1770
  671MOL0     C90480   3.089   9.743  12.433 -0.5216 -0.4808 -0.4738
  671MOL0     O90481   3.188   9.677  12.358 -0.8833 -0.3318  0.2731
  671MOL0     C90482   3.311   9.729  12.304  0.5212  0.4311 -0.6209
  671MOL0     C90483   3.392   9.819  12.372  1.0968 -0.8012  0.0594
  671MOL0     C90484   3.508   9.876  12.325 -1.0318  0.4930 -0.2411
  671MOL0     C90485   3.563   9.825  12.204  0.1497 -0.7853 -0.0394
  671MOL0     O90486   3.687   9.865  12.155  0.1528  0.5336  0.1521
  671MOL0     C90487   3.748   9.969  12.218 -1.8221  0.3423 -0.8266
  671MOL0     C90488   3.877   9.979  12.146  0.2597  0.2502  0.2718
  671MOL0     C90489   3.963  10.099  12.174 -0.2379 -0.2765 -0.2617
  671MOL0     C90490   4.102  10.093  12.107 -0.3111  0.0955  0.4246
  671MOL0     C90491   4.200  10.175  12.195 -0.2713 -0.1039  0.9073
  671MOL0     C90492   4.337  10.181  12.128  0.3800 -0.1771 -0.1384
  671MOL0     C90493   4.404  10.047  12.140 -0.4442 -0.8547  0.2441
  671MOL0     C90494   4.534  10.033  12.050 -0.4515  0.3012  0.5409
  671MOL0    Cl90495   4.531  10.066  11.889 -0.5394 -0.2703  0.0312
  671MOL0     C90496   3.477   9.737  12.131 -0.6279  0.4603 -1.0202
  671MOL0     C90497   3.357   9.690  12.179  0.7607 -0.1647  0.7622
  671MOL0     O90498   3.092   9.863  12.462 -0.9343  0.1145  0.0421
  671MOL0     C90499   2.950   9.663  12.615  0.3316  0.3228 -0.1212
  671MOL0     C90500   2.835   9.595  12.661 -0.4666  0.1760  1.4523
  671MOL0     N90501   2.610   9.266  12.201 -0.2240 -0.6732  0.5902
  671MOL0     N90502   2.609   9.304  12.083 -0.0713  0.0497  0.0056
  671MOL0     C90503   2.292   9.730  11.215  0.4405  0.7881 -0.2424
  671MOL0     C90504   2.377   9.699  11.099  1.0320 -0.2553 -0.4136
  671MOL0     C90505   2.497   9.716  10.669 -0.7554 -0.3610  0.9222
  671MOL0     C90506   2.585   9.811  10.623  0.3743  0.8174  0.1348
  671MOL0     C90507   2.648   9.783  10.497 -0.5613  0.2980 -0.0751
  671MOL0     C90508   2.621   9.670  10.420 -0.1217  0.1069  0.3204
  671MOL0     O90509   2.675   9.645  10.296  0.1262 -0.4485 -0.5783
  671MOL0     C90510   2.806   9.671  10.256 -0.1770  0.2697  0.3950
  671MOL0     C90511   2.868   9.540  10.206 -0.6335  0.3378  0.1853
  671MOL0     C90512   2.797   9.471  10.090 -0.2006 -0.1611 -0.2192
  671MOL0     C90513   2.818   9.556   9.963  0.1186 -0.0554  0.0032
  671MOL0     C90514   2.955   9.562   9.904 -0.2516 -0.6521  0.4405
  671MOL0     C90515   3.068   9.570   9.854 -0.7823 -0.7729  0.3894
  671MOL0     C90516   2.506   9.590  10.457 -0.5824  0.7240 -0.3030
  671MOL0     C90517   2.453   9.610  10.588 -0.6418  0.9856 -0.3165
  671MOL0     H90518   2.147   9.589  10.888  1.3097 -1.8263  0.6226
  671MOL0     H90519   1.987   9.624  11.079 -0.2658  0.0308  0.0993
  671MOL0     H90520   1.900   9.631  11.325 -0.8764  0.2439  2.6557
  671MOL0     H90521   2.035   9.518  11.348  1.2954 -0.5419  1.5374
  671MOL0     H90522   2.091   9.679  11.556 -0.2138 -1.1254 -1.1726
  671MOL0     H90523   1.930   9.736  11.538  2.3477  2.6705 -0.3368
  671MOL0     H90524   1.825   9.532  11.610 -0.6632 -1.1535  1.5378
  671MOL0     H90525   1.971   9.444  11.544  2.9961  1.7164 -0.0764
  671MOL0     H90526   2.029   9.619  11.769 -1.1022 -0.1292 -1.2685
  671MOL0     H90527   1.936   9.472  11.799 -0.6990  0.0939 -1.5065
  671MOL0     H90528   2.102   9.315  11.718  4.0143 -1.7982  1.1420
  671MOL0     H90529   2.196   9.444  11.647  0.3429 -1.5258  0.5453
  671MOL0     H90530   2.276   9.492  11.870 -0.3802 -0.0915 -1.0561
  671MOL0     H90531   2.154   9.386  11.938  0.8456 -2.3315  0.3308
  671MOL0     H90532   2.283   9.183  11.862 -3.9186  0.6201 -2.7905
  671MOL0     H90533   2.341   9.264  11.730  0.4852 -2.5163  0.4250
  671MOL0     H90534   2.474   9.435  11.872  2.6673  0.5357 -0.7847
  671MOL0     H90535   2.533   9.279  11.835  0.1701  0.3251 -0.0539
  671MOL0     H90536   2.290   9.269  12.130 -0.1816  0.5374 -0.4144
  671MOL0     H90537   2.340   9.120  12.326 -2.0446  2.9417  3.2873
  671MOL0     H90538   2.509   9.081  12.352  2.6536  2.2411  2.9100
  671MOL0     H90539   2.397   9.149  12.556  3.1506  0.2571  0.0662
  671MOL0     H90540   2.347   9.301  12.477 -3.1244 -2.3733  1.7073
  671MOL0     H90541   2.640   9.287  12.467  1.5230  3.0099  1.9548
  671MOL0     H90542   2.603   9.216  12.617  0.0618  0.8179 -0.1111
  671MOL0     H90543   2.458   9.404  12.660 -1.5601  1.1358 -0.8280
  671MOL0     H90544   2.510   9.481  12.504  2.6823 -0.0851  0.5965
  671MOL0     H90545   2.723   9.454  12.380  0.5532  0.8306 -0.8747
  671MOL0     H90546   2.894   9.685  12.208 -0.6849  0.3561 -0.8612
  671MOL0     H90547   3.013   9.558  12.218  0.2791  1.7514 -3.0368
  671MOL0     H90548   2.831   9.524  12.203  1.8523  0.5375 -0.4606
  671MOL0     H90549   3.347   9.860  12.462  1.1923  1.4871 -0.8872
  671MOL0     H90550   3.544   9.949  12.397 -3.7131  0.4518  1.2634
  671MOL0     H90551   3.695  10.064  12.208 -2.3652 -0.0756 -2.0865
  671MOL0     H90552   3.760   9.936  12.322 -1.2714  1.0069 -0.6716
  671MOL0     H90553   3.930   9.887  12.176  0.4284 -0.3647 -1.7582
  671MOL0     H90554   3.855   9.980  12.039 -0.2203  2.6625  0.3566
  671MOL0     H90555   3.983  10.096  12.281 -1.5626  1.5703  0.0764
  671MOL0     H90556   3.922  10.197  12.147  0.6797 -0.1528 -1.2781
  671MOL0     H90557   4.143   9.992  12.092  2.5154  1.0410  1.1019
  671MOL0     H90558   4.096  10.144  12.011 -0.9080  2.1359  1.4810
  671MOL0     H90559   4.215  10.143  12.299 -3.9460 -2.0684  0.9864
  671MOL0     H90560   4.164  10.278  12.201  0.3990  0.3362 -1.5471
  671MOL0     H90561   4.333  10.211  12.023 -3.2265  0.0670 -0.0585
  671MOL0     H90562   4.409  10.244  12.183 -1.1436  1.5933 -0.0845
  671MOL0     H90563   4.336   9.968  12.107 -1.7302 -0.0607  0.8971
  671MOL0     H90564   4.430  10.030  12.244  1.3430 -0.5070 -0.1179
  671MOL0     H90565   4.581   9.935  12.063  0.8220  0.3512 -2.6080
  671MOL0     H90566   4.595  10.112  12.096  1.2357  0.0213 -1.0764
  671MOL0     H90567   3.515   9.718  12.032  4.3965 -0.3497  0.8025
  671MOL0     H90568   3.297   9.620  12.121 -1.4961  2.3295 -0.1308
  671MOL0     H90569   3.019   9.723  12.675  2.3388  0.8690 -2.7957
  671MOL0     H90570   2.810   9.617  12.764 -0.6414  2.0871  1.0401
  671MOL0     H90571   2.327   9.776  11.306  0.7321  1.7244 -0.8154
  671MOL0     H90572   2.486   9.703  11.102  1.5110 -5.4528 -0.8323
  671MOL0     H90573   2.623   9.896  10.677 -0.0847  1.3989 -0.4439
  671MOL0     H90574   2.723   9.851  10.458 -1.7779  1.7580  0.0250
  671MOL0     H90575   2.800   9.748  10.179 -1.1761  1.4041  1.5567
  671MOL0     H90576   2.867   9.713  10.337 -1.0930  1.9900  0.2589
  671MOL0     H90577   2.862   9.469  10.288  1.0899 -1.7661 -1.3830
  671MOL0     H90578   2.975   9.556  10.187 -0.8051  2.5319  0.8480
  671MOL0     H90579   2.691   9.450  10.110  0.0256  1.0358  2.8662
  671MOL0     H90580   2.847   9.373  10.091  2.3854  1.0531  1.5065
  671MOL0     H90581   2.784   9.660   9.967  3.1907  1.0508 -0.1554
  671MOL0     H90582   2.765   9.505   9.882  2.3084 -2.9547  0.2401
  671MOL0     H90583   3.164   9.548   9.813 -0.4783 -3.2352  2.1684
  671MOL0     H90584   2.459   9.517  10.391 -0.7792 -0.6083  1.2276
  671MOL0     H90585   2.380   9.536  10.619  2.9135 -2.6949  0.0522
  672MOL0     O90586  10.488   0.924   0.893 -1.4038 -0.7129 -0.1265
  672MOL0     C90587  10.474   0.821   0.834 -0.1995  0.3045  0.4434
  672MOL0     O90588  10.372   0.736   0.842  0.4374 -0.6365  0.1651
  672MOL0     C90589  10.252   0.796   0.876 -0.2016  0.2722  0.1835
  672MOL0     C90590  10.182   0.880   0.786 -0.7874 -0.1358 -0.1529
  672MOL0     C90591  10.061   0.936   0.809  0.1883  0.1718 -0.4342
  672MOL0     C90592   9.984   0.903   0.928 -1.2709 -1.0179  0.5963
  672MOL0     O90593   9.870   0.970   0.951  0.0685 -0.7796  0.7190
  672MOL0     C90594   9.879   1.074   1.052  0.0974 -0.1407  0.4845
  672MOL0     C90595   9.745   1.155   1.070 -0.6618 -0.2681  0.3553
  672MOL0     C90596   9.719   1.223   0.934  0.1383 -0.5569 -0.9017
  672MOL0     C90597   9.572   1.272   0.932  0.4063 -0.1509 -0.8209
  672MOL0     C90598   9.555   1.402   1.007  0.3348 -0.6271 -0.5381
  672MOL0     C90599   9.422   1.480   0.971 -0.9801  0.0260  1.7813
  672MOL0     C90600   9.420   1.621   1.041 -0.0825  0.0358  0.0314
  672MOL0     C90601   9.296   1.689   0.996  1.0930 -0.4840  0.2731
  672MOL0     N90602   9.293   1.826   1.054  0.1655  0.6308 -0.3269
  672MOL0     C90603   9.305   1.949   0.995 -0.5229  0.1381  0.1370
  672MOL0     C90604   9.318   2.047   1.086  0.0898 -0.4003 -1.0532
  672MOL0     C90605   9.331   2.198   1.067  0.3567 -0.2167  0.1094
  672MOL0     C90606   9.235   2.279   1.155 -0.3335  0.4161 -0.3724
  672MOL0     C90607   9.300   2.282   1.296 -0.9271 -0.4018 -1.4105
  672MOL0     C90608   9.220   2.390   1.375  0.4451  0.0815 -0.1334
  672MOL0     O90609   9.215   2.515   1.306 -0.0566 -0.4151  0.0132
  672MOL0     C90610   9.145   2.613   1.373 -1.1828  0.1548 -0.2400
  672MOL0     C90611   9.132   2.730   1.303 -0.3881  0.2904 -0.7143
  672MOL0     C90612   9.070   2.847   1.353  0.2250 -1.0292  0.8512
  672MOL0     C90613   9.085   2.971   1.264  0.1835  0.0809 -0.3323
  672MOL0     C90614   9.001   2.838   1.478 -0.1265 -0.8605 -0.2318
  672MOL0     C90615   8.941   2.956   1.551 -0.2375 -0.4369  0.8300
  672MOL0     O90616   8.909   2.924   1.677 -0.3363  0.2851 -0.5243
  672MOL0     C90617   8.875   3.008   1.776 -0.1364  0.4109 -0.2319
  672MOL0     C90618   8.958   3.029   1.886 -0.1548 -0.1459 -0.1092
  672MOL0     C90619   8.909   3.094   1.992 -0.0731 -1.1265 -0.2372
  672MOL0     C90620   8.778   3.146   2.002  0.7054 -0.1027  1.4113
  672MOL0     O90621   8.745   3.211   2.114  0.4378 -0.0596 -0.5451
  672MOL0     C90622   8.626   3.160   2.182  0.2937  0.2487  0.1076
  672MOL0     C90623   8.566   3.271   2.262  0.3550 -1.2753  1.3228
  672MOL0     C90624   8.524   3.413   2.190  0.0388  0.8092  0.3844
  672MOL0     C90625   8.639   3.481   2.116 -0.3819  0.1150  0.2169
  672MOL0     C90626   8.613   3.623   2.075  0.7087 -1.2924 -0.4743
  672MOL0     C90627   8.739   3.682   2.012  0.7011 -0.2636  0.5413
  672MOL0     C90628   8.705   3.821   1.926  0.0042 -0.4425 -0.5273
  672MOL0     C90629   8.821   3.864   1.828  0.2185 -0.2266  0.0833
  672MOL0    Cl90630   8.962   3.896   1.926  0.0643 -0.4962 -0.0365
  672MOL0     C90631   8.695   3.137   1.888  0.1866 -0.5900  0.0610
  672MOL0     C90632   8.748   3.069   1.780  0.1642  0.3957 -0.3621
  672MOL0     O90633   8.955   3.074   1.504  0.3793  0.5872  0.1521
  672MOL0     C90634   8.997   2.709   1.541 -1.3386  0.0951  0.1654
  672MOL0     C90635   9.071   2.602   1.489 -1.4579  1.2019 -0.0054
  672MOL0     N90636   9.322   1.975   1.206 -0.1362 -0.3859 -0.5530
  672MOL0     N90637   9.301   1.851   1.189  0.4974 -0.0850  0.5840
  672MOL0     C90638  10.055   0.822   1.023  0.0891 -0.5378  0.1417
  672MOL0     C90639  10.185   0.762   0.996  0.8737 -0.3805 -0.7431
  672MOL0     C90640  10.564   0.774   0.733  0.5400 -0.8587 -0.3018
  672MOL0     C90641  10.691   0.832   0.739 -0.0844  0.6992  0.4979
  672MOL0     C90642  10.782   0.829   0.631  0.0394 -0.5065 -0.2414
  672MOL0     C90643  10.751   0.763   0.515  1.1798  0.3370  0.1868
  672MOL0     O90644  10.834   0.759   0.408 -0.1109 -0.2972  0.8884
  672MOL0     C90645  10.918   0.644   0.398  0.6199 -0.3655 -0.4735
  672MOL0     C90646  11.020   0.673   0.284  0.5944  0.4362 -0.0190
  672MOL0     C90647  10.964   0.644   0.139 -0.1285  0.3402 -0.0710
  672MOL0     C90648  10.834   0.725   0.118 -0.0714  0.0710  0.2577
  672MOL0     C90649  10.776   0.692  -0.013 -0.1241  0.1057 -0.7622
  672MOL0     C90650  10.723   0.648  -0.112 -0.4313 -0.8449 -0.5896
  672MOL0     C90651  10.625   0.702   0.506  1.1531 -0.5742 -0.8605
  672MOL0     C90652  10.533   0.704   0.612  0.2364 -1.1094 -0.2706
  672MOL0     H90653  10.236   0.924   0.703  1.3946  2.5366  2.4483
  672MOL0     H90654  10.021   1.007   0.738  0.6932  0.5746 -0.3263
  672MOL0     H90655   9.900   1.032   1.150  3.5724  1.7957  0.7269
  672MOL0     H90656   9.966   1.134   1.024 -1.5310  1.0610 -2.5357
  672MOL0     H90657   9.657   1.097   1.099 -0.5828 -0.0739  0.9895
  672MOL0     H90658   9.766   1.231   1.145  1.9589  0.0093 -0.5303
  672MOL0     H90659   9.779   1.313   0.915 -2.5286  0.9708 -2.6849
  672MOL0     H90660   9.733   1.150   0.854  1.3971 -4.4940  2.5622
  672MOL0     H90661   9.541   1.290   0.828  0.1117  0.1006 -0.6921
  672MOL0     H90662   9.510   1.196   0.981 -0.8185  1.1643 -0.2599
  672MOL0     H90663   9.551   1.383   1.115 -4.2793  0.2164 -0.3661
  672MOL0     H90664   9.641   1.466   0.985  1.0186 -1.5642 -0.6754
  672MOL0     H90665   9.431   1.495   0.863 -0.4756 -0.7090  1.7133
  672MOL0     H90666   9.338   1.415   0.996  1.2520 -2.8613  2.3833
  672MOL0     H90667   9.414   1.602   1.149  0.7842  1.2370  0.3095
  672MOL0     H90668   9.507   1.684   1.020 -0.7346  2.0014  2.6883
  672MOL0     H90669   9.218   1.623   1.036  1.4695 -1.8048 -1.1136
  672MOL0     H90670   9.282   1.705   0.889  1.1302  4.9249  0.7932
  672MOL0     H90671   9.298   1.966   0.888 -2.8083 -2.4688 -0.2274
  672MOL0     H90672   9.437   2.221   1.081  0.4022  1.3712 -2.3291
  672MOL0     H90673   9.305   2.223   0.964 -0.9793 -2.2105 -0.1002
  672MOL0     H90674   9.132   2.242   1.155 -0.4940  0.5250  2.9282
  672MOL0     H90675   9.236   2.381   1.117 -1.3257  0.6207  0.0991
  672MOL0     H90676   9.404   2.314   1.283 -1.4685  1.4789 -1.4650
  672MOL0     H90677   9.302   2.188   1.350 -2.2447 -0.0534 -0.6996
  672MOL0     H90678   9.266   2.409   1.473  3.4882 -0.6826 -1.3247
  672MOL0     H90679   9.116   2.358   1.389 -0.0726  1.7012 -0.0521
  672MOL0     H90680   9.174   2.734   1.203 -0.9452  2.4802 -0.9143
  672MOL0     H90681   9.181   3.011   1.296 -0.7413  0.0070  2.9155
  672MOL0     H90682   9.096   2.942   1.159  1.6821 -0.4324 -0.0523
  672MOL0     H90683   9.006   3.046   1.259 -0.8147 -0.9954 -2.1155
  672MOL0     H90684   9.061   3.000   1.907 -0.6864  0.3972  4.2480
  672MOL0     H90685   8.976   3.110   2.076 -1.6917  0.9676  0.7771
  672MOL0     H90686   8.554   3.106   2.120 -0.4650 -1.2739  2.2053
  672MOL0     H90687   8.652   3.086   2.258  1.6315 -0.8989 -1.3856
  672MOL0     H90688   8.480   3.222   2.309  0.6006 -1.0553  2.0197
  672MOL0     H90689   8.636   3.297   2.342  2.0478 -0.6921 -0.2734
  672MOL0     H90690   8.499   3.483   2.271  3.9540  1.4021  1.2797
  672MOL0     H90691   8.432   3.408   2.132  0.3009  0.1695  0.0217
  672MOL0     H90692   8.728   3.491   2.179  1.4231 -0.2203 -2.1507
  672MOL0     H90693   8.664   3.418   2.030 -2.6517 -0.3606 -0.1588
  672MOL0     H90694   8.575   3.685   2.158 -1.2768 -0.8820 -1.6293
  672MOL0     H90695   8.523   3.613   2.014 -0.2768 -2.1521  1.0507
  672MOL0     H90696   8.807   3.712   2.092 -0.5428  2.1085  0.7865
  672MOL0     H90697   8.781   3.609   1.942  1.4471 -1.1967  1.9147
  672MOL0     H90698   8.695   3.909   1.991  0.7957 -0.4543 -0.3779
  672MOL0     H90699   8.622   3.793   1.861  0.5035 -0.4279 -1.1790
  672MOL0     H90700   8.792   3.954   1.774 -0.8793 -1.3281 -1.2436
  672MOL0     H90701   8.841   3.788   1.752 -0.0683 -0.9945  0.7610
  672MOL0     H90702   8.600   3.189   1.886  0.1515 -0.6476 -1.7853
  672MOL0     H90703   8.678   3.059   1.698 -2.4445  2.3337  1.4635
  672MOL0     H90704   8.932   2.699   1.627  1.9423  1.2406  2.9938
  672MOL0     H90705   9.079   2.511   1.549  0.0048  1.8650  0.8670
  672MOL0     H90706  10.008   0.800   1.118 -0.4070 -1.1785 -0.2450
  672MOL0     H90707  10.230   0.695   1.068  0.5113 -0.5116 -0.6397
  672MOL0     H90708  10.729   0.894   0.820  0.5758 -0.9964  1.5223
  672MOL0     H90709  10.878   0.879   0.636  1.3001 -2.8064 -0.1390
  672MOL0     H90710  10.963   0.618   0.495 -3.4093 -1.7641  1.2891
  672MOL0     H90711  10.864   0.552   0.373 -0.4600  0.2320 -0.4053
  672MOL0     H90712  11.106   0.607   0.304 -0.6544 -1.2207  0.0751
  672MOL0     H90713  11.050   0.778   0.287 -0.7699  0.8110  1.1388
  672MOL0     H90714  10.937   0.538   0.130  2.3076 -0.7778  3.5261
  672MOL0     H90715  11.029   0.674   0.057 -0.2116 -0.5650 -0.4809
  672MOL0     H90716  10.843   0.833   0.127  0.5003  0.1780 -1.3416
  672MOL0     H90717  10.754   0.689   0.184  1.3793  2.1739  3.4125
  672MOL0     H90718  10.686   0.641  -0.213  2.6472  0.8572 -1.9737
  672MOL0     H90719  10.599   0.649   0.415 -0.6123 -0.8530 -0.2402
  672MOL0     H90720  10.435   0.660   0.594  0.2493  0.0727 -4.1718
  673MOL0     O90721  11.150   2.843  11.178  0.3847  0.2797  0.2407
  673MOL0     C90722  11.042   2.843  11.239 -0.3464  0.2093  0.1547
  673MOL0     O90723  11.027   2.857  11.373  0.9383 -0.2972 -0.0702
  673MOL0     C90724  11.129   2.858  11.467  0.3938  0.8295 -0.4525
  673MOL0     C90725  11.208   2.972  11.498  0.7773 -0.8454  0.5354
  673MOL0     C90726  11.321   2.961  11.594  0.2214  0.5102  0.3153
  673MOL0     C90727  11.329   2.849  11.680  0.2291 -1.1702  0.2581
  673MOL0     O90728  11.415   2.856  11.788 -0.5336 -0.0776  0.4584
  673MOL0     C90729  11.408   2.976  11.870 -0.1889 -0.0848  0.2230
  673MOL0     C90730  11.486   2.969  12.002  0.1952  0.6916  0.1102
  673MOL0     C90731  11.622   2.913  11.965 -0.5098  0.1552  0.3452
  673MOL0     C90732  11.721   2.924  12.087  0.0413 -0.2047  0.0306
  673MOL0     C90733  11.674   2.837  12.207  1.4969  0.3099 -0.5450
  673MOL0     C90734  11.747   2.830  12.340 -1.0771 -0.3020 -0.3337
  673MOL0     C90735  11.686   2.725  12.432  0.5171 -0.9014  0.8230
  673MOL0     C90736  11.561   2.774  12.505 -0.1340 -0.1294 -0.2527
  673MOL0     N90737  11.589   2.825  12.639  0.8562  0.6037 -0.4703
  673MOL0     C90738  11.538   2.774  12.763  0.4249  0.5273  1.0001
  673MOL0     C90739  11.594   2.852  12.858 -0.7003  0.4621 -1.1071
  673MOL0     C90740  11.540   2.860  13.001  0.3631  0.7194 -0.3511
  673MOL0     C90741  11.609   2.965  13.084  0.3310  0.4498  0.2053
  673MOL0     C90742  11.567   2.961  13.228  0.5260 -0.2885 -0.6225
  673MOL0     C90743  11.650   3.051  13.312 -0.2906  0.3705 -0.6383
  673MOL0     O90744  11.685   3.177  13.254  0.1984 -0.1813  0.6867
  673MOL0     C90745  11.793   3.241  13.302  0.6213 -0.6243 -0.5570
  673MOL0     C90746  11.868   3.314  13.214 -0.1822  0.0162 -0.3673
  673MOL0     C90747  11.985   3.375  13.252  0.9349  0.8528  0.0835
  673MOL0     C90748  12.063   3.450  13.145  0.6100  0.4697  0.1010
  673MOL0     C90749  12.032   3.354  13.387 -0.6584 -0.0199 -0.7806
  673MOL0     C90750  12.166   3.376  13.429  0.1216  0.8151  0.2921
  673MOL0     O90751  12.214   3.501  13.422 -0.2527  0.3979 -0.8375
  673MOL0     C90752  12.338   3.544  13.461  0.7773 -0.4694  0.6786
  673MOL0     C90753  12.421   3.482  13.557  0.3797  0.1554 -0.5384
  673MOL0     C90754  12.538   3.552  13.610  0.2341  0.4070 -0.2121
  673MOL0     C90755  12.567   3.674  13.552  0.5466 -0.9194  0.0081
  673MOL0     O90756  12.680   3.752  13.584  0.4698  0.4361 -0.8417
  673MOL0     C90757  12.788   3.696  13.666  0.8056 -0.1758 -0.2194
  673MOL0     C90758  12.914   3.771  13.649 -0.1896 -0.7970 -0.6219
  673MOL0     C90759  12.895   3.919  13.658 -0.8148  1.0216 -0.6466
  673MOL0     C90760  13.034   3.982  13.618 -0.6385 -0.4268 -0.3488
  673MOL0     C90761  13.017   4.127  13.587 -0.0923 -0.2171  0.1359
  673MOL0     C90762  13.158   4.194  13.584  0.6576  0.6599  0.3684
  673MOL0     C90763  13.142   4.337  13.522  0.4348  0.3014 -0.0143
  673MOL0     C90764  13.270   4.414  13.546  0.1050  0.4978 -0.3988
  673MOL0    Cl90765  13.418   4.314  13.522 -0.1779 -0.0826 -0.5497
  673MOL0     C90766  12.493   3.734  13.449  0.7568 -1.1774 -0.4260
  673MOL0     C90767  12.381   3.665  13.401 -0.2446 -0.8923  0.2601
  673MOL0     O90768  12.222   3.279  13.480  0.5642  0.5428 -0.1724
  673MOL0     C90769  11.952   3.288  13.481  0.0313  0.5223 -0.0585
  673MOL0     C90770  11.839   3.228  13.436  0.1897 -0.3500  0.0468
  673MOL0     N90771  11.676   2.946  12.803 -0.3075  0.6756 -0.1942
  673MOL0     N90772  11.660   2.940  12.673  0.1394  0.4589  0.3579
  673MOL0     C90773  11.246   2.742  11.655  0.1846  0.3926 -0.3584
  673MOL0     C90774  11.147   2.745  11.550 -0.4658 -0.3033  0.0810
  673MOL0     C90775  10.931   2.864  11.151 -0.0563 -0.5949 -0.5132
  673MOL0     C90776  10.802   2.870  11.196  0.5277  0.9832  0.5215
  673MOL0     C90777  10.697   2.902  11.109 -0.6832 -0.2067  0.4050
  673MOL0     C90778  10.719   2.928  10.975  0.2981 -1.3328  0.7329
  673MOL0     O90779  10.617   2.972  10.885  0.9203 -0.2342 -0.0650
  673MOL0     C90780  10.527   3.078  10.939 -0.0007 -0.6196  0.7194
  673MOL0     C90781  10.386   3.023  10.960 -0.5966 -0.1224 -0.2389
  673MOL0     C90782  10.290   3.041  10.840 -0.3043  1.0891 -0.3049
  673MOL0     C90783  10.357   3.028  10.696  0.7668  0.1302 -0.9142
  673MOL0     C90784  10.263   2.991  10.591 -0.7620 -1.1080 -0.3819
  673MOL0     C90785  10.181   2.956  10.504 -1.1470  0.9086  0.1626
  673MOL0     C90786  10.842   2.912  10.926  0.0876  0.3716 -0.1282
  673MOL0     C90787  10.943   2.878  11.016  0.4827  0.4493  0.2214
  673MOL0     H90788  11.210   3.065  11.441 -1.2027 -0.8322  0.4235
  673MOL0     H90789  11.393   3.039  11.616 -2.8679  3.6823  0.1065
  673MOL0     H90790  11.430   3.073  11.823  2.3729 -0.7183 -0.0467
  673MOL0     H90791  11.300   2.973  11.890 -0.6937 -3.0951 -2.2453
  673MOL0     H90792  11.506   3.065  12.050  2.7884 -1.3166  3.4919
  673MOL0     H90793  11.439   2.914  12.084  1.2808  0.3925  0.5483
  673MOL0     H90794  11.622   2.806  11.940  1.6463  0.2479 -0.2821
  673MOL0     H90795  11.657   2.967  11.877 -0.2056 -0.7446 -0.1042
  673MOL0     H90796  11.809   2.870  12.051 -0.3467 -0.3642 -0.6965
  673MOL0     H90797  11.745   3.027  12.114  0.0464 -0.1777 -0.0747
  673MOL0     H90798  11.573   2.871  12.231  2.0690  1.8153 -0.1303
  673MOL0     H90799  11.658   2.737  12.167  2.0533  0.0995 -0.2572
  673MOL0     H90800  11.852   2.808  12.317 -0.4613  1.5728  0.4901
  673MOL0     H90801  11.747   2.923  12.396  2.5203 -0.9471  0.9984
  673MOL0     H90802  11.660   2.638  12.372 -1.5108  0.6258 -0.6917
  673MOL0     H90803  11.764   2.705  12.505  1.6121 -2.3350 -0.6689
  673MOL0     H90804  11.498   2.686  12.516 -1.5462  0.9401  0.5767
  673MOL0     H90805  11.509   2.852  12.449  2.0040  3.1373  1.9193
  673MOL0     H90806  11.462   2.697  12.773 -0.2289  1.2216  1.5209
  673MOL0     H90807  11.436   2.891  12.989  0.6315  1.4905 -0.7842
  673MOL0     H90808  11.545   2.762  13.049  3.1435  1.9151  2.0815
  673MOL0     H90809  11.585   3.063  13.044 -1.7165  0.2856  0.8912
  673MOL0     H90810  11.716   2.945  13.092  0.0721 -0.7066  1.2433
  673MOL0     H90811  11.561   2.860  13.269  1.1583 -0.0240  0.1532
  673MOL0     H90812  11.472   3.014  13.240  0.2963  0.2311 -3.9649
  673MOL0     H90813  11.745   2.996  13.314  0.1157  1.0561 -0.5512
  673MOL0     H90814  11.587   3.069  13.399 -0.5699  2.7500 -1.2599
  673MOL0     H90815  11.823   3.319  13.115 -1.6341  1.1282  0.3117
  673MOL0     H90816  12.166   3.415  13.141  1.6421  3.1054  1.5051
  673MOL0     H90817  12.014   3.434  13.048 -1.4226  2.9450  0.6092
  673MOL0     H90818  12.056   3.557  13.167  2.4775  0.4035  1.2439
  673MOL0     H90819  12.400   3.384  13.599 -1.8968  1.0914  0.6957
  673MOL0     H90820  12.599   3.506  13.687 -2.5530 -0.5650  1.5760
  673MOL0     H90821  12.761   3.693  13.772 -0.7978 -2.6979 -0.6158
  673MOL0     H90822  12.795   3.593  13.630 -1.5297 -0.5106  0.1217
  673MOL0     H90823  12.990   3.738  13.722 -0.9051  1.6093  1.3297
  673MOL0     H90824  12.952   3.758  13.547 -2.5134 -0.3653 -1.5975
  673MOL0     H90825  12.859   3.947  13.757 -0.1688  1.9158 -0.6539
  673MOL0     H90826  12.828   3.959  13.582  0.8325 -1.0170 -3.3662
  673MOL0     H90827  13.108   3.973  13.698 -1.1760  0.9244  0.3198
  673MOL0     H90828  13.070   3.930  13.529  3.8745  0.3849  0.7492
  673MOL0     H90829  12.953   4.170  13.665  0.8334  2.5719 -0.5452
  673MOL0     H90830  12.965   4.146  13.492 -0.6584 -0.9491  0.2885
  673MOL0     H90831  13.185   4.201  13.690  1.3009  0.1977  0.2375
  673MOL0     H90832  13.224   4.138  13.517  2.2306  0.3292  2.1152
  673MOL0     H90833  13.054   4.390  13.560 -0.5026 -0.4989 -0.9619
  673MOL0     H90834  13.115   4.337  13.416 -1.9388 -0.5301  0.5322
  673MOL0     H90835  13.265   4.458  13.646  3.6869 -0.1086  0.1896
  673MOL0     H90836  13.282   4.503  13.483 -4.3467  0.7332 -1.2470
  673MOL0     H90837  12.514   3.830  13.404 -0.7378 -0.3249  0.6055
  673MOL0     H90838  12.310   3.704  13.329  0.9551 -1.3822 -1.2517
  673MOL0     H90839  11.973   3.285  13.588  0.7311  0.8817 -0.1838
  673MOL0     H90840  11.785   3.159  13.499 -1.4152  1.7389  1.0833
  673MOL0     H90841  11.257   2.654  11.716  1.5402  1.8293  1.6197
  673MOL0     H90842  11.079   2.667  11.518 -3.0824  2.1942 -0.9163
  673MOL0     H90843  10.792   2.844  11.301  1.1911  2.0552  0.8672
  673MOL0     H90844  10.594   2.918  11.140 -0.1589  2.1934  1.0431
  673MOL0     H90845  10.564   3.106  11.038  2.4072  0.0053 -0.2849
  673MOL0     H90846  10.541   3.162  10.871  1.1186 -0.4148  1.1734
  673MOL0     H90847  10.344   3.073  11.047  2.5822  1.3414  0.6093
  673MOL0     H90848  10.396   2.920  10.995 -0.2948  0.1347  0.4403
  673MOL0     H90849  10.240   3.133  10.870  0.7600  0.9807  2.0261
  673MOL0     H90850  10.217   2.960  10.850  1.7807 -0.6274  2.4633
  673MOL0     H90851  10.452   2.974  10.691 -0.2569 -1.7368 -1.1955
  673MOL0     H90852  10.384   3.126  10.656 -0.6862 -1.1621 -5.7218
  673MOL0     H90853  10.110   2.937  10.425  1.4757  0.8311 -2.3364
  673MOL0     H90854  10.856   2.946  10.824  1.1554  1.0393  0.2183
  673MOL0     H90855  11.037   2.857  10.966  0.5045 -1.2891  0.9376
  674MOL0     O90856   4.445   2.534  10.563  0.0018  0.1958 -0.7470
  674MOL0     C90857   4.497   2.579  10.666 -0.4562  0.3058  0.1676
  674MOL0     O90858   4.463   2.695  10.727 -0.1226  0.0188 -0.1913
  674MOL0     C90859   4.373   2.773  10.669  0.0534 -0.5099 -0.8190
  674MOL0     C90860   4.400   2.890  10.596 -0.1332  0.0327  0.0493
  674MOL0     C90861   4.297   2.973  10.532  0.1758 -0.4186 -0.5006
  674MOL0     C90862   4.159   2.943  10.545 -0.9650  0.3435  1.7252
  674MOL0     O90863   4.040   2.991  10.484 -0.4937  0.0414 -0.3058
  674MOL0     C90864   4.052   3.107  10.398  0.1681  0.6853 -0.6090
  674MOL0     C90865   4.067   3.071  10.255 -0.0710  0.1446 -0.5478
  674MOL0     C90866   3.964   2.982  10.201 -0.3342  1.0015 -0.6357
  674MOL0     C90867   4.022   2.920  10.068  1.4270  0.3025  0.1704
  674MOL0     C90868   3.941   2.797  10.033 -0.7512  0.5103 -0.5895
  674MOL0     C90869   3.793   2.822   9.979 -0.4325 -0.1161  0.3652
  674MOL0     C90870   3.778   2.921   9.860  0.6782  0.0611 -0.7248
  674MOL0     C90871   3.637   2.948   9.816  0.3182  0.3069 -0.3015
  674MOL0     N90872   3.568   3.068   9.874 -0.6070 -0.4100  0.1212
  674MOL0     C90873   3.515   3.063   9.998 -0.2694 -0.1721 -0.4920
  674MOL0     C90874   3.449   3.185  10.003  0.5638 -0.4030  1.4269
  674MOL0     C90875   3.342   3.232  10.104 -0.3696  0.8269 -0.0502
  674MOL0     C90876   3.391   3.333  10.208  0.9573  0.2123 -0.5483
  674MOL0     C90877   3.304   3.329  10.339 -0.8361  0.6151  0.4304
  674MOL0     C90878   3.153   3.360  10.327 -1.1251  0.5086  0.1612
  674MOL0     O90879   3.135   3.486  10.264  0.4448 -0.9978 -0.0882
  674MOL0     C90880   3.021   3.501  10.192  0.1806 -0.2483  0.0227
  674MOL0     C90881   3.022   3.541  10.062 -0.1086 -0.7791  1.1856
  674MOL0     C90882   2.900   3.566   9.990 -0.1596 -0.2483 -0.1581
  674MOL0     C90883   2.912   3.612   9.843  0.2010 -0.0927 -0.6183
  674MOL0     C90884   2.776   3.549  10.060 -0.4691  0.0226 -1.0418
  674MOL0     C90885   2.634   3.577  10.000 -0.0816  0.6564 -0.5636
  674MOL0     O90886   2.526   3.514  10.060 -0.0754 -0.4803  0.3592
  674MOL0     C90887   2.442   3.602  10.125 -0.3816 -0.8167  0.1496
  674MOL0     C90888   2.324   3.548  10.161  0.2233  0.9497  0.1009
  674MOL0     C90889   2.227   3.632  10.227  0.5586  0.1819  0.2795
  674MOL0     C90890   2.253   3.765  10.259 -0.0482 -0.2228 -0.8818
  674MOL0     O90891   2.168   3.834  10.344 -0.1351  0.2833  0.0923
  674MOL0     C90892   2.168   3.982  10.360 -1.5686  0.8931 -0.0281
  674MOL0     C90893   2.057   3.991  10.469  0.2878 -0.1087  0.8764
  674MOL0     C90894   2.042   4.134  10.522 -0.5907 -0.0399 -0.2303
  674MOL0     C90895   1.925   4.133  10.621 -0.2724 -0.2476 -0.1653
  674MOL0     C90896   1.839   4.269  10.605  0.4017  0.0150  0.7966
  674MOL0     C90897   1.707   4.293  10.688 -0.8478 -0.3792 -0.7225
  674MOL0     C90898   1.615   4.183  10.670  0.2269  0.3014  0.3932
  674MOL0     C90899   1.475   4.211  10.738  0.1702  0.1202  0.0860
  674MOL0    Cl90900   1.477   4.204  10.910 -0.0007  0.2269  0.1547
  674MOL0     C90901   2.384   3.817  10.217  0.1003  0.4173 -0.2906
  674MOL0     C90902   2.473   3.740  10.144 -0.8003 -0.5876 -0.1347
  674MOL0     O90903   2.630   3.640   9.895  0.2813 -0.1081 -0.1864
  674MOL0     C90904   2.770   3.499  10.193 -0.1033  0.4555  0.7714
  674MOL0     C90905   2.898   3.481  10.255 -0.6505 -0.8594  0.3879
  674MOL0     N90906   3.466   3.262   9.896  0.3398  0.1790 -0.0021
  674MOL0     N90907   3.543   3.193   9.817  0.2081  0.1703  0.0537
  674MOL0     C90908   4.131   2.842  10.643  0.4984 -0.3704  0.5699
  674MOL0     C90909   4.238   2.758  10.698  0.9882  0.3523  0.6511
  674MOL0     C90910   4.600   2.487  10.722  0.8928  0.3102 -0.3019
  674MOL0     C90911   4.614   2.354  10.672 -0.6022  1.6148 -0.2558
  674MOL0     C90912   4.713   2.266  10.726 -0.7397 -0.2258  0.7122
  674MOL0     C90913   4.799   2.314  10.826  0.2032 -0.6438  1.2206
  674MOL0     O90914   4.894   2.240  10.889 -0.1866 -0.0161 -0.4774
  674MOL0     C90915   4.905   2.103  10.848 -0.2692  1.1584 -0.2077
  674MOL0     C90916   4.991   2.018  10.940 -0.5101 -0.1586 -0.8640
  674MOL0     C90917   4.925   2.007  11.082  0.7211  1.5405 -0.4395
  674MOL0     C90918   5.011   1.920  11.171 -0.7300  0.5140  0.1072
  674MOL0     C90919   4.997   1.784  11.123 -0.1308  1.4364 -0.1250
  674MOL0     C90920   4.990   1.669  11.086  0.3519 -0.3145 -0.1192
  674MOL0     C90921   4.779   2.445  10.870 -0.3732 -0.5838 -0.0075
  674MOL0     C90922   4.688   2.536  10.815 -0.6459  0.0849 -0.0265
  674MOL0     H90923   4.504   2.921  10.602  1.3617 -4.3096 -0.0893
  674MOL0     H90924   4.331   3.056  10.472 -2.1727 -1.6094 -3.7935
  674MOL0     H90925   3.967   3.175  10.404  0.2641  1.0276 -2.4018
  674MOL0     H90926   4.132   3.176  10.425 -0.7460  1.8109 -0.6956
  674MOL0     H90927   4.062   3.168  10.205  1.2593  0.6964  0.3203
  674MOL0     H90928   4.166   3.027  10.244 -0.9949 -1.9052 -1.2049
  674MOL0     H90929   3.957   2.898  10.271 -0.6449  1.5174 -0.0339
  674MOL0     H90930   3.862   3.019  10.187 -0.6709  0.4376  0.2440
  674MOL0     H90931   4.026   2.989   9.983  1.1741 -1.7309 -1.5670
  674MOL0     H90932   4.123   2.880  10.083  1.6637  0.8434  0.0667
  674MOL0     H90933   4.000   2.734   9.965  0.2115 -1.4353  1.8974
  674MOL0     H90934   3.936   2.733  10.121  0.3406  0.5098 -0.5111
  674MOL0     H90935   3.749   2.725   9.954 -1.5727 -0.4087  3.0692
  674MOL0     H90936   3.733   2.867  10.059 -1.2660  1.1457 -0.9294
  674MOL0     H90937   3.816   3.019   9.890 -2.5905  1.0735  0.4252
  674MOL0     H90938   3.831   2.872   9.777  1.4006 -0.2468 -0.0922
  674MOL0     H90939   3.578   2.860   9.843  1.4583 -0.7288 -1.0776
  674MOL0     H90940   3.627   2.978   9.711  1.0097  0.6293 -0.2874
  674MOL0     H90941   3.522   2.987  10.076 -1.3683  1.6138  1.4535
  674MOL0     H90942   3.261   3.284  10.052 -1.0325 -0.1318  0.0033
  674MOL0     H90943   3.306   3.144  10.159  0.6848 -0.4433 -1.3041
  674MOL0     H90944   3.388   3.429  10.156  2.1919  1.1735  1.0231
  674MOL0     H90945   3.498   3.330  10.235  0.1897 -1.7006  2.9839
  674MOL0     H90946   3.354   3.401  10.405 -0.4668 -0.1698  1.0334
  674MOL0     H90947   3.317   3.230  10.385  2.4311  0.8723  0.3207
  674MOL0     H90948   3.107   3.358  10.427  2.5800  0.6155  2.0382
  674MOL0     H90949   3.114   3.283  10.260  1.5869  0.9675 -2.1446
  674MOL0     H90950   3.117   3.554  10.012 -0.0370  2.3015  1.9239
  674MOL0     H90951   2.856   3.706   9.840  0.3455  0.1553  1.8191
  674MOL0     H90952   3.016   3.636   9.820  0.2456  1.9237  1.2723
  674MOL0     H90953   2.867   3.539   9.776 -0.1195 -2.6528  2.1327
  674MOL0     H90954   2.313   3.441  10.146 -0.8567  0.6275  2.6152
  674MOL0     H90955   2.134   3.591  10.266 -0.0217  2.1587  1.1109
  674MOL0     H90956   2.264   4.026  10.387 -1.5198  1.6161 -1.3010
  674MOL0     H90957   2.137   4.021  10.263  0.3842 -0.6767 -1.3695
  674MOL0     H90958   1.966   3.968  10.412  0.1551 -1.2138  1.4989
  674MOL0     H90959   2.066   3.909  10.541  2.4228 -1.4649 -0.8213
  674MOL0     H90960   2.020   4.206  10.443  1.4515  2.8247  1.6173
  674MOL0     H90961   2.125   4.167  10.585 -1.4248 -1.8672  1.9838
  674MOL0     H90962   1.873   4.037  10.628  1.6330 -1.2508  1.0790
  674MOL0     H90963   1.961   4.156  10.722 -0.9223  1.0384 -0.2014
  674MOL0     H90964   1.814   4.274  10.498 -0.8954 -0.5454  1.0609
  674MOL0     H90965   1.908   4.354  10.605 -2.4713  2.5395 -0.6471
  674MOL0     H90966   1.733   4.298  10.794 -3.2497 -0.7311 -0.0544
  674MOL0     H90967   1.658   4.386  10.656 -0.8278 -0.0176  0.2486
  674MOL0     H90968   1.664   4.094  10.711  0.3535  1.6698  3.4547
  674MOL0     H90969   1.604   4.166  10.562  0.4506 -0.3283  0.4605
  674MOL0     H90970   1.406   4.137  10.696  0.4289  1.0695 -2.1536
  674MOL0     H90971   1.438   4.311  10.711 -0.7279 -0.1261  0.3840
  674MOL0     H90972   2.420   3.913  10.251  0.9809  0.2707 -0.7668
  674MOL0     H90973   2.563   3.792  10.112  0.0363 -1.0127  1.3871
  674MOL0     H90974   2.681   3.470  10.248 -0.8177  1.8848  0.4304
  674MOL0     H90975   2.889   3.456  10.361 -1.4964 -0.7782  0.3398
  674MOL0     H90976   4.031   2.812  10.672 -0.1936  1.3946  0.1799
  674MOL0     H90977   4.209   2.679  10.766  2.5845 -1.1465 -0.3319
  674MOL0     H90978   4.575   2.320  10.577 -0.4403 -1.1493  0.5626
  674MOL0     H90979   4.727   2.164  10.690  1.8500 -0.2757  1.6641
  674MOL0     H90980   4.810   2.050  10.833  1.9385 -3.2153 -0.3441
  674MOL0     H90981   4.950   2.107  10.749 -0.6684 -2.6858 -0.6883
  674MOL0     H90982   5.087   2.068  10.953 -1.7939  1.9220  1.1482
  674MOL0     H90983   4.994   1.920  10.890 -3.3475 -0.6981 -0.1520
  674MOL0     H90984   4.826   1.965  11.063  0.8786  1.8940 -2.2164
  674MOL0     H90985   4.909   2.106  11.125 -0.3987  1.1237  0.1567
  674MOL0     H90986   4.976   1.924  11.275  0.2331  0.0004  0.4655
  674MOL0     H90987   5.112   1.960  11.165  0.0093 -0.7069  2.8268
  674MOL0     H90988   4.994   1.569  11.048 -2.1876 -0.1887 -0.9083
  674MOL0     H90989   4.846   2.466  10.952 -1.0770 -3.0045  1.2771
  674MOL0     H90990   4.681   2.636  10.856 -2.1544 -0.0052 -0.0059
  675MOL0     O90991  11.029   3.640   7.337  0.6741  0.1577  0.1737
  675MOL0     C90992  11.092   3.581   7.429  0.9496  0.0876  0.5262
  675MOL0     O90993  11.213   3.617   7.474  0.6419 -0.1224 -0.1391
  675MOL0     C90994  11.260   3.744   7.461  0.3715 -0.1405  0.0948
  675MOL0     C90995  11.397   3.756   7.480  0.2175 -0.1435  0.1256
  675MOL0     C90996  11.471   3.875   7.459  0.4640  0.1607 -1.7846
  675MOL0     C90997  11.399   3.983   7.417  0.2675 -0.1874 -0.0103
  675MOL0     O90998  11.476   4.091   7.384  0.5966  0.1024 -0.4141
  675MOL0     C90999  11.412   4.217   7.346 -0.8256 -0.6306  0.6499
  675MOL0     C91000  11.525   4.315   7.307 -0.1015 -0.0074  0.1042
  675MOL0     C91001  11.581   4.399   7.431  0.1138 -0.8073  0.7069
  675MOL0     C91002  11.622   4.320   7.552 -0.5220 -1.2061 -0.7781
  675MOL0     C91003  11.707   4.403   7.650  0.0593  0.3913 -0.0164
  675MOL0     C91004  11.852   4.374   7.641  0.5330 -0.2522  0.5196
  675MOL0     C91005  11.935   4.421   7.750  0.8757 -0.6653  0.0814
  675MOL0     C91006  12.080   4.442   7.708 -0.9182  0.4797  0.3123
  675MOL0     N91007  12.130   4.309   7.672  0.0725  0.8980  0.0779
  675MOL0     C91008  12.144   4.207   7.771 -0.7619 -0.6444  1.8096
  675MOL0     C91009  12.204   4.108   7.694 -0.7419 -0.2122  0.8007
  675MOL0     C91010  12.260   3.983   7.756 -0.0377 -1.1138 -0.1471
  675MOL0     C91011  12.171   3.859   7.742  0.5092  0.1283 -0.2144
  675MOL0     C91012  12.181   3.779   7.612 -0.5443 -0.1368 -0.3803
  675MOL0     C91013  12.163   3.628   7.624 -0.1866 -0.2763  0.6698
  675MOL0     O91014  12.295   3.575   7.611 -0.3412 -0.1311 -0.3915
  675MOL0     C91015  12.311   3.447   7.651  0.0666 -0.3407 -0.5336
  675MOL0     C91016  12.212   3.355   7.678 -0.3161  0.6196 -0.3050
  675MOL0     C91017  12.246   3.224   7.704  0.0741 -0.4184  0.7705
  675MOL0     C91018  12.137   3.127   7.763 -0.1641 -1.3091 -0.8600
  675MOL0     C91019  12.382   3.180   7.678 -0.1091  0.7330  0.1134
  675MOL0     C91020  12.429   3.036   7.675  0.5392  0.3486 -0.2262
  675MOL0     O91021  12.548   3.016   7.613 -0.7686 -0.9873  0.3390
  675MOL0     C91022  12.601   2.889   7.608  0.2138  1.4713  0.0477
  675MOL0     C91023  12.611   2.804   7.721 -0.5634 -0.0616  0.3028
  675MOL0     C91024  12.661   2.673   7.710 -0.0554 -0.4559  0.3143
  675MOL0     C91025  12.707   2.636   7.581  0.2233  0.1679  0.4246
  675MOL0     O91026  12.757   2.512   7.574 -0.2848 -0.3796 -0.1098
  675MOL0     C91027  12.872   2.478   7.651 -0.5436  0.0443  0.2027
  675MOL0     C91028  12.838   2.368   7.758 -0.4170 -0.4710 -0.4466
  675MOL0     C91029  12.787   2.244   7.685  0.0122  0.7707 -0.6226
  675MOL0     C91030  12.747   2.127   7.784 -0.2981 -0.8157  0.5351
  675MOL0     C91031  12.625   2.151   7.871 -0.6426  0.4382  1.1147
  675MOL0     C91032  12.493   2.123   7.794  0.3840  0.0069  0.5900
  675MOL0     C91033  12.375   2.102   7.901 -0.5311 -0.1838  0.1691
  675MOL0     C91034  12.242   2.052   7.847 -0.2922  0.9437  0.3020
  675MOL0    Cl91035  12.285   1.888   7.777 -0.2163  0.0813  0.2096
  675MOL0     C91036  12.701   2.716   7.465 -0.2256  0.0623 -0.0622
  675MOL0     C91037  12.651   2.850   7.481 -0.0302 -0.0529  0.0098
  675MOL0     O91038  12.353   2.946   7.720 -0.0091 -0.4604  0.7390
  675MOL0     C91039  12.469   3.274   7.639 -0.3545  0.2597 -0.1476
  675MOL0     C91040  12.440   3.401   7.633 -0.0915  0.4018 -0.1060
  675MOL0     N91041  12.208   4.145   7.561  0.2381 -0.0462 -0.4526
  675MOL0     N91042  12.172   4.267   7.546 -0.9469 -0.8158 -0.3669
  675MOL0     C91043  11.257   3.981   7.403 -0.7915  0.2914 -1.3573
  675MOL0     C91044  11.187   3.856   7.414  0.1645  0.0021  0.0791
  675MOL0     C91045  11.037   3.460   7.489  0.0412  0.2789 -0.5193
  675MOL0     C91046  10.914   3.398   7.448 -0.5785 -0.4141  1.0213
  675MOL0     C91047  10.865   3.280   7.499  0.1433  0.6245  0.0522
  675MOL0     C91048  10.941   3.208   7.580 -0.2594  0.3421 -0.4761
  675MOL0     O91049  10.884   3.087   7.608 -0.1576  0.9166  0.3353
  675MOL0     C91050  10.967   2.969   7.591  0.2778  0.3558  0.4401
  675MOL0     C91051  10.883   2.841   7.631  0.9268 -1.3714 -0.1721
  675MOL0     C91052  10.930   2.718   7.550 -0.2146  0.4285 -0.6675
  675MOL0     C91053  10.921   2.714   7.392 -0.3071 -0.4285  0.6317
  675MOL0     C91054  10.790   2.745   7.338  0.1969 -1.1172 -0.1840
  675MOL0     C91055  10.703   2.791   7.263 -0.3917  0.1404 -0.4547
  675MOL0     C91056  11.066   3.259   7.630 -0.3122 -0.6091  0.3101
  675MOL0     C91057  11.112   3.384   7.580  0.2773  0.4370  1.0172
  675MOL0     H91058  11.458   3.676   7.519  3.1488  0.7623 -2.1988
  675MOL0     H91059  11.577   3.877   7.481 -0.1473 -1.8566  2.1142
  675MOL0     H91060  11.353   4.197   7.256  0.5158  0.1853 -0.4461
  675MOL0     H91061  11.347   4.267   7.418  1.5078  1.1149  1.6656
  675MOL0     H91062  11.608   4.265   7.255 -2.6629 -3.4149 -1.0790
  675MOL0     H91063  11.489   4.387   7.232 -0.0436 -1.8655 -1.7841
  675MOL0     H91064  11.663   4.460   7.393 -1.9461  1.5098 -0.3182
  675MOL0     H91065  11.510   4.475   7.466  1.3612  1.7514 -1.8597
  675MOL0     H91066  11.527   4.297   7.601 -2.0468  2.3325 -1.7523
  675MOL0     H91067  11.673   4.229   7.520  1.0606 -1.5891  2.4823
  675MOL0     H91068  11.687   4.509   7.632 -0.1833  0.2920 -0.3530
  675MOL0     H91069  11.676   4.376   7.751  3.8847 -0.1287  1.1768
  675MOL0     H91070  11.879   4.271   7.615  1.0391 -0.6306  2.3780
  675MOL0     H91071  11.877   4.434   7.554 -0.7786  0.7802  0.8170
  675MOL0     H91072  11.886   4.515   7.778  2.5816  0.4951 -0.6685
  675MOL0     H91073  11.929   4.355   7.836 -0.6441 -0.8667 -0.1448
  675MOL0     H91074  12.157   4.465   7.782  1.6578  0.8320 -2.3004
  675MOL0     H91075  12.089   4.509   7.622 -5.0916 -4.0721 -4.3622
  675MOL0     H91076  12.124   4.227   7.876 -1.1766 -0.3901  1.6860
  675MOL0     H91077  12.355   3.968   7.704 -0.4057  2.5289 -2.1633
  675MOL0     H91078  12.290   4.001   7.860  1.0902  2.4466 -0.9514
  675MOL0     H91079  12.069   3.887   7.770  1.4092 -0.2777  4.1894
  675MOL0     H91080  12.197   3.792   7.824  2.0056  0.2633 -0.5485
  675MOL0     H91081  12.284   3.794   7.580  0.3522  2.6794  3.1780
  675MOL0     H91082  12.107   3.808   7.537 -0.7214 -1.5587 -0.7889
  675MOL0     H91083  12.104   3.606   7.535  0.4448 -0.9907  0.4116
  675MOL0     H91084  12.111   3.588   7.712  0.4611 -2.2034  0.2362
  675MOL0     H91085  12.111   3.392   7.691 -0.6980  0.0280 -1.5036
  675MOL0     H91086  12.123   3.031   7.713  1.2424 -3.1832  2.0523
  675MOL0     H91087  12.156   3.095   7.866  2.5680  1.8654 -0.2188
  675MOL0     H91088  12.042   3.182   7.756  0.6390  0.2115 -0.3684
  675MOL0     H91089  12.579   2.828   7.822  1.2349  0.6120  0.7479
  675MOL0     H91090  12.662   2.604   7.794  0.6071 -1.4844 -0.4987
  675MOL0     H91091  12.950   2.431   7.590 -0.7921 -0.4727  0.2739
  675MOL0     H91092  12.908   2.570   7.698  2.0693  1.6060 -4.2111
  675MOL0     H91093  12.928   2.353   7.819  0.9555 -1.2159 -2.5730
  675MOL0     H91094  12.779   2.400   7.845 -0.6625  0.1625 -0.8414
  675MOL0     H91095  12.871   2.209   7.623 -2.0870 -1.5838 -2.3377
  675MOL0     H91096  12.699   2.267   7.623 -0.1082 -2.3445 -1.7748
  675MOL0     H91097  12.724   2.044   7.717 -4.5622  2.5533 -2.8541
  675MOL0     H91098  12.834   2.118   7.849 -0.7922 -0.9802  1.1887
  675MOL0     H91099  12.626   2.256   7.901 -1.0469  0.6365  0.4633
  675MOL0     H91100  12.642   2.111   7.971 -1.0364 -1.5888  0.4236
  675MOL0     H91101  12.470   2.197   7.718 -1.1514 -3.7266 -2.9685
  675MOL0     H91102  12.502   2.035   7.729  3.2612  1.2583 -0.9211
  675MOL0     H91103  12.353   2.189   7.963 -4.8181 -1.2190  0.3789
  675MOL0     H91104  12.400   2.031   7.981 -0.1329  1.6587  1.7617
  675MOL0     H91105  12.203   2.121   7.772  2.2635  1.1511 -0.9475
  675MOL0     H91106  12.156   2.044   7.915 -0.7652  0.3893 -0.3417
  675MOL0     H91107  12.729   2.688   7.364 -2.0613  1.1176 -0.9172
  675MOL0     H91108  12.643   2.919   7.398 -2.6476 -0.0451  0.1814
  675MOL0     H91109  12.573   3.257   7.610 -0.5809  0.2490 -0.9874
  675MOL0     H91110  12.517   3.469   7.599  0.9562 -2.1216 -3.2112
  675MOL0     H91111  11.195   4.067   7.377 -1.2486 -0.3515 -2.4621
  675MOL0     H91112  11.079   3.864   7.405  0.1210  2.1240  1.8152
  675MOL0     H91113  10.863   3.453   7.370  2.4023  0.9758 -0.0882
  675MOL0     H91114  10.772   3.239   7.462  0.0659 -0.4387  1.3458
  675MOL0     H91115  11.019   2.955   7.496 -0.8309 -1.6981  0.0701
  675MOL0     H91116  11.058   2.970   7.652  0.1459 -0.8476  0.6787
  675MOL0     H91117  10.774   2.844   7.621  0.9043 -2.5551 -0.5123
  675MOL0     H91118  10.885   2.813   7.736  2.9064 -0.6378  0.0312
  675MOL0     H91119  10.865   2.634   7.576  1.3180 -1.0069 -1.2819
  675MOL0     H91120  11.033   2.711   7.586 -1.4102  0.7279  3.2855
  675MOL0     H91121  10.954   2.612   7.369 -2.1658 -1.2237  1.3177
  675MOL0     H91122  10.995   2.788   7.358  3.7193 -3.3954  2.1171
  675MOL0     H91123  10.642   2.835   7.187  0.9652  0.4034 -1.4176
  675MOL0     H91124  11.114   3.202   7.709 -3.2517  0.4021  3.0409
  675MOL0     H91125  11.200   3.431   7.623  0.4429 -1.1546  2.5268
  676MOL0     O91126  10.932   2.675   4.280  0.3788 -0.7335 -0.0217
  676MOL0     C91127  11.003   2.582   4.302 -0.1720 -0.8198 -0.6332
  676MOL0     O91128  10.980   2.483   4.385 -0.0570 -0.1535 -0.2187
  676MOL0     C91129  10.854   2.455   4.445 -1.0680 -0.4091 -0.0124
  676MOL0     C91130  10.780   2.555   4.496  1.3540 -0.5939  0.7287
  676MOL0     C91131  10.651   2.528   4.565  1.1403 -0.2962  0.5291
  676MOL0     C91132  10.613   2.389   4.568  1.0705  0.4654  0.4224
  676MOL0     O91133  10.502   2.336   4.633 -0.4613 -0.0103 -0.8447
  676MOL0     C91134  10.419   2.430   4.714  0.8960  0.8822  0.0690
  676MOL0     C91135  10.316   2.339   4.784  1.0622  0.0492 -0.6479
  676MOL0     C91136  10.205   2.407   4.865 -0.0536  0.5787 -0.7662
  676MOL0     C91137  10.108   2.493   4.778 -1.1946 -0.6163  0.5390
  676MOL0     C91138  10.005   2.554   4.876 -0.1642  0.7082 -0.4791
  676MOL0     C91139   9.924   2.686   4.830  0.0507 -0.1774  1.0452
  676MOL0     C91140   9.796   2.647   4.749  0.3122 -0.0834 -0.1115
  676MOL0     C91141   9.666   2.632   4.831 -0.9053 -0.2624 -0.2525
  676MOL0     N91142   9.613   2.749   4.903  0.9498  0.1411  0.1833
  676MOL0     C91143   9.519   2.828   4.841 -1.0617 -0.3161  0.5646
  676MOL0     C91144   9.497   2.937   4.916 -1.1725 -0.4531  0.2829
  676MOL0     C91145   9.402   3.048   4.888  1.2418 -0.1492 -0.3770
  676MOL0     C91146   9.461   3.167   4.951 -0.3387  0.3465 -0.6422
  676MOL0     C91147   9.358   3.279   4.926 -0.6213 -0.0322  0.0996
  676MOL0     C91148   9.364   3.392   5.033 -0.5220  1.0910 -0.4712
  676MOL0     O91149   9.279   3.501   5.008 -0.8601 -0.6224 -0.5732
  676MOL0     C91150   9.262   3.600   5.103  0.1605  0.6840  0.4957
  676MOL0     C91151   9.151   3.611   5.186  0.2377 -0.6052 -0.2426
  676MOL0     C91152   9.138   3.730   5.275 -0.0410  1.2459  0.2209
  676MOL0     C91153   9.009   3.730   5.359  1.3936  0.2061  0.3219
  676MOL0     C91154   9.254   3.821   5.291 -0.7253 -0.4369  0.2873
  676MOL0     C91155   9.265   3.934   5.390 -0.8895  0.0913  0.2298
  676MOL0     O91156   9.363   4.023   5.355 -0.4410 -0.8764 -0.5947
  676MOL0     C91157   9.385   4.133   5.421 -0.1021 -0.9311 -0.0070
  676MOL0     C91158   9.354   4.251   5.356  0.6101  0.6737 -0.2446
  676MOL0     C91159   9.388   4.376   5.410 -0.1860  0.5019 -0.0476
  676MOL0     C91160   9.446   4.383   5.536 -0.2605  0.2840 -0.3833
  676MOL0     O91161   9.497   4.498   5.599  0.4893 -0.2767  0.6708
  676MOL0     C91162   9.460   4.624   5.523  0.2627 -0.6146  0.0698
  676MOL0     C91163   9.509   4.750   5.612 -0.9972 -0.0331 -0.0293
  676MOL0     C91164   9.647   4.808   5.583  0.7708 -0.0699 -0.3249
  676MOL0     C91165   9.691   4.896   5.695 -0.6152 -0.0941  1.0222
  676MOL0     C91166   9.833   4.950   5.673  0.2593  0.8251 -0.1476
  676MOL0     C91167   9.947   4.835   5.688  0.4371 -0.4728 -0.0908
  676MOL0     C91168  10.090   4.884   5.664 -0.3509  0.2496 -0.3707
  676MOL0     C91169  10.124   4.902   5.515 -0.8387 -0.1194 -0.6295
  676MOL0    Cl91170  10.149   4.748   5.438 -0.0449 -0.1782  0.8705
  676MOL0     C91171   9.473   4.267   5.607  0.1867 -0.3496  1.3290
  676MOL0     C91172   9.440   4.141   5.549 -0.2392 -0.1847 -0.2431
  676MOL0     O91173   9.198   3.940   5.493 -0.4371 -0.3016  0.2632
  676MOL0     C91174   9.364   3.792   5.205  0.0529 -0.0350 -0.3019
  676MOL0     C91175   9.367   3.686   5.120 -1.0579 -1.2031 -0.4251
  676MOL0     N91176   9.575   2.916   5.038  0.7101 -0.2987  0.0234
  676MOL0     N91177   9.651   2.808   5.021 -0.3078  0.4294 -0.2772
  676MOL0     C91178  10.701   2.284   4.523 -1.0347 -0.3395  0.7349
  676MOL0     C91179  10.823   2.320   4.457 -0.2883  0.2873  0.0487
  676MOL0     C91180  11.135   2.568   4.237  0.7784 -0.8283 -0.1494
  676MOL0     C91181  11.207   2.677   4.174  1.2650  0.2051  0.1828
  676MOL0     C91182  11.330   2.657   4.123 -0.7680 -0.7360  0.1405
  676MOL0     C91183  11.389   2.525   4.118  1.2652 -0.1533 -0.7446
  676MOL0     O91184  11.513   2.487   4.062 -1.4766 -0.3936  0.2753
  676MOL0     C91185  11.583   2.574   3.973 -0.1209  0.1454 -0.2690
  676MOL0     C91186  11.675   2.684   4.042  0.6408  0.3338  1.3358
  676MOL0     C91187  11.826   2.632   4.038  0.1904 -0.8994 -0.6593
  676MOL0     C91188  11.915   2.745   4.059  0.6371 -0.2176 -0.7933
  676MOL0     C91189  11.946   2.806   3.933 -1.0683  0.2251  0.9248
  676MOL0     C91190  11.954   2.858   3.823  0.0146 -0.4296 -0.8133
  676MOL0     C91191  11.317   2.420   4.187  0.3351  0.2473 -0.4131
  676MOL0     C91192  11.194   2.441   4.240  0.1232 -0.4163 -0.2249
  676MOL0     H91193  10.805   2.660   4.494 -2.5115  0.4798  1.2863
  676MOL0     H91194  10.586   2.604   4.605  2.1871  0.7371  0.3224
  676MOL0     H91195  10.480   2.474   4.793  0.2471  3.2080 -0.6425
  676MOL0     H91196  10.383   2.503   4.641 -1.2247 -0.5776 -0.4438
  676MOL0     H91197  10.273   2.273   4.709  1.3497  0.3543 -1.0826
  676MOL0     H91198  10.370   2.284   4.862  0.8635  0.1674 -0.4259
  676MOL0     H91199  10.144   2.320   4.892  0.0462  0.6053 -0.4615
  676MOL0     H91200  10.239   2.457   4.956  2.5602 -2.1615 -0.0903
  676MOL0     H91201  10.171   2.572   4.736  2.3228 -2.6731  1.5031
  676MOL0     H91202  10.069   2.434   4.695  2.4628  2.6653 -4.1070
  676MOL0     H91203   9.933   2.485   4.921  1.2844 -0.7342 -0.2766
  676MOL0     H91204  10.068   2.593   4.957  0.1584 -0.5914 -0.0733
  676MOL0     H91205   9.897   2.745   4.918  1.8138 -1.1290  2.2725
  676MOL0     H91206   9.986   2.753   4.770  1.0052 -0.1253  2.0667
  676MOL0     H91207   9.763   2.729   4.685 -1.8414 -0.5613  0.3179
  676MOL0     H91208   9.812   2.558   4.687 -0.3261 -0.9212  0.8937
  676MOL0     H91209   9.702   2.578   4.919 -1.6458  1.6893  1.3182
  676MOL0     H91210   9.600   2.569   4.770  0.1723 -1.5761 -0.1180
  676MOL0     H91211   9.482   2.821   4.739  1.4526  6.1204 -1.2981
  676MOL0     H91212   9.399   3.053   4.779  2.2812 -2.6033 -0.5941
  676MOL0     H91213   9.303   3.019   4.924  1.4447  1.0948  1.2955
  676MOL0     H91214   9.556   3.190   4.901 -1.3621  0.1895 -2.7792
  676MOL0     H91215   9.476   3.152   5.058 -0.5916 -1.8076 -0.8666
  676MOL0     H91216   9.257   3.239   4.943 -1.6623  1.2347 -2.5394
  676MOL0     H91217   9.367   3.303   4.820  1.2154 -4.8857 -1.1258
  676MOL0     H91218   9.465   3.433   5.029 -0.5154  1.1372  0.0655
  676MOL0     H91219   9.336   3.356   5.133 -0.6100  3.1168  0.2969
  676MOL0     H91220   9.073   3.536   5.181  0.1798 -1.2306  4.9034
  676MOL0     H91221   8.921   3.726   5.294  0.1696  3.0440  1.6074
  676MOL0     H91222   9.012   3.655   5.438  0.9441  2.2542  2.3944
  676MOL0     H91223   9.004   3.829   5.406  2.2567  0.1266  0.6039
  676MOL0     H91224   9.301   4.246   5.261 -3.8478 -3.6327  2.0237
  676MOL0     H91225   9.374   4.474   5.364  1.1053  1.4471  1.4448
  676MOL0     H91226   9.523   4.628   5.434  0.1725  1.0653  0.0498
  676MOL0     H91227   9.352   4.630   5.506  0.1665 -0.9183  0.5445
  676MOL0     H91228   9.442   4.835   5.598 -0.9499 -0.1942 -1.3843
  676MOL0     H91229   9.495   4.729   5.719  0.0401  1.6018  0.4712
  676MOL0     H91230   9.639   4.870   5.493  0.2466  1.4037  0.7048
  676MOL0     H91231   9.718   4.727   5.561 -0.3486 -0.4387 -3.1411
  676MOL0     H91232   9.620   4.979   5.702 -2.6716 -1.8356  2.3453
  676MOL0     H91233   9.697   4.847   5.793  2.0314 -2.8976 -0.3843
  676MOL0     H91234   9.852   5.028   5.747  0.5700 -2.6171  3.7983
  676MOL0     H91235   9.837   4.994   5.573  2.0016 -1.7306 -1.3361
  676MOL0     H91236   9.946   4.795   5.790  0.2002  2.5527  1.2150
  676MOL0     H91237   9.921   4.753   5.620  0.5132 -0.3405 -0.2786
  676MOL0     H91238  10.166   4.817   5.705 -0.1877  2.3450  3.1124
  676MOL0     H91239  10.100   4.983   5.709 -2.0391  1.6824 -2.8972
  676MOL0     H91240  10.213   4.964   5.507 -2.2907  1.8489 -3.5398
  676MOL0     H91241  10.046   4.960   5.465 -1.4639  0.5729  1.0693
  676MOL0     H91242   9.523   4.274   5.703 -0.2811  0.2825  1.5259
  676MOL0     H91243   9.450   4.060   5.620  1.1743  1.6441  1.7280
  676MOL0     H91244   9.452   3.856   5.198 -0.0127 -0.0427 -1.4270
  676MOL0     H91245   9.455   3.662   5.062 -2.3256 -2.1933 -2.0129
  676MOL0     H91246  10.675   2.180   4.540 -1.9010  0.0996  2.3010
  676MOL0     H91247  10.896   2.245   4.431 -1.8130 -1.1503 -0.2940
  676MOL0     H91248  11.150   2.767   4.155 -0.6319 -0.7926  0.8942
  676MOL0     H91249  11.389   2.735   4.076 -3.4657  2.0013  0.9467
  676MOL0     H91250  11.655   2.514   3.916 -0.3599 -3.2542  2.6637
  676MOL0     H91251  11.512   2.623   3.907 -0.1323 -0.1193 -0.4540
  676MOL0     H91252  11.643   2.686   4.146 -2.0526 -1.7780  0.6447
  676MOL0     H91253  11.659   2.774   3.981 -0.4556 -1.8067 -1.8223
  676MOL0     H91254  11.854   2.578   3.947 -2.5382 -2.2471 -0.7908
  676MOL0     H91255  11.837   2.561   4.120  0.0036 -1.2470 -0.9333
  676MOL0     H91256  12.012   2.724   4.105  1.5473  3.8435 -0.4722
  676MOL0     H91257  11.867   2.810   4.133  2.5656  0.8310 -0.4029
  676MOL0     H91258  11.954   2.917   3.734  2.3148  2.8679  1.1532
  676MOL0     H91259  11.373   2.327   4.181  1.2077  0.6046  1.6154
  676MOL0     H91260  11.151   2.351   4.281 -0.0200  0.1019  0.7847
  677MOL0     O91261   9.518   5.836   5.147 -0.4709  0.0152 -0.4693
  677MOL0     C91262   9.417   5.887   5.192 -0.2831  0.5665 -0.6863
  677MOL0     O91263   9.354   6.000   5.150 -0.2421 -0.3634  0.5196
  677MOL0     C91264   9.428   6.068   5.049 -0.4099 -0.5818  0.6389
  677MOL0     C91265   9.380   6.053   4.914  0.5126 -0.0333 -0.6468
  677MOL0     C91266   9.453   6.111   4.808  0.2941 -0.5187  0.7430
  677MOL0     C91267   9.582   6.157   4.840 -1.2269 -0.0634 -0.2883
  677MOL0     O91268   9.664   6.212   4.735 -0.0181  0.7832  0.4562
  677MOL0     C91269   9.652   6.181   4.599  1.1299 -0.7061  0.0359
  677MOL0     C91270   9.560   6.276   4.529 -0.1811 -0.6114  0.5868
  677MOL0     C91271   9.628   6.391   4.462  0.0064 -0.2332 -0.0911
  677MOL0     C91272   9.695   6.491   4.559  0.3510 -0.0458 -0.2904
  677MOL0     C91273   9.757   6.604   4.471  0.3962 -0.3444  0.0720
  677MOL0     C91274   9.893   6.558   4.411 -0.0037 -0.6048 -0.0022
  677MOL0     C91275   9.957   6.649   4.315 -1.0425  0.1968  0.1933
  677MOL0     C91276  10.102   6.624   4.288 -0.9771  0.4966  0.7248
  677MOL0     N91277  10.120   6.490   4.224 -0.2489  0.2577  0.3537
  677MOL0     C91278  10.088   6.460   4.100  1.0183 -0.2622  0.5821
  677MOL0     C91279  10.121   6.329   4.081  0.7194  0.0652 -0.2400
  677MOL0     C91280  10.100   6.243   3.956  0.0639  0.2528  1.1339
  677MOL0     C91281  10.221   6.267   3.852 -1.2694  0.1104  1.0827
  677MOL0     C91282  10.217   6.156   3.746 -0.8725  0.4370 -0.1062
  677MOL0     C91283  10.081   6.108   3.691  0.2853 -0.3786  0.5915
  677MOL0     O91284  10.005   6.227   3.652 -0.8529 -0.7306  0.0124
  677MOL0     C91285   9.881   6.200   3.602  0.5267  0.1547 -0.2501
  677MOL0     C91286   9.841   6.070   3.564  0.4140 -0.4054  0.6844
  677MOL0     C91287   9.715   6.059   3.501 -0.6055 -0.3891  0.5115
  677MOL0     C91288   9.672   5.923   3.443 -0.2527 -0.9260  0.3896
  677MOL0     C91289   9.626   6.167   3.480  0.6406  0.6527 -0.8926
  677MOL0     C91290   9.488   6.171   3.418 -0.0392  0.3273  0.0710
  677MOL0     O91291   9.443   6.294   3.364 -0.0539  0.1777  0.4720
  677MOL0     C91292   9.320   6.283   3.299  1.1450  0.7634 -0.0846
  677MOL0     C91293   9.197   6.325   3.359 -0.6500  0.0519 -0.3103
  677MOL0     C91294   9.077   6.342   3.287  0.2413  0.0537 -0.3518
  677MOL0     C91295   9.075   6.289   3.152  0.5650  1.1984 -1.5937
  677MOL0     O91296   8.966   6.297   3.068  0.2245  0.3129 -0.2135
  677MOL0     C91297   8.837   6.320   3.132  1.5734 -0.2034  1.1927
  677MOL0     C91298   8.731   6.291   3.023  1.1830  0.2713  0.6751
  677MOL0     C91299   8.589   6.299   3.078 -0.2905  0.0785 -1.0310
  677MOL0     C91300   8.523   6.158   3.091  0.8406  0.6042 -0.0865
  677MOL0     C91301   8.481   6.115   2.945 -1.0461  0.1676 -0.7018
  677MOL0     C91302   8.487   5.967   2.903  0.1454 -0.9555  0.5225
  677MOL0     C91303   8.367   5.882   2.948 -0.0997  0.5211  0.4095
  677MOL0     C91304   8.371   5.729   2.921  0.0564 -0.2019 -0.0495
  677MOL0    Cl91305   8.381   5.692   2.753 -0.0011  0.0557 -0.0125
  677MOL0     C91306   9.193   6.231   3.099  0.0282 -0.7073  1.4576
  677MOL0     C91307   9.314   6.240   3.166  0.2022  0.1028  0.1000
  677MOL0     O91308   9.417   6.072   3.442 -0.8160 -0.3257  0.8458
  677MOL0     C91309   9.672   6.293   3.515  0.7866  0.6467  0.3924
  677MOL0     C91310   9.798   6.309   3.574 -0.1642 -0.7864  0.2382
  677MOL0     N91311  10.169   6.284   4.197 -0.6495  0.2123  0.5462
  677MOL0     N91312  10.171   6.376   4.282 -0.8897  0.0789 -0.3204
  677MOL0     C91313   9.633   6.161   4.969  0.1607  0.3196 -0.6105
  677MOL0     C91314   9.549   6.131   5.076 -0.2500  0.4704  0.8911
  677MOL0     C91315   9.359   5.805   5.306 -0.1430  0.6839 -0.3678
  677MOL0     C91316   9.410   5.682   5.345 -0.0618  0.5381 -0.4937
  677MOL0     C91317   9.361   5.608   5.456  0.7130 -0.1278  0.6159
  677MOL0     C91318   9.246   5.655   5.522 -1.7340  1.0937  0.0450
  677MOL0     O91319   9.221   5.570   5.626 -0.1761  0.0392 -0.4624
  677MOL0     C91320   9.099   5.612   5.695 -1.0780 -0.1871 -0.3131
  677MOL0     C91321   8.973   5.549   5.635 -0.5147  0.3275  0.1735
  677MOL0     C91322   8.985   5.399   5.664 -0.0224  0.7577 -0.3645
  677MOL0     C91323   8.865   5.329   5.577  0.1456 -0.2063  0.3643
  677MOL0     C91324   8.826   5.201   5.628 -0.2567  0.7089 -0.3139
  677MOL0     C91325   8.760   5.103   5.657 -0.5493 -0.4110 -0.6767
  677MOL0     C91326   9.190   5.776   5.476  0.5662  1.0936  0.3163
  677MOL0     C91327   9.240   5.849   5.370 -0.0632  0.0543 -0.6314
  677MOL0     H91328   9.291   5.994   4.897  0.4479 -1.0011  2.3841
  677MOL0     H91329   9.418   6.122   4.706  1.5498  0.2089  0.3670
  677MOL0     H91330   9.752   6.180   4.554 -0.4638 -2.4919 -3.9168
  677MOL0     H91331   9.626   6.077   4.577  3.3601 -1.5383  1.0010
  677MOL0     H91332   9.501   6.213   4.462 -0.8641 -2.9199  3.1483
  677MOL0     H91333   9.485   6.314   4.599  0.1389 -0.3974  0.8138
  677MOL0     H91334   9.708   6.346   4.401  1.7537 -0.2464  2.0924
  677MOL0     H91335   9.567   6.449   4.392  0.3164 -1.2068 -1.2065
  677MOL0     H91336   9.617   6.519   4.630 -0.0747 -2.3875  0.2568
  677MOL0     H91337   9.774   6.452   4.624  0.4238  0.3209 -0.1562
  677MOL0     H91338   9.683   6.641   4.398 -1.8682  0.8495  2.7839
  677MOL0     H91339   9.774   6.699   4.523 -1.7556  2.6847 -4.0436
  677MOL0     H91340   9.970   6.564   4.488 -0.1577  2.5733  0.0512
  677MOL0     H91341   9.881   6.456   4.374 -1.4919 -1.4197  2.4986
  677MOL0     H91342   9.899   6.646   4.222 -0.9264 -0.4309  0.1346
  677MOL0     H91343   9.966   6.752   4.352 -0.8593  1.2551 -2.5246
  677MOL0     H91344  10.164   6.632   4.378  2.2499 -3.8666 -0.7289
  677MOL0     H91345  10.138   6.695   4.214 -0.7876  2.3606  2.5336
  677MOL0     H91346  10.042   6.533   4.035 -0.7907  0.9693  3.0675
  677MOL0     H91347  10.091   6.140   3.991  0.1190  0.0551  0.5842
  677MOL0     H91348  10.003   6.269   3.912  0.4302  2.1893  1.3845
  677MOL0     H91349  10.320   6.271   3.898 -0.5118  0.4217 -0.5333
  677MOL0     H91350  10.210   6.362   3.800 -0.3253 -1.3609 -2.0479
  677MOL0     H91351  10.276   6.073   3.786  0.6031 -0.8622 -4.4955
  677MOL0     H91352  10.265   6.180   3.651 -1.1483 -2.4168 -1.0548
  677MOL0     H91353  10.022   6.040   3.753 -2.8295  1.3092 -0.3364
  677MOL0     H91354  10.109   6.047   3.605 -0.0186 -3.4240  2.5005
  677MOL0     H91355   9.899   5.978   3.557  0.9996 -0.2247  2.5108
  677MOL0     H91356   9.754   5.851   3.433 -1.4337 -2.0269 -2.9125
  677MOL0     H91357   9.598   5.877   3.508  0.8122 -1.4706  1.2519
  677MOL0     H91358   9.639   5.943   3.341 -1.5230 -0.7762  0.8135
  677MOL0     H91359   9.198   6.350   3.464 -2.1152  0.8850 -0.4688
  677MOL0     H91360   9.002   6.406   3.333  0.0308  0.0085 -0.6271
  677MOL0     H91361   8.827   6.241   3.207 -1.5987  0.0388  1.1307
  677MOL0     H91362   8.835   6.424   3.165  1.9094  0.9951 -2.1614
  677MOL0     H91363   8.759   6.363   2.946  0.3215 -2.4858 -2.4611
  677MOL0     H91364   8.756   6.192   2.983  1.2592  1.5096 -2.7089
  677MOL0     H91365   8.524   6.355   3.011 -0.3212  1.2915 -0.0173
  677MOL0     H91366   8.595   6.346   3.177  3.7480 -2.1452  0.0127
  677MOL0     H91367   8.590   6.081   3.131  0.2405  0.5849  0.9153
  677MOL0     H91368   8.426   6.158   3.143 -0.9669 -0.2222 -3.1964
  677MOL0     H91369   8.567   6.155   2.890 -0.0022 -1.7746 -0.5582
  677MOL0     H91370   8.388   6.170   2.925 -1.3865  1.5179  3.5206
  677MOL0     H91371   8.489   5.973   2.794 -0.5871 -2.9004  0.3681
  677MOL0     H91372   8.579   5.922   2.943  0.3425 -1.9926 -1.0206
  677MOL0     H91373   8.267   5.922   2.925  0.6327  1.6665 -0.9681
  677MOL0     H91374   8.367   5.886   3.057 -2.3299 -1.4668  0.5549
  677MOL0     H91375   8.286   5.674   2.960 -0.0997  2.1241  3.3200
  677MOL0     H91376   8.453   5.688   2.981  0.2795 -1.5546 -1.2193
  677MOL0     H91377   9.185   6.210   2.993  2.6262  0.7004  0.8902
  677MOL0     H91378   9.410   6.214   3.121 -0.1263 -0.5262 -0.2515
  677MOL0     H91379   9.603   6.376   3.506  0.1163 -0.0020 -0.5224
  677MOL0     H91380   9.842   6.405   3.597  4.8038 -2.8687  0.7482
  677MOL0     H91381   9.729   6.209   4.988  0.4474  0.4189 -2.1824
  677MOL0     H91382   9.574   6.156   5.179 -4.2451  4.1233  1.2476
  677MOL0     H91383   9.491   5.631   5.294 -1.8055 -0.7549 -2.1035
  677MOL0     H91384   9.413   5.518   5.488  5.4688  1.1182 -2.4949
  677MOL0     H91385   9.117   5.589   5.800  0.3175 -0.2572 -0.5392
  677MOL0     H91386   9.085   5.721   5.699 -0.1756 -0.0916  0.8294
  677MOL0     H91387   8.955   5.581   5.531 -0.4549  0.0113  0.0659
  677MOL0     H91388   8.881   5.591   5.677  0.0575  2.4619 -0.5576
  677MOL0     H91389   8.969   5.373   5.769 -1.5918  2.0849 -0.2370
  677MOL0     H91390   9.078   5.352   5.631  2.0695  1.4349  3.7854
  677MOL0     H91391   8.899   5.310   5.475  3.0104  2.1963  0.7569
  677MOL0     H91392   8.778   5.395   5.576 -1.2956 -1.9714 -1.9383
  677MOL0     H91393   8.688   5.026   5.675  0.1049 -1.3789 -2.0678
  677MOL0     H91394   9.102   5.821   5.522 -0.9196 -0.5010 -0.8322
  677MOL0     H91395   9.189   5.937   5.330 -0.1882  0.6851  0.8639
  678MOL0     O91396   5.644   3.733   6.714 -0.3389 -0.3984 -0.3016
  678MOL0     C91397   5.626   3.695   6.602  0.2479 -0.1800  0.1619
  678MOL0     O91398   5.715   3.657   6.506 -0.3117  0.5386 -0.0071
  678MOL0     C91399   5.837   3.604   6.547  0.5996 -0.9500  0.1268
  678MOL0     C91400   5.850   3.468   6.553  0.6357 -0.5581 -0.1534
  678MOL0     C91401   5.971   3.400   6.583 -0.0223 -0.0625 -0.1209
  678MOL0     C91402   6.078   3.477   6.623 -0.3251 -0.1451  0.1464
  678MOL0     O91403   6.194   3.424   6.675 -0.5811 -0.0227 -0.1148
  678MOL0     C91404   6.191   3.284   6.725 -0.6544 -0.0143  0.8703
  678MOL0     C91405   6.326   3.231   6.785  0.8295  1.1083 -0.4524
  678MOL0     C91406   6.447   3.242   6.692 -0.2528  0.4172 -0.1915
  678MOL0     C91407   6.569   3.153   6.728  0.2346 -0.4509  0.8570
  678MOL0     C91408   6.705   3.207   6.687  0.1142  0.3159 -0.3435
  678MOL0     C91409   6.810   3.114   6.747 -0.5028  0.0863  0.1534
  678MOL0     C91410   6.950   3.177   6.745  0.1567 -0.0797 -0.0227
  678MOL0     C91411   7.041   3.096   6.833  0.5352  0.2489  0.1726
  678MOL0     N91412   7.178   3.150   6.816  0.4416  0.6896  0.7535
  678MOL0     C91413   7.250   3.255   6.880  0.7658 -0.0673  0.5096
  678MOL0     C91414   7.376   3.261   6.814  0.5291 -0.4073  0.6021
  678MOL0     C91415   7.501   3.339   6.848 -0.7820  0.5832 -0.9153
  678MOL0     C91416   7.635   3.279   6.782 -0.3390  0.5625 -0.0482
  678MOL0     C91417   7.667   3.137   6.846 -0.2842  0.9170  0.4947
  678MOL0     C91418   7.823   3.127   6.859  0.2721 -0.2980  1.0360
  678MOL0     O91419   7.857   2.988   6.897 -1.3203 -0.8985 -0.5748
  678MOL0     C91420   7.984   2.960   6.944  0.2768 -0.0438 -0.3815
  678MOL0     C91421   8.081   3.060   6.974 -0.3893 -0.9979 -0.4355
  678MOL0     C91422   8.202   3.034   7.019 -0.0487  0.7865 -0.4294
  678MOL0     C91423   8.304   3.140   7.041 -0.7837  0.3368  1.3244
  678MOL0     C91424   8.244   2.896   7.024  0.3057 -0.4249  0.0590
  678MOL0     C91425   8.374   2.860   7.064  0.4747 -0.2406  0.4331
  678MOL0     O91426   8.428   2.769   6.975  0.9316  0.9616  0.3006
  678MOL0     C91427   8.555   2.723   6.970 -0.0548 -0.2220  0.8283
  678MOL0     C91428   8.663   2.779   7.037 -0.6933  0.4671 -0.0486
  678MOL0     C91429   8.796   2.742   7.011  0.0385 -0.3324 -0.5968
  678MOL0     C91430   8.822   2.645   6.916 -0.2380  0.1244  0.4624
  678MOL0     O91431   8.946   2.588   6.892 -0.1904  0.7825  0.0335
  678MOL0     C91432   9.061   2.672   6.909  0.7222 -0.3215  0.3174
  678MOL0     C91433   9.182   2.611   6.840 -0.6721 -0.7835 -0.9619
  678MOL0     C91434   9.197   2.470   6.890 -0.3728  0.1744  0.4529
  678MOL0     C91435   9.194   2.372   6.778 -0.1514  0.5267  0.6055
  678MOL0     C91436   9.139   2.234   6.826 -0.7253 -0.1385 -0.5598
  678MOL0     C91437   8.984   2.215   6.857 -0.3938  0.2702  0.1004
  678MOL0     C91438   8.892   2.246   6.736 -0.3808 -0.7191  0.0572
  678MOL0     C91439   8.763   2.163   6.727  0.9185 -0.7491 -2.0250
  678MOL0    Cl91440   8.645   2.220   6.846  0.1328 -0.4743  0.1632
  678MOL0     C91441   8.710   2.583   6.846 -1.0304  0.0668  0.9424
  678MOL0     C91442   8.581   2.630   6.869 -0.1087  0.2840 -0.9916
  678MOL0     O91443   8.428   2.890   7.165  0.5588 -0.3225  0.2548
  678MOL0     C91444   8.157   2.796   6.984  0.9648  0.9039  0.2219
  678MOL0     C91445   8.026   2.827   6.966  0.1453 -0.9049  0.0860
  678MOL0     N91446   7.370   3.159   6.719 -0.7305  0.4214  0.0157
  678MOL0     N91447   7.263   3.091   6.718  0.7756 -0.2854 -0.2451
  678MOL0     C91448   6.067   3.617   6.617 -0.4303 -0.0713  0.9748
  678MOL0     C91449   5.952   3.682   6.576  0.7649  0.0089 -1.1542
  678MOL0     C91450   5.489   3.720   6.546  0.7129 -0.1254  0.4160
  678MOL0     C91451   5.375   3.728   6.629 -0.3164 -0.3698  0.9858
  678MOL0     C91452   5.241   3.742   6.574 -0.2554 -0.2989 -0.7924
  678MOL0     C91453   5.231   3.746   6.437  0.7726 -0.2546 -1.0959
  678MOL0     O91454   5.110   3.748   6.377 -0.8530 -0.0544 -0.2122
  678MOL0     C91455   4.994   3.713   6.452 -0.4079 -0.7259 -1.1616
  678MOL0     C91456   4.887   3.662   6.357 -0.0420 -0.1516 -0.2533
  678MOL0     C91457   4.908   3.510   6.326  0.3247  1.1278 -0.0136
  678MOL0     C91458   4.811   3.446   6.219 -0.6667 -0.2950  0.1530
  678MOL0     C91459   4.672   3.468   6.238  0.3430  0.0323  0.6664
  678MOL0     C91460   4.554   3.475   6.262  0.0090  0.2048  0.0979
  678MOL0     C91461   5.340   3.753   6.359 -0.5551  0.6595 -0.1174
  678MOL0     C91462   5.468   3.732   6.409  0.3657 -0.3658  0.2643
  678MOL0     H91463   5.758   3.419   6.520  1.5660 -1.4710 -1.5182
  678MOL0     H91464   5.977   3.292   6.578 -4.5707 -0.6309  1.4511
  678MOL0     H91465   6.112   3.272   6.800 -2.8297 -0.0920 -1.2929
  678MOL0     H91466   6.157   3.213   6.649  0.1959  1.3067 -0.8383
  678MOL0     H91467   6.351   3.284   6.877 -0.3672  1.8629 -0.5319
  678MOL0     H91468   6.316   3.123   6.798  1.5466  0.4924 -4.0368
  678MOL0     H91469   6.412   3.231   6.589  0.9368  1.0544 -0.6899
  678MOL0     H91470   6.488   3.343   6.700 -0.7723  0.6004  0.2557
  678MOL0     H91471   6.554   3.145   6.836 -1.9266 -2.2691  0.4981
  678MOL0     H91472   6.552   3.053   6.687 -0.8936 -0.5314  1.4739
  678MOL0     H91473   6.713   3.203   6.578  1.6961 -2.7614 -0.2501
  678MOL0     H91474   6.714   3.308   6.728  1.0973 -0.2372  0.8813
  678MOL0     H91475   6.784   3.092   6.851 -0.8439  2.0899  0.5298
  678MOL0     H91476   6.809   3.017   6.696 -3.4109  0.7583 -1.2709
  678MOL0     H91477   6.990   3.184   6.644 -2.0747 -5.2519 -1.5959
  678MOL0     H91478   6.955   3.276   6.792  1.4660 -1.4610  3.0390
  678MOL0     H91479   7.033   2.990   6.808  0.0629  0.0649  1.0580
  678MOL0     H91480   7.014   3.120   6.937  2.5070  2.1766  0.3203
  678MOL0     H91481   7.221   3.316   6.965 -0.4756 -0.0026  0.0571
  678MOL0     H91482   7.489   3.433   6.794  1.3053  0.1325 -2.2743
  678MOL0     H91483   7.508   3.363   6.955  1.7232 -1.2199 -0.5791
  678MOL0     H91484   7.714   3.353   6.800  1.0495 -0.4923 -1.5379
  678MOL0     H91485   7.630   3.263   6.674 -0.3660  0.3646 -0.0174
  678MOL0     H91486   7.627   3.057   6.783 -0.1885  0.0615  1.4738
  678MOL0     H91487   7.614   3.118   6.940 -2.2843 -1.4398 -1.0009
  678MOL0     H91488   7.851   3.200   6.936  0.2320 -0.8127  1.5467
  678MOL0     H91489   7.871   3.162   6.768  2.4644  0.2032  2.3112
  678MOL0     H91490   8.060   3.166   6.960  0.9743 -0.6400  0.0282
  678MOL0     H91491   8.293   3.214   6.961 -0.9628 -0.9843  0.0962
  678MOL0     H91492   8.289   3.166   7.146  3.4740  1.3665  1.8815
  678MOL0     H91493   8.408   3.112   7.024 -0.8463  2.0168 -3.0827
  678MOL0     H91494   8.654   2.859   7.109 -0.6384 -0.5246  1.0927
  678MOL0     H91495   8.872   2.785   7.075  1.0675  0.0432 -2.0134
  678MOL0     H91496   9.041   2.774   6.873 -0.9900 -1.0064 -0.7840
  678MOL0     H91497   9.080   2.683   7.016 -1.6174  0.6518  0.6834
  678MOL0     H91498   9.166   2.608   6.732 -1.7178 -0.6396 -0.8260
  678MOL0     H91499   9.271   2.672   6.854 -0.2847 -1.6023  0.3160
  678MOL0     H91500   9.125   2.441   6.967  0.4294 -1.3053  0.6820
  678MOL0     H91501   9.288   2.463   6.950  0.9018 -4.2742 -1.5797
  678MOL0     H91502   9.142   2.400   6.686  3.5051 -2.4730 -2.7456
  678MOL0     H91503   9.300   2.366   6.753 -0.6805 -0.5455 -1.7038
  678MOL0     H91504   9.202   2.205   6.910 -1.4251  0.5709  0.2286
  678MOL0     H91505   9.154   2.162   6.745 -0.1295 -3.7998  2.5283
  678MOL0     H91506   8.973   2.109   6.883  2.4927 -0.5914 -1.7192
  678MOL0     H91507   8.953   2.269   6.947 -0.1002  0.3400  0.1620
  678MOL0     H91508   8.945   2.213   6.646 -1.1957  1.8092 -1.4309
  678MOL0     H91509   8.866   2.352   6.726 -1.8906 -0.9805  0.8043
  678MOL0     H91510   8.776   2.059   6.759 -1.2183 -1.1730 -2.4008
  678MOL0     H91511   8.722   2.179   6.627  0.7248 -0.2454 -1.8651
  678MOL0     H91512   8.734   2.514   6.766 -0.6931  1.3898 -0.1454
  678MOL0     H91513   8.501   2.591   6.807 -2.5613  0.6063  1.7648
  678MOL0     H91514   8.183   2.691   6.970 -2.2885  0.1533 -1.0704
  678MOL0     H91515   7.959   2.744   6.948  0.9287 -1.7690  1.0154
  678MOL0     H91516   6.159   3.671   6.636  0.2060 -0.5404 -0.6749
  678MOL0     H91517   5.952   3.790   6.582  0.0346  0.0333 -1.4899
  678MOL0     H91518   5.384   3.737   6.737  1.4008  3.2153  0.7118
  678MOL0     H91519   5.154   3.753   6.638  1.8006 -2.8830  2.7633
  678MOL0     H91520   5.007   3.628   6.520 -4.8475 -0.6150  0.1554
  678MOL0     H91521   4.960   3.797   6.512  0.2034 -2.4896  1.8560
  678MOL0     H91522   4.884   3.715   6.261  0.2816  0.2888 -0.0266
  678MOL0     H91523   4.792   3.675   6.409 -0.5237  0.9919 -1.3353
  678MOL0     H91524   4.902   3.457   6.422  0.7101 -0.8355 -1.0187
  678MOL0     H91525   5.011   3.486   6.297  0.1168 -2.2324  1.5653
  678MOL0     H91526   4.837   3.341   6.206 -4.2151 -1.1296 -1.4615
  678MOL0     H91527   4.833   3.489   6.121 -1.0803  1.9405  0.9758
  678MOL0     H91528   4.452   3.460   6.292 -0.1911 -1.5398 -1.2762
  678MOL0     H91529   5.310   3.766   6.255  0.7573 -1.7610 -0.8632
  678MOL0     H91530   5.551   3.736   6.338  0.7548  1.7786  0.7787
  679MOL0     O91531   0.395   4.759   2.670 -0.1073  0.0042 -0.3509
  679MOL0     C91532   0.387   4.661   2.745  0.6716 -1.2947  0.1333
  679MOL0     O91533   0.357   4.667   2.873  0.9435 -0.5030  0.5945
  679MOL0     C91534   0.322   4.794   2.914 -0.0323  1.2682  0.5061
  679MOL0     C91535   0.192   4.858   2.922 -0.2930  0.5998 -0.6585
  679MOL0     C91536   0.168   4.978   2.981  0.3262  0.8884  0.0883
  679MOL0     C91537   0.278   5.043   3.051 -0.2057 -0.6796 -0.0247
  679MOL0     O91538   0.260   5.174   3.106 -0.0803  0.2722  0.0039
  679MOL0     C91539   0.136   5.234   3.080 -0.3407  0.6252 -0.4156
  679MOL0     C91540   0.151   5.379   3.114 -0.3771 -0.7577  0.2811
  679MOL0     C91541   0.023   5.444   3.176  0.9757 -0.4079 -0.6888
  679MOL0     C91542   0.021   5.590   3.193 -0.4525 -0.4748  0.1212
  679MOL0     C91543  -0.120   5.655   3.171  0.3514 -0.6280  0.3698
  679MOL0     C91544  -0.163   5.670   3.028 -0.8863  1.0285 -0.3963
  679MOL0     C91545  -0.301   5.728   3.012  0.6090 -0.2790 -0.0945
  679MOL0     C91546  -0.326   5.734   2.862 -0.3068 -0.4613 -0.1188
  679MOL0     N91547  -0.327   5.607   2.798  0.5149 -0.4580 -0.2995
  679MOL0     C91548  -0.389   5.486   2.849 -0.0820 -1.0132  1.5999
  679MOL0     C91549  -0.332   5.400   2.768 -0.1071  1.2518  0.3836
  679MOL0     C91550  -0.343   5.248   2.776  0.8295  0.2991  0.8227
  679MOL0     C91551  -0.220   5.169   2.852 -0.0360 -0.1200  0.2681
  679MOL0     C91552  -0.229   5.011   2.871  0.7579 -1.3176  0.3217
  679MOL0     C91553  -0.368   4.955   2.917  0.0021  0.3027  0.1713
  679MOL0     O91554  -0.444   4.902   2.809  0.1350 -0.2268 -0.3365
  679MOL0     C91555  -0.538   4.813   2.848 -1.1485  0.1298 -0.3556
  679MOL0     C91556  -0.542   4.694   2.784 -1.4522 -0.1653  0.4873
  679MOL0     C91557  -0.607   4.581   2.833 -0.4144  1.1657 -0.0416
  679MOL0     C91558  -0.581   4.451   2.761  0.9109  0.5589  0.2873
  679MOL0     C91559  -0.694   4.598   2.946  0.5111 -0.3979 -0.3718
  679MOL0     C91560  -0.776   4.493   3.010 -0.9495  0.8110  0.8358
  679MOL0     O91561  -0.856   4.535   3.108  0.0215  0.7168 -0.1893
  679MOL0     C91562  -0.926   4.435   3.168 -0.1182  0.1720 -0.2087
  679MOL0     C91563  -0.895   4.374   3.291 -0.4065  0.8467 -0.2758
  679MOL0     C91564  -0.986   4.289   3.358 -0.1247  1.1863  0.0037
  679MOL0     C91565  -1.108   4.250   3.296  0.2369 -0.1748  0.6908
  679MOL0     O91566  -1.175   4.147   3.352 -0.5327 -0.3859 -0.3334
  679MOL0     C91567  -1.247   4.050   3.270  0.0766 -0.5294 -0.8808
  679MOL0     C91568  -1.396   4.090   3.257 -0.5376 -0.3264 -0.5394
  679MOL0     C91569  -1.491   3.986   3.204  0.7873  1.1996  1.1167
  679MOL0     C91570  -1.639   4.032   3.214  0.3823 -0.2596  0.0380
  679MOL0     C91571  -1.728   3.922   3.158 -0.2061  0.4658  0.8518
  679MOL0     C91572  -1.870   3.936   3.198 -0.0383 -0.4035 -0.5807
  679MOL0     C91573  -1.939   3.828   3.131 -0.2926  1.1650  0.2531
  679MOL0     C91574  -2.087   3.840   3.149  0.2574 -0.7731  0.0334
  679MOL0    Cl91575  -2.153   3.969   3.042 -0.3646 -0.3779 -0.2983
  679MOL0     C91576  -1.131   4.299   3.167  1.0929  0.3856 -0.2861
  679MOL0     C91577  -1.043   4.388   3.109 -0.2870  0.0157  0.5334
  679MOL0     O91578  -0.791   4.389   2.951 -0.8817  0.7544 -0.3458
  679MOL0     C91579  -0.698   4.717   3.008 -0.0528 -0.7983 -0.1250
  679MOL0     C91580  -0.621   4.823   2.959 -1.1008 -0.2945 -0.5809
  679MOL0     N91581  -0.270   5.461   2.664 -0.0032  0.9925  0.2518
  679MOL0     N91582  -0.260   5.584   2.686 -0.3274  0.5620  0.2834
  679MOL0     C91583   0.406   4.981   3.050  0.1428 -0.1675 -0.3276
  679MOL0     C91584   0.431   4.863   2.978 -0.3421 -0.3452  0.2697
  679MOL0     C91585   0.395   4.534   2.679  0.7804  0.4981 -0.2706
  679MOL0     C91586   0.420   4.527   2.541 -0.6027  0.7235  0.4538
  679MOL0     C91587   0.458   4.406   2.479 -0.2370 -0.1397 -0.3553
  679MOL0     C91588   0.481   4.286   2.549 -0.1629  0.3610 -0.0744
  679MOL0     O91589   0.498   4.175   2.478 -0.4298  0.2779  0.4748
  679MOL0     C91590   0.426   4.056   2.524 -0.2752  0.1841 -0.3045
  679MOL0     C91591   0.270   4.074   2.519  0.6208 -0.3182 -0.0086
  679MOL0     C91592   0.204   3.943   2.566  0.4066 -0.7396  0.1883
  679MOL0     C91593   0.049   3.967   2.601 -0.5247  0.0681  0.6623
  679MOL0     C91594   0.024   4.027   2.736  0.6091  0.2139  0.5971
  679MOL0     C91595  -0.004   4.069   2.845 -0.3524 -0.6511 -0.4986
  679MOL0     C91596   0.441   4.283   2.678 -0.1377 -0.4437 -1.0055
  679MOL0     C91597   0.408   4.406   2.750  0.3371 -0.5559 -0.5805
  679MOL0     H91598   0.103   4.806   2.890 -1.0008  0.6926  1.0542
  679MOL0     H91599   0.064   5.009   2.978 -0.1076 -0.5086  0.1136
  679MOL0     H91600   0.108   5.218   2.976 -1.1771 -2.8763  0.2077
  679MOL0     H91601   0.066   5.190   3.152  1.0254 -2.4084 -0.7794
  679MOL0     H91602   0.234   5.392   3.185 -0.7519 -0.2438  0.6330
  679MOL0     H91603   0.174   5.435   3.023 -0.5615  0.7374  1.1326
  679MOL0     H91604  -0.064   5.415   3.118 -0.7727  0.2748  1.4719
  679MOL0     H91605   0.014   5.403   3.277  3.0550 -1.6912 -0.9556
  679MOL0     H91606   0.056   5.620   3.292 -0.1286 -3.1754  0.8968
  679MOL0     H91607   0.090   5.634   3.119  1.7764  0.5501  2.6477
  679MOL0     H91608  -0.203   5.606   3.223 -0.8318  1.3289  0.4364
  679MOL0     H91609  -0.114   5.755   3.215 -1.1634 -1.0528  1.6310
  679MOL0     H91610  -0.089   5.732   2.978  0.4094 -2.8409 -3.7700
  679MOL0     H91611  -0.155   5.567   2.993  2.8950  1.2530 -0.5891
  679MOL0     H91612  -0.382   5.674   3.062 -0.7034 -0.0359 -1.8649
  679MOL0     H91613  -0.296   5.828   3.056  1.2075 -0.5261  0.4242
  679MOL0     H91614  -0.242   5.791   2.820  0.2344 -0.4914  0.8699
  679MOL0     H91615  -0.425   5.777   2.850 -0.3013  0.3863  2.2824
  679MOL0     H91616  -0.459   5.480   2.932 -0.8858  0.4008  1.0488
  679MOL0     H91617  -0.440   5.206   2.805  1.4849 -1.5326  0.5009
  679MOL0     H91618  -0.337   5.205   2.676 -1.1373 -2.6323  1.8307
  679MOL0     H91619  -0.211   5.211   2.953  1.0019  4.1160 -1.3386
  679MOL0     H91620  -0.123   5.185   2.805  0.6977 -5.5543 -0.7108
  679MOL0     H91621  -0.152   4.971   2.937  1.0903  2.4759  2.5243
  679MOL0     H91622  -0.203   4.970   2.773  2.8831  2.2071 -0.7410
  679MOL0     H91623  -0.425   5.034   2.966  0.4315 -0.0120  1.2282
  679MOL0     H91624  -0.347   4.885   2.999 -1.4266 -0.8808 -0.4317
  679MOL0     H91625  -0.476   4.680   2.698 -0.5767 -2.2854  1.4404
  679MOL0     H91626  -0.677   4.417   2.721  1.0186 -1.7416  1.7921
  679MOL0     H91627  -0.519   4.451   2.671 -0.0774 -0.1306 -0.4119
  679MOL0     H91628  -0.542   4.374   2.829 -1.1137 -0.2781  0.5723
  679MOL0     H91629  -0.800   4.407   3.332  0.1398 -0.2712 -0.5998
  679MOL0     H91630  -0.966   4.238   3.452 -4.3520 -0.8314  0.0263
  679MOL0     H91631  -1.188   4.015   3.185  1.3274 -0.3877 -0.0943
  679MOL0     H91632  -1.240   3.964   3.338  0.8620  1.8399  2.2692
  679MOL0     H91633  -1.420   4.133   3.355  2.4797 -0.2027  0.2374
  679MOL0     H91634  -1.401   4.167   3.180 -1.3659 -2.0767 -2.3313
  679MOL0     H91635  -1.493   3.885   3.245 -2.4149 -0.4771 -2.5553
  679MOL0     H91636  -1.467   3.985   3.097  0.0523  0.5970  0.9544
  679MOL0     H91637  -1.670   4.064   3.314 -1.5496  0.6762 -0.8047
  679MOL0     H91638  -1.663   4.113   3.145 -0.7309  0.0391  0.7519
  679MOL0     H91639  -1.693   3.827   3.202 -0.4982 -0.1148 -0.1301
  679MOL0     H91640  -1.718   3.915   3.049  0.0967  0.5272  0.8724
  679MOL0     H91641  -1.880   3.933   3.306  0.7527  1.7833 -0.3964
  679MOL0     H91642  -1.896   4.035   3.161  1.4230  0.9577  1.7867
  679MOL0     H91643  -1.919   3.730   3.175 -0.2781  1.2300  0.3926
  679MOL0     H91644  -1.905   3.820   3.027  1.5941  1.0479  0.8447
  679MOL0     H91645  -2.100   3.869   3.254  1.2871  0.5296 -0.1655
  679MOL0     H91646  -2.131   3.741   3.133  0.0082 -1.5238  4.2208
  679MOL0     H91647  -1.225   4.273   3.120  0.3518 -0.6523  1.6631
  679MOL0     H91648  -1.058   4.429   3.010 -1.4821 -1.9295 -0.1430
  679MOL0     H91649  -0.758   4.748   3.092 -0.1942  0.7188 -0.7481
  679MOL0     H91650  -0.612   4.909   3.024 -0.2996 -1.6578  1.1749
  679MOL0     H91651   0.489   5.028   3.101 -0.8222  0.5014  0.6711
  679MOL0     H91652   0.526   4.810   2.975 -0.9719 -1.4762 -1.3305
  679MOL0     H91653   0.431   4.611   2.474  0.0737 -0.5241 -1.0603
  679MOL0     H91654   0.471   4.412   2.371 -0.5718 -2.8115 -0.5936
  679MOL0     H91655   0.444   3.970   2.457 -1.3021  0.1556 -0.5532
  679MOL0     H91656   0.464   4.029   2.623 -0.1779 -1.9012 -0.8676
  679MOL0     H91657   0.236   4.097   2.418  1.9379  0.9094 -0.2011
  679MOL0     H91658   0.254   4.166   2.576  1.2134  0.4629 -1.0612
  679MOL0     H91659   0.246   3.905   2.660  0.8600  1.5028  0.9756
  679MOL0     H91660   0.198   3.867   2.488 -1.0660  0.6735 -1.1529
  679MOL0     H91661  -0.013   3.879   2.582 -1.3720  0.8860 -0.5186
  679MOL0     H91662   0.016   4.032   2.519  4.3092 -0.6282 -2.2463
  679MOL0     H91663  -0.014   4.109   2.944  0.9650 -1.5395  0.0261
  679MOL0     H91664   0.442   4.196   2.742 -1.3544 -1.4138 -2.2653
  679MOL0     H91665   0.372   4.409   2.852  0.2498  5.2659 -0.4641
  680MOL0     O91666   2.168   8.092   0.630 -0.1101 -0.1513  0.5287
  680MOL0     C91667   2.083   8.053   0.552 -0.2535  0.2367 -0.9930
  680MOL0     O91668   1.947   8.068   0.573  0.0084  0.8467  1.4940
  680MOL0     C91669   1.899   8.139   0.682  0.2984 -0.8651  0.0790
  680MOL0     C91670   1.841   8.075   0.789  0.0690 -0.4290 -0.4553
  680MOL0     C91671   1.775   8.159   0.883  0.4423  0.2390 -0.4306
  680MOL0     C91672   1.779   8.296   0.883  0.3559 -0.7006 -0.7847
  680MOL0     O91673   1.744   8.377   0.989  0.4910 -0.1058 -0.3778
  680MOL0     C91674   1.814   8.360   1.121  0.2052  0.2554 -0.1674
  680MOL0     C91675   1.713   8.318   1.233  0.1034 -0.6164  0.0500
  680MOL0     C91676   1.774   8.322   1.374 -0.8270 -0.3658 -0.5286
  680MOL0     C91677   1.660   8.332   1.482  0.2242 -0.0390  0.1576
  680MOL0     C91678   1.716   8.344   1.626 -1.1525  0.1470 -1.0880
  680MOL0     C91679   1.813   8.227   1.649  0.1358 -0.6717 -0.4056
  680MOL0     C91680   1.829   8.177   1.793 -0.5088 -0.4793 -0.2437
  680MOL0     C91681   1.925   8.058   1.796  0.1754  0.1915 -0.7298
  680MOL0     N91682   1.912   7.998   1.930  0.3973 -0.0901  0.7143
  680MOL0     C91683   1.814   7.909   1.971 -0.8771 -0.2270  0.7838
  680MOL0     C91684   1.856   7.861   2.092 -0.8799  0.0545 -0.3327
  680MOL0     C91685   1.781   7.784   2.203 -0.6638 -0.1049 -0.7252
  680MOL0     C91686   1.661   7.703   2.147  0.1502 -0.2838  0.5608
  680MOL0     C91687   1.593   7.608   2.253 -0.3786 -0.2772 -0.4491
  680MOL0     C91688   1.462   7.552   2.189  0.0039  0.5185 -0.1918
  680MOL0     O91689   1.390   7.481   2.286  0.1463 -0.1389 -0.4483
  680MOL0     C91690   1.264   7.437   2.255 -0.2143 -0.6260 -0.1583
  680MOL0     C91691   1.210   7.350   2.350 -0.2448  0.2946 -0.1731
  680MOL0     C91692   1.072   7.302   2.334 -1.5006  1.2822  0.0772
  680MOL0     C91693   1.014   7.231   2.456  0.5391  0.1725 -0.1983
  680MOL0     C91694   1.004   7.331   2.216 -1.2695  0.7396 -0.2019
  680MOL0     C91695   0.872   7.274   2.186  0.2970  0.0091 -0.7833
  680MOL0     O91696   0.836   7.295   2.056 -0.5897  0.2444 -0.1442
  680MOL0     C91697   0.704   7.306   2.030  0.4108  0.5550  0.4506
  680MOL0     C91698   0.654   7.437   2.006 -0.3911  0.4848  0.3974
  680MOL0     C91699   0.530   7.463   1.958 -0.0440  0.3525 -0.3330
  680MOL0     C91700   0.441   7.357   1.942  0.6723 -0.2305  0.2403
  680MOL0     O91701   0.308   7.382   1.902  0.0303  0.6176  0.3770
  680MOL0     C91702   0.238   7.494   1.947 -0.4260 -0.1087 -0.6271
  680MOL0     C91703   0.094   7.496   1.918 -0.2800 -0.4003  0.3691
  680MOL0     C91704   0.027   7.395   2.006  0.2319  0.0891 -0.1250
  680MOL0     C91705  -0.116   7.352   1.952  0.5283 -0.9729  0.2862
  680MOL0     C91706  -0.199   7.293   2.060  0.7346  0.6587 -0.0989
  680MOL0     C91707  -0.338   7.256   2.024 -0.4267  0.4268 -0.0472
  680MOL0     C91708  -0.408   7.174   2.130  0.1824 -0.3703  0.3132
  680MOL0     C91709  -0.554   7.151   2.080 -0.9513 -0.6059  0.3536
  680MOL0    Cl91710  -0.644   7.058   2.216 -0.1187  0.3823 -0.1199
  680MOL0     C91711   0.491   7.225   1.961  0.4572 -0.6156 -1.0569
  680MOL0     C91712   0.611   7.205   2.025 -0.2060  0.2434 -0.2307
  680MOL0     O91713   0.794   7.243   2.277  0.4319  0.8452  0.4638
  680MOL0     C91714   1.055   7.428   2.137 -0.4635 -1.0231 -0.2419
  680MOL0     C91715   1.190   7.476   2.154 -0.3609  0.0595  0.2640
  680MOL0     N91716   1.979   7.915   2.120  0.0065  0.0238 -0.2624
  680MOL0     N91717   2.010   7.993   2.024 -0.6893  0.3901  0.3459
  680MOL0     C91718   1.850   8.355   0.780 -0.5249 -0.7548  0.4000
  680MOL0     C91719   1.899   8.282   0.671  0.5382 -0.8443 -0.5342
  680MOL0     C91720   2.130   7.988   0.426 -0.4311  0.4198 -0.8194
  680MOL0     C91721   2.037   7.919   0.345 -0.8060 -0.4290 -1.2648
  680MOL0     C91722   2.081   7.847   0.234 -0.2482 -0.1721  0.1477
  680MOL0     C91723   2.222   7.825   0.198 -0.2918  0.3967 -0.8801
  680MOL0     O91724   2.262   7.723   0.112 -0.3730 -0.6452 -0.7816
  680MOL0     C91725   2.369   7.778   0.022 -0.0493 -0.1282  0.2898
  680MOL0     C91726   2.314   7.800  -0.113 -0.0625 -0.8566 -0.3983
  680MOL0     C91727   2.260   7.676  -0.176  1.8029 -0.1673 -1.1022
  680MOL0     C91728   2.224   7.691  -0.326  0.6337  0.6554 -0.6874
  680MOL0     C91729   2.146   7.812  -0.377 -0.3963  0.4212  0.1136
  680MOL0     C91730   2.090   7.913  -0.422  0.0143 -0.0153 -0.2507
  680MOL0     C91731   2.312   7.896   0.279  0.3967  0.1196  0.4738
  680MOL0     C91732   2.266   7.979   0.391  0.4894  0.2428  0.7536
  680MOL0     H91733   1.837   7.966   0.796 -0.8090 -0.5401 -2.1079
  680MOL0     H91734   1.732   8.118   0.974  0.6937  1.2593  0.1663
  680MOL0     H91735   1.902   8.296   1.107  2.1074  3.0867 -2.4435
  680MOL0     H91736   1.865   8.453   1.147  2.0388  0.5032 -3.9193
  680MOL0     H91737   1.622   8.377   1.238  0.2481 -0.3802 -0.0892
  680MOL0     H91738   1.680   8.220   1.197  0.1587 -0.5859 -0.0872
  680MOL0     H91739   1.849   8.246   1.396 -1.7407 -1.1126  0.0581
  680MOL0     H91740   1.846   8.404   1.380 -1.1194 -0.0158 -1.6118
  680MOL0     H91741   1.615   8.430   1.464 -5.4711 -1.4535  3.8250
  680MOL0     H91742   1.587   8.250   1.480 -1.2955  1.0855  3.0075
  680MOL0     H91743   1.767   8.441   1.638 -0.2336 -0.4885  0.5700
  680MOL0     H91744   1.640   8.338   1.704  1.3682  1.4498  1.6587
  680MOL0     H91745   1.777   8.136   1.600  0.2397  0.0046 -1.8020
  680MOL0     H91746   1.911   8.251   1.607  0.8919 -0.6430  1.3008
  680MOL0     H91747   1.864   8.267   1.844 -2.4836 -0.8277  1.9173
  680MOL0     H91748   1.733   8.143   1.833 -0.9826  2.2671  1.2032
  680MOL0     H91749   2.029   8.087   1.777  0.6916 -2.3762 -2.1763
  680MOL0     H91750   1.906   7.991   1.713  0.1864  1.3775 -1.7245
  680MOL0     H91751   1.728   7.885   1.910 -0.6948  0.1895  0.3492
  680MOL0     H91752   1.847   7.717   2.260  1.3684  1.9603 -0.4646
  680MOL0     H91753   1.742   7.854   2.277  0.5875 -1.3410  1.2188
  680MOL0     H91754   1.694   7.641   2.063 -0.5427 -0.6399  0.5474
  680MOL0     H91755   1.587   7.770   2.103  2.7367  1.3778 -1.6110
  680MOL0     H91756   1.578   7.675   2.338  1.9993 -0.0667 -0.1322
  680MOL0     H91757   1.662   7.535   2.298 -0.4777 -0.6454 -0.8938
  680MOL0     H91758   1.489   7.495   2.100 -1.7317  0.2557 -0.5790
  680MOL0     H91759   1.404   7.640   2.161  2.8706  2.0243 -1.8837
  680MOL0     H91760   1.262   7.324   2.441 -3.3606  1.4474  2.1064
  680MOL0     H91761   0.980   7.130   2.432 -2.5513  1.0721 -0.0028
  680MOL0     H91762   1.088   7.229   2.538  3.9436 -3.7266 -2.9156
  680MOL0     H91763   0.924   7.283   2.491 -0.4563 -1.9536  0.5987
  680MOL0     H91764   0.728   7.515   2.018  0.2446 -0.2492  1.3983
  680MOL0     H91765   0.492   7.560   1.928 -0.5714  0.2314 -0.0640
  680MOL0     H91766   0.245   7.511   2.055 -0.9011  0.2852 -0.6570
  680MOL0     H91767   0.293   7.573   1.894  1.1845 -0.6336  0.1850
  680MOL0     H91768   0.051   7.593   1.942  0.4911  0.4840 -1.6403
  680MOL0     H91769   0.077   7.469   1.813 -0.0463 -4.3267  1.1653
  680MOL0     H91770   0.019   7.448   2.101 -2.1304 -1.3171  0.5337
  680MOL0     H91771   0.085   7.309   2.041  1.8882  1.2813  0.1526
  680MOL0     H91772  -0.164   7.443   1.915  0.9774 -0.1722  1.6164
  680MOL0     H91773  -0.111   7.289   1.863 -1.4595  1.0631 -1.3915
  680MOL0     H91774  -0.198   7.360   2.147 -0.0468  3.0721 -1.8283
  680MOL0     H91775  -0.150   7.200   2.090  0.1459  1.0479  2.3004
  680MOL0     H91776  -0.396   7.346   1.999  1.1564  1.5367  0.1688
  680MOL0     H91777  -0.336   7.189   1.937  2.5605 -0.2338  0.4516
  680MOL0     H91778  -0.415   7.221   2.228 -0.7440 -2.3031  1.2209
  680MOL0     H91779  -0.339   7.090   2.145  0.8045  0.1215  0.2546
  680MOL0     H91780  -0.552   7.106   1.980 -0.6045 -2.5243  1.1709
  680MOL0     H91781  -0.612   7.242   2.065 -1.7681 -1.0172  0.9575
  680MOL0     H91782   0.433   7.137   1.934  1.7693 -1.1042 -2.4650
  680MOL0     H91783   0.636   7.103   2.054  0.8364  0.3619 -0.6832
  680MOL0     H91784   1.010   7.454   2.042  0.1674 -1.9881 -0.8231
  680MOL0     H91785   1.229   7.544   2.078  1.1182  0.5049  1.3803
  680MOL0     H91786   1.860   8.463   0.775 -0.6875 -0.7955 -1.5316
  680MOL0     H91787   1.942   8.329   0.583 -0.1093 -0.1102 -0.4681
  680MOL0     H91788   1.930   7.916   0.365 -0.6567 -1.9898 -0.4901
  680MOL0     H91789   2.019   7.781   0.174  1.1166 -0.3245 -1.1369
  680MOL0     H91790   2.412   7.873   0.056  1.5468 -1.0542  0.9839
  680MOL0     H91791   2.450   7.705   0.017 -0.8431 -1.0669  0.6192
  680MOL0     H91792   2.396   7.840  -0.174 -0.1381  1.9229  1.1984
  680MOL0     H91793   2.234   7.873  -0.104  1.0128  0.5409 -1.5312
  680MOL0     H91794   2.164   7.670  -0.125  0.8618  0.2746 -2.7565
  680MOL0     H91795   2.327   7.597  -0.141  0.7234 -0.1674  1.1356
  680MOL0     H91796   2.166   7.604  -0.358 -1.8527  1.0548  2.3590
  680MOL0     H91797   2.314   7.692  -0.390  1.4229  4.2656  0.2231
  680MOL0     H91798   2.033   7.989  -0.472 -2.8627 -2.9671 -1.9021
  680MOL0     H91799   2.419   7.879   0.276  0.2935 -1.0048  1.9103
  680MOL0     H91800   2.333   8.031   0.459 -0.3208 -2.1097  3.5367
  681MOL0     O91801   6.888   5.361   5.596 -0.2742 -0.3049  0.4743
  681MOL0     C91802   6.940   5.448   5.669  0.5093 -0.1721 -0.9186
  681MOL0     O91803   6.872   5.559   5.724 -0.0178  0.2481  0.8257
  681MOL0     C91804   6.747   5.586   5.685  0.4883 -0.0707 -0.3884
  681MOL0     C91805   6.716   5.724   5.669 -0.4263 -0.1635  0.0919
  681MOL0     C91806   6.591   5.778   5.640 -0.7366 -0.5772  0.4180
  681MOL0     C91807   6.492   5.693   5.622  0.4199  0.3811  0.4339
  681MOL0     O91808   6.369   5.753   5.589  0.7029  0.2680 -0.1286
  681MOL0     C91809   6.237   5.683   5.581 -1.2689  0.2697 -0.3427
  681MOL0     C91810   6.154   5.779   5.493  1.0036 -0.3058 -0.2606
  681MOL0     C91811   6.016   5.719   5.470  0.1356  0.0543 -0.2424
  681MOL0     C91812   5.908   5.831   5.484  0.3365 -1.1505  0.1572
  681MOL0     C91813   5.765   5.760   5.492 -0.2011  0.2563 -0.1662
  681MOL0     C91814   5.719   5.721   5.345 -0.0105  0.7346  0.1834
  681MOL0     C91815   5.578   5.669   5.336  0.3403  0.1185 -0.3802
  681MOL0     C91816   5.555   5.546   5.414 -0.0137 -0.2403  0.9095
  681MOL0     N91817   5.412   5.514   5.431 -0.3665 -0.1632 -0.8899
  681MOL0     C91818   5.363   5.385   5.405 -0.2414  0.5129 -0.1942
  681MOL0     C91819   5.241   5.387   5.444 -0.2713 -0.6619  0.3368
  681MOL0     C91820   5.144   5.268   5.432  0.1778 -0.3943 -0.3671
  681MOL0     C91821   5.163   5.146   5.336  0.3221 -0.2487 -1.3773
  681MOL0     C91822   5.038   5.057   5.335 -0.1982  0.4526  0.8666
  681MOL0     C91823   4.954   5.063   5.210  0.4672 -0.2488 -0.0143
  681MOL0     O91824   4.838   4.972   5.223  0.5310 -0.7781 -0.5765
  681MOL0     C91825   4.748   4.995   5.123 -0.2708  1.0304 -0.7513
  681MOL0     C91826   4.764   4.977   4.990  0.3611  0.7836 -0.3534
  681MOL0     C91827   4.675   5.012   4.890  0.4267 -0.7330 -0.8619
  681MOL0     C91828   4.719   5.015   4.744  0.3640 -0.0925 -0.0855
  681MOL0     C91829   4.542   5.042   4.938  0.4211 -0.6613 -0.6780
  681MOL0     C91830   4.421   5.066   4.851  0.1554  0.5672 -0.1006
  681MOL0     O91831   4.423   5.027   4.716 -0.3685  0.2162 -0.2349
  681MOL0     C91832   4.304   5.052   4.659 -0.6435  0.3521  0.1260
  681MOL0     C91833   4.206   4.958   4.650 -0.3146 -0.8695 -0.1651
  681MOL0     C91834   4.097   4.979   4.576 -0.3099  0.9611  0.5710
  681MOL0     C91835   4.061   5.106   4.522  0.2548  0.4082  0.8215
  681MOL0     O91836   3.945   5.125   4.451 -0.3116  0.1400  0.1307
  681MOL0     C91837   3.914   5.255   4.433  0.1199  0.3484  0.4984
  681MOL0     C91838   3.764   5.265   4.391 -0.2504  0.4936 -1.1926
  681MOL0     C91839   3.744   5.225   4.251  0.1005 -0.4679 -0.4265
  681MOL0     C91840   3.593   5.237   4.200 -0.6554 -0.4286 -0.3224
  681MOL0     C91841   3.589   5.149   4.074  0.5861  0.2489  0.3847
  681MOL0     C91842   3.471   5.182   3.979  0.0607 -0.5689  1.1778
  681MOL0     C91843   3.341   5.149   4.045  0.4573 -0.1526 -0.6956
  681MOL0     C91844   3.211   5.169   3.951  0.4664 -0.2545  0.1624
  681MOL0    Cl91845   3.166   5.340   3.941  0.0747  0.6330 -0.5074
  681MOL0     C91846   4.163   5.197   4.525 -0.9113 -0.3985  0.5588
  681MOL0     C91847   4.280   5.176   4.598  1.0036  0.7416  0.0684
  681MOL0     O91848   4.330   5.130   4.905 -0.5360 -0.5738  0.0491
  681MOL0     C91849   4.515   5.059   5.077  0.9631  0.5061 -0.7932
  681MOL0     C91850   4.629   5.044   5.161  1.0665  0.0651  0.1696
  681MOL0     N91851   5.213   5.510   5.499  0.5542  0.0400  0.3560
  681MOL0     N91852   5.319   5.591   5.500 -0.3159  0.5330 -0.6810
  681MOL0     C91853   6.513   5.551   5.627 -0.0985  0.9873 -0.6342
  681MOL0     C91854   6.635   5.499   5.673 -0.6027  0.6421  0.2817
  681MOL0     C91855   7.080   5.426   5.715 -0.4808  0.1825 -0.1757
  681MOL0     C91856   7.147   5.301   5.685  0.5968  0.8591  0.4209
  681MOL0     C91857   7.278   5.279   5.724 -0.2222  0.0410  0.1843
  681MOL0     C91858   7.353   5.380   5.797 -0.3879  0.3513 -0.1272
  681MOL0     O91859   7.485   5.358   5.805 -0.1098  0.1270  0.4418
  681MOL0     C91860   7.551   5.395   5.931 -0.0942  0.4458  0.1916
  681MOL0     C91861   7.655   5.284   5.957  0.0683 -0.5840 -0.1046
  681MOL0     C91862   7.722   5.305   6.094 -0.6527 -0.1741 -0.3096
  681MOL0     C91863   7.876   5.296   6.083 -0.4716 -0.3760  0.5271
  681MOL0     C91864   7.917   5.159   6.069 -0.2902 -0.2398  0.3946
  681MOL0     C91865   7.943   5.038   6.056  0.4894 -0.8681 -0.4536
  681MOL0     C91866   7.289   5.500   5.829 -0.1957  0.0161 -0.3601
  681MOL0     C91867   7.157   5.527   5.788  0.4954 -0.1343 -0.1850
  681MOL0     H91868   6.795   5.796   5.684 -1.1671  0.6675  0.1223
  681MOL0     H91869   6.589   5.886   5.630  0.9774 -0.5355  0.2217
  681MOL0     H91870   6.248   5.589   5.526 -0.4380 -1.3270  2.3862
  681MOL0     H91871   6.201   5.660   5.681 -1.7361  1.2395 -0.2716
  681MOL0     H91872   6.143   5.873   5.548 -0.5741 -0.2235 -0.6561
  681MOL0     H91873   6.208   5.811   5.403 -0.0715 -1.4177 -1.3441
  681MOL0     H91874   5.999   5.669   5.374 -3.2788  1.6373 -0.5935
  681MOL0     H91875   5.999   5.644   5.548  1.2844 -0.2171 -0.2403
  681MOL0     H91876   5.922   5.889   5.576  2.1126  0.0581 -0.8111
  681MOL0     H91877   5.911   5.893   5.394  0.8886 -2.6366 -0.8906
  681MOL0     H91878   5.768   5.675   5.561  0.4420 -0.2781 -0.8399
  681MOL0     H91879   5.689   5.827   5.532 -0.6931  1.1418 -2.4174
  681MOL0     H91880   5.720   5.794   5.264 -1.6372 -3.1394 -3.7848
  681MOL0     H91881   5.789   5.643   5.314 -0.1760  0.9411 -0.7492
  681MOL0     H91882   5.521   5.756   5.372  1.9120  0.3606  1.7319
  681MOL0     H91883   5.540   5.641   5.237 -0.2320 -1.2248  0.1884
  681MOL0     H91884   5.598   5.553   5.514  0.8788  0.0382  0.5151
  681MOL0     H91885   5.596   5.460   5.360 -2.5304 -2.2063  1.9245
  681MOL0     H91886   5.412   5.300   5.357 -1.6498 -2.7524  3.5893
  681MOL0     H91887   5.140   5.228   5.534 -2.6214 -0.5203 -0.4527
  681MOL0     H91888   5.043   5.309   5.421 -0.3986 -1.8588 -0.7719
  681MOL0     H91889   5.262   5.106   5.362  0.5934  0.2815 -1.5697
  681MOL0     H91890   5.168   5.176   5.231 -1.2982 -0.0704 -1.4283
  681MOL0     H91891   4.983   5.089   5.424  1.4688  0.6721  1.8702
  681MOL0     H91892   5.067   4.951   5.339 -0.0028  0.3053 -2.1084
  681MOL0     H91893   5.017   5.033   5.125  0.7997  1.3508 -0.3578
  681MOL0     H91894   4.919   5.164   5.185 -0.5661 -0.7439 -0.6630
  681MOL0     H91895   4.847   4.915   4.958  0.3937 -0.0269  1.1811
  681MOL0     H91896   4.689   4.921   4.697  0.3428 -0.0148 -0.2271
  681MOL0     H91897   4.678   5.104   4.696 -2.5908  1.9921  5.3879
  681MOL0     H91898   4.826   5.035   4.751 -0.1485  2.8101  0.8533
  681MOL0     H91899   4.214   4.873   4.717 -0.1289 -1.3034 -0.7323
  681MOL0     H91900   4.014   4.908   4.571  0.6666 -0.2603  1.0048
  681MOL0     H91901   3.928   5.309   4.528 -1.1576 -0.7163  1.3184
  681MOL0     H91902   3.976   5.301   4.356  0.4590 -0.3375  0.3530
  681MOL0     H91903   3.702   5.204   4.457  1.2559  0.0763 -0.1130
  681MOL0     H91904   3.731   5.368   4.409  0.6823  0.3552  2.0328
  681MOL0     H91905   3.780   5.123   4.239  1.4972 -0.2879  1.7018
  681MOL0     H91906   3.809   5.298   4.201  1.0220 -0.2825  0.9708
  681MOL0     H91907   3.515   5.211   4.272  0.2290  0.7380  1.1035
  681MOL0     H91908   3.567   5.340   4.175  2.9249  0.6418 -0.2394
  681MOL0     H91909   3.601   5.041   4.087 -0.3789 -0.4337 -3.1676
  681MOL0     H91910   3.678   5.171   4.015  0.7118  0.8191  0.7806
  681MOL0     H91911   3.463   5.290   3.960  1.6730 -0.5217  0.6566
  681MOL0     H91912   3.496   5.133   3.885  0.9974  1.5241  0.2765
  681MOL0     H91913   3.338   5.211   4.135  2.5262  0.5079 -1.0335
  681MOL0     H91914   3.365   5.045   4.066  5.6557  1.0547  0.9863
  681MOL0     H91915   3.132   5.114   4.002  1.3905 -1.8272 -0.0276
  681MOL0     H91916   3.233   5.118   3.857  0.3848 -1.7748  0.9418
  681MOL0     H91917   4.159   5.287   4.465 -0.7637  1.4721  3.1673
  681MOL0     H91918   4.351   5.257   4.601 -0.6396  2.2423  0.1811
  681MOL0     H91919   4.417   5.092   5.110 -0.3740 -0.1640 -3.7542
  681MOL0     H91920   4.618   5.069   5.266  2.7223 -0.5671  0.5159
  681MOL0     H91921   6.416   5.503   5.622 -1.7766  3.8621  1.5491
  681MOL0     H91922   6.649   5.393   5.689 -2.5041 -0.2564 -2.9673
  681MOL0     H91923   7.091   5.222   5.637 -1.0317  2.4583 -0.4684
  681MOL0     H91924   7.330   5.188   5.693  2.2668  1.8402 -1.3316
  681MOL0     H91925   7.603   5.491   5.919  2.9395 -1.3649 -3.0034
  681MOL0     H91926   7.481   5.405   6.014 -0.4791 -1.6072  0.1483
  681MOL0     H91927   7.725   5.278   5.874  0.2239  0.1520 -0.0347
  681MOL0     H91928   7.601   5.189   5.955  2.3006 -1.8973 -1.3470
  681MOL0     H91929   7.710   5.231   6.174 -0.0296  0.0469 -0.0098
  681MOL0     H91930   7.698   5.405   6.130 -1.4373 -1.0761  1.7924
  681MOL0     H91931   7.913   5.323   6.182 -0.9316 -0.4537  0.7246
  681MOL0     H91932   7.902   5.374   6.010 -0.8068 -0.0846  0.7159
  681MOL0     H91933   7.943   4.931   6.061  1.2772 -0.8205  0.8719
  681MOL0     H91934   7.343   5.587   5.867  1.0963 -0.1074 -1.8290
  681MOL0     H91935   7.116   5.626   5.802 -0.6749 -0.6207 -0.0153
  682MOL0     O91936   7.973   5.970   0.980 -0.0133  0.0469  0.0240
  682MOL0     C91937   7.946   5.855   0.967  0.8117 -0.0370  0.3944
  682MOL0     O91938   7.873   5.805   0.858 -0.4532  0.1145  0.3836
  682MOL0     C91939   7.792   5.879   0.769 -0.4279  0.0294 -0.6198
  682MOL0     C91940   7.833   6.008   0.720 -0.1574  1.1776  1.4351
  682MOL0     C91941   7.757   6.073   0.621 -0.9724  0.3712  0.0335
  682MOL0     C91942   7.645   6.010   0.579  0.7987  0.1435  0.5636
  682MOL0     O91943   7.584   6.088   0.486  0.4545  0.1570 -0.8486
  682MOL0     C91944   7.457   6.031   0.438  1.0012 -0.0571 -0.8311
  682MOL0     C91945   7.367   6.113   0.357  0.9630  0.2540  0.3863
  682MOL0     C91946   7.435   6.128   0.220  1.0723 -0.0930  0.4379
  682MOL0     C91947   7.374   6.235   0.132  0.3062  0.7602  0.0951
  682MOL0     C91948   7.415   6.239  -0.017  0.1967  0.2481 -0.2015
  682MOL0     C91949   7.340   6.355  -0.096 -0.3094 -0.6572 -0.6426
  682MOL0     C91950   7.324   6.489  -0.017  0.3218 -0.1086 -0.0217
  682MOL0     C91951   7.282   6.604  -0.108 -0.5423 -0.3945  0.3492
  682MOL0     N91952   7.311   6.738  -0.054 -0.7562 -0.5668  0.1801
  682MOL0     C91953   7.431   6.808  -0.049 -0.6707 -0.0976 -1.3148
  682MOL0     C91954   7.407   6.903   0.051 -0.5440 -1.4274 -1.2449
  682MOL0     C91955   7.518   6.999   0.095 -0.6616  0.3070  0.0780
  682MOL0     C91956   7.559   6.985   0.243  1.2865  0.5971 -1.0947
  682MOL0     C91957   7.461   7.049   0.339  0.7432 -0.4147 -0.4523
  682MOL0     C91958   7.519   7.039   0.483 -0.3550 -0.8440  0.2242
  682MOL0     O91959   7.433   7.113   0.572 -0.7158  0.2754  0.1919
  682MOL0     C91960   7.323   7.050   0.621 -0.8131 -0.6651 -0.5875
  682MOL0     C91961   7.358   6.954   0.717  1.0941  0.4064  0.4058
  682MOL0     C91962   7.248   6.898   0.796 -0.5892  0.5482 -0.0926
  682MOL0     C91963   7.277   6.803   0.906  0.3425  1.1880  0.5020
  682MOL0     C91964   7.111   6.934   0.763  0.5526 -0.0205  0.0904
  682MOL0     C91965   6.999   6.879   0.843  0.7105 -0.6950  0.7639
  682MOL0     O91966   6.877   6.846   0.776  0.0017 -0.6638 -0.0964
  682MOL0     C91967   6.757   6.851   0.834  0.2359 -0.0499  0.0579
  682MOL0     C91968   6.658   6.770   0.782  0.7297  0.7241 -0.6549
  682MOL0     C91969   6.525   6.776   0.835 -0.8643  0.9452  0.1843
  682MOL0     C91970   6.486   6.868   0.936 -0.6034  0.0418  0.3585
  682MOL0     O91971   6.365   6.875   0.995  0.3861  0.2533 -0.1553
  682MOL0     C91972   6.264   6.879   0.896 -0.1092  0.0693 -0.3834
  682MOL0     C91973   6.149   6.985   0.924 -0.5776 -0.3762 -0.0404
  682MOL0     C91974   6.018   6.936   0.866  0.8622  0.4224  0.6959
  682MOL0     C91975   6.004   6.935   0.718 -0.6038 -0.0844 -0.0184
  682MOL0     C91976   5.871   6.905   0.648 -0.3986 -0.2493  0.3649
  682MOL0     C91977   5.800   7.041   0.625  0.0624  1.0448 -0.2880
  682MOL0     C91978   5.858   7.111   0.500 -0.4626  0.2884  0.6285
  682MOL0     C91979   5.790   7.238   0.454 -0.5184  0.5964  0.4398
  682MOL0    Cl91980   5.835   7.382   0.563 -0.1761  0.3028  0.5406
  682MOL0     C91981   6.587   6.951   0.983 -0.1143 -0.0069  0.3840
  682MOL0     C91982   6.722   6.944   0.933 -0.0436  0.8530 -1.1139
  682MOL0     O91983   7.006   6.882   0.963  0.4456  0.3604 -0.6613
  682MOL0     C91984   7.086   7.020   0.660  0.1344 -0.0273 -0.6964
  682MOL0     C91985   7.185   7.083   0.593 -0.8229  0.2528  1.0371
  682MOL0     N91986   7.283   6.889   0.106 -0.4461  0.2701  0.2902
  682MOL0     N91987   7.226   6.792   0.043  0.4935  0.5200 -0.0623
  682MOL0     C91988   7.611   5.874   0.613  0.4456 -0.2506  0.0320
  682MOL0     C91989   7.684   5.817   0.717  0.1456 -0.3105  0.8327
  682MOL0     C91990   8.011   5.753   1.055 -0.1421 -0.3751  0.4280
  682MOL0     C91991   8.113   5.794   1.152  0.2383  0.0094  0.9998
  682MOL0     C91992   8.196   5.704   1.206 -0.1888 -0.3637 -0.3388
  682MOL0     C91993   8.162   5.568   1.197  0.2659 -0.5568 -0.1238
  682MOL0     O91994   8.259   5.488   1.241 -0.5942  0.0453 -0.5224
  682MOL0     C91995   8.249   5.336   1.248  1.0093 -0.8079  0.2140
  682MOL0     C91996   8.373   5.277   1.321 -0.0351 -1.1285  0.3188
  682MOL0     C91997   8.398   5.123   1.281 -0.5101  0.3574 -0.1625
  682MOL0     C91998   8.301   5.031   1.361 -0.5482 -0.1993  0.3110
  682MOL0     C91999   8.162   5.024   1.302  0.0261  0.0782  0.0727
  682MOL0     C92000   8.050   5.002   1.265  0.6322  0.0682 -0.2858
  682MOL0     C92001   8.048   5.522   1.121 -1.1613 -1.0058  0.3599
  682MOL0     C92002   7.969   5.624   1.053 -0.3875  0.5773  0.5171
  682MOL0     H92003   7.906   6.063   0.778  1.2888 -0.1464  0.9141
  682MOL0     H92004   7.782   6.170   0.579  0.1157  0.2078  0.2801
  682MOL0     H92005   7.479   5.940   0.381  0.8332 -1.5826  1.4025
  682MOL0     H92006   7.398   6.005   0.526  2.1652  1.5842  0.5049
  682MOL0     H92007   7.274   6.054   0.363 -1.2416  3.5592  1.6407
  682MOL0     H92008   7.344   6.209   0.404 -0.0616 -0.2225  0.9066
  682MOL0     H92009   7.533   6.168   0.249  1.2329  1.3338 -1.8080
  682MOL0     H92010   7.458   6.034   0.169  2.7770  0.4619  0.0894
  682MOL0     H92011   7.266   6.221   0.126  0.6151 -2.6357  0.7109
  682MOL0     H92012   7.396   6.336   0.167 -1.4656  0.7697  1.2548
  682MOL0     H92013   7.521   6.264  -0.033  0.2839 -0.0640 -0.1054
  682MOL0     H92014   7.399   6.144  -0.068  1.3672 -0.2819  0.3799
  682MOL0     H92015   7.410   6.364  -0.180  2.2435  2.0347  1.5502
  682MOL0     H92016   7.243   6.325  -0.134 -0.3447 -1.7404  0.2750
  682MOL0     H92017   7.245   6.471   0.056  1.1001 -3.3046  0.1692
  682MOL0     H92018   7.409   6.521   0.043 -1.0916  2.8613  0.6057
  682MOL0     H92019   7.184   6.603  -0.157 -0.9009  1.7692  0.9086
  682MOL0     H92020   7.334   6.603  -0.205 -3.2059  2.2199 -1.2622
  682MOL0     H92021   7.529   6.790  -0.091  0.8785 -0.0410  1.9822
  682MOL0     H92022   7.603   6.969   0.033 -1.4468  0.3743 -1.0464
  682MOL0     H92023   7.489   7.101   0.067 -0.3182  1.6236  3.8306
  682MOL0     H92024   7.658   7.027   0.267  1.3387  0.7967 -1.6480
  682MOL0     H92025   7.563   6.880   0.274 -1.5108  0.0658 -2.2789
  682MOL0     H92026   7.368   6.992   0.342 -0.1615  0.9778  2.8907
  682MOL0     H92027   7.445   7.155   0.316  1.7010  0.2013  1.4627
  682MOL0     H92028   7.616   7.088   0.485  0.2506 -2.0112  0.6179
  682MOL0     H92029   7.528   6.937   0.522 -3.0896 -0.6613  1.5911
  682MOL0     H92030   7.459   6.919   0.734  1.4359  0.7562 -0.8745
  682MOL0     H92031   7.219   6.714   0.882 -0.5894  1.9644 -0.2483
  682MOL0     H92032   7.381   6.772   0.911 -0.3127 -1.8226 -1.7788
  682MOL0     H92033   7.253   6.836   1.008 -1.4972 -2.5154  1.4275
  682MOL0     H92034   6.658   6.690   0.708 -0.3976  1.4865 -1.4968
  682MOL0     H92035   6.457   6.705   0.788 -1.3493  0.9158  0.8989
  682MOL0     H92036   6.304   6.903   0.798 -3.3250  0.4657 -1.7489
  682MOL0     H92037   6.219   6.779   0.885  2.3775 -0.8695 -3.4361
  682MOL0     H92038   6.158   7.004   1.032 -2.7182 -2.3376  0.5632
  682MOL0     H92039   6.172   7.081   0.877 -4.2667  2.0571  2.5753
  682MOL0     H92040   5.940   7.003   0.904  2.2979  2.0446  0.8780
  682MOL0     H92041   5.986   6.838   0.903  0.6717  0.8423  1.6969
  682MOL0     H92042   6.044   7.034   0.693 -0.8752 -0.3178 -1.4727
  682MOL0     H92043   6.075   6.871   0.666 -0.1125  0.3015  0.1713
  682MOL0     H92044   5.820   6.847   0.725  0.9120 -0.2353  1.2969
  682MOL0     H92045   5.882   6.844   0.558 -0.6154 -0.0887  0.2315
  682MOL0     H92046   5.694   7.021   0.609  0.1246 -0.6185  1.1613
  682MOL0     H92047   5.813   7.098   0.717 -0.4003 -4.1332  3.4667
  682MOL0     H92048   5.853   7.040   0.417  2.1800 -1.3584  1.7585
  682MOL0     H92049   5.963   7.139   0.511  0.0687 -0.0641 -2.5871
  682MOL0     H92050   5.683   7.224   0.466 -0.7069  0.0353 -1.5450
  682MOL0     H92051   5.819   7.266   0.352  0.4536  0.3731  0.6396
  682MOL0     H92052   6.580   7.024   1.064  0.5521 -1.4868  1.8244
  682MOL0     H92053   6.790   7.022   0.966 -1.6466  1.1364  1.7959
  682MOL0     H92054   6.985   7.056   0.641  0.7999  0.2951 -4.5478
  682MOL0     H92055   7.166   7.159   0.518  1.5374 -1.2823 -1.2740
  682MOL0     H92056   7.532   5.810   0.576  0.4838 -0.1032 -0.3016
  682MOL0     H92057   7.670   5.712   0.740  5.3607 -1.5173 -0.1842
  682MOL0     H92058   8.120   5.901   1.169  1.0465  0.1671 -0.1949
  682MOL0     H92059   8.284   5.744   1.255  0.6930  0.1197 -2.2142
  682MOL0     H92060   8.152   5.300   1.284  0.2616  2.4368  1.8612
  682MOL0     H92061   8.255   5.300   1.145 -2.8681 -4.3899  0.9489
  682MOL0     H92062   8.369   5.287   1.429 -1.5264 -1.3619  0.3012
  682MOL0     H92063   8.458   5.335   1.284 -1.9572  0.2719 -2.2606
  682MOL0     H92064   8.497   5.096   1.318  0.1969  5.8480  3.2022
  682MOL0     H92065   8.393   5.115   1.172  0.4577 -1.0589 -0.1182
  682MOL0     H92066   8.318   5.072   1.461  1.5568 -1.9784  0.7682
  682MOL0     H92067   8.340   4.929   1.354 -0.0943  0.0627 -1.1788
  682MOL0     H92068   7.954   4.965   1.238  1.8828 -3.5804 -0.2267
  682MOL0     H92069   8.028   5.417   1.102 -0.9191 -0.8206 -0.9878
  682MOL0     H92070   7.887   5.591   0.991 -0.4949  0.6387  0.6268
  683MOL0     O92071   1.090   3.667   2.498  0.2666  0.5079 -0.3558
  683MOL0     C92072   1.185   3.593   2.524  1.2978  0.2743 -0.7059
  683MOL0     O92073   1.175   3.456   2.542  0.3276 -0.4578  1.1129
  683MOL0     C92074   1.073   3.369   2.499  0.0572 -0.2542 -0.3695
  683MOL0     C92075   0.964   3.410   2.415  0.5402  0.3583  0.3239
  683MOL0     C92076   0.864   3.316   2.377  0.0955  0.4740  0.5759
  683MOL0     C92077   0.883   3.180   2.398  0.0911  0.8597 -0.2158
  683MOL0     O92078   0.806   3.068   2.361  0.5403 -0.5448 -0.1418
  683MOL0     C92079   0.688   3.092   2.274 -0.0619  0.2756 -0.3332
  683MOL0     C92080   0.563   3.134   2.355  0.2391 -0.5410  0.0280
  683MOL0     C92081   0.531   3.029   2.464 -0.0901 -0.3288 -0.5018
  683MOL0     C92082   0.531   2.881   2.415 -0.0007  0.1661 -0.8348
  683MOL0     C92083   0.418   2.797   2.491  1.1423  0.1155 -0.2520
  683MOL0     C92084   0.369   2.660   2.441 -0.2502  0.3032  0.2546
  683MOL0     C92085   0.300   2.655   2.304  0.0038  0.2184 -0.3738
  683MOL0     C92086   0.177   2.752   2.293 -1.1133  0.0776 -0.4573
  683MOL0     N92087   0.075   2.710   2.194  0.7872 -0.1677 -0.1296
  683MOL0     C92088  -0.014   2.610   2.208 -0.4991  0.3962  0.2227
  683MOL0     C92089  -0.104   2.623   2.108  0.3532  0.3225 -0.2993
  683MOL0     C92090  -0.221   2.536   2.064  0.5308 -1.0996 -0.1743
  683MOL0     C92091  -0.172   2.404   2.003 -0.1488  0.7676 -0.4131
  683MOL0     C92092  -0.279   2.324   1.946 -0.2492  0.8377  0.5744
  683MOL0     C92093  -0.214   2.201   1.871 -0.0912  0.9191 -0.4399
  683MOL0     O92094  -0.320   2.125   1.830  0.1173  0.1016 -0.0014
  683MOL0     C92095  -0.298   2.020   1.749 -0.4271 -0.3094 -0.4746
  683MOL0     C92096  -0.393   1.929   1.741  0.0823  0.5195  0.2624
  683MOL0     C92097  -0.377   1.807   1.669 -0.5129 -0.5458  0.4005
  683MOL0     C92098  -0.498   1.720   1.679 -0.1382 -0.0149  0.1857
  683MOL0     C92099  -0.258   1.778   1.606 -0.0705  0.2974 -0.7423
  683MOL0     C92100  -0.222   1.645   1.542  0.7876 -0.0607 -0.4150
  683MOL0     O92101  -0.090   1.615   1.537  0.4331  1.1114  0.1168
  683MOL0     C92102  -0.030   1.518   1.468  0.6964  0.6486 -0.3355
  683MOL0     C92103  -0.060   1.383   1.482  0.5464 -0.4236  0.3524
  683MOL0     C92104   0.012   1.282   1.413  0.0084  0.6228 -0.7099
  683MOL0     C92105   0.096   1.327   1.305  0.0561 -0.0817 -0.0602
  683MOL0     O92106   0.174   1.230   1.236 -0.1248 -0.3231 -0.1784
  683MOL0     C92107   0.319   1.250   1.216 -0.3370 -0.6612 -0.0111
  683MOL0     C92108   0.409   1.234   1.342 -1.1500  0.5586 -0.2119
  683MOL0     C92109   0.405   1.106   1.405 -0.6456  0.1090  0.8843
  683MOL0     C92110   0.268   1.058   1.471 -0.5458 -0.2597  1.0612
  683MOL0     C92111   0.292   0.926   1.539 -0.8352 -0.9458 -0.9866
  683MOL0     C92112   0.162   0.879   1.615 -0.4486 -1.0503 -1.0948
  683MOL0     C92113   0.038   0.839   1.532  0.2592 -0.4376  0.3351
  683MOL0     C92114   0.067   0.714   1.453  0.1184 -0.0199 -1.1459
  683MOL0    Cl92115   0.127   0.558   1.544  0.8976 -0.9336 -0.7706
  683MOL0     C92116   0.096   1.463   1.274  0.3258 -1.1155 -0.1189
  683MOL0     C92117   0.033   1.549   1.359 -0.5000 -1.0274  0.1344
  683MOL0     O92118  -0.308   1.572   1.488 -0.0211  0.2873  0.4689
  683MOL0     C92119  -0.154   1.867   1.612 -0.1310  0.8966  0.7040
  683MOL0     C92120  -0.174   1.993   1.670  0.1653  0.6401 -0.1746
  683MOL0     N92121  -0.075   2.749   2.043  0.8626  0.1440 -0.3318
  683MOL0     N92122   0.038   2.785   2.084 -1.1650  0.0839 -0.2876
  683MOL0     C92123   0.989   3.137   2.487 -0.1977  0.2387  0.6728
  683MOL0     C92124   1.082   3.232   2.534 -0.0712 -0.0198 -0.3554
  683MOL0     C92125   1.316   3.651   2.540  0.1926  0.3046  0.2749
  683MOL0     C92126   1.424   3.571   2.578 -0.7858  0.6447  0.5810
  683MOL0     C92127   1.548   3.632   2.606 -0.5117  0.7770 -0.4170
  683MOL0     C92128   1.557   3.764   2.599 -0.3374 -1.0073  0.5805
  683MOL0     O92129   1.670   3.835   2.618  0.1849  0.0959  0.2801
  683MOL0     C92130   1.743   3.872   2.492  0.6004  0.6797  0.0140
  683MOL0     C92131   1.887   3.919   2.501  0.7616 -0.4766  0.1589
  683MOL0     C92132   1.885   4.059   2.570  0.2742  0.0731 -0.6059
  683MOL0     C92133   2.012   4.142   2.538 -0.7856  0.2729 -0.5686
  683MOL0     C92134   2.011   4.278   2.601 -0.8409 -0.5961 -0.6909
  683MOL0     C92135   2.005   4.392   2.649 -0.6138 -0.5384  0.8983
  683MOL0     C92136   1.451   3.843   2.551  0.0290  0.2667  0.5289
  683MOL0     C92137   1.330   3.788   2.526 -0.4674 -0.2115  0.7695
  683MOL0     H92138   0.957   3.511   2.376  1.6811  0.0622 -0.7256
  683MOL0     H92139   0.791   3.368   2.316 -0.1279  0.0885  0.5118
  683MOL0     H92140   0.703   3.160   2.190 -3.5140  4.5239  2.1024
  683MOL0     H92141   0.671   2.997   2.222  0.5416 -0.6566  1.1062
  683MOL0     H92142   0.586   3.218   2.422 -2.5900 -1.0200  1.7407
  683MOL0     H92143   0.480   3.177   2.298 -0.0021  1.5110  1.7629
  683MOL0     H92144   0.604   3.042   2.544 -2.0065  0.7494  1.1674
  683MOL0     H92145   0.435   3.060   2.504  0.6086 -0.2221  1.1428
  683MOL0     H92146   0.506   2.886   2.309 -0.0566 -0.9456 -0.8861
  683MOL0     H92147   0.629   2.832   2.421 -0.9848 -1.8336 -0.5157
  683MOL0     H92148   0.456   2.776   2.591  1.5253  1.0074 -0.2058
  683MOL0     H92149   0.329   2.858   2.508  0.7226 -1.0794  2.2227
  683MOL0     H92150   0.454   2.591   2.443 -1.9694 -2.2223 -3.1921
  683MOL0     H92151   0.295   2.621   2.512 -1.9058  0.1462 -1.4717
  683MOL0     H92152   0.376   2.664   2.226 -0.3481 -1.4693 -0.9646
  683MOL0     H92153   0.254   2.555   2.303  0.8844 -0.2105  0.2917
  683MOL0     H92154   0.223   2.848   2.269 -0.7836  0.2566  0.8228
  683MOL0     H92155   0.138   2.759   2.395  0.4675 -0.6388  0.2224
  683MOL0     H92156  -0.014   2.535   2.286 -0.4899  1.2762  1.0854
  683MOL0     H92157  -0.293   2.524   2.145  0.5987 -1.5867 -0.1831
  683MOL0     H92158  -0.282   2.596   1.996 -2.4800 -1.0677  2.3478
  683MOL0     H92159  -0.122   2.344   2.080  0.2857  4.4556  2.4231
  683MOL0     H92160  -0.094   2.422   1.928  3.1809 -2.8178  1.7872
  683MOL0     H92161  -0.339   2.388   1.880 -0.6036  1.1366  1.1738
  683MOL0     H92162  -0.344   2.284   2.024  1.6262 -3.1448  0.3443
  683MOL0     H92163  -0.158   2.153   1.952 -0.4476  3.9890  1.8022
  683MOL0     H92164  -0.146   2.223   1.788  2.4966 -0.7396  1.0965
  683MOL0     H92165  -0.490   1.953   1.783  0.5357 -0.9150  2.2531
  683MOL0     H92166  -0.568   1.749   1.600  1.3785  3.3559 -0.0567
  683MOL0     H92167  -0.462   1.617   1.670 -0.4156 -0.3829  2.7462
  683MOL0     H92168  -0.547   1.724   1.776  1.7973  3.4177  1.1768
  683MOL0     H92169  -0.139   1.362   1.553 -0.6872  0.7028 -0.6148
  683MOL0     H92170   0.000   1.176   1.431  1.0653  0.9090  2.2723
  683MOL0     H92171   0.363   1.180   1.145 -1.1651 -2.7032  1.3634
  683MOL0     H92172   0.341   1.354   1.190 -0.2623  1.0937  5.6252
  683MOL0     H92173   0.511   1.253   1.305 -0.7940 -1.3488 -0.3208
  683MOL0     H92174   0.378   1.306   1.419 -0.7213 -0.5390  1.0130
  683MOL0     H92175   0.474   1.112   1.489 -2.2614 -4.1468  2.8434
  683MOL0     H92176   0.453   1.030   1.342 -0.2028  0.2028  1.1111
  683MOL0     H92177   0.238   1.135   1.542  1.5893  0.1212  1.6155
  683MOL0     H92178   0.200   1.043   1.387  0.7743 -0.7609  0.0365
  683MOL0     H92179   0.371   0.938   1.614 -1.9429 -5.0491  1.1333
  683MOL0     H92180   0.325   0.848   1.470 -3.9272 -3.8998  0.6057
  683MOL0     H92181   0.179   0.792   1.679  2.4729  0.8558  0.9383
  683MOL0     H92182   0.137   0.956   1.689  2.8901 -1.3993  0.5841
  683MOL0     H92183   0.006   0.922   1.468  1.8314 -0.1611 -0.1272
  683MOL0     H92184  -0.041   0.823   1.606 -1.2024  0.9736 -0.8455
  683MOL0     H92185   0.145   0.748   1.383 -1.1998  4.3909 -0.7927
  683MOL0     H92186  -0.024   0.690   1.398  0.8680 -0.9557 -2.0053
  683MOL0     H92187   0.165   1.501   1.200 -1.4592  1.4768 -0.6026
  683MOL0     H92188   0.055   1.652   1.334 -4.2228 -0.3147 -0.8595
  683MOL0     H92189  -0.063   1.852   1.556 -0.9448 -2.0642 -0.0163
  683MOL0     H92190  -0.088   2.057   1.686 -2.2328  3.7201  1.2526
  683MOL0     H92191   0.998   3.029   2.495 -2.3370  0.0706  1.5532
  683MOL0     H92192   1.158   3.185   2.595 -0.7855 -1.4809 -0.5329
  683MOL0     H92193   1.424   3.465   2.602 -1.0851 -0.0405 -2.1393
  683MOL0     H92194   1.637   3.585   2.647  0.2642  1.5547 -1.1700
  683MOL0     H92195   1.743   3.776   2.439 -1.8155 -0.4805  1.8944
  683MOL0     H92196   1.683   3.941   2.433 -1.7284 -1.8549 -0.7701
  683MOL0     H92197   1.914   3.931   2.396 -0.2365 -2.6959 -0.4167
  683MOL0     H92198   1.958   3.849   2.545  4.1355  0.9938 -2.4520
  683MOL0     H92199   1.878   4.035   2.676 -3.2153  1.0095 -0.4930
  683MOL0     H92200   1.794   4.115   2.547  0.4805  0.3329 -0.8043
  683MOL0     H92201   2.023   4.145   2.430 -1.1495 -0.9692 -0.6597
  683MOL0     H92202   2.097   4.088   2.580 -0.1003  2.5051  1.1470
  683MOL0     H92203   1.988   4.489   2.691 -0.2027  0.3313 -0.8594
  683MOL0     H92204   1.457   3.950   2.566  0.2536  0.0213  2.3628
  683MOL0     H92205   1.245   3.852   2.504 -2.1362 -2.5511  0.0240
  684MOL0     O92206   5.445   2.458   5.330  0.0071 -0.2148 -0.4749
  684MOL0     C92207   5.490   2.569   5.326 -0.8635 -0.2867  0.5034
  684MOL0     O92208   5.502   2.641   5.210 -0.3667  0.0868  1.6181
  684MOL0     C92209   5.458   2.591   5.087 -0.4435  0.1314  0.5987
  684MOL0     C92210   5.343   2.501   5.063  0.3179 -0.3723  1.0727
  684MOL0     C92211   5.332   2.439   4.935 -0.0155 -0.2836  0.4883
  684MOL0     C92212   5.417   2.469   4.828 -0.3064  0.7249  0.0016
  684MOL0     O92213   5.403   2.397   4.713 -0.7737 -0.2181  0.1469
  684MOL0     C92214   5.289   2.328   4.669  0.0058 -0.1248 -1.2412
  684MOL0     C92215   5.179   2.427   4.625 -0.7307  0.4417 -0.0995
  684MOL0     C92216   5.051   2.366   4.565  0.2258  0.3528  0.3251
  684MOL0     C92217   5.062   2.321   4.425 -0.5647  0.1415 -0.4551
  684MOL0     C92218   4.942   2.243   4.363 -0.3695 -0.6619 -0.5668
  684MOL0     C92219   4.850   2.349   4.291  0.1167  0.4036 -0.4509
  684MOL0     C92220   4.728   2.293   4.220 -0.0548  0.2029  0.0422
  684MOL0     C92221   4.633   2.188   4.286 -0.3530 -0.6422 -0.9877
  684MOL0     N92222   4.544   2.249   4.393  0.6836 -0.3460 -0.5902
  684MOL0     C92223   4.410   2.296   4.374  1.0748  0.3626 -0.6479
  684MOL0     C92224   4.366   2.339   4.488  0.0783 -1.0460 -0.9411
  684MOL0     C92225   4.232   2.392   4.529  0.5948 -0.2239  0.0367
  684MOL0     C92226   4.162   2.456   4.407  0.2187 -0.1370  0.4282
  684MOL0     C92227   4.047   2.556   4.444 -0.5035  0.3707  0.6971
  684MOL0     C92228   3.969   2.610   4.319 -0.6778  0.4475 -0.1193
  684MOL0     O92229   3.889   2.722   4.353  0.3135  0.1406 -0.5239
  684MOL0     C92230   3.816   2.774   4.248 -0.4420  0.8741  0.3014
  684MOL0     C92231   3.748   2.887   4.282  0.3688 -0.9585 -0.0558
  684MOL0     C92232   3.637   2.932   4.201  0.0608  0.5776 -0.0727
  684MOL0     C92233   3.558   3.042   4.257  0.5646  0.3848 -1.0266
  684MOL0     C92234   3.620   2.884   4.068  0.0715  0.1560  0.5840
  684MOL0     C92235   3.520   2.936   3.963 -1.0776 -0.4821 -0.1939
  684MOL0     O92236   3.480   3.063   3.978 -0.3665 -0.1719 -0.1711
  684MOL0     C92237   3.390   3.126   3.887 -0.6906  0.6463  0.4160
  684MOL0     C92238   3.350   3.083   3.763  0.5884 -0.5623  0.0670
  684MOL0     C92239   3.230   3.137   3.710  0.7803 -0.8850  1.4934
  684MOL0     C92240   3.166   3.244   3.758 -0.5328 -0.0229 -0.1724
  684MOL0     O92241   3.037   3.281   3.716  0.1776 -0.4002 -0.8580
  684MOL0     C92242   2.933   3.197   3.767  0.8091 -0.3869 -0.1899
  684MOL0     C92243   2.868   3.258   3.896 -0.4381 -0.1669  0.1813
  684MOL0     C92244   2.799   3.395   3.866  0.1947  0.0905  0.4601
  684MOL0     C92245   2.750   3.459   3.996 -0.0411  0.2522 -0.4258
  684MOL0     C92246   2.636   3.548   3.969 -0.1248  0.1897 -0.1986
  684MOL0     C92247   2.642   3.639   3.837  0.5733 -0.3184 -0.6368
  684MOL0     C92248   2.539   3.742   3.834  0.9372  0.2190  0.5537
  684MOL0     C92249   2.580   3.868   3.913 -0.2845  0.6600 -0.1210
  684MOL0    Cl92250   2.487   4.007   3.846  0.0823  0.1118 -0.2584
  684MOL0     C92251   3.224   3.305   3.870 -0.1852  0.0914  0.1467
  684MOL0     C92252   3.333   3.244   3.931 -0.0908  0.3747 -0.3422
  684MOL0     O92253   3.480   2.853   3.884  0.2300  0.1345  0.1383
  684MOL0     C92254   3.714   2.784   4.025  0.1558 -0.0440  0.6055
  684MOL0     C92255   3.799   2.724   4.123 -0.2886  0.0639 -1.1853
  684MOL0     N92256   4.468   2.326   4.576  0.2887 -0.0803 -0.4582
  684MOL0     N92257   4.571   2.263   4.524 -0.1690 -0.3423  0.0388
  684MOL0     C92258   5.502   2.572   4.846 -0.0342  0.0735 -0.6661
  684MOL0     C92259   5.529   2.628   4.973 -0.3540 -1.2149  0.0289
  684MOL0     C92260   5.518   2.629   5.455  0.1733 -0.3701  0.8682
  684MOL0     C92261   5.561   2.761   5.460 -0.7003 -0.0449  0.2851
  684MOL0     C92262   5.599   2.826   5.575  1.0523  0.5162  0.1488
  684MOL0     C92263   5.595   2.758   5.700 -1.2358  0.4772  0.2167
  684MOL0     O92264   5.654   2.802   5.822 -0.1365  0.2725  0.3246
  684MOL0     C92265   5.688   2.938   5.832  0.6322 -0.5440 -1.1012
  684MOL0     C92266   5.659   2.981   5.981 -0.8038 -0.0833 -0.5081
  684MOL0     C92267   5.745   3.107   6.022 -0.9321  1.0494 -0.2767
  684MOL0     C92268   5.716   3.134   6.169  0.3160  0.1982 -0.0043
  684MOL0     C92269   5.735   3.276   6.194 -0.4004  0.7830 -0.1393
  684MOL0     C92270   5.733   3.392   6.221  0.3729  0.4027  0.2005
  684MOL0     C92271   5.551   2.619   5.693  0.3630  0.4988 -0.0355
  684MOL0     C92272   5.503   2.561   5.579 -0.5236  0.9501 -0.2347
  684MOL0     H92273   5.276   2.470   5.143  1.4495 -0.5334  1.9833
  684MOL0     H92274   5.262   2.357   4.933 -1.0285  0.5235  1.4544
  684MOL0     H92275   5.316   2.260   4.587 -2.4338  0.1124 -2.3290
  684MOL0     H92276   5.245   2.258   4.740  3.4018 -1.5610 -0.3380
  684MOL0     H92277   5.151   2.486   4.712  1.9598  1.6203  0.0388
  684MOL0     H92278   5.209   2.496   4.546  0.4603 -1.2387 -1.1840
  684MOL0     H92279   5.019   2.280   4.625  2.2594 -0.8911 -0.2548
  684MOL0     H92280   4.974   2.443   4.561 -0.3096 -0.2319 -1.5948
  684MOL0     H92281   5.078   2.405   4.358  0.2568 -0.7723 -1.4330
  684MOL0     H92282   5.143   2.248   4.416  1.2709  2.0979 -0.4772
  684MOL0     H92283   4.985   2.186   4.280  2.5800  1.6597 -0.8242
  684MOL0     H92284   4.898   2.173   4.433 -0.4234 -2.0863 -1.9715
  684MOL0     H92285   4.827   2.420   4.371  1.7626  0.5213 -0.0573
  684MOL0     H92286   4.911   2.409   4.223  0.2819  1.1896  0.3657
  684MOL0     H92287   4.670   2.380   4.185  1.7768  0.6954 -1.9217
  684MOL0     H92288   4.762   2.233   4.136 -4.1520 -1.1449 -0.9015
  684MOL0     H92289   4.693   2.112   4.338 -1.6929 -0.4624  0.9053
  684MOL0     H92290   4.573   2.135   4.212  1.6822 -2.9137 -1.1513
  684MOL0     H92291   4.344   2.290   4.287 -1.5839  0.4839  1.2358
  684MOL0     H92292   4.171   2.318   4.582  1.3500  2.1965  4.8831
  684MOL0     H92293   4.251   2.466   4.608  0.2942  0.3509 -0.4274
  684MOL0     H92294   4.130   2.375   4.340  5.2247 -1.5544 -0.6801
  684MOL0     H92295   4.229   2.514   4.343 -3.0088  1.9796 -1.2801
  684MOL0     H92296   4.088   2.645   4.493 -4.4206  1.6851  1.9710
  684MOL0     H92297   3.972   2.515   4.513 -0.9038  0.0306  0.0693
  684MOL0     H92298   3.903   2.531   4.282  0.9909 -0.7712 -0.6301
  684MOL0     H92299   4.044   2.623   4.240  0.2112 -3.6538 -0.1465
  684MOL0     H92300   3.761   2.926   4.382 -1.5531 -3.0649  1.1154
  684MOL0     H92301   3.463   3.056   4.205  0.1501  1.0120 -0.1246
  684MOL0     H92302   3.539   3.030   4.364 -0.2527  0.6235 -1.1349
  684MOL0     H92303   3.619   3.132   4.243 -0.6845  1.2079 -1.4036
  684MOL0     H92304   3.405   2.996   3.730  2.4119 -1.0526  3.9076
  684MOL0     H92305   3.193   3.089   3.619  4.9892 -3.0453  0.6512
  684MOL0     H92306   2.858   3.180   3.689 -2.1481 -2.0975  2.7627
  684MOL0     H92307   2.978   3.103   3.799 -2.2681 -2.2365 -0.9440
  684MOL0     H92308   2.795   3.186   3.934  1.4136 -0.0877  4.5144
  684MOL0     H92309   2.941   3.278   3.975  0.0581  1.7289 -0.6912
  684MOL0     H92310   2.717   3.377   3.796  0.4699  0.5622  0.0099
  684MOL0     H92311   2.865   3.463   3.811 -0.1547 -0.0334 -0.1234
  684MOL0     H92312   2.718   3.378   4.062  4.3735 -2.6948 -1.4630
  684MOL0     H92313   2.835   3.504   4.048  1.7976 -4.2994  1.0226
  684MOL0     H92314   2.629   3.614   4.057 -2.6291 -0.9282  0.5372
  684MOL0     H92315   2.539   3.498   3.964 -0.3711  0.7974 -2.8149
  684MOL0     H92316   2.740   3.689   3.833 -0.7525  2.5378 -0.1335
  684MOL0     H92317   2.623   3.577   3.749 -1.2047 -0.0945 -0.4525
  684MOL0     H92318   2.456   3.687   3.879  0.9155  0.0516  0.3105
  684MOL0     H92319   2.522   3.765   3.728  1.1997 -1.5826  0.0810
  684MOL0     H92320   2.681   3.905   3.899 -0.0274 -0.1118 -0.3697
  684MOL0     H92321   2.549   3.864   4.018 -1.9781  3.0574 -0.4304
  684MOL0     H92322   3.171   3.381   3.927  0.3228  1.1717 -0.7913
  684MOL0     H92323   3.388   3.286   4.015  0.2949  1.5643 -1.1539
  684MOL0     H92324   3.716   2.746   3.923  2.7396  1.8841 -0.1623
  684MOL0     H92325   3.849   2.633   4.090 -0.0035 -0.4065  0.4673
  684MOL0     H92326   5.560   2.601   4.759  1.9338  0.5198  0.7396
  684MOL0     H92327   5.606   2.700   4.996 -0.9639  0.1439 -1.9312
  684MOL0     H92328   5.582   2.806   5.364  1.2612 -1.5301 -0.0643
  684MOL0     H92329   5.659   2.916   5.567  0.8055  0.6143 -0.7106
  684MOL0     H92330   5.795   2.949   5.815  1.5393 -2.3162  2.5595
  684MOL0     H92331   5.634   3.001   5.760  1.9293  1.1379 -0.6711
  684MOL0     H92332   5.673   2.893   6.046  1.1695  2.0840  2.2647
  684MOL0     H92333   5.556   3.017   5.986 -1.6168 -2.3367  1.3177
  684MOL0     H92334   5.722   3.174   5.938 -1.9915 -1.4538 -2.1037
  684MOL0     H92335   5.853   3.091   6.014 -0.2127  2.3499  4.2856
  684MOL0     H92336   5.780   3.070   6.231  3.0480  2.4789 -0.2427
  684MOL0     H92337   5.614   3.119   6.204 -1.8376  3.5866 -3.9434
  684MOL0     H92338   5.712   3.497   6.235 -3.7664  0.0966 -2.2471
  684MOL0     H92339   5.531   2.570   5.788 -5.0333  4.9552  1.6665
  684MOL0     H92340   5.473   2.456   5.588 -0.2697  0.9591  0.8060
  685MOL0     O92341   1.372   2.999   0.600 -0.4422 -0.0690 -0.3888
  685MOL0     C92342   1.493   3.011   0.627 -0.7708 -0.3598  0.0594
  685MOL0     O92343   1.550   3.122   0.679  0.4386  0.1616 -0.1283
  685MOL0     C92344   1.470   3.236   0.699 -0.1338  0.3365  0.7619
  685MOL0     C92345   1.504   3.300   0.812  0.0031 -0.1220 -0.0461
  685MOL0     C92346   1.459   3.427   0.842 -0.1207 -0.7043 -0.2766
  685MOL0     C92347   1.371   3.483   0.759 -0.9224  0.5275  0.4377
  685MOL0     O92348   1.331   3.607   0.802  0.0733 -0.0744  0.0900
  685MOL0     C92349   1.222   3.668   0.724  0.1774  0.7354  0.2853
  685MOL0     C92350   1.204   3.795   0.798  0.1066  0.1118  0.3979
  685MOL0     C92351   1.121   3.892   0.721  0.9298  0.5682 -0.0358
  685MOL0     C92352   1.140   4.030   0.780  0.4814 -0.0474 -0.2653
  685MOL0     C92353   1.083   4.063   0.909  0.2791  1.3085 -0.2176
  685MOL0     C92354   0.933   4.098   0.893 -0.3047  0.1324  0.0927
  685MOL0     C92355   0.877   4.152   1.031  0.9078 -0.0983 -0.6850
  685MOL0     C92356   0.764   4.253   1.028  0.4227  0.3382  0.1522
  685MOL0     N92357   0.661   4.209   0.935 -0.0492 -0.0425 -0.2792
  685MOL0     C92358   0.569   4.111   0.942  0.6044 -0.5863  0.1353
  685MOL0     C92359   0.515   4.094   0.823  0.3495 -0.0860 -0.6758
  685MOL0     C92360   0.409   3.990   0.796  1.3658  0.0832 -0.2760
  685MOL0     C92361   0.444   3.896   0.684 -0.9669  1.3590 -0.6156
  685MOL0     C92362   0.526   3.764   0.728  0.7131  1.0434 -0.1994
  685MOL0     C92363   0.674   3.786   0.730 -0.7695 -0.4355 -1.1402
  685MOL0     O92364   0.756   3.669   0.764 -0.6383  0.3465  0.2259
  685MOL0     C92365   0.757   3.635   0.895 -0.0063  0.4836 -0.7616
  685MOL0     C92366   0.847   3.692   1.002 -0.3998  0.0774  0.0109
  685MOL0     C92367   0.870   3.639   1.133  0.3772  0.3198 -0.5800
  685MOL0     C92368   0.949   3.712   1.240 -1.0375 -0.2706  0.4452
  685MOL0     C92369   0.805   3.507   1.153 -0.6860  0.2185  0.4223
  685MOL0     C92370   0.817   3.433   1.281 -0.3240 -0.4892  0.0171
  685MOL0     O92371   0.925   3.462   1.365  0.5521  0.2344  0.5170
  685MOL0     C92372   0.941   3.393   1.481 -0.6491  0.2159 -0.7618
  685MOL0     C92373   0.980   3.459   1.602  0.4299  0.7663  0.4369
  685MOL0     C92374   1.022   3.385   1.712  0.6560  0.4721 -0.1355
  685MOL0     C92375   1.040   3.244   1.704 -1.2576  0.1769  0.2883
  685MOL0     O92376   1.100   3.180   1.809 -0.1815 -0.1576 -0.4329
  685MOL0     C92377   1.004   3.144   1.915 -0.5919 -0.4254 -0.2757
  685MOL0     C92378   1.021   2.999   1.956 -0.0451  0.5762 -0.5134
  685MOL0     C92379   0.947   2.959   2.086 -0.3609  0.0259  0.0721
  685MOL0     C92380   0.980   2.826   2.141 -0.9580  0.1413 -0.1820
  685MOL0     C92381   0.897   2.781   2.257  0.0278  0.6430  0.4841
  685MOL0     C92382   0.904   2.631   2.292  0.1157  0.2188 -0.2321
  685MOL0     C92383   1.041   2.586   2.347 -0.3761 -0.6977  0.6143
  685MOL0     C92384   1.087   2.445   2.379 -0.0895  0.2915  0.6538
  685MOL0    Cl92385   1.113   2.342   2.232 -0.1133  0.3201  0.0038
  685MOL0     C92386   1.000   3.176   1.590  0.0821  0.5081 -0.7946
  685MOL0     C92387   0.944   3.243   1.484  0.4815 -0.7439 -1.0697
  685MOL0     O92388   0.718   3.371   1.313 -0.5394 -0.3354  0.0279
  685MOL0     C92389   0.717   3.454   1.048 -0.5617 -0.8273 -0.8004
  685MOL0     C92390   0.680   3.522   0.927  0.4872  0.2565  0.5422
  685MOL0     N92391   0.556   4.199   0.746 -0.8186  0.0040 -1.0181
  685MOL0     N92392   0.657   4.260   0.805 -0.3526  0.3234 -0.8697
  685MOL0     C92393   1.323   3.408   0.647  0.4192  0.3040 -1.0035
  685MOL0     C92394   1.361   3.273   0.628 -0.3837  0.1504  0.4418
  685MOL0     C92395   1.591   2.889   0.625 -0.2124 -0.1560 -0.3628
  685MOL0     C92396   1.540   2.761   0.591  0.4368 -0.5450  0.5094
  685MOL0     C92397   1.626   2.640   0.585  0.1093 -0.2795 -0.4953
  685MOL0     C92398   1.763   2.651   0.608 -0.1117  0.4874  0.2704
  685MOL0     O92399   1.853   2.543   0.613  0.0292  0.3531  0.1453
  685MOL0     C92400   1.814   2.419   0.551  0.6041 -1.0918  0.8438
  685MOL0     C92401   1.784   2.428   0.398 -1.4966 -0.1377 -0.5324
  685MOL0     C92402   1.895   2.510   0.323 -0.4743 -0.1516 -0.5911
  685MOL0     C92403   1.909   2.482   0.177 -0.6922  0.1454  1.3528
  685MOL0     C92404   1.799   2.541   0.098 -0.3990 -0.3648 -0.6765
  685MOL0     C92405   1.722   2.614   0.041  0.5019  0.1058 -0.2617
  685MOL0     C92406   1.804   2.783   0.640 -0.2330  0.7554 -0.2725
  685MOL0     C92407   1.731   2.897   0.650  0.3625  1.0246  0.9928
  685MOL0     H92408   1.561   3.241   0.884 -4.0468 -3.6733  0.6556
  685MOL0     H92409   1.493   3.483   0.929 -0.2394  0.9660 -1.2636
  685MOL0     H92410   1.255   3.688   0.621  0.6002 -0.0244  0.2673
  685MOL0     H92411   1.135   3.603   0.723  0.8930 -0.2492  0.4421
  685MOL0     H92412   1.151   3.774   0.891 -2.8438 -1.8261 -1.5461
  685MOL0     H92413   1.307   3.830   0.805 -0.0957  1.4942 -2.4335
  685MOL0     H92414   1.141   3.892   0.614  1.1626 -0.0227  0.0036
  685MOL0     H92415   1.015   3.877   0.744  1.3027  1.5279  2.6763
  685MOL0     H92416   1.246   4.057   0.774  0.1191  1.1831 -1.8504
  685MOL0     H92417   1.089   4.092   0.705  0.6681  0.2575 -0.1427
  685MOL0     H92418   1.103   3.976   0.972 -0.4465  1.3460  0.0688
  685MOL0     H92419   1.141   4.150   0.943  1.4152 -0.5199  3.0373
  685MOL0     H92420   0.926   4.186   0.828  1.1074  0.6248  0.5668
  685MOL0     H92421   0.872   4.014   0.857 -1.5571  1.9536 -2.3556
  685MOL0     H92422   0.856   4.071   1.102  0.0781  0.7329  0.0408
  685MOL0     H92423   0.950   4.212   1.086 -1.2931  0.7539  1.4847
  685MOL0     H92424   0.811   4.347   1.000 -0.0003  0.5185  0.0448
  685MOL0     H92425   0.730   4.263   1.132  2.2138  1.9846  0.6408
  685MOL0     H92426   0.546   4.051   1.030  0.5412 -2.4698 -1.1358
  685MOL0     H92427   0.391   3.934   0.888 -0.2740  1.0065  0.0066
  685MOL0     H92428   0.318   4.046   0.770  0.0645 -0.7576  2.1568
  685MOL0     H92429   0.507   3.943   0.609 -0.3656  1.3370 -0.1370
  685MOL0     H92430   0.351   3.860   0.640 -0.4871  1.3199 -1.6217
  685MOL0     H92431   0.510   3.684   0.655 -1.9113  0.8183  0.5323
  685MOL0     H92432   0.492   3.720   0.822  1.0984  1.0966 -0.0350
  685MOL0     H92433   0.695   3.859   0.810 -2.2647 -2.0446  0.8042
  685MOL0     H92434   0.704   3.834   0.636  1.3965 -0.4244 -0.4955
  685MOL0     H92435   0.903   3.782   0.981 -0.2196 -0.0528 -0.0650
  685MOL0     H92436   0.968   3.815   1.209  4.5871 -1.2419 -0.3904
  685MOL0     H92437   0.909   3.728   1.341  3.1720  0.8553  2.1172
  685MOL0     H92438   1.047   3.665   1.249 -0.8517 -0.1657 -0.9129
  685MOL0     H92439   0.985   3.567   1.607 -0.0877  0.8937 -1.1435
  685MOL0     H92440   1.049   3.438   1.803 -1.2136  2.4181 -0.6073
  685MOL0     H92441   1.015   3.205   2.006 -1.7890 -1.1370  0.3818
  685MOL0     H92442   0.902   3.159   1.879  0.3336  1.4568 -2.3025
  685MOL0     H92443   0.990   2.933   1.875  1.1255 -3.0107  1.7198
  685MOL0     H92444   1.124   2.983   1.989 -0.2195  1.8791  0.7911
  685MOL0     H92445   0.838   2.965   2.075 -1.1217  0.3862  5.3015
  685MOL0     H92446   0.964   3.033   2.164 -3.4079  0.6628  0.2604
  685MOL0     H92447   0.949   2.759   2.061  1.3461  1.0604 -1.9821
  685MOL0     H92448   1.088   2.816   2.155 -0.3141  2.3709 -2.7089
  685MOL0     H92449   0.792   2.799   2.231 -0.6358 -0.7545  2.0293
  685MOL0     H92450   0.915   2.852   2.338 -0.6917 -0.2412  1.4415
  685MOL0     H92451   0.829   2.600   2.364  0.5745  0.6478  0.4391
  685MOL0     H92452   0.876   2.576   2.201  1.4311  0.0538 -0.5687
  685MOL0     H92453   1.063   2.651   2.433  0.5476  1.3790 -1.0869
  685MOL0     H92454   1.115   2.622   2.275 -0.7296  0.6441  0.8889
  685MOL0     H92455   1.019   2.397   2.449 -0.0417 -1.8666 -0.6830
  685MOL0     H92456   1.185   2.461   2.424  1.8009  0.8375 -3.1656
  685MOL0     H92457   1.024   3.070   1.587 -1.5815  0.0936 -0.4518
  685MOL0     H92458   0.917   3.180   1.399 -2.0774 -2.3403  0.7927
  685MOL0     H92459   0.677   3.354   1.061  2.1287 -1.9979 -0.7324
  685MOL0     H92460   0.611   3.479   0.856 -0.9741 -0.3068  2.2521
  685MOL0     H92461   1.260   3.461   0.576 -2.7880 -2.3079 -0.3258
  685MOL0     H92462   1.311   3.222   0.547  0.7251  0.7444 -0.6535
  685MOL0     H92463   1.435   2.769   0.566  0.8634  5.2393 -0.7475
  685MOL0     H92464   1.589   2.540   0.567 -2.4764  0.5254  0.0121
  685MOL0     H92465   1.884   2.336   0.562  1.6859 -0.8780 -3.0274
  685MOL0     H92466   1.722   2.385   0.598 -0.4723  1.3421  0.6265
  685MOL0     H92467   1.687   2.479   0.392 -0.6018  1.6344 -0.5710
  685MOL0     H92468   1.762   2.328   0.362 -2.6827 -1.1339  2.5871
  685MOL0     H92469   1.991   2.488   0.372  0.5735  2.6251 -1.2045
  685MOL0     H92470   1.878   2.617   0.335 -1.0913 -0.2721 -0.3488
  685MOL0     H92471   1.933   2.376   0.163  0.0427  0.5200 -0.4770
  685MOL0     H92472   1.989   2.545   0.138 -0.0808 -1.8254 -0.8214
  685MOL0     H92473   1.643   2.653  -0.020  0.8614 -0.2559 -0.9645
  685MOL0     H92474   1.912   2.792   0.645  0.0685  0.8342 -4.1772
  685MOL0     H92475   1.787   2.987   0.674  0.2615  1.1369  0.8102
  686MOL0     O92476   7.742   3.870   6.943 -0.2270 -0.9435  0.4200
  686MOL0     C92477   7.816   3.939   7.011  0.5990  0.4679  0.5012
  686MOL0     O92478   7.900   3.903   7.114 -0.3538  0.0838 -0.7165
  686MOL0     C92479   7.898   3.766   7.133  0.1724 -0.6691  0.1303
  686MOL0     C92480   8.009   3.692   7.101 -0.5332 -0.7557 -0.6075
  686MOL0     C92481   8.011   3.551   7.129 -0.3016  0.0410 -0.0690
  686MOL0     C92482   7.897   3.494   7.185 -0.3632  0.1602  0.4560
  686MOL0     O92483   7.887   3.366   7.206  1.4701 -0.2084  0.5700
  686MOL0     C92484   7.919   3.307   7.335 -0.0715 -0.6055  0.1176
  686MOL0     C92485   8.064   3.250   7.337  0.4251  0.2156  0.3820
  686MOL0     C92486   8.084   3.126   7.426 -0.2802 -1.2404 -0.2709
  686MOL0     C92487   7.986   3.005   7.407 -1.1501  0.1408 -0.1117
  686MOL0     C92488   8.050   2.875   7.462 -0.2404 -0.0421 -0.2349
  686MOL0     C92489   8.173   2.828   7.372  0.1405 -0.9263  0.1852
  686MOL0     C92490   8.234   2.696   7.406 -0.2894  0.2257 -0.1975
  686MOL0     C92491   8.242   2.608   7.279  0.0041  0.5320 -0.5246
  686MOL0     N92492   8.274   2.465   7.310 -0.8617 -0.8014 -0.5729
  686MOL0     C92493   8.399   2.403   7.298 -0.7282  0.1856 -0.1383
  686MOL0     C92494   8.359   2.265   7.307  0.0742 -0.8065 -1.0487
  686MOL0     C92495   8.455   2.152   7.330  0.1698 -0.6798 -0.4657
  686MOL0     C92496   8.472   2.124   7.480  0.3928  0.9291  1.1856
  686MOL0     C92497   8.611   2.075   7.518 -0.0801 -0.6491 -0.4325
  686MOL0     C92498   8.638   1.927   7.478  0.5166 -0.9647 -0.4302
  686MOL0     O92499   8.532   1.835   7.526 -0.0374  0.1439  0.2180
  686MOL0     C92500   8.556   1.700   7.518  0.2971  0.6045  0.0924
  686MOL0     C92501   8.667   1.644   7.455 -0.7860 -0.1999  0.1250
  686MOL0     C92502   8.689   1.506   7.467  0.7523 -1.0676  0.4564
  686MOL0     C92503   8.825   1.449   7.414 -0.0552 -0.3761 -0.4352
  686MOL0     C92504   8.583   1.418   7.516 -1.4124  0.1600 -0.4790
  686MOL0     C92505   8.584   1.268   7.520  0.2112 -0.4154  0.6234
  686MOL0     O92506   8.698   1.193   7.489  0.2213  0.1373  0.6029
  686MOL0     C92507   8.695   1.059   7.489  0.0452 -0.2312  0.7449
  686MOL0     C92508   8.608   0.985   7.406 -0.1969 -0.2570  1.1399
  686MOL0     C92509   8.623   0.846   7.406 -0.0262  0.4586  0.6289
  686MOL0     C92510   8.732   0.785   7.463  0.0691  0.7191 -0.2305
  686MOL0     O92511   8.754   0.652   7.450  0.2941 -0.1813 -0.3387
  686MOL0     C92512   8.662   0.557   7.386  0.6003  0.1739  0.9029
  686MOL0     C92513   8.746   0.444   7.308  0.1578 -0.4392  0.4226
  686MOL0     C92514   8.831   0.495   7.198  0.4756 -0.3265 -0.1713
  686MOL0     C92515   8.973   0.541   7.245  0.4922  0.0479 -0.1664
  686MOL0     C92516   9.019   0.673   7.192 -0.0226 -0.5872  0.9934
  686MOL0     C92517   9.098   0.679   7.057 -0.4923 -0.3964 -1.0962
  686MOL0     C92518   9.020   0.645   6.934  0.6806  0.1041  0.3758
  686MOL0     C92519   9.095   0.654   6.798 -0.2256  0.3941 -0.6758
  686MOL0    Cl92520   9.105   0.828   6.781  0.3697 -0.6510 -0.3654
  686MOL0     C92521   8.823   0.864   7.541 -1.0188  0.0843 -0.8871
  686MOL0     C92522   8.798   1.000   7.556 -0.4033 -0.2866 -0.5912
  686MOL0     O92523   8.477   1.222   7.558  0.5214  0.9127 -0.4632
  686MOL0     C92524   8.476   1.482   7.577 -0.2472  0.4648  0.1574
  686MOL0     C92525   8.467   1.619   7.582 -0.5692  0.3158  0.7458
  686MOL0     N92526   8.220   2.255   7.316 -0.2540  0.1380 -0.4680
  686MOL0     N92527   8.177   2.378   7.333  0.3807  0.7229  0.7940
  686MOL0     C92528   7.784   3.570   7.226 -0.5075  0.5688  0.0035
  686MOL0     C92529   7.789   3.704   7.192 -0.2113  0.3730  0.6223
  686MOL0     C92530   7.818   4.077   6.965 -0.8659  0.0001  0.0882
  686MOL0     C92531   7.938   4.150   6.999 -0.0992 -0.4036  0.5958
  686MOL0     C92532   7.956   4.282   6.955  0.0761 -0.2208 -0.6330
  686MOL0     C92533   7.860   4.346   6.884 -0.7948 -0.0213  0.3916
  686MOL0     O92534   7.879   4.470   6.824 -0.0991  0.5146 -0.1396
  686MOL0     C92535   7.993   4.550   6.857 -0.9242 -0.2050  0.5207
  686MOL0     C92536   8.012   4.679   6.787  0.2908 -0.0590  0.0705
  686MOL0     C92537   7.883   4.753   6.819 -0.2728  0.8375 -0.0897
  686MOL0     C92538   7.909   4.899   6.770 -0.8040 -0.0583 -0.2777
  686MOL0     C92539   7.882   4.905   6.629  0.0142 -0.1226  0.7055
  686MOL0     C92540   7.858   4.896   6.514  0.9871  0.0263  1.0758
  686MOL0     C92541   7.741   4.274   6.852  0.2615  0.3205 -0.4259
  686MOL0     C92542   7.714   4.145   6.898  0.4644  0.4361 -0.8945
  686MOL0     H92543   8.097   3.738   7.056 -0.7107  0.3040  0.0774
  686MOL0     H92544   8.091   3.490   7.087  0.7422  1.7929 -0.7243
  686MOL0     H92545   7.918   3.380   7.417  1.3387 -1.5115  0.9941
  686MOL0     H92546   7.847   3.226   7.354 -0.7678  0.1250  0.6749
  686MOL0     H92547   8.084   3.218   7.235  2.2486  0.6084  0.5799
  686MOL0     H92548   8.134   3.323   7.379  2.1254 -2.0544  1.6750
  686MOL0     H92549   8.190   3.100   7.422 -0.5621 -2.3539 -1.6036
  686MOL0     H92550   8.072   3.163   7.528 -0.7167 -0.1075 -0.7133
  686MOL0     H92551   7.890   3.018   7.457 -0.0773 -0.8673  2.4200
  686MOL0     H92552   7.965   2.983   7.302 -0.2423 -3.5692  0.3524
  686MOL0     H92553   8.090   2.892   7.563  0.2380 -1.2769 -0.1986
  686MOL0     H92554   7.972   2.799   7.469  0.8703 -1.0544  3.3160
  686MOL0     H92555   8.143   2.837   7.268 -0.3533  1.5476  0.4745
  686MOL0     H92556   8.246   2.906   7.396  0.3186 -1.0405  0.0134
  686MOL0     H92557   8.338   2.724   7.429 -0.1209  3.5636 -3.9031
  686MOL0     H92558   8.178   2.649   7.487 -0.8654  0.2235 -0.5920
  686MOL0     H92559   8.321   2.654   7.219  0.9527  1.1916  1.1485
  686MOL0     H92560   8.151   2.618   7.221  1.1057  0.5896 -2.3052
  686MOL0     H92561   8.498   2.444   7.280 -1.1325  1.9049  1.3070
  686MOL0     H92562   8.402   2.067   7.287  1.4001 -1.6058 -0.2273
  686MOL0     H92563   8.549   2.174   7.279  1.6917 -2.0031  1.5965
  686MOL0     H92564   8.389   2.061   7.511 -0.6856  1.3051 -0.7494
  686MOL0     H92565   8.460   2.213   7.542  1.4053  2.7010 -0.9801
  686MOL0     H92566   8.627   2.087   7.626 -0.0305 -0.6935 -0.4344
  686MOL0     H92567   8.688   2.138   7.472  0.8462 -0.8633  0.7770
  686MOL0     H92568   8.741   1.902   7.505  0.2566  0.0053  1.5860
  686MOL0     H92569   8.647   1.924   7.369  0.9145 -0.4359 -0.4118
  686MOL0     H92570   8.744   1.705   7.410  1.7150 -2.6320  0.8666
  686MOL0     H92571   8.879   1.541   7.390  0.7301 -0.8875 -0.6340
  686MOL0     H92572   8.872   1.401   7.500 -2.5557 -0.9849  0.6762
  686MOL0     H92573   8.814   1.398   7.318 -1.7371 -1.6987  0.4043
  686MOL0     H92574   8.546   1.051   7.346  1.5663  1.0030  0.6404
  686MOL0     H92575   8.555   0.791   7.342  1.6188  0.4201 -1.1643
  686MOL0     H92576   8.592   0.516   7.459  0.4000 -0.6637  0.2560
  686MOL0     H92577   8.612   0.617   7.309 -0.0562  0.1661  1.3191
  686MOL0     H92578   8.803   0.396   7.387 -2.5059 -0.8037  2.2632
  686MOL0     H92579   8.686   0.371   7.254  0.1788  1.6173 -2.6563
  686MOL0     H92580   8.769   0.569   7.147  0.1091 -1.1960 -1.0161
  686MOL0     H92581   8.837   0.410   7.129  1.8020  2.2111 -3.4579
  686MOL0     H92582   8.961   0.558   7.352  1.0084  3.2461 -0.5204
  686MOL0     H92583   9.045   0.459   7.254  0.5459  0.1215  0.0810
  686MOL0     H92584   9.087   0.711   7.269  0.4127  0.3913  0.1550
  686MOL0     H92585   8.926   0.730   7.184  0.1412 -0.5157 -0.8523
  686MOL0     H92586   9.144   0.777   7.039 -1.5632  0.4438  0.4326
  686MOL0     H92587   9.178   0.606   7.069  3.4834  3.5019 -1.2659
  686MOL0     H92588   8.927   0.703   6.932  0.6372  0.0713  1.1683
  686MOL0     H92589   8.980   0.545   6.952  2.2527 -0.1030  3.5499
  686MOL0     H92590   9.042   0.613   6.712  0.3057  0.6554 -1.1318
  686MOL0     H92591   9.192   0.605   6.800  0.7848  2.3074  0.6049
  686MOL0     H92592   8.906   0.821   7.595 -2.0400  0.6336  1.2403
  686MOL0     H92593   8.864   1.066   7.613 -1.3730 -2.6090  3.6807
  686MOL0     H92594   8.384   1.433   7.608  0.6798 -1.7340 -0.3619
  686MOL0     H92595   8.389   1.668   7.639  0.4016  0.0750  2.3439
  686MOL0     H92596   7.700   3.520   7.272  0.2894  0.1871  1.0983
  686MOL0     H92597   7.695   3.754   7.212  0.3509  1.3327  0.9475
  686MOL0     H92598   8.022   4.109   7.055 -0.1514 -3.8978 -1.5380
  686MOL0     H92599   8.049   4.335   6.971 -0.9490  1.6944 -0.6910
  686MOL0     H92600   7.990   4.573   6.964  0.4312  1.1964  0.2985
  686MOL0     H92601   8.088   4.500   6.835  0.2142  1.1853  1.9347
  686MOL0     H92602   8.031   4.679   6.679  1.2988  2.9806  0.1593
  686MOL0     H92603   8.103   4.720   6.831  1.1447 -0.8560 -0.9137
  686MOL0     H92604   7.857   4.752   6.926 -2.5211 -2.7582 -0.5107
  686MOL0     H92605   7.795   4.707   6.772  1.8314 -3.7395 -0.0831
  686MOL0     H92606   8.014   4.925   6.788 -0.8348 -1.0460  1.6107
  686MOL0     H92607   7.854   4.968   6.835 -0.0866 -1.8901  2.4596
  686MOL0     H92608   7.853   4.878   6.408 -1.5977  1.6793  0.8049
  686MOL0     H92609   7.670   4.329   6.790 -0.6995  3.1723  2.8791
  686MOL0     H92610   7.616   4.100   6.894 -0.2074  0.9219  4.0536
  687MOL0     O92611   6.682   6.110   1.796 -0.4635  0.0659 -0.1148
  687MOL0     C92612   6.654   6.008   1.865  0.0779  0.0721  0.0260
  687MOL0     O92613   6.535   5.962   1.888  0.9956 -0.0592  0.4353
  687MOL0     C92614   6.436   6.002   1.806 -0.3065  0.0367 -0.4159
  687MOL0     C92615   6.346   6.105   1.833  0.3575 -0.7815  0.4460
  687MOL0     C92616   6.252   6.148   1.748  0.3674 -0.0077  0.0631
  687MOL0     C92617   6.231   6.071   1.626  0.9130 -0.1239 -0.4950
  687MOL0     O92618   6.124   6.081   1.526  0.8019 -1.7126 -1.0376
  687MOL0     C92619   6.070   6.213   1.495 -0.0510 -0.5867 -1.4438
  687MOL0     C92620   5.991   6.204   1.365 -0.4529  0.3292 -0.3841
  687MOL0     C92621   6.081   6.147   1.258 -0.1260 -0.1974 -0.3995
  687MOL0     C92622   6.031   6.200   1.128 -0.5949  0.3019  0.7832
  687MOL0     C92623   6.108   6.319   1.076  0.6503  0.1979 -0.2476
  687MOL0     C92624   6.067   6.450   1.133  0.7808 -0.3814 -0.9932
  687MOL0     C92625   6.144   6.568   1.071  0.1342  0.0108 -0.0072
  687MOL0     C92626   6.289   6.567   1.113  0.6424  0.3411 -0.3207
  687MOL0     N92627   6.288   6.632   1.242  0.4615  1.0712 -0.3181
  687MOL0     C92628   6.301   6.553   1.350  0.0781 -0.3132  0.1873
  687MOL0     C92629   6.298   6.647   1.442 -0.0102 -0.0483  0.5280
  687MOL0     C92630   6.301   6.628   1.591 -0.5788  0.2780  0.8087
  687MOL0     C92631   6.425   6.537   1.614 -0.1802 -0.0199 -0.0784
  687MOL0     C92632   6.447   6.496   1.755 -0.7883 -0.4450 -0.5154
  687MOL0     C92633   6.474   6.622   1.846 -0.4926  0.6452  0.3695
  687MOL0     O92634   6.357   6.664   1.909 -0.0948 -0.4983  0.2708
  687MOL0     C92635   6.337   6.629   2.043  0.0477 -0.9041 -0.5413
  687MOL0     C92636   6.404   6.523   2.117 -0.1476 -0.1241  0.0202
  687MOL0     C92637   6.378   6.490   2.255 -0.3880 -0.6470  0.8708
  687MOL0     C92638   6.462   6.407   2.352 -0.8487 -0.2907  0.4756
  687MOL0     C92639   6.274   6.561   2.315 -0.5354 -0.8620 -0.4405
  687MOL0     C92640   6.235   6.541   2.458 -0.7177 -0.2320  0.1594
  687MOL0     O92641   6.221   6.421   2.509 -0.5973 -0.0270 -0.2242
  687MOL0     C92642   6.140   6.399   2.621  0.1394 -0.8754 -0.5399
  687MOL0     C92643   6.187   6.338   2.738 -0.2842  0.2812  0.4543
  687MOL0     C92644   6.104   6.309   2.835 -0.1220 -1.1241 -0.0194
  687MOL0     C92645   5.971   6.355   2.848 -0.5524 -0.5591 -0.8124
  687MOL0     O92646   5.891   6.333   2.953  0.0869  0.6141  0.1675
  687MOL0     C92647   5.934   6.251   3.050  0.7110 -0.3123 -1.4161
  687MOL0     C92648   5.808   6.220   3.139  0.4000  0.6509 -0.0911
  687MOL0     C92649   5.836   6.117   3.251  0.4492  0.0851  0.4328
  687MOL0     C92650   5.690   6.097   3.305  0.1999  0.1708  0.0377
  687MOL0     C92651   5.681   5.986   3.408 -0.0864 -0.8470  0.0698
  687MOL0     C92652   5.544   5.923   3.434  0.0130  0.0050 -0.3809
  687MOL0     C92653   5.488   5.822   3.328  0.0313  0.3868  0.4789
  687MOL0     C92654   5.328   5.800   3.324  0.8672  0.8648 -0.6228
  687MOL0    Cl92655   5.298   5.709   3.476 -0.1739 -0.1742  0.7212
  687MOL0     C92656   5.925   6.427   2.739 -0.6003 -0.1471 -0.7710
  687MOL0     C92657   6.003   6.442   2.623 -1.0144  0.4301  1.7490
  687MOL0     O92658   6.229   6.649   2.527  0.5875 -0.6047  0.3650
  687MOL0     C92659   6.214   6.672   2.243  0.8370  1.3096  0.1668
  687MOL0     C92660   6.233   6.697   2.104  0.8689 -0.3746 -0.5269
  687MOL0     N92661   6.277   6.775   1.389 -0.6795  0.6313 -0.1361
  687MOL0     N92662   6.268   6.764   1.260 -0.3732 -1.0031 -0.5016
  687MOL0     C92663   6.310   5.965   1.600 -0.5574 -0.5846  0.0334
  687MOL0     C92664   6.414   5.933   1.688 -0.7831  0.0885  0.5209
  687MOL0     C92665   6.771   5.946   1.943  0.3732  0.9830 -0.7435
  687MOL0     C92666   6.904   6.001   1.936  0.4163  1.1804 -0.9283
  687MOL0     C92667   7.010   5.941   2.010 -0.2333 -0.6969  0.2805
  687MOL0     C92668   6.988   5.820   2.075  0.4816  0.8956 -0.6331
  687MOL0     O92669   7.081   5.763   2.163  0.8721 -0.0988 -0.2443
  687MOL0     C92670   7.210   5.813   2.169  0.0459  0.1414  0.3838
  687MOL0     C92671   7.290   5.734   2.277  0.4111 -1.3835 -0.1109
  687MOL0     C92672   7.341   5.591   2.234  0.4367  0.4698 -0.2707
  687MOL0     C92673   7.230   5.495   2.188  0.6892  0.7019 -1.2117
  687MOL0     C92674   7.279   5.354   2.193  0.3123 -0.6049 -0.3043
  687MOL0     C92675   7.329   5.244   2.194  0.2885  0.4426 -0.2389
  687MOL0     C92676   6.863   5.755   2.076 -0.4531 -0.3706 -0.2660
  687MOL0     C92677   6.753   5.817   2.010  0.5371 -0.8119 -0.1549
  687MOL0     H92678   6.359   6.156   1.928  2.7703  0.1372 -0.2977
  687MOL0     H92679   6.185   6.218   1.796 -0.4502 -1.2744  0.8103
  687MOL0     H92680   6.016   6.253   1.581  2.0681 -0.2600 -0.1834
  687MOL0     H92681   6.152   6.280   1.467  2.4158 -3.0756 -0.7153
  687MOL0     H92682   5.905   6.137   1.372 -0.7731  0.6086 -1.4456
  687MOL0     H92683   5.958   6.305   1.339  1.0937  0.8502 -0.4386
  687MOL0     H92684   6.190   6.149   1.271 -0.2406 -1.4735  1.0032
  687MOL0     H92685   6.059   6.041   1.249 -1.1234 -0.0276 -0.0477
  687MOL0     H92686   6.053   6.116   1.061  1.3007  0.1240  1.5508
  687MOL0     H92687   5.923   6.216   1.131 -0.7284 -0.5804  0.8572
  687MOL0     H92688   6.211   6.299   1.108  0.0603 -2.3569  0.2326
  687MOL0     H92689   6.102   6.326   0.967  3.1284  3.8269 -0.3513
  687MOL0     H92690   5.959   6.457   1.118  0.0467 -3.6861  1.4296
  687MOL0     H92691   6.076   6.459   1.242  0.9244 -2.4408 -0.7843
  687MOL0     H92692   6.138   6.574   0.962 -0.6521 -0.1560  0.0233
  687MOL0     H92693   6.105   6.664   1.104  1.3417  1.5547 -2.7410
  687MOL0     H92694   6.345   6.632   1.044  2.5176 -0.9798 -0.1119
  687MOL0     H92695   6.335   6.468   1.112  1.5347  0.7286  0.6048
  687MOL0     H92696   6.316   6.449   1.376 -1.3921 -0.8496 -0.9882
  687MOL0     H92697   6.328   6.723   1.639  2.1249  0.2145 -0.3954
  687MOL0     H92698   6.207   6.584   1.625 -0.2768  0.3904  1.8199
  687MOL0     H92699   6.519   6.581   1.579  1.4916 -2.8629  0.4932
  687MOL0     H92700   6.419   6.440   1.563 -0.1786 -1.5343  2.6114
  687MOL0     H92701   6.548   6.455   1.752  0.8987  3.2451  0.2194
  687MOL0     H92702   6.390   6.414   1.799  2.4468 -2.6646 -0.1349
  687MOL0     H92703   6.515   6.697   1.778  1.2339 -1.6720 -1.2990
  687MOL0     H92704   6.554   6.590   1.913  0.2915 -2.4777 -1.8041
  687MOL0     H92705   6.497   6.484   2.075  0.9429  0.0541  2.1550
  687MOL0     H92706   6.415   6.310   2.363 -0.8603 -0.2524  0.7752
  687MOL0     H92707   6.568   6.406   2.323 -1.1150  0.6051 -0.6292
  687MOL0     H92708   6.475   6.448   2.452  0.9384 -0.3329  0.2996
  687MOL0     H92709   6.286   6.296   2.754  0.4813  2.2829  1.3164
  687MOL0     H92710   6.159   6.249   2.906 -2.6781 -2.5383  0.9042
  687MOL0     H92711   5.966   6.152   3.016  4.1335 -1.2282  3.4107
  687MOL0     H92712   6.005   6.305   3.113 -0.9501  1.6640 -1.1177
  687MOL0     H92713   5.772   6.318   3.171 -1.8898  1.2027 -3.8421
  687MOL0     H92714   5.736   6.170   3.073  0.8909 -1.4965  0.8881
  687MOL0     H92715   5.915   6.152   3.319  4.3358 -0.1462 -3.5316
  687MOL0     H92716   5.881   6.031   3.200  3.0925  0.9870  1.0987
  687MOL0     H92717   5.647   6.181   3.359 -2.2144 -1.2809  0.5028
  687MOL0     H92718   5.622   6.071   3.223  0.9932 -1.5636 -0.1339
  687MOL0     H92719   5.719   6.018   3.506  1.8782 -0.8757 -0.6361
  687MOL0     H92720   5.741   5.899   3.380 -1.6542 -1.8366 -0.2915
  687MOL0     H92721   5.546   5.878   3.534  0.2935 -0.7726 -0.7313
  687MOL0     H92722   5.466   5.999   3.437  0.3166  0.3370  3.1520
  687MOL0     H92723   5.527   5.720   3.343 -0.3634  0.0576 -0.6074
  687MOL0     H92724   5.520   5.856   3.229  0.4460 -1.9307 -0.2496
  687MOL0     H92725   5.303   5.733   3.241  1.2049 -0.0423 -0.0105
  687MOL0     H92726   5.272   5.893   3.310  2.0550  1.3429 -2.4399
  687MOL0     H92727   5.822   6.460   2.751 -0.8870 -1.2752  0.0893
  687MOL0     H92728   5.973   6.482   2.527 -0.5971 -4.2674 -0.5692
  687MOL0     H92729   6.155   6.732   2.312 -0.7610 -1.1136  1.0398
  687MOL0     H92730   6.191   6.785   2.057  0.2388 -0.0668  0.5637
  687MOL0     H92731   6.316   5.917   1.503  0.9652 -0.6974  0.1619
  687MOL0     H92732   6.482   5.851   1.663 -0.4325 -0.6310  3.4065
  687MOL0     H92733   6.924   6.083   1.868 -0.8860  1.8547 -0.5368
  687MOL0     H92734   7.113   5.974   2.008  0.3480 -2.3805  0.3551
  687MOL0     H92735   7.252   5.806   2.068  0.7655  2.2925  0.4651
  687MOL0     H92736   7.218   5.922   2.176 -0.0614  0.0978  1.1934
  687MOL0     H92737   7.230   5.744   2.368  2.2543 -0.0128  1.0211
  687MOL0     H92738   7.380   5.791   2.304  1.1921 -2.9144  0.6488
  687MOL0     H92739   7.386   5.539   2.318  2.8202 -0.6350 -2.1108
  687MOL0     H92740   7.418   5.598   2.157  0.2478  1.1729 -0.4064
  687MOL0     H92741   7.194   5.514   2.086 -0.2752 -0.1841 -1.0566
  687MOL0     H92742   7.140   5.507   2.249 -0.9284  0.3098 -3.3914
  687MOL0     H92743   7.347   5.140   2.180 -0.0045  0.0904  1.6988
  687MOL0     H92744   6.844   5.666   2.134 -0.3481 -0.1875  0.0552
  687MOL0     H92745   6.653   5.773   2.005  1.1669 -2.1719 -3.5674
  688MOL0     O92746   5.662   3.593   1.970  0.1959 -0.8579  0.0716
  688MOL0     C92747   5.721   3.693   1.945 -0.0777 -0.3547 -0.0740
  688MOL0     O92748   5.847   3.709   1.885 -0.4473  0.1631  0.1056
  688MOL0     C92749   5.893   3.586   1.841 -0.0723 -0.0722  0.4008
  688MOL0     C92750   5.850   3.534   1.718  0.2053 -0.0618 -0.2602
  688MOL0     C92751   5.874   3.401   1.675  0.5918 -0.5478  0.3467
  688MOL0     C92752   5.977   3.323   1.743  0.0017  1.1691  0.6334
  688MOL0     O92753   6.010   3.192   1.708  0.9655  0.3077 -0.0619
  688MOL0     C92754   6.002   3.153   1.568  0.0492 -0.4288  0.2823
  688MOL0     C92755   5.885   3.065   1.547  0.6326  1.1834  0.9879
  688MOL0     C92756   5.869   2.945   1.643 -0.5959  0.1625 -0.0961
  688MOL0     C92757   5.778   2.979   1.769 -0.2914 -1.3858 -0.6728
  688MOL0     C92758   5.768   2.857   1.860  0.1359  0.7085  0.0805
  688MOL0     C92759   5.891   2.819   1.946  0.1215 -0.0148 -0.7400
  688MOL0     C92760   5.884   2.691   2.017 -0.6066  0.0563 -0.6952
  688MOL0     C92761   5.776   2.693   2.130  0.3122 -0.0390 -0.6633
  688MOL0     N92762   5.647   2.637   2.091  0.6596 -0.0582  0.4576
  688MOL0     C92763   5.624   2.502   2.098  1.1610  0.5283  0.2291
  688MOL0     C92764   5.488   2.489   2.093 -0.1371 -0.7291 -0.4859
  688MOL0     C92765   5.416   2.353   2.084  0.4984 -0.6499  0.2338
  688MOL0     C92766   5.444   2.283   1.949 -0.6263  0.4239  1.1510
  688MOL0     C92767   5.362   2.148   1.947  0.9325 -0.3939  0.8888
  688MOL0     C92768   5.218   2.167   1.902 -0.1157  0.7938 -0.4488
  688MOL0     O92769   5.151   2.036   1.931  0.1085  0.3874  0.0571
  688MOL0     C92770   5.011   2.028   1.910  0.2878  1.0517 -0.2665
  688MOL0     C92771   4.936   2.106   1.826  0.1122  0.2572 -0.7400
  688MOL0     C92772   4.799   2.101   1.806 -0.2408  0.2458  0.7978
  688MOL0     C92773   4.725   2.191   1.719  0.6260 -0.5998  0.1726
  688MOL0     C92774   4.734   1.990   1.869  0.1818  0.6412  0.4956
  688MOL0     C92775   4.597   1.958   1.850  0.6298 -0.4532  0.0856
  688MOL0     O92776   4.531   2.004   1.738 -0.4969 -0.7016  0.4877
  688MOL0     C92777   4.402   1.970   1.695 -0.5232  0.9414  0.0835
  688MOL0     C92778   4.343   1.845   1.721  0.0277 -0.8954  0.7908
  688MOL0     C92779   4.226   1.817   1.637  0.0907  0.2204 -1.0572
  688MOL0     C92780   4.162   1.908   1.555 -0.7784  1.0885  0.9748
  688MOL0     O92781   4.039   1.877   1.488 -0.1238  0.1437 -0.0985
  688MOL0     C92782   3.941   1.974   1.482  1.1147 -0.1805 -0.0840
  688MOL0     C92783   3.811   1.921   1.415  0.8882 -0.8318  0.9738
  688MOL0     C92784   3.696   1.977   1.485  0.6856  0.6196 -0.5757
  688MOL0     C92785   3.554   1.927   1.437 -0.3538  0.6304  1.1682
  688MOL0     C92786   3.448   1.921   1.543  0.5506 -0.6784  0.3842
  688MOL0     C92787   3.429   2.065   1.596  0.2147  0.1490 -0.5106
  688MOL0     C92788   3.292   2.077   1.674 -0.7528  0.5810  0.1833
  688MOL0     C92789   3.273   1.951   1.773  0.6842  0.0809  0.1142
  688MOL0    Cl92790   3.143   1.984   1.898 -0.0522  0.1425 -0.1851
  688MOL0     C92791   4.227   2.037   1.549  0.2552  1.1240  0.7236
  688MOL0     C92792   4.343   2.064   1.613 -0.7029  0.7351 -0.2408
  688MOL0     O92793   4.544   1.887   1.928 -0.1846  0.7936  0.7203
  688MOL0     C92794   4.809   1.909   1.959  0.6033  0.9905  0.3850
  688MOL0     C92795   4.942   1.934   1.982  0.7182  0.4928  1.5770
  688MOL0     N92796   5.429   2.615   2.085 -0.5767 -0.0653  0.3855
  688MOL0     N92797   5.531   2.704   2.087 -0.0733 -0.5366  0.2223
  688MOL0     C92798   6.030   3.382   1.854 -0.5490  0.0547 -1.3852
  688MOL0     C92799   5.986   3.506   1.907  0.2057  0.7439 -0.4406
  688MOL0     C92800   5.635   3.814   1.968 -0.7346 -0.5458  0.5485
  688MOL0     C92801   5.677   3.933   1.908 -0.1484  1.0162 -0.6685
  688MOL0     C92802   5.596   4.043   1.903  0.8182  0.0406  0.0703
  688MOL0     C92803   5.480   4.044   1.985  1.0214  0.4152 -0.7204
  688MOL0     O92804   5.396   4.160   1.980  0.0075  0.4358  0.4857
  688MOL0     C92805   5.336   4.169   1.836  0.0353 -0.0839 -0.6952
  688MOL0     C92806   5.186   4.143   1.853  0.3749  0.8295  0.8099
  688MOL0     C92807   5.126   4.276   1.916 -0.0453 -0.5502  0.3181
  688MOL0     C92808   5.000   4.245   2.002 -0.1148 -0.7449  0.4170
  688MOL0     C92809   5.019   4.166   2.122 -0.0795 -0.8397 -0.2214
  688MOL0     C92810   5.052   4.094   2.215  0.3296 -0.4251 -0.4218
  688MOL0     C92811   5.438   3.930   2.057  0.1638 -0.9764 -0.2438
  688MOL0     C92812   5.507   3.811   2.039 -0.0809  0.5783  1.3248
  688MOL0     H92813   5.782   3.596   1.660 -1.3513 -2.1436 -0.7973
  688MOL0     H92814   5.825   3.377   1.581  1.1810 -0.1806 -0.0628
  688MOL0     H92815   5.997   3.238   1.499  0.5761  0.8939  1.8020
  688MOL0     H92816   6.090   3.095   1.539 -0.2777 -1.6949  1.6681
  688MOL0     H92817   5.793   3.123   1.542  0.1961  0.3990 -1.2979
  688MOL0     H92818   5.895   3.022   1.447 -0.4008  1.0854  0.9167
  688MOL0     H92819   5.821   2.859   1.596  0.2780 -0.7556  0.6501
  688MOL0     H92820   5.965   2.914   1.684 -0.5444  1.7330  1.0370
  688MOL0     H92821   5.838   3.058   1.816  1.4585  0.3733 -5.2543
  688MOL0     H92822   5.682   3.020   1.735  0.6011  2.1792  0.6061
  688MOL0     H92823   5.684   2.874   1.929 -3.1177 -0.8107 -3.1590
  688MOL0     H92824   5.744   2.767   1.803  1.1272  0.9958 -0.8056
  688MOL0     H92825   5.976   2.800   1.880 -1.2959  1.1490 -3.0598
  688MOL0     H92826   5.917   2.900   2.014 -0.7378 -0.4786  0.1650
  688MOL0     H92827   5.857   2.618   1.941  0.0672 -0.6699 -0.2535
  688MOL0     H92828   5.981   2.668   2.061 -0.3924  3.4429  0.9728
  688MOL0     H92829   5.773   2.798   2.159 -4.9287  0.4183 -1.9024
  688MOL0     H92830   5.810   2.631   2.213 -1.5194  0.5662  0.5914
  688MOL0     H92831   5.696   2.421   2.111 -0.2653 -0.6146  1.2534
  688MOL0     H92832   5.451   2.285   2.162 -1.2937 -2.1401 -0.1921
  688MOL0     H92833   5.309   2.372   2.090  0.6807 -0.0517  2.2543
  688MOL0     H92834   5.551   2.260   1.947  0.4670  4.4355 -2.7657
  688MOL0     H92835   5.420   2.338   1.858  2.0103 -4.1543 -2.7975
  688MOL0     H92836   5.367   2.100   2.045 -0.4230 -1.0059  0.6748
  688MOL0     H92837   5.408   2.082   1.873 -0.4016  1.2263 -1.5094
  688MOL0     H92838   5.212   2.198   1.797  2.4844 -1.1006 -1.2616
  688MOL0     H92839   5.170   2.238   1.969 -0.3029 -2.2954  3.0200
  688MOL0     H92840   4.993   2.180   1.770 -1.5311  0.6547 -1.9414
  688MOL0     H92841   4.701   2.150   1.621  1.2418  0.2379 -0.3344
  688MOL0     H92842   4.636   2.233   1.767  1.4548 -0.0979  1.3053
  688MOL0     H92843   4.787   2.279   1.704 -1.0145  0.7621  0.9855
  688MOL0     H92844   4.406   1.782   1.784  2.7179  1.9377  1.2097
  688MOL0     H92845   4.177   1.720   1.645  0.6017 -0.0088 -0.6234
  688MOL0     H92846   3.929   2.001   1.588 -0.6871  0.3361 -0.3754
  688MOL0     H92847   3.973   2.065   1.430  1.7623  1.9262  3.5911
  688MOL0     H92848   3.813   1.942   1.307 -0.4545 -0.7274  0.9457
  688MOL0     H92849   3.804   1.813   1.429 -1.9127 -0.4332  3.7298
  688MOL0     H92850   3.690   2.085   1.468  0.1982  0.4780 -1.3193
  688MOL0     H92851   3.720   1.964   1.591  6.7875  6.7275 -0.4740
  688MOL0     H92852   3.518   1.974   1.345 -1.1623  0.9509  1.6465
  688MOL0     H92853   3.577   1.825   1.405 -1.4320  1.2267 -1.8141
  688MOL0     H92854   3.482   1.851   1.619 -1.5818 -1.0457  1.0719
  688MOL0     H92855   3.357   1.877   1.502 -2.1728  2.0023  2.9817
  688MOL0     H92856   3.511   2.082   1.665 -0.7151 -1.5480  1.1344
  688MOL0     H92857   3.421   2.142   1.520 -3.8624  1.7424  1.2000
  688MOL0     H92858   3.208   2.079   1.603 -0.7944  2.2088  0.2622
  688MOL0     H92859   3.289   2.157   1.747  0.5324 -2.0304  3.3452
  688MOL0     H92860   3.365   1.936   1.831 -0.7917  3.0090  3.6063
  688MOL0     H92861   3.251   1.861   1.714  0.7125  0.8928 -1.1665
  688MOL0     H92862   4.180   2.117   1.493 -2.4820  0.5712  2.0273
  688MOL0     H92863   4.390   2.162   1.617  0.9580 -0.0120 -0.7427
  688MOL0     H92864   4.749   1.829   2.001  2.8196 -0.5954  0.6904
  688MOL0     H92865   4.997   1.873   2.053  0.9503 -2.0332 -0.6233
  688MOL0     H92866   6.114   3.335   1.905 -1.5190 -2.0721 -1.6138
  688MOL0     H92867   6.036   3.546   1.995  0.7590 -1.6377  0.4058
  688MOL0     H92868   5.760   3.919   1.839 -0.2195 -1.4522 -0.3562
  688MOL0     H92869   5.609   4.135   1.847 -1.8022  0.2593 -0.2976
  688MOL0     H92870   5.360   4.261   1.783  2.0724  0.4520  0.9974
  688MOL0     H92871   5.375   4.086   1.776 -1.7662 -2.0094  0.6406
  688MOL0     H92872   5.165   4.054   1.913 -2.4374  1.0107  0.2651
  688MOL0     H92873   5.136   4.135   1.756 -1.6403  0.2753  1.8304
  688MOL0     H92874   5.088   4.341   1.836 -0.1085 -1.3670 -0.3242
  688MOL0     H92875   5.200   4.339   1.967 -1.4675  0.0192  1.7588
  688MOL0     H92876   4.932   4.203   1.927  2.7166 -0.8131 -2.3313
  688MOL0     H92877   4.977   4.344   2.041  3.6481 -0.0674  1.3268
  688MOL0     H92878   5.083   4.026   2.292 -0.3262 -1.3438 -0.9453
  688MOL0     H92879   5.342   3.936   2.107  1.1104  1.4428  1.4679
  688MOL0     H92880   5.481   3.718   2.090  2.3937 -0.8988  0.1155
  689MOL0     O92881   1.476   3.208  10.062 -0.5774  0.4737  0.1368
  689MOL0     C92882   1.384   3.126  10.073  0.8631 -1.1890 -0.5567
  689MOL0     O92883   1.304   3.119  10.189  0.1444 -0.1102 -0.2434
  689MOL0     C92884   1.293   3.192  10.304 -0.1510 -0.3866  0.8707
  689MOL0     C92885   1.241   3.130  10.419 -0.4434  0.3519 -0.3835
  689MOL0     C92886   1.223   3.195  10.546 -0.0790 -0.1435 -0.1885
  689MOL0     C92887   1.284   3.322  10.559 -0.0789 -0.4515 -0.0698
  689MOL0     O92888   1.300   3.393  10.672 -0.7324  0.7192  0.0038
  689MOL0     C92889   1.255   3.334  10.798  0.1768  0.4963 -0.0807
  689MOL0     C92890   1.292   3.427  10.909  0.1549 -0.3985  0.0988
  689MOL0     C92891   1.213   3.561  10.912  0.1720  0.0926  1.1884
  689MOL0     C92892   1.259   3.637  11.021  0.8890 -0.4714 -0.0918
  689MOL0     C92893   1.167   3.764  11.030 -1.2170 -0.2895  0.2425
  689MOL0     C92894   1.195   3.828  11.167 -1.0416  0.4953 -0.2001
  689MOL0     C92895   1.337   3.886  11.181  0.7577 -0.1647 -0.2209
  689MOL0     C92896   1.358   3.942  11.327  0.6760  0.9545 -0.3332
  689MOL0     N92897   1.245   4.016  11.386 -0.4715  0.7644 -0.0658
  689MOL0     C92898   1.210   4.143  11.348 -0.0773 -0.5102  0.1983
  689MOL0     C92899   1.129   4.188  11.445  1.0113  0.5202  0.4295
  689MOL0     C92900   1.078   4.322  11.443  0.2479 -0.6913 -0.3342
  689MOL0     C92901   0.947   4.338  11.519 -0.5560 -0.3045 -0.2282
  689MOL0     C92902   0.911   4.480  11.553 -0.4824 -0.1982 -0.6863
  689MOL0     C92903   0.815   4.516  11.665 -0.0256 -0.1377 -0.3070
  689MOL0     O92904   0.779   4.653  11.651 -0.3140  0.4226 -0.8236
  689MOL0     C92905   0.667   4.692  11.716 -0.2897  0.0866 -0.5231
  689MOL0     C92906   0.614   4.635  11.831 -0.3998 -0.1759  0.0385
  689MOL0     C92907   0.503   4.690  11.892  0.3482 -0.9793 -0.3588
  689MOL0     C92908   0.450   4.615  12.017 -0.1948 -0.6189 -0.0757
  689MOL0     C92909   0.453   4.818  11.841  0.1698 -0.0579 -1.0670
  689MOL0     C92910   0.339   4.893  11.906 -0.4485 -0.8361 -0.0756
  689MOL0     O92911   0.287   4.847  12.021  0.3148 -0.0438 -0.0109
  689MOL0     C92912   0.199   4.917  12.105 -0.8042 -0.4944 -0.0668
  689MOL0     C92913   0.167   4.861  12.224 -0.0776  0.5010 -0.0903
  689MOL0     C92914   0.100   4.921  12.331 -0.5241  0.5456 -0.6899
  689MOL0     C92915   0.031   5.044  12.300  1.4510  0.5962 -0.0159
  689MOL0     O92916  -0.043   5.118  12.391  1.0868 -0.3453  0.3124
  689MOL0     C92917  -0.147   5.037  12.448  0.2859 -0.6315 -0.1098
  689MOL0     C92918  -0.227   5.134  12.539  0.7988 -1.2606  1.0096
  689MOL0     C92919  -0.347   5.070  12.613 -0.1888  0.4584  0.1487
  689MOL0     C92920  -0.431   5.161  12.689  0.7361 -0.4703  0.7196
  689MOL0     C92921  -0.539   5.070  12.750 -0.8748 -0.6578  1.0695
  689MOL0     C92922  -0.603   5.130  12.878 -0.6310  0.7409 -0.1749
  689MOL0     C92923  -0.527   5.109  13.015  0.4213 -1.2305  0.0018
  689MOL0     C92924  -0.605   5.184  13.119  1.0026  0.9031  0.1417
  689MOL0    Cl92925  -0.533   5.152  13.284  0.0245  0.0824 -0.0712
  689MOL0     C92926   0.066   5.116  12.182 -1.1765  0.2216  0.1002
  689MOL0     C92927   0.149   5.054  12.086  0.3215 -0.1483 -0.7962
  689MOL0     O92928   0.299   4.995  11.840 -0.0929  0.0330 -0.4159
  689MOL0     C92929   0.515   4.875  11.730 -0.0940 -0.3593  0.6418
  689MOL0     C92930   0.619   4.812  11.665 -0.5988  0.4022 -0.8476
  689MOL0     N92931   1.100   4.084  11.535  0.3215 -0.2467  0.0759
  689MOL0     N92932   1.169   3.977  11.494 -0.2227 -0.2392 -0.1234
  689MOL0     C92933   1.328   3.388  10.446 -0.0969 -0.4976 -0.1353
  689MOL0     C92934   1.323   3.323  10.314 -0.0248  0.7344  0.6636
  689MOL0     C92935   1.350   3.038   9.957 -0.0172  0.2753  0.9754
  689MOL0     C92936   1.245   2.941   9.956 -0.7181  0.4222  0.5309
  689MOL0     C92937   1.230   2.866   9.846 -0.6418  0.5659 -0.6138
  689MOL0     C92938   1.302   2.877   9.735 -0.2150  0.5081 -0.4677
  689MOL0     O92939   1.264   2.790   9.634 -0.3101 -0.0761  0.0298
  689MOL0     C92940   1.348   2.763   9.523 -0.5256 -0.5298 -0.1468
  689MOL0     C92941   1.444   2.661   9.582  0.3270 -0.0707 -0.1649
  689MOL0     C92942   1.369   2.527   9.562 -0.2337  0.5813 -0.6876
  689MOL0     C92943   1.448   2.406   9.615  0.8473 -0.1854  0.3678
  689MOL0     C92944   1.560   2.379   9.530  0.9296  0.5553  0.4977
  689MOL0     C92945   1.649   2.345   9.458 -0.1222  0.8620  0.6914
  689MOL0     C92946   1.404   2.976   9.729  0.5748 -1.2248  0.1911
  689MOL0     C92947   1.426   3.057   9.839  0.3741 -0.8211 -1.2602
  689MOL0     H92948   1.195   3.032  10.408  1.3053 -0.3706 -1.7815
  689MOL0     H92949   1.189   3.150  10.639  0.0456  4.6423  2.4887
  689MOL0     H92950   1.148   3.310  10.796  0.2486 -0.2348  2.3137
  689MOL0     H92951   1.314   3.242  10.803  3.0442  2.2772  0.8423
  689MOL0     H92952   1.280   3.369  11.001  2.8379  0.7044  1.2552
  689MOL0     H92953   1.397   3.457  10.908  0.0240  0.4655  2.9917
  689MOL0     H92954   1.222   3.622  10.822  0.8978 -2.5430 -0.6384
  689MOL0     H92955   1.113   3.518  10.922  0.1522 -0.2398 -0.2453
  689MOL0     H92956   1.273   3.581  11.114  0.1073  0.3652  0.5497
  689MOL0     H92957   1.360   3.670  10.995  1.0703  1.6298  2.7228
  689MOL0     H92958   1.205   3.835  10.956  0.1377  2.1830  3.0800
  689MOL0     H92959   1.060   3.749  11.015 -1.3617  0.8136  0.0366
  689MOL0     H92960   1.128   3.913  11.159 -2.0613 -0.4417 -3.8965
  689MOL0     H92961   1.163   3.757  11.244  1.1081 -1.4678 -0.9670
  689MOL0     H92962   1.418   3.814  11.163 -0.6193 -1.7621 -0.2357
  689MOL0     H92963   1.362   3.962  11.106  1.1025 -0.4428 -0.3893
  689MOL0     H92964   1.441   4.013  11.332  0.5009  1.0968  2.2150
  689MOL0     H92965   1.379   3.853  11.387  1.9696  1.7469  0.4304
  689MOL0     H92966   1.248   4.209  11.271  2.6997 -0.3078  1.6357
  689MOL0     H92967   1.160   4.387  11.477 -0.6451  1.5987 -2.2607
  689MOL0     H92968   1.061   4.360  11.342  3.5409 -0.5080 -0.9321
  689MOL0     H92969   0.936   4.289  11.616  3.3475 -1.4915 -0.2541
  689MOL0     H92970   0.873   4.295  11.451  0.3011  1.5681 -2.4831
  689MOL0     H92971   0.863   4.519  11.463 -2.0671  0.8935  0.5808
  689MOL0     H92972   1.002   4.536  11.581 -1.8776  0.6810  2.6433
  689MOL0     H92973   0.865   4.499  11.761  1.1739  1.5447 -0.5881
  689MOL0     H92974   0.720   4.462  11.667 -0.8928  1.3288  2.5408
  689MOL0     H92975   0.662   4.551  11.880 -0.2827  0.0149  0.2521
  689MOL0     H92976   0.500   4.518  12.025 -2.4161 -2.6880 -6.0907
  689MOL0     H92977   0.460   4.689  12.098  0.5313  3.0992 -3.2525
  689MOL0     H92978   0.344   4.596  12.000 -0.7242 -0.6729  2.7610
  689MOL0     H92979   0.218   4.766  12.239  0.6232  0.4538 -2.4511
  689MOL0     H92980   0.087   4.880  12.431 -1.8103  0.3813 -0.9099
  689MOL0     H92981  -0.221   4.990  12.383 -0.7192  0.4557  0.2166
  689MOL0     H92982  -0.110   4.950  12.503 -1.0689 -0.3779  1.2768
  689MOL0     H92983  -0.166   5.184  12.615  3.1692 -0.4034 -1.2876
  689MOL0     H92984  -0.283   5.210  12.484  2.7621 -0.6438 -0.2606
  689MOL0     H92985  -0.304   5.010  12.694 -0.1836  2.9077  2.1024
  689MOL0     H92986  -0.402   4.997  12.552 -1.1386 -1.0005  2.5958
  689MOL0     H92987  -0.361   5.207  12.759 -0.4465 -0.6316  2.0602
  689MOL0     H92988  -0.474   5.229  12.614  1.3702 -1.2920 -0.4088
  689MOL0     H92989  -0.516   4.967  12.777  0.3908 -0.1858  1.8462
  689MOL0     H92990  -0.624   5.056  12.682 -1.8434  3.6283  1.1090
  689MOL0     H92991  -0.633   5.234  12.860 -0.2232  0.9924  0.5347
  689MOL0     H92992  -0.696   5.075  12.895 -0.3963 -0.6431 -2.9785
  689MOL0     H92993  -0.433   5.166  13.018 -0.5987  0.4686  0.9497
  689MOL0     H92994  -0.526   5.001  13.036  0.1702 -0.9585  1.5125
  689MOL0     H92995  -0.709   5.148  13.118  1.6358 -1.5494  3.6339
  689MOL0     H92996  -0.612   5.290  13.093  2.1053  0.9636  0.0511
  689MOL0     H92997   0.045   5.219  12.158 -3.8280 -0.8984 -3.1203
  689MOL0     H92998   0.182   5.110  11.999 -0.6193 -1.1167 -1.8088
  689MOL0     H92999   0.488   4.969  11.683  2.5012  0.0816 -0.1601
  689MOL0     H93000   0.667   4.854  11.578 -2.0013  0.4574 -1.6237
  689MOL0     H93001   1.360   3.492  10.446 -2.3384  0.2504 -0.2127
  689MOL0     H93002   1.372   3.373  10.231  0.9630 -0.7765  0.2834
  689MOL0     H93003   1.175   2.923  10.036  0.6578 -3.0966  1.0962
  689MOL0     H93004   1.158   2.785   9.846 -3.0959  2.5905  0.8708
  689MOL0     H93005   1.295   2.727   9.435  1.2638  1.3765 -2.1376
  689MOL0     H93006   1.399   2.854   9.488 -0.3381 -0.3801  0.5062
  689MOL0     H93007   1.465   2.678   9.688  2.0787  0.1942 -0.5108
  689MOL0     H93008   1.532   2.665   9.516 -0.1105  2.2001 -0.6894
  689MOL0     H93009   1.356   2.504   9.456 -1.0070 -1.0608 -0.2827
  689MOL0     H93010   1.278   2.513   9.622  1.0493 -1.0845  1.0334
  689MOL0     H93011   1.389   2.314   9.623  4.0887 -2.3864  0.7310
  689MOL0     H93012   1.484   2.438   9.714 -0.8707 -0.1320  1.0163
  689MOL0     H93013   1.731   2.312   9.399  1.3341  0.1481  2.9809
  689MOL0     H93014   1.465   2.980   9.640 -4.0974  2.9253 -3.4053
  689MOL0     H93015   1.496   3.140   9.836 -0.1055 -0.3529 -0.2113
  690MOL0     O93016   4.563  11.223  11.467 -0.6502  0.0245  0.4737
  690MOL0     C93017   4.676  11.264  11.446 -0.0764 -0.4404 -0.0993
  690MOL0     O93018   4.712  11.334  11.342  0.8953  0.3673  1.5562
  690MOL0     C93019   4.623  11.379  11.240  0.8581 -0.7735  0.0232
  690MOL0     C93020   4.491  11.417  11.270  0.5313 -0.2033  0.3005
  690MOL0     C93021   4.400  11.440  11.166 -0.1453 -0.6524 -1.0328
  690MOL0     C93022   4.441  11.443  11.036  0.1068  0.3413  0.1784
  690MOL0     O93023   4.344  11.465  10.940  0.9047 -1.2068  0.2660
  690MOL0     C93024   4.389  11.472  10.806  0.7074 -0.5254  0.2984
  690MOL0     C93025   4.274  11.484  10.705 -0.4845 -0.1253 -0.4761
  690MOL0     C93026   4.244  11.626  10.694 -0.4283  0.4085 -0.2326
  690MOL0     C93027   4.110  11.647  10.607  0.3020  0.2599 -0.4417
  690MOL0     C93028   4.121  11.765  10.510 -0.5760  0.1720 -0.8933
  690MOL0     C93029   4.201  11.718  10.385 -0.4902 -0.0138 -0.4254
  690MOL0     C93030   4.118  11.628  10.289 -0.0726 -0.4209 -0.1426
  690MOL0     C93031   4.188  11.483  10.265 -0.9816 -0.4069  0.3495
  690MOL0     N93032   4.301  11.486  10.177 -0.0217 -0.2635 -0.1127
  690MOL0     C93033   4.423  11.429  10.201 -0.3277 -0.0149 -1.2974
  690MOL0     C93034   4.485  11.421  10.081  0.2856 -0.1271 -0.3157
  690MOL0     C93035   4.617  11.364  10.031 -0.4262 -0.2066 -0.0222
  690MOL0     C93036   4.603  11.293   9.896  0.3507 -0.5928  0.5668
  690MOL0     C93037   4.500  11.183   9.915 -0.5741  1.6230  0.9753
  690MOL0     C93038   4.515  11.099   9.785 -0.0270  0.0779  0.1717
  690MOL0     O93039   4.425  10.996   9.816 -0.5172  0.5621  0.2831
  690MOL0     C93040   4.435  10.876   9.743  0.7120  1.0632  0.1771
  690MOL0     C93041   4.492  10.856   9.611  0.0822 -0.4339 -0.1182
  690MOL0     C93042   4.501  10.730   9.561 -0.7908 -0.3622  0.5438
  690MOL0     C93043   4.588  10.729   9.440 -0.8823 -0.0149 -0.3902
  690MOL0     C93044   4.452  10.619   9.630 -0.3665 -0.1132  0.1121
  690MOL0     C93045   4.446  10.474   9.569 -0.1792  0.2644  0.2524
  690MOL0     O93046   4.447  10.379   9.668 -0.6581 -0.6001  0.0292
  690MOL0     C93047   4.428  10.252   9.619 -0.4833  0.3873 -0.1258
  690MOL0     C93048   4.324  10.210   9.542 -0.0459  0.5630 -0.6213
  690MOL0     C93049   4.314  10.071   9.508 -0.1237 -0.2592 -0.0704
  690MOL0     C93050   4.413   9.975   9.538 -0.2881 -0.3962 -1.2059
  690MOL0     O93051   4.387   9.847   9.492 -0.3662  0.2273 -1.1209
  690MOL0     C93052   4.499   9.753   9.479  0.4434 -0.6528 -0.6426
  690MOL0     C93053   4.458   9.605   9.496 -0.6720 -0.3355  0.1342
  690MOL0     C93054   4.334   9.574   9.414  0.2741  0.4382  0.1852
  690MOL0     C93055   4.273   9.446   9.470 -0.9001 -0.5783  0.2669
  690MOL0     C93056   4.237   9.449   9.615 -0.5509  0.2094  0.5386
  690MOL0     C93057   4.130   9.348   9.643  0.3761  0.5299 -0.2678
  690MOL0     C93058   4.093   9.339   9.798 -0.8489  0.4685  0.2560
  690MOL0     C93059   3.970   9.263   9.824 -0.3233 -0.5379  0.2010
  690MOL0    Cl93060   3.943   9.113   9.719 -0.1023  0.1905  0.0186
  690MOL0     C93061   4.511  10.016   9.629 -0.1021 -0.2655  0.2147
  690MOL0     C93062   4.517  10.153   9.674  0.2220 -1.0184  0.4766
  690MOL0     O93063   4.448  10.454   9.446  0.6029 -0.3405 -1.2101
  690MOL0     C93064   4.410  10.638   9.764 -0.8310 -0.1613  0.0946
  690MOL0     C93065   4.396  10.764   9.815 -0.1240  0.3488 -0.7307
  690MOL0     N93066   4.405  11.487   9.988 -0.1730  0.3503  1.2151
  690MOL0     N93067   4.294  11.523  10.047  0.1321  1.0627 -0.9442
  690MOL0     C93068   4.573  11.421  11.001  0.5156 -0.6874 -0.7546
  690MOL0     C93069   4.663  11.394  11.110  0.5950 -0.2702  0.5433
  690MOL0     C93070   4.786  11.244  11.548 -0.1237 -0.6110  0.0606
  690MOL0     C93071   4.896  11.331  11.539  0.3569 -0.3251  0.7357
  690MOL0     C93072   4.999  11.318  11.631  0.8413 -0.1908  0.4594
  690MOL0     C93073   4.992  11.232  11.738 -0.1746  0.1940 -0.3964
  690MOL0     O93074   5.095  11.189  11.817  0.1802 -0.0542  0.1893
  690MOL0     C93075   5.234  11.228  11.794 -0.4082  0.0218  0.3702
  690MOL0     C93076   5.314  11.198  11.912 -0.7040 -0.2119 -0.1047
  690MOL0     C93077   5.298  11.047  11.964  0.7416 -0.9560 -0.2198
  690MOL0     C93078   5.398  11.009  12.082 -0.5642  0.8478  0.4486
  690MOL0     C93079   5.391  10.860  12.082 -0.5719 -0.1571 -0.0777
  690MOL0     C93080   5.367  10.740  12.067 -0.0099  0.1475  0.2150
  690MOL0     C93081   4.877  11.161  11.755  0.2796  0.4541  0.0291
  690MOL0     C93082   4.775  11.165  11.658 -0.6329  0.4156 -0.0479
  690MOL0     H93083   4.461  11.421  11.374 -1.6793  0.8568 -0.3144
  690MOL0     H93084   4.294  11.448  11.189 -0.1083 -2.7334  0.0848
  690MOL0     H93085   4.468  11.545  10.789  0.8563 -0.8235 -0.3195
  690MOL0     H93086   4.430  11.374  10.780 -0.2393 -0.8980  0.1428
  690MOL0     H93087   4.296  11.435  10.610 -0.9892 -0.4434 -0.4353
  690MOL0     H93088   4.184  11.441  10.750 -2.2007  1.9428 -1.7669
  690MOL0     H93089   4.219  11.671  10.790 -2.5679 -0.5665 -0.2709
  690MOL0     H93090   4.338  11.662  10.652 -1.2480  1.8963 -0.8424
  690MOL0     H93091   4.078  11.563  10.544  3.7358  0.2810 -2.4654
  690MOL0     H93092   4.031  11.669  10.680 -2.4779 -0.6498 -2.9819
  690MOL0     H93093   4.027  11.815  10.487  0.2407  1.4326 -1.5957
  690MOL0     H93094   4.175  11.841  10.568 -0.6539 -1.2287  1.1190
  690MOL0     H93095   4.236  11.805  10.327  3.6782 -1.0071  0.2533
  690MOL0     H93096   4.289  11.669  10.427  0.5402 -0.4753 -2.9406
  690MOL0     H93097   4.019  11.602  10.327  0.3730 -4.1385 -1.0691
  690MOL0     H93098   4.111  11.675  10.190  5.0415 -0.3777 -0.7671
  690MOL0     H93099   4.114  11.404  10.248  0.0289 -1.2660 -0.1830
  690MOL0     H93100   4.236  11.465  10.362  0.5152 -0.2460 -0.3307
  690MOL0     H93101   4.464  11.385  10.291 -1.2769 -1.5511 -1.5818
  690MOL0     H93102   4.694  11.442  10.037 -0.6439 -0.0873  1.7366
  690MOL0     H93103   4.658  11.283  10.091 -1.3482 -0.2376  0.5855
  690MOL0     H93104   4.697  11.243   9.873 -0.6219 -2.8228  1.1741
  690MOL0     H93105   4.581  11.358   9.811  3.1600  0.3973  0.4965
  690MOL0     H93106   4.397  11.217   9.927 -0.9310  0.8670  0.1598
  690MOL0     H93107   4.525  11.118  10.000  0.3699  3.5868  2.2696
  690MOL0     H93108   4.617  11.072   9.757  0.0295  0.4075  0.0607
  690MOL0     H93109   4.473  11.153   9.700 -0.9760  0.3507  0.7932
  690MOL0     H93110   4.528  10.946   9.563 -2.1976 -0.5674 -2.3104
  690MOL0     H93111   4.687  10.771   9.462 -1.6866  1.5703  0.3361
  690MOL0     H93112   4.618  10.629   9.407  1.6881  0.6791 -0.3645
  690MOL0     H93113   4.534  10.784   9.362  0.0141  4.5949  1.9194
  690MOL0     H93114   4.251  10.276   9.497 -0.7687 -0.4073 -0.8992
  690MOL0     H93115   4.225  10.042   9.453 -2.7649  0.1251  3.6172
  690MOL0     H93116   4.546   9.763   9.381  0.7218 -0.9258 -0.5369
  690MOL0     H93117   4.579   9.780   9.549 -0.8525 -0.0765  0.6697
  690MOL0     H93118   4.542   9.546   9.458  1.4058  0.4625  3.0980
  690MOL0     H93119   4.453   9.565   9.597  0.2499 -2.7369 -0.6989
  690MOL0     H93120   4.358   9.559   9.308 -0.6824 -1.3716  0.2029
  690MOL0     H93121   4.253   9.647   9.418  1.5547  1.9436  0.1030
  690MOL0     H93122   4.181   9.444   9.410 -1.2176  3.1803  0.4025
  690MOL0     H93123   4.339   9.359   9.462 -0.6846 -0.4636  0.8180
  690MOL0     H93124   4.198   9.549   9.635 -0.7508  0.0454  0.9934
  690MOL0     H93125   4.325   9.428   9.677  0.5323  1.4726 -0.5180
  690MOL0     H93126   4.045   9.356   9.575  0.4587 -0.1418 -0.4676
  690MOL0     H93127   4.172   9.257   9.598 -0.3265  1.7157 -3.5879
  690MOL0     H93128   4.091   9.436   9.849  0.0961  0.4811  0.3027
  690MOL0     H93129   4.176   9.286   9.847  0.7088  3.0285  0.5844
  690MOL0     H93130   3.891   9.329   9.787  3.3045  3.1944 -1.6596
  690MOL0     H93131   3.959   9.237   9.930 -2.4443 -1.2598 -0.1319
  690MOL0     H93132   4.595   9.953   9.656 -1.7215 -2.0946  1.2368
  690MOL0     H93133   4.594  10.192   9.740  1.4248  1.0331 -1.9588
  690MOL0     H93134   4.383  10.557   9.830 -1.4594 -0.5098 -0.5673
  690MOL0     H93135   4.374  10.789   9.918  1.9616  1.8947 -0.6052
  690MOL0     H93136   4.622  11.419  10.905  1.6264  1.1456 -0.2666
  690MOL0     H93137   4.769  11.378  11.092  0.7647  1.0269  0.2985
  690MOL0     H93138   4.891  11.411  11.467 -2.0694  1.5902  2.8592
  690MOL0     H93139   5.082  11.387  11.624 -1.1002  2.1636 -0.9635
  690MOL0     H93140   5.267  11.178  11.702  0.5785 -0.6597  1.0635
  690MOL0     H93141   5.242  11.335  11.773 -0.2155  0.2433  1.4872
  690MOL0     H93142   5.292  11.270  11.992 -2.0963 -0.7999  0.0647
  690MOL0     H93143   5.420  11.214  11.893  0.5514 -3.6678  2.9706
  690MOL0     H93144   5.297  10.981  11.877 -1.2679 -0.6622 -0.4789
  690MOL0     H93145   5.208  11.039  12.026  0.4827  2.4456  0.0881
  690MOL0     H93146   5.361  11.049  12.177 -1.0542 -1.2574  1.1792
  690MOL0     H93147   5.493  11.050  12.047  0.8948 -2.1258  0.6670
  690MOL0     H93148   5.364  10.633  12.070 -1.1320  0.0283 -2.2429
  690MOL0     H93149   4.848  11.102  11.841  0.4610  0.6294  0.2101
  690MOL0     H93150   4.693  11.094  11.666 -0.3122 -0.1194 -1.2000
  691MOL0     O93151   7.411   3.118   8.391  0.5827  0.1072  0.2311
  691MOL0     C93152   7.359   3.226   8.365  0.1115  0.0038  0.0369
  691MOL0     O93153   7.337   3.271   8.236 -0.2941  0.4979  0.3309
  691MOL0     C93154   7.382   3.198   8.130 -0.6620  0.1945 -0.2246
  691MOL0     C93155   7.513   3.141   8.125  1.0631 -0.4619 -0.1185
  691MOL0     C93156   7.555   3.063   8.013  0.0873  0.2650 -0.3426
  691MOL0     C93157   7.457   3.039   7.904  0.1612  0.4477 -0.4802
  691MOL0     O93158   7.473   2.959   7.797 -0.5621 -0.3863  0.6133
  691MOL0     C93159   7.608   2.908   7.778  0.0268  0.7145 -0.2888
  691MOL0     C93160   7.631   2.803   7.677 -0.0547 -0.0901  0.6357
  691MOL0     C93161   7.738   2.699   7.707 -0.0692 -0.7444  0.0616
  691MOL0     C93162   7.781   2.623   7.590 -0.2290  0.0973  0.1547
  691MOL0     C93163   7.886   2.519   7.611  0.8268 -0.1842  1.0427
  691MOL0     C93164   7.838   2.395   7.689 -0.0840  0.6922  0.7141
  691MOL0     C93165   7.944   2.284   7.709 -0.5873 -0.7335 -0.4564
  691MOL0     C93166   7.992   2.227   7.576 -0.9658  0.2965  0.4509
  691MOL0     N93167   8.020   2.086   7.587  0.6954  0.1806 -0.8639
  691MOL0     C93168   7.923   1.982   7.568 -0.3484 -0.6567 -0.3839
  691MOL0     C93169   7.998   1.872   7.590  0.5460 -0.3443 -0.2862
  691MOL0     C93170   7.949   1.723   7.586 -0.0476  0.8467  1.1462
  691MOL0     C93171   7.803   1.707   7.539 -0.3630  0.3570 -0.5244
  691MOL0     C93172   7.762   1.560   7.562  0.5615 -0.1903 -0.6745
  691MOL0     C93173   7.609   1.550   7.544 -0.4350  0.6488 -0.0243
  691MOL0     O93174   7.551   1.585   7.415 -0.3231 -0.4373 -0.5734
  691MOL0     C93175   7.504   1.504   7.313  0.3516 -0.7691 -0.5565
  691MOL0     C93176   7.487   1.363   7.328 -0.2265 -0.0346 -0.5956
  691MOL0     C93177   7.428   1.288   7.232 -0.1239  1.1226 -0.8065
  691MOL0     C93178   7.406   1.146   7.264  0.0628 -0.2010  0.2060
  691MOL0     C93179   7.382   1.351   7.114  0.6449  0.2166 -0.1497
  691MOL0     C93180   7.350   1.276   6.987 -0.2892  0.1956  0.6120
  691MOL0     O93181   7.314   1.350   6.872  0.4269 -0.3205  0.1523
  691MOL0     C93182   7.275   1.277   6.754  0.3250 -0.9652  0.3380
  691MOL0     C93183   7.354   1.281   6.636 -0.2153  0.0328 -0.2753
  691MOL0     C93184   7.325   1.210   6.523 -0.2513 -1.1624 -0.1092
  691MOL0     C93185   7.190   1.149   6.514  0.1532  0.3749  0.0263
  691MOL0     O93186   7.158   1.073   6.406  0.6861 -0.5712 -0.2343
  691MOL0     C93187   7.253   0.977   6.345 -0.2720 -0.5046 -0.4962
  691MOL0     C93188   7.176   0.885   6.244 -0.8468  0.0102 -0.0326
  691MOL0     C93189   7.170   0.943   6.093 -0.4558 -0.1237 -0.4800
  691MOL0     C93190   7.304   0.988   6.031  0.5203 -0.3986  0.2321
  691MOL0     C93191   7.274   1.025   5.878 -1.2875  0.6111  0.1803
  691MOL0     C93192   7.412   1.072   5.825 -1.3284 -0.6170  1.3535
  691MOL0     C93193   7.409   1.137   5.688  1.1376  0.5080  0.0621
  691MOL0     C93194   7.355   1.053   5.568  0.7594  0.2499  0.5496
  691MOL0    Cl93195   7.265   1.169   5.475 -0.0899 -0.5206  0.2188
  691MOL0     C93196   7.103   1.157   6.619 -0.0594  0.4844 -0.4255
  691MOL0     C93197   7.147   1.223   6.734  0.2912 -0.3350 -0.9677
  691MOL0     O93198   7.365   1.153   6.990  0.8738  0.1019 -0.2574
  691MOL0     C93199   7.393   1.489   7.098  0.7584  0.7888  0.5841
  691MOL0     C93200   7.457   1.567   7.197 -0.7014 -0.3423  0.1803
  691MOL0     N93201   8.128   1.904   7.620 -0.3288 -0.2253 -0.1320
  691MOL0     N93202   8.138   2.034   7.613 -0.0738 -0.8467 -0.0977
  691MOL0     C93203   7.333   3.109   7.914  0.4684  0.3871 -0.3561
  691MOL0     C93204   7.304   3.188   8.012  0.2434 -0.7358  1.4024
  691MOL0     C93205   7.335   3.316   8.468  0.0847 -0.7409 -0.9612
  691MOL0     C93206   7.274   3.442   8.433 -0.0944 -0.7462  0.1714
  691MOL0     C93207   7.247   3.535   8.534 -0.5771  0.2181 -0.1240
  691MOL0     C93208   7.258   3.512   8.673 -0.4928  0.2984  0.3451
  691MOL0     O93209   7.210   3.594   8.773 -0.2600  0.5390  0.4820
  691MOL0     C93210   7.066   3.617   8.767 -0.6952  0.4336 -0.2516
  691MOL0     C93211   7.034   3.705   8.893  0.3487 -0.2378 -0.2398
  691MOL0     C93212   7.104   3.638   9.016  0.4165 -0.4722 -0.1011
  691MOL0     C93213   7.037   3.682   9.149 -0.0092  0.2800 -0.2264
  691MOL0     C93214   7.061   3.818   9.186 -0.3413  0.0361  0.1819
  691MOL0     C93215   7.100   3.927   9.211 -0.3200 -0.5392 -0.0580
  691MOL0     C93216   7.318   3.384   8.713  0.4611  1.3945  0.1364
  691MOL0     C93217   7.360   3.293   8.607  0.3051  0.8205  0.1308
  691MOL0     H93218   7.575   3.153   8.214 -0.6588 -0.2137  1.0807
  691MOL0     H93219   7.658   3.030   8.020 -0.1243 -0.2006  0.8382
  691MOL0     H93220   7.676   2.991   7.759  1.5241 -0.6677 -1.1987
  691MOL0     H93221   7.643   2.862   7.871  2.8708  2.1258 -0.5659
  691MOL0     H93222   7.537   2.749   7.667  1.2150 -2.4538  0.5922
  691MOL0     H93223   7.657   2.861   7.588  2.2630 -1.4475  0.3231
  691MOL0     H93224   7.828   2.750   7.744  0.9505 -1.4205 -1.3690
  691MOL0     H93225   7.703   2.641   7.792  1.3459  1.5819  2.4010
  691MOL0     H93226   7.692   2.570   7.552 -0.8244 -2.1469  4.1482
  691MOL0     H93227   7.815   2.698   7.518 -4.3403  0.5811 -1.5757
  691MOL0     H93228   7.918   2.482   7.513 -1.5839 -2.0739  0.8853
  691MOL0     H93229   7.977   2.556   7.659  0.1305  1.5811  1.0962
  691MOL0     H93230   7.808   2.421   7.792 -1.5822 -1.0230  0.7652
  691MOL0     H93231   7.746   2.353   7.648 -0.4431  0.5106  1.6812
  691MOL0     H93232   8.027   2.325   7.767  0.1518 -3.3511  0.4425
  691MOL0     H93233   7.901   2.204   7.770  0.1014 -1.2904 -0.6857
  691MOL0     H93234   8.080   2.286   7.548  0.4563 -1.6033  0.7117
  691MOL0     H93235   7.921   2.245   7.495  0.8184 -0.1583 -1.3066
  691MOL0     H93236   7.817   1.976   7.545 -0.3258 -1.4362 -0.3098
  691MOL0     H93237   8.021   1.679   7.517 -1.0368  2.0473 -0.7576
  691MOL0     H93238   7.971   1.664   7.675  0.7567  0.8344  0.9431
  691MOL0     H93239   7.788   1.750   7.440  3.4855  0.1239 -1.3599
  691MOL0     H93240   7.756   1.772   7.614 -2.5910 -3.6759  1.9950
  691MOL0     H93241   7.791   1.529   7.663  2.9060  0.0794 -1.2081
  691MOL0     H93242   7.817   1.495   7.493 -1.6119  0.7541 -3.4911
  691MOL0     H93243   7.562   1.604   7.627 -1.8859 -0.4497 -0.0901
  691MOL0     H93244   7.585   1.446   7.570  4.2111 -0.0742  2.4982
  691MOL0     H93245   7.509   1.308   7.419 -2.2383  1.0824  0.6559
  691MOL0     H93246   7.485   1.079   7.230 -1.4276 -2.6239  1.2517
  691MOL0     H93247   7.400   1.138   7.373  0.8519 -2.2346  0.1416
  691MOL0     H93248   7.315   1.102   7.222  1.0134 -0.0302 -2.2196
  691MOL0     H93249   7.441   1.344   6.648 -0.8408  0.5357  1.9851
  691MOL0     H93250   7.395   1.197   6.441  0.3936 -0.9249  0.3964
  691MOL0     H93251   7.338   1.028   6.299 -4.0790  2.3981 -5.3115
  691MOL0     H93252   7.291   0.908   6.421 -0.9625 -0.3865 -0.0395
  691MOL0     H93253   7.232   0.792   6.237  0.6691  0.9085 -0.5017
  691MOL0     H93254   7.072   0.868   6.271 -0.9903 -0.4854 -0.8476
  691MOL0     H93255   7.102   1.029   6.088 -0.4640 -0.0176  0.9356
  691MOL0     H93256   7.124   0.867   6.029  2.3654  0.1502 -2.9973
  691MOL0     H93257   7.336   1.082   6.076  1.4707 -0.7779  0.3748
  691MOL0     H93258   7.378   0.907   6.040  0.5308 -0.7900 -2.5567
  691MOL0     H93259   7.202   1.104   5.855 -1.5418 -0.0148 -1.2881
  691MOL0     H93260   7.227   0.948   5.816 -1.0289  2.0315 -1.8985
  691MOL0     H93261   7.445   1.151   5.894 -2.8404  0.4322  0.9385
  691MOL0     H93262   7.481   0.988   5.825 -0.2088  0.2749  2.3731
  691MOL0     H93263   7.513   1.154   5.661  0.3805  1.3927 -2.6788
  691MOL0     H93264   7.359   1.234   5.693 -1.5339 -0.3408 -4.2491
  691MOL0     H93265   7.291   0.972   5.605  1.7636 -0.6970  0.2590
  691MOL0     H93266   7.431   1.004   5.507 -2.4626 -0.3152 -3.3794
  691MOL0     H93267   7.012   1.099   6.612  0.7844 -0.7784 -1.2645
  691MOL0     H93268   7.079   1.220   6.819 -0.1259 -2.9357 -1.3301
  691MOL0     H93269   7.366   1.553   7.014 -1.4381  1.3553  1.6390
  691MOL0     H93270   7.471   1.673   7.181  0.6611 -0.4909  0.3125
  691MOL0     H93271   7.264   3.091   7.831  1.7135 -0.1532 -1.3075
  691MOL0     H93272   7.208   3.239   8.011  1.8794  2.5903  0.8695
  691MOL0     H93273   7.236   3.455   8.332 -0.8848 -1.6411  0.3395
  691MOL0     H93274   7.205   3.633   8.510  2.1083  1.8857  1.4107
  691MOL0     H93275   7.050   3.670   8.673 -1.0737  1.3103  0.2999
  691MOL0     H93276   7.015   3.521   8.759  0.6045 -0.5583  2.3204
  691MOL0     H93277   6.925   3.700   8.909  0.5981 -1.6812  1.2628
  691MOL0     H93278   7.058   3.812   8.897 -0.3453 -0.1074  1.1560
  691MOL0     H93279   7.208   3.672   9.023  0.4490 -0.7721  1.1326
  691MOL0     H93280   7.096   3.530   9.000  2.0249 -0.4254 -1.5613
  691MOL0     H93281   7.072   3.627   9.237  2.2409  2.1835  0.1592
  691MOL0     H93282   6.929   3.668   9.136 -0.1642 -0.7678  1.6942
  691MOL0     H93283   7.152   4.009   9.255 -1.0460 -0.6561  1.0708
  691MOL0     H93284   7.341   3.341   8.810 -0.0481 -1.9727 -1.1102
  691MOL0     H93285   7.412   3.201   8.630 -0.2703 -0.0677 -1.9185
  692MOL0     O93286   8.093   4.970  11.047 -0.1014 -0.2943  0.2127
  692MOL0     C93287   7.984   5.017  11.026 -0.6195  1.0208 -0.7782
  692MOL0     O93288   7.873   4.967  11.089  1.0645 -0.7789 -0.4473
  692MOL0     C93289   7.857   4.838  11.150  0.2393  0.2550 -1.0544
  692MOL0     C93290   7.726   4.812  11.204  0.0518  0.1838 -0.4938
  692MOL0     C93291   7.708   4.697  11.274 -0.0201 -0.3956  0.7436
  692MOL0     C93292   7.805   4.595  11.273 -0.2361  0.7688  0.1768
  692MOL0     O93293   7.800   4.483  11.347 -0.2136  0.0100  0.2037
  692MOL0     C93294   7.673   4.417  11.338  0.7130  0.8036 -0.4927
  692MOL0     C93295   7.607   4.417  11.471 -0.2556  0.8814  0.5680
  692MOL0     C93296   7.513   4.289  11.493 -0.2043  0.1426  0.6949
  692MOL0     C93297   7.537   4.218  11.631  0.2792  0.8355  0.3219
  692MOL0     C93298   7.449   4.096  11.646  0.1332  0.6164  0.0683
  692MOL0     C93299   7.480   3.973  11.560  0.0296  1.2758  0.6182
  692MOL0     C93300   7.379   3.857  11.567  0.8988 -1.3418  0.3595
  692MOL0     C93301   7.393   3.767  11.438  0.6170  1.0393  0.3608
  692MOL0     N93302   7.526   3.693  11.429  0.3498 -0.3846 -0.1347
  692MOL0     C93303   7.559   3.576  11.494 -0.0214 -0.1479  0.3316
  692MOL0     C93304   7.684   3.553  11.451  0.6042  0.2417 -0.2770
  692MOL0     C93305   7.749   3.428  11.505 -0.3058 -0.4198 -0.4158
  692MOL0     C93306   7.654   3.306  11.505  0.1374  0.1486  0.5523
  692MOL0     C93307   7.638   3.240  11.366 -0.0134 -0.2358 -0.3748
  692MOL0     C93308   7.559   3.112  11.380 -0.2293  0.3765  0.3827
  692MOL0     O93309   7.654   3.001  11.394 -0.5799  0.7694 -0.3350
  692MOL0     C93310   7.608   2.874  11.368  0.3893 -0.1301 -0.4696
  692MOL0     C93311   7.482   2.825  11.361 -0.3144 -0.5577  0.2572
  692MOL0     C93312   7.450   2.694  11.334 -0.1923 -0.9345 -0.1523
  692MOL0     C93313   7.304   2.672  11.328  0.2760  1.0533  0.3976
  692MOL0     C93314   7.550   2.598  11.308 -0.2915 -0.0330 -0.1075
  692MOL0     C93315   7.523   2.456  11.270 -0.3655 -0.4644 -0.5129
  692MOL0     O93316   7.408   2.393  11.307  0.5501 -0.4785 -0.0718
  692MOL0     C93317   7.393   2.267  11.261  0.9254 -0.4301  0.2280
  692MOL0     C93318   7.370   2.256  11.127  0.5338  0.9487  0.1519
  692MOL0     C93319   7.382   2.128  11.059  1.0639  1.3995 -0.4169
  692MOL0     C93320   7.412   2.005  11.133 -0.6194  0.0272  0.0620
  692MOL0     O93321   7.432   1.882  11.084 -0.4395  1.0822  0.3470
  692MOL0     C93322   7.362   1.833  10.970  0.2255  0.7833  1.6411
  692MOL0     C93323   7.212   1.800  11.006 -0.4660  0.6896  0.5652
  692MOL0     C93324   7.135   1.774  10.875 -0.4738 -1.0335 -0.7354
  692MOL0     C93325   6.995   1.707  10.916 -0.9674 -0.3003  0.8513
  692MOL0     C93326   6.895   1.715  10.798 -0.2736 -0.2440  0.3642
  692MOL0     C93327   6.749   1.663  10.832  0.9989 -0.7604 -0.3701
  692MOL0     C93328   6.637   1.699  10.733 -0.2560 -0.3690 -0.5596
  692MOL0     C93329   6.658   1.610  10.607 -0.4898 -0.4666 -0.5307
  692MOL0    Cl93330   6.691   1.429  10.633  0.3626  0.3589  0.0354
  692MOL0     C93331   7.427   2.028  11.269  1.1651 -0.7330 -0.1521
  692MOL0     C93332   7.416   2.153  11.334 -0.2273 -0.0046 -0.4096
  692MOL0     O93333   7.627   2.395  11.229  0.4917  0.2883  0.2019
  692MOL0     C93334   7.686   2.645  11.322 -0.0855 -0.0809 -0.6293
  692MOL0     C93335   7.713   2.784  11.349 -0.2941 -0.3334 -0.3542
  692MOL0     N93336   7.727   3.645  11.357  0.0141  0.3669  1.1292
  692MOL0     N93337   7.623   3.722  11.343  0.6965 -0.3334 -0.2147
  692MOL0     C93338   7.935   4.611  11.219  0.4247  0.3015  0.3688
  692MOL0     C93339   7.955   4.736  11.156 -0.1227  0.4599 -0.0416
  692MOL0     C93340   7.977   5.136  10.942  0.3602 -0.1931 -0.0288
  692MOL0     C93341   7.856   5.220  10.954 -0.2181  0.5745 -0.6351
  692MOL0     C93342   7.852   5.335  10.879  0.9995 -0.1474  0.8973
  692MOL0     C93343   7.955   5.369  10.789  0.0105 -0.4766 -0.7724
  692MOL0     O93344   7.946   5.478  10.705  0.0427  0.0602 -0.4612
  692MOL0     C93345   8.037   5.491  10.591 -0.8307 -0.1858  0.3811
  692MOL0     C93346   8.148   5.586  10.593 -1.2523 -0.5046  0.1061
  692MOL0     C93347   8.101   5.715  10.665  0.6096  0.4223 -0.6170
  692MOL0     C93348   8.206   5.828  10.642 -0.0472 -0.2143  0.0102
  692MOL0     C93349   8.191   5.863  10.503  0.1570 -0.8972 -0.3200
  692MOL0     C93350   8.184   5.887  10.383 -0.5201  0.9738 -0.8886
  692MOL0     C93351   8.072   5.285  10.789  0.7547  0.1490 -0.1679
  692MOL0     C93352   8.086   5.177  10.869  0.1720 -0.3701  1.0017
  692MOL0     H93353   7.655   4.894  11.192 -0.4163 -0.1623 -0.1449
  692MOL0     H93354   7.608   4.693  11.317 -1.6157  4.0176 -1.8848
  692MOL0     H93355   7.603   4.455  11.264  1.1231  2.0973 -0.2386
  692MOL0     H93356   7.689   4.312  11.313 -2.6526 -0.3762  1.6591
  692MOL0     H93357   7.693   4.425  11.538  0.5756  0.0991 -0.3841
  692MOL0     H93358   7.540   4.502  11.488 -0.2171  1.0791 -0.2250
  692MOL0     H93359   7.409   4.320  11.486  0.1743  1.2454 -0.3938
  692MOL0     H93360   7.537   4.218  11.413  2.5973 -1.2021  2.5753
  692MOL0     H93361   7.640   4.183  11.640  1.7016  2.3055 -5.5234
  692MOL0     H93362   7.501   4.287  11.709  1.4335  0.4531  1.2067
  692MOL0     H93363   7.454   4.061  11.749  2.3240  2.0055  0.4958
  692MOL0     H93364   7.346   4.127  11.623  0.3467  2.9640  1.9320
  692MOL0     H93365   7.486   4.014  11.459 -1.7063 -0.6132 -0.3261
  692MOL0     H93366   7.579   3.932  11.580  0.5756  2.4669  0.4559
  692MOL0     H93367   7.395   3.802  11.659 -0.1463 -0.5548  1.0273
  692MOL0     H93368   7.280   3.903  11.572  2.0600  1.4052  0.3456
  692MOL0     H93369   7.368   3.826  11.350 -0.0858  0.2293  0.0046
  692MOL0     H93370   7.321   3.685  11.440 -2.0833  3.1992 -1.1304
  692MOL0     H93371   7.495   3.523  11.564 -2.5106  0.7358 -1.1394
  692MOL0     H93372   7.833   3.393  11.443  0.6462  0.5662  0.2770
  692MOL0     H93373   7.787   3.455  11.604 -0.0212 -0.2709 -0.5637
  692MOL0     H93374   7.555   3.335  11.543  0.4924  2.8667 -0.3393
  692MOL0     H93375   7.688   3.227  11.572 -0.4006  1.3322  2.2845
  692MOL0     H93376   7.740   3.221  11.331  0.5823  2.7901 -0.5599
  692MOL0     H93377   7.590   3.316  11.303  0.4465 -0.5515 -1.1268
  692MOL0     H93378   7.518   3.091  11.281  2.0395  0.7556 -0.7053
  692MOL0     H93379   7.487   3.126  11.461 -2.2395  0.5521 -1.3663
  692MOL0     H93380   7.401   2.896  11.379  0.8272  1.5407 -2.2211
  692MOL0     H93381   7.251   2.637  11.417 -0.9830  3.0774  0.5023
  692MOL0     H93382   7.248   2.762  11.302 -0.4459 -0.4360 -3.8373
  692MOL0     H93383   7.282   2.597  11.252 -1.7255 -1.0410  2.8720
  692MOL0     H93384   7.359   2.343  11.063  0.1741 -0.7493 -2.2135
  692MOL0     H93385   7.382   2.125  10.950  4.2662  1.7608 -0.5190
  692MOL0     H93386   7.362   1.916  10.899  1.9854  0.6113  1.4161
  692MOL0     H93387   7.421   1.751  10.929 -2.9297 -0.3893 -0.9647
  692MOL0     H93388   7.223   1.704  11.057  1.9069 -1.0731 -2.8419
  692MOL0     H93389   7.166   1.874  11.073 -3.9212 -1.2869  0.6223
  692MOL0     H93390   7.190   1.702  10.813  2.5132  0.7013 -0.2461
  692MOL0     H93391   7.118   1.867  10.820  3.0468 -0.3264 -0.8190
  692MOL0     H93392   7.014   1.601  10.939 -0.9364 -0.4672  0.0985
  692MOL0     H93393   6.942   1.751  11.001  0.2062 -1.4821  2.2621
  692MOL0     H93394   6.935   1.654  10.717  1.1740  1.8939 -0.6220
  692MOL0     H93395   6.902   1.815  10.753 -0.2250 -0.3878  0.0512
  692MOL0     H93396   6.747   1.558  10.862  2.0754  0.1746  3.5643
  692MOL0     H93397   6.713   1.715  10.922 -5.1723 -2.1978 -1.5455
  692MOL0     H93398   6.640   1.805  10.704 -0.0755 -0.5304 -1.1435
  692MOL0     H93399   6.536   1.691  10.772 -0.9109 -2.9653 -2.5149
  692MOL0     H93400   6.744   1.638  10.545 -0.3308 -1.7145 -0.9007
  692MOL0     H93401   6.567   1.619  10.548 -0.2106 -0.6289 -0.9944
  692MOL0     H93402   7.460   1.942  11.327 -2.1749 -0.8305  1.8897
  692MOL0     H93403   7.441   2.152  11.439 -0.6646 -0.0094 -0.3034
  692MOL0     H93404   7.769   2.578  11.306 -0.9905 -1.6431  0.9129
  692MOL0     H93405   7.812   2.823  11.373 -0.0681 -1.6316  0.9930
  692MOL0     H93406   8.003   4.528  11.235 -0.1953  0.1070  2.1382
  692MOL0     H93407   8.057   4.743  11.120  0.3973  0.0374  1.2998
  692MOL0     H93408   7.787   5.194  11.033  2.1334  3.4757  2.6691
  692MOL0     H93409   7.762   5.395  10.881  1.5055  0.7352 -0.8964
  692MOL0     H93410   8.068   5.392  10.554 -0.8722  1.4943 -5.0046
  692MOL0     H93411   7.967   5.523  10.513 -1.3596 -3.3679 -0.5904
  692MOL0     H93412   8.173   5.605  10.489  0.2129  1.1907  0.7190
  692MOL0     H93413   8.242   5.547  10.632  0.2829  2.6204 -0.1602
  692MOL0     H93414   8.088   5.685  10.769 -2.5515  3.2959 -0.0070
  692MOL0     H93415   8.005   5.747  10.624  0.5851  0.4793 -0.5154
  692MOL0     H93416   8.312   5.799  10.648  0.5998  1.5329 -1.8532
  692MOL0     H93417   8.192   5.919  10.702 -5.1640  0.6609 -2.0197
  692MOL0     H93418   8.157   5.894  10.279 -2.5626 -0.7493 -0.5571
  692MOL0     H93419   8.153   5.291  10.717 -0.5337  0.7189 -1.6198
  692MOL0     H93420   8.179   5.123  10.858 -0.7056 -1.5948 -1.0270
  693MOL0     O93421   7.835   4.054   4.491 -0.0444  0.2469  0.4265
  693MOL0     C93422   7.869   3.972   4.407 -0.5186  1.3279  0.7673
  693MOL0     O93423   7.906   3.995   4.271 -0.6681 -0.4125 -0.0446
  693MOL0     C93424   7.934   4.124   4.238 -0.0345 -0.6459  0.1051
  693MOL0     C93425   8.057   4.140   4.176 -0.4599 -0.2627 -0.2083
  693MOL0     C93426   8.085   4.267   4.120 -0.1292 -0.4877  0.0471
  693MOL0     C93427   8.002   4.379   4.130 -0.1786 -0.4120  0.1531
  693MOL0     O93428   8.033   4.507   4.095 -0.3823 -0.6757  0.3222
  693MOL0     C93429   8.133   4.526   3.986 -0.4497  0.1199 -0.1279
  693MOL0     C93430   8.093   4.664   3.926 -0.4996 -1.0430 -0.3562
  693MOL0     C93431   7.983   4.645   3.819  0.0002 -0.6048 -0.8683
  693MOL0     C93432   7.951   4.771   3.750 -0.8154 -0.8928 -0.3271
  693MOL0     C93433   7.818   4.771   3.673  0.0927 -0.2681 -0.5486
  693MOL0     C93434   7.812   4.901   3.589 -0.2843  0.6995  0.3917
  693MOL0     C93435   7.703   4.878   3.474 -0.3404  0.2065 -0.2428
  693MOL0     C93436   7.555   4.842   3.522 -0.0550  0.1957 -0.0363
  693MOL0     N93437   7.504   4.925   3.629 -0.4981 -0.5783 -0.6642
  693MOL0     C93438   7.469   5.054   3.610  0.1992  0.1164 -0.9415
  693MOL0     C93439   7.419   5.093   3.728 -0.6664 -0.3140  0.2940
  693MOL0     C93440   7.366   5.232   3.753  0.0139  0.6120 -1.1682
  693MOL0     C93441   7.257   5.217   3.872  0.1307 -1.2224  0.5747
  693MOL0     C93442   7.192   5.358   3.891  0.0232  0.4745 -0.2102
  693MOL0     C93443   7.279   5.443   3.985 -0.7453 -0.5737  0.4342
  693MOL0     O93444   7.379   5.519   3.909 -0.4610 -0.1326  1.0360
  693MOL0     C93445   7.331   5.622   3.830  0.1090 -0.2687 -0.3195
  693MOL0     C93446   7.242   5.715   3.869  0.6015 -0.1144 -0.1816
  693MOL0     C93447   7.212   5.832   3.805  0.6109 -0.7788  0.2633
  693MOL0     C93448   7.132   5.943   3.875  0.8122  0.1677 -0.1573
  693MOL0     C93449   7.268   5.858   3.679 -0.0294 -0.4623 -0.2315
  693MOL0     C93450   7.258   5.977   3.592 -0.6782 -0.4355  0.5495
  693MOL0     O93451   7.357   5.987   3.504 -0.3839  0.0858 -0.1561
  693MOL0     C93452   7.380   6.098   3.422 -0.1025 -1.1296  0.7231
  693MOL0     C93453   7.380   6.232   3.474 -0.2647 -0.0277  0.2313
  693MOL0     C93454   7.427   6.334   3.403  0.0818  0.0772  0.6539
  693MOL0     C93455   7.467   6.318   3.266 -0.4657  0.3532 -0.7260
  693MOL0     O93456   7.509   6.425   3.195  0.4853  0.0224  0.0070
  693MOL0     C93457   7.594   6.402   3.083 -0.2454  0.4025  0.2790
  693MOL0     C93458   7.638   6.539   3.037 -0.6326  0.3580  0.4152
  693MOL0     C93459   7.714   6.555   2.906 -0.3585  0.3135  0.6955
  693MOL0     C93460   7.843   6.455   2.899  0.2966 -1.0471 -0.3297
  693MOL0     C93461   7.945   6.508   2.800 -1.0978  0.2789  0.0463
  693MOL0     C93462   8.085   6.458   2.831  0.1003  0.0168 -0.5894
  693MOL0     C93463   8.198   6.555   2.779  0.7754  0.1077 -0.2226
  693MOL0     C93464   8.337   6.499   2.795 -0.4174 -0.8274  0.5974
  693MOL0    Cl93465   8.358   6.346   2.691 -0.0084 -0.2384  0.0897
  693MOL0     C93466   7.452   6.186   3.214 -0.4244 -0.2880  1.0746
  693MOL0     C93467   7.421   6.082   3.289 -0.0313  0.6149 -0.3896
  693MOL0     O93468   7.164   6.058   3.603 -0.3867  0.1422  0.2455
  693MOL0     C93469   7.350   5.755   3.626  0.0907  0.3308  0.3968
  693MOL0     C93470   7.380   5.638   3.700 -0.5726 -0.7112  0.2058
  693MOL0     N93471   7.423   4.980   3.822  0.1029  0.3819  0.0955
  693MOL0     N93472   7.473   4.887   3.755 -0.8646 -1.3636  0.5218
  693MOL0     C93473   7.880   4.357   4.183 -0.0155  0.2199  0.5410
  693MOL0     C93474   7.840   4.228   4.242 -0.1955 -0.5205  0.2044
  693MOL0     C93475   7.866   3.828   4.452 -0.5095  0.5266  0.8565
  693MOL0     C93476   7.870   3.795   4.584 -0.0325 -0.0583 -0.5018
  693MOL0     C93477   7.882   3.662   4.633 -0.6298  0.2080  0.5889
  693MOL0     C93478   7.885   3.557   4.531  0.2565 -0.1731 -0.0908
  693MOL0     O93479   7.869   3.428   4.560  0.3302 -0.2497 -0.4387
  693MOL0     C93480   7.916   3.378   4.689  0.5633 -0.1539 -0.4112
  693MOL0     C93481   8.059   3.417   4.719  0.9813 -0.2502  0.5782
  693MOL0     C93482   8.082   3.383   4.870 -0.6049  0.2477  0.1261
  693MOL0     C93483   8.235   3.385   4.896 -0.0043  0.2305  0.3419
  693MOL0     C93484   8.251   3.360   5.037 -1.5912 -0.0017 -0.7010
  693MOL0     C93485   8.267   3.316   5.149  0.3980  0.0655  0.1090
  693MOL0     C93486   7.876   3.591   4.394 -0.5153 -0.0238  1.2623
  693MOL0     C93487   7.862   3.723   4.360  0.1988 -0.1661 -0.5009
  693MOL0     H93488   8.137   4.067   4.171 -0.2678 -0.1356  0.7783
  693MOL0     H93489   8.186   4.273   4.082  1.6742 -0.5590  4.2673
  693MOL0     H93490   8.237   4.526   4.020 -0.1259 -1.2028 -1.0242
  693MOL0     H93491   8.135   4.448   3.910 -0.8052 -3.9058  3.5996
  693MOL0     H93492   8.047   4.728   4.002  0.3045  0.7388 -1.3086
  693MOL0     H93493   8.180   4.713   3.881 -0.7060  2.3622  2.4902
  693MOL0     H93494   8.017   4.570   3.747  0.5471 -1.7064  0.5075
  693MOL0     H93495   7.890   4.607   3.861  1.2143 -3.5340 -0.5928
  693MOL0     H93496   7.949   4.849   3.826  0.0423 -0.9277 -0.2599
  693MOL0     H93497   8.025   4.781   3.670 -2.1462  0.2595 -1.4642
  693MOL0     H93498   7.816   4.689   3.600 -0.1965 -0.2872 -0.5197
  693MOL0     H93499   7.735   4.774   3.745  1.1995  1.1288  0.7152
  693MOL0     H93500   7.783   4.990   3.646  2.4852  1.8802  0.1098
  693MOL0     H93501   7.915   4.917   3.558 -0.3916 -1.7582 -1.5684
  693MOL0     H93502   7.706   4.969   3.414  1.1945 -0.6846 -1.6049
  693MOL0     H93503   7.750   4.808   3.405 -1.0741 -1.4674  0.8880
  693MOL0     H93504   7.574   4.741   3.559  1.2534  1.1418  2.0114
  693MOL0     H93505   7.477   4.829   3.446  0.6067  0.0305 -0.6955
  693MOL0     H93506   7.489   5.124   3.530  1.2584 -2.5637 -3.1358
  693MOL0     H93507   7.453   5.289   3.788  0.1377 -0.9314  1.3003
  693MOL0     H93508   7.320   5.267   3.661  1.2359 -2.1497 -2.9764
  693MOL0     H93509   7.306   5.177   3.961  0.2063  0.4219  1.2979
  693MOL0     H93510   7.178   5.147   3.843 -1.6591 -0.1497  2.6335
  693MOL0     H93511   7.096   5.341   3.940  1.7314 -0.1242  3.2661
  693MOL0     H93512   7.196   5.404   3.792  1.1887 -0.4555 -0.6249
  693MOL0     H93513   7.332   5.384   4.061  2.1258  4.1047  2.5068
  693MOL0     H93514   7.222   5.515   4.044  0.1418  0.9603 -0.5215
  693MOL0     H93515   7.191   5.710   3.965  1.2158  0.7117  0.1991
  693MOL0     H93516   7.113   5.924   3.981  1.3082  1.6581  0.2264
  693MOL0     H93517   7.189   6.036   3.869  2.7668 -0.9941 -0.6611
  693MOL0     H93518   7.033   5.950   3.828  0.9233  0.0341 -0.4118
  693MOL0     H93519   7.330   6.250   3.569 -1.1297  0.1482 -0.2491
  693MOL0     H93520   7.441   6.437   3.435 -0.8479  0.5955 -0.5704
  693MOL0     H93521   7.683   6.343   3.107 -1.7592 -1.2495  2.2393
  693MOL0     H93522   7.539   6.360   2.998 -0.4684  1.4905 -0.1195
  693MOL0     H93523   7.553   6.607   3.034  0.9371  2.4230  0.7979
  693MOL0     H93524   7.703   6.584   3.113  0.7905  4.4916 -2.8792
  693MOL0     H93525   7.751   6.656   2.887 -1.1879  0.2503 -1.4792
  693MOL0     H93526   7.655   6.538   2.816  0.5361  1.7902 -0.2055
  693MOL0     H93527   7.891   6.454   2.997  1.5965  1.4953 -0.8607
  693MOL0     H93528   7.809   6.353   2.880 -4.3627  0.2645 -0.2694
  693MOL0     H93529   7.954   6.617   2.805  0.7279  0.0975  1.6846
  693MOL0     H93530   7.924   6.481   2.696  0.7067 -1.7248  0.1288
  693MOL0     H93531   8.106   6.439   2.936 -0.8495 -0.8434 -0.5363
  693MOL0     H93532   8.090   6.361   2.779 -3.8554 -0.3770 -0.5292
  693MOL0     H93533   8.195   6.654   2.826  1.9877  0.6022 -1.1328
  693MOL0     H93534   8.189   6.568   2.671  3.3383  0.6250 -0.4372
  693MOL0     H93535   8.355   6.490   2.902  0.0334  0.3350  0.6389
  693MOL0     H93536   8.410   6.570   2.755 -0.6874 -0.2583  1.1051
  693MOL0     H93537   7.486   6.179   3.111 -0.5147 -1.5791  1.1169
  693MOL0     H93538   7.433   5.980   3.252  3.4286  1.5210 -2.1228
  693MOL0     H93539   7.404   5.766   3.532  0.9622 -0.3848  0.7950
  693MOL0     H93540   7.447   5.564   3.657  0.6063  0.0442  0.6730
  693MOL0     H93541   7.821   4.447   4.195  2.5098  1.9683  0.6259
  693MOL0     H93542   7.742   4.212   4.286 -1.1327 -2.4081 -2.3321
  693MOL0     H93543   7.863   3.873   4.658 -1.2797  0.5747 -1.2490
  693MOL0     H93544   7.890   3.643   4.739  1.4643  1.7868  0.7946
  693MOL0     H93545   7.850   3.418   4.767  0.7850  1.3402 -0.9540
  693MOL0     H93546   7.897   3.270   4.685 -0.7136 -0.0107  0.8240
  693MOL0     H93547   8.078   3.524   4.708 -1.3494  0.4440  2.4821
  693MOL0     H93548   8.132   3.360   4.660  0.2319 -1.3417  0.6601
  693MOL0     H93549   8.047   3.280   4.885  0.4415 -0.7345 -3.2827
  693MOL0     H93550   8.021   3.444   4.938  0.6642 -0.2217  1.7593
  693MOL0     H93551   8.284   3.479   4.869  0.1220 -0.2279 -1.1412
  693MOL0     H93552   8.289   3.307   4.841  0.5256  1.1315 -0.4485
  693MOL0     H93553   8.269   3.285   5.251 -1.5893 -0.5716 -0.0066
  693MOL0     H93554   7.870   3.509   4.323 -0.3052  1.9241 -1.1734
  693MOL0     H93555   7.861   3.746   4.254 -0.3542 -0.1070 -0.4846
  694MOL0     O93556   8.504   5.940   0.370  0.3393 -0.0099 -0.2452
  694MOL0     C93557   8.480   5.957   0.490  1.4937 -0.2430 -0.3245
  694MOL0     O93558   8.533   6.051   0.569 -0.0172  0.2351 -0.9550
  694MOL0     C93559   8.620   6.148   0.523  0.6746  0.4678  1.1316
  694MOL0     C93560   8.754   6.145   0.532  0.1348  0.6122 -0.6904
  694MOL0     C93561   8.832   6.259   0.493 -0.2356  0.2209  0.1764
  694MOL0     C93562   8.770   6.379   0.439 -0.8446 -0.8223  0.0163
  694MOL0     O93563   8.848   6.483   0.400  0.1572 -0.0804 -0.4754
  694MOL0     C93564   8.790   6.616   0.377  0.4906 -0.3355 -0.3910
  694MOL0     C93565   8.724   6.684   0.495 -0.7975 -0.0035 -1.1354
  694MOL0     C93566   8.818   6.685   0.626 -0.3347 -0.0486  0.4897
  694MOL0     C93567   8.772   6.798   0.720  0.0413  0.9550  0.6078
  694MOL0     C93568   8.839   6.817   0.852  0.1525 -0.4269  0.2832
  694MOL0     C93569   8.760   6.906   0.951 -0.2000  0.8788  0.3127
  694MOL0     C93570   8.838   6.944   1.079  0.0591  0.0970  0.3339
  694MOL0     C93571   8.865   6.804   1.158  0.2875  0.4549 -0.2540
  694MOL0     N93572   8.746   6.743   1.229 -0.4915 -0.9112 -0.7343
  694MOL0     C93573   8.707   6.785   1.355  0.1451  0.5317 -0.4871
  694MOL0     C93574   8.592   6.719   1.376  0.6384 -0.4166  0.6776
  694MOL0     C93575   8.491   6.742   1.487  0.5589  1.1158 -0.3071
  694MOL0     C93576   8.407   6.880   1.490  0.1742 -0.2127 -0.9984
  694MOL0     C93577   8.287   6.873   1.585  0.6162 -1.3345  0.8042
  694MOL0     C93578   8.321   6.835   1.731  0.3770 -0.1923  0.5525
  694MOL0     O93579   8.322   6.694   1.748 -0.5407  0.5924  0.4815
  694MOL0     C93580   8.298   6.628   1.869 -0.9184 -0.8796 -0.0182
  694MOL0     C93581   8.326   6.497   1.859 -0.4160  0.5305 -0.1596
  694MOL0     C93582   8.305   6.412   1.972  0.0379  0.0054 -0.2442
  694MOL0     C93583   8.341   6.270   1.959 -0.1267  0.2556 -0.4298
  694MOL0     C93584   8.253   6.472   2.093  0.2662  0.2543 -1.0343
  694MOL0     C93585   8.220   6.395   2.219 -0.7950  0.5022 -0.0656
  694MOL0     O93586   8.259   6.267   2.217 -0.7612  0.0308  0.1356
  694MOL0     C93587   8.202   6.181   2.307  0.6032  0.2334  0.4640
  694MOL0     C93588   8.197   6.052   2.248  0.7203  0.9253  0.1766
  694MOL0     C93589   8.120   5.946   2.315 -0.2321  0.3997  0.4449
  694MOL0     C93590   8.069   5.962   2.446  0.5394  0.3734 -0.6662
  694MOL0     O93591   8.016   5.860   2.524 -0.1753 -0.0123 -0.0997
  694MOL0     C93592   7.919   5.772   2.465  0.4123 -0.4258 -0.5824
  694MOL0     C93593   7.955   5.622   2.490 -0.1544 -0.6208 -0.0504
  694MOL0     C93594   8.092   5.583   2.424  0.1619  0.1899  0.9947
  694MOL0     C93595   8.108   5.437   2.431 -0.3178  0.8146 -0.3021
  694MOL0     C93596   8.235   5.388   2.354 -0.5313 -0.7083  0.4971
  694MOL0     C93597   8.245   5.238   2.338 -0.1970  0.4346  0.7756
  694MOL0     C93598   8.135   5.159   2.266 -0.3716  0.7501  0.1619
  694MOL0     C93599   8.187   5.023   2.228  0.0102  0.5095 -0.2020
  694MOL0    Cl93600   8.046   4.906   2.200 -0.3554  0.3988  0.5805
  694MOL0     C93601   8.079   6.090   2.499  0.4153 -0.4326 -0.4618
  694MOL0     C93602   8.150   6.195   2.437 -0.2285  0.4568 -0.3606
  694MOL0     O93603   8.154   6.450   2.306  0.4759  0.3892  0.3334
  694MOL0     C93604   8.230   6.606   2.100  0.1480  0.0760  0.4447
  694MOL0     C93605   8.253   6.689   1.987  0.3949  0.5315  0.1576
  694MOL0     N93606   8.561   6.635   1.270 -0.5711 -0.9497  0.0262
  694MOL0     N93607   8.660   6.654   1.180  0.8331  0.1097 -0.3806
  694MOL0     C93608   8.632   6.369   0.422  0.2839  0.3149 -0.5398
  694MOL0     C93609   8.560   6.264   0.470  0.2500  0.6414 -0.2077
  694MOL0     C93610   8.415   5.853   0.573 -0.0468  0.3490 -0.1266
  694MOL0     C93611   8.331   5.762   0.509 -0.2600  0.3698  0.5442
  694MOL0     C93612   8.255   5.672   0.588 -0.5474 -0.3346 -0.0222
  694MOL0     C93613   8.276   5.669   0.728 -0.5453 -0.0967 -0.9318
  694MOL0     O93614   8.209   5.582   0.812  0.4397  0.3728  0.2887
  694MOL0     C93615   8.153   5.458   0.760  0.2508  0.0478 -0.6710
  694MOL0     C93616   8.255   5.339   0.760  0.0464 -0.0685  0.2448
  694MOL0     C93617   8.387   5.351   0.849 -0.3396  0.6753  0.6000
  694MOL0     C93618   8.471   5.215   0.836  0.2267 -1.2600  0.6677
  694MOL0     C93619   8.396   5.107   0.894 -0.0862  0.4443 -0.1755
  694MOL0     C93620   8.319   5.025   0.932 -0.3849 -0.2932  0.3254
  694MOL0     C93621   8.366   5.749   0.795  0.0775 -1.1555 -0.1409
  694MOL0     C93622   8.439   5.840   0.713 -0.7338  0.2995 -0.6455
  694MOL0     H93623   8.799   6.054   0.570 -0.8578  0.1578 -0.5732
  694MOL0     H93624   8.940   6.260   0.487 -0.2188  0.1493  0.4822
  694MOL0     H93625   8.867   6.686   0.343  0.3755 -0.5179 -1.0395
  694MOL0     H93626   8.720   6.614   0.293  0.6549  1.2332 -0.6038
  694MOL0     H93627   8.707   6.789   0.468  1.2595  0.6548 -0.0748
  694MOL0     H93628   8.631   6.630   0.517 -1.4854  1.2810 -0.7597
  694MOL0     H93629   8.816   6.585   0.671  0.2197 -0.5356 -0.5070
  694MOL0     H93630   8.921   6.714   0.599 -1.2886  3.8044  0.4282
  694MOL0     H93631   8.759   6.896   0.672  1.1022  1.9730  2.3138
  694MOL0     H93632   8.670   6.765   0.743 -0.0029  0.9738  0.4437
  694MOL0     H93633   8.838   6.713   0.886 -0.0524 -1.3275 -2.2859
  694MOL0     H93634   8.941   6.853   0.835 -0.3997  1.1515  0.1140
  694MOL0     H93635   8.744   7.001   0.900 -1.2625  0.9984  0.8435
  694MOL0     H93636   8.662   6.869   0.981  0.4245  1.2871  3.1865
  694MOL0     H93637   8.937   6.989   1.068 -0.3036  1.0415  0.8174
  694MOL0     H93638   8.777   7.018   1.132  2.1281  2.0049  0.1933
  694MOL0     H93639   8.944   6.812   1.233  0.3144 -2.0170  0.0614
  694MOL0     H93640   8.907   6.727   1.093  2.9149  1.9143 -0.3759
  694MOL0     H93641   8.763   6.849   1.423 -1.2309  2.0956 -0.7659
  694MOL0     H93642   8.421   6.663   1.460 -0.2561  0.9624  2.0800
  694MOL0     H93643   8.534   6.733   1.587 -1.2487  2.3657  0.6281
  694MOL0     H93644   8.374   6.911   1.391  3.1125  1.2239 -1.6242
  694MOL0     H93645   8.474   6.958   1.527 -1.6933  0.7868  0.4124
  694MOL0     H93646   8.200   6.824   1.539  0.8080  0.5638 -1.8254
  694MOL0     H93647   8.250   6.976   1.585  0.5371 -1.3413  2.4447
  694MOL0     H93648   8.245   6.877   1.797  2.0362  1.1752  1.6918
  694MOL0     H93649   8.406   6.886   1.777  0.7727  1.6441 -1.9829
  694MOL0     H93650   8.353   6.458   1.762 -2.8089  0.9702 -1.0748
  694MOL0     H93651   8.253   6.206   1.965  0.3623 -0.4750 -0.9452
  694MOL0     H93652   8.393   6.262   1.863  0.0976  4.9938 -0.9477
  694MOL0     H93653   8.418   6.240   2.031  1.6753  2.7255 -1.1660
  694MOL0     H93654   8.242   6.043   2.150 -1.3575  2.0474 -0.9551
  694MOL0     H93655   8.095   5.857   2.257 -1.0884  2.1735 -2.1241
  694MOL0     H93656   7.822   5.778   2.516  1.4269 -0.5519  1.5010
  694MOL0     H93657   7.915   5.789   2.357  0.6421  1.8391 -0.2978
  694MOL0     H93658   7.957   5.595   2.596  1.1323 -2.5359 -0.4955
  694MOL0     H93659   7.876   5.568   2.437  0.1483 -1.3071  0.1839
  694MOL0     H93660   8.175   5.628   2.479  0.0274 -0.2757  1.5930
  694MOL0     H93661   8.100   5.629   2.325  4.2981 -1.9549  0.0793
  694MOL0     H93662   8.108   5.405   2.535  0.2395  0.7642 -0.3139
  694MOL0     H93663   8.027   5.376   2.390  1.3331 -1.6666 -0.1556
  694MOL0     H93664   8.327   5.435   2.392  0.5073  1.6644 -4.1207
  694MOL0     H93665   8.236   5.422   2.250 -0.3319 -3.3160 -0.4345
  694MOL0     H93666   8.337   5.212   2.284 -0.3952  0.0092  0.6448
  694MOL0     H93667   8.250   5.200   2.440 -3.7532 -0.9985  0.5560
  694MOL0     H93668   8.091   5.213   2.182 -4.5721  1.8619  2.7580
  694MOL0     H93669   8.051   5.145   2.334 -1.8944  0.3272 -1.6958
  694MOL0     H93670   8.257   4.992   2.306 -0.1654  1.3214  0.2961
  694MOL0     H93671   8.236   5.027   2.131 -1.7969  4.5807 -1.1876
  694MOL0     H93672   8.046   6.122   2.598  1.0132  3.4331 -1.3259
  694MOL0     H93673   8.165   6.290   2.488  3.2807 -0.5420  0.7311
  694MOL0     H93674   8.189   6.666   2.181 -1.1824  2.6095 -1.9215
  694MOL0     H93675   8.244   6.797   1.984  3.0769  0.8199 -0.4409
  694MOL0     H93676   8.581   6.451   0.371 -0.2976  0.0066 -0.4561
  694MOL0     H93677   8.455   6.264   0.443  0.1058  1.1309  0.3487
  694MOL0     H93678   8.328   5.768   0.400  3.4403  1.3035  0.3671
  694MOL0     H93679   8.183   5.610   0.535 -1.2613  0.1105  0.4176
  694MOL0     H93680   8.072   5.437   0.831 -0.8567  3.7440 -0.6320
  694MOL0     H93681   8.106   5.457   0.661  2.3796 -0.0499 -1.7291
  694MOL0     H93682   8.288   5.325   0.657 -1.9376  2.4041 -0.8298
  694MOL0     H93683   8.191   5.257   0.794  0.2972 -1.7257 -2.8566
  694MOL0     H93684   8.356   5.361   0.953  1.0569 -0.5843  1.1839
  694MOL0     H93685   8.438   5.443   0.819 -1.9425  2.5723  3.2973
  694MOL0     H93686   8.568   5.220   0.885  0.7634 -0.2268 -0.4494
  694MOL0     H93687   8.483   5.200   0.728  0.4076 -2.4632  0.8426
  694MOL0     H93688   8.254   4.959   0.986  0.2378  0.8536  2.6397
  694MOL0     H93689   8.383   5.731   0.901 -3.2175  1.1244  0.9587
  694MOL0     H93690   8.521   5.902   0.748 -0.1330  0.8494 -2.8620
  695MOL0     O93691  10.537   0.361   9.697  0.2041 -0.8944 -0.3706
  695MOL0     C93692  10.461   0.323   9.611 -0.1939  0.8148 -0.2286
  695MOL0     O93693  10.464   0.345   9.477 -0.6697  0.1867  0.0768
  695MOL0     C93694  10.558   0.431   9.414  0.3123  0.8931  0.6131
  695MOL0     C93695  10.522   0.506   9.295  0.2148  1.0004  0.2403
  695MOL0     C93696  10.617   0.582   9.222  0.7065 -0.0800  0.5057
  695MOL0     C93697  10.751   0.577   9.268  0.3836 -0.0512 -1.3850
  695MOL0     O93698  10.859   0.661   9.225 -0.5256  0.1294  0.0235
  695MOL0     C93699  10.855   0.728   9.097  1.2956  0.3039 -0.8236
  695MOL0     C93700  10.817   0.872   9.123 -0.5670 -0.5925 -0.3601
  695MOL0     C93701  10.815   0.961   8.990  0.1377  0.4493 -0.2314
  695MOL0     C93702  10.906   1.086   9.000  0.7899 -0.4842 -0.3135
  695MOL0     C93703  10.888   1.176   8.881  0.6934 -1.0300  0.8946
  695MOL0     C93704  10.743   1.240   8.865  0.4103  0.4019 -1.0360
  695MOL0     C93705  10.684   1.289   8.998 -0.5486 -0.8099  0.4938
  695MOL0     C93706  10.563   1.377   8.987 -0.0658  0.3743 -0.0823
  695MOL0     N93707  10.528   1.428   9.120 -0.1106  0.5835 -0.5174
  695MOL0     C93708  10.516   1.345   9.234 -0.0565  0.5206  0.3575
  695MOL0     C93709  10.491   1.434   9.338 -0.3533 -0.1955 -0.0526
  695MOL0     C93710  10.458   1.383   9.478 -0.4733 -0.4043 -0.0382
  695MOL0     C93711  10.364   1.465   9.570  0.0636 -1.0301 -0.7312
  695MOL0     C93712  10.269   1.374   9.645  0.3108  0.3065  0.2536
  695MOL0     C93713  10.170   1.454   9.746  0.1056  0.0042 -0.2312
  695MOL0     O93714  10.089   1.543   9.667  0.0359 -0.5150 -0.3155
  695MOL0     C93715   9.960   1.537   9.673  0.0102  0.3016  0.6565
  695MOL0     C93716   9.891   1.649   9.641 -0.1571 -0.1423  0.2022
  695MOL0     C93717   9.753   1.664   9.659  0.0100  0.1538  0.8048
  695MOL0     C93718   9.705   1.811   9.678  0.2484  0.8751 -0.4734
  695MOL0     C93719   9.682   1.546   9.687  0.1403  0.0158 -0.1557
  695MOL0     C93720   9.542   1.557   9.720  0.4557 -1.7092 -0.3071
  695MOL0     O93721   9.508   1.550   9.852 -0.4582  0.3579  0.4014
  695MOL0     C93722   9.374   1.522   9.899 -0.7572  0.3479 -0.1330
  695MOL0     C93723   9.260   1.488   9.824 -0.2919  0.0160 -0.4293
  695MOL0     C93724   9.132   1.487   9.881 -1.0505 -0.1268  0.5149
  695MOL0     C93725   9.115   1.515  10.011 -0.9379 -0.0348 -0.6580
  695MOL0     O93726   8.990   1.498  10.061 -0.1358 -0.0445  0.6808
  695MOL0     C93727   8.955   1.591  10.167 -0.2489  0.1518  0.3230
  695MOL0     C93728   8.803   1.638  10.173 -0.7464 -0.1865  0.1125
  695MOL0     C93729   8.708   1.524  10.219  0.1439 -0.6180  1.6093
  695MOL0     C93730   8.706   1.523  10.365  0.5602  0.3670  0.3039
  695MOL0     C93731   8.667   1.384  10.427 -0.0215 -0.2566  0.2957
  695MOL0     C93732   8.667   1.371  10.580 -0.1936  0.0149  0.0789
  695MOL0     C93733   8.578   1.478  10.643  0.3479 -0.5792  0.2793
  695MOL0     C93734   8.600   1.489  10.799 -0.3225 -0.7834  0.1618
  695MOL0    Cl93735   8.544   1.337  10.862 -0.3489 -0.0513  0.2093
  695MOL0     C93736   9.227   1.539  10.096 -0.7567 -0.0846  0.5106
  695MOL0     C93737   9.353   1.538  10.037 -1.4064  0.0109 -0.0320
  695MOL0     O93738   9.470   1.585   9.622  0.6227 -0.2252  0.2062
  695MOL0     C93739   9.743   1.424   9.697 -0.1494 -0.2702  0.4364
  695MOL0     C93740   9.888   1.421   9.689  0.8587  0.6152  0.6707
  695MOL0     N93741  10.484   1.555   9.282  0.0867 -0.5924 -0.6271
  695MOL0     N93742  10.515   1.556   9.153 -0.0200 -0.1453 -0.7874
  695MOL0     C93743  10.786   0.516   9.387  0.3740 -0.0262 -0.3775
  695MOL0     C93744  10.693   0.429   9.462 -0.2060 -0.2993  0.9305
  695MOL0     C93745  10.333   0.262   9.655 -0.5540  1.0006  0.3048
  695MOL0     C93746  10.274   0.303   9.777 -0.0538  0.2512 -0.9148
  695MOL0     C93747  10.147   0.260   9.809 -0.4567  1.1246  0.3079
  695MOL0     C93748  10.078   0.163   9.737  0.2527  0.8511 -0.7149
  695MOL0     O93749   9.957   0.110   9.780  0.6086  0.0116 -0.2388
  695MOL0     C93750   9.921  -0.023   9.749 -0.1054  0.4111  0.5958
  695MOL0     C93751   9.860  -0.041   9.609 -0.1564  0.5566  0.0306
  695MOL0     C93752   9.788   0.078   9.554 -1.0302  0.2924 -0.6913
  695MOL0     C93753   9.736   0.061   9.406  0.0860  1.1309 -0.6847
  695MOL0     C93754   9.643   0.166   9.370  0.4107 -0.0049 -0.6696
  695MOL0     C93755   9.572   0.251   9.327 -0.1554 -1.1041 -0.4707
  695MOL0     C93756  10.137   0.113   9.622  0.4516 -0.0970  0.1279
  695MOL0     C93757  10.254   0.171   9.574 -0.5237 -0.6012  0.6619
  695MOL0     H93758  10.416   0.506   9.275  0.1693 -1.4641  0.1709
  695MOL0     H93759  10.578   0.625   9.131 -2.3878 -2.0905  0.7531
  695MOL0     H93760  10.957   0.721   9.059  0.8604  2.0608 -2.4457
  695MOL0     H93761  10.793   0.677   9.024  0.2817  0.4325 -0.0701
  695MOL0     H93762  10.719   0.885   9.169 -0.2892  0.8097 -0.1072
  695MOL0     H93763  10.888   0.919   9.192 -3.0152  2.6899  0.1603
  695MOL0     H93764  10.841   0.905   8.899 -2.0357  3.4681 -2.9523
  695MOL0     H93765  10.714   0.989   8.959  0.9234  0.2654 -3.3175
  695MOL0     H93766  10.884   1.146   9.089 -0.5663 -0.1539 -0.8411
  695MOL0     H93767  11.010   1.053   9.008 -0.3834 -4.0114  3.6822
  695MOL0     H93768  10.954   1.261   8.901 -0.5601  0.1951  0.0500
  695MOL0     H93769  10.921   1.127   8.789  0.9518 -0.5541  0.7351
  695MOL0     H93770  10.738   1.326   8.798 -0.6139  1.8863  0.8493
  695MOL0     H93771  10.677   1.160   8.832 -1.1972  1.7134 -1.0786
  695MOL0     H93772  10.662   1.209   9.070  0.0915 -0.9745  0.5080
  695MOL0     H93773  10.766   1.352   9.032  0.5323 -0.4241 -2.5294
  695MOL0     H93774  10.480   1.317   8.949  1.5380 -1.5054 -0.8183
  695MOL0     H93775  10.574   1.462   8.919  1.2284 -2.5557 -3.8552
  695MOL0     H93776  10.526   1.237   9.241  0.6662  0.5853  0.4086
  695MOL0     H93777  10.423   1.279   9.469  0.6029 -1.0951  2.7290
  695MOL0     H93778  10.550   1.388   9.536 -1.6500 -0.5053  1.9573
  695MOL0     H93779  10.299   1.530   9.511 -1.5005 -0.8635  1.0585
  695MOL0     H93780  10.425   1.517   9.645 -1.4308 -3.7512  2.6444
  695MOL0     H93781  10.327   1.303   9.705  1.9552 -0.9734 -2.6169
  695MOL0     H93782  10.205   1.322   9.573  1.4744 -2.3324  1.0209
  695MOL0     H93783  10.228   1.510   9.820 -0.6452 -3.2756  3.0975
  695MOL0     H93784  10.114   1.386   9.810 -2.8567  0.5214 -2.0874
  695MOL0     H93785   9.934   1.748   9.625 -1.9842  0.7821  0.7505
  695MOL0     H93786   9.720   1.869   9.586 -1.7645 -1.9721 -2.7839
  695MOL0     H93787   9.598   1.823   9.698  0.3374  2.3565 -0.7386
  695MOL0     H93788   9.754   1.852   9.767 -0.0591 -0.8396  0.5296
  695MOL0     H93789   9.263   1.465   9.718  0.5970  3.1798 -1.1976
  695MOL0     H93790   9.044   1.465   9.822 -1.9692  2.3166  0.8830
  695MOL0     H93791   8.965   1.535  10.260 -0.0061 -1.0888 -0.4166
  695MOL0     H93792   9.015   1.681  10.156 -0.5910  0.8137  3.1087
  695MOL0     H93793   8.790   1.718  10.246 -3.9556 -1.7449  1.4475
  695MOL0     H93794   8.786   1.666  10.069 -0.5742 -2.3596 -0.5527
  695MOL0     H93795   8.738   1.429  10.173 -1.6274 -0.5951  0.2899
  695MOL0     H93796   8.606   1.548  10.186  1.3301  0.0318 -2.0676
  695MOL0     H93797   8.794   1.563  10.416 -0.3767  2.4812  0.3874
  695MOL0     H93798   8.620   1.586  10.392  0.2519  0.4552 -0.8136
  695MOL0     H93799   8.736   1.317  10.375  1.2193  3.0075 -2.6708
  695MOL0     H93800   8.563   1.368  10.398 -0.8115  0.1966  2.6821
  695MOL0     H93801   8.635   1.270  10.605 -1.6159  0.1878 -0.9178
  695MOL0     H93802   8.766   1.403  10.614  0.1155  1.9424 -2.3447
  695MOL0     H93803   8.471   1.464  10.621 -1.1107  5.7382  1.2475
  695MOL0     H93804   8.601   1.581  10.613 -1.4056 -0.3305 -0.3802
  695MOL0     H93805   8.542   1.561  10.858 -0.4905 -1.7890  1.2722
  695MOL0     H93806   8.704   1.515  10.821 -0.7850  1.2718  0.1125
  695MOL0     H93807   9.221   1.541  10.204  1.8537  0.9929  0.7059
  695MOL0     H93808   9.440   1.563  10.096 -0.8048 -0.8773 -0.5085
  695MOL0     H93809   9.677   1.339   9.710  0.7300 -1.1626 -0.6631
  695MOL0     H93810   9.932   1.322   9.675 -0.0100 -0.3988  4.2225
  695MOL0     H93811  10.891   0.533   9.407  0.5608  0.1675 -1.4656
  695MOL0     H93812  10.712   0.364   9.546  1.8469 -1.5002 -0.3749
  695MOL0     H93813  10.308   0.390   9.833 -0.9888  0.9360 -1.3809
  695MOL0     H93814  10.106   0.297   9.902 -0.7436 -2.0154  1.5713
  695MOL0     H93815  10.010  -0.087   9.753 -1.0198 -0.8243  1.6713
  695MOL0     H93816   9.845  -0.050   9.823 -1.5992  2.1612 -0.2311
  695MOL0     H93817   9.778  -0.113   9.609 -0.0236  0.3648 -1.6864
  695MOL0     H93818   9.936  -0.078   9.540 -0.5305 -1.3781  0.6010
  695MOL0     H93819   9.857   0.164   9.550  0.8181 -0.6560  4.0990
  695MOL0     H93820   9.700   0.106   9.611 -1.7264  0.1175 -1.6564
  695MOL0     H93821   9.676  -0.030   9.398  1.3863 -0.0422  1.6707
  695MOL0     H93822   9.826   0.051   9.345  1.6164 -1.4652  1.7970
  695MOL0     H93823   9.504   0.322   9.285  2.5077  1.9603  0.0210
  695MOL0     H93824  10.098   0.035   9.557  0.3571  0.3563 -0.3727
  695MOL0     H93825  10.292   0.142   9.477 -1.6082  0.4747 -0.1087
  696MOL0     O93826  10.868   5.763   6.693  0.4651 -0.3135  0.1665
  696MOL0     C93827  10.810   5.685   6.767 -0.1461 -0.5190  0.1873
  696MOL0     O93828  10.872   5.585   6.848  0.0612  0.8310 -0.0888
  696MOL0     C93829  10.988   5.537   6.791  0.6508 -0.3542 -0.4806
  696MOL0     C93830  11.101   5.616   6.795  0.0244  0.5649  0.0870
  696MOL0     C93831  11.221   5.572   6.736  0.3590  0.2671  0.0170
  696MOL0     C93832  11.241   5.442   6.684  0.5988 -0.5803 -0.5790
  696MOL0     O93833  11.351   5.393   6.620  1.1081 -1.4258 -0.5598
  696MOL0     C93834  11.467   5.472   6.597  0.3769  1.1089  0.0480
  696MOL0     C93835  11.564   5.396   6.514 -0.2923 -0.7657  0.4074
  696MOL0     C93836  11.699   5.475   6.490  0.7477  1.1572 -0.5486
  696MOL0     C93837  11.697   5.571   6.378  0.3042 -0.2333  1.3112
  696MOL0     C93838  11.835   5.605   6.326 -0.7701  0.8083 -0.2862
  696MOL0     C93839  11.836   5.678   6.189  0.2892  0.0860 -0.2062
  696MOL0     C93840  11.982   5.688   6.139  0.2268 -1.3838 -0.7192
  696MOL0     C93841  11.993   5.755   6.014 -0.8445 -0.7476  0.0355
  696MOL0     N93842  12.118   5.749   5.941  0.6618 -0.4506  0.8364
  696MOL0     C93843  12.147   5.819   5.821 -0.2218 -0.0496 -0.7021
  696MOL0     C93844  12.267   5.776   5.782 -0.1841  0.0722  0.8819
  696MOL0     C93845  12.343   5.804   5.654  0.1732  0.1250  0.2445
  696MOL0     C93846  12.431   5.943   5.649 -1.2064  0.9420  0.3677
  696MOL0     C93847  12.504   5.949   5.521 -0.4801 -0.0272  0.8825
  696MOL0     C93848  12.574   6.088   5.496 -0.0122 -0.7711 -0.4973
  696MOL0     O93849  12.463   6.173   5.447 -0.0982  0.2768 -0.6442
  696MOL0     C93850  12.489   6.310   5.444  0.9407 -0.7706 -0.7773
  696MOL0     C93851  12.599   6.367   5.516 -0.1869  0.8396  0.6533
  696MOL0     C93852  12.598   6.514   5.511 -0.3162  0.3996  0.2153
  696MOL0     C93853  12.716   6.558   5.585 -0.0192 -0.5373 -0.7862
  696MOL0     C93854  12.503   6.592   5.441 -0.2489  1.2596  1.0524
  696MOL0     C93855  12.511   6.734   5.404  0.0057 -0.1335 -0.0293
  696MOL0     O93856  12.637   6.789   5.408 -0.7411 -0.2451 -0.5653
  696MOL0     C93857  12.640   6.920   5.354  0.6867  0.1806 -0.0153
  696MOL0     C93858  12.573   7.040   5.404 -0.0213 -0.1925  0.3125
  696MOL0     C93859  12.569   7.161   5.333  0.2993 -0.6221 -0.0962
  696MOL0     C93860  12.625   7.169   5.211 -0.2829  0.5067  0.3231
  696MOL0     O93861  12.631   7.292   5.141  0.1591 -0.2210 -0.0357
  696MOL0     C93862  12.514   7.317   5.065 -0.9924  0.6526  0.1045
  696MOL0     C93863  12.436   7.434   5.125 -0.4686 -0.7786 -0.4476
  696MOL0     C93864  12.282   7.420   5.089 -0.1598  0.8637 -0.3938
  696MOL0     C93865  12.220   7.288   5.152  0.0613 -0.0995  0.6860
  696MOL0     C93866  12.069   7.291   5.134  0.4730 -0.6374 -0.6198
  696MOL0     C93867  12.026   7.286   4.985 -0.0159  1.0696  0.0680
  696MOL0     C93868  11.882   7.249   4.975  0.6361 -0.4236  0.5729
  696MOL0     C93869  11.817   7.212   4.841  0.7524  0.8148  1.0182
  696MOL0    Cl93870  11.909   7.120   4.721  0.5147  0.1852  0.0033
  696MOL0     C93871  12.699   7.062   5.165  1.0492 -0.8866 -0.8474
  696MOL0     C93872  12.700   6.937   5.229  0.3380 -0.0757 -0.1647
  696MOL0     O93873  12.408   6.797   5.375  0.4567  0.3459  0.3026
  696MOL0     C93874  12.398   6.518   5.369 -0.0484 -0.8655 -0.5435
  696MOL0     C93875  12.392   6.384   5.380 -0.5480 -0.6310  0.7905
  696MOL0     N93876  12.311   5.687   5.881 -0.1678  0.0015 -0.3595
  696MOL0     N93877  12.228   5.671   5.978  0.0613 -1.2267  0.3502
  696MOL0     C93878  11.129   5.360   6.701 -0.8402  0.0482  0.8271
  696MOL0     C93879  11.003   5.409   6.744  1.2063  0.2560 -0.0487
  696MOL0     C93880  10.671   5.713   6.788 -0.5745 -0.5419 -0.2821
  696MOL0     C93881  10.605   5.644   6.893  0.5517 -0.8338 -0.2330
  696MOL0     C93882  10.472   5.661   6.920  0.7350 -0.2432 -0.4923
  696MOL0     C93883  10.399   5.753   6.852 -0.6404 -0.6374  0.7813
  696MOL0     O93884  10.270   5.769   6.877 -0.5167 -0.6008  0.2790
  696MOL0     C93885  10.248   5.885   6.961  0.5618 -0.9363 -0.7135
  696MOL0     C93886  10.210   5.840   7.109  0.0772  0.2233 -0.2176
  696MOL0     C93887  10.166   5.951   7.201  0.2570 -0.9224 -0.5423
  696MOL0     C93888  10.192   5.930   7.353  0.3191  0.0577 -1.1735
  696MOL0     C93889  10.114   6.033   7.427  0.9381  0.2226  0.8043
  696MOL0     C93890  10.050   6.113   7.493  1.0489  1.1098 -0.0675
  696MOL0     C93891  10.465   5.833   6.751  0.2010 -0.5369  0.6059
  696MOL0     C93892  10.598   5.809   6.718 -0.0413 -0.6406  0.4904
  696MOL0     H93893  11.108   5.716   6.836  0.9037  1.5972 -2.4280
  696MOL0     H93894  11.308   5.638   6.729  0.7216 -0.3188 -1.3412
  696MOL0     H93895  11.440   5.559   6.537 -0.4095  0.2482 -0.8767
  696MOL0     H93896  11.505   5.488   6.698  0.3849 -2.7873  0.7971
  696MOL0     H93897  11.574   5.297   6.558 -3.0563 -0.7503  1.2501
  696MOL0     H93898  11.512   5.379   6.419 -1.0521  1.3051  0.3884
  696MOL0     H93899  11.722   5.526   6.584 -0.3909 -1.3696  1.2208
  696MOL0     H93900  11.780   5.403   6.479 -0.1831  0.2174 -1.5649
  696MOL0     H93901  11.647   5.531   6.289  1.0911 -0.9193  1.1710
  696MOL0     H93902  11.657   5.669   6.407  1.5192  0.5017  0.5782
  696MOL0     H93903  11.876   5.674   6.400  0.1436 -0.0114 -0.0047
  696MOL0     H93904  11.903   5.519   6.320 -2.8375 -1.1877  2.4360
  696MOL0     H93905  11.780   5.616   6.117 -0.9693  0.6756  0.2401
  696MOL0     H93906  11.789   5.776   6.198  1.1982  0.3365  2.7589
  696MOL0     H93907  12.040   5.749   6.209 -0.2561  1.3978 -2.5567
  696MOL0     H93908  12.030   5.591   6.129  2.2504 -0.8870  2.5530
  696MOL0     H93909  11.979   5.861   6.036  0.5133  0.0957 -2.6178
  696MOL0     H93910  11.912   5.710   5.956 -0.3888 -1.9972  0.3417
  696MOL0     H93911  12.088   5.889   5.762  1.5395  1.7763 -0.3886
  696MOL0     H93912  12.409   5.718   5.651  0.2325  0.1182  1.4653
  696MOL0     H93913  12.281   5.812   5.564 -1.4931  2.3836  1.4652
  696MOL0     H93914  12.500   5.956   5.733  0.9790 -0.3513 -1.1177
  696MOL0     H93915  12.367   6.031   5.652 -2.7015 -0.0933 -0.0822
  696MOL0     H93916  12.440   5.948   5.432 -0.6516  0.3837  0.9967
  696MOL0     H93917  12.581   5.872   5.515 -0.1941  0.1801  1.6969
  696MOL0     H93918  12.658   6.066   5.430  0.7241 -4.3789  1.3377
  696MOL0     H93919  12.604   6.123   5.596 -0.1417 -2.7932  0.2933
  696MOL0     H93920  12.669   6.310   5.575 -1.7766  1.3074  3.1486
  696MOL0     H93921  12.784   6.479   5.620  1.1369  0.5939 -0.3827
  696MOL0     H93922  12.787   6.626   5.537  1.3407  1.1221  3.2043
  696MOL0     H93923  12.682   6.607   5.676 -1.1476 -0.7439 -1.0897
  696MOL0     H93924  12.525   7.026   5.501  0.6882 -1.1958  0.5277
  696MOL0     H93925  12.526   7.248   5.381  1.4252  1.0448 -1.9501
  696MOL0     H93926  12.555   7.327   4.964  2.4342  1.7046  1.4518
  696MOL0     H93927  12.447   7.230   5.067 -2.1311  1.4600 -0.9417
  696MOL0     H93928  12.436   7.443   5.234  1.7972  0.9703 -0.5163
  696MOL0     H93929  12.476   7.529   5.089 -2.6338 -0.3649 -1.9791
  696MOL0     H93930  12.278   7.421   4.979  1.1961 -1.4675 -0.5399
  696MOL0     H93931  12.229   7.509   5.122  0.7784 -0.0466  4.2682
  696MOL0     H93932  12.243   7.198   5.095  0.6350  0.8335 -0.6386
  696MOL0     H93933  12.249   7.280   5.257 -0.0961  3.7075  1.1795
  696MOL0     H93934  12.026   7.378   5.183 -1.3939 -1.1273 -1.3313
  696MOL0     H93935  12.029   7.206   5.191  0.7516  1.0871  2.3658
  696MOL0     H93936  12.032   7.381   4.930  2.6018  0.8541 -0.1428
  696MOL0     H93937  12.068   7.213   4.915 -1.7662  0.1715 -0.1055
  696MOL0     H93938  11.819   7.333   5.004  0.3900 -0.2669 -0.3919
  696MOL0     H93939  11.862   7.169   5.047  0.3970 -3.7338 -2.8116
  696MOL0     H93940  11.793   7.300   4.779  0.7529 -0.7440 -1.3098
  696MOL0     H93941  11.735   7.141   4.844  1.0364 -0.2776 -5.0325
  696MOL0     H93942  12.749   7.056   5.068  1.3978 -5.0581 -0.6282
  696MOL0     H93943  12.751   6.856   5.178  0.9219  0.0044  0.2803
  696MOL0     H93944  12.327   6.576   5.311 -0.3555  0.4582  1.0612
  696MOL0     H93945  12.318   6.330   5.323 -0.1988  1.1508 -1.4794
  696MOL0     H93946  11.134   5.257   6.667  1.8570 -0.2282  1.8277
  696MOL0     H93947  10.913   5.349   6.752  0.3994  1.6199  2.1943
  696MOL0     H93948  10.663   5.569   6.946  0.5400  1.0768  2.7014
  696MOL0     H93949  10.441   5.592   6.998  2.1013 -0.3791 -0.0350
  696MOL0     H93950  10.338   5.946   6.970  0.8578 -1.6773  3.8761
  696MOL0     H93951  10.171   5.956   6.932  0.7284  0.1477  1.3026
  696MOL0     H93952  10.295   5.787   7.154 -0.7380 -1.5434 -0.6895
  696MOL0     H93953  10.132   5.764   7.109  0.7384 -0.4745  0.8457
  696MOL0     H93954  10.061   5.974   7.180  0.8504  2.9592  0.0116
  696MOL0     H93955  10.221   6.042   7.174 -2.3226  0.4759 -1.5612
  696MOL0     H93956  10.298   5.945   7.377  0.7615 -0.5841 -2.6549
  696MOL0     H93957  10.160   5.830   7.385  0.3303  0.3850 -0.0788
  696MOL0     H93958  10.004   6.187   7.555  0.3022 -1.1004  2.1989
  696MOL0     H93959  10.415   5.904   6.686  1.0449 -2.8344 -2.7885
  696MOL0     H93960  10.647   5.870   6.642  1.3384 -1.1097  0.9844
  697MOL0     O93961  10.029   0.217   6.148  0.1124 -0.3773 -0.7366
  697MOL0     C93962  10.004   0.321   6.208 -1.1797 -0.7033  0.0123
  697MOL0     O93963   9.974   0.346   6.337  0.3252  1.0034  0.2725
  697MOL0     C93964   9.951   0.226   6.410 -1.0133 -0.1490  0.0935
  697MOL0     C93965  10.048   0.129   6.432  0.3426  0.4325  0.3327
  697MOL0     C93966  10.019   0.019   6.506 -0.2814  0.4935 -0.1456
  697MOL0     C93967   9.888   0.010   6.565  0.3636  0.5678 -0.1016
  697MOL0     O93968   9.842  -0.081   6.654 -0.8158  0.4597  0.0471
  697MOL0     C93969   9.827  -0.210   6.600  0.6652 -0.1104 -0.3305
  697MOL0     C93970   9.941  -0.294   6.662  0.0175 -0.3723 -0.4363
  697MOL0     C93971   9.938  -0.434   6.610  0.0030  1.1858 -0.9194
  697MOL0     C93972  10.033  -0.522   6.688  0.1577 -0.0750  0.1328
  697MOL0     C93973  10.177  -0.477   6.682  0.3734 -0.7642  0.2992
  697MOL0     C93974  10.269  -0.596   6.737  0.4874 -0.1560 -0.0388
  697MOL0     C93975  10.420  -0.575   6.741 -0.1002  0.1111  0.4581
  697MOL0     C93976  10.498  -0.691   6.807  0.8226 -0.0060 -0.1015
  697MOL0     N93977  10.631  -0.648   6.844 -0.2644  0.2356  0.7094
  697MOL0     C93978  10.668  -0.545   6.927  0.2720  1.2930 -0.4042
  697MOL0     C93979  10.803  -0.555   6.930 -0.0966  0.7949 -0.1888
  697MOL0     C93980  10.892  -0.467   7.016  0.2003 -0.5343  0.9281
  697MOL0     C93981  10.944  -0.346   6.936  0.1470  0.6573  0.0731
  697MOL0     C93982  10.836  -0.233   6.901 -0.3623  0.2925  0.4523
  697MOL0     C93983  10.848  -0.129   7.013  0.4483  0.0242  0.1976
  697MOL0     O93984  10.980  -0.075   7.045 -0.0393 -0.3053 -0.6059
  697MOL0     C93985  10.995   0.031   7.134  0.1826 -0.0669  0.5134
  697MOL0     C93986  11.125   0.070   7.165  0.1078  0.0548 -0.1701
  697MOL0     C93987  11.157   0.167   7.262 -0.5005 -0.1385 -0.2368
  697MOL0     C93988  11.297   0.189   7.302  0.2138 -0.4232 -0.6738
  697MOL0     C93989  11.043   0.240   7.324 -0.2024  0.4024  0.3326
  697MOL0     C93990  11.068   0.344   7.425  0.1525  0.8647 -0.3949
  697MOL0     O93991  11.166   0.323   7.515  0.4397 -0.8494  0.0111
  697MOL0     C93992  11.192   0.444   7.587  0.6531  0.1113  0.3283
  697MOL0     C93993  11.267   0.550   7.537 -0.4945  0.3840  0.2622
  697MOL0     C93994  11.285   0.668   7.612 -0.0302  0.3058 -0.5585
  697MOL0     C93995  11.216   0.680   7.735 -0.6508 -0.1705 -0.2468
  697MOL0     O93996  11.227   0.790   7.812  0.3755 -0.0547 -0.3718
  697MOL0     C93997  11.293   0.909   7.769  1.3051 -0.1393 -0.1811
  697MOL0     C93998  11.321   0.989   7.900 -0.0731 -0.0683 -0.1305
  697MOL0     C93999  11.416   1.118   7.883 -0.8973 -0.4843 -0.9464
  697MOL0     C94000  11.568   1.076   7.862  0.6571  0.2493 -0.6293
  697MOL0     C94001  11.675   1.183   7.856 -0.0152  0.4694 -0.6051
  697MOL0     C94002  11.638   1.291   7.755  1.3624 -0.2506  0.0530
  697MOL0     C94003  11.767   1.357   7.691  0.0125  0.1442 -0.1792
  697MOL0     C94004  11.831   1.460   7.788 -0.4080 -0.2974  0.9848
  697MOL0    Cl94005  11.969   1.543   7.700 -0.4367 -0.2932  0.0206
  697MOL0     C94006  11.148   0.586   7.787 -0.0170 -0.1556 -0.4306
  697MOL0     C94007  11.133   0.461   7.716 -0.6481 -0.1939 -0.7479
  697MOL0     O94008  11.000   0.452   7.413 -0.3756 -0.4372  0.2860
  697MOL0     C94009  10.909   0.205   7.279  0.2064  0.6609 -0.7387
  697MOL0     C94010  10.889   0.106   7.187  1.2988  0.9226  0.3344
  697MOL0     N94011  10.849  -0.655   6.851  1.0023  0.9671 -0.4511
  697MOL0     N94012  10.742  -0.707   6.788 -0.8945  0.3786 -0.6198
  697MOL0     C94013   9.792   0.110   6.547 -0.5692 -0.2543 -1.3607
  697MOL0     C94014   9.830   0.222   6.474  0.1481 -0.0186  0.5788
  697MOL0     C94015  10.029   0.440   6.131 -0.2741  0.3725 -0.1493
  697MOL0     C94016  10.071   0.560   6.187 -0.6063 -0.3857  0.6113
  697MOL0     C94017  10.107   0.677   6.111 -0.2032  0.2749 -0.3365
  697MOL0     C94018  10.080   0.671   5.973  0.7307 -0.6493 -0.3324
  697MOL0     O94019  10.096   0.772   5.878  0.1691 -0.7474  0.3091
  697MOL0     C94020  10.148   0.899   5.912 -0.3416 -0.0833  0.0835
  697MOL0     C94021  10.065   0.992   6.016  0.6780  0.1471  0.3571
  697MOL0     C94022  10.059   1.141   5.984  0.6102 -0.5471 -0.3478
  697MOL0     C94023   9.946   1.212   6.071  0.3143  0.4357 -0.0237
  697MOL0     C94024   9.962   1.360   6.078  0.1893 -0.3338 -0.5771
  697MOL0     C94025   9.985   1.475   6.103 -0.0075 -0.4937  0.6477
  697MOL0     C94026  10.033   0.546   5.918 -0.5425 -0.3996  0.3188
  697MOL0     C94027  10.005   0.444   5.991  0.3450 -0.9458 -0.2669
  697MOL0     H94028  10.149   0.132   6.391  1.8953 -0.4309  3.7307
  697MOL0     H94029  10.097  -0.051   6.534 -0.0866  1.8868  3.3280
  697MOL0     H94030   9.730  -0.255   6.621  0.3970  0.5260 -0.1845
  697MOL0     H94031   9.840  -0.206   6.491 -1.0709  1.4676 -0.5253
  697MOL0     H94032  10.040  -0.248   6.653 -0.7438  1.0248 -2.8245
  697MOL0     H94033   9.916  -0.297   6.768 -1.3339  0.1686 -0.7080
  697MOL0     H94034   9.841  -0.481   6.626  1.3734 -2.0729 -1.2741
  697MOL0     H94035   9.966  -0.454   6.506 -1.5200  2.0028 -1.5038
  697MOL0     H94036   9.997  -0.523   6.791 -2.7986  0.6412 -0.8233
  697MOL0     H94037  10.032  -0.626   6.653  0.5453 -0.0534  0.0515
  697MOL0     H94038  10.219  -0.449   6.585 -1.0953  5.2623  1.0100
  697MOL0     H94039  10.188  -0.388   6.745  0.3930 -1.8849  1.9276
  697MOL0     H94040  10.251  -0.618   6.842 -0.0140  1.0929  0.1515
  697MOL0     H94041  10.247  -0.680   6.671 -3.2909 -0.1674  0.9970
  697MOL0     H94042  10.449  -0.565   6.636  1.0597 -0.0655  0.7441
  697MOL0     H94043  10.445  -0.485   6.797  2.5930 -0.5411  0.4597
  697MOL0     H94044  10.491  -0.784   6.751 -1.5969  0.1251 -0.1172
  697MOL0     H94045  10.448  -0.709   6.902  0.6681  1.4285  0.1098
  697MOL0     H94046  10.598  -0.483   6.982 -1.0019  1.4936 -2.1722
  697MOL0     H94047  10.836  -0.440   7.106 -0.2720 -1.2500  0.8609
  697MOL0     H94048  10.974  -0.531   7.049  2.2390  0.0692 -2.4928
  697MOL0     H94049  10.968  -0.384   6.836 -1.1460  3.3756 -1.3837
  697MOL0     H94050  11.028  -0.299   6.987 -0.4780  0.8879  0.9190
  697MOL0     H94051  10.737  -0.280   6.907 -0.6081  0.6511 -0.5537
  697MOL0     H94052  10.856  -0.188   6.803  0.4608  1.3792  1.0916
  697MOL0     H94053  10.792  -0.162   7.102  3.2714 -1.4353  1.5627
  697MOL0     H94054  10.793  -0.038   6.986 -1.0468 -0.9388 -0.1564
  697MOL0     H94055  11.200   0.031   7.097  2.6938 -0.7035  2.8596
  697MOL0     H94056  11.316   0.294   7.325  2.2940 -0.6613 -1.0493
  697MOL0     H94057  11.339   0.116   7.372  0.4434  2.4911  2.4611
  697MOL0     H94058  11.370   0.167   7.224  1.3911 -3.8616  1.1703
  697MOL0     H94059  11.314   0.527   7.442 -1.7000  1.6277 -0.6716
  697MOL0     H94060  11.333   0.760   7.580 -1.0380  0.1693 -2.6289
  697MOL0     H94061  11.383   0.882   7.713  0.9902  0.0601 -0.7816
  697MOL0     H94062  11.221   0.964   7.709  1.8138 -2.0135 -2.6603
  697MOL0     H94063  11.227   1.025   7.942  0.8223 -0.2013  2.1296
  697MOL0     H94064  11.360   0.926   7.980 -0.9195 -0.9155 -0.3712
  697MOL0     H94065  11.413   1.168   7.979  0.1061 -2.2519  0.0553
  697MOL0     H94066  11.391   1.188   7.802  0.3124  1.8821  0.6262
  697MOL0     H94067  11.595   1.017   7.950  0.6249  0.8814 -0.1863
  697MOL0     H94068  11.579   1.018   7.770  0.0317 -1.1923  0.1781
  697MOL0     H94069  11.773   1.139   7.836 -0.0816 -0.2224  0.5276
  697MOL0     H94070  11.682   1.236   7.951 -1.3653  1.3296 -0.9453
  697MOL0     H94071  11.580   1.246   7.673  0.3871  0.7522  0.1648
  697MOL0     H94072  11.571   1.364   7.800  0.5543  1.7629 -3.9261
  697MOL0     H94073  11.733   1.410   7.602  0.0974 -0.3371 -0.5039
  697MOL0     H94074  11.837   1.278   7.663  0.6143  0.9689 -1.0728
  697MOL0     H94075  11.860   1.424   7.887 -2.4427  2.2943  2.6651
  697MOL0     H94076  11.757   1.532   7.825 -0.8393 -0.2355  0.0345
  697MOL0     H94077  11.097   0.610   7.880  2.1829  0.3182  0.7428
  697MOL0     H94078  11.085   0.374   7.760  0.7530 -0.9943 -0.7437
  697MOL0     H94079  10.819   0.251   7.317  1.4623  1.1851  1.8830
  697MOL0     H94080  10.787   0.092   7.152  1.7419  2.0745 -1.5796
  697MOL0     H94081   9.698   0.102   6.601  0.2170 -0.6451 -0.0025
  697MOL0     H94082   9.757   0.302   6.463 -1.7432 -1.9292 -2.1059
  697MOL0     H94083  10.069   0.578   6.294 -3.6178  0.2786  0.5441
  697MOL0     H94084  10.140   0.765   6.164 -2.3136 -0.1045  1.8059
  697MOL0     H94085  10.255   0.893   5.935  0.3682 -1.2368 -3.0208
  697MOL0     H94086  10.155   0.959   5.821 -0.7787 -1.9685 -1.2327
  697MOL0     H94087  10.110   0.988   6.115  0.4425  3.6727  0.7535
  697MOL0     H94088   9.962   0.956   6.019  0.2555  1.3186  0.4480
  697MOL0     H94089  10.063   1.164   5.878  1.2337  0.2641 -0.1539
  697MOL0     H94090  10.155   1.179   6.021  0.9294 -1.4821 -0.1642
  697MOL0     H94091   9.947   1.166   6.170  2.2059 -0.3224 -0.3593
  697MOL0     H94092   9.847   1.194   6.028  0.1075 -1.8283  1.2180
  697MOL0     H94093  10.006   1.577   6.131  2.0861 -1.0291  1.2143
  697MOL0     H94094  10.013   0.554   5.812 -0.5319  1.5645  0.4202
  697MOL0     H94095   9.972   0.355   5.939 -1.1780 -1.7096  1.8743
  698MOL0     O94096   8.860   8.048   8.656  0.5963  0.0305 -0.6569
  698MOL0     C94097   8.941   7.988   8.728  0.0503  0.4163 -0.3483
  698MOL0     O94098   9.071   7.955   8.688  0.3082  0.4356  0.2277
  698MOL0     C94099   9.077   7.974   8.545 -0.4884 -0.2070 -0.0607
  698MOL0     C94100   9.165   8.070   8.494  0.4691 -0.1846  0.5121
  698MOL0     C94101   9.176   8.084   8.350  0.1409  0.4103  0.5862
  698MOL0     C94102   9.118   7.993   8.265 -0.0955  0.0671 -0.3290
  698MOL0     O94103   9.134   8.018   8.135  0.4302 -0.2522 -0.7702
  698MOL0     C94104   9.050   7.964   8.031 -1.0390  0.1373 -0.7642
  698MOL0     C94105   9.014   8.083   7.930 -0.0104 -0.1300 -0.4825
  698MOL0     C94106   8.922   8.189   7.994  0.7289 -0.8601  0.1002
  698MOL0     C94107   8.769   8.196   7.964  0.4046  0.6769 -0.0912
  698MOL0     C94108   8.702   8.064   7.965 -0.1332 -0.4124 -0.0752
  698MOL0     C94109   8.689   7.998   8.104 -0.2866 -0.1560 -0.3061
  698MOL0     C94110   8.571   8.063   8.182  0.6093 -0.3460  0.0105
  698MOL0     C94111   8.442   7.989   8.167  0.6165  0.4163 -1.2048
  698MOL0     N94112   8.381   7.973   8.037  0.5845 -0.3268  0.7503
  698MOL0     C94113   8.322   8.079   7.968  0.0694  0.9012  1.1201
  698MOL0     C94114   8.261   8.021   7.862 -0.2785  1.0309  0.0916
  698MOL0     C94115   8.191   8.099   7.748  0.1706  0.0252  0.8228
  698MOL0     C94116   8.277   8.065   7.622  0.4449  0.0719 -0.8428
  698MOL0     C94117   8.429   8.126   7.629  0.2939  0.0761  0.8712
  698MOL0     C94118   8.493   8.125   7.486 -0.2684  0.3116 -0.4656
  698MOL0     O94119   8.487   8.236   7.395  0.0088  0.5486  0.5107
  698MOL0     C94120   8.580   8.338   7.410 -0.4254 -0.5063 -0.0484
  698MOL0     C94121   8.551   8.455   7.337 -0.7144  0.6596  0.3237
  698MOL0     C94122   8.644   8.569   7.343 -0.3297 -0.1755  1.7680
  698MOL0     C94123   8.603   8.700   7.283 -0.0971  0.1735 -0.1220
  698MOL0     C94124   8.769   8.544   7.396 -0.6028 -0.2221  0.0173
  698MOL0     C94125   8.871   8.650   7.385 -0.8147 -0.7694 -0.3579
  698MOL0     O94126   8.832   8.771   7.418 -0.0605  0.6211 -0.1838
  698MOL0     C94127   8.916   8.871   7.430  0.0318  0.7452  0.2021
  698MOL0     C94128   8.901   8.966   7.527 -0.6856 -1.5916 -0.8116
  698MOL0     C94129   8.973   9.082   7.521 -0.4642 -0.4746  0.2449
  698MOL0     C94130   9.071   9.110   7.432 -0.2557 -0.1835  0.4458
  698MOL0     O94131   9.128   9.234   7.422  0.0091  0.3187  0.2603
  698MOL0     C94132   9.167   9.283   7.549 -0.0041  0.2004 -0.6906
  698MOL0     C94133   9.301   9.360   7.541 -1.1236  0.3387  0.0945
  698MOL0     C94134   9.407   9.296   7.448  1.3588 -0.5027  0.2610
  698MOL0     C94135   9.535   9.274   7.531  1.0852 -0.3476 -0.3434
  698MOL0     C94136   9.657   9.246   7.439 -0.4614  0.0566  0.4957
  698MOL0     C94137   9.626   9.109   7.366 -0.0608 -0.8013 -0.1489
  698MOL0     C94138   9.747   9.074   7.276 -0.0990  0.4195  0.5823
  698MOL0     C94139   9.827   8.965   7.339  0.2987 -1.0780 -0.0476
  698MOL0    Cl94140   9.944   8.902   7.224  0.2034  0.2638  0.4944
  698MOL0     C94141   9.081   9.019   7.326  0.0032 -0.5314 -0.0673
  698MOL0     C94142   9.015   8.896   7.333  0.0455  0.4279  0.5745
  698MOL0     O94143   8.992   8.614   7.376  0.5698 -0.6093  0.0360
  698MOL0     C94144   8.785   8.433   7.476  0.0509  0.1144  0.2561
  698MOL0     C94145   8.694   8.335   7.482  0.1817 -0.5489 -1.7049
  698MOL0     N94146   8.281   7.879   7.875  0.3495  0.2356  0.3656
  698MOL0     N94147   8.353   7.854   7.978  0.1175  0.0817 -0.6196
  698MOL0     C94148   9.036   7.890   8.318 -0.0839 -0.4420 -0.2182
  698MOL0     C94149   9.019   7.882   8.452  1.1401  0.3064  0.3170
  698MOL0     C94150   8.909   7.969   8.871 -0.6964 -0.1021  0.2850
  698MOL0     C94151   8.987   7.883   8.951 -0.6008 -0.6708 -0.5256
  698MOL0     C94152   8.963   7.876   9.099 -0.1999 -0.3039 -0.1821
  698MOL0     C94153   8.857   7.951   9.151 -0.3340  0.6020 -0.4051
  698MOL0     O94154   8.826   7.964   9.287  0.4259 -0.5428 -0.2359
  698MOL0     C94155   8.918   7.912   9.387 -0.3126  0.6732  0.3461
  698MOL0     C94156   8.883   7.963   9.532 -0.1895 -0.6485  0.1897
  698MOL0     C94157   8.925   8.109   9.556 -0.4443  0.4975  0.7744
  698MOL0     C94158   9.082   8.133   9.557  1.0492  0.0342 -0.9521
  698MOL0     C94159   9.130   8.178   9.424  0.9901  0.9322  0.8647
  698MOL0     C94160   9.168   8.217   9.312 -0.3261  0.3194 -0.0818
  698MOL0     C94161   8.780   8.028   9.064  0.5986  0.1991  0.5716
  698MOL0     C94162   8.803   8.042   8.930 -0.7501  0.6272 -0.6188
  698MOL0     H94163   9.210   8.145   8.559  1.0489 -0.0099 -0.0843
  698MOL0     H94164   9.237   8.167   8.316  1.1507 -1.1820 -1.7244
  698MOL0     H94165   9.105   7.887   7.977 -0.9612 -1.1505  1.0703
  698MOL0     H94166   8.955   7.924   8.069 -1.0306  2.3233  1.9128
  698MOL0     H94167   9.108   8.127   7.896  0.5750 -1.2636 -0.4146
  698MOL0     H94168   8.965   8.039   7.842 -2.1052 -1.1525  1.1083
  698MOL0     H94169   8.931   8.184   8.103 -2.3585 -1.2333  0.4319
  698MOL0     H94170   8.967   8.283   7.961  0.2158 -0.9153 -0.7886
  698MOL0     H94171   8.723   8.272   8.029  3.3112  3.2724 -0.8079
  698MOL0     H94172   8.762   8.229   7.860  1.5598  1.8827  0.1834
  698MOL0     H94173   8.603   8.059   7.919 -0.5015  1.7219  0.3755
  698MOL0     H94174   8.756   7.988   7.907 -0.9301 -0.8462 -0.2721
  698MOL0     H94175   8.662   7.892   8.096 -0.7339 -0.1104  0.4622
  698MOL0     H94176   8.788   7.995   8.152 -0.3074 -3.1161 -0.2590
  698MOL0     H94177   8.597   8.073   8.287 -1.2934 -2.9162  0.8356
  698MOL0     H94178   8.569   8.169   8.155  1.1277 -0.4211 -0.3376
  698MOL0     H94179   8.366   8.018   8.241 -0.9257 -2.8053 -1.3424
  698MOL0     H94180   8.464   7.886   8.199  0.1199  0.6052 -0.2073
  698MOL0     H94181   8.334   8.186   7.979  1.0914  0.6497  2.6267
  698MOL0     H94182   8.091   8.060   7.729 -0.0766  1.5801 -1.5311
  698MOL0     H94183   8.182   8.207   7.764  1.1692 -0.0516  2.0668
  698MOL0     H94184   8.227   8.122   7.543 -0.9266  0.2343  0.1072
  698MOL0     H94185   8.284   7.958   7.604  1.7086 -0.4235  2.0587
  698MOL0     H94186   8.492   8.067   7.697  2.6879 -0.3742 -1.5665
  698MOL0     H94187   8.420   8.227   7.671 -1.6347  0.4841 -0.4180
  698MOL0     H94188   8.464   8.034   7.431  0.2887  0.5208 -1.1165
  698MOL0     H94189   8.598   8.106   7.508 -0.3721  2.0591  2.0089
  698MOL0     H94190   8.452   8.457   7.293 -0.2309 -1.4794 -0.9805
  698MOL0     H94191   8.683   8.739   7.219  0.2781  3.9259  2.3241
  698MOL0     H94192   8.514   8.689   7.220  0.3608 -1.2955 -0.5671
  698MOL0     H94193   8.591   8.760   7.373  2.1598  0.4562  0.0457
  698MOL0     H94194   8.825   8.941   7.600 -2.3358  0.6907 -1.6081
  698MOL0     H94195   8.957   9.156   7.599 -2.4791 -3.0806  2.5125
  698MOL0     H94196   9.088   9.350   7.587  0.1692  0.3036 -0.5058
  698MOL0     H94197   9.167   9.204   7.625 -1.4451  1.8742  1.1766
  698MOL0     H94198   9.287   9.463   7.506 -0.9928  0.2930 -0.0918
  698MOL0     H94199   9.332   9.371   7.645 -0.1277  1.1021 -0.2697
  698MOL0     H94200   9.416   9.349   7.353 -1.6877  0.8098  0.5799
  698MOL0     H94201   9.369   9.195   7.429 -1.6617  0.0846  2.4010
  698MOL0     H94202   9.544   9.372   7.577 -2.1549 -0.1312  0.0779
  698MOL0     H94203   9.532   9.203   7.615  1.4384  0.0356 -0.0055
  698MOL0     H94204   9.745   9.227   7.502  0.6196 -0.0182 -1.0028
  698MOL0     H94205   9.670   9.333   7.375  0.1235  2.6837  3.8729
  698MOL0     H94206   9.610   9.037   7.447  3.8252 -0.8350  0.7688
  698MOL0     H94207   9.547   9.111   7.291  1.6648 -1.6228 -2.0953
  698MOL0     H94208   9.818   9.156   7.263 -1.4618  1.6235  0.5266
  698MOL0     H94209   9.718   9.026   7.182 -0.5381  0.0557  0.8958
  698MOL0     H94210   9.764   8.884   7.377  0.4020 -0.7783  0.8014
  698MOL0     H94211   9.881   9.004   7.426  0.3204  0.3644 -0.6748
  698MOL0     H94212   9.153   9.027   7.246 -2.4677 -0.0543 -2.3690
  698MOL0     H94213   9.047   8.810   7.275  6.6935  0.1301  3.6733
  698MOL0     H94214   8.883   8.430   7.521  1.1985 -1.2100 -2.1471
  698MOL0     H94215   8.728   8.248   7.536  1.5471  2.1120  2.1424
  698MOL0     H94216   8.984   7.817   8.256 -1.3607  3.2124 -3.9294
  698MOL0     H94217   8.951   7.808   8.490 -0.7278  1.1071 -1.2771
  698MOL0     H94218   9.067   7.827   8.902  1.9257  2.2896 -0.1184
  698MOL0     H94219   9.027   7.816   9.162 -0.6279 -0.9264 -0.3320
  698MOL0     H94220   8.914   7.803   9.390  1.1550  0.6028  0.3265
  698MOL0     H94221   9.024   7.933   9.368 -0.5660  3.0684  1.1599
  698MOL0     H94222   8.922   7.893   9.606 -3.5736 -1.5410  1.3440
  698MOL0     H94223   8.774   7.968   9.544  0.0310  0.1668  2.2663
  698MOL0     H94224   8.889   8.143   9.654 -0.4184  1.7417  0.3720
  698MOL0     H94225   8.878   8.173   9.480 -0.3167  1.2146  1.2831
  698MOL0     H94226   9.127   8.036   9.581 -0.6140 -0.5927 -0.2662
  698MOL0     H94227   9.109   8.205   9.634 -0.4564 -1.5226  1.1419
  698MOL0     H94228   9.215   8.224   9.216  2.6567 -0.5843  1.2235
  698MOL0     H94229   8.718   8.100   9.115  3.0971  1.9277  1.3707
  698MOL0     H94230   8.761   8.114   8.860 -0.9965 -0.5224 -1.6949
  699MOL0     O94231   8.052   1.487  10.617  0.3206  0.0168 -0.0012
  699MOL0     C94232   8.145   1.562  10.585  0.2098  0.3139 -0.2166
  699MOL0     O94233   8.179   1.680  10.646 -0.4606 -0.6672  0.1021
  699MOL0     C94234   8.136   1.698  10.773 -0.0706 -0.8900 -1.8255
  699MOL0     C94235   8.033   1.787  10.803 -0.2328  0.4386 -0.1966
  699MOL0     C94236   7.977   1.808  10.934 -0.3257 -0.3706 -0.1200
  699MOL0     C94237   8.033   1.741  11.047 -0.3312 -0.2345 -0.3798
  699MOL0     O94238   8.001   1.754  11.182  0.2625 -0.5919  0.0470
  699MOL0     C94239   7.862   1.772  11.225 -0.0427  0.9555 -1.3651
  699MOL0     C94240   7.820   1.920  11.256 -0.2975  0.0464 -1.0801
  699MOL0     C94241   7.877   1.981  11.386 -0.5546  0.1233 -0.2119
  699MOL0     C94242   7.789   2.092  11.436 -0.6814 -0.7117 -0.2271
  699MOL0     C94243   7.860   2.216  11.479 -0.2168  0.7610 -0.0634
  699MOL0     C94244   7.942   2.293  11.374  0.3277 -0.3208  0.4873
  699MOL0     C94245   7.998   2.422  11.433 -0.1860  0.4787 -0.4266
  699MOL0     C94246   8.121   2.406  11.531 -0.2264 -0.0677 -0.3881
  699MOL0     N94247   8.250   2.388  11.461  0.5327 -0.3237  0.0171
  699MOL0     C94248   8.314   2.267  11.450  0.1007 -0.1562 -0.3085
  699MOL0     C94249   8.427   2.301  11.394 -0.4233  0.1204 -1.0428
  699MOL0     C94250   8.540   2.207  11.362  0.5524  0.0520 -0.1884
  699MOL0     C94251   8.633   2.197  11.479  0.8234 -0.4037 -0.5860
  699MOL0     C94252   8.748   2.112  11.423  0.7889  0.0388 -0.6540
  699MOL0     C94253   8.699   1.966  11.397  0.6073  0.9339  0.0813
  699MOL0     O94254   8.802   1.866  11.411  0.8799 -0.5510  0.9403
  699MOL0     C94255   8.868   1.848  11.293 -0.5501  0.0696 -0.3566
  699MOL0     C94256   9.002   1.882  11.276  0.0295 -0.2214  0.1010
  699MOL0     C94257   9.066   1.867  11.153 -0.5483  1.1378  0.0859
  699MOL0     C94258   9.214   1.904  11.140 -0.6449 -1.1093 -0.6687
  699MOL0     C94259   9.003   1.798  11.052  0.3705 -0.3079 -1.0435
  699MOL0     C94260   9.054   1.732  10.934  0.1862 -0.2978 -0.6180
  699MOL0     O94261   9.006   1.609  10.906 -0.7342 -0.5579 -0.1258
  699MOL0     C94262   9.051   1.552  10.793 -0.4767  0.2236 -0.0763
  699MOL0     C94263   8.970   1.541  10.682 -0.5179 -0.4128  0.1079
  699MOL0     C94264   9.004   1.452  10.575 -0.1410 -1.1738 -0.2077
  699MOL0     C94265   9.128   1.381  10.590  0.4105 -0.7504 -0.6587
  699MOL0     O94266   9.159   1.303  10.477 -0.3924 -0.5730  0.0544
  699MOL0     C94267   9.231   1.187  10.489  0.2512  0.2013 -0.7664
  699MOL0     C94268   9.246   1.131  10.351 -0.5633 -0.7097  0.1751
  699MOL0     C94269   9.134   1.022  10.330  0.3302 -0.6116  1.1426
  699MOL0     C94270   9.010   1.086  10.264  0.5770  0.6063  0.0144
  699MOL0     C94271   8.878   0.999  10.294 -0.1891  0.1026  0.5103
  699MOL0     C94272   8.835   1.007  10.447  0.2663 -0.4900  1.2250
  699MOL0     C94273   8.690   0.957  10.481 -0.2350 -0.0902  0.4432
  699MOL0     C94274   8.656   0.811  10.447 -1.1312  0.3399  0.8726
  699MOL0    Cl94275   8.776   0.711  10.533  0.5994  0.8905  0.1832
  699MOL0     C94276   9.214   1.397  10.704  0.8168  0.1682 -0.2378
  699MOL0     C94277   9.175   1.487  10.799 -0.7785  0.1650 -0.3743
  699MOL0     O94278   9.139   1.793  10.873  0.0833  0.0602 -0.9989
  699MOL0     C94279   8.861   1.773  11.066 -0.8043  0.1492 -0.3552
  699MOL0     C94280   8.797   1.791  11.185 -0.6606  0.8253 -1.4868
  699MOL0     N94281   8.435   2.433  11.367  0.5249 -0.4436  0.0149
  699MOL0     N94282   8.322   2.489  11.405 -0.3415  0.4102 -0.3731
  699MOL0     C94283   8.145   1.662  11.023 -0.5070  0.2655 -0.6530
  699MOL0     C94284   8.198   1.640  10.892  1.3379  0.5607 -0.1930
  699MOL0     C94285   8.207   1.518  10.463 -0.0728  0.8315  0.2797
  699MOL0     C94286   8.197   1.388  10.410 -0.0762 -0.8851 -0.2552
  699MOL0     C94287   8.253   1.349  10.292 -0.2513 -0.2014 -0.1225
  699MOL0     C94288   8.326   1.443  10.216  1.1928 -0.4121  0.4617
  699MOL0     O94289   8.398   1.420  10.103  0.3068  0.3068 -0.7908
  699MOL0     C94290   8.422   1.284  10.062  0.2456 -0.0108  0.5056
  699MOL0     C94291   8.518   1.277   9.944 -0.2580  0.5385 -0.0511
  699MOL0     C94292   8.438   1.273   9.809 -0.4355 -0.2436 -0.0995
  699MOL0     C94293   8.533   1.273   9.682 -0.4818  0.4435 -0.0849
  699MOL0     C94294   8.606   1.153   9.679 -0.1635  0.4456  1.2428
  699MOL0     C94295   8.667   1.048   9.683 -0.8945 -0.4435  0.4280
  699MOL0     C94296   8.340   1.574  10.257 -0.1867 -0.1201 -0.1002
  699MOL0     C94297   8.278   1.611  10.380 -0.2185 -0.6026 -0.2113
  699MOL0     H94298   7.976   1.833  10.723  2.2582  3.0701 -0.6268
  699MOL0     H94299   7.892   1.873  10.950 -0.7665 -0.7263 -0.9416
  699MOL0     H94300   7.791   1.734  11.151  0.6488  0.3571 -1.7459
  699MOL0     H94301   7.849   1.710  11.314  1.4794 -2.1518 -3.1207
  699MOL0     H94302   7.845   1.984  11.171 -1.5998 -0.0236 -1.5428
  699MOL0     H94303   7.714   1.915  11.281  0.0442  0.8199  0.6794
  699MOL0     H94304   7.888   1.913  11.471  0.9154  2.2751  1.3989
  699MOL0     H94305   7.977   2.023  11.375 -0.9747  1.4008  0.7025
  699MOL0     H94306   7.719   2.122  11.357 -1.7075  2.0310  1.5599
  699MOL0     H94307   7.729   2.062  11.523  0.4882 -1.6938  0.2623
  699MOL0     H94308   7.784   2.289  11.508 -0.5056  1.2535 -1.9477
  699MOL0     H94309   7.931   2.183  11.555 -1.9952 -2.6450  0.3031
  699MOL0     H94310   8.018   2.225  11.334 -0.1395 -2.4071  2.9567
  699MOL0     H94311   7.871   2.315  11.293  3.6704 -1.7537 -3.1679
  699MOL0     H94312   8.024   2.486  11.348  1.2404  5.4954  3.2947
  699MOL0     H94313   7.912   2.469  11.481 -0.2711  1.8391 -1.8085
  699MOL0     H94314   8.098   2.325  11.601 -2.2780 -1.3602 -2.4403
  699MOL0     H94315   8.122   2.504  11.580 -1.5921 -1.3520  2.4333
  699MOL0     H94316   8.273   2.169  11.472  1.2506 -0.9437 -1.5060
  699MOL0     H94317   8.492   2.115  11.329  1.7959 -0.2267 -1.3525
  699MOL0     H94318   8.584   2.248  11.270  0.0247  3.0394  0.7791
  699MOL0     H94319   8.579   2.171  11.571 -0.0497  2.4215 -0.1933
  699MOL0     H94320   8.670   2.295  11.509 -1.2956  0.5755 -0.9549
  699MOL0     H94321   8.827   2.097  11.497  0.0864  0.3835  0.1767
  699MOL0     H94322   8.788   2.164  11.335  2.5407 -4.1410 -2.6029
  699MOL0     H94323   8.667   1.986  11.294  1.5163 -0.1094 -0.4324
  699MOL0     H94324   8.618   1.933  11.462  1.4312 -0.9989  0.1966
  699MOL0     H94325   9.064   1.931  11.350  1.4578 -0.9685 -0.5671
  699MOL0     H94326   9.262   1.854  11.055  3.1330  0.7678  0.1350
  699MOL0     H94327   9.224   2.011  11.117 -1.1874 -0.9103 -0.0150
  699MOL0     H94328   9.275   1.876  11.226 -0.7373  0.1121 -0.1756
  699MOL0     H94329   8.878   1.598  10.687 -1.1515 -1.1960 -1.7025
  699MOL0     H94330   8.942   1.431  10.489  2.4210 -0.0704 -2.4554
  699MOL0     H94331   9.330   1.203  10.534  1.1797  0.9630 -2.9673
  699MOL0     H94332   9.188   1.118  10.562  0.1980  1.2932  0.2817
  699MOL0     H94333   9.253   1.208  10.274  0.2747 -2.7912 -1.9435
  699MOL0     H94334   9.346   1.088  10.348 -0.8261 -1.4116  0.9664
  699MOL0     H94335   9.105   0.980  10.426 -0.5568 -0.3784  0.9875
  699MOL0     H94336   9.165   0.942  10.261 -0.9518  0.2748 -0.5491
  699MOL0     H94337   9.000   1.193  10.285 -2.4778  1.0437 -2.9223
  699MOL0     H94338   9.021   1.069  10.157 -1.9017 -0.6216 -0.1015
  699MOL0     H94339   8.887   0.895  10.263 -0.1490  1.2148 -3.8661
  699MOL0     H94340   8.792   1.037  10.238 -0.2019  0.4205  0.7372
  699MOL0     H94341   8.912   0.944  10.492  2.9847  0.5112 -1.6882
  699MOL0     H94342   8.840   1.112  10.478  3.3474 -0.8767  2.4243
  699MOL0     H94343   8.622   1.023  10.426 -3.5125 -2.1726  1.7692
  699MOL0     H94344   8.679   0.966  10.589  3.0278 -2.1460  1.0746
  699MOL0     H94345   8.665   0.786  10.341  0.9456  0.2368  1.0342
  699MOL0     H94346   8.555   0.788  10.482 -1.1762  0.1891  0.6522
  699MOL0     H94347   9.305   1.339  10.712 -1.2110 -3.0188  2.0249
  699MOL0     H94348   9.238   1.496  10.887  4.3900 -0.9733 -3.5122
  699MOL0     H94349   8.812   1.718  10.987  2.4052 -5.5564  0.9984
  699MOL0     H94350   8.695   1.760  11.200 -0.5730  0.5705 -1.4194
  699MOL0     H94351   8.197   1.616  11.106 -1.4063  0.0233 -0.2084
  699MOL0     H94352   8.289   1.583  10.879  0.7019 -0.0260 -2.7188
  699MOL0     H94353   8.148   1.318  10.477 -0.0919  0.1125  0.8243
  699MOL0     H94354   8.267   1.246  10.262 -0.6484 -0.1504 -0.5045
  699MOL0     H94355   8.469   1.230  10.144 -4.2635  0.4848  3.8324
  699MOL0     H94356   8.333   1.223  10.040  1.5796 -1.4856 -1.0845
  699MOL0     H94357   8.575   1.184   9.947 -1.0843  0.0530  1.5812
  699MOL0     H94358   8.579   1.367   9.954 -0.1697  0.2173  3.7228
  699MOL0     H94359   8.370   1.358   9.815  1.8344  1.7243 -0.9990
  699MOL0     H94360   8.383   1.178   9.819  0.3469 -0.8490 -1.2896
  699MOL0     H94361   8.609   1.352   9.695  0.5333 -0.9849  4.3272
  699MOL0     H94362   8.478   1.295   9.590 -1.9749  2.9334  1.3001
  699MOL0     H94363   8.727   0.959   9.681  1.3381  0.9855  0.0628
  699MOL0     H94364   8.394   1.645  10.196 -0.0855  1.2546  1.5021
  699MOL0     H94365   8.282   1.718  10.396  2.5711 -0.0176 -3.5684
  700MOL0     O94366   7.569  11.115   9.601  0.0411  0.7853  0.0302
  700MOL0     C94367   7.455  11.112   9.546 -0.2216  0.2945 -0.8472
  700MOL0     O94368   7.339  11.152   9.592  0.2169  0.3544 -0.1121
  700MOL0     C94369   7.323  11.189   9.726 -0.0011 -0.1442 -0.6397
  700MOL0     C94370   7.409  11.148   9.833 -0.3581  0.2020 -0.7180
  700MOL0     C94371   7.385  11.182   9.967  1.8415  0.3038  0.3764
  700MOL0     C94372   7.264  11.254   9.989  0.0310  0.7033 -0.1895
  700MOL0     O94373   7.224  11.290  10.115 -0.4775 -0.0505 -0.1629
  700MOL0     C94374   7.136  11.197  10.174  0.0174  0.3067 -0.3244
  700MOL0     C94375   7.078  11.257  10.311 -0.4379 -0.0600  0.0194
  700MOL0     C94376   7.123  11.187  10.432  0.2557  0.1031 -0.2219
  700MOL0     C94377   7.041  11.236  10.554  1.3270 -0.2636  0.4378
  700MOL0     C94378   7.096  11.175  10.679 -0.8474 -0.2884 -0.5896
  700MOL0     C94379   7.019  11.207  10.813  0.2149 -0.7686 -0.0600
  700MOL0     C94380   7.112  11.164  10.930 -0.2980  0.0769  1.1703
  700MOL0     C94381   7.034  11.183  11.059  0.3076  0.4340  0.2450
  700MOL0     N94382   7.123  11.142  11.179  0.3371 -0.2008  0.0312
  700MOL0     C94383   7.250  11.192  11.209  0.5707 -0.0158 -0.0341
  700MOL0     C94384   7.283  11.111  11.319 -0.0398 -1.1642  0.2011
  700MOL0     C94385   7.404  11.145  11.402 -0.6179  1.0010  0.0458
  700MOL0     C94386   7.392  11.281  11.465 -0.7012 -0.3691 -0.1744
  700MOL0     C94387   7.488  11.287  11.588  0.2117 -0.2908 -0.7944
  700MOL0     C94388   7.438  11.207  11.720 -0.8305 -1.1576 -0.4964
  700MOL0     O94389   7.324  11.269  11.779  0.6111 -0.5167 -0.1271
  700MOL0     C94390   7.290  11.214  11.896  0.3615  0.1836  0.4128
  700MOL0     C94391   7.339  11.094  11.958 -0.1216  0.6855  0.8672
  700MOL0     C94392   7.305  11.047  12.087  0.4304 -0.2706  0.2209
  700MOL0     C94393   7.376  10.924  12.137  0.7415 -0.2692 -0.4665
  700MOL0     C94394   7.204  11.119  12.155  0.9419 -0.1020  1.0479
  700MOL0     C94395   7.146  11.068  12.286  0.1567 -0.5494  0.1851
  700MOL0     O94396   7.207  10.967  12.360  0.4202 -0.0657 -0.0161
  700MOL0     C94397   7.163  10.939  12.488  1.2775 -0.2839 -0.0663
  700MOL0     C94398   7.052  10.861  12.512  1.0842  0.1374  0.2765
  700MOL0     C94399   7.018  10.828  12.643 -0.4545  0.4120  0.5169
  700MOL0     C94400   7.076  10.892  12.753 -0.3081 -0.1884  1.1233
  700MOL0     O94401   7.031  10.861  12.884 -0.4312 -1.0340  0.1532
  700MOL0     C94402   7.105  10.904  12.993 -0.0363  0.2235 -0.4241
  700MOL0     C94403   7.028  10.861  13.117  0.2460  0.5748  1.1590
  700MOL0     C94404   7.052  10.704  13.129 -0.6480 -0.0014  0.4157
  700MOL0     C94405   6.972  10.646  13.254 -0.8338  0.2529 -0.3011
  700MOL0     C94406   6.978  10.495  13.269  0.2333  0.1436 -0.1225
  700MOL0     C94407   7.112  10.433  13.239 -0.1486 -0.0500  0.0051
  700MOL0     C94408   7.122  10.278  13.265 -0.5315 -0.6028 -0.5613
  700MOL0     C94409   6.995  10.183  13.235  0.2211  0.0686  0.2361
  700MOL0    Cl94410   7.018  10.017  13.297  0.1055  0.3887  0.0431
  700MOL0     C94411   7.168  10.994  12.723 -0.1288  0.3020 -0.4900
  700MOL0     C94412   7.221  11.010  12.596 -0.1929  0.7471 -0.0200
  700MOL0     O94413   7.050  11.129  12.327 -0.0984  0.6543  0.1135
  700MOL0     C94414   7.150  11.238  12.090  0.3103  1.0108 -0.2293
  700MOL0     C94415   7.194  11.280  11.971 -0.1211 -0.1023 -0.0345
  700MOL0     N94416   7.188  11.014  11.337 -0.2922  0.0135 -0.5049
  700MOL0     N94417   7.089  11.035  11.253  0.4994 -0.4386 -0.8778
  700MOL0     C94418   7.181  11.287   9.883  1.0143  0.1644  0.3314
  700MOL0     C94419   7.207  11.261   9.760 -1.1094  0.1412 -0.2118
  700MOL0     C94420   7.448  11.044   9.421  0.1348  0.2833  0.4831
  700MOL0     C94421   7.373  11.101   9.314  0.1248 -0.3963 -0.4156
  700MOL0     C94422   7.352  11.036   9.192 -0.1776  0.3952 -0.3714
  700MOL0     C94423   7.422  10.915   9.171  0.3343  0.0714  0.0602
  700MOL0     O94424   7.429  10.845   9.050  0.0742 -0.5054  0.1231
  700MOL0     C94425   7.325  10.867   8.947  0.6858 -0.3018  1.2064
  700MOL0     C94426   7.346  10.987   8.849 -0.1376  0.2043 -0.4445
  700MOL0     C94427   7.465  10.962   8.763 -1.4665  0.2608 -0.5756
  700MOL0     C94428   7.450  10.829   8.666  0.2561 -0.5280  0.5034
  700MOL0     C94429   7.353  10.866   8.563 -0.1495  0.1670 -0.0004
  700MOL0     C94430   7.263  10.917   8.507 -0.1539 -0.0954  0.5318
  700MOL0     C94431   7.494  10.857   9.275 -0.0557 -0.0636 -0.7057
  700MOL0     C94432   7.514  10.923   9.401 -0.3218 -0.8612 -0.2050
  700MOL0     H94433   7.496  11.086   9.812  2.2071  0.3700  6.4920
  700MOL0     H94434   7.441  11.151  10.055  1.8449  2.9313  1.4222
  700MOL0     H94435   7.049  11.170  10.114 -0.4007  0.5766  0.1543
  700MOL0     H94436   7.191  11.104  10.194  1.0793 -0.0640 -4.1239
  700MOL0     H94437   7.090  11.366  10.313 -0.3756  0.0291 -2.2684
  700MOL0     H94438   6.969  11.247  10.303 -0.4143 -0.7926  0.5290
  700MOL0     H94439   7.108  11.079  10.422 -0.3167  0.0302  1.1259
  700MOL0     H94440   7.227  11.202  10.462 -0.1231 -1.5293  2.1907
  700MOL0     H94441   7.047  11.346  10.557  0.1687 -0.1156 -1.1520
  700MOL0     H94442   6.934  11.224  10.535  1.0727  0.2771  1.4162
  700MOL0     H94443   7.117  11.068  10.667 -1.7203 -0.2646 -2.9244
  700MOL0     H94444   7.196  11.219  10.683 -0.9106 -0.2382  0.6047
  700MOL0     H94445   6.991  11.313  10.812  3.8586  0.4402 -4.1428
  700MOL0     H94446   6.931  11.143  10.810 -0.5470  0.2379  0.2475
  700MOL0     H94447   7.144  11.059  10.928  2.1949  0.7945 -0.1453
  700MOL0     H94448   7.199  11.230  10.937 -1.9730  2.7953 -1.3674
  700MOL0     H94449   6.952  11.111  11.058  2.1443 -1.9574 -3.5553
  700MOL0     H94450   6.999  11.287  11.057 -0.4973  0.1827 -2.1840
  700MOL0     H94451   7.308  11.265  11.154  0.3373  2.7103  2.9920
  700MOL0     H94452   7.399  11.073  11.485 -0.6897  1.4628  0.4459
  700MOL0     H94453   7.499  11.135  11.348 -0.6067  0.5405  0.1485
  700MOL0     H94454   7.290  11.285  11.505 -0.8176 -3.1742  0.0163
  700MOL0     H94455   7.420  11.355  11.391 -0.6550  0.7912  0.9644
  700MOL0     H94456   7.516  11.391  11.602  4.8632 -1.3058 -1.0771
  700MOL0     H94457   7.584  11.242  11.562 -0.1140 -1.6494  0.2551
  700MOL0     H94458   7.519  11.205  11.793  1.0005  3.9681 -1.9642
  700MOL0     H94459   7.423  11.102  11.691  2.1516 -1.6939 -0.3486
  700MOL0     H94460   7.420  11.045  11.905 -1.0504  1.8800 -1.8856
  700MOL0     H94461   7.302  10.856  12.180 -0.2589  0.8717 -0.3198
  700MOL0     H94462   7.442  10.863  12.075  3.2340 -1.6659  3.1706
  700MOL0     H94463   7.439  10.956  12.221  3.9127 -4.1207 -1.1113
  700MOL0     H94464   7.005  10.830  12.418  2.5123 -1.2246 -0.0359
  700MOL0     H94465   6.945  10.752  12.668  0.0913 -1.0516 -2.0552
  700MOL0     H94466   7.210  10.872  12.997  0.6305  2.0406 -1.8788
  700MOL0     H94467   7.110  11.013  12.987  4.3678  0.2588  0.5580
  700MOL0     H94468   7.063  10.914  13.206  1.7325  0.1883  0.8329
  700MOL0     H94469   6.919  10.868  13.122  0.1879  1.0131 -0.1588
  700MOL0     H94470   7.159  10.682  13.140 -0.3991  1.5193  1.3430
  700MOL0     H94471   7.015  10.655  13.038  2.2138 -1.7768  0.0704
  700MOL0     H94472   7.029  10.686  13.339  1.1869 -0.6787 -1.1342
  700MOL0     H94473   6.870  10.682  13.239 -1.7119 -1.6630  0.6730
  700MOL0     H94474   6.898  10.450  13.208 -0.3446  1.9143 -0.7212
  700MOL0     H94475   6.951  10.470  13.372 -1.2831  3.2679  0.3595
  700MOL0     H94476   7.139  10.447  13.135  1.2387  1.8983  0.5822
  700MOL0     H94477   7.188  10.486  13.298  1.5658 -0.8812 -1.3813
  700MOL0     H94478   7.145  10.271  13.372  2.9475  1.8214 -0.9606
  700MOL0     H94479   7.210  10.244  13.209 -1.2847 -1.5000 -1.2177
  700MOL0     H94480   6.985  10.176  13.126  1.2658  1.5176  0.0208
  700MOL0     H94481   6.904  10.226  13.278  0.2122  1.5363 -1.1395
  700MOL0     H94482   7.211  11.055  12.802 -3.8510  0.9153  1.2770
  700MOL0     H94483   7.305  11.077  12.578  0.5653 -0.6066 -1.8772
  700MOL0     H94484   7.075  11.285  12.153 -0.8730 -3.1471  1.8258
  700MOL0     H94485   7.147  11.368  11.930  1.5962 -0.9193 -4.2435
  700MOL0     H94486   7.083  11.332   9.896  0.2784 -0.8043 -1.4491
  700MOL0     H94487   7.130  11.280   9.686 -0.2580  0.3012 -1.0692
  700MOL0     H94488   7.336  11.203   9.316  0.9102 -0.0946 -0.7649
  700MOL0     H94489   7.292  11.082   9.114 -0.2727 -2.0001 -1.8100
  700MOL0     H94490   7.312  10.774   8.891 -0.3497  0.0735  0.7911
  700MOL0     H94491   7.228  10.887   8.993  0.7033  0.1145  1.0684
  700MOL0     H94492   7.360  11.080   8.904  0.3514 -0.7273  1.0425
  700MOL0     H94493   7.253  10.998   8.792 -0.0510 -2.6059 -1.2574
  700MOL0     H94494   7.553  10.940   8.823 -3.2661 -2.8892  1.1650
  700MOL0     H94495   7.491  11.049   8.702  2.5202  1.9656  3.0225
  700MOL0     H94496   7.426  10.741   8.725  1.0926  0.1099  1.8507
  700MOL0     H94497   7.546  10.821   8.614 -0.4776  0.3927 -1.0720
  700MOL0     H94498   7.183  10.964   8.453 -0.2332  0.3284  1.0092
  700MOL0     H94499   7.551  10.769   9.247 -1.8582 -1.5499  0.1038
  700MOL0     H94500   7.583  10.881   9.473 -0.6014 -1.0122 -0.0249
  701MOL0     O94501   9.391   5.525   2.134 -0.0616  0.7894 -0.2044
  701MOL0     C94502   9.364   5.603   2.042 -0.4176  0.3732 -0.4251
  701MOL0     O94503   9.311   5.573   1.921 -0.3948 -0.6512  0.0488
  701MOL0     C94504   9.281   5.440   1.885 -0.6229 -0.6889 -0.2939
  701MOL0     C94505   9.170   5.433   1.810  0.0688  0.0174  0.5527
  701MOL0     C94506   9.118   5.313   1.777 -0.8385  0.1684 -0.4452
  701MOL0     C94507   9.186   5.195   1.805  1.0177  0.0714 -0.1485
  701MOL0     O94508   9.141   5.071   1.761 -0.4525  0.7296  0.0540
  701MOL0     C94509   9.074   5.056   1.634 -0.1980 -0.2051 -0.1462
  701MOL0     C94510   9.054   4.901   1.610 -0.1588  0.0130  0.2450
  701MOL0     C94511   8.966   4.863   1.496  0.5107  0.6419  0.0917
  701MOL0     C94512   8.965   4.710   1.488  1.5304  0.4083 -0.0414
  701MOL0     C94513   8.830   4.659   1.428 -0.0973  1.1477  0.4369
  701MOL0     C94514   8.800   4.510   1.427 -0.2224  0.0094 -0.3750
  701MOL0     C94515   8.771   4.447   1.569 -0.4870  0.0173  0.4937
  701MOL0     C94516   8.736   4.291   1.561 -0.4017 -1.2411 -0.1329
  701MOL0     N94517   8.687   4.227   1.688  0.2686 -0.5578  0.2848
  701MOL0     C94518   8.691   4.288   1.813  0.9753  0.8634 -0.2737
  701MOL0     C94519   8.606   4.226   1.888  0.6482  0.1245  0.4166
  701MOL0     C94520   8.589   4.253   2.033 -0.5033  0.3761  0.2947
  701MOL0     C94521   8.557   4.405   2.061  0.3448 -0.2059 -0.6453
  701MOL0     C94522   8.408   4.435   2.051  0.7141  0.0940  0.4967
  701MOL0     C94523   8.319   4.424   2.176 -0.0323 -0.6527 -0.7380
  701MOL0     O94524   8.210   4.515   2.172  0.0159  1.6060 -0.4115
  701MOL0     C94525   8.081   4.474   2.207 -0.2663 -0.0622  0.2380
  701MOL0     C94526   7.983   4.570   2.192  0.4655  0.4318 -0.5684
  701MOL0     C94527   7.844   4.544   2.211  0.8786  1.5058 -0.0703
  701MOL0     C94528   7.744   4.650   2.178  0.1465  1.0845  0.2577
  701MOL0     C94529   7.808   4.416   2.263 -0.3655  1.3676  0.0539
  701MOL0     C94530   7.672   4.367   2.299  0.6297 -0.2015  0.4299
  701MOL0     O94531   7.572   4.458   2.309  0.0151  0.2844 -0.3223
  701MOL0     C94532   7.467   4.414   2.391 -0.5521  0.2466  0.2751
  701MOL0     C94533   7.373   4.319   2.341 -0.1843  0.0517  0.9623
  701MOL0     C94534   7.272   4.275   2.419 -0.1927  0.2974 -0.3802
  701MOL0     C94535   7.266   4.317   2.554  0.8465  1.0512  0.2488
  701MOL0     O94536   7.146   4.277   2.614 -0.2729 -0.9580 -0.7000
  701MOL0     C94537   7.120   4.282   2.759 -0.8213  0.5949 -0.2629
  701MOL0     C94538   6.984   4.223   2.779 -0.5024  0.0856 -0.3466
  701MOL0     C94539   6.875   4.299   2.706 -0.0215  0.1105 -0.5392
  701MOL0     C94540   6.736   4.293   2.771  0.0079 -0.3141  0.0129
  701MOL0     C94541   6.644   4.406   2.703  0.7279  0.0513 -0.4326
  701MOL0     C94542   6.599   4.362   2.560  0.3127 -0.1355 -0.3647
  701MOL0     C94543   6.528   4.481   2.493 -0.2227  0.2736 -0.1523
  701MOL0     C94544   6.515   4.463   2.344 -0.7994 -0.2047  0.3149
  701MOL0    Cl94545   6.462   4.293   2.282  0.0622  0.5058 -0.4128
  701MOL0     C94546   7.359   4.406   2.606  0.7933  0.4068 -0.6684
  701MOL0     C94547   7.458   4.456   2.524 -0.3060 -0.1185 -0.3962
  701MOL0     O94548   7.661   4.249   2.327 -0.5103  0.3173  0.3373
  701MOL0     C94549   7.914   4.318   2.288 -1.0715  0.3906 -0.6085
  701MOL0     C94550   8.047   4.354   2.260  0.0766  0.6076  0.7281
  701MOL0     N94551   8.554   4.119   1.814  0.2413 -0.1858  1.0581
  701MOL0     N94552   8.605   4.122   1.697 -0.0238 -0.8537 -0.2129
  701MOL0     C94553   9.301   5.200   1.882  0.3405  0.3008  0.1850
  701MOL0     C94554   9.358   5.323   1.925  0.9800 -0.2648  0.2088
  701MOL0     C94555   9.415   5.742   2.071  0.7940  0.1559  0.1601
  701MOL0     C94556   9.457   5.779   2.200 -0.1653  0.4506 -0.5591
  701MOL0     C94557   9.510   5.906   2.231  0.4422 -1.1817 -0.3416
  701MOL0     C94558   9.520   6.002   2.120  0.2962 -0.3758  0.0085
  701MOL0     O94559   9.584   6.115   2.128 -0.0639  0.0952  0.8259
  701MOL0     C94560   9.716   6.126   2.187  0.3154 -0.0374  0.0400
  701MOL0     C94561   9.811   6.044   2.096  0.9100  0.0130  0.7361
  701MOL0     C94562   9.928   5.998   2.179 -0.4702 -0.0194  0.2253
  701MOL0     C94563  10.053   5.942   2.100 -0.9221 -0.0943  0.4966
  701MOL0     C94564  10.154   6.056   2.079  0.0933 -1.1188  0.2556
  701MOL0     C94565  10.233   6.152   2.061  0.0553 -0.0754  0.1427
  701MOL0     C94566   9.461   5.965   1.998 -0.4936 -1.0158  0.0967
  701MOL0     C94567   9.410   5.840   1.966  0.9570  0.5324  0.2865
  701MOL0     H94568   9.109   5.520   1.786 -1.7099 -1.0851  0.8341
  701MOL0     H94569   9.020   5.296   1.734 -1.3196 -0.9256  1.0191
  701MOL0     H94570   8.971   5.089   1.650 -0.5883 -2.1007  1.7206
  701MOL0     H94571   9.128   5.108   1.554  0.4614 -1.8017 -0.7806
  701MOL0     H94572   9.153   4.861   1.585 -0.1381  0.0433  0.2764
  701MOL0     H94573   9.011   4.857   1.701 -0.8547 -0.0195 -0.0955
  701MOL0     H94574   8.867   4.900   1.524  0.3968 -0.0030  0.5417
  701MOL0     H94575   8.977   4.906   1.396  1.4480 -0.9252 -0.5175
  701MOL0     H94576   9.047   4.676   1.425  2.2114 -1.0816  1.5771
  701MOL0     H94577   8.970   4.660   1.585  0.7087  0.3999  0.0102
  701MOL0     H94578   8.739   4.696   1.476 -2.4536  0.5337 -3.2309
  701MOL0     H94579   8.839   4.691   1.324  1.8392  0.3315  0.3125
  701MOL0     H94580   8.717   4.491   1.359  1.5533 -1.6178 -2.2207
  701MOL0     H94581   8.886   4.459   1.383  0.4294 -0.7219  1.6071
  701MOL0     H94582   8.865   4.456   1.624 -0.5903  1.8881  0.4359
  701MOL0     H94583   8.699   4.500   1.633  1.3646  3.2704  0.1267
  701MOL0     H94584   8.820   4.229   1.527 -1.7043 -2.9490 -0.3165
  701MOL0     H94585   8.663   4.290   1.479 -0.2773 -1.7976 -0.2380
  701MOL0     H94586   8.736   4.382   1.842  0.1402  0.9686  0.7096
  701MOL0     H94587   8.510   4.200   2.086 -0.7488  2.2352  1.8849
  701MOL0     H94588   8.692   4.232   2.062  0.7556  4.0322 -0.9860
  701MOL0     H94589   8.613   4.471   1.995 -0.8063 -0.8060 -2.2680
  701MOL0     H94590   8.594   4.420   2.163 -1.4808  0.0528  0.0246
  701MOL0     H94591   8.375   4.364   1.974  1.0803  2.2491 -1.7659
  701MOL0     H94592   8.394   4.535   2.010  2.2525 -0.3753 -1.3804
  701MOL0     H94593   8.385   4.460   2.256 -1.5299  0.4020  0.0683
  701MOL0     H94594   8.290   4.321   2.199  1.1373 -0.8248  0.0457
  701MOL0     H94595   8.013   4.668   2.157  1.7914  0.4580  0.5863
  701MOL0     H94596   7.668   4.607   2.111  3.5466 -1.9448 -2.0814
  701MOL0     H94597   7.706   4.699   2.268 -1.4084 -1.7491  1.2773
  701MOL0     H94598   7.796   4.720   2.112  1.4387  1.9312  2.1060
  701MOL0     H94599   7.374   4.273   2.243  1.0603  1.3477  0.3201
  701MOL0     H94600   7.197   4.215   2.368 -0.2500  1.7102 -2.0577
  701MOL0     H94601   7.188   4.223   2.821 -1.4256 -1.3245 -1.3604
  701MOL0     H94602   7.127   4.388   2.785 -1.5296  1.2112 -2.4275
  701MOL0     H94603   6.977   4.119   2.747  1.8533  1.2286 -5.6212
  701MOL0     H94604   6.953   4.241   2.883 -2.9233  2.5111 -1.3648
  701MOL0     H94605   6.887   4.279   2.599  4.2466  1.4827 -0.5156
  701MOL0     H94606   6.900   4.405   2.714 -4.3773  1.3353 -0.8763
  701MOL0     H94607   6.699   4.198   2.732  3.1159 -0.7659 -2.1470
  701MOL0     H94608   6.736   4.295   2.881  1.6452  1.5516  0.0248
  701MOL0     H94609   6.692   4.505   2.702 -1.2728  1.0958 -1.9663
  701MOL0     H94610   6.546   4.420   2.751  0.1028 -0.8981 -1.3796
  701MOL0     H94611   6.687   4.337   2.501 -0.9641 -0.8258 -2.0569
  701MOL0     H94612   6.534   4.276   2.578  0.6372  0.1164  2.5093
  701MOL0     H94613   6.587   4.571   2.514 -1.1228  1.7250 -3.2077
  701MOL0     H94614   6.426   4.493   2.530 -0.6149  1.7648 -1.5779
  701MOL0     H94615   6.610   4.470   2.291 -0.3589  0.6383  1.1862
  701MOL0     H94616   6.445   4.541   2.312 -0.7829 -1.1931 -2.3636
  701MOL0     H94617   7.346   4.433   2.711 -1.7434 -0.4169 -0.6956
  701MOL0     H94618   7.529   4.528   2.564 -0.6700 -0.0996  0.2226
  701MOL0     H94619   7.904   4.218   2.329 -0.4888  0.7240  0.3927
  701MOL0     H94620   8.122   4.277   2.274 -1.8936 -1.4627  0.3633
  701MOL0     H94621   9.356   5.107   1.895 -1.3254 -0.8076 -0.3919
  701MOL0     H94622   9.441   5.333   1.993  0.0449 -1.0707  1.5324
  701MOL0     H94623   9.460   5.706   2.280  3.3032 -2.6709 -3.1953
  701MOL0     H94624   9.552   5.920   2.330 -1.0767 -1.6818  0.3956
  701MOL0     H94625   9.736   6.233   2.176 -1.4576  0.3869  0.5183
  701MOL0     H94626   9.725   6.110   2.295  1.4916  3.3248  0.5631
  701MOL0     H94627   9.858   6.107   2.019  2.0370  1.4219  2.4903
  701MOL0     H94628   9.770   5.951   2.057 -0.5928  0.8090  0.3227
  701MOL0     H94629   9.885   5.911   2.229  1.3490 -1.8329 -1.1874
  701MOL0     H94630   9.962   6.081   2.242 -2.0126  1.0382 -0.2759
  701MOL0     H94631  10.023   5.894   2.007 -1.8407  1.9453 -0.3277
  701MOL0     H94632  10.104   5.863   2.156 -2.2009  0.1838  2.1497
  701MOL0     H94633  10.283   6.245   2.042 -3.2300  2.1938  1.6833
  701MOL0     H94634   9.468   6.045   1.925 -2.2789  1.3765  2.3569
  701MOL0     H94635   9.383   5.831   1.862 -0.9374  0.8531  0.7172
  702MOL0     O94636   9.916   8.015   4.112 -0.3413 -0.3814 -0.2654
  702MOL0     C94637  10.016   7.997   4.041 -0.7818 -0.7608  0.4493
  702MOL0     O94638  10.029   7.906   3.933  0.3511 -0.5345  0.2880
  702MOL0     C94639   9.916   7.828   3.895 -0.0461  0.4347  0.2249
  702MOL0     C94640   9.794   7.890   3.869  0.0472  0.4109 -0.9149
  702MOL0     C94641   9.681   7.815   3.832 -0.1262 -0.3226  0.8113
  702MOL0     C94642   9.682   7.674   3.812 -0.0475 -0.9276  0.0484
  702MOL0     O94643   9.565   7.621   3.764 -0.3514 -0.1769 -0.6689
  702MOL0     C94644   9.560   7.477   3.756  0.2688 -0.3804 -0.0672
  702MOL0     C94645   9.493   7.408   3.881 -0.2078  0.9546 -0.7304
  702MOL0     C94646   9.457   7.501   4.005  0.3217  0.4777  1.0929
  702MOL0     C94647   9.421   7.427   4.131 -0.3756  0.5711 -0.9757
  702MOL0     C94648   9.537   7.356   4.202  0.2289  0.4722 -0.7586
  702MOL0     C94649   9.494   7.304   4.347 -1.0827 -0.0975  0.4878
  702MOL0     C94650   9.596   7.225   4.435 -0.5122 -0.1227  0.8967
  702MOL0     C94651   9.531   7.222   4.570  0.3786  0.0364  0.5760
  702MOL0     N94652   9.618   7.124   4.636 -0.5734 -0.4044  0.0560
  702MOL0     C94653   9.720   7.154   4.722  0.3054 -0.4136 -0.0816
  702MOL0     C94654   9.754   7.026   4.774 -0.0702 -0.0766  0.3387
  702MOL0     C94655   9.877   7.019   4.865 -0.1391  0.6321 -0.4174
  702MOL0     C94656   9.976   6.909   4.818  0.3627 -0.4199 -0.8139
  702MOL0     C94657   9.976   6.770   4.894  0.3096  0.8662  0.4284
  702MOL0     C94658   9.850   6.686   4.857 -0.1798  0.2307  0.0989
  702MOL0     O94659   9.862   6.555   4.924 -0.6637 -0.0858 -0.6463
  702MOL0     C94660   9.803   6.550   5.042 -0.6655  0.7558 -0.3231
  702MOL0     C94661   9.873   6.535   5.163  0.1255  1.4442  1.1882
  702MOL0     C94662   9.815   6.512   5.287  0.2293 -0.5244  0.3991
  702MOL0     C94663   9.899   6.499   5.412 -0.1038  0.7438 -0.2944
  702MOL0     C94664   9.678   6.496   5.292  0.8099  0.1587  0.1007
  702MOL0     C94665   9.613   6.455   5.417  0.3372 -0.9979 -0.0737
  702MOL0     O94666   9.649   6.338   5.481 -0.0772  0.6924 -0.2343
  702MOL0     C94667   9.574   6.274   5.578 -0.9325  0.4443  0.3570
  702MOL0     C94668   9.560   6.133   5.569  0.3067 -0.3161  1.0675
  702MOL0     C94669   9.484   6.057   5.654  0.8740 -0.4091  0.1071
  702MOL0     C94670   9.418   6.120   5.763  0.4850  0.4564 -0.2716
  702MOL0     O94671   9.361   6.061   5.871 -0.7864 -0.1622 -0.9299
  702MOL0     C94672   9.403   5.934   5.922 -0.6805  0.2835 -0.0739
  702MOL0     C94673   9.322   5.905   6.049  0.7325 -0.9818  0.3067
  702MOL0     C94674   9.241   5.770   6.038 -0.0360  0.0690 -0.9928
  702MOL0     C94675   9.174   5.740   6.165  0.0961  0.1329  0.5039
  702MOL0     C94676   9.096   5.606   6.156 -0.1399  0.3170  0.3005
  702MOL0     C94677   9.186   5.497   6.121 -1.1129 -1.0469  0.5086
  702MOL0     C94678   9.119   5.367   6.170 -0.3723  0.0713 -0.6224
  702MOL0     C94679   9.203   5.234   6.147  0.2218  0.8193  0.1616
  702MOL0    Cl94680   9.172   5.120   6.292 -0.0356 -0.4287 -0.2660
  702MOL0     C94681   9.432   6.256   5.775  0.1531 -0.5389 -0.0926
  702MOL0     C94682   9.508   6.337   5.682 -0.2010  0.6968 -0.1131
  702MOL0     O94683   9.519   6.530   5.454 -0.6411 -0.3246  0.1216
  702MOL0     C94684   9.598   6.511   5.174  0.3792 -0.9089 -0.4342
  702MOL0     C94685   9.664   6.532   5.050  0.2169 -0.4366 -0.0483
  702MOL0     N94686   9.684   6.922   4.702 -0.6276 -0.6076 -0.8173
  702MOL0     N94687   9.607   6.989   4.627  0.7994 -0.5083  0.2566
  702MOL0     C94688   9.808   7.616   3.843  0.2743 -0.4723 -0.4109
  702MOL0     C94689   9.925   7.691   3.883 -0.2551 -0.1182  0.3443
  702MOL0     C94690  10.140   8.053   4.091  0.3871  0.7460 -1.5150
  702MOL0     C94691  10.256   8.013   4.031  0.0959  0.0057  1.0695
  702MOL0     C94692  10.373   8.092   4.042 -1.2286 -0.0247 -1.1219
  702MOL0     C94693  10.375   8.197   4.145 -0.6361  0.5528  0.1394
  702MOL0     O94694  10.489   8.267   4.178  0.3173 -0.3958 -0.1841
  702MOL0     C94695  10.619   8.209   4.167  0.7499  0.8548 -0.1244
  702MOL0     C94696  10.634   8.080   4.243  0.2968 -0.3775 -0.6317
  702MOL0     C94697  10.569   8.091   4.383 -0.2537  0.0771  0.1560
  702MOL0     C94698  10.535   7.950   4.430 -0.5893 -0.1422 -0.1073
  702MOL0     C94699  10.415   7.901   4.376  0.7169 -0.2772  0.6824
  702MOL0     C94700  10.299   7.864   4.337  0.2075  0.2920 -0.1847
  702MOL0     C94701  10.258   8.227   4.212  0.6028 -0.3270 -0.1373
  702MOL0     C94702  10.139   8.150   4.184  0.1972 -0.8914  0.5859
  702MOL0     H94703   9.794   7.998   3.881 -2.7179  0.5603 -1.5824
  702MOL0     H94704   9.589   7.873   3.825 -1.7591 -2.7277  1.3426
  702MOL0     H94705   9.494   7.435   3.679 -1.7223 -1.0904  1.9286
  702MOL0     H94706   9.659   7.435   3.733 -0.0498 -1.4393  0.4550
  702MOL0     H94707   9.398   7.371   3.842 -0.6740 -0.2759  1.3858
  702MOL0     H94708   9.557   7.331   3.925  0.7399  1.2263 -1.6088
  702MOL0     H94709   9.551   7.551   4.028  1.1589 -1.3224  1.7796
  702MOL0     H94710   9.384   7.574   3.971  0.2849 -0.2291 -0.4273
  702MOL0     H94711   9.384   7.500   4.204 -0.0596 -2.5368  2.5712
  702MOL0     H94712   9.340   7.355   4.113  1.0093 -1.0443 -1.0520
  702MOL0     H94713   9.579   7.267   4.155  0.3250  0.1482 -0.0717
  702MOL0     H94714   9.613   7.433   4.215  0.2976  0.0868  1.6043
  702MOL0     H94715   9.455   7.390   4.402  0.2721  0.0731  1.2185
  702MOL0     H94716   9.406   7.243   4.327 -1.5619  1.0117 -0.9131
  702MOL0     H94717   9.603   7.122   4.396  0.0425 -0.1957  1.1924
  702MOL0     H94718   9.689   7.282   4.440 -0.0636 -0.6698 -0.6260
  702MOL0     H94719   9.435   7.173   4.554  0.2047  0.5542 -0.0367
  702MOL0     H94720   9.523   7.319   4.619  3.7808  2.6051 -3.2790
  702MOL0     H94721   9.749   7.249   4.765 -1.5281 -1.2652  3.3913
  702MOL0     H94722   9.931   7.114   4.869 -0.3869  0.9991 -3.4166
  702MOL0     H94723   9.850   7.002   4.970  0.5376 -1.1722 -0.5061
  702MOL0     H94724  10.071   6.952   4.850  0.1524 -0.3056 -0.3351
  702MOL0     H94725   9.967   6.898   4.710 -0.6035 -2.0103 -0.6065
  702MOL0     H94726   9.985   6.795   5.000 -0.1233  3.8662 -0.1679
  702MOL0     H94727  10.066   6.718   4.862  0.2766 -0.4761  2.3158
  702MOL0     H94728   9.855   6.664   4.750  1.7980 -0.7617  0.3353
  702MOL0     H94729   9.761   6.741   4.887 -0.8787 -1.0443  0.4367
  702MOL0     H94730   9.980   6.527   5.182 -0.1861 -2.1632  2.1369
  702MOL0     H94731   9.859   6.569   5.486  1.7071  2.6787 -1.0548
  702MOL0     H94732   9.889   6.397   5.452 -1.2146  0.9491 -0.0331
  702MOL0     H94733  10.002   6.534   5.402 -0.0620  1.7648  2.7785
  702MOL0     H94734   9.602   6.090   5.478 -0.4697  0.4865  0.3104
  702MOL0     H94735   9.480   5.951   5.629 -0.9276 -0.9526  2.3432
  702MOL0     H94736   9.379   5.869   5.837 -0.0311  1.6349 -1.3494
  702MOL0     H94737   9.510   5.933   5.943  0.1511 -1.0964 -3.5400
  702MOL0     H94738   9.384   5.898   6.139 -0.1026  0.1702  1.0029
  702MOL0     H94739   9.255   5.990   6.062  0.1757 -1.5632  1.3721
  702MOL0     H94740   9.317   5.694   6.017  1.5905  1.3220  0.1454
  702MOL0     H94741   9.162   5.776   5.963 -1.6088 -0.5793  0.5362
  702MOL0     H94742   9.238   5.747   6.254 -0.0728 -2.6065  0.9315
  702MOL0     H94743   9.096   5.816   6.169  0.7435  0.7941  0.7446
  702MOL0     H94744   9.014   5.599   6.083 -0.6579 -2.8549  1.0498
  702MOL0     H94745   9.049   5.576   6.250  1.7666 -2.9516  0.3463
  702MOL0     H94746   9.196   5.494   6.012  2.7784  1.7853  0.5831
  702MOL0     H94747   9.282   5.515   6.170  0.2512 -3.6506 -0.9722
  702MOL0     H94748   9.017   5.374   6.132  0.5162  1.9395 -2.9071
  702MOL0     H94749   9.105   5.369   6.279 -1.0236 -0.5545 -0.6911
  702MOL0     H94750   9.310   5.243   6.126  0.3309 -1.1203 -0.2938
  702MOL0     H94751   9.168   5.178   6.060  2.5000 -0.8426  0.2147
  702MOL0     H94752   9.398   6.309   5.863 -0.8819 -2.2753  0.6028
  702MOL0     H94753   9.531   6.443   5.685  3.9508  0.0927 -2.2933
  702MOL0     H94754   9.490   6.518   5.181  0.2784  1.3215 -2.9027
  702MOL0     H94755   9.600   6.524   4.963  0.0149  2.2639 -0.2384
  702MOL0     H94756   9.811   7.509   3.829 -2.8558 -0.9332  1.4470
  702MOL0     H94757  10.015   7.636   3.909  0.2994 -0.4900 -2.1276
  702MOL0     H94758  10.262   7.939   3.951 -2.2795  0.2846  0.5447
  702MOL0     H94759  10.455   8.072   3.973 -0.8876 -0.2765 -0.6456
  702MOL0     H94760  10.638   8.197   4.060 -0.7884  2.8380 -0.6812
  702MOL0     H94761  10.688   8.282   4.210  1.1984  0.7585 -0.6733
  702MOL0     H94762  10.738   8.053   4.266 -0.0040 -1.2727 -0.2969
  702MOL0     H94763  10.591   7.995   4.190  0.5761 -1.4001  0.7300
  702MOL0     H94764  10.477   8.150   4.393  1.0311  2.0077  1.1692
  702MOL0     H94765  10.643   8.135   4.450 -0.4699  0.5694  0.0687
  702MOL0     H94766  10.554   7.945   4.538 -1.2309 -1.3467 -0.0439
  702MOL0     H94767  10.605   7.882   4.380  1.8095  2.0435  0.0191
  702MOL0     H94768  10.202   7.825   4.311  0.8696  0.0963 -2.6378
  702MOL0     H94769  10.262   8.303   4.290  0.7596  1.3097 -1.6685
  702MOL0     H94770  10.049   8.178   4.238  0.6884  3.6186 -0.5446
  703MOL0     O94771   7.155   7.684   1.581 -0.8530 -0.3736  0.0569
  703MOL0     C94772   7.245   7.769   1.554  0.1731 -0.3306 -0.5451
  703MOL0     O94773   7.346   7.803   1.630  0.0616  0.1698  0.1722
  703MOL0     C94774   7.394   7.724   1.734 -0.0815  0.5750 -0.4354
  703MOL0     C94775   7.408   7.789   1.860 -0.0897 -0.4258 -0.1607
  703MOL0     C94776   7.445   7.714   1.965 -0.7387 -0.0757 -0.5088
  703MOL0     C94777   7.497   7.580   1.950 -0.0834 -0.6158 -0.2231
  703MOL0     O94778   7.553   7.497   2.042 -0.2966  0.7513  0.2465
  703MOL0     C94779   7.527   7.537   2.176 -0.1610 -0.1716 -0.2125
  703MOL0     C94780   7.573   7.421   2.271 -0.0086 -0.3353 -0.3693
  703MOL0     C94781   7.541   7.457   2.416 -0.7538 -0.5567  0.0433
  703MOL0     C94782   7.569   7.327   2.495  0.3921  0.4342 -0.6317
  703MOL0     C94783   7.563   7.352   2.648  0.8479 -0.1351 -0.6038
  703MOL0     C94784   7.448   7.425   2.731 -0.0059  0.6320  0.5540
  703MOL0     C94785   7.489   7.424   2.881  0.2310  0.8836  0.1373
  703MOL0     C94786   7.461   7.284   2.949 -1.0848  0.2720  0.2557
  703MOL0     N94787   7.459   7.305   3.093  0.1267 -0.4590 -0.8894
  703MOL0     C94788   7.340   7.313   3.167 -0.4034  0.3365  0.4183
  703MOL0     C94789   7.387   7.336   3.292  0.4431  0.2470 -0.7462
  703MOL0     C94790   7.293   7.354   3.412 -0.2888  0.9395 -0.6864
  703MOL0     C94791   7.208   7.483   3.418 -0.1134 -0.1114  0.6300
  703MOL0     C94792   7.301   7.606   3.444  0.2542 -1.1439 -0.3096
  703MOL0     C94793   7.210   7.726   3.487 -0.2964 -0.0809  0.1696
  703MOL0     O94794   7.120   7.759   3.382 -0.2214 -0.0967  0.4379
  703MOL0     C94795   7.172   7.782   3.258  0.3415 -0.7694 -1.0534
  703MOL0     C94796   7.286   7.864   3.248  1.0558 -0.3540 -0.0700
  703MOL0     C94797   7.340   7.900   3.122  0.3070  0.2868  0.2760
  703MOL0     C94798   7.460   7.999   3.124  0.4267  0.0515  0.0510
  703MOL0     C94799   7.282   7.850   3.000 -0.3477 -0.5605  0.7661
  703MOL0     C94800   7.328   7.876   2.866  0.4307  0.0561  1.0742
  703MOL0     O94801   7.231   7.872   2.770  0.0064 -0.5047  0.5873
  703MOL0     C94802   7.276   7.901   2.642 -0.3777 -1.3622 -0.2182
  703MOL0     C94803   7.271   8.038   2.589 -0.3507 -0.8283  0.2305
  703MOL0     C94804   7.328   8.049   2.456 -0.1931  0.0606  1.0704
  703MOL0     C94805   7.370   7.937   2.388 -0.6755  0.4229  1.4962
  703MOL0     O94806   7.427   7.937   2.262  0.0098 -0.1684 -0.2450
  703MOL0     C94807   7.417   8.051   2.172 -0.1290  0.2060 -0.2041
  703MOL0     C94808   7.276   8.068   2.120 -0.4407 -0.6536  0.1259
  703MOL0     C94809   7.252   8.202   2.050 -0.0808 -0.1779 -0.0940
  703MOL0     C94810   7.359   8.204   1.940  0.4738 -0.5455  0.6453
  703MOL0     C94811   7.350   8.321   1.842 -0.7607 -0.5803 -0.8320
  703MOL0     C94812   7.219   8.325   1.772  1.3295 -0.1441 -0.4899
  703MOL0     C94813   7.208   8.389   1.641  1.2163 -0.0176  0.5912
  703MOL0     C94814   7.221   8.547   1.650 -0.0203  0.4126 -0.6768
  703MOL0    Cl94815   7.393   8.583   1.675  0.3925  0.0651  0.3239
  703MOL0     C94816   7.350   7.812   2.441 -0.7973  0.3898  0.7828
  703MOL0     C94817   7.304   7.793   2.567 -0.1364 -0.2830  0.1378
  703MOL0     O94818   7.452   7.903   2.854  0.1372  0.0141  0.0142
  703MOL0     C94819   7.167   7.774   3.020 -0.1267 -0.0210  0.0671
  703MOL0     C94820   7.104   7.750   3.145 -0.3267  0.6121  0.3244
  703MOL0     N94821   7.527   7.347   3.288 -0.5659  0.6995 -0.1498
  703MOL0     N94822   7.567   7.342   3.163 -0.3986 -0.8612 -0.1294
  703MOL0     C94823   7.493   7.521   1.819 -0.6557 -0.0595  0.0712
  703MOL0     C94824   7.433   7.595   1.713  0.3676  0.1899  0.3655
  703MOL0     C94825   7.237   7.841   1.426  0.0128  1.3374 -0.0865
  703MOL0     C94826   7.302   7.967   1.402 -0.2777 -0.2467  0.8764
  703MOL0     C94827   7.281   8.035   1.284 -0.2477  0.3146  0.2712
  703MOL0     C94828   7.203   7.987   1.185  0.4121  0.0211  0.0339
  703MOL0     O94829   7.173   8.041   1.062  0.5198  0.0934  0.8524
  703MOL0     C94830   7.223   8.177   1.044 -0.6946 -0.2769  0.7236
  703MOL0     C94831   7.217   8.220   0.899 -0.0857 -0.2177  0.3398
  703MOL0     C94832   7.080   8.237   0.849  1.0557  0.2489  0.2371
  703MOL0     C94833   6.979   8.121   0.825 -0.3962 -0.6244  0.2500
  703MOL0     C94834   6.862   8.177   0.760 -1.2089 -0.3359 -0.6582
  703MOL0     C94835   6.765   8.220   0.701 -0.2535  0.0017 -0.9265
  703MOL0     C94836   7.143   7.859   1.207 -0.2243 -0.3138  1.0569
  703MOL0     C94837   7.160   7.792   1.323  0.0164 -0.7607  0.5176
  703MOL0     H94838   7.403   7.897   1.873 -2.7559 -0.0875 -2.8329
  703MOL0     H94839   7.454   7.763   2.062  0.1908  2.0072 -1.5827
  703MOL0     H94840   7.565   7.633   2.211 -1.7753  0.2473  0.4814
  703MOL0     H94841   7.419   7.534   2.193  0.3268 -0.1169  3.9956
  703MOL0     H94842   7.526   7.327   2.241 -1.7363  0.8242 -1.5343
  703MOL0     H94843   7.681   7.405   2.263  0.5521  2.9612 -0.9524
  703MOL0     H94844   7.606   7.535   2.458 -2.1813  1.1898 -0.9030
  703MOL0     H94845   7.435   7.478   2.430 -0.5237 -0.7651  2.7535
  703MOL0     H94846   7.507   7.243   2.462 -1.8275  1.1678  1.3775
  703MOL0     H94847   7.675   7.311   2.472  0.5144  0.2550  0.0146
  703MOL0     H94848   7.579   7.253   2.691 -1.8750 -0.7042 -0.7502
  703MOL0     H94849   7.658   7.404   2.667  0.7014  0.2689 -0.9469
  703MOL0     H94850   7.448   7.523   2.683  0.1485 -0.5966 -2.1930
  703MOL0     H94851   7.355   7.375   2.702 -0.5121  2.6908 -1.6711
  703MOL0     H94852   7.595   7.448   2.897  0.8239 -0.2452 -1.7933
  703MOL0     H94853   7.433   7.503   2.932  1.7899  0.6575  2.3446
  703MOL0     H94854   7.535   7.208   2.924 -1.7287 -0.3533  0.2043
  703MOL0     H94855   7.368   7.240   2.912 -2.0174  0.8281  1.8229
  703MOL0     H94856   7.242   7.303   3.121  0.2145 -0.9450 -0.7137
  703MOL0     H94857   7.218   7.276   3.427 -0.5250  0.4716 -3.6968
  703MOL0     H94858   7.355   7.360   3.502  0.3768  1.6363 -1.1822
  703MOL0     H94859   7.132   7.466   3.494 -0.4378 -2.5968 -0.1624
  703MOL0     H94860   7.162   7.488   3.319  4.9524  3.9225 -2.0451
  703MOL0     H94861   7.368   7.635   3.362  1.4834  0.1675  1.1017
  703MOL0     H94862   7.377   7.602   3.523  0.9883  0.0970 -0.9246
  703MOL0     H94863   7.280   7.804   3.516  2.0061 -2.6773  2.0643
  703MOL0     H94864   7.150   7.700   3.575 -1.7841  2.6158  0.0423
  703MOL0     H94865   7.325   7.916   3.335  1.6633  0.4511 -0.8099
  703MOL0     H94866   7.495   8.023   3.225 -1.6109 -0.4155  0.9299
  703MOL0     H94867   7.542   7.960   3.063 -2.0377  0.4961 -3.8647
  703MOL0     H94868   7.433   8.098   3.087 -1.7383 -0.6791 -0.4633
  703MOL0     H94869   7.241   8.127   2.644  1.5527 -0.6258  1.0185
  703MOL0     H94870   7.343   8.141   2.400  1.5035  0.8374  2.7350
  703MOL0     H94871   7.448   8.143   2.223  1.3784  0.8984 -2.2257
  703MOL0     H94872   7.484   8.048   2.086 -2.1992 -0.7634 -1.8739
  703MOL0     H94873   7.245   7.994   2.046  0.8792  1.1657 -2.4012
  703MOL0     H94874   7.204   8.083   2.201 -0.2528 -0.9167  0.3412
  703MOL0     H94875   7.254   8.299   2.100  0.1212 -0.0384 -0.3671
  703MOL0     H94876   7.151   8.202   2.009 -0.3821  2.1986  0.5268
  703MOL0     H94877   7.458   8.228   1.981  0.8192  0.1929 -0.5829
  703MOL0     H94878   7.368   8.109   1.888 -3.1860  0.1743 -1.6200
  703MOL0     H94879   7.435   8.315   1.774  1.7102  6.2079  0.8079
  703MOL0     H94880   7.364   8.407   1.909 -2.3454  0.1611 -1.4010
  703MOL0     H94881   7.188   8.221   1.769  2.1012 -0.4369  0.7363
  703MOL0     H94882   7.150   8.370   1.845  1.1012 -1.4142  0.0954
  703MOL0     H94883   7.114   8.351   1.598  2.4537 -1.2492 -1.1534
  703MOL0     H94884   7.289   8.357   1.576  1.0578  0.1975  0.2870
  703MOL0     H94885   7.169   8.583   1.739 -1.1972 -0.2549 -1.0715
  703MOL0     H94886   7.180   8.593   1.560 -0.8041  2.0517  0.4747
  703MOL0     H94887   7.389   7.729   2.383 -1.2954 -1.4266  2.9091
  703MOL0     H94888   7.308   7.699   2.622 -1.3038 -1.4009 -1.5728
  703MOL0     H94889   7.108   7.735   2.937 -1.8078  0.1109  1.1511
  703MOL0     H94890   7.025   7.675   3.141  0.3484 -0.0516 -2.5204
  703MOL0     H94891   7.544   7.426   1.804 -0.7459 -0.5512  2.4150
  703MOL0     H94892   7.430   7.567   1.608 -3.1046  0.0155  0.3667
  703MOL0     H94893   7.382   8.009   1.463  0.3602 -1.0575  0.6245
  703MOL0     H94894   7.320   8.136   1.277 -2.3539  1.1505  0.0303
  703MOL0     H94895   7.161   8.250   1.097 -3.6248 -2.0785 -0.0199
  703MOL0     H94896   7.329   8.180   1.074 -0.8225 -0.8755  1.2612
  703MOL0     H94897   7.262   8.138   0.842 -2.2175 -0.4684 -1.0983
  703MOL0     H94898   7.277   8.308   0.872 -1.4067 -0.1719 -2.9985
  703MOL0     H94899   7.094   8.295   0.758 -1.3650  0.6124  0.0093
  703MOL0     H94900   7.029   8.303   0.920  0.9946  1.3750 -0.8203
  703MOL0     H94901   6.963   8.080   0.925 -0.3815  0.6373  0.7922
  703MOL0     H94902   7.017   8.047   0.754 -2.7532 -0.3783 -1.3873
  703MOL0     H94903   6.681   8.269   0.657 -2.4137 -1.1814  1.6150
  703MOL0     H94904   7.082   7.814   1.129 -0.0248  1.2976 -0.0855
  703MOL0     H94905   7.102   7.701   1.336  1.0855 -1.8586 -1.8181
  704MOL0     O94906   4.917   5.591   5.217  0.0057  0.2629 -1.2556
  704MOL0     C94907   4.902   5.698   5.170  0.1379 -0.4889 -0.4950
  704MOL0     O94908   4.793   5.745   5.105 -0.7140 -0.0749  0.4975
  704MOL0     C94909   4.779   5.731   4.970 -0.3157  0.3976  0.5382
  704MOL0     C94910   4.654   5.765   4.916  0.2002  1.3747 -1.1387
  704MOL0     C94911   4.623   5.750   4.779  0.9083 -0.1965 -0.5751
  704MOL0     C94912   4.720   5.713   4.683  0.4640 -0.8677  0.4542
  704MOL0     O94913   4.683   5.722   4.553 -0.4347 -0.2710  0.9238
  704MOL0     C94914   4.732   5.840   4.484  0.7948  0.4739  0.0927
  704MOL0     C94915   4.644   5.964   4.521  0.0483 -0.3762  0.2106
  704MOL0     C94916   4.656   6.081   4.417  0.3476  0.9581  0.3928
  704MOL0     C94917   4.568   6.194   4.467 -0.5322 -0.4179  0.7803
  704MOL0     C94918   4.583   6.329   4.375 -0.2635  0.5800 -0.7837
  704MOL0     C94919   4.544   6.300   4.232 -0.1043 -0.5982 -0.5705
  704MOL0     C94920   4.542   6.430   4.152 -0.2267 -0.7289  0.3115
  704MOL0     C94921   4.404   6.504   4.163 -0.6722  0.4282  0.2836
  704MOL0     N94922   4.413   6.649   4.113  0.1533 -0.1222 -0.3544
  704MOL0     C94923   4.498   6.743   4.168  0.4156 -0.0007 -0.0241
  704MOL0     C94924   4.482   6.852   4.085  0.3027  0.3619  0.0565
  704MOL0     C94925   4.556   6.976   4.109  0.2265  0.2674  0.1168
  704MOL0     C94926   4.477   7.087   4.170  0.9088  0.2148  0.0081
  704MOL0     C94927   4.350   7.143   4.097 -0.4442 -0.7998  0.3503
  704MOL0     C94928   4.365   7.183   3.954 -0.3535  0.9410  0.3181
  704MOL0     O94929   4.480   7.270   3.933  0.5024 -0.1732 -0.4001
  704MOL0     C94930   4.471   7.395   3.888  0.0855 -1.1361 -0.2550
  704MOL0     C94931   4.369   7.481   3.925 -0.3968  0.0254 -0.0804
  704MOL0     C94932   4.364   7.610   3.882  0.1040 -0.0110  0.0133
  704MOL0     C94933   4.241   7.681   3.926  0.1113  0.6751 -0.2101
  704MOL0     C94934   4.477   7.673   3.815  0.3898 -0.2828 -0.0367
  704MOL0     C94935   4.488   7.812   3.758  1.5759  0.1967 -0.9365
  704MOL0     O94936   4.591   7.850   3.680  0.8077 -0.0213 -0.6808
  704MOL0     C94937   4.644   7.977   3.650  0.2972  0.0092  0.9920
  704MOL0     C94938   4.614   8.099   3.722 -0.2866 -0.0694 -0.1102
  704MOL0     C94939   4.653   8.218   3.665 -0.5601  0.2161 -0.1418
  704MOL0     C94940   4.734   8.225   3.552 -0.5289 -0.1600  0.2733
  704MOL0     O94941   4.792   8.345   3.519  0.9697 -0.0653 -0.0254
  704MOL0     C94942   4.926   8.345   3.495  0.3659 -0.5835 -0.5133
  704MOL0     C94943   4.971   8.469   3.574  0.5637 -0.6235  0.1545
  704MOL0     C94944   4.950   8.460   3.725 -0.5001  0.2989  0.9296
  704MOL0     C94945   5.047   8.357   3.795 -0.1909 -1.2487 -0.0791
  704MOL0     C94946   5.047   8.375   3.950  0.0487  0.3561 -0.0022
  704MOL0     C94947   5.130   8.498   3.996 -0.9809 -1.3311  0.0562
  704MOL0     C94948   5.165   8.519   4.146  0.4741 -0.1010 -0.3606
  704MOL0     C94949   5.036   8.488   4.231  0.3442 -0.4741 -0.9262
  704MOL0    Cl94950   5.045   8.585   4.373 -0.1544 -0.3757 -0.0122
  704MOL0     C94951   4.772   8.106   3.486  0.6016  0.7223 -0.7664
  704MOL0     C94952   4.722   7.983   3.540  0.3982  0.4040  0.2629
  704MOL0     O94953   4.394   7.885   3.794 -0.1959  0.5911  0.4179
  704MOL0     C94954   4.580   7.582   3.783  0.2334  0.3514  0.1523
  704MOL0     C94955   4.584   7.450   3.822 -0.6922  0.5372 -0.6280
  704MOL0     N94956   4.397   6.821   3.983 -0.2869  0.7300 -0.5857
  704MOL0     N94957   4.365   6.699   3.997  0.1863  0.2489  0.0363
  704MOL0     C94958   4.842   5.673   4.733 -0.0943  0.4819  1.2437
  704MOL0     C94959   4.877   5.687   4.872 -0.0048  0.8557 -0.7308
  704MOL0     C94960   4.994   5.797   5.219 -0.9801 -0.0912 -0.1003
  704MOL0     C94961   5.116   5.761   5.287 -0.2086 -0.2914  0.2803
  704MOL0     C94962   5.210   5.851   5.337  0.1548 -0.7658  1.2137
  704MOL0     C94963   5.183   5.989   5.324  0.5925 -0.1125  0.0731
  704MOL0     O94964   5.262   6.073   5.394  0.3540 -0.0034  0.0013
  704MOL0     C94965   5.203   6.123   5.520  0.2674  0.0461 -0.1553
  704MOL0     C94966   5.267   6.259   5.561  0.0164 -0.5617  0.5194
  704MOL0     C94967   5.188   6.352   5.656 -0.4252  0.0089  0.2940
  704MOL0     C94968   5.097   6.433   5.563 -0.4205  0.7368  0.1753
  704MOL0     C94969   5.037   6.541   5.625  0.3466  0.0305 -1.7012
  704MOL0     C94970   4.976   6.620   5.695  0.1661  0.8602 -0.2207
  704MOL0     C94971   5.062   6.031   5.262  1.0977 -0.3967  0.3295
  704MOL0     C94972   4.975   5.934   5.206 -1.0306  0.4987 -0.5574
  704MOL0     H94973   4.572   5.809   4.972 -0.9026  1.2803 -2.6268
  704MOL0     H94974   4.529   5.782   4.735  1.6845  1.3004 -1.1989
  704MOL0     H94975   4.836   5.855   4.513  0.8308 -1.8592  1.4285
  704MOL0     H94976   4.718   5.823   4.377  1.7225  2.6634 -0.4396
  704MOL0     H94977   4.542   5.924   4.529 -0.6116  1.1726 -0.1571
  704MOL0     H94978   4.690   6.000   4.613 -1.8387  2.3899  0.1875
  704MOL0     H94979   4.760   6.112   4.398 -0.0489  0.5177 -3.1824
  704MOL0     H94980   4.623   6.051   4.317  1.4141  0.4909  0.1589
  704MOL0     H94981   4.464   6.165   4.482 -1.4592  2.0091 -0.3798
  704MOL0     H94982   4.600   6.215   4.570 -0.2724 -2.4907  1.1699
  704MOL0     H94983   4.512   6.392   4.429 -2.2306 -1.5540 -0.7240
  704MOL0     H94984   4.685   6.368   4.374 -0.0694  0.1685 -2.9399
  704MOL0     H94985   4.622   6.233   4.195 -0.3934 -0.6866 -1.0214
  704MOL0     H94986   4.447   6.249   4.227 -0.1504 -0.5688 -0.0427
  704MOL0     H94987   4.625   6.495   4.183  0.3528 -0.6085 -1.4258
  704MOL0     H94988   4.563   6.402   4.049 -2.0562 -2.3150  0.3169
  704MOL0     H94989   4.392   6.515   4.271  0.7869 -0.2527  0.5409
  704MOL0     H94990   4.327   6.439   4.120  1.0883  0.4035 -3.1986
  704MOL0     H94991   4.565   6.735   4.252  0.7958 -0.6687 -0.3858
  704MOL0     H94992   4.630   6.941   4.182  1.1876 -0.6380 -1.2483
  704MOL0     H94993   4.614   7.004   4.021 -2.3947  1.6307 -1.3143
  704MOL0     H94994   4.546   7.171   4.183  0.4722  0.2121  3.1847
  704MOL0     H94995   4.440   7.068   4.272 -2.8642  3.8143 -0.4313
  704MOL0     H94996   4.308   7.222   4.160 -1.2822  1.0936 -2.4170
  704MOL0     H94997   4.271   7.068   4.103 -0.1650 -1.1718 -0.4874
  704MOL0     H94998   4.272   7.227   3.915  0.4529  2.0844 -0.4117
  704MOL0     H94999   4.390   7.091   3.901 -0.3977  3.1032 -3.8889
  704MOL0     H95000   4.290   7.429   3.979 -0.9308  0.4555 -0.4378
  704MOL0     H95001   4.192   7.635   4.012 -1.6369  1.2784 -0.8184
  704MOL0     H95002   4.279   7.780   3.951  0.5018  0.9686 -1.8534
  704MOL0     H95003   4.175   7.687   3.838  0.1905 -1.1181 -0.4304
  704MOL0     H95004   4.560   8.098   3.817  0.9403 -2.0846  0.6378
  704MOL0     H95005   4.618   8.306   3.717 -0.0999 -0.5209  1.4674
  704MOL0     H95006   4.996   8.266   3.523 -0.2629 -0.2574  2.2803
  704MOL0     H95007   4.940   8.353   3.387  1.7740 -2.4447 -0.5116
  704MOL0     H95008   5.076   8.493   3.551  0.1846 -0.9522 -2.1788
  704MOL0     H95009   4.909   8.550   3.534  0.2480 -0.8526  0.1844
  704MOL0     H95010   4.850   8.416   3.736 -0.7625 -0.3520 -2.9102
  704MOL0     H95011   4.952   8.558   3.775 -1.0743  0.3918  0.7815
  704MOL0     H95012   5.015   8.257   3.765  1.5565 -1.8650 -0.0208
  704MOL0     H95013   5.150   8.374   3.763 -1.0620  3.3964 -1.1041
  704MOL0     H95014   5.102   8.294   4.000 -0.4146  0.9367  1.5277
  704MOL0     H95015   4.946   8.378   3.992 -0.0243 -1.8375  0.0845
  704MOL0     H95016   5.228   8.487   3.950  0.6719 -0.0282  3.0172
  704MOL0     H95017   5.087   8.592   3.960 -1.2849 -1.3961  0.2386
  704MOL0     H95018   5.188   8.625   4.159 -1.2845  0.1845  0.6666
  704MOL0     H95019   5.243   8.458   4.193  1.2709  1.2452  0.1088
  704MOL0     H95020   5.042   8.383   4.263  0.7437 -0.5516 -1.2414
  704MOL0     H95021   4.941   8.497   4.177 -1.3311 -1.0780  1.7461
  704MOL0     H95022   4.822   8.093   3.391  1.0154 -2.2978 -0.2317
  704MOL0     H95023   4.748   7.894   3.483  4.1757  0.7868  1.1450
  704MOL0     H95024   4.677   7.615   3.746  0.1736 -1.7210 -2.0283
  704MOL0     H95025   4.676   7.401   3.793  1.0822  1.6337  2.5522
  704MOL0     H95026   4.921   5.642   4.666 -0.7357 -5.3217  2.5945
  704MOL0     H95027   4.973   5.652   4.907 -1.2353 -0.4023  1.5962
  704MOL0     H95028   5.147   5.657   5.287  0.9357  0.0221 -0.8519
  704MOL0     H95029   5.293   5.812   5.395  0.4155 -1.4598  0.3919
  704MOL0     H95030   5.096   6.141   5.510 -0.2292 -1.7789  1.3420
  704MOL0     H95031   5.207   6.046   5.598 -1.4991  0.7816  0.7181
  704MOL0     H95032   5.308   6.307   5.473 -0.5774  0.7832  0.9404
  704MOL0     H95033   5.357   6.249   5.623  2.0709  0.2452 -2.1710
  704MOL0     H95034   5.264   6.422   5.692 -1.5202  2.2442 -1.4938
  704MOL0     H95035   5.128   6.299   5.731 -0.5193  0.3827  0.4827
  704MOL0     H95036   5.026   6.376   5.502  0.7450  0.4287 -0.9347
  704MOL0     H95037   5.157   6.479   5.484 -2.1168  2.9631  0.0893
  704MOL0     H95038   4.908   6.693   5.734  3.2771  4.4834 -0.9480
  704MOL0     H95039   5.039   6.135   5.242 -2.3336 -1.5157 -2.6974
  704MOL0     H95040   4.881   5.961   5.158 -2.6646 -4.6793 -0.9545
  705MOL0     O95041   3.753   1.635   1.840  0.3479 -0.0468  0.1187
  705MOL0     C95042   3.644   1.576   1.809 -0.5874 -0.6203 -0.2360
  705MOL0     O95043   3.623   1.480   1.706 -0.6922 -0.6145  0.9496
  705MOL0     C95044   3.706   1.479   1.594  0.4085 -0.3221 -0.6160
  705MOL0     C95045   3.647   1.486   1.466 -0.0558 -0.2925  0.2232
  705MOL0     C95046   3.735   1.486   1.355  0.5479 -0.4283 -0.1203
  705MOL0     C95047   3.876   1.486   1.367  0.8488 -0.1692 -0.6276
  705MOL0     O95048   3.953   1.522   1.256  0.3457  0.8133 -0.3881
  705MOL0     C95049   4.055   1.619   1.278  0.7570 -0.3052 -0.3666
  705MOL0     C95050   4.116   1.661   1.146  0.4598  0.2081  1.0454
  705MOL0     C95051   4.224   1.765   1.156 -1.1357 -0.4440 -0.2759
  705MOL0     C95052   4.199   1.908   1.132  0.6880  0.1539  0.3892
  705MOL0     C95053   4.312   2.014   1.176  0.1017 -0.0055  0.2982
  705MOL0     C95054   4.443   1.986   1.110 -0.4904 -0.8688 -0.0936
  705MOL0     C95055   4.461   2.043   0.973  0.3440  0.2581  1.0465
  705MOL0     C95056   4.579   1.981   0.898 -0.1427 -0.2886 -0.3602
  705MOL0     N95057   4.580   1.834   0.877 -0.2443 -0.1343 -0.3730
  705MOL0     C95058   4.489   1.740   0.864  0.6102  0.2015  0.1754
  705MOL0     C95059   4.555   1.621   0.874 -0.7950  0.7898 -0.9033
  705MOL0     C95060   4.494   1.485   0.872  0.2564  0.4729 -0.0340
  705MOL0     C95061   4.376   1.479   0.771  0.4164  0.8895 -0.2156
  705MOL0     C95062   4.299   1.341   0.770 -0.2694  0.2453 -1.0037
  705MOL0     C95063   4.222   1.316   0.904  0.8829 -1.1454  0.0498
  705MOL0     O95064   4.165   1.186   0.913 -0.0508 -0.1624 -0.2999
  705MOL0     C95065   4.048   1.157   0.980 -0.6589 -0.1508 -0.5527
  705MOL0     C95066   3.974   1.054   0.941  1.1719 -0.1953 -0.1170
  705MOL0     C95067   3.839   1.027   0.981  0.5036  0.4483  0.4060
  705MOL0     C95068   3.759   0.913   0.922 -0.3224 -1.9263 -0.0847
  705MOL0     C95069   3.787   1.115   1.082 -0.0818  0.2275  0.5308
  705MOL0     C95070   3.655   1.087   1.149  0.6418  1.1477  0.1611
  705MOL0     O95071   3.643   1.121   1.282  0.4441 -0.8654  0.1105
  705MOL0     C95072   3.519   1.121   1.347 -1.3254 -1.0361 -0.2781
  705MOL0     C95073   3.392   1.081   1.308  0.7369  0.3282 -0.0622
  705MOL0     C95074   3.292   1.087   1.395 -0.2654 -0.0846 -0.3241
  705MOL0     C95075   3.300   1.148   1.521 -0.1254  0.1829 -0.4514
  705MOL0     O95076   3.188   1.142   1.599  0.1087  0.1791  0.4187
  705MOL0     C95077   3.177   1.211   1.728  0.8213 -0.3471  0.2063
  705MOL0     C95078   3.034   1.210   1.772  0.3005  0.0207 -0.2720
  705MOL0     C95079   3.003   1.267   1.918 -0.4761 -0.9651 -0.0829
  705MOL0     C95080   2.872   1.207   1.976 -0.3554 -0.3772  0.1357
  705MOL0     C95081   2.801   1.301   2.073 -0.0030  0.1332 -0.3235
  705MOL0     C95082   2.657   1.245   2.094 -0.5767 -0.5397  0.1573
  705MOL0     C95083   2.605   1.269   2.240  0.1902  0.0019  0.2709
  705MOL0     C95084   2.690   1.201   2.348 -0.1449 -0.1469 -0.9403
  705MOL0    Cl95085   2.650   1.029   2.354 -0.5928 -0.4529  0.1670
  705MOL0     C95086   3.418   1.203   1.563 -0.2327  0.1539  0.3896
  705MOL0     C95087   3.532   1.181   1.476  0.6527  0.4427  0.4779
  705MOL0     O95088   3.569   1.028   1.080 -0.5665  0.1300 -0.5938
  705MOL0     C95089   3.868   1.221   1.127  0.2371 -0.3872 -0.0727
  705MOL0     C95090   4.003   1.240   1.082  0.0761 -0.6356  1.0327
  705MOL0     N95091   4.687   1.653   0.864 -0.2029 -0.3567 -0.7761
  705MOL0     N95092   4.707   1.781   0.867  0.3815 -0.6218  0.2095
  705MOL0     C95093   3.924   1.489   1.501 -1.0242 -0.2274 -0.2107
  705MOL0     C95094   3.840   1.493   1.602 -0.7289 -0.0099  0.0101
  705MOL0     C95095   3.529   1.606   1.886 -0.6581  0.6879  0.7001
  705MOL0     C95096   3.528   1.709   1.979 -0.4858  0.8902 -0.4016
  705MOL0     C95097   3.424   1.732   2.069 -0.3349 -0.3246 -0.6569
  705MOL0     C95098   3.305   1.659   2.049 -0.4076  0.7142 -0.5418
  705MOL0     O95099   3.195   1.667   2.123 -0.0429  0.4249 -0.3884
  705MOL0     C95100   3.179   1.766   2.216  0.7884 -0.0388 -0.1449
  705MOL0     C95101   3.230   1.712   2.352  0.1339 -0.7486 -0.4944
  705MOL0     C95102   3.203   1.812   2.459  0.9254 -0.0549 -0.3381
  705MOL0     C95103   3.300   1.793   2.579 -0.3987  1.0579 -0.6150
  705MOL0     C95104   3.273   1.671   2.657  0.1543 -0.7137 -0.7768
  705MOL0     C95105   3.272   1.573   2.734  0.4890 -0.2037 -0.5100
  705MOL0     C95106   3.297   1.566   1.942  0.0304  0.2802 -0.4297
  705MOL0     C95107   3.404   1.542   1.858  0.4556 -0.4658 -0.8228
  705MOL0     H95108   3.539   1.477   1.454 -0.0349 -0.1519 -0.0772
  705MOL0     H95109   3.689   1.495   1.257  0.7029  0.7527 -0.0948
  705MOL0     H95110   4.010   1.708   1.322  0.1931 -0.0057 -1.4962
  705MOL0     H95111   4.135   1.581   1.341 -0.5661  1.6345  2.7247
  705MOL0     H95112   4.148   1.563   1.107  0.2711  0.0178  1.3662
  705MOL0     H95113   4.039   1.690   1.074 -0.3461 -1.8996  0.9909
  705MOL0     H95114   4.276   1.757   1.253  2.4233 -4.8282 -2.1903
  705MOL0     H95115   4.299   1.734   1.082 -0.2497  5.5807 -2.4438
  705MOL0     H95116   4.171   1.915   1.027  0.1752  1.1765  0.5799
  705MOL0     H95117   4.104   1.940   1.176  0.6363  0.6345 -0.0592
  705MOL0     H95118   4.289   2.117   1.148  1.2874  0.2878  0.3239
  705MOL0     H95119   4.323   2.008   1.284 -0.8524  1.9966  0.5601
  705MOL0     H95120   4.523   2.038   1.163 -2.1290 -0.8112  2.5319
  705MOL0     H95121   4.461   1.878   1.113 -2.2035 -1.1687  0.7651
  705MOL0     H95122   4.370   2.022   0.917  1.3469 -0.7207 -0.2771
  705MOL0     H95123   4.486   2.149   0.972  1.6385 -0.0332  0.9727
  705MOL0     H95124   4.670   2.015   0.949  0.6528 -3.3494  0.4486
  705MOL0     H95125   4.572   2.024   0.797 -1.1428 -4.2966 -2.2201
  705MOL0     H95126   4.383   1.759   0.854  0.7417  1.6171  1.1420
  705MOL0     H95127   4.576   1.418   0.845  3.7465  3.6564  1.7163
  705MOL0     H95128   4.456   1.457   0.971  0.7406  1.3455  0.4148
  705MOL0     H95129   4.425   1.492   0.674  2.9141 -1.4752  0.6275
  705MOL0     H95130   4.310   1.562   0.801  1.1307  1.3085  0.2384
  705MOL0     H95131   4.378   1.265   0.763  0.9684  1.1547  1.6594
  705MOL0     H95132   4.225   1.349   0.690 -0.4185  1.4823 -0.7613
  705MOL0     H95133   4.160   1.404   0.922 -1.3129 -2.3701 -1.1296
  705MOL0     H95134   4.299   1.318   0.981  1.0545 -1.3926 -0.1137
  705MOL0     H95135   4.019   0.991   0.866  0.9687  0.0682 -0.4656
  705MOL0     H95136   3.829   0.852   0.864  1.8412 -0.1921  0.5679
  705MOL0     H95137   3.711   0.845   0.994 -1.6948 -0.9896 -0.0824
  705MOL0     H95138   3.685   0.952   0.852  0.7789 -1.5258 -1.0506
  705MOL0     H95139   3.387   1.028   1.214 -1.2173  1.7158 -0.8098
  705MOL0     H95140   3.197   1.043   1.366 -0.9547  2.1377 -1.7333
  705MOL0     H95141   3.240   1.159   1.801 -0.4633 -0.0348  1.6013
  705MOL0     H95142   3.203   1.318   1.727  0.5298 -0.2761 -0.6750
  705MOL0     H95143   2.966   1.263   1.704 -1.2460 -1.2165  0.2459
  705MOL0     H95144   2.983   1.113   1.768 -1.7665  1.0861 -0.8729
  705MOL0     H95145   2.985   1.375   1.910  0.1826 -0.7128  1.6481
  705MOL0     H95146   3.080   1.233   1.987 -0.9281  2.5980  2.4545
  705MOL0     H95147   2.804   1.187   1.893  2.7938 -2.2205 -2.2281
  705MOL0     H95148   2.891   1.107   2.017 -2.7702 -0.1693  2.0018
  705MOL0     H95149   2.789   1.398   2.024 -1.5317  0.0091 -0.2169
  705MOL0     H95150   2.862   1.309   2.163 -1.1221 -0.0621  0.4674
  705MOL0     H95151   2.589   1.291   2.022  1.1573  0.6419 -0.7686
  705MOL0     H95152   2.651   1.136   2.081  1.4013 -0.5677 -0.8555
  705MOL0     H95153   2.506   1.225   2.246  0.1944  0.2121  2.5647
  705MOL0     H95154   2.600   1.376   2.263 -0.2838  0.1984 -0.7105
  705MOL0     H95155   2.657   1.240   2.445 -1.3370  0.4415 -1.5576
  705MOL0     H95156   2.797   1.217   2.335  0.0186  0.1659  0.5625
  705MOL0     H95157   3.434   1.249   1.660 -1.1019 -1.4857  1.3431
  705MOL0     H95158   3.630   1.226   1.489  0.3946  1.9305 -2.0437
  705MOL0     H95159   3.844   1.299   1.197  6.0071  2.9835 -1.2079
  705MOL0     H95160   4.051   1.330   1.118 -2.0989 -0.1347  2.9334
  705MOL0     H95161   4.026   1.516   1.528 -0.8458 -1.9109  0.9638
  705MOL0     H95162   3.884   1.494   1.701 -0.4538 -1.3949 -0.0900
  705MOL0     H95163   3.612   1.777   1.982  0.7227 -0.5662  1.4632
  705MOL0     H95164   3.437   1.807   2.147 -2.7559 -0.7950  0.2991
  705MOL0     H95165   3.220   1.860   2.178 -0.1832 -0.2740 -1.9078
  705MOL0     H95166   3.076   1.782   2.248  1.5207 -2.8825  4.5528
  705MOL0     H95167   3.338   1.697   2.352  0.2436  0.0073 -0.5987
  705MOL0     H95168   3.183   1.617   2.378 -2.4927 -0.3686 -3.3246
  705MOL0     H95169   3.104   1.813   2.505  0.3278  2.6675 -1.4455
  705MOL0     H95170   3.203   1.915   2.420 -1.3204  0.5939  1.2068
  705MOL0     H95171   3.297   1.883   2.641 -2.7046 -0.0849  1.1053
  705MOL0     H95172   3.406   1.793   2.554 -0.0418  0.5649  0.8511
  705MOL0     H95173   3.311   1.498   2.799  3.5722  3.3758  2.2761
  705MOL0     H95174   3.197   1.526   1.923  0.4131 -0.8818 -0.1078
  705MOL0     H95175   3.383   1.482   1.771 -3.9307 -2.0839  1.0435
  706MOL0     O95176  10.501   4.067  10.870  0.6825  0.3955  0.3842
  706MOL0     C95177  10.588   4.146  10.909  0.6493  0.1603  0.2453
  706MOL0     O95178  10.694   4.195  10.846  0.8609 -0.1415  0.2847
  706MOL0     C95179  10.719   4.147  10.726  0.3807  1.1830  1.0190
  706MOL0     C95180  10.779   4.022  10.699 -0.2382  0.2676  0.6787
  706MOL0     C95181  10.802   3.978  10.566  0.4397  0.6267 -0.5428
  706MOL0     C95182  10.795   4.068  10.462  0.0423  0.2949  0.9604
  706MOL0     O95183  10.841   4.041  10.340  0.3094  0.9884  0.0675
  706MOL0     C95184  10.733   3.976  10.260  0.0247 -0.1472 -0.2830
  706MOL0     C95185  10.768   3.990  10.108 -0.0048 -0.2169 -0.5051
  706MOL0     C95186  10.774   4.125  10.063  0.1275 -0.2501 -0.3529
  706MOL0     C95187  10.785   4.134   9.915 -0.6187  0.6601  0.3061
  706MOL0     C95188  10.816   4.273   9.861 -0.2584  0.5545  0.3934
  706MOL0     C95189  10.710   4.351   9.787 -0.9187 -0.3952  0.2154
  706MOL0     C95190  10.599   4.278   9.717 -0.1514  0.6371 -0.2260
  706MOL0     C95191  10.493   4.364   9.646 -1.0065 -0.2178 -0.5320
  706MOL0     N95192  10.395   4.267   9.590  0.7225 -0.6014 -0.2431
  706MOL0     C95193  10.280   4.218   9.651  0.2581  0.5151  0.5670
  706MOL0     C95194  10.230   4.132   9.559 -0.5948 -0.3756 -0.3186
  706MOL0     C95195  10.108   4.047   9.583 -1.3805 -0.2428 -0.0782
  706MOL0     C95196  10.080   4.008   9.736 -0.1034 -0.4928 -0.2435
  706MOL0     C95197  10.199   3.907   9.774  0.0184  0.6382  0.1325
  706MOL0     C95198  10.204   3.886   9.921 -0.8872 -0.1327  0.3331
  706MOL0     O95199  10.309   3.784   9.947 -0.1263  0.0435  0.5353
  706MOL0     C95200  10.359   3.741  10.073  0.2099 -0.2820  1.8218
  706MOL0     C95201  10.465   3.648  10.073  0.4589 -1.3014  0.6908
  706MOL0     C95202  10.518   3.598  10.203 -0.2429  0.0573  0.7021
  706MOL0     C95203  10.625   3.498  10.203 -0.9575  0.2949 -0.3849
  706MOL0     C95204  10.462   3.639  10.325 -0.8482 -0.3083 -0.6735
  706MOL0     C95205  10.518   3.635  10.464 -0.4905  0.4301 -0.2500
  706MOL0     O95206  10.429   3.646  10.572 -0.6450 -0.0524 -0.4960
  706MOL0     C95207  10.459   3.590  10.696 -0.1706  0.7930  0.0525
  706MOL0     C95208  10.568   3.619  10.772 -0.6081  0.9559 -0.1310
  706MOL0     C95209  10.595   3.564  10.895 -0.2050 -0.2315 -0.8526
  706MOL0     C95210  10.506   3.469  10.941  0.4682 -0.7839 -0.1551
  706MOL0     O95211  10.510   3.406  11.061  0.2254 -0.2916 -0.8194
  706MOL0     C95212  10.604   3.441  11.160 -0.3352 -0.7187  0.8720
  706MOL0     C95213  10.601   3.330  11.271  0.7773 -0.6780  0.6734
  706MOL0     C95214  10.462   3.287  11.308 -1.2247 -1.0090  0.3411
  706MOL0     C95215  10.474   3.198  11.424  0.3140  1.2276 -0.1460
  706MOL0     C95216  10.346   3.110  11.434  0.2051  0.0455  0.6693
  706MOL0     C95217  10.352   3.015  11.566  0.4659 -0.1079 -0.3299
  706MOL0     C95218  10.331   3.083  11.704 -0.2362 -0.0006 -0.4226
  706MOL0     C95219  10.416   3.019  11.810 -0.1386 -0.7216 -0.1908
  706MOL0    Cl95220  10.420   3.122  11.949 -0.4137 -0.0341 -0.1371
  706MOL0     C95221  10.399   3.435  10.867 -0.1241  0.7964  0.5851
  706MOL0     C95222  10.375   3.492  10.742  0.6696 -0.9713  0.0333
  706MOL0     O95223  10.641   3.615  10.463 -0.3844  0.0591 -0.3105
  706MOL0     C95224  10.346   3.720  10.312  0.2518  0.3690 -0.4116
  706MOL0     C95225  10.294   3.773  10.191  0.8789  1.1560  0.0142
  706MOL0     N95226  10.299   4.145   9.438 -0.1736 -0.9324 -0.0450
  706MOL0     N95227  10.408   4.212   9.461  0.3665  0.2835 -0.7490
  706MOL0     C95228  10.741   4.195  10.488  0.3505 -0.1283 -1.4712
  706MOL0     C95229  10.708   4.241  10.616 -0.5611  0.1035 -1.2573
  706MOL0     C95230  10.569   4.210  11.046  0.0403  0.3793  0.7524
  706MOL0     C95231  10.487   4.145  11.137 -0.1771 -0.0392  0.8959
  706MOL0     C95232  10.485   4.193  11.266 -0.4970 -0.6427  0.3563
  706MOL0     C95233  10.563   4.303  11.316 -0.0152 -0.2692  0.7333
  706MOL0     O95234  10.559   4.336  11.446 -0.3879  0.6130 -0.4422
  706MOL0     C95235  10.558   4.483  11.474 -0.3305  0.3649 -0.8819
  706MOL0     C95236  10.526   4.507  11.629  0.4296 -0.3101  0.2302
  706MOL0     C95237  10.375   4.502  11.652  0.2893 -0.0483 -0.0633
  706MOL0     C95238  10.341   4.507  11.805 -0.5060  0.6699  0.5029
  706MOL0     C95239  10.327   4.373  11.862  0.2479 -0.1551  0.0926
  706MOL0     C95240  10.297   4.268  11.914 -0.5532  0.7519 -0.5015
  706MOL0     C95241  10.651   4.356  11.228  0.2308  0.5988  0.1158
  706MOL0     C95242  10.653   4.313  11.095  0.9584 -0.2582 -0.1661
  706MOL0     H95243  10.805   3.952  10.778 -2.4851  1.1567  2.3221
  706MOL0     H95244  10.840   3.877  10.557 -1.0749  0.1885 -2.7850
  706MOL0     H95245  10.729   3.871  10.289 -2.2771 -0.7220 -2.3668
  706MOL0     H95246  10.630   4.010  10.271  0.7935  1.8409  1.7664
  706MOL0     H95247  10.866   3.946  10.090 -0.5527 -2.1925  0.9783
  706MOL0     H95248  10.692   3.926  10.061 -0.6329  0.2753 -0.1862
  706MOL0     H95249  10.687   4.186  10.089 -0.4207  0.2360 -3.0395
  706MOL0     H95250  10.862   4.167  10.113 -1.6061  0.1435  2.5727
  706MOL0     H95251  10.870   4.069   9.890 -0.3818  1.0863  0.0036
  706MOL0     H95252  10.701   4.086   9.865  0.3973 -0.6842 -0.2037
  706MOL0     H95253  10.863   4.331   9.941  4.6219  1.9805 -3.0437
  706MOL0     H95254  10.902   4.264   9.795  0.7822 -0.7441  1.8456
  706MOL0     H95255  10.669   4.418   9.863 -1.2219 -0.8009  0.4098
  706MOL0     H95256  10.766   4.417   9.719 -0.7598  0.1901  0.9070
  706MOL0     H95257  10.636   4.197   9.653 -0.0537  0.0885  0.5162
  706MOL0     H95258  10.537   4.239   9.798 -0.5381  2.4333  0.3915
  706MOL0     H95259  10.550   4.412   9.566 -0.1519 -1.0034 -0.4208
  706MOL0     H95260  10.443   4.430   9.717  1.4019  0.1366  0.9539
  706MOL0     H95261  10.235   4.230   9.749 -0.0928 -2.8873  0.9233
  706MOL0     H95262  10.020   4.097   9.541 -2.8448 -2.5810  0.0035
  706MOL0     H95263  10.110   3.953   9.526 -1.5907 -0.2857 -0.0157
  706MOL0     H95264   9.984   3.958   9.750  1.8392 -4.5667  0.0006
  706MOL0     H95265  10.084   4.098   9.798  3.1728  2.0081 -3.6335
  706MOL0     H95266  10.296   3.947   9.743  0.5437 -1.5098 -1.2294
  706MOL0     H95267  10.183   3.813   9.719 -1.1997  0.1017  1.3572
  706MOL0     H95268  10.109   3.844   9.956 -0.3122 -0.4526  1.5643
  706MOL0     H95269  10.228   3.979   9.972 -0.8901 -1.4502  2.9105
  706MOL0     H95270  10.511   3.616   9.980 -1.8364  3.4335 -2.4438
  706MOL0     H95271  10.621   3.434  10.115 -0.4160 -1.1462  0.5999
  706MOL0     H95272  10.719   3.552  10.214 -0.1653 -1.2580  0.9791
  706MOL0     H95273  10.610   3.431  10.289  0.1670  0.0813 -0.3481
  706MOL0     H95274  10.642   3.686  10.729  1.1581 -1.7367 -1.5298
  706MOL0     H95275  10.676   3.593  10.962 -0.9024 -0.8067  0.2657
  706MOL0     H95276  10.707   3.455  11.128 -1.2123 -1.1150 -2.5140
  706MOL0     H95277  10.581   3.540  11.201  3.2378  1.5963 -2.1105
  706MOL0     H95278  10.654   3.238  11.243  0.4635 -1.6284  2.9747
  706MOL0     H95279  10.659   3.365  11.357  0.4290  2.2354 -0.1697
  706MOL0     H95280  10.408   3.235  11.228 -1.9066 -1.9706  1.3892
  706MOL0     H95281  10.398   3.373  11.328 -2.8031 -2.2342  0.8514
  706MOL0     H95282  10.569   3.143  11.412  0.8542  1.9762  0.5817
  706MOL0     H95283  10.487   3.256  11.516 -0.2699  1.3657 -0.1540
  706MOL0     H95284  10.333   3.046  11.346 -0.7503 -0.5583  1.2155
  706MOL0     H95285  10.259   3.176  11.433  0.2689  0.2099 -2.1138
  706MOL0     H95286  10.279   2.935  11.552  1.8472 -1.1354 -2.1683
  706MOL0     H95287  10.446   2.959  11.565  0.5211 -0.2377  3.0415
  706MOL0     H95288  10.229   3.077  11.742 -0.6312  1.0101 -1.2711
  706MOL0     H95289  10.358   3.189  11.695 -0.8005  0.3335  1.3517
  706MOL0     H95290  10.519   3.020  11.773  0.3413 -0.8824  1.0906
  706MOL0     H95291  10.377   2.920  11.837  3.0182 -2.0061  0.1328
  706MOL0     H95292  10.321   3.373  10.911 -1.1599  0.6937 -1.2944
  706MOL0     H95293  10.283   3.459  10.695  0.6209 -2.3829  1.0247
  706MOL0     H95294  10.303   3.753  10.406 -0.4926  0.9306 -0.9412
  706MOL0     H95295  10.204   3.834  10.187 -0.0508 -0.2513 -2.6437
  706MOL0     H95296  10.733   4.271  10.411  4.1546  3.6911  1.3718
  706MOL0     H95297  10.677   4.344  10.628  0.5289  0.4106 -0.9745
  706MOL0     H95298  10.426   4.059  11.109  2.0601 -1.2833 -0.4595
  706MOL0     H95299  10.412   4.156  11.337 -2.4725 -0.5270 -1.5436
  706MOL0     H95300  10.651   4.538  11.457 -0.7821  2.7391  3.0460
  706MOL0     H95301  10.480   4.534  11.416 -0.4922  2.0248  0.7237
  706MOL0     H95302  10.566   4.601  11.669 -1.1856  1.0676 -1.2128
  706MOL0     H95303  10.563   4.422  11.687 -0.0934 -2.1594 -1.9891
  706MOL0     H95304  10.340   4.411  11.602 -0.0657 -1.2257  2.1875
  706MOL0     H95305  10.329   4.584  11.596  2.5884  0.7477 -0.9050
  706MOL0     H95306  10.243   4.555  11.798 -0.2051  1.0820 -2.4910
  706MOL0     H95307  10.415   4.562  11.864  0.1728 -0.2355  0.5171
  706MOL0     H95308  10.280   4.170  11.955 -1.4930  0.5169 -1.4064
  706MOL0     H95309  10.724   4.434  11.244  1.5529 -0.5767 -0.0211
  706MOL0     H95310  10.725   4.363  11.031 -3.1554  3.4595 -2.5208
  707MOL0     O95311  10.839  10.998   4.793  0.0631 -0.2794 -0.4948
  707MOL0     C95312  10.895  10.978   4.896  0.2930 -1.3298  0.5109
  707MOL0     O95313  10.840  10.895   4.992 -0.3835 -0.2398 -0.2295
  707MOL0     C95314  10.712  10.852   4.977  0.1570 -0.2297  0.2693
  707MOL0     C95315  10.604  10.939   4.969  0.0578  0.2125  0.4081
  707MOL0     C95316  10.471  10.887   4.947 -0.0347  0.6094  0.6574
  707MOL0     C95317  10.453  10.748   4.928 -0.2826  0.4473  0.6498
  707MOL0     O95318  10.336  10.685   4.918 -0.6240  0.0535  0.1052
  707MOL0     C95319  10.225  10.756   4.885 -0.9701  0.0452 -0.3113
  707MOL0     C95320  10.126  10.656   4.834  0.6617 -0.0484  0.1320
  707MOL0     C95321  10.005  10.698   4.752  0.1792  0.3615 -0.2235
  707MOL0     C95322   9.924  10.810   4.832  0.7753  0.1241 -0.6505
  707MOL0     C95323   9.814  10.889   4.752  0.2686  0.6713 -0.5643
  707MOL0     C95324   9.688  10.794   4.725  0.1246 -0.7420  0.0488
  707MOL0     C95325   9.588  10.878   4.643  0.0075 -0.2440  0.5458
  707MOL0     C95326   9.474  10.929   4.741  0.1564  0.8309  0.1200
  707MOL0     N95327   9.355  10.992   4.672  0.7459 -1.0115  1.0709
  707MOL0     C95328   9.358  11.108   4.598  0.4723 -0.6069  0.6221
  707MOL0     C95329   9.237  11.123   4.544  0.2727 -0.1197  0.1794
  707MOL0     C95330   9.186  11.245   4.460 -0.1060  0.6789  0.7595
  707MOL0     C95331   9.167  11.200   4.308 -0.4772 -0.0553  0.3191
  707MOL0     C95332   9.300  11.161   4.238  0.0042  0.2630  0.2113
  707MOL0     C95333   9.288  11.141   4.086 -0.1056 -0.0659  0.6041
  707MOL0     O95334   9.257  11.256   4.011 -0.2725  0.1583  0.4506
  707MOL0     C95335   9.358  11.344   3.971 -0.0652 -0.6290  0.0089
  707MOL0     C95336   9.483  11.295   3.966 -0.1324  0.5184  0.1332
  707MOL0     C95337   9.595  11.376   3.933 -0.4822  0.1959  0.4133
  707MOL0     C95338   9.742  11.326   3.942 -0.2425  0.4852 -0.2379
  707MOL0     C95339   9.580  11.516   3.890  0.9173  1.6043 -0.4995
  707MOL0     C95340   9.684  11.609   3.848 -0.0428 -0.4460  0.5827
  707MOL0     O95341   9.819  11.582   3.864 -0.2158  0.5291  0.9536
  707MOL0     C95342   9.916  11.651   3.792  0.6861  0.1689 -1.1519
  707MOL0     C95343   9.892  11.713   3.674  0.6830  0.7462  0.3490
  707MOL0     C95344   9.995  11.782   3.612  0.7797  0.2634 -0.1481
  707MOL0     C95345  10.131  11.779   3.657 -0.8637  0.6917  0.1084
  707MOL0     O95346  10.229  11.848   3.590  0.1777 -0.7370 -0.5708
  707MOL0     C95347  10.350  11.886   3.661 -0.4173 -0.2267 -0.9020
  707MOL0     C95348  10.410  12.020   3.609  0.5887 -0.0880  0.2403
  707MOL0     C95349  10.545  12.061   3.688 -0.5103  0.2654  0.6993
  707MOL0     C95350  10.659  11.969   3.681 -0.2856  0.3240  0.3685
  707MOL0     C95351  10.788  12.028   3.738  0.4090  0.2790  0.6954
  707MOL0     C95352  10.784  12.039   3.890  0.6891 -0.4062 -0.4986
  707MOL0     C95353  10.903  12.114   3.948  0.4656 -0.0460 -0.0272
  707MOL0     C95354  11.023  12.042   4.017  0.1873  0.1073  0.0475
  707MOL0    Cl95355  11.059  11.892   3.939 -0.3268 -0.3165  0.0156
  707MOL0     C95356  10.152  11.696   3.775  0.8328 -0.0748 -0.0999
  707MOL0     C95357  10.045  11.624   3.828  0.3713 -0.3731  0.0095
  707MOL0     O95358   9.642  11.723   3.820  0.1813  0.7619  0.2935
  707MOL0     C95359   9.443  11.559   3.899 -0.3115 -0.0793 -0.6466
  707MOL0     C95360   9.337  11.484   3.938 -0.1158  0.3122  0.4694
  707MOL0     N95361   9.155  11.019   4.581  0.9480  0.0878  0.0069
  707MOL0     N95362   9.232  10.942   4.657  0.2715 -0.8530  0.2583
  707MOL0     C95363  10.564  10.667   4.942  0.6335 -0.4053 -0.4650
  707MOL0     C95364  10.687  10.716   4.976  0.4016  0.4990  0.5458
  707MOL0     C95365  11.016  11.055   4.922  0.1983 -0.0989 -0.7230
  707MOL0     C95366  11.095  11.114   4.819  0.1689  0.4247  0.0956
  707MOL0     C95367  11.225  11.169   4.837  0.3361  0.2648 -0.3763
  707MOL0     C95368  11.277  11.162   4.970 -0.4171  0.4632 -0.2352
  707MOL0     O95369  11.415  11.185   5.010  0.1654  0.0818  0.6717
  707MOL0     C95370  11.483  11.286   4.928  0.9119  0.2322  0.4306
  707MOL0     C95371  11.568  11.391   5.009  0.9436  0.5267  0.0545
  707MOL0     C95372  11.685  11.323   5.085 -0.6768  0.4600  0.0481
  707MOL0     C95373  11.780  11.423   5.146  0.4359  0.9507 -0.7352
  707MOL0     C95374  11.813  11.387   5.291  0.2307 -0.1064 -0.4774
  707MOL0     C95375  11.838  11.341   5.406  0.0730 -0.8690  0.2497
  707MOL0     C95376  11.206  11.091   5.073 -0.2966  0.1833  0.0790
  707MOL0     C95377  11.072  11.042   5.054 -0.2277 -0.8779  0.6755
  707MOL0     H95378  10.612  11.047   4.970 -0.1452  0.2332 -0.0146
  707MOL0     H95379  10.391  10.960   4.951 -0.5104  0.3483 -2.0820
  707MOL0     H95380  10.198  10.810   4.976 -0.7903 -1.8708  0.9123
  707MOL0     H95381  10.241  10.832   4.808 -1.8227  2.0369  1.3790
  707MOL0     H95382  10.176  10.578   4.776 -1.1054 -1.6584  0.6595
  707MOL0     H95383  10.097  10.591   4.918 -1.6948 -0.3771 -0.8752
  707MOL0     H95384  10.043  10.736   4.656  1.0580  2.4048  0.8761
  707MOL0     H95385   9.941  10.614   4.724  2.7817 -1.6374 -0.6040
  707MOL0     H95386   9.881  10.769   4.924 -1.8573  0.7572 -1.4965
  707MOL0     H95387   9.978  10.897   4.871 -3.6324  3.0142 -0.3020
  707MOL0     H95388   9.782  10.961   4.827 -0.9937 -0.3974 -0.0328
  707MOL0     H95389   9.847  10.939   4.661 -0.1712 -0.4091 -1.3457
  707MOL0     H95390   9.720  10.699   4.682 -2.1979 -2.6554  2.2602
  707MOL0     H95391   9.635  10.776   4.819  0.3574 -2.2820 -0.0945
  707MOL0     H95392   9.641  10.964   4.602 -1.4621  1.4072  1.9534
  707MOL0     H95393   9.551  10.814   4.562  0.7202 -0.4439  0.3731
  707MOL0     H95394   9.516  11.008   4.804  1.3914  0.3131 -0.0296
  707MOL0     H95395   9.427  10.863   4.813 -0.9838 -0.1453 -1.4533
  707MOL0     H95396   9.444  11.171   4.580  2.1602 -2.5177  1.5438
  707MOL0     H95397   9.099  11.292   4.506 -0.1316  1.9908 -0.5642
  707MOL0     H95398   9.268  11.316   4.444  0.3199  0.2340  0.9421
  707MOL0     H95399   9.123  11.287   4.257 -0.3054  1.5931  2.8185
  707MOL0     H95400   9.096  11.117   4.303 -3.5980  2.4721 -2.2153
  707MOL0     H95401   9.333  11.072   4.292  0.9476  0.8457  0.6350
  707MOL0     H95402   9.371  11.242   4.255  2.7965 -1.9662 -0.0512
  707MOL0     H95403   9.208  11.068   4.068 -0.8732  0.4039  1.9259
  707MOL0     H95404   9.370  11.077   4.054  0.9294  1.4380  0.1220
  707MOL0     H95405   9.510  11.194   3.996  1.0227  0.8095  0.1243
  707MOL0     H95406   9.796  11.365   4.029  0.9377  0.5808 -0.9890
  707MOL0     H95407   9.745  11.217   3.957  0.7163  0.4827 -0.3381
  707MOL0     H95408   9.780  11.350   3.842 -0.9674  1.2949 -0.3246
  707MOL0     H95409   9.796  11.714   3.625  1.4615  1.4939 -1.2312
  707MOL0     H95410   9.981  11.848   3.527 -0.7950  1.5787  1.0746
  707MOL0     H95411  10.324  11.888   3.768 -0.2420  0.6839 -0.8699
  707MOL0     H95412  10.429  11.811   3.655  3.5891  3.4339  0.7754
  707MOL0     H95413  10.431  11.998   3.504 -2.5121  0.5916 -0.6384
  707MOL0     H95414  10.332  12.095   3.624 -0.8050 -1.9220  3.0519
  707MOL0     H95415  10.521  12.067   3.795  1.1981  3.0900  1.0344
  707MOL0     H95416  10.583  12.157   3.652  0.1334  0.2705  1.3742
  707MOL0     H95417  10.634  11.883   3.743  0.9138 -0.9191 -0.7826
  707MOL0     H95418  10.670  11.939   3.576 -0.3144 -0.0325  0.4646
  707MOL0     H95419  10.807  12.123   3.687  0.4279 -1.5000 -2.8914
  707MOL0     H95420  10.867  11.964   3.699 -0.5002  0.1137 -0.9611
  707MOL0     H95421  10.694  12.095   3.915 -0.8223 -1.6859 -2.8034
  707MOL0     H95422  10.765  11.940   3.933  2.2231 -1.7314 -2.6315
  707MOL0     H95423  10.856  12.173   4.027 -0.9170 -1.3527  0.1732
  707MOL0     H95424  10.937  12.179   3.866 -0.0448 -0.2818 -0.4314
  707MOL0     H95425  10.987  12.031   4.120  0.1844 -0.0624  0.0283
  707MOL0     H95426  11.103  12.115   4.002  0.2044 -0.2073 -1.4785
  707MOL0     H95427  10.252  11.688   3.818  1.4478 -0.2097 -1.4793
  707MOL0     H95428  10.054  11.559   3.914 -0.1732 -0.9521 -0.3629
  707MOL0     H95429   9.419  11.663   3.877  1.6657  0.4921 -0.2788
  707MOL0     H95430   9.240  11.533   3.930  0.3121  1.0573 -0.4061
  707MOL0     H95431  10.544  10.561   4.926  1.0729 -0.5558 -0.0554
  707MOL0     H95432  10.768  10.643   4.977  0.4530  0.4769 -1.6190
  707MOL0     H95433  11.058  11.112   4.717 -1.1387  1.6296  0.5067
  707MOL0     H95434  11.278  11.201   4.748  0.4498  2.0166  0.2765
  707MOL0     H95435  11.555  11.241   4.859 -0.0226  0.2980 -0.6197
  707MOL0     H95436  11.415  11.340   4.861 -0.5834 -1.1426  0.7475
  707MOL0     H95437  11.499  11.443   5.075 -0.8770 -1.7120  0.0403
  707MOL0     H95438  11.601  11.468   4.938 -2.3063  1.0896 -0.9897
  707MOL0     H95439  11.748  11.257   5.024  1.7732  0.6497  2.1906
  707MOL0     H95440  11.645  11.260   5.165  0.1522 -3.4432 -2.3466
  707MOL0     H95441  11.748  11.525   5.123  0.0344  0.3236 -3.2871
  707MOL0     H95442  11.875  11.413   5.094 -0.3363  2.8159 -2.6422
  707MOL0     H95443  11.847  11.303   5.506  0.5241  3.4797  2.1079
  707MOL0     H95444  11.247  11.076   5.172 -1.0701 -1.7424  0.1565
  707MOL0     H95445  11.015  10.995   5.134 -3.2153 -2.8564 -2.3089
  708MOL0     O95446   0.496   5.434  11.500  0.1994 -0.0766 -0.9126
  708MOL0     C95447   0.593   5.437  11.423  0.0303  0.5422 -1.1223
  708MOL0     O95448   0.699   5.524  11.435 -0.7793  0.2896  0.1494
  708MOL0     C95449   0.738   5.609  11.536  0.6146 -0.9493 -0.1993
  708MOL0     C95450   0.840   5.702  11.513 -0.4967 -0.2569  0.0935
  708MOL0     C95451   0.870   5.784  11.622 -0.9657 -1.3848  0.3897
  708MOL0     C95452   0.824   5.772  11.748  0.9110 -0.2279 -0.8838
  708MOL0     O95453   0.856   5.864  11.853  0.0231  0.2568 -1.1365
  708MOL0     C95454   0.992   5.907  11.846 -0.6361  0.1103  0.3064
  708MOL0     C95455   1.032   5.968  11.975 -1.1038 -0.1677 -0.1039
  708MOL0     C95456   1.055   5.854  12.086 -0.4990  0.3396  0.2402
  708MOL0     C95457   1.195   5.779  12.089  0.6832  0.5420  0.0471
  708MOL0     C95458   1.312   5.867  12.111 -0.2750  0.2425  0.2482
  708MOL0     C95459   1.300   5.947  12.243 -0.3417  0.6301 -0.6702
  708MOL0     C95460   1.450   5.985  12.285 -0.0757 -0.9913 -0.0333
  708MOL0     C95461   1.463   6.055  12.415  0.6480 -0.1671 -0.3136
  708MOL0     N95462   1.452   6.205  12.408 -0.3238  0.2518 -0.3037
  708MOL0     C95463   1.534   6.287  12.336  0.0543  0.4909 -0.7795
  708MOL0     C95464   1.474   6.410  12.345  0.1682 -0.7868  1.1866
  708MOL0     C95465   1.526   6.532  12.284  0.7841  0.3901  0.0564
  708MOL0     C95466   1.587   6.613  12.389 -0.1154 -0.4315 -1.2917
  708MOL0     C95467   1.679   6.717  12.332  0.8271  0.3958 -0.1379
  708MOL0     C95468   1.760   6.813  12.426 -0.8795 -0.3201  0.4612
  708MOL0     O95469   1.899   6.840  12.387 -0.2564 -0.4238  0.6496
  708MOL0     C95470   1.977   6.918  12.469  0.7124 -0.3913  0.4368
  708MOL0     C95471   1.941   6.981  12.581  0.4957 -0.5842 -0.3385
  708MOL0     C95472   2.027   7.056  12.654  0.2339  0.3864  0.0108
  708MOL0     C95473   1.964   7.128  12.769  0.4301  0.6473 -0.5399
  708MOL0     C95474   2.163   7.072  12.614  0.0247  0.8977 -0.2544
  708MOL0     C95475   2.250   7.159  12.682 -0.3498  0.2349  0.0342
  708MOL0     O95476   2.363   7.102  12.727 -0.2695  0.4944  0.5175
  708MOL0     C95477   2.469   7.180  12.753 -0.1666  0.5310 -0.2007
  708MOL0     C95478   2.592   7.152  12.704 -1.1674  0.3390 -0.4835
  708MOL0     C95479   2.700   7.242  12.721  0.0124  0.3008  0.4356
  708MOL0     C95480   2.685   7.359  12.796 -0.4845 -0.2657  0.7961
  708MOL0     O95481   2.798   7.428  12.839 -0.7931  0.7945 -0.0240
  708MOL0     C95482   2.789   7.523  12.941 -0.2193  0.0812 -0.4194
  708MOL0     C95483   2.927   7.596  12.956 -0.5558  0.5225  0.4224
  708MOL0     C95484   2.938   7.720  12.859 -1.1713 -0.3664  0.1993
  708MOL0     C95485   3.082   7.769  12.854  0.1317  0.4591  0.0341
  708MOL0     C95486   3.109   7.866  12.741  0.6435  0.8678 -0.4176
  708MOL0     C95487   3.261   7.842  12.714 -0.2703 -0.1685  0.9973
  708MOL0     C95488   3.305   7.950  12.614  0.2605 -0.1223  0.9997
  708MOL0     C95489   3.308   7.899  12.472  0.3919 -0.7064  0.0114
  708MOL0    Cl95490   3.398   7.740  12.448  0.4207  0.1809  0.1292
  708MOL0     C95491   2.559   7.379  12.856  0.0766 -1.0889  0.4837
  708MOL0     C95492   2.459   7.287  12.840  0.8893 -0.2026  0.5073
  708MOL0     O95493   2.224   7.282  12.683 -0.1359  1.0702  0.2307
  708MOL0     C95494   2.206   6.997  12.504 -0.9738  1.1939  0.1551
  708MOL0     C95495   2.112   6.924  12.435  0.8269  0.1686  0.8093
  708MOL0     N95496   1.372   6.401  12.431  0.6114  0.6131 -0.5611
  708MOL0     N95497   1.357   6.280  12.469 -0.7632 -0.6239  0.5759
  708MOL0     C95498   0.731   5.677  11.777  0.1794  0.0226 -0.6717
  708MOL0     C95499   0.682   5.605  11.673 -0.0971 -1.1210 -0.2556
  708MOL0     C95500   0.580   5.348  11.307 -1.0424 -0.3095  0.3171
  708MOL0     C95501   0.694   5.324  11.222  0.0704 -0.0237  0.2453
  708MOL0     C95502   0.672   5.223  11.122 -0.9510 -0.2296 -0.3975
  708MOL0     C95503   0.563   5.149  11.117 -0.2140 -0.5231 -0.3491
  708MOL0     O95504   0.556   5.065  11.006  0.0091 -0.0871  0.3193
  708MOL0     C95505   0.466   5.113  10.903  1.1876  2.1214 -0.7213
  708MOL0     C95506   0.509   5.234  10.820 -0.1419  0.4052  0.7047
  708MOL0     C95507   0.396   5.327  10.774  0.3069 -0.0134 -0.2621
  708MOL0     C95508   0.327   5.415  10.880  0.5471 -0.0794 -0.9052
  708MOL0     C95509   0.232   5.505  10.812 -0.5223  0.4071 -0.6999
  708MOL0     C95510   0.165   5.585  10.746  0.1531  0.1915  0.0126
  708MOL0     C95511   0.454   5.182  11.193 -0.0196  0.1392  0.8879
  708MOL0     C95512   0.458   5.280  11.285 -0.4877 -0.1214  1.0921
  708MOL0     H95513   0.884   5.714  11.415 -0.6658 -1.0055 -0.0795
  708MOL0     H95514   0.942   5.862  11.598  0.0171 -2.9515 -2.1706
  708MOL0     H95515   1.062   5.826  11.822 -1.6731 -1.0035  0.9575
  708MOL0     H95516   1.005   5.991  11.776  0.8343 -0.1012  0.2914
  708MOL0     H95517   1.118   6.035  11.966 -1.2582  0.6490  3.0552
  708MOL0     H95518   0.950   6.036  12.001  0.9899  4.2137 -3.6135
  708MOL0     H95519   1.035   5.873  12.192  1.0314 -0.3757  0.6867
  708MOL0     H95520   0.982   5.774  12.069  0.9241 -1.0795  0.5815
  708MOL0     H95521   1.186   5.719  12.180 -1.6371 -0.6130 -0.8648
  708MOL0     H95522   1.219   5.724  11.998  0.2784 -0.1909  0.3687
  708MOL0     H95523   1.404   5.809  12.105 -0.6383 -0.3511  0.2435
  708MOL0     H95524   1.320   5.938  12.029 -0.2234  1.5732  1.3717
  708MOL0     H95525   1.235   6.035  12.229 -0.5669  0.9914  2.0852
  708MOL0     H95526   1.257   5.889  12.325 -1.1635 -2.2836 -2.9838
  708MOL0     H95527   1.500   5.888  12.285  3.2033  0.5609  1.9159
  708MOL0     H95528   1.502   6.041  12.207 -1.1385 -2.1477 -1.6385
  708MOL0     H95529   1.563   6.031  12.452  0.3201 -1.4769 -0.2383
  708MOL0     H95530   1.392   6.013  12.487  0.9636  0.3442  0.3127
  708MOL0     H95531   1.624   6.287  12.276  0.6579 -0.6668  0.0911
  708MOL0     H95532   1.591   6.507  12.199  0.7787  0.4893  0.0227
  708MOL0     H95533   1.439   6.588  12.250 -1.4626 -1.4978  2.3383
  708MOL0     H95534   1.646   6.555  12.460  0.1151  3.2856  1.8962
  708MOL0     H95535   1.502   6.659  12.441  0.5207  1.7144 -2.0168
  708MOL0     H95536   1.611   6.788  12.285  0.6281 -0.4497 -1.1612
  708MOL0     H95537   1.743   6.675  12.255 -0.5784 -0.7577 -0.7319
  708MOL0     H95538   1.767   6.766  12.524  1.5960 -1.0322  0.0121
  708MOL0     H95539   1.721   6.915  12.435 -3.0157 -0.6072 -3.4414
  708MOL0     H95540   1.838   6.981  12.617  0.7771  2.3528  0.7739
  708MOL0     H95541   1.929   7.228  12.741 -2.8148  0.4996  2.3158
  708MOL0     H95542   1.880   7.066  12.802  2.5227 -3.4876 -2.2391
  708MOL0     H95543   2.030   7.126  12.856  0.0801 -1.5306 -0.2715
  708MOL0     H95544   2.611   7.063  12.645 -0.1781  0.3638 -0.2134
  708MOL0     H95545   2.795   7.216  12.675 -1.1930  0.1698 -2.1801
  708MOL0     H95546   2.711   7.591  12.905 -0.2576  0.2972  0.0640
  708MOL0     H95547   2.755   7.463  13.026  0.1223  0.1102 -0.2598
  708MOL0     H95548   2.946   7.627  13.060 -1.4243 -4.2993  2.2585
  708MOL0     H95549   3.008   7.526  12.934  1.8118  2.5557  2.0160
  708MOL0     H95550   2.870   7.798  12.895 -0.1664  0.2270  0.8823
  708MOL0     H95551   2.902   7.700  12.758 -0.7794  3.0319 -0.7216
  708MOL0     H95552   3.116   7.803  12.952  2.6126 -0.4221 -0.4275
  708MOL0     H95553   3.146   7.683  12.830  0.7225  1.2103 -1.1714
  708MOL0     H95554   3.087   7.965  12.782 -0.7317  0.2512  0.4282
  708MOL0     H95555   3.051   7.838  12.652 -1.5707  0.4562  1.0708
  708MOL0     H95556   3.315   7.856  12.808 -0.3686 -0.4184  1.0928
  708MOL0     H95557   3.293   7.748  12.668  1.1113 -0.6450  2.8216
  708MOL0     H95558   3.402   7.990  12.647 -0.1367  0.2423  1.7560
  708MOL0     H95559   3.239   8.037  12.611 -0.8022 -0.9183  0.5238
  708MOL0     H95560   3.345   7.984  12.413  0.3063 -0.4530  0.3191
  708MOL0     H95561   3.208   7.887  12.431 -0.0054 -0.0474  0.7575
  708MOL0     H95562   2.548   7.466  12.920  0.3308  1.1617 -2.3460
  708MOL0     H95563   2.358   7.303  12.879  0.1853 -1.0798 -0.8669
  708MOL0     H95564   2.304   6.991  12.459  0.1887  0.2986  2.5838
  708MOL0     H95565   2.135   6.871  12.343 -3.0259  1.8705 -1.3817
  708MOL0     H95566   0.685   5.650  11.871  1.2228 -0.0321 -0.1642
  708MOL0     H95567   0.604   5.531  11.688 -1.2304 -0.0640 -0.7170
  708MOL0     H95568   0.787   5.379  11.218  1.1746 -1.5805  2.6951
  708MOL0     H95569   0.742   5.191  11.045 -0.5100  1.9584 -0.9588
  708MOL0     H95570   0.461   5.033  10.828  2.1738  2.6853 -1.4162
  708MOL0     H95571   0.365   5.132  10.941  0.2492  3.1822 -3.5438
  708MOL0     H95572   0.551   5.180  10.735 -1.0281 -0.7690  1.0002
  708MOL0     H95573   0.581   5.308  10.858 -1.5272  1.7722  0.7842
  708MOL0     H95574   0.324   5.268  10.717  2.6234  0.0173 -3.5327
  708MOL0     H95575   0.443   5.396  10.703  1.4402 -0.4959 -0.0033
  708MOL0     H95576   0.399   5.478  10.933 -0.6503 -2.2661  3.9066
  708MOL0     H95577   0.284   5.353  10.959  0.7702  1.6085  0.6052
  708MOL0     H95578   0.101   5.661  10.706  3.0860  1.7622 -2.0670
  708MOL0     H95579   0.358   5.134  11.173  1.1361 -1.7433 -0.4571
  708MOL0     H95580   0.370   5.316  11.338 -1.6933 -0.3667 -0.6524
  709MOL0     O95581   9.453   6.427   7.984 -0.7278 -0.6186  0.6170
  709MOL0     C95582   9.524   6.524   7.988  0.3072  0.9520  0.7550
  709MOL0     O95583   9.630   6.532   8.074 -1.1506  1.2320 -0.6243
  709MOL0     C95584   9.676   6.432   8.159 -0.1519  1.3168  1.0731
  709MOL0     C95585   9.766   6.479   8.254  0.5927 -0.2389 -1.0444
  709MOL0     C95586   9.819   6.392   8.355  0.6582 -0.4536  0.9222
  709MOL0     C95587   9.792   6.256   8.351  0.1526 -0.4831 -0.0021
  709MOL0     O95588   9.841   6.175   8.444  0.5300 -0.0017  0.4812
  709MOL0     C95589   9.947   6.207   8.533 -0.8076 -0.2784  0.2824
  709MOL0     C95590  10.017   6.083   8.582 -0.0296  0.5828  0.6098
  709MOL0     C95591   9.933   5.987   8.663  0.8615  0.5812 -0.0694
  709MOL0     C95592  10.001   5.844   8.689 -0.4160  0.4034 -0.3766
  709MOL0     C95593   9.890   5.744   8.734  0.5521  1.0558 -0.3426
  709MOL0     C95594   9.952   5.600   8.767 -0.4887 -0.0773 -1.2309
  709MOL0     C95595   9.854   5.484   8.782  0.6492  0.0130 -0.5788
  709MOL0     C95596   9.784   5.503   8.915  0.5545 -1.5951 -0.2951
  709MOL0     N95597   9.702   5.391   8.950 -0.0225 -0.0955 -0.0694
  709MOL0     C95598   9.717   5.298   9.055  0.7644  0.0198  0.1714
  709MOL0     C95599   9.599   5.230   9.052 -0.2791  0.6885  0.5451
  709MOL0     C95600   9.562   5.120   9.138 -0.6557  0.3111 -0.1182
  709MOL0     C95601   9.615   5.139   9.286 -0.1209  0.3631  0.0929
  709MOL0     C95602   9.548   5.245   9.367  0.3962  0.1563  0.3485
  709MOL0     C95603   9.536   5.207   9.504 -0.0864 -0.3223 -0.6012
  709MOL0     O95604   9.672   5.182   9.559  0.2374 -0.8968 -0.3108
  709MOL0     C95605   9.693   5.116   9.670 -0.6779 -0.0289 -0.3018
  709MOL0     C95606   9.786   5.164   9.755 -0.8391  0.3395 -0.2521
  709MOL0     C95607   9.823   5.087   9.870  0.2273 -0.4585 -0.3128
  709MOL0     C95608   9.936   5.148   9.951  1.3390 -0.3096 -0.2888
  709MOL0     C95609   9.760   4.963   9.903 -0.1890 -0.6173  0.1039
  709MOL0     C95610   9.798   4.882  10.023  0.9429  0.7203 -0.1708
  709MOL0     O95611   9.873   4.933  10.129  0.2648 -1.5631  0.0572
  709MOL0     C95612   9.872   4.859  10.246 -0.7142 -0.9334 -0.0897
  709MOL0     C95613   9.813   4.904  10.368 -0.3977  0.0249 -0.9080
  709MOL0     C95614   9.825   4.837  10.482  0.6509 -0.7871 -0.2500
  709MOL0     C95615   9.894   4.714  10.493  0.3280 -0.2671  0.6574
  709MOL0     O95616   9.906   4.641  10.609  0.7257  0.5336  0.1799
  709MOL0     C95617   9.793   4.604  10.688 -0.2879 -0.4170  0.2864
  709MOL0     C95618   9.836   4.574  10.840 -0.7170  0.7809  1.0015
  709MOL0     C95619   9.721   4.539  10.926  0.7672 -0.0624 -0.7939
  709MOL0     C95620   9.770   4.452  11.043  0.0325  0.3534 -0.4228
  709MOL0     C95621   9.675   4.449  11.167 -0.0087 -0.2015  0.6308
  709MOL0     C95622   9.664   4.580  11.248 -0.5522  0.6316  0.4310
  709MOL0     C95623   9.578   4.548  11.373  0.0499  0.2224 -1.0273
  709MOL0     C95624   9.532   4.675  11.432  0.8212  0.0925  0.3800
  709MOL0    Cl95625   9.435   4.640  11.577 -0.1882  0.1028  0.0702
  709MOL0     C95626   9.931   4.654  10.374 -0.1521 -0.2826  0.6959
  709MOL0     C95627   9.932   4.729  10.250  0.8838  0.4979  0.3932
  709MOL0     O95628   9.775   4.759  10.006 -0.1285 -0.3626  0.6042
  709MOL0     C95629   9.650   4.926   9.822 -0.8703 -0.8973  0.4698
  709MOL0     C95630   9.620   4.998   9.707 -1.2828  0.1114  0.5318
  709MOL0     N95631   9.527   5.263   8.938  0.2779 -0.3121 -0.1422
  709MOL0     N95632   9.589   5.369   8.880 -0.8192  0.3686  0.4220
  709MOL0     C95633   9.706   6.215   8.256  0.3727  0.1990  0.0733
  709MOL0     C95634   9.639   6.298   8.167 -0.1958  0.0350 -0.4145
  709MOL0     C95635   9.492   6.634   7.898  0.6786 -0.1994 -0.2948
  709MOL0     C95636   9.393   6.628   7.796 -0.8251 -0.3165  0.6646
  709MOL0     C95637   9.352   6.736   7.723 -0.3727 -0.0904 -0.3088
  709MOL0     C95638   9.417   6.863   7.742 -0.6333 -0.1719  0.6104
  709MOL0     O95639   9.380   6.979   7.674 -0.2269  0.6150 -0.1239
  709MOL0     C95640   9.275   6.993   7.582 -0.5029  0.5842 -0.6080
  709MOL0     C95641   9.279   7.138   7.531  1.1194  0.5793  0.0240
  709MOL0     C95642   9.293   7.246   7.641 -0.4017 -0.1748  0.4274
  709MOL0     C95643   9.276   7.391   7.601 -0.0086  0.2523 -0.6709
  709MOL0     C95644   9.185   7.421   7.494 -0.7775 -0.3725  1.5483
  709MOL0     C95645   9.113   7.424   7.394  0.9699 -0.8915 -0.2745
  709MOL0     C95646   9.515   6.871   7.840  0.7948  0.5483  0.4274
  709MOL0     C95647   9.548   6.761   7.914 -0.0152 -0.6392 -0.6666
  709MOL0     H95648   9.804   6.580   8.243  6.2792 -1.9582 -0.2357
  709MOL0     H95649   9.899   6.432   8.416  1.2840  1.4566 -1.0355
  709MOL0     H95650  10.019   6.270   8.480 -0.3768 -2.7167 -2.2460
  709MOL0     H95651   9.916   6.282   8.607  1.0324 -0.0701  0.8792
  709MOL0     H95652  10.045   6.028   8.492  0.9833  3.2900 -0.8756
  709MOL0     H95653  10.108   6.093   8.641  0.7023 -0.6998 -0.2380
  709MOL0     H95654   9.908   6.038   8.757 -3.3302  2.4419 -1.9608
  709MOL0     H95655   9.833   5.983   8.621 -0.5645  1.5794  2.9394
  709MOL0     H95656  10.056   5.805   8.602  1.3409  1.4709  0.1970
  709MOL0     H95657  10.087   5.848   8.757  1.3795 -0.0780 -2.4906
  709MOL0     H95658   9.855   5.793   8.825  2.7990  2.2993 -0.0740
  709MOL0     H95659   9.801   5.743   8.669 -1.7559 -2.1859  2.5061
  709MOL0     H95660  10.027   5.575   8.692  2.6903  2.3665  0.8947
  709MOL0     H95661  10.007   5.601   8.861 -2.0474  2.6728 -0.2252
  709MOL0     H95662   9.786   5.481   8.696 -0.5421  1.0423  0.2744
  709MOL0     H95663   9.905   5.387   8.785 -2.3433 -1.7026 -0.6417
  709MOL0     H95664   9.721   5.592   8.924  2.8552  0.1009 -0.2255
  709MOL0     H95665   9.853   5.522   8.998  1.5508  1.4245 -1.6848
  709MOL0     H95666   9.795   5.309   9.131 -1.9670  3.3072  2.8286
  709MOL0     H95667   9.453   5.109   9.131 -1.0283  2.7437  0.8497
  709MOL0     H95668   9.600   5.021   9.111  0.7846  0.6735  0.4884
  709MOL0     H95669   9.723   5.157   9.287 -0.2617  1.5985 -1.9231
  709MOL0     H95670   9.586   5.041   9.326 -0.3608 -0.8731 -2.8393
  709MOL0     H95671   9.445   5.254   9.331  0.2716 -2.4877 -0.1959
  709MOL0     H95672   9.602   5.340   9.377 -2.1165  1.6171  0.8787
  709MOL0     H95673   9.479   5.114   9.513  0.1815 -0.5032 -0.7601
  709MOL0     H95674   9.488   5.283   9.565  1.4296  0.7617 -0.6910
  709MOL0     H95675   9.835   5.255   9.724 -0.4710 -0.8302 -3.6054
  709MOL0     H95676   9.904   5.204  10.040  1.8896  1.5081 -1.1747
  709MOL0     H95677  10.016   5.078   9.975  1.8962 -0.5356 -2.6360
  709MOL0     H95678   9.987   5.222   9.888  2.2786 -1.3815 -0.8240
  709MOL0     H95679   9.768   5.002  10.381 -0.8242 -0.5030  2.3758
  709MOL0     H95680   9.788   4.891  10.569  1.2359 -0.8353  0.0354
  709MOL0     H95681   9.724   4.689  10.684  0.5247  0.2003 -1.1148
  709MOL0     H95682   9.726   4.527  10.648  0.4731 -1.7982  1.5198
  709MOL0     H95683   9.898   4.484  10.832 -1.8156  0.1276 -0.7644
  709MOL0     H95684   9.893   4.654  10.887 -0.3893  2.0642 -1.4132
  709MOL0     H95685   9.643   4.498  10.861  1.9155  1.7214 -3.4965
  709MOL0     H95686   9.664   4.624  10.962 -1.6726 -1.9692  0.1079
  709MOL0     H95687   9.754   4.348  11.012 -0.8463  0.8599 -1.7481
  709MOL0     H95688   9.872   4.470  11.077  0.8093 -2.0991 -1.2185
  709MOL0     H95689   9.725   4.375  11.231 -0.8070 -0.8623  0.5198
  709MOL0     H95690   9.576   4.412  11.139  0.2620 -0.7950  0.4496
  709MOL0     H95691   9.766   4.612  11.273  0.7735 -1.2449 -2.1248
  709MOL0     H95692   9.607   4.649  11.186 -1.9623 -0.0736  0.8920
  709MOL0     H95693   9.637   4.498  11.451 -1.3446  0.6427  0.3251
  709MOL0     H95694   9.494   4.480  11.356  1.9131 -2.1157 -1.5559
  709MOL0     H95695   9.471   4.723  11.355  2.7666 -1.0590 -2.0214
  709MOL0     H95696   9.606   4.748  11.463  0.5209  1.5772 -2.0629
  709MOL0     H95697   9.993   4.566  10.366 -0.0275 -0.1269 -0.2490
  709MOL0     H95698   9.989   4.689  10.167 -0.7248  0.9261 -0.9962
  709MOL0     H95699   9.612   4.825   9.838  0.5275 -1.5154 -0.0297
  709MOL0     H95700   9.542   4.957   9.643  0.0354  1.3839 -2.0362
  709MOL0     H95701   9.668   6.113   8.245 -1.7025  0.9512 -0.0964
  709MOL0     H95702   9.563   6.262   8.098 -1.7706 -0.3508  1.4394
  709MOL0     H95703   9.350   6.529   7.780 -1.0127 -0.4261  1.7619
  709MOL0     H95704   9.274   6.721   7.648 -0.6801  1.8928 -0.4344
  709MOL0     H95705   9.291   6.919   7.504  0.8528 -0.3099  0.4763
  709MOL0     H95706   9.183   6.982   7.640 -1.5239  2.0333 -1.8673
  709MOL0     H95707   9.180   7.149   7.487 -0.1660 -3.6153  1.3900
  709MOL0     H95708   9.351   7.142   7.449  2.1980 -2.0438  0.7223
  709MOL0     H95709   9.391   7.239   7.688 -0.7942  1.0164  1.4895
  709MOL0     H95710   9.216   7.228   7.717  0.0388 -1.8991  0.5036
  709MOL0     H95711   9.372   7.441   7.586 -2.0833  5.4747  1.1037
  709MOL0     H95712   9.230   7.444   7.685  3.3381  1.2652  0.6806
  709MOL0     H95713   9.047   7.424   7.310 -1.3721  2.3316  1.3758
  709MOL0     H95714   9.572   6.961   7.862 -0.7892  0.7313  4.7955
  709MOL0     H95715   9.624   6.765   7.991  0.3464 -3.6517 -0.7484
  710MOL0     O95716   4.157   1.838   0.766  0.3123  0.0672 -0.5897
  710MOL0     C95717   4.095   1.837   0.660 -0.0823 -0.9640  0.4227
  710MOL0     O95718   4.152   1.863   0.535 -0.8477 -0.5948  0.2415
  710MOL0     C95719   4.290   1.894   0.523 -0.2624 -0.4347 -0.1266
  710MOL0     C95720   4.326   2.026   0.546  0.1941 -0.1742  0.2829
  710MOL0     C95721   4.469   2.061   0.555 -0.4245  0.3377 -0.2746
  710MOL0     C95722   4.568   1.962   0.524 -0.0231 -0.6226 -0.3777
  710MOL0     O95723   4.700   2.004   0.539  0.0091 -0.0682  0.1166
  710MOL0     C95724   4.804   1.905   0.540  0.0705  0.6588  0.3282
  710MOL0     C95725   4.934   1.977   0.558  0.8834  0.0536 -0.0214
  710MOL0     C95726   5.016   1.911   0.672 -1.1293  0.1327  0.8480
  710MOL0     C95727   5.151   1.983   0.695 -0.0006  0.1705 -0.6552
  710MOL0     C95728   5.236   2.022   0.573  0.1828  0.0103 -0.5102
  710MOL0     C95729   5.373   2.083   0.609 -0.2809  0.2929  1.2882
  710MOL0     C95730   5.473   2.051   0.491  0.0486 -0.6933  0.1298
  710MOL0     C95731   5.612   2.088   0.525  0.5902  0.3478  1.1994
  710MOL0     N95732   5.640   2.227   0.556  0.0927  0.7452  0.5417
  710MOL0     C95733   5.641   2.335   0.464  0.3101 -0.5387 -0.1654
  710MOL0     C95734   5.613   2.448   0.533 -0.0826  0.4130  0.0125
  710MOL0     C95735   5.599   2.582   0.477 -0.6808  1.9447 -0.7506
  710MOL0     C95736   5.481   2.648   0.531  0.2281 -0.5578  0.2219
  710MOL0     C95737   5.353   2.608   0.460 -0.4640  0.2525 -0.1330
  710MOL0     C95738   5.237   2.685   0.538  0.3532  0.1649 -0.1536
  710MOL0     O95739   5.107   2.652   0.491 -0.4737 -0.1594  0.4847
  710MOL0     C95740   5.001   2.719   0.540 -0.2442 -0.2859 -1.1093
  710MOL0     C95741   4.884   2.698   0.467 -0.3225  0.6949  0.0308
  710MOL0     C95742   4.779   2.784   0.494  0.0581  0.0832 -0.0792
  710MOL0     C95743   4.673   2.769   0.390  0.6295 -0.6709  0.4738
  710MOL0     C95744   4.772   2.876   0.602 -0.4587  0.2746  0.1610
  710MOL0     C95745   4.649   2.944   0.629  0.4252  0.6441  0.3333
  710MOL0     O95746   4.587   3.010   0.524  0.4535 -0.2737 -0.0529
  710MOL0     C95747   4.468   3.072   0.552 -0.6084 -0.0089  1.2879
  710MOL0     C95748   4.453   3.210   0.531  0.5052  0.6512 -0.3160
  710MOL0     C95749   4.330   3.270   0.561 -0.7036 -0.0235  0.1532
  710MOL0     C95750   4.219   3.183   0.607 -0.0713 -0.1629  0.0812
  710MOL0     O95751   4.095   3.225   0.641  0.1968  0.4240 -0.5014
  710MOL0     C95752   4.062   3.352   0.576  0.6821  1.5485 -1.2407
  710MOL0     C95753   3.920   3.381   0.619  0.1145 -1.1456 -0.4335
  710MOL0     C95754   3.868   3.515   0.552  0.3482 -0.5583  0.3552
  710MOL0     C95755   3.728   3.556   0.600  0.2352  0.0612  0.9172
  710MOL0     C95756   3.666   3.659   0.499 -0.2014 -0.7071  0.1167
  710MOL0     C95757   3.536   3.714   0.554  0.6255  0.1232 -0.4290
  710MOL0     C95758   3.431   3.609   0.590 -0.2419 -0.2675 -0.3927
  710MOL0     C95759   3.290   3.654   0.565  1.3830 -0.3542  0.7140
  710MOL0    Cl95760   3.239   3.797   0.656 -0.2971 -0.0728  0.1230
  710MOL0     C95761   4.247   3.046   0.624  0.4535  0.1730 -0.1838
  710MOL0     C95762   4.372   2.999   0.599 -0.6725  0.9322  0.2355
  710MOL0     O95763   4.611   2.956   0.745 -0.6587  0.7240  0.0599
  710MOL0     C95764   4.882   2.882   0.691  0.3307 -1.0098 -0.3508
  710MOL0     C95765   5.001   2.806   0.654  0.6673 -0.0580 -0.1582
  710MOL0     N95766   5.633   2.404   0.665 -0.2906 -0.9262 -1.6507
  710MOL0     N95767   5.656   2.273   0.673 -0.0589 -0.4040  0.1986
  710MOL0     C95768   4.526   1.832   0.491 -0.1302  0.5665 -0.1846
  710MOL0     C95769   4.384   1.794   0.490  0.1143 -0.2814 -0.4036
  710MOL0     C95770   3.951   1.837   0.667 -0.1520  0.3923  0.1405
  710MOL0     C95771   3.888   1.845   0.798 -0.4969  0.5348 -0.5908
  710MOL0     C95772   3.747   1.842   0.811 -0.4525  0.2347 -0.1980
  710MOL0     C95773   3.673   1.819   0.701  0.3952 -0.0932 -0.7414
  710MOL0     O95774   3.536   1.794   0.727  1.0089 -0.7375 -0.0894
  710MOL0     C95775   3.445   1.788   0.615  0.4126 -0.3862 -1.1412
  710MOL0     C95776   3.399   1.927   0.579  0.3891 -0.0016 -0.4043
  710MOL0     C95777   3.299   1.965   0.689  1.2419  0.3481  0.7073
  710MOL0     C95778   3.280   2.125   0.693  0.2667 -0.2953  0.2691
  710MOL0     C95779   3.178   2.179   0.600 -0.3240  0.4603 -0.1487
  710MOL0     C95780   3.092   2.230   0.534 -0.6102  0.4294  0.0740
  710MOL0     C95781   3.735   1.823   0.574  0.4733 -0.5194 -0.9199
  710MOL0     C95782   3.873   1.834   0.557 -0.6695  0.1131  0.4591
  710MOL0     H95783   4.261   2.111   0.564  0.8290  0.5632 -0.8176
  710MOL0     H95784   4.498   2.161   0.587 -1.8108  1.8564 -3.3703
  710MOL0     H95785   4.789   1.828   0.616 -4.0231  0.0690 -0.8447
  710MOL0     H95786   4.809   1.856   0.443  2.4431  4.6603 -1.8377
  710MOL0     H95787   4.995   1.987   0.468 -0.4779 -1.0967 -1.1125
  710MOL0     H95788   4.899   2.080   0.575 -3.7279 -1.0304 -1.5509
  710MOL0     H95789   4.960   1.889   0.763  0.1532 -0.8026  1.4402
  710MOL0     H95790   5.038   1.807   0.649  2.3954  0.7977  0.6300
  710MOL0     H95791   5.123   2.073   0.751 -1.0717  0.0604 -0.9870
  710MOL0     H95792   5.219   1.928   0.760 -1.6242 -2.9398 -1.3735
  710MOL0     H95793   5.249   1.933   0.511  0.4081 -0.1941 -0.1714
  710MOL0     H95794   5.180   2.101   0.521 -0.7770 -0.4326 -0.1660
  710MOL0     H95795   5.357   2.187   0.638  0.7079  0.9655 -0.4514
  710MOL0     H95796   5.404   2.017   0.691 -0.4380  1.5165  2.3634
  710MOL0     H95797   5.470   1.947   0.457 -1.2978 -1.0874  1.3406
  710MOL0     H95798   5.449   2.111   0.404  0.5668 -0.2465  0.2881
  710MOL0     H95799   5.685   2.060   0.448  1.3207  1.7357  1.3543
  710MOL0     H95800   5.645   2.022   0.606  0.8605 -0.2855  0.5853
  710MOL0     H95801   5.625   2.327   0.357 -0.8844  1.6396 -0.1998
  710MOL0     H95802   5.690   2.631   0.511  1.8596 -1.7120 -1.6758
  710MOL0     H95803   5.595   2.571   0.368 -0.2316  0.0330 -0.6008
  710MOL0     H95804   5.489   2.756   0.522  0.3681 -0.5785  0.0865
  710MOL0     H95805   5.478   2.638   0.640  1.8357  2.5289  0.6535
  710MOL0     H95806   5.339   2.500   0.475  3.3411 -0.4256 -0.3910
  710MOL0     H95807   5.340   2.620   0.352 -0.6700 -2.8021 -0.5256
  710MOL0     H95808   5.253   2.793   0.535 -1.2945  0.6005  2.7875
  710MOL0     H95809   5.251   2.671   0.645  2.8085  2.4036 -0.0923
  710MOL0     H95810   4.880   2.617   0.395 -0.7965  1.4011 -0.7549
  710MOL0     H95811   4.581   2.742   0.442  0.4006  0.3567  0.6323
  710MOL0     H95812   4.663   2.866   0.341 -0.0491 -0.4893  0.9635
  710MOL0     H95813   4.688   2.696   0.310 -0.2246  1.4108 -1.6988
  710MOL0     H95814   4.525   3.286   0.503  1.3313 -0.0323 -0.0945
  710MOL0     H95815   4.323   3.376   0.539  3.4607  0.0204 -2.0304
  710MOL0     H95816   4.128   3.426   0.622  0.3507  3.2051 -3.2475
  710MOL0     H95817   4.084   3.361   0.469  2.5996 -2.6697 -1.3797
  710MOL0     H95818   3.857   3.294   0.599  1.0592 -2.8606  3.2182
  710MOL0     H95819   3.910   3.396   0.727  0.2037 -1.0008 -0.4450
  710MOL0     H95820   3.856   3.494   0.446 -2.0811 -4.9948  1.2442
  710MOL0     H95821   3.942   3.594   0.566  2.6361 -2.0474 -2.3962
  710MOL0     H95822   3.662   3.468   0.594  0.0964  0.0786  1.9354
  710MOL0     H95823   3.719   3.599   0.700 -2.7412 -1.3749  1.4004
  710MOL0     H95824   3.652   3.607   0.404  1.5259  0.5958 -0.9299
  710MOL0     H95825   3.730   3.747   0.480  0.7266 -0.8592  2.2637
  710MOL0     H95826   3.555   3.778   0.640  0.0596 -0.0808 -0.1496
  710MOL0     H95827   3.488   3.781   0.481 -1.5039 -1.8560 -0.9511
  710MOL0     H95828   3.437   3.587   0.697 -1.4130  2.5850  0.3468
  710MOL0     H95829   3.448   3.520   0.529  0.3244 -2.5090  2.7676
  710MOL0     H95830   3.228   3.568   0.592 -0.5428  1.0909  1.1751
  710MOL0     H95831   3.274   3.664   0.457  1.1011  3.1683  0.9453
  710MOL0     H95832   4.168   2.977   0.653  2.0744 -1.7123 -0.0689
  710MOL0     H95833   4.378   2.897   0.634 -0.3427  0.6912 -0.5213
  710MOL0     H95834   4.863   2.934   0.784 -0.0794  1.7855 -1.8804
  710MOL0     H95835   5.095   2.812   0.708  0.5694 -3.3510  0.6004
  710MOL0     H95836   4.602   1.757   0.470 -0.9211  0.0097 -1.1879
  710MOL0     H95837   4.355   1.697   0.452 -3.2025  0.7309 -0.8326
  710MOL0     H95838   3.946   1.850   0.889 -1.8646 -0.7647  0.4086
  710MOL0     H95839   3.694   1.839   0.906  0.7821  0.6219  0.5147
  710MOL0     H95840   3.485   1.743   0.524 -0.3774 -2.2084 -0.6498
  710MOL0     H95841   3.357   1.727   0.640  1.5715 -0.6717  2.9748
  710MOL0     H95842   3.344   1.928   0.484  3.1623  2.4738 -2.1565
  710MOL0     H95843   3.483   1.996   0.574  1.2679 -0.8406  1.6242
  710MOL0     H95844   3.340   1.954   0.790 -3.1329  3.7076  3.1981
  710MOL0     H95845   3.201   1.916   0.683  1.1016  0.3127  2.5199
  710MOL0     H95846   3.377   2.173   0.675  0.9847 -1.5363  0.7167
  710MOL0     H95847   3.251   2.167   0.789  0.9737  3.2957 -0.9385
  710MOL0     H95848   3.021   2.275   0.467  0.7860  1.4001 -0.8051
  710MOL0     H95849   3.675   1.838   0.485  0.4202  1.8484 -0.5634
  710MOL0     H95850   3.916   1.837   0.457  0.1200  2.0873  0.7970
  711MOL0     O95851   0.605   2.190   9.599  0.3938 -0.0809 -0.3308
  711MOL0     C95852   0.510   2.204   9.520 -1.4140 -0.6417 -0.5346
  711MOL0     O95853   0.425   2.313   9.533  0.3247 -0.2813 -0.0747
  711MOL0     C95854   0.457   2.415   9.617 -0.4488  0.0028  0.3259
  711MOL0     C95855   0.391   2.431   9.734 -0.7926 -0.5576  0.0564
  711MOL0     C95856   0.418   2.555   9.807  0.6130 -0.1409  0.8011
  711MOL0     C95857   0.500   2.660   9.761  0.1230  0.3925  0.3224
  711MOL0     O95858   0.539   2.762   9.846 -0.9042 -0.1267  0.2151
  711MOL0     C95859   0.640   2.855   9.814 -0.7121  0.1917  0.0641
  711MOL0     C95860   0.663   2.950   9.935 -1.0022  0.7129 -0.3793
  711MOL0     C95861   0.777   3.048   9.921  0.0515 -0.4584  0.3115
  711MOL0     C95862   0.779   3.113  10.055 -0.0248 -1.3573 -0.7961
  711MOL0     C95863   0.825   3.258  10.063 -0.2881  0.1615  0.9853
  711MOL0     C95864   0.974   3.275  10.036  0.4296 -0.1741  1.0873
  711MOL0     C95865   1.011   3.422  10.001  0.2964 -0.0021  0.1989
  711MOL0     C95866   1.013   3.507  10.124 -0.1201  0.1584  0.1291
  711MOL0     N95867   1.061   3.650  10.101 -0.6216  0.3502  0.3675
  711MOL0     C95868   0.991   3.768  10.119  0.4083 -0.3050 -0.0640
  711MOL0     C95869   1.085   3.864  10.123 -1.2989  0.0000 -0.2767
  711MOL0     C95870   1.067   4.003  10.154 -0.4019 -0.2457  0.2912
  711MOL0     C95871   1.119   4.048  10.298  0.0267  0.1301 -0.4619
  711MOL0     C95872   1.075   4.183  10.337 -0.2920 -0.3963 -0.6699
  711MOL0     C95873   1.079   4.214  10.491  0.2791  1.5585  0.3276
  711MOL0     O95874   1.070   4.351  10.522  0.6126 -0.6163  0.0708
  711MOL0     C95875   1.056   4.379  10.654 -0.3444 -0.5320 -0.3467
  711MOL0     C95876   1.080   4.288  10.762 -0.0800 -0.3026 -0.0839
  711MOL0     C95877   1.081   4.342  10.895  0.5988 -0.2832  0.2134
  711MOL0     C95878   1.106   4.241  11.008 -0.0916 -0.8018 -0.1256
  711MOL0     C95879   1.042   4.469  10.925 -0.7216  0.0391  0.1323
  711MOL0     C95880   0.992   4.523  11.049  0.7013 -0.3777 -0.2004
  711MOL0     O95881   1.031   4.646  11.071 -0.2323 -0.1180 -0.2321
  711MOL0     C95882   0.984   4.717  11.177 -0.0716 -0.0840 -1.1161
  711MOL0     C95883   0.898   4.833  11.157 -0.2125  0.4329 -0.4887
  711MOL0     C95884   0.877   4.921  11.268  0.1569 -0.5602 -0.1304
  711MOL0     C95885   0.909   4.890  11.405 -0.6256  0.3293  0.4026
  711MOL0     O95886   0.890   4.984  11.508 -0.0136  0.0208  0.4535
  711MOL0     C95887   0.805   5.094  11.493 -1.0059  0.0345  0.0031
  711MOL0     C95888   0.800   5.166  11.630  0.0656  0.2278 -0.8538
  711MOL0     C95889   0.937   5.202  11.677  0.0550 -0.1655 -1.0554
  711MOL0     C95890   0.926   5.277  11.822 -0.8169 -0.3371  0.9030
  711MOL0     C95891   0.889   5.180  11.941  0.9225 -0.0588 -0.9589
  711MOL0     C95892   0.921   5.261  12.070 -0.7529 -0.2865  0.3224
  711MOL0     C95893   0.844   5.397  12.087  0.4691 -0.4128 -0.0451
  711MOL0     C95894   0.857   5.459  12.232  0.1816 -0.3150 -0.7892
  711MOL0    Cl95895   1.030   5.502  12.281  0.0471 -0.0201 -0.3106
  711MOL0     C95896   0.996   4.777  11.412 -0.3038 -0.8322  0.0866
  711MOL0     C95897   1.036   4.701  11.307 -0.3462 -0.1612  0.3083
  711MOL0     O95898   0.914   4.453  11.120 -0.4909  0.3912 -0.1042
  711MOL0     C95899   1.037   4.561  10.815  0.7120  0.4912  0.1882
  711MOL0     C95900   1.047   4.521  10.684  0.1448  0.5422  0.6901
  711MOL0     N95901   1.212   3.805  10.092 -1.1175  0.5055 -0.7592
  711MOL0     N95902   1.196   3.675  10.091  0.7791  0.6741 -0.0321
  711MOL0     C95903   0.562   2.632   9.636 -0.1770 -0.1764  0.8762
  711MOL0     C95904   0.537   2.514   9.566 -0.0793 -0.1550  0.4776
  711MOL0     C95905   0.482   2.074   9.445  0.0891  0.0420  0.8556
  711MOL0     C95906   0.570   1.962   9.435 -0.6102 -0.9614  0.3334
  711MOL0     C95907   0.537   1.854   9.350  0.0719  0.0914 -0.2091
  711MOL0     C95908   0.408   1.848   9.292 -0.0710 -0.0758 -0.0956
  711MOL0     O95909   0.358   1.739   9.233 -0.4365  0.1502  0.2598
  711MOL0     C95910   0.429   1.612   9.228  1.1185  0.3425  0.4427
  711MOL0     C95911   0.333   1.500   9.187  0.1682 -0.6508  0.6067
  711MOL0     C95912   0.197   1.503   9.258 -0.8879 -0.4852  0.6089
  711MOL0     C95913   0.119   1.379   9.202  0.0225 -0.3116  0.2752
  711MOL0     C95914   0.099   1.363   9.052  0.0599 -0.4193 -0.0832
  711MOL0     C95915   0.079   1.336   8.937  0.4046 -0.0085 -0.8194
  711MOL0     C95916   0.320   1.950   9.305  0.6856 -0.9107 -0.1777
  711MOL0     C95917   0.353   2.067   9.378  0.4846 -0.6477 -0.5663
  711MOL0     H95918   0.319   2.361   9.774  0.1914 -1.0475  1.0354
  711MOL0     H95919   0.368   2.562   9.903  0.7362 -1.3749  0.9785
  711MOL0     H95920   0.737   2.807   9.798 -0.5463  0.4879  0.1806
  711MOL0     H95921   0.609   2.912   9.726  0.1319  2.0918  0.9453
  711MOL0     H95922   0.575   3.008   9.963 -0.5788  0.4482  1.6256
  711MOL0     H95923   0.688   2.878  10.014 -2.5084  2.5258  1.8783
  711MOL0     H95924   0.869   2.991   9.906 -0.2939 -0.9877  0.1754
  711MOL0     H95925   0.751   3.122   9.844  1.4295 -0.5490 -0.2778
  711MOL0     H95926   0.681   3.114  10.104  0.3212 -2.2143 -0.0694
  711MOL0     H95927   0.851   3.062  10.119  0.6270 -0.6529 -0.9497
  711MOL0     H95928   0.767   3.316   9.990  0.2089 -0.2855  0.2237
  711MOL0     H95929   0.822   3.302  10.163  0.8075  2.2625  0.1623
  711MOL0     H95930   1.034   3.235  10.119 -0.7987 -0.4988  1.8515
  711MOL0     H95931   1.016   3.226   9.948  1.0688 -1.6815  2.1772
  711MOL0     H95932   1.110   3.402   9.960  0.6690 -3.0549  2.2934
  711MOL0     H95933   0.943   3.461   9.924  2.3699  0.2993 -1.5679
  711MOL0     H95934   1.076   3.468  10.204 -1.3900  0.5009  1.3495
  711MOL0     H95935   0.915   3.514  10.173 -0.0646 -0.5718  0.3458
  711MOL0     H95936   0.883   3.768  10.123  0.1492  3.8457 -1.7664
  711MOL0     H95937   1.119   4.058  10.074 -4.1072  1.3692 -1.2409
  711MOL0     H95938   0.963   4.033  10.140  0.1704  0.5317 -3.5665
  711MOL0     H95939   1.228   4.038  10.292 -0.0139 -2.9180  1.6404
  711MOL0     H95940   1.083   3.982  10.377  1.1260 -1.6515 -1.3826
  711MOL0     H95941   0.973   4.196  10.300 -1.0439 -2.1587  0.6220
  711MOL0     H95942   1.132   4.257  10.279 -0.2843 -0.7543 -1.1221
  711MOL0     H95943   1.178   4.187  10.530  1.0491  1.7206 -1.4015
  711MOL0     H95944   1.006   4.152  10.543  0.6061  1.5601  0.7965
  711MOL0     H95945   1.110   4.185  10.746 -1.1719 -0.3060 -2.5850
  711MOL0     H95946   1.038   4.253  11.093  0.3861 -0.1606  0.1744
  711MOL0     H95947   1.086   4.135  10.987 -0.0799 -0.7663 -0.3129
  711MOL0     H95948   1.212   4.248  11.032 -0.3509  0.7329  0.6860
  711MOL0     H95949   0.868   4.842  11.054  0.5705 -0.2110 -0.7893
  711MOL0     H95950   0.832   5.019  11.260  0.6859 -0.2244  0.8245
  711MOL0     H95951   0.851   5.159  11.419 -0.0147 -0.7798 -0.1132
  711MOL0     H95952   0.706   5.060  11.460 -0.8577  0.1081 -0.5225
  711MOL0     H95953   0.725   5.246  11.629 -2.6762 -2.1121  1.0282
  711MOL0     H95954   0.753   5.091  11.695 -0.8961  1.0166 -0.6042
  711MOL0     H95955   0.979   5.270  11.602 -1.6980 -2.6523 -4.5689
  711MOL0     H95956   0.996   5.110  11.684 -2.2012 -1.6976 -1.0561
  711MOL0     H95957   1.018   5.327  11.856  1.7876 -2.4826 -2.2989
  711MOL0     H95958   0.849   5.351  11.799 -1.8549 -1.9702 -1.1830
  711MOL0     H95959   0.940   5.084  11.946  3.5378  1.2846  0.2693
  711MOL0     H95960   0.782   5.158  11.936  1.5337 -3.9179 -0.2248
  711MOL0     H95961   0.888   5.188  12.144  1.8159 -1.4354  0.4303
  711MOL0     H95962   1.028   5.279  12.086 -0.7542 -0.8174  0.9651
  711MOL0     H95963   0.737   5.381  12.076  0.6099 -1.8858  0.5358
  711MOL0     H95964   0.876   5.472  12.015 -1.0688  1.9328  1.5715
  711MOL0     H95965   0.831   5.378  12.301  1.6511  1.7962  2.4677
  711MOL0     H95966   0.787   5.543  12.241 -2.0574 -1.4365 -5.1097
  711MOL0     H95967   1.039   4.748  11.508 -0.1699 -2.5649 -0.4513
  711MOL0     H95968   1.117   4.635  11.335  0.2817  0.5141  0.1380
  711MOL0     H95969   1.023   4.668  10.823  0.2260  0.6071 -1.6545
  711MOL0     H95970   1.033   4.594  10.604 -2.4241 -0.2726  0.2889
  711MOL0     H95971   0.622   2.701   9.578 -2.2239 -1.2543 -2.8983
  711MOL0     H95972   0.584   2.496   9.470 -1.2191 -0.4155 -0.0428
  711MOL0     H95973   0.671   1.967   9.473  0.1477 -2.7606 -1.2620
  711MOL0     H95974   0.611   1.775   9.341  2.9080  2.3538  1.6960
  711MOL0     H95975   0.510   1.628   9.156  1.8889  3.8491  1.8508
  711MOL0     H95976   0.479   1.588   9.323 -1.3285 -3.1424  1.0069
  711MOL0     H95977   0.368   1.399   9.211 -0.4532 -1.4452 -1.5788
  711MOL0     H95978   0.326   1.518   9.079  2.5352  0.3470  0.5527
  711MOL0     H95979   0.147   1.595   9.227  1.8154  0.8066 -0.2384
  711MOL0     H95980   0.217   1.493   9.365  1.1090 -0.5388  0.2762
  711MOL0     H95981   0.021   1.370   9.251  0.6232 -2.5143  1.2140
  711MOL0     H95982   0.168   1.289   9.241  1.2463  1.2916  2.6541
  711MOL0     H95983   0.058   1.303   8.837 -0.3703 -2.3483  0.0604
  711MOL0     H95984   0.219   1.951   9.266  0.2422 -0.9033  0.9458
  711MOL0     H95985   0.280   2.146   9.390  0.5084 -0.6361 -0.4954
  712MOL0     O95986  10.784  10.402   7.049  0.7957  0.9874 -0.2736
  712MOL0     C95987  10.845  10.487   6.980 -0.7865  0.9774  0.6016
  712MOL0     O95988  10.829  10.507   6.847  0.2497 -0.0270  0.0553
  712MOL0     C95989  10.706  10.478   6.774 -0.5689 -0.6131  0.0233
  712MOL0     C95990  10.697  10.542   6.650  0.6222  0.2922 -0.2339
  712MOL0     C95991  10.589  10.506   6.566  1.0558 -0.7430 -1.1666
  712MOL0     C95992  10.511  10.393   6.588 -0.7445  0.2444 -0.8263
  712MOL0     O95993  10.422  10.346   6.494 -1.1079 -0.3076 -0.2833
  712MOL0     C95994  10.429  10.415   6.361  0.4383  0.2129 -0.0621
  712MOL0     C95995  10.330  10.357   6.259 -0.4844  0.1848  0.6474
  712MOL0     C95996  10.183  10.387   6.281 -0.0900  0.4046 -0.6944
  712MOL0     C95997  10.147  10.541   6.279 -0.2759 -1.1595  0.0866
  712MOL0     C95998   9.997  10.558   6.317  0.2053  0.5680  0.1552
  712MOL0     C95999   9.979  10.708   6.333  0.9034  0.1187 -0.0393
  712MOL0     C96000   9.840  10.758   6.268 -0.4337  0.6185  1.1189
  712MOL0     C96001   9.840  10.784   6.124 -0.0704 -0.9951 -0.2355
  712MOL0     N96002   9.937  10.897   6.103 -0.4875  0.1327  0.2294
  712MOL0     C96003   9.913  11.023   6.144  0.6710  0.2171 -0.5076
  712MOL0     C96004  10.033  11.097   6.137 -0.2322 -0.5701  0.5718
  712MOL0     C96005  10.054  11.243   6.187  0.3347 -0.5647  0.1049
  712MOL0     C96006  10.011  11.363   6.089  0.0331  0.2434 -0.8138
  712MOL0     C96007  10.068  11.339   5.950 -0.0573 -0.0650  0.0925
  712MOL0     C96008  10.030  11.454   5.852  0.1358  0.8703  0.2126
  712MOL0     O96009   9.884  11.465   5.839 -0.0439 -0.0424 -0.0901
  712MOL0     C96010   9.833  11.587   5.811  0.0525  0.4102  1.3397
  712MOL0     C96011   9.697  11.596   5.852  0.6357 -0.3456 -0.1335
  712MOL0     C96012   9.619  11.709   5.828 -0.2388  0.1285 -0.5676
  712MOL0     C96013   9.478  11.701   5.881  0.6724  0.6055 -0.1621
  712MOL0     C96014   9.668  11.817   5.751  1.0813 -1.1007 -0.2121
  712MOL0     C96015   9.598  11.956   5.740 -0.1733  0.1218 -0.1185
  712MOL0     O96016   9.696  12.058   5.752  0.3120  1.3100  0.5252
  712MOL0     C96017   9.655  12.183   5.783  1.1223  0.7858 -0.3736
  712MOL0     C96018   9.757  12.282   5.800  0.1209 -0.0437  0.4195
  712MOL0     C96019   9.739  12.415   5.835  0.7026  0.0482 -0.3156
  712MOL0     C96020   9.612  12.453   5.869  0.1864  0.0058  0.2488
  712MOL0     O96021   9.612  12.587   5.922  0.6731  0.4441 -0.2941
  712MOL0     C96022   9.486  12.666   5.929  0.3880  0.2798  0.3634
  712MOL0     C96023   9.485  12.766   6.057  0.9618 -0.7535  0.6790
  712MOL0     C96024   9.404  12.880   6.026  0.2653  0.0866 -0.2346
  712MOL0     C96025   9.256  12.850   6.019 -0.4490 -0.0434  0.5906
  712MOL0     C96026   9.189  12.985   6.015 -0.2973  0.5325 -0.6496
  712MOL0     C96027   9.045  12.956   5.979  0.2824  0.2043  0.7313
  712MOL0     C96028   8.958  13.076   5.996  0.9308 -0.1459 -0.1569
  712MOL0     C96029   8.802  13.057   5.993  0.8246 -0.0460  0.2772
  712MOL0    Cl96030   8.736  13.095   5.836  0.0413 -0.2095 -0.1903
  712MOL0     C96031   9.502  12.358   5.850  0.9252  0.3071  1.4118
  712MOL0     C96032   9.520  12.221   5.817  0.3000  0.0991 -0.0574
  712MOL0     O96033   9.488  11.968   5.685 -0.5202 -0.3618 -0.0369
  712MOL0     C96034   9.803  11.806   5.707 -0.7734  0.9360 -0.0528
  712MOL0     C96035   9.885  11.696   5.736  0.0480 -0.0610  0.8185
  712MOL0     N96036  10.114  11.012   6.061 -0.4330  0.7942  0.0394
  712MOL0     N96037  10.060  10.893   6.055 -0.4644  0.2397  0.4959
  712MOL0     C96038  10.529  10.327   6.712  0.6829  0.2608 -0.3075
  712MOL0     C96039  10.621  10.369   6.809 -0.6975 -0.1699  1.1925
  712MOL0     C96040  10.958  10.556   7.042  0.5027 -0.2776  0.1660
  712MOL0     C96041  11.046  10.636   6.967  0.3720 -0.8306  0.7978
  712MOL0     C96042  11.148  10.702   7.034 -0.1084  0.8810  0.5308
  712MOL0     C96043  11.178  10.696   7.174 -0.0958  0.1269  0.8554
  712MOL0     O96044  11.288  10.757   7.234 -0.3592 -0.1236  0.2629
  712MOL0     C96045  11.378  10.838   7.144 -0.2036  0.6679 -0.6399
  712MOL0     C96046  11.469  10.741   7.061  0.2354  0.1457  0.2097
  712MOL0     C96047  11.599  10.706   7.140 -0.0331  0.4052 -0.0466
  712MOL0     C96048  11.680  10.591   7.072 -0.3627  0.3356 -0.3430
  712MOL0     C96049  11.670  10.619   6.921 -0.8442  0.3042  0.1668
  712MOL0     C96050  11.674  10.642   6.804 -0.1217  0.1103 -0.1143
  712MOL0     C96051  11.080  10.619   7.243  0.6804 -0.0191 -0.5607
  712MOL0     C96052  10.983  10.543   7.179  0.3834 -0.3820 -0.1851
  712MOL0     H96053  10.773  10.614   6.624  0.6450  0.3265 -0.0736
  712MOL0     H96054  10.589  10.566   6.475 -1.5749 -0.2940 -0.9305
  712MOL0     H96055  10.404  10.522   6.364  0.2414  0.2201 -1.3001
  712MOL0     H96056  10.534  10.406   6.333  1.0549  1.5368  1.6629
  712MOL0     H96057  10.354  10.384   6.155  0.0043 -2.1314  0.0954
  712MOL0     H96058  10.362  10.253   6.258 -0.0505  0.2738  2.3345
  712MOL0     H96059  10.128  10.342   6.197 -0.6175 -0.0558 -0.1111
  712MOL0     H96060  10.159  10.342   6.377 -0.3473 -1.3833 -1.5370
  712MOL0     H96061  10.220  10.594   6.341 -0.0540 -1.8246  0.4050
  712MOL0     H96062  10.150  10.576   6.175 -0.6823 -0.1340  0.4164
  712MOL0     H96063   9.945  10.497   6.243  1.5497 -0.8299  0.3274
  712MOL0     H96064   9.969  10.520   6.415  0.1390  0.1631 -0.0195
  712MOL0     H96065   9.970  10.732   6.439  3.8731 -0.8327  0.5405
  712MOL0     H96066  10.067  10.766   6.305  1.7558 -1.7670 -1.4902
  712MOL0     H96067   9.766  10.681   6.294 -0.7815  0.9031  0.9862
  712MOL0     H96068   9.812  10.850   6.320  2.0661  3.1058 -1.6236
  712MOL0     H96069   9.746  10.801   6.071  0.8753  2.0695 -1.1215
  712MOL0     H96070   9.886  10.692   6.086  1.9576  0.4040 -1.3537
  712MOL0     H96071   9.816  11.053   6.183 -0.0805 -0.8585 -1.4408
  712MOL0     H96072  10.002  11.238   6.282  0.0779  0.6870  0.0445
  712MOL0     H96073  10.159  11.266   6.205  0.5725 -0.0477 -1.6647
  712MOL0     H96074  10.045  11.455   6.137 -0.2163  0.4398 -1.0111
  712MOL0     H96075   9.901  11.366   6.093  0.0758  0.7206  2.1816
  712MOL0     H96076  10.027  11.240   5.928  1.5120 -0.8979  0.7530
  712MOL0     H96077  10.176  11.325   5.937 -0.3556 -0.0861 -3.2120
  712MOL0     H96078  10.075  11.424   5.757  1.1723 -2.3562  1.5815
  712MOL0     H96079  10.076  11.546   5.890 -1.9198  1.9094  0.3240
  712MOL0     H96080   9.657  11.511   5.907  0.2964 -0.9249 -1.2511
  712MOL0     H96081   9.405  11.731   5.806 -0.1980 -3.1515 -1.0212
  712MOL0     H96082   9.456  11.597   5.905  3.5667  0.5747  3.2303
  712MOL0     H96083   9.458  11.777   5.957 -3.4984  0.1383 -0.5599
  712MOL0     H96084   9.860  12.249   5.788 -0.7674 -2.2294 -2.0755
  712MOL0     H96085   9.826  12.480   5.829 -0.0429  0.9384 -4.0949
  712MOL0     H96086   9.486  12.727   5.838  2.8701  1.5779  1.1441
  712MOL0     H96087   9.389  12.617   5.933 -0.9791  2.6376 -1.1935
  712MOL0     H96088   9.452  12.710   6.145  1.2649  0.7766  1.8025
  712MOL0     H96089   9.590  12.795   6.070  0.5913  1.1722 -0.2534
  712MOL0     H96090   9.439  12.926   5.932  1.5978 -0.7572 -0.1845
  712MOL0     H96091   9.425  12.954   6.104 -0.1003 -1.0665  0.9826
  712MOL0     H96092   9.228  12.803   5.925 -1.5216  0.8537  0.4376
  712MOL0     H96093   9.210  12.789   6.098  1.8356  0.3099  2.3166
  712MOL0     H96094   9.238  13.053   5.945 -1.1343 -0.3670 -2.1756
  712MOL0     H96095   9.192  13.032   6.114 -1.5173 -4.4060  2.0920
  712MOL0     H96096   9.032  12.912   5.880  0.4575 -0.0268  0.8099
  712MOL0     H96097   9.002  12.882   6.046  0.6847 -0.1875  0.5598
  712MOL0     H96098   8.984  13.146   5.916 -0.1304 -3.3183 -3.5997
  712MOL0     H96099   8.989  13.118   6.092  0.1357  0.2467 -0.0719
  712MOL0     H96100   8.748  13.121   6.064 -1.9592 -2.8001  0.8864
  712MOL0     H96101   8.775  12.958   6.031  0.8543 -0.0567  0.2711
  712MOL0     H96102   9.403  12.394   5.878  1.8683  1.5481  3.3239
  712MOL0     H96103   9.442  12.146   5.827  1.4974 -1.7343 -2.8975
  712MOL0     H96104   9.856  11.881   5.650  1.9680  2.9575  4.5963
  712MOL0     H96105   9.987  11.703   5.701  0.0637  2.1356  1.1153
  712MOL0     H96106  10.487  10.227   6.718  1.9056 -0.6713 -4.2827
  712MOL0     H96107  10.631  10.304   6.895 -0.1653  0.2110  1.4270
  712MOL0     H96108  11.041  10.642   6.858  2.0239 -0.3641  0.7255
  712MOL0     H96109  11.217  10.747   6.964  1.1487  1.0673  1.8375
  712MOL0     H96110  11.317  10.904   7.083  0.8559  2.7454  0.4564
  712MOL0     H96111  11.437  10.909   7.202 -0.7843  1.5824 -1.1533
  712MOL0     H96112  11.506  10.800   6.977  3.5870 -2.0207 -0.0259
  712MOL0     H96113  11.426  10.648   7.024  0.2203  0.2286  0.0198
  712MOL0     H96114  11.581  10.666   7.240 -2.5158 -2.0419 -1.3144
  712MOL0     H96115  11.662  10.795   7.147 -0.3553  0.7548 -1.3141
  712MOL0     H96116  11.650  10.489   7.096  2.5979 -1.3424 -3.0138
  712MOL0     H96117  11.784  10.590   7.106 -0.3116 -0.0327 -0.5103
  712MOL0     H96118  11.681  10.661   6.698  0.4589 -0.6460 -0.2213
  712MOL0     H96119  11.092  10.619   7.351 -0.7581  0.7500 -0.3704
  712MOL0     H96120  10.917  10.480   7.239 -1.0739 -0.7844 -2.1224
  713MOL0     O96121   1.918   6.242   8.172  0.3788  0.3158  0.6248
  713MOL0     C96122   2.012   6.313   8.147 -0.0270 -0.6669 -0.9311
  713MOL0     O96123   2.148   6.271   8.133  0.3813 -0.2858  0.4168
  713MOL0     C96124   2.171   6.137   8.112 -0.2104  0.3920  0.5463
  713MOL0     C96125   2.269   6.097   8.019 -0.7629  0.5406 -0.6329
  713MOL0     C96126   2.299   5.967   7.988 -0.1322  0.3158 -0.4935
  713MOL0     C96127   2.249   5.869   8.071 -0.1168 -0.2863  0.0308
  713MOL0     O96128   2.287   5.742   8.043  0.4501 -0.4173 -0.1616
  713MOL0     C96129   2.329   5.642   8.140  0.5157  0.6413 -0.1664
  713MOL0     C96130   2.393   5.521   8.074  0.4540  0.0078 -0.0727
  713MOL0     C96131   2.502   5.542   7.973 -0.3177  0.0006  0.7379
  713MOL0     C96132   2.601   5.651   8.004 -0.2871  0.4209 -0.2039
  713MOL0     C96133   2.739   5.602   7.957  0.0613  0.4357  0.3795
  713MOL0     C96134   2.795   5.670   7.829  0.5399  0.2442 -0.4405
  713MOL0     C96135   2.950   5.686   7.839  0.0314  0.7271  0.8235
  713MOL0     C96136   3.011   5.720   7.696  0.7143  0.6857  0.3578
  713MOL0     N96137   3.152   5.700   7.712  0.3202 -0.2566  0.2296
  713MOL0     C96138   3.233   5.764   7.810  0.4715  0.0220 -0.3507
  713MOL0     C96139   3.354   5.715   7.799  0.2336 -0.1395  0.3363
  713MOL0     C96140   3.466   5.760   7.893 -0.0889 -0.0522 -0.4283
  713MOL0     C96141   3.474   5.669   8.008  0.9193 -0.9579 -0.3612
  713MOL0     C96142   3.573   5.708   8.114  0.4227  0.1020  0.3130
  713MOL0     C96143   3.598   5.613   8.231 -0.1941  1.2510 -0.3301
  713MOL0     O96144   3.657   5.490   8.189  0.4699 -0.0362 -0.4960
  713MOL0     C96145   3.727   5.408   8.284 -0.2651  0.2592  0.5529
  713MOL0     C96146   3.805   5.296   8.240  0.3823 -0.4641 -0.2445
  713MOL0     C96147   3.872   5.216   8.340 -0.6595 -0.4832  0.2178
  713MOL0     C96148   3.944   5.095   8.298 -0.0703  0.2974  0.6175
  713MOL0     C96149   3.871   5.245   8.480  0.8924 -0.4159  0.4095
  713MOL0     C96150   3.936   5.171   8.594 -0.2376  0.1532 -0.7268
  713MOL0     O96151   4.015   5.241   8.682 -0.2117  0.6289 -0.1420
  713MOL0     C96152   4.073   5.185   8.793  0.0302 -1.1426 -0.1033
  713MOL0     C96153   4.040   5.240   8.920 -0.1273 -0.5944  0.1706
  713MOL0     C96154   4.111   5.204   9.032  0.1318  0.3061 -0.0387
  713MOL0     C96155   4.204   5.102   9.033 -0.7785 -0.8796  0.6743
  713MOL0     O96156   4.247   5.063   9.155  1.0653 -0.1767  0.4082
  713MOL0     C96157   4.392   5.065   9.174 -0.4297 -1.1998 -0.4506
  713MOL0     C96158   4.441   5.161   9.277  1.2898  0.2165 -0.3274
  713MOL0     C96159   4.434   5.106   9.419 -0.0725 -0.5125  0.1468
  713MOL0     C96160   4.475   5.206   9.518  0.0952  0.2200 -0.1554
  713MOL0     C96161   4.415   5.181   9.664 -0.1393 -0.6252 -0.7545
  713MOL0     C96162   4.476   5.267   9.779 -0.0126  0.0643 -0.1646
  713MOL0     C96163   4.391   5.237   9.912  0.2710 -0.7641  0.0053
  713MOL0     C96164   4.476   5.295  10.023 -0.7952  1.5164 -0.7822
  713MOL0    Cl96165   4.628   5.212  10.068  0.0630 -0.0456 -0.2766
  713MOL0     C96166   4.238   5.049   8.911  0.0203 -0.5370  0.5354
  713MOL0     C96167   4.179   5.089   8.794  0.2462  0.5594  0.6451
  713MOL0     O96168   3.927   5.045   8.601 -0.4610  0.4548 -0.1971
  713MOL0     C96169   3.796   5.363   8.519  0.5212  0.7599  0.4467
  713MOL0     C96170   3.729   5.439   8.422  0.9511  0.9977  0.0135
  713MOL0     N96171   3.357   5.634   7.687 -0.9762  0.5895  0.2508
  713MOL0     N96172   3.239   5.620   7.644 -0.2069 -0.0461  0.0349
  713MOL0     C96173   2.155   5.899   8.172 -0.5385  0.3298 -0.1845
  713MOL0     C96174   2.115   6.030   8.186 -1.1918  0.5280 -0.4125
  713MOL0     C96175   1.993   6.457   8.144  0.7497  0.1333  0.1985
  713MOL0     C96176   1.870   6.514   8.170 -0.9623  0.2141  0.3886
  713MOL0     C96177   1.850   6.656   8.175 -0.4156  0.6178 -0.8743
  713MOL0     C96178   1.953   6.740   8.148  0.2940 -0.2070  0.1221
  713MOL0     O96179   1.932   6.873   8.141  0.1862 -0.0311 -1.0005
  713MOL0     C96180   1.910   6.911   8.008  0.5040 -0.7903 -0.0310
  713MOL0     C96181   1.857   7.065   8.013 -0.3524  0.1116  1.1871
  713MOL0     C96182   1.966   7.167   8.029  0.4704  0.4351 -0.7315
  713MOL0     C96183   1.923   7.303   8.082  0.3668  0.3041 -0.8093
  713MOL0     C96184   2.031   7.397   8.060  0.1304 -0.4721  0.1299
  713MOL0     C96185   2.112   7.482   8.040  0.0000 -0.0404  1.5464
  713MOL0     C96186   2.075   6.685   8.129 -0.5182  1.0524 -0.6878
  713MOL0     C96187   2.101   6.548   8.134  0.8572  0.3265  0.4574
  713MOL0     H96188   2.330   6.171   7.967 -2.2413  1.4549 -1.1102
  713MOL0     H96189   2.372   5.952   7.909 -0.6553  1.1156 -1.1452
  713MOL0     H96190   2.398   5.691   8.209 -0.7079  0.0971  1.5056
  713MOL0     H96191   2.245   5.604   8.199  0.4279 -0.4588 -0.9738
  713MOL0     H96192   2.435   5.467   8.159  0.2678 -1.9252 -1.1481
  713MOL0     H96193   2.315   5.462   8.025  0.8918 -0.8135  0.2180
  713MOL0     H96194   2.545   5.442   7.959 -1.1841  0.0169 -3.5800
  713MOL0     H96195   2.460   5.548   7.872  0.2385 -0.2894  0.4802
  713MOL0     H96196   2.566   5.742   7.953 -1.1391  0.1328 -0.1480
  713MOL0     H96197   2.592   5.673   8.111  2.2272 -2.7344  0.7867
  713MOL0     H96198   2.806   5.636   8.036 -0.3396 -0.4025  1.0903
  713MOL0     H96199   2.745   5.495   7.939 -3.5123  0.4098 -1.6853
  713MOL0     H96200   2.763   5.601   7.749 -1.6308 -3.7793  3.4488
  713MOL0     H96201   2.757   5.771   7.812 -2.5805 -0.1789  2.9288
  713MOL0     H96202   2.973   5.775   7.898 -0.1016  1.3719 -0.0745
  713MOL0     H96203   2.989   5.593   7.881 -0.2636  1.3729  2.6012
  713MOL0     H96204   2.979   5.821   7.667 -1.2961  0.6837  2.3442
  713MOL0     H96205   2.967   5.651   7.624  2.6514  3.0072 -3.4340
  713MOL0     H96206   3.190   5.828   7.886 -0.8298  1.0865 -1.9244
  713MOL0     H96207   3.556   5.757   7.831  0.0055 -0.1136 -0.2903
  713MOL0     H96208   3.453   5.860   7.936 -0.8837  0.3968 -1.6570
  713MOL0     H96209   3.489   5.565   7.976 -0.7098 -1.3121 -0.0658
  713MOL0     H96210   3.379   5.690   8.058  0.7262 -0.1147 -1.0571
  713MOL0     H96211   3.554   5.812   8.141 -1.2942  0.9456 -3.3952
  713MOL0     H96212   3.666   5.711   8.058  1.5267 -0.7701  2.0295
  713MOL0     H96213   3.507   5.601   8.291 -0.7540  3.6128 -0.5952
  713MOL0     H96214   3.675   5.662   8.291  1.1385 -3.2629  2.0411
  713MOL0     H96215   3.807   5.278   8.133 -2.9497  2.3296 -0.9665
  713MOL0     H96216   3.940   5.091   8.189 -2.1479  1.9440  0.5788
  713MOL0     H96217   4.051   5.089   8.323  0.4021  0.4236 -1.2325
  713MOL0     H96218   3.882   5.016   8.341 -0.3044  1.4883  2.6435
  713MOL0     H96219   3.970   5.322   8.929  1.5357  1.0268 -0.8418
  713MOL0     H96220   4.073   5.254   9.120 -1.5101  1.4891 -1.3550
  713MOL0     H96221   4.426   4.965   9.205  0.9181 -1.7110 -3.2115
  713MOL0     H96222   4.449   5.078   9.081 -0.3508  1.3120 -0.1009
  713MOL0     H96223   4.541   5.194   9.247  0.7270  2.1894 -0.2341
  713MOL0     H96224   4.369   5.244   9.277 -1.2389 -1.8647 -0.2089
  713MOL0     H96225   4.489   5.014   9.439 -0.2303 -1.1237 -2.0238
  713MOL0     H96226   4.326   5.091   9.435 -0.4066  1.3221 -0.0877
  713MOL0     H96227   4.585   5.213   9.522  0.2517 -0.2604 -2.4465
  713MOL0     H96228   4.449   5.307   9.484  1.8934  0.5344 -0.7459
  713MOL0     H96229   4.420   5.074   9.687  2.3536 -0.4060 -0.0177
  713MOL0     H96230   4.310   5.206   9.648 -0.1836  1.0058  1.4867
  713MOL0     H96231   4.582   5.241   9.787 -0.7783 -2.6616  3.4638
  713MOL0     H96232   4.460   5.372   9.751 -4.4997  0.2989  2.3808
  713MOL0     H96233   4.373   5.129   9.911 -1.3920 -0.5469 -2.1963
  713MOL0     H96234   4.300   5.296   9.897  1.0927  0.2329 -1.2734
  713MOL0     H96235   4.420   5.299  10.117 -2.1043 -4.0890 -0.9896
  713MOL0     H96236   4.496   5.399   9.996  2.6105  1.4804  0.9990
  713MOL0     H96237   4.304   4.963   8.901 -1.7966 -2.3704  2.8946
  713MOL0     H96238   4.220   5.049   8.701  0.0895  2.5106 -0.3080
  713MOL0     H96239   3.791   5.396   8.622 -3.0208 -1.1796  1.0998
  713MOL0     H96240   3.685   5.532   8.457  1.1755  0.6595  1.2236
  713MOL0     H96241   2.112   5.823   8.236 -0.0669  0.2053 -0.0104
  713MOL0     H96242   2.036   6.052   8.256  1.1740 -1.9760  3.4112
  713MOL0     H96243   1.794   6.436   8.174  0.6872 -1.4647  0.3865
  713MOL0     H96244   1.746   6.680   8.195 -0.3284 -0.6727  1.4903
  713MOL0     H96245   1.999   6.910   7.946 -0.0423  0.6865 -0.8964
  713MOL0     H96246   1.823   6.859   7.966 -1.2087  0.7242  1.4234
  713MOL0     H96247   1.776   7.075   8.085  0.6792  0.7249  2.3038
  713MOL0     H96248   1.818   7.089   7.914 -2.1132  4.6200  2.7075
  713MOL0     H96249   2.008   7.176   7.928 -0.4106  0.0553 -1.1402
  713MOL0     H96250   2.043   7.122   8.092  0.8712  0.0803 -1.4729
  713MOL0     H96251   1.900   7.298   8.189  2.6532  1.4816 -0.2021
  713MOL0     H96252   1.834   7.326   8.022  0.4451 -4.7581 -3.3674
  713MOL0     H96253   2.163   7.572   8.012  2.2406 -1.3945  1.0160
  713MOL0     H96254   2.166   6.745   8.130 -2.5109  4.3044 -0.0711
  713MOL0     H96255   2.201   6.507   8.126  0.6364 -0.1832  0.2924
  714MOL0     O96256   0.750  11.027   2.173 -0.9995  0.2164 -0.2564
  714MOL0     C96257   0.819  10.968   2.250  0.3319  0.0619 -0.4472
  714MOL0     O96258   0.907  10.868   2.211  0.0143 -0.2049 -0.0328
  714MOL0     C96259   0.918  10.823   2.075 -0.1531  0.8400  0.2463
  714MOL0     C96260   0.816  10.745   2.028  0.0751  0.2226 -0.1786
  714MOL0     C96261   0.828  10.699   1.906  0.2425 -0.2094 -0.0223
  714MOL0     C96262   0.927  10.731   1.814  0.2571 -0.3877 -0.1889
  714MOL0     O96263   0.929  10.657   1.697  0.2104 -0.5060  0.0480
  714MOL0     C96264   1.049  10.681   1.613  0.7868  0.0884  0.1102
  714MOL0     C96265   1.000  10.656   1.470  0.4059  0.6379 -0.4267
  714MOL0     C96266   0.931  10.510   1.460  0.3810 -0.0813 -0.7489
  714MOL0     C96267   0.879  10.489   1.317  0.7922  0.8155 -0.1741
  714MOL0     C96268   0.792  10.367   1.306 -0.8980  0.6292 -0.0521
  714MOL0     C96269   0.714  10.351   1.178  0.6918  0.5368 -0.3901
  714MOL0     C96270   0.655  10.215   1.168  0.6048  0.4665  0.6615
  714MOL0     C96271   0.546  10.196   1.268 -0.3648  0.7846  0.4187
  714MOL0     N96272   0.476  10.061   1.240 -0.2362 -0.6207  0.2808
  714MOL0     C96273   0.428  10.015   1.112 -0.4598 -0.5740  0.0388
  714MOL0     C96274   0.347   9.914   1.137 -0.5867  0.6777  0.5472
  714MOL0     C96275   0.271   9.832   1.041  0.0985  0.0061  0.4982
  714MOL0     C96276   0.134   9.806   1.097  0.6104  0.1011  0.1115
  714MOL0     C96277   0.044   9.728   0.999 -0.8657  0.7554 -0.3308
  714MOL0     C96278  -0.004   9.816   0.888 -0.4284  0.2817 -0.3240
  714MOL0     O96279  -0.075   9.744   0.784 -0.1033 -0.0939 -0.0753
  714MOL0     C96280  -0.011   9.725   0.666 -0.4287  0.3200  0.4539
  714MOL0     C96281  -0.005   9.822   0.566  0.4765  0.5621 -0.1013
  714MOL0     C96282   0.074   9.809   0.453  0.2680  0.6681 -0.0264
  714MOL0     C96283   0.093   9.934   0.369  0.1149 -0.7577  0.4562
  714MOL0     C96284   0.142   9.683   0.439  0.2106 -0.0800  0.4456
  714MOL0     C96285   0.234   9.655   0.324  0.6719 -0.1408 -0.0402
  714MOL0     O96286   0.231   9.534   0.263 -0.5271  0.2124  0.0100
  714MOL0     C96287   0.316   9.504   0.165  0.2250  0.6925 -0.0114
  714MOL0     C96288   0.331   9.585   0.055 -0.4342 -0.2535 -0.7312
  714MOL0     C96289   0.436   9.563  -0.040  0.4652  0.2451  0.6244
  714MOL0     C96290   0.527   9.462  -0.016 -0.8315  0.7776 -0.0233
  714MOL0     O96291   0.619   9.448  -0.107  0.5194 -0.1363  0.0452
  714MOL0     C96292   0.727   9.531  -0.094 -0.0565 -0.0295 -0.2695
  714MOL0     C96293   0.826   9.503  -0.206  0.0220 -0.2329 -0.5178
  714MOL0     C96294   0.852   9.353  -0.206 -0.3881  0.2594 -0.4480
  714MOL0     C96295   0.962   9.290  -0.106 -0.6263 -0.5039 -0.3470
  714MOL0     C96296   0.927   9.155  -0.059 -0.9546 -0.0059 -1.2600
  714MOL0     C96297   1.018   9.113   0.063  0.6170 -0.6317  0.2776
  714MOL0     C96298   1.012   8.951   0.088  0.1942 -0.4088 -0.7826
  714MOL0     C96299   0.871   8.896   0.132  0.3783 -0.2181 -0.6585
  714MOL0    Cl96300   0.857   8.924   0.306  0.1930  0.5438 -0.0253
  714MOL0     C96301   0.514   9.386   0.099 -0.1323 -0.1178  0.5198
  714MOL0     C96302   0.406   9.405   0.188 -1.4673 -0.0267  0.5872
  714MOL0     O96303   0.304   9.749   0.295  0.0739  0.0299  0.3474
  714MOL0     C96304   0.135   9.576   0.538 -0.0634 -0.3266  0.9263
  714MOL0     C96305   0.057   9.603   0.651  0.9215 -0.5730 -0.4540
  714MOL0     N96306   0.361   9.883   1.268 -0.6342 -1.1508  0.4931
  714MOL0     N96307   0.434   9.979   1.331 -0.8227  0.0801  0.6023
  714MOL0     C96308   1.025  10.821   1.858 -0.6918 -0.8092 -0.4452
  714MOL0     C96309   1.017  10.874   1.984  0.0613  0.4197  0.1681
  714MOL0     C96310   0.806  11.008   2.403  0.7034  0.6041 -0.2826
  714MOL0     C96311   0.864  10.919   2.500  0.1963  0.6757  0.1533
  714MOL0     C96312   0.868  10.949   2.633 -0.1069  0.0275  0.4403
  714MOL0     C96313   0.803  11.064   2.679  0.5629 -0.5239 -0.1984
  714MOL0     O96314   0.804  11.110   2.808  0.7726  0.0140 -0.4817
  714MOL0     C96315   0.809  11.023   2.916  0.0791  0.6528  0.0440
  714MOL0     C96316   0.695  10.921   2.916 -0.1280  0.7989  0.0502
  714MOL0     C96317   0.572  10.983   2.975 -0.0257 -0.3874 -0.5364
  714MOL0     C96318   0.444  10.891   2.981  0.7768  0.6555 -0.2057
  714MOL0     C96319   0.486  10.765   3.029 -0.7559  0.3468 -1.0521
  714MOL0     C96320   0.515  10.658   3.056 -0.2217  0.4585  0.0767
  714MOL0     C96321   0.756  11.159   2.582  0.1521  0.4846  0.5274
  714MOL0     C96322   0.755  11.128   2.448 -0.8197 -0.1515  0.4800
  714MOL0     H96323   0.729  10.717   2.087  0.3335 -0.9824 -0.3492
  714MOL0     H96324   0.754  10.631   1.864 -0.5634 -0.7708  2.1546
  714MOL0     H96325   1.081  10.786   1.616 -0.3012  0.4707  4.3763
  714MOL0     H96326   1.136  10.621   1.643  1.2783  2.0949  3.0535
  714MOL0     H96327   0.926  10.729   1.436 -2.8808 -1.3706  1.8668
  714MOL0     H96328   1.085  10.666   1.401  1.2537  1.4914  0.6960
  714MOL0     H96329   0.994  10.424   1.486  2.1345  0.2791 -3.4013
  714MOL0     H96330   0.837  10.506   1.515  1.1180 -1.1615  0.5125
  714MOL0     H96331   0.819  10.578   1.296 -0.2464 -0.4257 -2.8666
  714MOL0     H96332   0.971  10.493   1.257  1.6581 -0.1022  1.0281
  714MOL0     H96333   0.861  10.285   1.330  0.8379  2.5645  1.9177
  714MOL0     H96334   0.723  10.374   1.391  1.3514 -1.1459  2.0526
  714MOL0     H96335   0.625  10.414   1.171 -1.7398 -2.7771 -2.7909
  714MOL0     H96336   0.783  10.366   1.094  0.6043 -1.5938 -0.8969
  714MOL0     H96337   0.625  10.201   1.064  0.5364 -0.7200  0.8259
  714MOL0     H96338   0.731  10.138   1.183 -1.5359 -1.9380 -0.2571
  714MOL0     H96339   0.473  10.272   1.241 -2.2902 -0.9998  0.3327
  714MOL0     H96340   0.589  10.210   1.368  1.0718  1.6963 -0.3059
  714MOL0     H96341   0.444  10.058   1.013  0.0106 -0.1696  0.2880
  714MOL0     H96342   0.268   9.899   0.955  3.4953  0.5299  0.6687
  714MOL0     H96343   0.315   9.736   1.013 -0.1743  0.2665 -0.8473
  714MOL0     H96344   0.088   9.903   1.118  0.3691  0.0771 -0.3080
  714MOL0     H96345   0.132   9.744   1.188  1.5255 -1.4930 -0.9026
  714MOL0     H96346  -0.040   9.691   1.059 -1.1707 -0.3744 -1.4029
  714MOL0     H96347   0.103   9.644   0.961 -5.2514 -3.1928  0.6307
  714MOL0     H96348   0.075   9.887   0.862 -0.8447  0.4258 -1.2665
  714MOL0     H96349  -0.072   9.888   0.935 -2.0782  0.4647 -2.7569
  714MOL0     H96350  -0.063   9.913   0.573 -2.7813 -1.2334 -1.4065
  714MOL0     H96351   0.070   9.914   0.264 -3.1347 -0.5567  1.0205
  714MOL0     H96352   0.026  10.019   0.388  2.4475  0.6783  3.0004
  714MOL0     H96353   0.195   9.969   0.384 -0.2529  1.0038 -0.8875
  714MOL0     H96354   0.259   9.665   0.047 -0.0611  0.3923  1.6257
  714MOL0     H96355   0.441   9.623  -0.129 -3.5967  0.4960  0.3610
  714MOL0     H96356   0.694   9.636  -0.089  2.1315  0.6521  1.7962
  714MOL0     H96357   0.782   9.507  -0.003 -0.9959  0.5531  0.4763
  714MOL0     H96358   0.793   9.543  -0.303  2.1653  1.2863 -0.6895
  714MOL0     H96359   0.917   9.560  -0.185 -0.2430  0.0889 -0.2366
  714MOL0     H96360   0.892   9.326  -0.304  4.3599  1.4743  0.9418
  714MOL0     H96361   0.756   9.299  -0.213 -0.8152  0.8555  0.5562
  714MOL0     H96362   1.049   9.272  -0.170 -1.0681 -1.5375 -0.6737
  714MOL0     H96363   0.999   9.360  -0.030  1.3271  0.5769 -2.1972
  714MOL0     H96364   0.942   9.076  -0.133 -1.3038 -1.7137  0.4361
  714MOL0     H96365   0.820   9.160  -0.037 -0.2543  0.6925  2.8003
  714MOL0     H96366   1.122   9.145   0.053  1.0920 -2.1753  0.0228
  714MOL0     H96367   0.976   9.160   0.153  1.8248  3.0956 -0.8949
  714MOL0     H96368   1.068   8.921   0.177 -1.6524 -2.2655 -0.1744
  714MOL0     H96369   1.048   8.904  -0.004 -0.6887  0.3422 -1.5448
  714MOL0     H96370   0.861   8.788   0.118 -0.9320 -0.9466  4.0929
  714MOL0     H96371   0.789   8.948   0.083  2.6515  3.2912 -1.0861
  714MOL0     H96372   0.591   9.310   0.111 -1.6954 -1.9932 -0.5984
  714MOL0     H96373   0.408   9.333   0.269  0.8159 -2.2296 -1.2757
  714MOL0     H96374   0.175   9.475   0.529 -2.6071 -1.3790  0.5317
  714MOL0     H96375   0.063   9.552   0.746 -0.6776 -1.8397 -0.9834
  714MOL0     H96376   1.112  10.850   1.801 -0.1835 -0.5108  0.4628
  714MOL0     H96377   1.083  10.952   2.019  2.5030 -1.8668  0.9988
  714MOL0     H96378   0.905  10.823   2.472 -2.3864 -0.3083 -0.4790
  714MOL0     H96379   0.929  10.880   2.691  0.3865  1.6158  1.9034
  714MOL0     H96380   0.902  10.967   2.930  0.5191  1.1648 -0.7583
  714MOL0     H96381   0.798  11.082   3.007 -0.2738 -3.0721  2.6364
  714MOL0     H96382   0.724  10.827   2.965 -2.4674  0.4557  0.9395
  714MOL0     H96383   0.664  10.884   2.818  0.8488 -2.0820  0.7270
  714MOL0     H96384   0.550  11.063   2.904  2.4704  0.0800 -0.8588
  714MOL0     H96385   0.593  11.026   3.074 -3.2429 -1.8768  0.9398
  714MOL0     H96386   0.403  10.894   2.879  0.1914  0.1629  0.0111
  714MOL0     H96387   0.363  10.936   3.039 -0.0955 -2.5191  1.2786
  714MOL0     H96388   0.523  10.555   3.084 -2.2097  0.4487  0.8197
  714MOL0     H96389   0.727  11.260   2.610  1.4886  0.4281  2.2953
  714MOL0     H96390   0.711  11.191   2.371 -0.3832 -1.1988 -0.6646
  715MOL0     O96391   4.146   6.816   3.052 -0.1981  0.5130 -0.0842
  715MOL0     C96392   4.224   6.851   2.959 -0.4948 -0.0660 -0.1545
  715MOL0     O96393   4.228   6.972   2.896 -0.2252  0.3908  0.1771
  715MOL0     C96394   4.153   7.076   2.958  0.2411 -0.5942  0.1627
  715MOL0     C96395   4.214   7.197   2.993 -0.4478  1.1397 -0.1707
  715MOL0     C96396   4.146   7.300   3.049 -0.7902 -0.4390 -0.0734
  715MOL0     C96397   4.022   7.276   3.107  0.0768 -0.5058 -0.8977
  715MOL0     O96398   3.968   7.372   3.199  0.4712  0.6558  1.0063
  715MOL0     C96399   3.891   7.327   3.314  0.6694  0.2487  1.1004
  715MOL0     C96400   3.931   7.414   3.439 -0.9754  0.1777  0.5738
  715MOL0     C96401   3.862   7.555   3.420  0.0844  0.8123  0.7932
  715MOL0     C96402   3.909   7.654   3.525 -0.0671 -0.0330  0.2070
  715MOL0     C96403   3.821   7.786   3.519  0.5709 -0.4681 -0.1652
  715MOL0     C96404   3.875   7.893   3.611 -0.4679 -0.0960  0.9060
  715MOL0     C96405   3.835   7.882   3.767  0.1484  0.0245 -0.4905
  715MOL0     C96406   3.870   7.992   3.866  0.0920 -0.4571  0.0439
  715MOL0     N96407   3.872   7.946   4.006 -0.8196 -0.1847 -0.2643
  715MOL0     C96408   3.974   7.915   4.095 -0.4517  0.6144  0.9243
  715MOL0     C96409   3.922   7.877   4.212 -0.5542  0.4286  0.5926
  715MOL0     C96410   3.975   7.825   4.337 -0.1303  0.3738 -0.4793
  715MOL0     C96411   4.015   7.944   4.436 -0.2436 -0.4158  0.3112
  715MOL0     C96412   4.060   7.892   4.573 -0.2887 -0.3915 -0.9501
  715MOL0     C96413   4.094   8.011   4.667  0.0148 -0.1096 -1.2642
  715MOL0     O96414   3.973   8.069   4.723 -0.4916 -0.7199  0.2741
  715MOL0     C96415   3.991   8.172   4.817 -0.2021 -0.9128 -0.5540
  715MOL0     C96416   3.881   8.254   4.833  0.5086  0.8184  0.6703
  715MOL0     C96417   3.868   8.332   4.945  0.6472  0.5971 -0.2938
  715MOL0     C96418   3.732   8.400   4.962  0.1995  0.5157 -0.5108
  715MOL0     C96419   3.976   8.348   5.035  0.2642  0.5656  0.0231
  715MOL0     C96420   3.986   8.442   5.149 -0.2074 -0.5887 -0.1204
  715MOL0     O96421   3.901   8.556   5.143 -0.1474  0.5308  1.0657
  715MOL0     C96422   3.911   8.667   5.223  0.3214 -0.5329  0.4080
  715MOL0     C96423   4.025   8.724   5.289  0.6258  0.9282 -0.3535
  715MOL0     C96424   4.005   8.841   5.363 -0.0346  0.2703 -0.8033
  715MOL0     C96425   3.872   8.886   5.387 -0.5134 -0.8330 -0.5885
  715MOL0     O96426   3.845   8.992   5.463  0.0222 -0.4102  0.5434
  715MOL0     C96427   3.938   9.036   5.555  0.2935 -0.0105 -0.3826
  715MOL0     C96428   3.884   9.171   5.611  0.6307  0.0733 -0.1694
  715MOL0     C96429   3.982   9.224   5.712 -0.2363  0.0562 -0.3824
  715MOL0     C96430   4.001   9.120   5.822  0.0157 -0.5246 -0.6351
  715MOL0     C96431   4.057   9.180   5.947  1.0118 -0.1138  0.4661
  715MOL0     C96432   4.205   9.209   5.960 -0.5773 -0.2623 -1.0921
  715MOL0     C96433   4.222   9.304   6.078 -0.1716  0.0382  0.4334
  715MOL0     C96434   4.372   9.344   6.091  0.1755  0.4122 -0.1902
  715MOL0    Cl96435   4.479   9.207   6.097 -0.1175  0.5441  0.6312
  715MOL0     C96436   3.762   8.828   5.329  0.3190 -0.6041 -0.5637
  715MOL0     C96437   3.780   8.721   5.242  0.0885 -0.2163 -0.3541
  715MOL0     O96438   4.062   8.418   5.247 -0.2575 -0.3673 -0.7199
  715MOL0     C96439   4.090   8.275   5.010 -0.1400 -0.4170 -0.6061
  715MOL0     C96440   4.100   8.181   4.903 -0.5010 -0.4894  0.0324
  715MOL0     N96441   3.786   7.894   4.197  0.9131  0.1575 -0.8941
  715MOL0     N96442   3.764   7.949   4.081  0.1668 -0.6091 -0.2921
  715MOL0     C96443   3.958   7.160   3.079 -0.1120 -0.3154 -0.2870
  715MOL0     C96444   4.021   7.062   3.002 -0.5469 -0.2210  0.6736
  715MOL0     C96445   4.316   6.744   2.905 -0.0336 -0.6185  0.4789
  715MOL0     C96446   4.315   6.616   2.960 -0.4869  0.3201 -0.8022
  715MOL0     C96447   4.400   6.524   2.906  0.3890  1.1128  0.3319
  715MOL0     C96448   4.512   6.558   2.825 -0.1163 -0.0328  0.6898
  715MOL0     O96449   4.588   6.449   2.782 -0.1980  0.1566  0.4039
  715MOL0     C96450   4.722   6.472   2.740  0.5396 -0.1765 -1.1120
  715MOL0     C96451   4.813   6.353   2.777 -0.5584 -0.7410  0.4716
  715MOL0     C96452   4.824   6.328   2.931 -0.8660 -0.4159  0.3253
  715MOL0     C96453   4.907   6.197   2.956 -0.0692 -0.1340 -0.0290
  715MOL0     C96454   4.907   6.159   3.094  0.5236 -0.4213 -0.6004
  715MOL0     C96455   4.894   6.121   3.213  0.4831  0.3560  0.7818
  715MOL0     C96456   4.521   6.681   2.767  0.0240  0.8914  0.4284
  715MOL0     C96457   4.422   6.776   2.814  0.0936  0.7921  0.0740
  715MOL0     H96458   4.310   7.203   2.943 -0.9846 -4.1883 -2.4767
  715MOL0     H96459   4.187   7.401   3.049 -0.8860 -0.3856  0.9094
  715MOL0     H96460   3.783   7.340   3.309  0.5304 -0.1118  2.5661
  715MOL0     H96461   3.895   7.220   3.337  3.2354  0.1306  0.4540
  715MOL0     H96462   3.896   7.366   3.531 -1.4899  0.1004  0.3409
  715MOL0     H96463   4.040   7.420   3.443 -0.8912 -0.1868 -0.6734
  715MOL0     H96464   3.871   7.590   3.317 -2.1559 -0.4224  0.1193
  715MOL0     H96465   3.754   7.545   3.425  0.1454  0.4601  1.7324
  715MOL0     H96466   3.896   7.619   3.628 -2.7261  1.4024  0.4586
  715MOL0     H96467   4.014   7.666   3.497  0.1544  3.1113  1.8897
  715MOL0     H96468   3.829   7.819   3.415 -0.8198 -3.1827 -1.2277
  715MOL0     H96469   3.715   7.766   3.540  0.8383 -0.1300  1.6758
  715MOL0     H96470   3.981   7.907   3.587 -0.6967  2.2618  1.0252
  715MOL0     H96471   3.833   7.992   3.589 -1.1136  0.0168  2.5211
  715MOL0     H96472   3.727   7.871   3.775  0.3034 -1.8407 -0.5781
  715MOL0     H96473   3.878   7.788   3.803  1.7902  0.3164 -1.5528
  715MOL0     H96474   3.800   8.074   3.845  1.9802  0.4355 -3.6503
  715MOL0     H96475   3.965   8.038   3.836 -0.0359 -1.2764 -1.6948
  715MOL0     H96476   4.079   7.917   4.066 -1.3097  3.7987 -2.9742
  715MOL0     H96477   3.906   7.758   4.388  2.7951 -2.8327 -0.3837
  715MOL0     H96478   4.059   7.755   4.330  1.3852  1.8799  1.4386
  715MOL0     H96479   3.932   8.015   4.440 -0.5405 -0.7270 -0.2027
  715MOL0     H96480   4.095   8.011   4.401  0.7015 -1.8216 -0.3615
  715MOL0     H96481   4.151   7.833   4.561  0.2465  0.4719 -1.2452
  715MOL0     H96482   3.988   7.830   4.628  0.5853  0.6387  1.5264
  715MOL0     H96483   4.158   8.075   4.605 -0.7108  0.1887 -1.7312
  715MOL0     H96484   4.146   7.978   4.757 -1.4169  2.2300  0.5565
  715MOL0     H96485   3.807   8.257   4.753  2.7472 -1.2813 -1.6699
  715MOL0     H96486   3.695   8.390   5.064  1.7603 -0.3877  0.0048
  715MOL0     H96487   3.735   8.508   4.942  1.4136  0.4320 -0.8685
  715MOL0     H96488   3.661   8.356   4.892  0.4121  0.1298 -0.4853
  715MOL0     H96489   4.118   8.669   5.276  0.5661  0.7257  0.0780
  715MOL0     H96490   4.086   8.879   5.423 -1.3489 -0.3434  1.4963
  715MOL0     H96491   3.949   8.961   5.634 -1.9289  1.8355  1.8445
  715MOL0     H96492   4.039   9.054   5.517  0.1679  1.0617 -0.2553
  715MOL0     H96493   3.874   9.249   5.535 -0.4045  1.1751  1.0445
  715MOL0     H96494   3.784   9.156   5.654 -0.1731 -1.1004 -2.3081
  715MOL0     H96495   3.931   9.309   5.760 -1.8517 -1.2217  0.2425
  715MOL0     H96496   4.080   9.251   5.672  0.1594  3.0563  2.1731
  715MOL0     H96497   3.920   9.054   5.853 -0.1399 -0.0872 -0.0887
  715MOL0     H96498   4.081   9.055   5.783  1.6645  1.3215 -0.5095
  715MOL0     H96499   4.026   9.111   6.026  2.7614 -0.6418  0.7446
  715MOL0     H96500   4.002   9.273   5.960  0.6865 -0.3360  0.6694
  715MOL0     H96501   4.263   9.118   5.981 -2.4956 -1.7083 -1.8042
  715MOL0     H96502   4.240   9.251   5.866 -2.2831 -1.1194 -2.1653
  715MOL0     H96503   4.189   9.258   6.173 -0.7619  2.1375  1.3056
  715MOL0     H96504   4.172   9.400   6.061 -0.0630  0.1931  0.9473
  715MOL0     H96505   4.385   9.415   6.173  1.0909  0.4194 -0.3270
  715MOL0     H96506   4.405   9.402   6.004  1.2804 -0.6462 -0.5014
  715MOL0     H96507   3.670   8.881   5.351  2.3111  2.5330  0.8540
  715MOL0     H96508   3.698   8.669   5.193  0.7881 -0.8069 -0.9093
  715MOL0     H96509   4.179   8.293   5.068 -0.2745 -1.5986  0.0014
  715MOL0     H96510   4.197   8.134   4.893  0.7966  2.2628 -1.6604
  715MOL0     H96511   3.864   7.130   3.125  0.4807 -1.9489 -0.0495
  715MOL0     H96512   3.976   6.966   2.980  1.4913 -0.6191 -2.2897
  715MOL0     H96513   4.246   6.592   3.040  1.3454  0.7878  0.9965
  715MOL0     H96514   4.400   6.426   2.953 -4.3866  1.0558  0.7307
  715MOL0     H96515   4.708   6.475   2.631  0.2124  3.4804 -1.0938
  715MOL0     H96516   4.755   6.570   2.773 -0.6487 -0.5836  1.5430
  715MOL0     H96517   4.915   6.380   2.750 -1.7115  3.6314 -0.3013
  715MOL0     H96518   4.788   6.259   2.726  0.8896 -0.2949 -1.1365
  715MOL0     H96519   4.723   6.321   2.973 -0.6943 -1.6926  0.5596
  715MOL0     H96520   4.880   6.413   2.972 -0.8156  1.0291 -2.4982
  715MOL0     H96521   5.012   6.195   2.925 -0.6890  2.0729 -2.6237
  715MOL0     H96522   4.854   6.121   2.897 -1.9074  0.3562  0.8908
  715MOL0     H96523   4.890   6.081   3.312  3.3647 -3.4689 -0.4044
  715MOL0     H96524   4.597   6.690   2.690 -3.0029 -1.4331 -3.1870
  715MOL0     H96525   4.418   6.878   2.776 -1.7297  0.5378 -0.5147
  716MOL0     O96526   7.414  11.188   5.302  0.2788  0.8193  0.4357
  716MOL0     C96527   7.304  11.219   5.341 -0.2931 -0.3509 -0.7860
  716MOL0     O96528   7.257  11.354   5.336  0.6479  0.0212 -0.3849
  716MOL0     C96529   7.356  11.449   5.323  0.5096  0.1331  0.0061
  716MOL0     C96530   7.399  11.518   5.447 -0.4242 -0.1808 -0.0917
  716MOL0     C96531   7.504  11.611   5.448 -0.5637 -0.0919  0.0602
  716MOL0     C96532   7.564  11.635   5.325 -0.2611  0.0443 -0.3921
  716MOL0     O96533   7.686  11.707   5.323 -0.0179 -0.0848 -0.4128
  716MOL0     C96534   7.702  11.819   5.422  0.0388  0.5513  0.7026
  716MOL0     C96535   7.810  11.911   5.361  1.0157  0.3510 -0.8707
  716MOL0     C96536   7.947  11.855   5.374  0.1229  0.5074 -0.7371
  716MOL0     C96537   8.040  11.949   5.282  0.0027  0.2517 -0.3944
  716MOL0     C96538   8.177  11.896   5.266 -0.0478 -0.7764 -0.3446
  716MOL0     C96539   8.243  11.938   5.137 -0.2321 -0.1272  0.1863
  716MOL0     C96540   8.394  11.919   5.148 -0.4424 -0.5576 -0.9923
  716MOL0     C96541   8.479  11.964   5.025 -0.6024 -0.3538  0.5112
  716MOL0     N96542   8.479  11.843   4.945 -0.5439 -0.6205  0.4959
  716MOL0     C96543   8.390  11.811   4.850 -0.1158  0.0375  0.0237
  716MOL0     C96544   8.426  11.681   4.811 -0.8485 -0.6306 -0.5122
  716MOL0     C96545   8.354  11.601   4.712 -0.1653 -0.6944  0.0825
  716MOL0     C96546   8.254  11.513   4.778  0.0137 -0.0027 -0.3812
  716MOL0     C96547   8.193  11.411   4.680 -1.2157 -0.2949 -0.0344
  716MOL0     C96548   8.099  11.492   4.591  0.3125  0.2617  0.3610
  716MOL0     O96549   7.995  11.560   4.667 -0.9663  0.5578  0.6766
  716MOL0     C96550   7.863  11.550   4.633 -0.3874  0.0102 -0.2269
  716MOL0     C96551   7.770  11.486   4.725 -0.1717 -0.4092 -0.5366
  716MOL0     C96552   7.638  11.470   4.696 -0.0835  0.3706 -0.5664
  716MOL0     C96553   7.556  11.409   4.799 -0.0334 -0.6328 -0.0961
  716MOL0     C96554   7.584  11.525   4.573 -0.7162 -0.5542 -0.8068
  716MOL0     C96555   7.445  11.530   4.528  0.3922  0.1428  0.3931
  716MOL0     O96556   7.414  11.624   4.445  0.8325 -0.0204  0.3237
  716MOL0     C96557   7.319  11.595   4.347  0.5850  0.3317  0.8163
  716MOL0     C96558   7.184  11.593   4.381 -0.2930 -0.1981 -0.6271
  716MOL0     C96559   7.084  11.550   4.303  0.4016  0.2440 -0.1726
  716MOL0     C96560   7.113  11.510   4.168  0.4666  0.1185  0.2559
  716MOL0     O96561   7.024  11.453   4.079  0.9763  0.6047 -0.8198
  716MOL0     C96562   6.883  11.441   4.125 -1.1811  0.1574  0.1750
  716MOL0     C96563   6.811  11.351   4.022 -0.2915 -0.6869 -0.3948
  716MOL0     C96564   6.680  11.317   4.084  0.7858 -0.4651  0.6940
  716MOL0     C96565   6.600  11.220   3.995  0.2454 -0.0380 -0.2477
  716MOL0     C96566   6.489  11.159   4.081 -0.9644  0.3348  0.0301
  716MOL0     C96567   6.370  11.254   4.115 -0.0854 -0.4809  0.7739
  716MOL0     C96568   6.257  11.193   4.192 -0.3567  1.3364 -0.4251
  716MOL0     C96569   6.111  11.206   4.131  0.1605  0.9662  0.1156
  716MOL0    Cl96570   6.096  11.184   3.956 -0.2555  0.3237  0.0136
  716MOL0     C96571   7.251  11.512   4.129  1.1981 -0.5056  0.2261
  716MOL0     C96572   7.350  11.548   4.218  0.1878  0.6460  0.2455
  716MOL0     O96573   7.372  11.440   4.568 -0.0115 -0.2874  0.4634
  716MOL0     C96574   7.687  11.582   4.485  0.8116  0.0443  0.7423
  716MOL0     C96575   7.821  11.593   4.509  0.4170 -0.8046 -0.4643
  716MOL0     N96576   8.541  11.641   4.873 -0.3661 -0.2835  0.2663
  716MOL0     N96577   8.570  11.737   4.953  0.8480 -0.0460  0.3834
  716MOL0     C96578   7.521  11.565   5.217  0.4280 -0.1615  0.1000
  716MOL0     C96579   7.412  11.484   5.208  0.3960 -0.6516 -0.4156
  716MOL0     C96580   7.207  11.113   5.390  0.2283 -0.2260 -0.1766
  716MOL0     C96581   7.078  11.157   5.419  0.5491 -0.4313  0.0134
  716MOL0     C96582   6.983  11.065   5.463  0.4516  0.1512 -0.2227
  716MOL0     C96583   7.019  10.930   5.473 -0.5881 -0.1975  0.3469
  716MOL0     O96584   6.929  10.845   5.519  0.2426  1.1665 -0.4747
  716MOL0     C96585   6.894  10.734   5.442 -0.0972  0.6988 -0.0413
  716MOL0     C96586   6.742  10.734   5.439 -0.1213 -0.1665 -0.1767
  716MOL0     C96587   6.682  10.687   5.571  0.3722  0.9095  0.6179
  716MOL0     C96588   6.535  10.706   5.557  0.2571 -0.2829 -0.0215
  716MOL0     C96589   6.466  10.665   5.673 -0.0249 -0.0496  0.2911
  716MOL0     C96590   6.414  10.630   5.773  0.4629  0.5167 -0.2038
  716MOL0     C96591   7.149  10.893   5.452  0.4324  0.6483 -0.2427
  716MOL0     C96592   7.253  10.982   5.419  0.4437 -0.2784  0.1299
  716MOL0     H96593   7.349  11.509   5.543  0.6646 -0.8106  0.4279
  716MOL0     H96594   7.536  11.658   5.540 -2.0358  1.6266 -0.2586
  716MOL0     H96595   7.610  11.875   5.444 -0.4495  0.0924 -0.1186
  716MOL0     H96596   7.737  11.779   5.517  3.5473  0.9279 -0.3128
  716MOL0     H96597   7.778  11.921   5.257 -0.9717  0.4416 -0.2913
  716MOL0     H96598   7.805  12.006   5.415  0.9819  0.6164 -1.3365
  716MOL0     H96599   7.992  11.864   5.473  0.7124  1.9991 -1.1036
  716MOL0     H96600   7.946  11.754   5.334 -3.4951  0.1673 -0.1541
  716MOL0     H96601   7.999  11.970   5.182 -1.1529  2.6239  0.4963
  716MOL0     H96602   8.053  12.052   5.315 -0.2216  0.3865 -0.7125
  716MOL0     H96603   8.242  11.928   5.347  0.3106 -0.2663 -0.8298
  716MOL0     H96604   8.195  11.788   5.264  1.4624 -0.5444 -1.0477
  716MOL0     H96605   8.204  11.891   5.046  0.3347  0.1511 -0.2078
  716MOL0     H96606   8.223  12.043   5.115 -0.1273 -0.2959 -0.7537
  716MOL0     H96607   8.415  11.997   5.222 -4.2715  1.1447 -1.4730
  716MOL0     H96608   8.419  11.824   5.196  2.1438  0.8533  0.7169
  716MOL0     H96609   8.575  11.990   5.070 -1.3084 -0.9330  2.4795
  716MOL0     H96610   8.437  12.052   4.974 -2.7046 -0.4064  2.0170
  716MOL0     H96611   8.295  11.860   4.830  0.3270  0.4113 -1.2638
  716MOL0     H96612   8.311  11.668   4.637  2.6185 -0.1820 -1.1901
  716MOL0     H96613   8.427  11.548   4.651 -1.6465 -0.6322 -1.8388
  716MOL0     H96614   8.172  11.567   4.826 -1.3029 -0.2740 -2.2519
  716MOL0     H96615   8.295  11.458   4.864 -1.1428  0.1815  0.3096
  716MOL0     H96616   8.137  11.339   4.740 -0.4402  0.2506  1.3951
  716MOL0     H96617   8.264  11.354   4.620 -1.2254  0.4696 -0.7942
  716MOL0     H96618   8.066  11.433   4.505 -1.0396  1.2370  0.1718
  716MOL0     H96619   8.159  11.566   4.536  2.3406  1.6315  4.0721
  716MOL0     H96620   7.809  11.460   4.823  0.0963  2.1819  0.1439
  716MOL0     H96621   7.506  11.328   4.745 -0.5638  0.8434 -1.9080
  716MOL0     H96622   7.606  11.363   4.885  0.4946  0.2070  0.0535
  716MOL0     H96623   7.489  11.490   4.827  1.5547  0.8379 -0.3769
  716MOL0     H96624   7.153  11.613   4.483 -0.1923 -3.6558  0.2170
  716MOL0     H96625   6.984  11.537   4.343 -0.3900 -0.6454 -2.2968
  716MOL0     H96626   6.879  11.390   4.222  1.2832  1.7468  1.2045
  716MOL0     H96627   6.827  11.535   4.123 -0.5964  0.5346  1.1180
  716MOL0     H96628   6.778  11.385   3.924 -0.3108  2.1201  0.4894
  716MOL0     H96629   6.871  11.261   4.005 -0.3040 -0.4000 -2.1028
  716MOL0     H96630   6.617  11.403   4.105 -0.1305 -0.5475 -1.4441
  716MOL0     H96631   6.697  11.259   4.175 -2.3688 -1.0973  0.9942
  716MOL0     H96632   6.563  11.280   3.911  4.0134  3.5016  0.2725
  716MOL0     H96633   6.670  11.143   3.962  3.4293  3.0305 -1.3123
  716MOL0     H96634   6.543  11.137   4.174 -0.1987  0.2892 -0.4172
  716MOL0     H96635   6.465  11.065   4.030  0.1603  1.8100 -3.4824
  716MOL0     H96636   6.416  11.326   4.183  3.2404  0.9019 -2.6363
  716MOL0     H96637   6.334  11.303   4.024  5.2156 -1.2024 -2.0729
  716MOL0     H96638   6.251  11.224   4.297  2.2762 -1.6171  0.7789
  716MOL0     H96639   6.267  11.084   4.192  0.3448  1.3961  0.0132
  716MOL0     H96640   6.063  11.303   4.148  0.6982  0.6489  4.6303
  716MOL0     H96641   6.044  11.124   4.160 -0.2493  0.8771 -1.0347
  716MOL0     H96642   7.275  11.493   4.025  0.2750  2.1668 -0.5718
  716MOL0     H96643   7.453  11.536   4.185 -0.5999 -1.6413 -1.6901
  716MOL0     H96644   7.648  11.622   4.392  0.5480 -1.0249  0.3781
  716MOL0     H96645   7.888  11.650   4.446 -2.3177  2.1579 -0.9644
  716MOL0     H96646   7.582  11.584   5.129  1.2686  2.4360  1.1336
  716MOL0     H96647   7.376  11.445   5.114  2.2159 -2.8608 -0.3094
  716MOL0     H96648   7.047  11.259   5.400 -1.2112 -0.8580  0.4183
  716MOL0     H96649   6.884  11.086   5.501  0.3773  1.5359 -1.0906
  716MOL0     H96650   6.946  10.743   5.346  2.2485 -4.9263  0.3415
  716MOL0     H96651   6.929  10.643   5.491  0.8805  0.6971 -0.6998
  716MOL0     H96652   6.696  10.677   5.358  1.8434 -0.1081 -1.4068
  716MOL0     H96653   6.708  10.836   5.421 -0.3585  0.1839  2.0845
  716MOL0     H96654   6.718  10.736   5.661  0.4140  1.4366  0.3180
  716MOL0     H96655   6.708  10.581   5.579 -0.1854  0.6473 -0.8186
  716MOL0     H96656   6.482  10.661   5.473 -2.0722  0.1565  1.1304
  716MOL0     H96657   6.516  10.813   5.552 -1.6024 -0.6372 -1.4337
  716MOL0     H96658   6.369  10.590   5.862 -0.3608  0.4181 -0.6562
  716MOL0     H96659   7.162  10.788   5.475  1.5819  1.1744  1.7546
  716MOL0     H96660   7.357  10.959   5.399 -0.1090 -0.3593 -3.1466
  717MOL0     O96661   5.531   0.467   6.324  0.6479  0.4597  1.3259
  717MOL0     C96662   5.579   0.429   6.213  0.0688  0.9669 -0.0461
  717MOL0     O96663   5.662   0.506   6.133  0.5240 -0.0077  0.2995
  717MOL0     C96664   5.693   0.641   6.169  0.3542 -0.7493 -0.2283
  717MOL0     C96665   5.827   0.690   6.156 -0.4831 -0.7568 -0.9872
  717MOL0     C96666   5.859   0.828   6.183 -0.4698 -0.5172 -0.4977
  717MOL0     C96667   5.754   0.918   6.223 -0.1950  0.2261 -0.3242
  717MOL0     O96668   5.776   1.049   6.247  0.0087  0.3601  0.7522
  717MOL0     C96669   5.864   1.114   6.157  0.2405 -0.5759 -0.0526
  717MOL0     C96670   5.791   1.126   6.023  0.0738 -0.8610  0.3060
  717MOL0     C96671   5.667   1.221   6.028  0.3787 -0.4693 -0.2169
  717MOL0     C96672   5.589   1.234   5.897 -0.6028  0.1151  0.1585
  717MOL0     C96673   5.468   1.323   5.931 -0.2330 -0.3228  0.1702
  717MOL0     C96674   5.404   1.366   5.790  0.2592 -0.5169 -1.0870
  717MOL0     C96675   5.264   1.428   5.780 -0.9137 -0.7505 -0.6132
  717MOL0     C96676   5.158   1.324   5.811  0.5233  0.2057  0.6432
  717MOL0     N96677   5.020   1.365   5.777  0.2727  0.8206 -0.0230
  717MOL0     C96678   4.911   1.335   5.852  0.1829 -0.0853 -0.5007
  717MOL0     C96679   4.808   1.400   5.789 -0.3261  0.1554  0.4899
  717MOL0     C96680   4.663   1.398   5.825 -0.7275 -0.1467  0.6477
  717MOL0     C96681   4.633   1.251   5.844 -0.1423  1.0804  0.3487
  717MOL0     C96682   4.476   1.225   5.871 -0.6273 -0.5604 -0.5718
  717MOL0     C96683   4.455   1.300   6.007 -0.9436  0.0216  0.4841
  717MOL0     O96684   4.540   1.242   6.105  0.1786 -0.1940  0.5621
  717MOL0     C96685   4.498   1.229   6.231 -0.3593 -0.4204 -0.5168
  717MOL0     C96686   4.493   1.338   6.307  0.4819 -0.2904 -0.3833
  717MOL0     C96687   4.455   1.332   6.440 -0.7203  0.3514  0.5116
  717MOL0     C96688   4.477   1.462   6.518  0.0155 -0.0016 -0.3305
  717MOL0     C96689   4.410   1.209   6.497 -0.7032 -0.4718  0.2959
  717MOL0     C96690   4.365   1.186   6.632  0.1553  0.4499  0.0893
  717MOL0     O96691   4.289   1.076   6.647  0.4763 -0.1360 -0.3637
  717MOL0     C96692   4.235   1.054   6.778  0.1363  0.4430  0.8702
  717MOL0     C96693   4.315   1.042   6.888  0.6415  0.1245  0.0782
  717MOL0     C96694   4.261   1.018   7.007  0.3802  0.2375  0.3016
  717MOL0     C96695   4.124   1.020   7.032  0.9184  0.1634  0.7691
  717MOL0     O96696   4.069   1.009   7.150  0.2233  0.3905 -0.3368
  717MOL0     C96697   3.983   1.118   7.191 -0.3344 -0.5522  0.9947
  717MOL0     C96698   3.948   1.082   7.338 -0.6585 -0.2681  0.6793
  717MOL0     C96699   4.007   1.187   7.432 -1.1422 -0.1293 -0.4059
  717MOL0     C96700   3.969   1.154   7.581  0.0909  0.0476 -0.3983
  717MOL0     C96701   3.822   1.184   7.620  0.1640 -0.2308 -0.4602
  717MOL0     C96702   3.771   1.330   7.586 -1.1234  0.2940  0.2011
  717MOL0     C96703   3.629   1.356   7.646  0.4128  0.0530  0.4703
  717MOL0     C96704   3.571   1.490   7.617  0.0754  0.0500  0.3600
  717MOL0    Cl96705   3.418   1.534   7.705 -0.3071  0.1586 -0.1022
  717MOL0     C96706   4.041   1.028   6.919 -1.0821  0.0144 -0.1175
  717MOL0     C96707   4.094   1.041   6.796 -0.3844  0.4282  0.4182
  717MOL0     O96708   4.381   1.277   6.716  0.0674 -0.2155 -0.0854
  717MOL0     C96709   4.412   1.098   6.414  0.6263  0.3332  1.0661
  717MOL0     C96710   4.463   1.107   6.280 -0.2763 -0.8088  0.2920
  717MOL0     N96711   4.849   1.466   5.670  0.9476  1.0350 -0.2966
  717MOL0     N96712   4.976   1.444   5.673 -0.7384  0.0187  0.4278
  717MOL0     C96713   5.620   0.865   6.220 -0.9573 -0.2230  0.0371
  717MOL0     C96714   5.597   0.732   6.211  0.3583  0.0072  0.7588
  717MOL0     C96715   5.554   0.292   6.161  0.6212  0.6626 -0.4700
  717MOL0     C96716   5.610   0.249   6.038 -0.3930  0.5057 -0.0721
  717MOL0     C96717   5.589   0.121   5.988 -0.4409  0.8990 -0.2814
  717MOL0     C96718   5.511   0.033   6.056  0.3935  1.0478  0.5388
  717MOL0     O96719   5.497  -0.081   5.980  0.2983 -0.2110  1.0934
  717MOL0     C96720   5.503  -0.208   6.057  0.3378 -0.1122 -0.4656
  717MOL0     C96721   5.648  -0.261   6.062 -0.6972  0.5583  0.1693
  717MOL0     C96722   5.684  -0.339   5.940 -0.2225 -0.6886  0.3165
  717MOL0     C96723   5.677  -0.266   5.805 -1.4661  0.1508  0.0457
  717MOL0     C96724   5.787  -0.171   5.801 -0.3012 -0.2973 -0.5843
  717MOL0     C96725   5.886  -0.098   5.810 -0.9020 -0.0579  0.5598
  717MOL0     C96726   5.444   0.072   6.174 -0.3040  0.3881  0.1750
  717MOL0     C96727   5.477   0.192   6.236 -0.7061 -0.6369 -0.3618
  717MOL0     H96728   5.898   0.616   6.122  2.1589  0.1979  1.9291
  717MOL0     H96729   5.959   0.861   6.160 -0.5012 -0.9287 -1.2660
  717MOL0     H96730   5.873   1.215   6.198  1.5999  0.0755 -1.8205
  717MOL0     H96731   5.964   1.072   6.154  0.9450  1.0343 -0.1990
  717MOL0     H96732   5.865   1.183   5.966  2.2712 -1.5368  2.2984
  717MOL0     H96733   5.750   1.037   5.976  1.1397 -0.3745 -1.6505
  717MOL0     H96734   5.608   1.176   6.108  0.8288 -3.3916 -1.4009
  717MOL0     H96735   5.684   1.321   6.067 -2.2931 -1.7652  5.2231
  717MOL0     H96736   5.664   1.276   5.828  0.2954  3.1202  2.7347
  717MOL0     H96737   5.552   1.139   5.856  0.9191 -0.2458 -0.4586
  717MOL0     H96738   5.407   1.268   6.004  0.8813 -1.3828  0.3307
  717MOL0     H96739   5.503   1.418   5.972  0.0867  1.2099 -3.3066
  717MOL0     H96740   5.486   1.426   5.750  1.9032 -0.5936  1.8347
  717MOL0     H96741   5.410   1.275   5.729 -1.9852 -2.2116  0.9971
  717MOL0     H96742   5.260   1.517   5.843 -1.4837 -0.2736 -1.2944
  717MOL0     H96743   5.241   1.455   5.676 -2.0266 -0.6421 -0.3488
  717MOL0     H96744   5.161   1.302   5.918 -1.7144  4.0384  1.6700
  717MOL0     H96745   5.163   1.232   5.752 -1.5249 -0.0196  0.7401
  717MOL0     H96746   4.908   1.286   5.948 -0.4647  3.6883  1.6053
  717MOL0     H96747   4.664   1.454   5.919 -0.0902 -0.4210  0.8107
  717MOL0     H96748   4.601   1.441   5.746 -1.4663 -3.5532 -0.8018
  717MOL0     H96749   4.695   1.200   5.919 -0.0915  2.0248  0.9614
  717MOL0     H96750   4.657   1.195   5.753 -2.0023 -1.9734  1.5840
  717MOL0     H96751   4.447   1.120   5.876  1.4190 -1.0996  2.1797
  717MOL0     H96752   4.413   1.266   5.792 -1.8528 -1.8813 -0.3189
  717MOL0     H96753   4.353   1.277   6.038 -0.7968  0.2351  1.1384
  717MOL0     H96754   4.473   1.407   6.002  1.9641 -0.2694  2.3320
  717MOL0     H96755   4.511   1.429   6.251 -0.5323 -0.6797 -1.3911
  717MOL0     H96756   4.383   1.519   6.524  0.8512  1.3152  0.9690
  717MOL0     H96757   4.506   1.453   6.623 -3.9564  1.1850  1.0939
  717MOL0     H96758   4.554   1.522   6.468  2.6665 -1.0429  2.2502
  717MOL0     H96759   4.424   1.037   6.886  0.6117 -0.2869 -1.7085
  717MOL0     H96760   4.324   0.997   7.093 -0.2624  1.4473  1.0974
  717MOL0     H96761   4.038   1.213   7.185 -0.4146 -0.5442  0.3971
  717MOL0     H96762   3.888   1.121   7.138 -1.9639  2.4695  3.7192
  717MOL0     H96763   3.839   1.092   7.338 -0.4196  4.6987  0.3479
  717MOL0     H96764   3.973   0.978   7.363 -1.4228 -0.4609  0.6690
  717MOL0     H96765   3.967   1.286   7.410  0.7811  0.0655 -3.6704
  717MOL0     H96766   4.116   1.180   7.427 -0.9710  0.9554  1.1074
  717MOL0     H96767   3.995   1.049   7.602  1.3071  0.0317 -1.8805
  717MOL0     H96768   4.034   1.210   7.649  0.6591 -2.4281  1.2660
  717MOL0     H96769   3.825   1.182   7.729  2.1061  0.4498 -0.4670
  717MOL0     H96770   3.736   1.128   7.582 -3.1145  2.1680  2.7636
  717MOL0     H96771   3.839   1.406   7.627 -1.0070 -0.5621  1.6912
  717MOL0     H96772   3.768   1.335   7.477 -1.2137 -0.3607  0.1678
  717MOL0     H96773   3.656   1.340   7.751  0.9977  2.5224  0.7605
  717MOL0     H96774   3.570   1.274   7.604 -0.7350  1.4331 -0.7078
  717MOL0     H96775   3.560   1.501   7.509  1.6278 -0.2580  0.1449
  717MOL0     H96776   3.648   1.567   7.627  0.7009 -0.1070 -2.4215
  717MOL0     H96777   3.934   1.026   6.937 -1.3762  1.2192 -1.4849
  717MOL0     H96778   4.027   1.031   6.712  0.9471 -1.2240 -0.5059
  717MOL0     H96779   4.381   1.001   6.449  1.5852  0.4493  2.3369
  717MOL0     H96780   4.478   1.023   6.213  2.0306 -0.8171  0.7162
  717MOL0     H96781   5.528   0.921   6.230  0.9076  2.8456  1.9169
  717MOL0     H96782   5.498   0.688   6.213  1.0386 -1.6843  3.7128
  717MOL0     H96783   5.667   0.319   5.978 -1.6647  1.3719 -0.3179
  717MOL0     H96784   5.642   0.090   5.899  1.1185  0.6291  0.7078
  717MOL0     H96785   5.464  -0.186   6.157  1.5412 -2.4946  0.6085
  717MOL0     H96786   5.445  -0.288   6.010  1.2094 -1.1268  0.1484
  717MOL0     H96787   5.660  -0.322   6.152 -0.8895  1.0195  0.5135
  717MOL0     H96788   5.724  -0.184   6.079  1.4141 -1.8180  2.5110
  717MOL0     H96789   5.621  -0.428   5.932  0.8826 -1.4671 -0.0249
  717MOL0     H96790   5.790  -0.365   5.950  0.2241  1.0869  0.5258
  717MOL0     H96791   5.576  -0.223   5.803 -0.8416  1.9706  2.3915
  717MOL0     H96792   5.692  -0.325   5.715 -0.0309 -0.2921  0.5554
  717MOL0     H96793   5.966  -0.028   5.823 -1.1985  0.3368  0.2733
  717MOL0     H96794   5.370   0.009   6.222 -0.6858  2.4524  2.4837
  717MOL0     H96795   5.428   0.233   6.324  2.3223  3.5695 -0.3261
  718MOL0     O96796   8.751   4.521   2.619 -0.3489  0.3050  0.3649
  718MOL0     C96797   8.702   4.636   2.637  0.0190 -0.1853  1.0859
  718MOL0     O96798   8.566   4.670   2.636 -0.2651 -0.2059  0.0564
  718MOL0     C96799   8.483   4.565   2.639 -0.1602 -0.7111 -0.2308
  718MOL0     C96800   8.410   4.527   2.524  0.4291  0.2345 -0.4388
  718MOL0     C96801   8.335   4.406   2.531 -0.1967  0.3395 -0.7113
  718MOL0     C96802   8.322   4.343   2.657  0.3646 -0.0634  0.2517
  718MOL0     O96803   8.234   4.240   2.699  0.3841  0.3090  0.3452
  718MOL0     C96804   8.164   4.155   2.610  0.8898 -0.6745  0.1304
  718MOL0     C96805   8.015   4.169   2.639  0.0219 -0.0718  0.1156
  718MOL0     C96806   7.979   4.325   2.650  0.7134 -0.3571  0.6252
  718MOL0     C96807   7.824   4.354   2.659  0.1463  0.3281  0.2478
  718MOL0     C96808   7.790   4.504   2.679  0.0873 -0.4402 -1.2146
  718MOL0     C96809   7.806   4.590   2.557  0.0064 -0.5931  0.3972
  718MOL0     C96810   7.791   4.738   2.585 -0.6223 -1.0607 -0.2941
  718MOL0     C96811   7.915   4.807   2.665  0.3961  0.1949  0.0405
  718MOL0     N96812   7.899   4.954   2.649 -0.7405  0.0047  0.3243
  718MOL0     C96813   7.816   5.034   2.727  0.4806 -0.1104  0.3460
  718MOL0     C96814   7.836   5.156   2.686  0.2475 -0.3829 -0.0566
  718MOL0     C96815   7.789   5.278   2.765  1.6465 -0.3036  0.0205
  718MOL0     C96816   7.897   5.339   2.852 -0.3422  0.0193 -0.0729
  718MOL0     C96817   7.950   5.232   2.955 -0.3209 -0.4699  0.3644
  718MOL0     C96818   8.078   5.266   3.034  0.2930 -1.3697 -0.5599
  718MOL0     O96819   8.095   5.413   3.065 -0.1571 -0.0675  0.4508
  718MOL0     C96820   8.014   5.480   3.152  0.5720  0.1392  0.7255
  718MOL0     C96821   7.947   5.422   3.257 -0.3239 -0.9507  0.4495
  718MOL0     C96822   7.873   5.498   3.344  0.5462 -0.2760  0.0781
  718MOL0     C96823   7.807   5.423   3.460  0.4600  0.3835 -0.0427
  718MOL0     C96824   7.852   5.637   3.322 -0.1198  0.2572 -0.4039
  718MOL0     C96825   7.783   5.727   3.426 -0.4672  0.0677  0.2426
  718MOL0     O96826   7.830   5.860   3.435  0.3769  0.3992 -0.0935
  718MOL0     C96827   7.780   5.936   3.534  0.5729 -0.0166 -1.4095
  718MOL0     C96828   7.772   5.900   3.670  0.4900 -0.0993  0.5443
  718MOL0     C96829   7.722   5.984   3.768  1.0488 -0.3551  0.1649
  718MOL0     C96830   7.662   6.106   3.728  0.2182  0.1973  1.4704
  718MOL0     O96831   7.623   6.194   3.823 -0.3402  0.2204 -0.0863
  718MOL0     C96832   7.488   6.201   3.856  0.1242 -0.0470 -0.2186
  718MOL0     C96833   7.472   6.125   3.986  0.7513  0.5740  0.4901
  718MOL0     C96834   7.572   6.142   4.096  0.0141 -0.7331 -0.4277
  718MOL0     C96835   7.558   6.039   4.212  0.2601  0.5090  0.0666
  718MOL0     C96836   7.662   6.049   4.322 -0.8186 -0.9257  0.0431
  718MOL0     C96837   7.750   5.927   4.336 -0.0314  0.1165  0.4252
  718MOL0     C96838   7.858   5.969   4.446 -0.2041 -0.1965 -0.0362
  718MOL0     C96839   7.863   5.844   4.540 -0.0341  0.3379  0.1637
  718MOL0    Cl96840   7.724   5.842   4.651  0.3889 -0.2433  0.3013
  718MOL0     C96841   7.670   6.146   3.588 -0.1927 -0.4199  0.2404
  718MOL0     C96842   7.734   6.060   3.495 -0.3093  0.0885 -0.2762
  718MOL0     O96843   7.681   5.692   3.482  0.2163  0.6195  0.4851
  718MOL0     C96844   7.930   5.694   3.217  1.2478  0.5470 -0.3030
  718MOL0     C96845   8.009   5.615   3.135 -0.3359 -0.0763  0.5093
  718MOL0     N96846   7.912   5.151   2.570 -0.8162 -0.7009  0.2653
  718MOL0     N96847   7.946   5.032   2.546  0.1814  0.1108  0.1202
  718MOL0     C96848   8.389   4.385   2.772 -0.1475 -0.1947 -0.3388
  718MOL0     C96849   8.476   4.497   2.760  1.0029 -0.1630 -0.4417
  718MOL0     C96850   8.813   4.742   2.627 -0.3884  0.0036 -0.4548
  718MOL0     C96851   8.781   4.873   2.609  0.1128 -0.0140  0.5995
  718MOL0     C96852   8.875   4.976   2.619 -0.1418  0.1201  0.3134
  718MOL0     C96853   9.011   4.947   2.650 -0.4337  0.2254  1.5749
  718MOL0     O96854   9.106   5.044   2.674 -0.6716 -0.2374 -0.0918
  718MOL0     C96855   9.128   5.083   2.812 -0.3320  0.6238 -0.4922
  718MOL0     C96856   9.004   5.169   2.858  0.7450 -0.0794  0.2241
  718MOL0     C96857   8.972   5.308   2.789  0.8726 -0.8102  1.2090
  718MOL0     C96858   9.082   5.417   2.793  0.0457  0.3151  0.1028
  718MOL0     C96859   9.211   5.375   2.725 -0.2821 -0.4320  0.5580
  718MOL0     C96860   9.323   5.342   2.682  1.2395  0.2410  0.6211
  718MOL0     C96861   9.036   4.809   2.676 -0.3719 -0.2730  1.0242
  718MOL0     C96862   8.940   4.705   2.658 -0.9730 -0.8296 -1.0767
  718MOL0     H96863   8.417   4.596   2.440  0.3130  0.4695 -0.2570
  718MOL0     H96864   8.287   4.375   2.438 -0.9553  1.2485 -0.6429
  718MOL0     H96865   8.174   4.194   2.508 -3.4604  0.5885  0.0220
  718MOL0     H96866   8.204   4.053   2.613  2.4847 -0.0790  0.5542
  718MOL0     H96867   7.951   4.126   2.561  1.9011 -1.7005 -0.6094
  718MOL0     H96868   7.993   4.116   2.732 -0.4295 -2.0860 -1.0715
  718MOL0     H96869   8.021   4.361   2.744 -1.8174 -1.1959  2.1970
  718MOL0     H96870   8.024   4.378   2.566 -2.6773 -1.0987 -1.9100
  718MOL0     H96871   7.776   4.313   2.569  2.9025 -1.5074 -0.5504
  718MOL0     H96872   7.778   4.294   2.738  1.4809  1.0560  1.6231
  718MOL0     H96873   7.687   4.521   2.710  1.0361  1.6361  1.1832
  718MOL0     H96874   7.849   4.533   2.766 -2.1669 -0.6176  0.4548
  718MOL0     H96875   7.906   4.573   2.515  0.3753 -0.0236  1.0233
  718MOL0     H96876   7.723   4.570   2.489  2.2171 -0.4366 -2.5921
  718MOL0     H96877   7.791   4.793   2.491 -0.2291 -0.8717 -0.1876
  718MOL0     H96878   7.693   4.747   2.632 -0.2830 -0.0262  0.2657
  718MOL0     H96879   8.011   4.781   2.619 -1.0631 -2.8597 -1.6206
  718MOL0     H96880   7.919   4.783   2.772  0.2918 -2.9543 -0.5714
  718MOL0     H96881   7.758   4.997   2.811 -1.1605  1.0340 -0.2269
  718MOL0     H96882   7.746   5.350   2.695 -0.3099 -0.5261  0.9112
  718MOL0     H96883   7.713   5.248   2.838  3.2041 -0.4852  1.6437
  718MOL0     H96884   7.861   5.416   2.922  1.5819 -0.3339  1.3826
  718MOL0     H96885   7.976   5.389   2.795 -0.0349  0.3259  0.6106
  718MOL0     H96886   7.960   5.136   2.904 -0.3533  0.7787 -2.1242
  718MOL0     H96887   7.871   5.213   3.028 -2.2933 -1.7475 -1.9659
  718MOL0     H96888   8.153   5.227   2.965 -0.2524 -2.2252 -0.6845
  718MOL0     H96889   8.090   5.212   3.128  0.6155  0.7719  0.7019
  718MOL0     H96890   7.949   5.313   3.259 -1.1920 -0.9712  0.5645
  718MOL0     H96891   7.838   5.318   3.455 -0.2639  0.0839  1.3325
  718MOL0     H96892   7.835   5.464   3.558  1.7049  2.5253 -1.2091
  718MOL0     H96893   7.698   5.421   3.457  0.4733 -1.8372 -1.7045
  718MOL0     H96894   7.817   5.809   3.709  1.9714 -0.4513 -1.8076
  718MOL0     H96895   7.714   5.955   3.873 -2.3938 -1.5606 -0.2751
  718MOL0     H96896   7.465   6.307   3.871 -0.4489 -0.1865 -0.1128
  718MOL0     H96897   7.433   6.155   3.773 -0.7352  0.3162  0.1385
  718MOL0     H96898   7.380   6.154   4.038  0.3728 -2.3638  1.6601
  718MOL0     H96899   7.471   6.019   3.963  1.0751  0.3578  1.4063
  718MOL0     H96900   7.555   6.245   4.128 -1.0204 -1.4449  1.4478
  718MOL0     H96901   7.673   6.137   4.056  1.0496 -0.3167  1.9364
  718MOL0     H96902   7.461   6.060   4.257 -0.0801  0.5764 -0.6684
  718MOL0     H96903   7.552   5.938   4.172  0.1483  0.0581  1.2052
  718MOL0     H96904   7.616   6.063   4.420  3.0191  0.5962  1.8169
  718MOL0     H96905   7.723   6.139   4.310  0.7230 -1.6564  1.8798
  718MOL0     H96906   7.703   5.830   4.356  1.5590 -1.1519 -1.5859
  718MOL0     H96907   7.802   5.910   4.241 -1.4498  2.8837 -0.9636
  718MOL0     H96908   7.835   6.056   4.508  0.6507 -0.6012  0.8892
  718MOL0     H96909   7.955   5.980   4.396  0.8297 -1.1297  1.6693
  718MOL0     H96910   7.961   5.843   4.590  0.5683  0.7510 -0.9619
  718MOL0     H96911   7.865   5.748   4.487 -1.1147  0.4066 -0.0193
  718MOL0     H96912   7.640   6.241   3.545 -1.3346 -1.2106 -0.7739
  718MOL0     H96913   7.736   6.105   3.396  4.5102 -1.6885 -1.2744
  718MOL0     H96914   7.925   5.802   3.213  4.2785  0.8103  0.6527
  718MOL0     H96915   8.058   5.651   3.045 -0.7016 -0.5866  0.0991
  718MOL0     H96916   8.380   4.330   2.866 -0.0769  3.8420  2.2652
  718MOL0     H96917   8.547   4.537   2.832  1.4144  1.8031 -1.8611
  718MOL0     H96918   8.675   4.890   2.589 -0.3657 -1.1035  2.0326
  718MOL0     H96919   8.828   5.072   2.597  0.5657  0.4504  0.2116
  718MOL0     H96920   9.134   5.004   2.887 -2.3095  1.3672  0.5400
  718MOL0     H96921   9.215   5.146   2.831 -3.7413  5.0471  2.8531
  718MOL0     H96922   9.014   5.182   2.966  1.6078 -1.8133  0.3978
  718MOL0     H96923   8.909   5.114   2.852  1.2562 -1.0829  1.0052
  718MOL0     H96924   8.886   5.361   2.830  0.5703  0.7280 -1.2676
  718MOL0     H96925   8.944   5.275   2.689  2.6447 -1.7827  0.9946
  718MOL0     H96926   9.105   5.436   2.898 -1.2777  0.5272  0.3770
  718MOL0     H96927   9.046   5.509   2.745 -1.0043 -0.3732 -0.4588
  718MOL0     H96928   9.423   5.313   2.655  2.6741  1.0182  4.4625
  718MOL0     H96929   9.134   4.771   2.702 -1.3102 -3.3560  0.4988
  718MOL0     H96930   8.976   4.604   2.674 -1.0940 -0.5294  1.5516
  719MOL0     O96931   7.527   4.559   3.176 -0.1608 -0.4916 -1.1592
  719MOL0     C96932   7.565   4.493   3.080 -0.2582  0.3803  1.1565
  719MOL0     O96933   7.675   4.525   3.006  0.5233 -0.7839 -0.8697
  719MOL0     C96934   7.755   4.625   3.052  0.0405 -0.4947 -0.2348
  719MOL0     C96935   7.732   4.766   3.015  0.4355 -0.3316  1.8616
  719MOL0     C96936   7.816   4.869   3.064 -0.0727  0.8254  0.9180
  719MOL0     C96937   7.936   4.834   3.135 -0.1969 -0.2418  0.3049
  719MOL0     O96938   8.012   4.929   3.195  0.6970  0.0358  0.7324
  719MOL0     C96939   8.090   4.893   3.303  0.9671  0.0800  0.7179
  719MOL0     C96940   8.141   5.018   3.376  0.2903  0.4686 -0.4631
  719MOL0     C96941   8.266   5.085   3.322 -0.2371 -0.8317  0.6118
  719MOL0     C96942   8.280   5.226   3.397  0.2726 -0.6655  0.2295
  719MOL0     C96943   8.395   5.318   3.353  0.6795 -0.1920 -0.3498
  719MOL0     C96944   8.396   5.438   3.443  0.4033 -0.1935 -0.7207
  719MOL0     C96945   8.302   5.543   3.380  0.7897  0.0242 -0.0653
  719MOL0     C96946   8.296   5.669   3.460 -0.6413 -0.3939 -0.0590
  719MOL0     N96947   8.423   5.749   3.442  0.6160  0.8395 -0.4398
  719MOL0     C96948   8.543   5.737   3.512 -1.5672  0.4639  0.0077
  719MOL0     C96949   8.639   5.797   3.436  0.0722  0.3151  0.0110
  719MOL0     C96950   8.789   5.789   3.453  0.2964 -0.7701  0.1764
  719MOL0     C96951   8.845   5.850   3.579  0.3818  0.5422 -0.9799
  719MOL0     C96952   8.815   6.006   3.601 -0.1225  0.5497  0.4923
  719MOL0     C96953   8.873   6.093   3.482 -0.2998  0.0879  0.2876
  719MOL0     O96954   8.854   6.230   3.499 -0.1653  0.8463  0.1137
  719MOL0     C96955   8.727   6.275   3.480 -0.3621  0.6792 -1.0307
  719MOL0     C96956   8.715   6.412   3.502  1.2961 -0.3663 -0.8554
  719MOL0     C96957   8.593   6.482   3.475  0.5620 -0.9406 -0.2786
  719MOL0     C96958   8.600   6.633   3.481 -0.3599  0.2212 -0.2011
  719MOL0     C96959   8.479   6.415   3.437  0.0103  0.0320  0.5068
  719MOL0     C96960   8.351   6.483   3.421  0.6122  0.4371 -0.0930
  719MOL0     O96961   8.259   6.439   3.327 -0.6467  0.5262 -0.7723
  719MOL0     C96962   8.143   6.502   3.308  0.0172  0.0232  0.4491
  719MOL0     C96963   8.134   6.608   3.217  0.6766 -0.1989  1.3304
  719MOL0     C96964   8.025   6.689   3.213  0.5148 -0.3789  0.0623
  719MOL0     C96965   7.911   6.661   3.300  0.4569 -0.0973 -0.2497
  719MOL0     O96966   7.796   6.736   3.280 -0.7476  0.1624  0.0638
  719MOL0     C96967   7.714   6.745   3.389  0.3335 -0.3436 -0.0641
  719MOL0     C96968   7.660   6.893   3.404  0.1404  0.5213  0.8141
  719MOL0     C96969   7.553   6.910   3.518  1.0331  0.3354 -0.2907
  719MOL0     C96970   7.494   7.053   3.510 -0.2123  0.2764 -0.1050
  719MOL0     C96971   7.434   7.080   3.646  0.7933 -0.3566  0.9904
  719MOL0     C96972   7.306   6.993   3.664 -0.3033  0.2797  0.0414
  719MOL0     C96973   7.248   7.048   3.793  0.0465 -0.5267 -0.4636
  719MOL0     C96974   7.139   6.968   3.843  0.1810  0.3337 -0.1464
  719MOL0    Cl96975   7.057   7.059   3.989 -0.1806 -0.1185 -0.1642
  719MOL0     C96976   7.916   6.545   3.366 -0.6045  0.6579 -0.3754
  719MOL0     C96977   8.028   6.472   3.390 -0.6889  0.4273 -0.8027
  719MOL0     O96978   8.323   6.578   3.488  0.0374  0.8571  0.1690
  719MOL0     C96979   8.490   6.273   3.409 -0.3918  0.6344 -0.2008
  719MOL0     C96980   8.611   6.199   3.435  0.5795 -0.6193 -0.9673
  719MOL0     N96981   8.583   5.841   3.319 -0.1793  0.4702 -0.5079
  719MOL0     N96982   8.452   5.819   3.328  0.2689  0.4501  0.9891
  719MOL0     C96983   7.968   4.695   3.158 -0.1856  0.4953  0.1631
  719MOL0     C96984   7.878   4.596   3.119  0.1386 -0.0857 -0.5909
  719MOL0     C96985   7.494   4.377   3.038  0.5457 -0.3664 -0.9974
  719MOL0     C96986   7.511   4.321   2.907  0.7670  0.9109 -0.5140
  719MOL0     C96987   7.469   4.196   2.872 -0.1136  0.6521  0.3732
  719MOL0     C96988   7.400   4.120   2.969 -0.2235 -0.0108 -0.1854
  719MOL0     O96989   7.364   3.989   2.941  1.0330 -0.8286 -0.1063
  719MOL0     C96990   7.294   3.906   3.030 -0.1897  0.0375 -1.0426
  719MOL0     C96991   7.254   3.779   2.948  0.4332  0.0165  0.1035
  719MOL0     C96992   7.345   3.656   2.971  0.3151 -0.6236 -0.2061
  719MOL0     C96993   7.319   3.546   2.859 -0.3294 -0.4681  0.7046
  719MOL0     C96994   7.176   3.518   2.850 -0.9556  0.0795  0.2419
  719MOL0     C96995   7.067   3.467   2.864  0.3548  0.7880 -0.6455
  719MOL0     C96996   7.359   4.182   3.088 -0.9393 -0.5870 -0.8651
  719MOL0     C96997   7.409   4.307   3.132 -0.0368  0.4819  0.9154
  719MOL0     H96998   7.645   4.789   2.954 -0.4471  0.9647  3.5369
  719MOL0     H96999   7.790   4.970   3.036  3.8307  1.6704 -0.3924
  719MOL0     H97000   8.031   4.826   3.366 -1.8355 -0.6292 -2.3749
  719MOL0     H97001   8.170   4.831   3.261  1.0187  0.8248 -0.3388
  719MOL0     H97002   8.055   5.085   3.376  0.3163  0.5077 -0.9705
  719MOL0     H97003   8.158   4.979   3.477  1.8104 -0.3727 -1.0078
  719MOL0     H97004   8.355   5.022   3.336 -0.7157 -1.1179  2.6860
  719MOL0     H97005   8.253   5.108   3.216 -0.7182  1.6154  1.1403
  719MOL0     H97006   8.195   5.292   3.380 -0.4404 -0.8412  2.6682
  719MOL0     H97007   8.285   5.208   3.505 -2.5390  1.7818  0.8958
  719MOL0     H97008   8.491   5.267   3.369  0.7813 -0.1206 -0.7253
  719MOL0     H97009   8.388   5.344   3.247 -0.6620  0.6949 -0.0597
  719MOL0     H97010   8.392   5.413   3.549  1.2291 -1.3471 -0.9279
  719MOL0     H97011   8.498   5.473   3.424  0.3754 -0.2119 -0.9061
  719MOL0     H97012   8.332   5.562   3.277 -1.8556 -2.9891 -1.5904
  719MOL0     H97013   8.199   5.507   3.385  1.5127 -2.2918 -0.8218
  719MOL0     H97014   8.285   5.649   3.567 -0.5317 -0.3825 -0.0453
  719MOL0     H97015   8.204   5.722   3.432  0.4967  1.6606 -0.1490
  719MOL0     H97016   8.562   5.704   3.613 -1.6694 -1.0606 -0.4408
  719MOL0     H97017   8.821   5.685   3.457  0.0043 -0.9051 -0.7228
  719MOL0     H97018   8.836   5.835   3.366 -4.1047  1.0382 -1.5309
  719MOL0     H97019   8.954   5.839   3.581  0.4204  0.9041  1.5351
  719MOL0     H97020   8.806   5.790   3.661  2.7885 -0.5416 -0.5300
  719MOL0     H97021   8.865   6.029   3.696  1.4447  1.7598 -0.5782
  719MOL0     H97022   8.711   6.039   3.611 -0.2325  0.3479  0.0059
  719MOL0     H97023   8.834   6.059   3.385 -0.2499 -1.2170  0.6937
  719MOL0     H97024   8.982   6.089   3.475 -0.0299  4.5051 -0.5136
  719MOL0     H97025   8.801   6.477   3.513  1.7571 -0.0431 -4.9463
  719MOL0     H97026   8.560   6.663   3.383 -1.9215  0.3357  0.4360
  719MOL0     H97027   8.537   6.689   3.551 -1.2760  0.9689 -1.5811
  719MOL0     H97028   8.706   6.661   3.481 -0.3941  0.4060  1.2039
  719MOL0     H97029   8.227   6.650   3.181 -0.9796  3.0187  0.4085
  719MOL0     H97030   8.025   6.781   3.154 -1.4990 -0.2626  0.1509
  719MOL0     H97031   7.629   6.680   3.366 -0.1175  0.1218  0.2663
  719MOL0     H97032   7.757   6.717   3.485 -1.5048 -0.1685  0.8458
  719MOL0     H97033   7.738   6.960   3.440 -0.3015  0.8730  1.1437
  719MOL0     H97034   7.625   6.927   3.306  0.4556  1.4108  1.0044
  719MOL0     H97035   7.604   6.920   3.614 -1.9592  0.2096  1.4523
  719MOL0     H97036   7.482   6.827   3.511  1.1190  0.1476  0.8487
  719MOL0     H97037   7.572   7.127   3.491 -0.4760  0.2955 -1.2203
  719MOL0     H97038   7.414   7.062   3.436 -1.7471 -1.1653  1.2838
  719MOL0     H97039   7.401   7.184   3.653 -0.1573 -0.6986  1.9175
  719MOL0     H97040   7.505   7.066   3.727  0.8502 -0.9594  0.8446
  719MOL0     H97041   7.228   7.011   3.589  0.2755  1.5689 -0.2763
  719MOL0     H97042   7.332   6.887   3.671 -1.4728  0.0754  4.4291
  719MOL0     H97043   7.212   7.150   3.776  2.4279  0.6252  0.9646
  719MOL0     H97044   7.319   7.067   3.873  0.0394 -1.4759 -0.2205
  719MOL0     H97045   7.181   6.876   3.883  0.6729  0.2608 -0.8185
  719MOL0     H97046   7.065   6.936   3.769 -0.3170  0.1435  0.4299
  719MOL0     H97047   7.822   6.511   3.410  0.0351  1.8071  1.9971
  719MOL0     H97048   8.039   6.391   3.462  0.2149  3.2892  2.5407
  719MOL0     H97049   8.403   6.220   3.369  0.6210 -2.4776  1.4006
  719MOL0     H97050   8.607   6.095   3.406 -2.1898 -0.5942 -1.0045
  719MOL0     H97051   8.065   4.670   3.200  0.5523 -0.5247 -1.9966
  719MOL0     H97052   7.883   4.498   3.165 -1.0117  1.2730  2.8202
  719MOL0     H97053   7.571   4.371   2.832  1.4070 -0.1836 -0.7574
  719MOL0     H97054   7.499   4.151   2.779 -1.0312  0.3702  0.2009
  719MOL0     H97055   7.364   3.878   3.109 -1.7644  1.3356  0.9111
  719MOL0     H97056   7.209   3.949   3.083  0.8815  0.9803 -0.0226
  719MOL0     H97057   7.254   3.799   2.841  0.2077 -0.1502  0.0728
  719MOL0     H97058   7.147   3.763   2.964 -0.4977  2.9548 -2.2960
  719MOL0     H97059   7.326   3.597   3.061 -0.0542 -1.1265 -0.6043
  719MOL0     H97060   7.449   3.690   2.972 -0.2037  1.0607  0.7620
  719MOL0     H97061   7.374   3.454   2.877 -1.0914 -1.3431 -1.1412
  719MOL0     H97062   7.362   3.576   2.763 -0.9902  1.7961  1.0562
  719MOL0     H97063   6.970   3.446   2.904  0.4081  1.6059 -0.0413
  719MOL0     H97064   7.312   4.119   3.164  0.6205  0.1587  0.7869
  719MOL0     H97065   7.390   4.343   3.233 -0.3540 -1.2707  1.5231
  720MOL0     O97066   0.130   0.516   9.088 -1.0081 -0.0558 -0.0507
  720MOL0     C97067   0.046   0.521   9.176 -0.3928  0.0945 -0.8769
  720MOL0     O97068   0.043   0.615   9.278  0.2719 -0.5153 -0.3707
  720MOL0     C97069   0.129   0.720   9.273 -0.2568 -0.0457  0.9431
  720MOL0     C97070   0.090   0.832   9.204 -0.1251  0.1355  0.3166
  720MOL0     C97071   0.171   0.945   9.194 -0.2709 -0.2635  0.2912
  720MOL0     C97072   0.302   0.938   9.242 -0.3937  0.0058  0.6581
  720MOL0     O97073   0.388   1.044   9.240 -0.0270 -0.3851 -0.9322
  720MOL0     C97074   0.402   1.105   9.113  0.3547 -0.2029  0.4944
  720MOL0     C97075   0.528   1.181   9.112 -0.1089  0.0948  0.2326
  720MOL0     C97076   0.638   1.084   9.057 -0.0674  0.4416  0.1950
  720MOL0     C97077   0.772   1.149   9.014  0.2331 -0.5113  0.4161
  720MOL0     C97078   0.881   1.050   8.970 -0.2146 -0.4220  0.5211
  720MOL0     C97079   1.025   1.113   8.954  0.3990 -0.5779  0.4001
  720MOL0     C97080   1.049   1.234   8.854  0.2618 -0.2672  0.0087
  720MOL0     C97081   1.137   1.339   8.931 -0.0651 -0.4218  0.7867
  720MOL0     N97082   1.160   1.451   8.840  0.4133 -0.4493 -0.5527
  720MOL0     C97083   1.220   1.455   8.711  0.4013  0.2285 -0.9046
  720MOL0     C97084   1.241   1.584   8.683 -0.1498 -0.3417  0.3146
  720MOL0     C97085   1.312   1.622   8.566 -0.6534 -0.2246  0.0934
  720MOL0     C97086   1.434   1.711   8.586  0.4815  0.2306 -0.1925
  720MOL0     C97087   1.526   1.656   8.697 -0.3654  0.4037 -0.2070
  720MOL0     C97088   1.669   1.719   8.705  0.7642 -0.5893  0.1341
  720MOL0     O97089   1.735   1.719   8.577  0.4097  0.4852 -0.5159
  720MOL0     C97090   1.869   1.746   8.563 -0.8344  0.3865 -0.8149
  720MOL0     C97091   1.958   1.789   8.666 -0.3767 -0.3524 -0.2659
  720MOL0     C97092   2.092   1.814   8.646 -0.7428 -0.2493 -0.3608
  720MOL0     C97093   2.186   1.859   8.760 -0.0071  0.1638  0.7960
  720MOL0     C97094   2.148   1.794   8.517  0.3387 -0.4028 -0.1008
  720MOL0     C97095   2.287   1.787   8.500  0.5550  0.5971 -0.8268
  720MOL0     O97096   2.338   1.666   8.500  0.5040  0.4593 -0.3662
  720MOL0     C97097   2.475   1.660   8.502 -1.1218 -1.2634 -0.7845
  720MOL0     C97098   2.547   1.694   8.380 -0.2253  0.0857  0.2396
  720MOL0     C97099   2.693   1.680   8.382  0.1518 -1.1519  0.2008
  720MOL0     C97100   2.769   1.638   8.495 -0.4450 -0.1711 -0.3477
  720MOL0     O97101   2.901   1.619   8.481  0.3585 -0.3186  0.0192
  720MOL0     C97102   2.999   1.601   8.594  0.4475 -0.3601 -0.2816
  720MOL0     C97103   3.132   1.663   8.557  0.0475 -0.2238  0.4197
  720MOL0     C97104   3.099   1.815   8.524 -0.3256  0.1861 -0.3004
  720MOL0     C97105   3.168   1.845   8.397  0.2415  1.0435  1.1417
  720MOL0     C97106   3.168   2.000   8.374 -0.3931  0.4325 -0.3778
  720MOL0     C97107   3.034   2.070   8.385  1.3876 -0.3744 -0.0868
  720MOL0     C97108   3.059   2.222   8.339  0.3984 -0.5870 -0.2917
  720MOL0     C97109   3.083   2.252   8.196 -0.3563  0.2828 -0.3072
  720MOL0    Cl97110   3.071   2.435   8.169 -0.4024 -0.2680 -0.5656
  720MOL0     C97111   2.694   1.612   8.607  0.2650 -0.0681 -0.1902
  720MOL0     C97112   2.551   1.617   8.613  0.3317  0.3440 -0.3699
  720MOL0     O97113   2.345   1.894   8.483 -0.0220 -0.1488 -0.6086
  720MOL0     C97114   2.057   1.770   8.413  0.2012  0.5788 -0.1849
  720MOL0     C97115   1.917   1.740   8.438  0.4435  0.9581 -0.0736
  720MOL0     N97116   1.193   1.659   8.789 -0.0588  0.1403 -0.5851
  720MOL0     N97117   1.125   1.586   8.864  0.2477  0.4084 -0.7329
  720MOL0     C97118   0.344   0.827   9.318  1.9193  0.2101 -0.5537
  720MOL0     C97119   0.255   0.718   9.335 -0.4295 -0.4110 -0.1621
  720MOL0     C97120  -0.061   0.429   9.175 -0.0115  0.2381  0.3538
  720MOL0     C97121  -0.163   0.445   9.276 -1.0265  0.7163 -0.1422
  720MOL0     C97122  -0.276   0.356   9.274  0.4058  0.1400 -0.1091
  720MOL0     C97123  -0.295   0.267   9.170 -0.5438  0.7084 -0.0815
  720MOL0     O97124  -0.397   0.181   9.157 -0.2243  0.1510  0.4752
  720MOL0     C97125  -0.497   0.212   9.053  0.6907 -0.4190 -0.8423
  720MOL0     C97126  -0.633   0.237   9.101  0.7805 -0.1215  0.1656
  720MOL0     C97127  -0.705   0.121   9.167 -0.7446  0.5429 -1.6998
  720MOL0     C97128  -0.840   0.158   9.221  0.2063  0.1271  0.0768
  720MOL0     C97129  -0.908   0.024   9.250 -0.9701  0.6172  0.0775
  720MOL0     C97130  -0.936  -0.092   9.270 -0.2879 -0.9268 -1.0285
  720MOL0     C97131  -0.181   0.251   9.086  0.4717  0.4583 -0.6360
  720MOL0     C97132  -0.069   0.326   9.086  0.3669 -0.5225 -0.3933
  720MOL0     H97133  -0.008   0.826   9.158 -0.0096 -0.4983  0.1427
  720MOL0     H97134   0.139   1.026   9.130 -1.1742 -0.9890 -0.2023
  720MOL0     H97135   0.393   1.035   9.030  0.9782  2.6105 -2.1442
  720MOL0     H97136   0.324   1.179   9.091  1.5318  0.4391 -1.7330
  720MOL0     H97137   0.525   1.267   9.045  1.3223 -0.8718 -1.1288
  720MOL0     H97138   0.560   1.230   9.205  2.6437 -2.7336  0.9531
  720MOL0     H97139   0.664   1.018   9.140 -1.9245 -2.4243 -1.3368
  720MOL0     H97140   0.597   1.017   8.980  1.4673 -3.4807  2.5104
  720MOL0     H97141   0.760   1.225   8.937  2.7358  0.1876  0.6484
  720MOL0     H97142   0.802   1.199   9.106 -1.4665  0.1413  0.6536
  720MOL0     H97143   0.882   0.966   9.040 -0.4819 -1.7145 -0.9803
  720MOL0     H97144   0.853   1.002   8.876  4.4347 -3.2518  0.2738
  720MOL0     H97145   1.056   1.143   9.054  2.7874  2.2140 -1.0003
  720MOL0     H97146   1.088   1.027   8.930  0.2731 -1.4751  2.9975
  720MOL0     H97147   1.096   1.197   8.762  0.7545  3.1424 -1.2660
  720MOL0     H97148   0.956   1.285   8.826 -1.1783 -2.9143 -0.3915
  720MOL0     H97149   1.234   1.299   8.963  0.8805  0.5114 -0.7753
  720MOL0     H97150   1.080   1.370   9.019 -2.9771  0.1254 -1.1503
  720MOL0     H97151   1.249   1.361   8.664  0.8593 -1.3361  2.2222
  720MOL0     H97152   1.358   1.537   8.515  0.1691  0.0925  0.2817
  720MOL0     H97153   1.235   1.668   8.504 -2.4730 -2.3800  0.6284
  720MOL0     H97154   1.402   1.812   8.614  3.2626  0.2590  3.6793
  720MOL0     H97155   1.495   1.718   8.495  0.0117  1.2712 -0.4468
  720MOL0     H97156   1.535   1.549   8.678 -1.3007  0.2606  0.1395
  720MOL0     H97157   1.479   1.682   8.792 -2.8281 -1.1812 -0.9090
  720MOL0     H97158   1.735   1.668   8.776  2.4710 -3.6313 -3.3269
  720MOL0     H97159   1.655   1.820   8.743 -0.3623 -0.8110  0.3484
  720MOL0     H97160   1.917   1.807   8.765 -2.3701 -2.0842 -0.7065
  720MOL0     H97161   2.268   1.787   8.766 -0.1018 -0.1242 -0.8278
  720MOL0     H97162   2.221   1.953   8.717  0.2576 -0.3336 -0.1110
  720MOL0     H97163   2.135   1.883   8.853 -0.7171 -0.7739  0.6675
  720MOL0     H97164   2.489   1.730   8.295 -2.1160  0.0997  1.4838
  720MOL0     H97165   2.742   1.709   8.290  1.6596  0.8056  1.5321
  720MOL0     H97166   2.963   1.656   8.681  4.0573 -1.4686  2.1442
  720MOL0     H97167   3.015   1.494   8.610 -1.5473 -0.3467  2.2794
  720MOL0     H97168   3.186   1.653   8.652  0.7418  2.9692  0.4497
  720MOL0     H97169   3.181   1.606   8.477  1.3971  1.2189  0.1810
  720MOL0     H97170   3.150   1.883   8.592  2.8366  0.0060 -2.2682
  720MOL0     H97171   2.991   1.833   8.533 -0.5096 -1.5096  1.6651
  720MOL0     H97172   3.269   1.805   8.404 -0.6561 -2.7755 -3.1487
  720MOL0     H97173   3.108   1.793   8.322  0.0215  0.3150  1.8054
  720MOL0     H97174   3.200   1.995   8.269  2.4911 -3.8569  0.4431
  720MOL0     H97175   3.244   2.049   8.436  1.3078  0.4269 -2.3112
  720MOL0     H97176   2.955   2.037   8.316  3.0860 -0.0964 -2.2796
  720MOL0     H97177   2.987   2.061   8.484 -0.9212 -0.9165 -1.1476
  720MOL0     H97178   3.153   2.263   8.379 -1.2322  2.3106  0.8806
  720MOL0     H97179   2.973   2.280   8.372 -0.0133 -2.1585  1.5772
  720MOL0     H97180   3.014   2.195   8.134 -0.6034  0.8420 -0.5548
  720MOL0     H97181   3.183   2.221   8.162 -0.3989  1.7018 -1.8988
  720MOL0     H97182   2.747   1.580   8.696  0.4093 -1.5791 -0.7969
  720MOL0     H97183   2.495   1.596   8.704 -0.9286  2.2801 -0.6488
  720MOL0     H97184   2.088   1.788   8.310  1.9229  4.0555  0.7996
  720MOL0     H97185   1.844   1.741   8.357 -0.4958 -0.4436  0.7113
  720MOL0     H97186   0.444   0.831   9.358  2.2144 -1.3109 -1.0461
  720MOL0     H97187   0.291   0.635   9.395  3.0181 -0.1143 -1.5885
  720MOL0     H97188  -0.145   0.508   9.363 -0.6638  2.0221 -1.1284
  720MOL0     H97189  -0.348   0.373   9.354  1.6751 -2.6234  1.7528
  720MOL0     H97190  -0.469   0.304   9.001 -2.4844  2.1504  1.5120
  720MOL0     H97191  -0.515   0.127   8.986  0.1359 -0.2203 -0.9536
  720MOL0     H97192  -0.702   0.260   9.020  2.4943 -3.5383 -2.5195
  720MOL0     H97193  -0.608   0.318   9.170  0.7865 -0.5605  0.6880
  720MOL0     H97194  -0.642   0.061   9.234 -0.7864 -0.4445 -2.5334
  720MOL0     H97195  -0.725   0.046   9.091 -1.5617  1.9093 -2.8937
  720MOL0     H97196  -0.904   0.219   9.157 -0.6891 -2.0734 -1.2313
  720MOL0     H97197  -0.827   0.212   9.315 -1.4379 -3.9559  2.9368
  720MOL0     H97198  -0.949  -0.196   9.295 -1.3410 -0.0888  2.6139
  720MOL0     H97199  -0.171   0.160   9.027  1.8738  0.4709 -0.4508
  720MOL0     H97200   0.000   0.306   9.005 -0.7521  0.0401 -1.5182
  721MOL0     O97201   2.430   8.122   8.410  0.5040  0.3668 -0.2778
  721MOL0     C97202   2.421   8.164   8.295  0.3601 -0.4198 -1.0714
  721MOL0     O97203   2.462   8.100   8.188 -0.6466 -0.3483 -0.0506
  721MOL0     C97204   2.465   7.969   8.177 -0.8674 -0.5036  0.0829
  721MOL0     C97205   2.588   7.910   8.167  0.9622 -0.2048  0.2510
  721MOL0     C97206   2.601   7.770   8.184  0.7964 -0.6974 -0.3553
  721MOL0     C97207   2.489   7.693   8.207  0.1798  0.1708  0.7861
  721MOL0     O97208   2.515   7.558   8.209 -1.3202  0.6248  0.1769
  721MOL0     C97209   2.420   7.475   8.284 -1.0261 -1.0654 -0.2584
  721MOL0     C97210   2.469   7.336   8.288 -1.0526 -0.4594  0.1865
  721MOL0     C97211   2.383   7.252   8.383  0.1626 -0.6691 -0.2705
  721MOL0     C97212   2.235   7.242   8.346  0.0301  0.7335  0.5289
  721MOL0     C97213   2.141   7.176   8.446 -0.1207 -0.3838  0.6732
  721MOL0     C97214   2.147   7.024   8.422 -0.3588  0.2341 -1.0921
  721MOL0     C97215   2.050   6.947   8.514  0.3057  0.7997  0.2355
  721MOL0     C97216   2.112   6.920   8.657 -0.4798 -0.1096  0.1526
  721MOL0     N97217   2.000   6.907   8.769 -0.1431 -0.2142  0.1165
  721MOL0     C97218   1.883   6.849   8.760 -0.0152 -0.4707  0.5634
  721MOL0     C97219   1.800   6.899   8.853 -0.0110  0.9078  0.1523
  721MOL0     C97220   1.649   6.872   8.877 -0.0640 -0.6835 -0.0717
  721MOL0     C97221   1.577   6.989   8.936  1.0117 -0.6900  0.2395
  721MOL0     C97222   1.557   7.103   8.828 -0.4821 -0.5865  0.9026
  721MOL0     C97223   1.558   7.238   8.891  1.3917  0.1310  0.8533
  721MOL0     O97224   1.511   7.323   8.785 -0.1127  0.4076 -0.5845
  721MOL0     C97225   1.376   7.362   8.788 -1.0329  1.2042  0.8467
  721MOL0     C97226   1.291   7.289   8.720  0.4137  0.6986 -0.4250
  721MOL0     C97227   1.148   7.313   8.732 -0.5809 -0.0488 -0.2255
  721MOL0     C97228   1.047   7.223   8.664  0.1727 -0.5053  0.5437
  721MOL0     C97229   1.096   7.425   8.802 -0.4731  0.9603  0.4116
  721MOL0     C97230   0.953   7.456   8.833  1.4526 -0.4420  0.1432
  721MOL0     O97231   0.928   7.480   8.965  0.1633  0.1717 -0.4471
  721MOL0     C97232   0.809   7.552   8.986  0.1760 -0.1458  0.2595
  721MOL0     C97233   0.682   7.483   8.990 -0.1987  0.0180  0.0369
  721MOL0     C97234   0.553   7.540   9.003  0.3171 -0.1197 -0.3083
  721MOL0     C97235   0.548   7.676   9.033  0.3085  0.7103  0.3213
  721MOL0     O97236   0.433   7.751   9.054  1.1352  0.2827 -0.2701
  721MOL0     C97237   0.405   7.773   9.184 -0.2048  0.6576  0.2312
  721MOL0     C97238   0.255   7.811   9.190  0.6911  1.2410 -0.3740
  721MOL0     C97239   0.231   7.951   9.138 -0.9927 -0.4154 -0.8449
  721MOL0     C97240   0.086   7.990   9.091 -1.3894  0.2542 -0.1476
  721MOL0     C97241   0.085   7.966   8.941  1.1956 -0.8988  0.4928
  721MOL0     C97242  -0.049   8.004   8.878 -0.5117  0.7240 -0.5544
  721MOL0     C97243  -0.063   7.962   8.740 -0.7708 -0.3346  1.3799
  721MOL0     C97244  -0.192   8.033   8.686  0.0217  0.4101  0.9123
  721MOL0    Cl97245  -0.198   8.015   8.508  0.2820  0.1128  0.0710
  721MOL0     C97246   0.669   7.750   9.026  0.5009 -0.9612 -0.0816
  721MOL0     C97247   0.795   7.693   9.008 -0.4452  0.7254 -1.0215
  721MOL0     O97248   0.869   7.468   8.739 -0.0246 -0.3948 -0.1331
  721MOL0     C97249   1.190   7.504   8.869 -1.3624 -0.4184 -0.2192
  721MOL0     C97250   1.327   7.467   8.862  0.1936 -0.0056  1.1371
  721MOL0     N97251   1.882   6.991   8.920  0.5608 -0.0896  0.1614
  721MOL0     N97252   1.997   7.003   8.866  0.4752  0.0441  0.4192
  721MOL0     C97253   2.360   7.756   8.211  0.1465 -0.6907  0.7787
  721MOL0     C97254   2.350   7.895   8.212 -0.4025 -0.2319  0.1759
  721MOL0     C97255   2.400   8.303   8.264 -0.0162 -0.0703 -0.1847
  721MOL0     C97256   2.462   8.362   8.149  0.0069  0.3871  0.2123
  721MOL0     C97257   2.435   8.497   8.114  0.8041 -0.1536 -0.0430
  721MOL0     C97258   2.347   8.576   8.197 -0.1472  0.0194 -0.9007
  721MOL0     O97259   2.330   8.710   8.176  1.2533  0.1340  0.4050
  721MOL0     C97260   2.371   8.777   8.050 -0.1955  0.3272 -0.5244
  721MOL0     C97261   2.333   8.927   8.070 -0.4672  0.1824 -0.0259
  721MOL0     C97262   2.177   8.945   8.070 -0.3217  0.9372  0.2402
  721MOL0     C97263   2.122   9.071   7.995 -0.0473 -1.1535  0.5424
  721MOL0     C97264   2.139   9.057   7.849  1.0482  0.7906 -0.1841
  721MOL0     C97265   2.164   9.052   7.729 -0.2532  0.3860  0.0313
  721MOL0     C97266   2.283   8.515   8.310  0.5697 -0.8416  0.2958
  721MOL0     C97267   2.303   8.377   8.341 -0.1941 -0.6226 -0.5100
  721MOL0     H97268   2.679   7.969   8.165  0.5194  0.4698 -0.0626
  721MOL0     H97269   2.702   7.729   8.181  1.8467  1.0256  3.7417
  721MOL0     H97270   2.419   7.527   8.380 -3.6299 -0.5286 -0.4794
  721MOL0     H97271   2.321   7.488   8.239 -0.4302  0.2708 -1.2639
  721MOL0     H97272   2.463   7.301   8.184 -5.1807  0.1125  0.0565
  721MOL0     H97273   2.572   7.332   8.324 -1.8393  0.5905  2.8310
  721MOL0     H97274   2.423   7.151   8.378 -0.7296 -0.9465 -3.1774
  721MOL0     H97275   2.372   7.302   8.480 -3.1720 -1.5000 -0.1126
  721MOL0     H97276   2.197   7.343   8.330 -0.7726  0.3829  0.1681
  721MOL0     H97277   2.240   7.191   8.249  1.5318  2.4577 -0.3736
  721MOL0     H97278   2.178   7.197   8.547 -0.2063  4.8462 -0.1256
  721MOL0     H97279   2.037   7.209   8.440  0.4036  2.1207  3.2622
  721MOL0     H97280   2.118   7.016   8.317 -1.5567 -1.9477 -0.6526
  721MOL0     H97281   2.247   6.982   8.427 -0.3484  0.2668 -1.0167
  721MOL0     H97282   1.962   7.009   8.531 -2.5022 -2.8136  0.1576
  721MOL0     H97283   2.022   6.849   8.473 -0.3483  0.0673  2.3128
  721MOL0     H97284   2.185   7.000   8.677 -0.1941  0.0665 -1.5064
  721MOL0     H97285   2.175   6.831   8.661  0.1901  0.1998 -2.2546
  721MOL0     H97286   1.863   6.769   8.690  1.3680 -1.4628  1.2580
  721MOL0     H97287   1.607   6.829   8.786  1.0269 -2.3680  0.1798
  721MOL0     H97288   1.644   6.782   8.939  2.7017 -1.3127 -0.5994
  721MOL0     H97289   1.627   7.021   9.028  0.0722 -0.7980  0.8031
  721MOL0     H97290   1.482   6.954   8.978  1.0055  1.3120  2.0898
  721MOL0     H97291   1.459   7.089   8.781 -2.0611  1.7622  3.2316
  721MOL0     H97292   1.640   7.106   8.757 -0.6126 -3.1899  0.5456
  721MOL0     H97293   1.656   7.264   8.933  1.3515 -1.1992  1.8455
  721MOL0     H97294   1.484   7.238   8.972 -0.1213  4.1451 -0.2883
  721MOL0     H97295   1.328   7.214   8.650  2.4236 -0.4800  1.7720
  721MOL0     H97296   0.948   7.228   8.711 -0.0257  2.3906 -0.0297
  721MOL0     H97297   1.042   7.261   8.562  1.0081 -0.3587  0.5461
  721MOL0     H97298   1.093   7.123   8.668  0.0317 -0.5626  4.1055
  721MOL0     H97299   0.691   7.377   8.968 -0.2464  0.2784 -1.3499
  721MOL0     H97300   0.463   7.479   8.995 -0.1056 -0.2626  3.4063
  721MOL0     H97301   0.433   7.688   9.247 -0.5822  2.3693  2.9049
  721MOL0     H97302   0.471   7.850   9.227  0.2708 -0.0474  0.8017
  721MOL0     H97303   0.205   7.735   9.129  3.7880 -1.5962  0.3322
  721MOL0     H97304   0.217   7.798   9.292  1.6891 -0.4158 -0.1696
  721MOL0     H97305   0.296   7.977   9.054 -0.5164 -1.5699 -0.8539
  721MOL0     H97306   0.264   8.020   9.216 -0.7054  1.0276 -2.1829
  721MOL0     H97307   0.018   7.927   9.150  1.1466  0.3166  3.1769
  721MOL0     H97308   0.069   8.093   9.121 -0.6044  1.4270 -3.3555
  721MOL0     H97309   0.109   7.863   8.912  1.2566 -0.8595  0.4055
  721MOL0     H97310   0.167   8.023   8.897 -0.0302 -0.3542 -1.1833
  721MOL0     H97311  -0.120   7.953   8.944  2.6631 -0.2927  2.3624
  721MOL0     H97312  -0.067   8.112   8.888 -1.3282  0.5410  0.0602
  721MOL0     H97313  -0.080   7.854   8.727 -1.8013 -0.0567  0.0718
  721MOL0     H97314   0.023   7.988   8.678 -0.4412  0.6240  2.2104
  721MOL0     H97315  -0.189   8.136   8.721  3.3646  0.1068  1.8864
  721MOL0     H97316  -0.277   7.979   8.729  0.9098 -1.4030  0.4840
  721MOL0     H97317   0.673   7.854   9.057  0.1700 -1.3307  1.2510
  721MOL0     H97318   0.885   7.753   9.019  0.5207 -1.1231  2.9623
  721MOL0     H97319   1.163   7.595   8.922 -0.2513 -0.6054  0.7081
  721MOL0     H97320   1.400   7.535   8.903 -1.0258  1.1686  1.4413
  721MOL0     H97321   2.277   7.693   8.243  1.4486 -1.4347  2.9353
  721MOL0     H97322   2.260   7.943   8.248 -0.9417 -1.0242 -0.1065
  721MOL0     H97323   2.537   8.315   8.086 -1.4616  1.4130 -2.4914
  721MOL0     H97324   2.481   8.546   8.029  2.8037 -2.7315 -0.5712
  721MOL0     H97325   2.480   8.778   8.046 -0.1949 -1.2745 -2.9699
  721MOL0     H97326   2.325   8.732   7.961 -1.8746 -2.2200  1.4676
  721MOL0     H97327   2.368   8.971   7.976 -0.5093 -1.5254 -0.8951
  721MOL0     H97328   2.383   8.972   8.156 -3.3324  0.7282  1.4833
  721MOL0     H97329   2.152   8.974   8.172 -0.2178  3.5657 -0.4083
  721MOL0     H97330   2.134   8.857   8.021 -1.2906  3.1261 -3.2466
  721MOL0     H97331   2.184   9.159   8.016  0.5575 -0.0885 -4.3162
  721MOL0     H97332   2.019   9.089   8.027  0.4242 -1.3623  2.2345
  721MOL0     H97333   2.202   9.032   7.631  1.4044 -1.2860  0.9427
  721MOL0     H97334   2.205   8.573   8.360  0.0485  0.6172 -2.0272
  721MOL0     H97335   2.256   8.329   8.426  0.6680 -1.2865 -0.3873
  722MOL0     O97336   4.175   0.641   2.765  0.2529  0.1404 -0.2055
  722MOL0     C97337   4.161   0.757   2.792  0.1438 -0.1964  0.5904
  722MOL0     O97338   4.267   0.843   2.788 -0.3821 -0.0531  1.0092
  722MOL0     C97339   4.397   0.787   2.775 -0.2317 -0.3836  0.7838
  722MOL0     C97340   4.448   0.673   2.832 -0.2129  0.3473  0.6119
  722MOL0     C97341   4.590   0.650   2.825  0.3622  1.2390  0.2901
  722MOL0     C97342   4.671   0.728   2.735  0.2368  0.7387  0.6634
  722MOL0     O97343   4.808   0.714   2.736  0.7059  0.6125  0.4508
  722MOL0     C97344   4.878   0.742   2.615  0.0092  0.3173  0.2701
  722MOL0     C97345   5.021   0.679   2.631 -0.3452 -0.0146 -0.0350
  722MOL0     C97346   5.115   0.691   2.514  0.6357 -0.7583 -0.2059
  722MOL0     C97347   5.132   0.832   2.452  0.3347 -0.0765 -0.3795
  722MOL0     C97348   5.214   0.836   2.332 -0.2795  0.3710  0.6097
  722MOL0     C97349   5.186   0.953   2.238  0.1846  0.1652  0.1444
  722MOL0     C97350   5.316   0.989   2.158  0.2020 -0.9386  0.2747
  722MOL0     C97351   5.286   1.074   2.030 -0.5113  0.0948  0.4875
  722MOL0     N97352   5.409   1.140   1.978 -0.3779  0.0985 -0.8720
  722MOL0     C97353   5.416   1.222   1.859 -0.3416 -0.0113 -0.3049
  722MOL0     C97354   5.545   1.266   1.852 -0.1893  0.2479 -0.3174
  722MOL0     C97355   5.608   1.343   1.749 -0.3621 -0.9191  0.2427
  722MOL0     C97356   5.589   1.497   1.760 -0.2071 -0.6259 -0.5624
  722MOL0     C97357   5.684   1.573   1.668  0.0088  0.4273 -0.2040
  722MOL0     C97358   5.674   1.724   1.672 -0.5688 -0.0400  0.3360
  722MOL0     O97359   5.776   1.775   1.588  0.3951  0.1783  0.5784
  722MOL0     C97360   5.827   1.900   1.610  0.0453 -0.0912 -0.0219
  722MOL0     C97361   5.798   1.980   1.721  0.1931  0.2790  0.5884
  722MOL0     C97362   5.846   2.119   1.732 -0.1257  0.5382 -1.0098
  722MOL0     C97363   5.806   2.194   1.867  0.1932 -0.2887 -0.4381
  722MOL0     C97364   5.950   2.160   1.643  0.1900 -0.0014 -0.6933
  722MOL0     C97365   6.013   2.292   1.645 -0.6882 -0.0366  0.0250
  722MOL0     O97366   6.130   2.306   1.568  0.7749  0.0297  0.4105
  722MOL0     C97367   6.188   2.433   1.561  0.2787  0.1928  0.2866
  722MOL0     C97368   6.328   2.434   1.586  0.0450 -0.2408 -0.6909
  722MOL0     C97369   6.390   2.556   1.574 -0.2819  0.2400 -0.7825
  722MOL0     C97370   6.331   2.676   1.532 -0.0675 -0.4132  0.4970
  722MOL0     O97371   6.414   2.788   1.517  0.1570 -0.7696  0.3452
  722MOL0     C97372   6.361   2.913   1.467  1.0248 -0.6387  0.0900
  722MOL0     C97373   6.474   3.012   1.421  0.0137 -0.5369 -0.6084
  722MOL0     C97374   6.398   3.138   1.397  0.1554 -0.6325  1.0434
  722MOL0     C97375   6.353   3.168   1.251  0.1528  0.6587 -1.2496
  722MOL0     C97376   6.350   3.323   1.223  0.5003  0.0056  0.7366
  722MOL0     C97377   6.318   3.351   1.074  0.5842  0.1224  0.7636
  722MOL0     C97378   6.254   3.490   1.060 -0.2685 -0.1285 -0.8586
  722MOL0     C97379   6.221   3.532   0.914 -0.0230 -0.5035 -0.0629
  722MOL0    Cl97380   6.374   3.546   0.819  0.2470 -0.1426  0.6157
  722MOL0     C97381   6.188   2.672   1.525 -0.9205  0.2852  0.4463
  722MOL0     C97382   6.116   2.556   1.536  0.2583 -0.4896 -0.2308
  722MOL0     O97383   5.954   2.384   1.700 -0.8428  0.5940 -0.4197
  722MOL0     C97384   5.981   2.074   1.541 -1.1048  0.7460  0.3396
  722MOL0     C97385   5.922   1.953   1.518  0.9268  0.5411 -0.3535
  722MOL0     N97386   5.615   1.215   1.962 -0.9160 -1.1019  0.0945
  722MOL0     N97387   5.535   1.141   2.038 -0.7608  0.1104  0.4616
  722MOL0     C97388   4.619   0.836   2.673  0.1747  0.1119 -0.0756
  722MOL0     C97389   4.483   0.868   2.694  0.2042  0.3826 -0.1485
  722MOL0     C97390   4.023   0.809   2.813  0.0032  0.7194 -0.2237
  722MOL0     C97391   4.005   0.940   2.853  0.4734  0.1428 -0.2758
  722MOL0     C97392   3.881   1.003   2.875  0.1226  0.2895  0.1306
  722MOL0     C97393   3.767   0.915   2.859 -0.0771 -0.2887  0.1558
  722MOL0     O97394   3.648   0.989   2.863 -0.5050 -0.4813  0.7296
  722MOL0     C97395   3.533   0.927   2.799 -0.0401 -0.5436  0.1859
  722MOL0     C97396   3.395   0.937   2.868  0.1583  0.3788 -0.7987
  722MOL0     C97397   3.405   0.885   3.010 -0.1203  0.6589 -0.6503
  722MOL0     C97398   3.451   0.989   3.109 -0.8861 -0.3271  0.2527
  722MOL0     C97399   3.374   1.118   3.094 -0.3098 -0.0688 -0.2543
  722MOL0     C97400   3.323   1.225   3.095  0.3322  0.1238  0.5599
  722MOL0     C97401   3.780   0.790   2.810  0.0307 -0.0347  0.2118
  722MOL0     C97402   3.910   0.730   2.789  0.9250  0.2912  0.8221
  722MOL0     H97403   4.397   0.603   2.897  1.7118 -0.3983  1.4125
  722MOL0     H97404   4.639   0.570   2.879 -0.7872  1.6750  2.0553
  722MOL0     H97405   4.842   0.699   2.521 -3.3000  1.2817  0.9726
  722MOL0     H97406   4.903   0.848   2.610  0.6422  0.3251  2.4014
  722MOL0     H97407   5.068   0.707   2.725 -0.9044 -0.8807  0.5155
  722MOL0     H97408   5.003   0.571   2.640 -2.4971  0.4222  1.6722
  722MOL0     H97409   5.211   0.644   2.539  1.6392  0.1303 -2.1912
  722MOL0     H97410   5.064   0.647   2.428 -1.2056  1.3244 -0.2878
  722MOL0     H97411   5.036   0.883   2.439 -0.2945 -0.4266  2.1756
  722MOL0     H97412   5.178   0.892   2.532 -2.3723 -0.9756  2.0451
  722MOL0     H97413   5.316   0.846   2.370 -0.2103  0.3185  0.4363
  722MOL0     H97414   5.211   0.748   2.266  1.9836  2.2982 -2.3113
  722MOL0     H97415   5.105   0.924   2.170  1.5032  4.4620 -3.7376
  722MOL0     H97416   5.159   1.050   2.280 -0.5558  1.5883 -3.2222
  722MOL0     H97417   5.390   1.036   2.223 -1.7623  2.4038  0.2930
  722MOL0     H97418   5.366   0.900   2.117 -2.5529 -1.2442 -2.9075
  722MOL0     H97419   5.222   1.158   2.059  1.5834  1.7876  0.4370
  722MOL0     H97420   5.233   1.026   1.946  3.7278  2.0699 -3.8044
  722MOL0     H97421   5.345   1.258   1.785 -0.7820  0.1546  0.1898
  722MOL0     H97422   5.715   1.320   1.751 -0.4032 -1.0883  2.2197
  722MOL0     H97423   5.567   1.328   1.649 -1.1325  0.9937  0.2268
  722MOL0     H97424   5.602   1.526   1.865 -0.2678  0.3430 -0.8111
  722MOL0     H97425   5.487   1.522   1.729 -0.0088  1.2495  0.1644
  722MOL0     H97426   5.678   1.527   1.569 -0.5230 -1.8625  0.8323
  722MOL0     H97427   5.786   1.552   1.702  0.6898  1.7275 -1.3210
  722MOL0     H97428   5.708   1.759   1.770  0.6860  1.4952 -0.6084
  722MOL0     H97429   5.573   1.754   1.644 -0.3596  1.1303  0.7850
  722MOL0     H97430   5.733   1.958   1.806  3.0129  1.0823  3.1077
  722MOL0     H97431   5.763   2.291   1.841  1.2813 -0.1321 -1.7810
  722MOL0     H97432   5.752   2.131   1.938  1.1753 -1.3511 -0.5996
  722MOL0     H97433   5.891   2.221   1.931 -1.1875 -1.1226  1.8513
  722MOL0     H97434   6.376   2.348   1.632  2.0578  1.2366  0.1499
  722MOL0     H97435   6.496   2.563   1.597 -0.5669 -0.5344  0.9395
  722MOL0     H97436   6.306   2.891   1.375  2.8099  0.3576 -1.2860
  722MOL0     H97437   6.294   2.949   1.545  1.8766  0.9273  0.1426
  722MOL0     H97438   6.558   3.038   1.486  2.1298  1.2822 -3.8037
  722MOL0     H97439   6.528   2.966   1.338  0.6089 -3.4397  1.2261
  722MOL0     H97440   6.479   3.209   1.414 -0.5801  1.6014 -3.2612
  722MOL0     H97441   6.313   3.149   1.466 -0.5567 -2.2684  0.4884
  722MOL0     H97442   6.420   3.109   1.188 -2.3535 -3.5452 -0.3320
  722MOL0     H97443   6.253   3.127   1.237 -0.9322  1.6971  2.2894
  722MOL0     H97444   6.446   3.369   1.244  2.0130 -0.3993 -3.9629
  722MOL0     H97445   6.280   3.364   1.296  2.2753  0.2741  2.3503
  722MOL0     H97446   6.403   3.334   1.008  0.0420  1.5173 -0.3533
  722MOL0     H97447   6.247   3.271   1.056  1.3255 -0.4397  0.2661
  722MOL0     H97448   6.314   3.569   1.106 -3.0769 -0.0552  3.2340
  722MOL0     H97449   6.159   3.493   1.114  0.6486  1.6346  0.7973
  722MOL0     H97450   6.172   3.630   0.919  1.6523  0.3426  0.7587
  722MOL0     H97451   6.156   3.453   0.877 -2.1944  0.6633  1.0531
  722MOL0     H97452   6.139   2.763   1.490 -0.4683 -0.0656 -1.2094
  722MOL0     H97453   6.008   2.548   1.526  0.1884 -2.2559  1.4241
  722MOL0     H97454   6.045   2.110   1.461 -1.6723  2.2564  0.5159
  722MOL0     H97455   5.938   1.895   1.428  0.2908 -1.3525  0.7106
  722MOL0     H97456   4.675   0.913   2.622 -0.9817  1.2097  0.2545
  722MOL0     H97457   4.457   0.954   2.633 -1.1713  0.0416 -0.0752
  722MOL0     H97458   4.095   0.994   2.879  0.7975 -1.2904  1.7873
  722MOL0     H97459   3.877   1.111   2.882  1.7028  0.3528  0.4476
  722MOL0     H97460   3.522   0.978   2.703  4.6804 -1.5761 -1.1923
  722MOL0     H97461   3.538   0.824   2.761  1.4382  0.5945 -3.0607
  722MOL0     H97462   3.337   0.866   2.808  1.6423 -0.8442 -0.8508
  722MOL0     H97463   3.351   1.037   2.859 -2.6314 -0.5400  1.0614
  722MOL0     H97464   3.475   0.801   3.001  0.2877  0.7110  1.4915
  722MOL0     H97465   3.310   0.851   3.051  1.1917 -2.7613 -0.0962
  722MOL0     H97466   3.558   1.011   3.100 -0.6336 -0.2903  2.8317
  722MOL0     H97467   3.440   0.949   3.210  1.3024  1.5248  1.3168
  722MOL0     H97468   3.284   1.325   3.088 -0.3862 -0.2402 -1.3601
  722MOL0     H97469   3.699   0.720   2.792  0.0660  0.0498 -0.2742
  722MOL0     H97470   3.923   0.639   2.732 -0.7160  0.8880 -0.6052
  723MOL0     O97471   3.911   6.971   9.567 -0.2684 -0.2244 -0.3796
  723MOL0     C97472   3.802   6.937   9.598  0.0907 -0.5777  0.7056
  723MOL0     O97473   3.729   6.821   9.569  0.1491  0.3265  0.0405
  723MOL0     C97474   3.767   6.724   9.480  0.0134 -0.5405  0.1477
  723MOL0     C97475   3.896   6.703   9.444 -0.5050  0.3785  0.7599
  723MOL0     C97476   3.944   6.611   9.353  0.6662 -1.0652  0.4823
  723MOL0     C97477   3.852   6.524   9.291  0.5508 -0.3359  0.8604
  723MOL0     O97478   3.903   6.422   9.207 -0.0270  0.1723 -0.1839
  723MOL0     C97479   4.043   6.391   9.202  1.2233 -0.1159 -0.0950
  723MOL0     C97480   4.067   6.304   9.080  0.0823 -0.6697  0.2888
  723MOL0     C97481   3.991   6.169   9.100 -1.4827  0.2119 -0.5260
  723MOL0     C97482   3.995   6.092   8.967  0.0162  0.2082  0.4363
  723MOL0     C97483   3.931   5.953   8.983 -0.2743  0.3709  1.5297
  723MOL0     C97484   3.959   5.876   8.852  0.4717 -0.6441  0.0110
  723MOL0     C97485   3.891   5.740   8.847  0.0086 -0.1534  0.9362
  723MOL0     C97486   3.954   5.647   8.946  0.5109  0.1992  0.3418
  723MOL0     N97487   4.105   5.631   8.940  0.2904 -0.5967  0.6125
  723MOL0     C97488   4.167   5.548   8.854 -0.2641  0.1886  0.4122
  723MOL0     C97489   4.301   5.570   8.875  0.2510  0.0124 -0.2321
  723MOL0     C97490   4.411   5.498   8.818 -0.0274  0.0540  1.2359
  723MOL0     C97491   4.413   5.353   8.870  0.7845  0.3954 -0.4325
  723MOL0     C97492   4.549   5.288   8.819 -1.3480 -0.2888 -0.3391
  723MOL0     C97493   4.664   5.318   8.926  0.6213 -0.3923 -0.3674
  723MOL0     O97494   4.764   5.213   8.914 -0.3285  0.0188  0.5065
  723MOL0     C97495   4.730   5.084   8.957 -0.0331 -0.6423 -0.5428
  723MOL0     C97496   4.682   4.989   8.874  0.0106  0.5411 -0.8239
  723MOL0     C97497   4.643   4.864   8.920 -0.0434  0.4584 -0.1259
  723MOL0     C97498   4.588   4.766   8.805 -0.6144  1.4817 -0.7081
  723MOL0     C97499   4.650   4.825   9.053 -0.3176  0.9653  0.4138
  723MOL0     C97500   4.617   4.694   9.115  0.5717 -0.2116  0.9361
  723MOL0     O97501   4.562   4.680   9.243 -0.2633 -0.6650  1.1352
  723MOL0     C97502   4.514   4.564   9.289 -0.1507  0.9076  0.4303
  723MOL0     C97503   4.395   4.547   9.363 -0.0329 -0.8618  0.0184
  723MOL0     C97504   4.365   4.429   9.423  0.0648 -0.0165 -0.3098
  723MOL0     C97505   4.456   4.323   9.421  0.0706  0.6434  0.3002
  723MOL0     O97506   4.434   4.201   9.485 -0.0762  0.0888  0.1741
  723MOL0     C97507   4.307   4.168   9.538  0.3757  0.8776 -0.2214
  723MOL0     C97508   4.284   4.018   9.563 -0.1295 -0.4193  0.1909
  723MOL0     C97509   4.381   3.982   9.683 -1.0514 -0.0118 -0.1947
  723MOL0     C97510   4.374   3.840   9.729  0.0007 -0.5295 -0.4083
  723MOL0     C97511   4.439   3.813   9.870 -0.8860  0.4423  0.0610
  723MOL0     C97512   4.421   3.670   9.918 -0.0744  0.0831  0.3207
  723MOL0     C97513   4.517   3.566   9.854  0.4894 -0.3060 -0.0207
  723MOL0     C97514   4.640   3.518   9.935  0.1842  0.3185  0.2152
  723MOL0    Cl97515   4.564   3.455  10.085  0.3573 -0.6167 -0.4526
  723MOL0     C97516   4.572   4.330   9.349 -0.1323 -0.1444 -0.4296
  723MOL0     C97517   4.599   4.454   9.284  0.5621  0.2060 -0.3944
  723MOL0     O97518   4.642   4.599   9.043 -0.6311 -0.5156 -0.0148
  723MOL0     C97519   4.698   4.927   9.139 -0.5566 -1.8097  0.5580
  723MOL0     C97520   4.738   5.061   9.090 -0.8849 -0.3362 -0.4028
  723MOL0     N97521   4.319   5.651   8.985  0.1403 -0.2082  0.8565
  723MOL0     N97522   4.194   5.673   9.029  0.1710  0.2089  0.3908
  723MOL0     C97523   3.715   6.539   9.320  0.0658  0.3161 -0.0236
  723MOL0     C97524   3.676   6.638   9.419 -1.3173  0.5399 -0.1050
  723MOL0     C97525   3.720   7.044   9.676  0.2469 -0.2848  0.2312
  723MOL0     C97526   3.598   7.014   9.730  0.1058  0.2126 -0.1327
  723MOL0     C97527   3.523   7.109   9.789  0.2996 -0.2586  0.5468
  723MOL0     C97528   3.576   7.237   9.800  0.6424  0.2992 -0.2124
  723MOL0     O97529   3.502   7.323   9.875 -0.3885  1.0233 -0.0822
  723MOL0     C97530   3.565   7.448   9.919  0.5525  0.5114 -0.5971
  723MOL0     C97531   3.470   7.519  10.013  0.2636 -0.8132  1.3283
  723MOL0     C97532   3.528   7.660  10.054  0.0278  0.2271  0.8855
  723MOL0     C97533   3.442   7.745  10.140  0.1974  0.5646 -0.3755
  723MOL0     C97534   3.519   7.852  10.204 -1.1648 -0.9438 -0.0431
  723MOL0     C97535   3.576   7.944  10.264 -0.0728  0.7070  0.6682
  723MOL0     C97536   3.702   7.266   9.756  0.4410 -0.0202  0.0185
  723MOL0     C97537   3.778   7.170   9.697  0.4375 -0.2214  0.0463
  723MOL0     H97538   3.970   6.758   9.501 -0.8813  3.1019 -1.1662
  723MOL0     H97539   4.052   6.599   9.348  1.3312  3.3155  0.9511
  723MOL0     H97540   4.114   6.473   9.184  2.4968 -1.0205  0.6772
  723MOL0     H97541   4.071   6.354   9.301  0.2750  0.0545  0.2399
  723MOL0     H97542   4.027   6.348   8.987 -1.1246 -3.0769 -0.4245
  723MOL0     H97543   4.173   6.289   9.060  0.6559  1.4138  1.4437
  723MOL0     H97544   4.047   6.121   9.180 -0.3646  0.2183 -1.2881
  723MOL0     H97545   3.885   6.179   9.127 -1.9612  1.7068 -2.6646
  723MOL0     H97546   3.950   6.146   8.883  0.4069 -2.3058 -1.4913
  723MOL0     H97547   4.099   6.074   8.935 -0.8027 -0.2231 -2.2871
  723MOL0     H97548   3.970   5.898   9.069 -0.6172 -0.6027  1.0831
  723MOL0     H97549   3.822   5.959   8.988 -0.5012 -2.1699  1.0674
  723MOL0     H97550   3.914   5.934   8.770 -2.0238 -0.2511  1.5446
  723MOL0     H97551   4.066   5.856   8.843  1.0112  0.1403  3.5118
  723MOL0     H97552   3.784   5.753   8.869  0.0735  2.2743  0.1559
  723MOL0     H97553   3.902   5.694   8.749  0.4882 -0.7393  1.2623
  723MOL0     H97554   3.904   5.552   8.927 -1.1324  1.5010 -2.6145
  723MOL0     H97555   3.929   5.679   9.047  0.1549 -0.0958  0.3482
  723MOL0     H97556   4.117   5.491   8.777 -3.5851  0.1007  2.4320
  723MOL0     H97557   4.418   5.508   8.709 -0.7714  1.3595  1.2911
  723MOL0     H97558   4.505   5.548   8.843  0.9259  0.3082 -2.2306
  723MOL0     H97559   4.332   5.292   8.827  1.4674  0.8466 -2.4815
  723MOL0     H97560   4.396   5.349   8.978 -1.4132  0.6339 -0.7335
  723MOL0     H97561   4.581   5.325   8.721  0.6569 -1.3098 -0.1194
  723MOL0     H97562   4.534   5.180   8.803  2.0720 -0.6189 -2.1260
  723MOL0     H97563   4.616   5.313   9.024  0.9959  1.3398 -0.0787
  723MOL0     H97564   4.710   5.417   8.922  1.6798 -0.8685 -0.4107
  723MOL0     H97565   4.685   4.996   8.765  0.6277 -0.0944 -0.8550
  723MOL0     H97566   4.527   4.678   8.827  0.8543  0.5027 -0.3863
  723MOL0     H97567   4.551   4.816   8.715  0.1259  0.7362 -1.4402
  723MOL0     H97568   4.678   4.731   8.753 -1.9047 -2.5162 -0.5425
  723MOL0     H97569   4.319   4.620   9.389  1.3045  0.1095  1.3707
  723MOL0     H97570   4.277   4.433   9.485 -0.2350  2.3003 -0.7874
  723MOL0     H97571   4.282   4.216   9.633 -1.5945  0.5595 -0.5290
  723MOL0     H97572   4.232   4.191   9.462 -1.1481 -0.2393  0.9024
  723MOL0     H97573   4.177   3.997   9.579 -0.3200  0.4240  0.0683
  723MOL0     H97574   4.305   3.965   9.469 -1.1473 -0.7606  0.1429
  723MOL0     H97575   4.365   4.047   9.770  2.3135  1.3671 -0.4751
  723MOL0     H97576   4.474   4.007   9.632 -1.2943  0.1250 -0.5782
  723MOL0     H97577   4.267   3.820   9.736  0.2401 -1.5067  0.9230
  723MOL0     H97578   4.413   3.779   9.648  1.7044 -1.3323  0.9471
  723MOL0     H97579   4.393   3.873   9.948  2.5350  0.0692  2.6174
  723MOL0     H97580   4.546   3.835   9.864 -0.5448 -0.9030  0.8750
  723MOL0     H97581   4.435   3.667  10.027  3.3081 -2.7667  0.0113
  723MOL0     H97582   4.323   3.633   9.888  0.0070 -0.2433  0.4435
  723MOL0     H97583   4.562   3.598   9.760  0.1733 -0.3960 -0.2051
  723MOL0     H97584   4.459   3.474   9.845  0.3111 -0.0522 -1.6571
  723MOL0     H97585   4.703   3.605   9.957  4.1794 -1.6013 -2.5865
  723MOL0     H97586   4.705   3.451   9.879 -0.3747 -0.2061  0.1898
  723MOL0     H97587   4.634   4.242   9.339  0.5517 -0.2360  3.2498
  723MOL0     H97588   4.692   4.463   9.228 -0.2675  0.9138 -1.6909
  723MOL0     H97589   4.714   4.906   9.244 -2.2142 -2.2623  0.7411
  723MOL0     H97590   4.778   5.135   9.159  1.3456 -1.1031 -0.7877
  723MOL0     H97591   3.630   6.481   9.286  0.9531 -0.5231 -0.8821
  723MOL0     H97592   3.573   6.655   9.448 -0.9335  0.1792  1.6023
  723MOL0     H97593   3.546   6.920   9.713 -2.6751  1.7538 -0.7482
  723MOL0     H97594   3.425   7.102   9.836  0.3406 -1.5693  0.4794
  723MOL0     H97595   3.662   7.425   9.964  1.0044  0.9390 -1.3311
  723MOL0     H97596   3.589   7.515   9.836  4.1051  1.4676  0.9997
  723MOL0     H97597   3.455   7.458  10.103 -0.6829  0.8810  2.3717
  723MOL0     H97598   3.373   7.540   9.967  0.1778 -2.4218  0.7224
  723MOL0     H97599   3.553   7.708   9.959  0.4658 -0.9590  0.3830
  723MOL0     H97600   3.621   7.632  10.103  0.9294  2.6709  0.7086
  723MOL0     H97601   3.422   7.680  10.226  1.9070  0.2787 -0.1758
  723MOL0     H97602   3.358   7.785  10.082  0.2374 -1.0094 -1.5762
  723MOL0     H97603   3.611   8.017  10.334  1.7002  1.8607 -1.2948
  723MOL0     H97604   3.752   7.362   9.769 -1.1343  0.6663  1.4882
  723MOL0     H97605   3.876   7.201   9.662  0.9284 -2.6523 -0.9080
  724MOL0     O97606  10.482   8.034   0.257  0.0624 -0.2049 -0.0640
  724MOL0     C97607  10.457   7.980   0.154  0.6175 -0.7407 -0.1301
  724MOL0     O97608  10.333   7.947   0.113 -0.2244  0.6806  0.4167
  724MOL0     C97609  10.229   7.946   0.200 -0.7034  0.6539 -0.5042
  724MOL0     C97610  10.227   7.914   0.341 -0.4950  0.1194 -0.1060
  724MOL0     C97611  10.113   7.926   0.421 -0.4320  0.6229 -0.0466
  724MOL0     C97612  10.000   7.973   0.370 -0.1097  0.8731  0.1172
  724MOL0     O97613   9.902   7.975   0.472 -0.1165  0.2084  0.5978
  724MOL0     C97614   9.826   8.093   0.473  0.7705 -0.4645  0.2393
  724MOL0     C97615   9.887   8.225   0.500  0.1037  0.0355 -0.1520
  724MOL0     C97616   9.963   8.217   0.632  0.0063  1.2005  0.5441
  724MOL0     C97617   9.993   8.349   0.704  0.9124 -0.4354 -0.2676
  724MOL0     C97618  10.014   8.315   0.845  0.2540  0.2569  0.7042
  724MOL0     C97619  10.051   8.442   0.913  0.0225  0.2562 -0.2434
  724MOL0     C97620  10.078   8.443   1.068  0.0446 -0.0405  0.0640
  724MOL0     C97621  10.211   8.391   1.130 -0.4969  0.6180  0.2496
  724MOL0     N97622  10.193   8.351   1.265  0.4747 -0.0173 -0.0726
  724MOL0     C97623  10.108   8.413   1.356  0.5184  0.7467 -0.3349
  724MOL0     C97624  10.094   8.318   1.456 -0.4705 -0.1676 -0.4636
  724MOL0     C97625  10.004   8.344   1.572  0.7749  0.0070 -0.8664
  724MOL0     C97626  10.059   8.309   1.709  0.3980 -0.2721 -0.9871
  724MOL0     C97627   9.943   8.333   1.803  0.7141 -0.0420  1.0277
  724MOL0     C97628   9.984   8.326   1.948  0.3252  0.4161  0.0659
  724MOL0     O97629  10.046   8.453   1.981  0.4457 -0.0473  0.7002
  724MOL0     C97630  10.131   8.457   2.087  0.3826 -0.3187  0.1050
  724MOL0     C97631  10.118   8.547   2.190 -0.1853 -1.0513  0.2481
  724MOL0     C97632  10.209   8.560   2.295 -0.2746  0.1808  0.2615
  724MOL0     C97633  10.170   8.659   2.407 -0.1685  0.1880  0.3712
  724MOL0     C97634  10.319   8.455   2.301  0.2704  0.3962  0.7194
  724MOL0     C97635  10.406   8.434   2.417 -0.0704  0.1794  0.7615
  724MOL0     O97636  10.508   8.352   2.389 -0.0398  0.2169  0.4143
  724MOL0     C97637  10.601   8.329   2.485 -0.0860  0.3930 -0.3165
  724MOL0     C97638  10.582   8.224   2.580 -1.1253  0.0005  0.1075
  724MOL0     C97639  10.689   8.201   2.687 -0.4426 -0.5967  1.2368
  724MOL0     C97640  10.808   8.281   2.691  0.0835  0.4254  0.7395
  724MOL0     O97641  10.898   8.244   2.785  0.9050 -0.0418  0.4017
  724MOL0     C97642  11.034   8.253   2.748  0.5474  0.1618 -0.0975
  724MOL0     C97643  11.126   8.199   2.849  0.1643  0.3394 -0.2260
  724MOL0     C97644  11.111   8.051   2.884 -0.6350  0.7598  0.7462
  724MOL0     C97645  11.209   7.998   2.990 -0.0507 -1.0423  0.2316
  724MOL0     C97646  11.230   7.844   2.995 -0.8550  0.3591  0.1709
  724MOL0     C97647  11.246   7.778   2.859 -0.1383  0.4226  0.3006
  724MOL0     C97648  11.362   7.839   2.769 -0.4790  0.0765  0.1636
  724MOL0     C97649  11.355   7.781   2.619 -0.6323  0.8013  0.6230
  724MOL0    Cl97650  11.422   7.909   2.512  0.6205 -0.1475 -0.0588
  724MOL0     C97651  10.814   8.392   2.599 -0.7784 -0.2299  0.1900
  724MOL0     C97652  10.716   8.404   2.491 -1.3543  0.3610 -0.2757
  724MOL0     O97653  10.388   8.498   2.521 -0.1312  0.5645  0.6121
  724MOL0     C97654  10.319   8.357   2.192 -0.2675  0.4614 -0.6055
  724MOL0     C97655  10.230   8.368   2.084 -0.3886  0.2921  0.3402
  724MOL0     N97656  10.172   8.201   1.425  0.0811 -0.0171 -0.9846
  724MOL0     N97657  10.233   8.227   1.311 -0.5224 -0.7202 -0.4754
  724MOL0     C97658   9.986   7.994   0.236  0.7184 -1.0060  0.7753
  724MOL0     C97659  10.095   7.974   0.147 -1.0398  0.0892  0.7529
  724MOL0     C97660  10.563   7.953   0.055 -0.4159  0.8747 -0.8520
  724MOL0     C97661  10.685   8.017   0.061  0.0243  0.6622  0.0219
  724MOL0     C97662  10.789   7.974  -0.021 -0.9490 -0.9310 -0.3433
  724MOL0     C97663  10.768   7.889  -0.130  0.3691  0.6798 -0.3684
  724MOL0     O97664  10.871   7.830  -0.191  0.3834 -0.6351  0.7055
  724MOL0     C97665  10.952   7.932  -0.267 -0.8727  0.5502 -0.5985
  724MOL0     C97666  11.016   7.878  -0.398  1.4659 -0.6793 -0.8871
  724MOL0     C97667  11.129   7.784  -0.361 -0.2670  0.3894 -0.4929
  724MOL0     C97668  11.180   7.696  -0.475  0.1943 -0.4200 -0.2321
  724MOL0     C97669  11.097   7.572  -0.500 -0.3804 -0.4458  0.5268
  724MOL0     C97670  11.049   7.464  -0.538  0.3961 -1.1462 -0.1920
  724MOL0     C97671  10.639   7.836  -0.147 -0.5226 -0.7315  0.4516
  724MOL0     C97672  10.544   7.862  -0.049  0.3449 -0.0159 -0.3479
  724MOL0     H97673  10.323   7.886   0.385  0.3970  2.9157 -0.1154
  724MOL0     H97674  10.122   7.894   0.524  2.1909 -1.4378 -0.7934
  724MOL0     H97675   9.768   8.108   0.381  1.3109  0.1223 -0.0096
  724MOL0     H97676   9.752   8.067   0.549 -2.2216  0.8944 -1.9528
  724MOL0     H97677   9.961   8.253   0.424  1.4675 -2.2810  0.2365
  724MOL0     H97678   9.811   8.303   0.501  1.4390  1.4830 -2.2824
  724MOL0     H97679   9.891   8.162   0.694 -0.8367 -1.1779 -2.2783
  724MOL0     H97680  10.057   8.168   0.605  0.8946  3.5770 -0.8734
  724MOL0     H97681  10.083   8.383   0.652  0.2321 -0.2714 -1.3741
  724MOL0     H97682   9.915   8.425   0.688  1.2935  0.6073  2.3285
  724MOL0     H97683   9.921   8.272   0.884 -0.4363  1.5170  0.4812
  724MOL0     H97684  10.100   8.247   0.853  1.8378  2.2267  1.1012
  724MOL0     H97685  10.130   8.500   0.865  0.6778 -0.9922 -0.7468
  724MOL0     H97686   9.967   8.511   0.917  0.0571  0.2528  1.2982
  724MOL0     H97687  10.068   8.548   1.096  2.6711  0.4476 -0.5944
  724MOL0     H97688   9.998   8.377   1.104 -0.1960 -0.8621 -1.8489
  724MOL0     H97689  10.280   8.476   1.120  0.9434 -0.3693  1.3448
  724MOL0     H97690  10.256   8.301   1.088  0.3200 -0.9970  4.1177
  724MOL0     H97691  10.043   8.499   1.345 -1.7201 -0.5310  1.7807
  724MOL0     H97692   9.977   8.450   1.566  0.2530 -0.1454 -1.3103
  724MOL0     H97693   9.914   8.287   1.546  1.3418 -0.6068 -1.5366
  724MOL0     H97694  10.145   8.371   1.736 -1.4459  2.7235 -1.6120
  724MOL0     H97695  10.078   8.201   1.718  1.1444  0.0108  1.6120
  724MOL0     H97696   9.863   8.260   1.788 -0.9367  2.0782 -1.4734
  724MOL0     H97697   9.910   8.437   1.800  0.6089 -0.0871 -0.2008
  724MOL0     H97698  10.043   8.235   1.966  0.4469  0.4083 -0.3739
  724MOL0     H97699   9.892   8.312   2.006  0.1709 -0.9286 -0.4716
  724MOL0     H97700  10.028   8.608   2.196  0.8736  0.4055  2.8022
  724MOL0     H97701  10.069   8.698   2.391 -0.7696 -0.5606  2.0774
  724MOL0     H97702  10.178   8.612   2.506  1.2792 -0.2618  0.0646
  724MOL0     H97703  10.246   8.738   2.409  1.6087 -1.4380  0.9169
  724MOL0     H97704  10.502   8.154   2.558  1.0325 -2.6000 -0.0211
  724MOL0     H97705  10.691   8.106   2.740  2.0959 -1.5435 -0.3559
  724MOL0     H97706  11.048   8.199   2.654 -0.8969  0.6854 -0.6404
  724MOL0     H97707  11.065   8.358   2.744  2.1908 -0.2609  0.7942
  724MOL0     H97708  11.229   8.215   2.814  0.6052  0.0670  0.8952
  724MOL0     H97709  11.114   8.250   2.945  0.6056 -2.4537  1.4110
  724MOL0     H97710  11.123   7.997   2.790  1.0576 -1.7615  2.2862
  724MOL0     H97711  11.009   8.032   2.920 -2.3191  0.0986 -3.7856
  724MOL0     H97712  11.306   8.043   2.965  0.0514 -1.7606 -0.7206
  724MOL0     H97713  11.187   8.035   3.090 -3.6019 -3.8546  0.6704
  724MOL0     H97714  11.138   7.809   3.044 -0.8374  1.3256  0.9358
  724MOL0     H97715  11.312   7.822   3.064 -0.9086  0.6321  0.3238
  724MOL0     H97716  11.275   7.675   2.883 -0.4662 -0.0389 -1.2296
  724MOL0     H97717  11.150   7.765   2.809 -1.2245  1.1060  2.0913
  724MOL0     H97718  11.461   7.809   2.806  0.4070  1.8055 -0.6728
  724MOL0     H97719  11.372   7.947   2.756 -2.1013  0.0166 -2.2122
  724MOL0     H97720  11.257   7.748   2.583 -0.4909  0.2381  0.7450
  724MOL0     H97721  11.422   7.695   2.622 -2.1718 -0.4176  1.6872
  724MOL0     H97722  10.908   8.444   2.586 -0.1438 -1.6621 -1.3020
  724MOL0     H97723  10.735   8.478   2.413  1.6453 -0.6795 -0.6721
  724MOL0     H97724  10.378   8.267   2.205 -3.5642 -1.4346  3.6164
  724MOL0     H97725  10.243   8.307   1.996  1.6113  2.7079 -1.1694
  724MOL0     H97726   9.900   8.022   0.177 -0.3778 -2.0942  1.8224
  724MOL0     H97727  10.082   7.995   0.042  1.3801  2.8927  0.9053
  724MOL0     H97728  10.714   8.077   0.147  2.9855  0.3253 -0.6491
  724MOL0     H97729  10.885   8.022  -0.003 -0.1440 -1.6179 -2.4389
  724MOL0     H97730  10.882   8.013  -0.290 -0.3824  1.7968  1.9084
  724MOL0     H97731  11.035   7.981  -0.214 -2.0611 -2.7322  5.0800
  724MOL0     H97732  11.062   7.967  -0.442  0.3093 -0.0783 -0.9152
  724MOL0     H97733  10.941   7.845  -0.470  1.0610  1.0783 -1.3029
  724MOL0     H97734  11.082   7.716  -0.290 -0.8241  1.3173  0.0508
  724MOL0     H97735  11.215   7.834  -0.316 -0.4367  0.1709  0.0705
  724MOL0     H97736  11.281   7.665  -0.445 -0.1845  0.2243  1.9553
  724MOL0     H97737  11.199   7.754  -0.565  0.4347  0.7500  0.5427
  724MOL0     H97738  10.993   7.375  -0.562 -3.3798  0.7339  0.9384
  724MOL0     H97739  10.621   7.776  -0.236  0.4692  2.2871 -1.9630
  724MOL0     H97740  10.453   7.804  -0.042  1.0241 -0.9846  0.8925
  725MOL0     O97741   2.622   9.013  11.405 -0.5341  0.4046 -1.1365
  725MOL0     C97742   2.504   9.008  11.443 -0.0470 -0.3424 -0.6664
  725MOL0     O97743   2.419   9.119  11.457 -0.7618 -0.1911 -0.8325
  725MOL0     C97744   2.476   9.242  11.457 -1.1227  0.3365 -0.5210
  725MOL0     C97745   2.419   9.333  11.379  0.4713  0.9787 -0.1682
  725MOL0     C97746   2.478   9.459  11.373  0.0311  0.2026 -0.3698
  725MOL0     C97747   2.579   9.495  11.461 -0.6520 -0.1622 -0.2894
  725MOL0     O97748   2.613   9.621  11.469 -0.7744 -0.3959  0.6625
  725MOL0     C97749   2.750   9.656  11.441  0.5860 -0.5678 -0.3525
  725MOL0     C97750   2.743   9.793  11.364 -0.0041  0.9115  1.0730
  725MOL0     C97751   2.634   9.900  11.420  0.4404  0.5402  0.3369
  725MOL0     C97752   2.629  10.036  11.340  1.1124 -1.1825  0.6450
  725MOL0     C97753   2.493  10.111  11.392  0.1877  0.4657  0.5426
  725MOL0     C97754   2.505  10.262  11.372  0.0447 -0.6256  0.3016
  725MOL0     C97755   2.447  10.306  11.236 -0.1681  0.0640  0.1839
  725MOL0     C97756   2.544  10.269  11.121 -0.2757 -0.2823  1.1900
  725MOL0     N97757   2.673  10.346  11.130 -0.3792 -0.4372 -0.1988
  725MOL0     C97758   2.680  10.483  11.119 -0.3056  0.2226  0.0171
  725MOL0     C97759   2.802  10.514  11.166  0.3677  0.2014  0.6635
  725MOL0     C97760   2.860  10.638  11.188 -0.8920 -0.0834  0.5826
  725MOL0     C97761   2.759  10.742  11.206 -0.0003  0.0349  0.1585
  725MOL0     C97762   2.820  10.873  11.261 -0.0043 -0.0115 -0.0558
  725MOL0     C97763   2.744  10.942  11.383  0.0281  0.3564  0.0844
  725MOL0     O97764   2.741  10.861  11.502 -0.9102 -0.0930 -0.0572
  725MOL0     C97765   2.740  10.917  11.625 -0.2526 -0.6677 -0.2294
  725MOL0     C97766   2.775  10.832  11.728 -0.8351  0.0226 -0.0662
  725MOL0     C97767   2.763  10.882  11.857  0.6949  0.0548  0.0439
  725MOL0     C97768   2.825  10.785  11.969  0.4636 -0.5088 -0.1560
  725MOL0     C97769   2.719  11.023  11.880  1.0206  1.4448 -0.2498
  725MOL0     C97770   2.706  11.073  12.017 -0.8943 -0.8229 -0.9024
  725MOL0     O97771   2.686  10.987  12.128 -0.2402 -0.6941  0.8138
  725MOL0     C97772   2.689  11.027  12.257  1.0826  0.1721  0.7601
  725MOL0     C97773   2.608  10.942  12.338 -1.3493  0.4138  0.1462
  725MOL0     C97774   2.606  10.958  12.475  0.0245 -0.3460 -0.7994
  725MOL0     C97775   2.691  11.058  12.538  0.1652 -0.3235  0.2433
  725MOL0     O97776   2.675  11.063  12.671  0.4811 -0.5871 -0.4158
  725MOL0     C97777   2.796  11.099  12.753  0.4597  0.5003 -0.2112
  725MOL0     C97778   2.761  11.231  12.832  0.3881  0.2927 -0.5145
  725MOL0     C97779   2.651  11.210  12.932  0.0517 -0.6447 -0.2122
  725MOL0     C97780   2.602  11.351  12.980  0.0924 -0.2802  0.4943
  725MOL0     C97781   2.475  11.349  13.069 -0.3739 -0.4800 -0.0471
  725MOL0     C97782   2.345  11.331  12.984  0.7331 -0.0905 -0.1700
  725MOL0     C97783   2.264  11.457  12.960 -0.0623 -0.2267  0.4556
  725MOL0     C97784   2.143  11.429  12.868  0.2248 -0.5899  0.3704
  725MOL0    Cl97785   2.002  11.356  12.941 -0.2090 -0.5780 -0.0721
  725MOL0     C97786   2.767  11.152  12.461  0.1214 -0.1630  0.1997
  725MOL0     C97787   2.770  11.125  12.323 -0.3097 -0.6831 -0.2934
  725MOL0     O97788   2.709  11.195  12.015 -0.2335  0.3173  0.0219
  725MOL0     C97789   2.675  11.095  11.771  0.4303  0.2420 -0.1686
  725MOL0     C97790   2.688  11.045  11.643 -0.4698 -0.8566 -0.3239
  725MOL0     N97791   2.863  10.400  11.198 -0.4590  0.4222  0.0519
  725MOL0     N97792   2.787  10.292  11.162 -0.5640 -0.4084 -0.0123
  725MOL0     C97793   2.634   9.399  11.545 -0.0826  0.4127  0.1432
  725MOL0     C97794   2.583   9.272  11.550  0.2821  0.0146 -0.8261
  725MOL0     C97795   2.454   8.881  11.487  0.1330 -0.1534 -0.3630
  725MOL0     C97796   2.342   8.879  11.564  0.1671  0.4414  0.5609
  725MOL0     C97797   2.297   8.754  11.623  0.4952  0.4164 -0.5438
  725MOL0     C97798   2.364   8.629  11.590 -0.6850 -0.7705 -0.3817
  725MOL0     O97799   2.337   8.508  11.654  0.6241  0.3779  0.2029
  725MOL0     C97800   2.225   8.502  11.741  0.1971 -0.2197  0.2808
  725MOL0     C97801   2.253   8.529  11.885  0.3709  0.2181 -0.7996
  725MOL0     C97802   2.390   8.463  11.920 -0.5402 -0.9360 -0.2465
  725MOL0     C97803   2.431   8.469  12.065  1.0991 -0.8104 -0.7526
  725MOL0     C97804   2.565   8.409  12.093 -0.3729  0.3764 -0.1058
  725MOL0     C97805   2.671   8.368  12.118 -0.2525 -0.2974  0.1184
  725MOL0     C97806   2.471   8.631  11.505  1.0742  0.8000 -0.5572
  725MOL0     C97807   2.508   8.754  11.451 -0.7566 -0.0685  0.5300
  725MOL0     H97808   2.343   9.307  11.307  1.3633  0.4137 -0.9274
  725MOL0     H97809   2.451   9.534  11.298 -0.2411  1.7423  1.2010
  725MOL0     H97810   2.803   9.667  11.536  2.1608  1.8827 -1.4285
  725MOL0     H97811   2.800   9.577  11.384  0.5926 -0.4733 -0.4758
  725MOL0     H97812   2.839   9.845  11.367  1.0519 -0.7958 -0.9645
  725MOL0     H97813   2.734   9.763  11.259  1.2564 -1.2130  1.5097
  725MOL0     H97814   2.536   9.851  11.419  0.7917 -0.2798 -2.4758
  725MOL0     H97815   2.663   9.912  11.525  0.5864 -2.0846  0.6557
  725MOL0     H97816   2.718  10.096  11.362  0.8888  0.2813 -2.0531
  725MOL0     H97817   2.636  10.019  11.232 -1.8438  3.7199 -0.6280
  725MOL0     H97818   2.401  10.077  11.343  1.2397 -0.8148 -0.6562
  725MOL0     H97819   2.479  10.095  11.499  2.3787  1.7249  1.0870
  725MOL0     H97820   2.439  10.309  11.446  1.1292 -0.9461  1.5107
  725MOL0     H97821   2.605  10.304  11.386 -1.0373  2.3138  0.0049
  725MOL0     H97822   2.349  10.268  11.207 -0.4939  3.2005 -3.7023
  725MOL0     H97823   2.447  10.415  11.234  1.4675  0.1231  1.1770
  725MOL0     H97824   2.500  10.303  11.026  3.1726  2.0092  0.2349
  725MOL0     H97825   2.567  10.162  11.116  1.6171  0.1487 -1.0098
  725MOL0     H97826   2.601  10.550  11.087 -1.8138 -1.2240  0.6006
  725MOL0     H97827   2.929  10.637  11.273  0.5658  0.1452 -0.5517
  725MOL0     H97828   2.919  10.664  11.099  1.3165 -1.2650  1.6132
  725MOL0     H97829   2.684  10.711  11.279 -0.2790  1.8305  0.6926
  725MOL0     H97830   2.702  10.763  11.115  0.5451 -0.8313 -0.3965
  725MOL0     H97831   2.809  10.954  11.188 -1.5501  0.2021  0.3805
  725MOL0     H97832   2.923  10.858  11.294 -0.8564 -1.7549  2.0532
  725MOL0     H97833   2.646  10.974  11.345 -0.4824 -2.3431 -1.1144
  725MOL0     H97834   2.809  11.024  11.417  0.0748  0.1063  0.6070
  725MOL0     H97835   2.817  10.733  11.715 -2.6391 -0.7853  0.0305
  725MOL0     H97836   2.904  10.831  12.028 -2.7736  1.9311  2.6570
  725MOL0     H97837   2.749  10.765  12.045  1.6518 -1.5477  0.8056
  725MOL0     H97838   2.854  10.691  11.920  0.2097 -0.4095 -0.5020
  725MOL0     H97839   2.557  10.853  12.303 -0.6483  0.1345 -0.1759
  725MOL0     H97840   2.531  10.914  12.541  1.0317  0.9572  1.3264
  725MOL0     H97841   2.814  11.006  12.807 -0.5922 -1.6306 -3.2576
  725MOL0     H97842   2.889  11.099  12.697  1.3780 -2.3344  1.1515
  725MOL0     H97843   2.853  11.249  12.889  0.5709  0.6115 -0.9036
  725MOL0     H97844   2.735  11.304  12.756 -0.8659  1.7039  1.1817
  725MOL0     H97845   2.688  11.157  13.021 -0.3398  0.5031  0.6571
  725MOL0     H97846   2.563  11.150  12.905  0.1229 -1.2208  0.7644
  725MOL0     H97847   2.676  11.403  13.042 -0.7282  2.8619 -0.9300
  725MOL0     H97848   2.584  11.415  12.892 -0.8315 -1.5388 -0.2561
  725MOL0     H97849   2.463  11.447  13.116 -0.0226  0.0021 -0.9357
  725MOL0     H97850   2.486  11.274  13.148  1.3004  0.2505  0.4648
  725MOL0     H97851   2.378  11.303  12.884 -0.1900  0.5960 -0.6787
  725MOL0     H97852   2.292  11.245  13.027 -0.8221  0.7629 -0.2979
  725MOL0     H97853   2.326  11.534  12.914  0.3423 -0.4354  0.6492
  725MOL0     H97854   2.236  11.512  13.050  0.3568  2.8023 -1.1403
  725MOL0     H97855   2.174  11.379  12.776  0.4296  0.9219 -0.4223
  725MOL0     H97856   2.133  11.533  12.834  3.6029 -0.1004  0.5256
  725MOL0     H97857   2.811  11.237  12.512 -0.6226 -0.6333  1.7159
  725MOL0     H97858   2.837  11.177  12.255  0.3081  2.3351  2.4239
  725MOL0     H97859   2.623  11.189  11.788  0.3400  0.7600 -2.8065
  725MOL0     H97860   2.672  11.110  11.557  0.1841 -1.7097 -1.1185
  725MOL0     H97861   2.705   9.440  11.615  1.4969  2.1018 -2.3093
  725MOL0     H97862   2.620   9.185  11.604  1.3635 -1.8160 -4.1912
  725MOL0     H97863   2.296   8.969  11.604  0.7057  0.9906 -0.0365
  725MOL0     H97864   2.216   8.763  11.694  1.2530  1.7395  0.2012
  725MOL0     H97865   2.142   8.556  11.696 -0.2431 -3.6330 -3.5553
  725MOL0     H97866   2.196   8.396  11.743  0.1465 -0.3041 -1.9912
  725MOL0     H97867   2.171   8.495  11.950  1.9983 -0.4438  1.0177
  725MOL0     H97868   2.257   8.638  11.895 -1.5060  0.1072  4.4248
  725MOL0     H97869   2.473   8.508  11.865 -1.0599 -1.8022 -1.7763
  725MOL0     H97870   2.381   8.357  11.895  2.2763 -1.0975 -0.9553
  725MOL0     H97871   2.360   8.419  12.130 -1.2376  0.6130 -2.0447
  725MOL0     H97872   2.435   8.573  12.101 -2.4571 -1.3087  1.5653
  725MOL0     H97873   2.772   8.340  12.140 -0.2998 -1.0358 -0.5540
  725MOL0     H97874   2.528   8.546  11.468 -0.3765 -0.8826  0.8899
  725MOL0     H97875   2.592   8.745  11.383  2.0479  1.1653  3.5516
  726MOL0     O97876   3.578   7.760   6.649 -0.4087 -0.0609 -0.7162
  726MOL0     C97877   3.462   7.772   6.605  0.6511 -0.6880 -0.9276
  726MOL0     O97878   3.396   7.890   6.603  0.5321  0.2223  0.9272
  726MOL0     C97879   3.444   8.010   6.663  0.2584  1.0594 -0.4302
  726MOL0     C97880   3.492   8.003   6.796 -0.0460 -1.1790 -0.2319
  726MOL0     C97881   3.563   8.112   6.856  0.5075 -1.4698 -0.2209
  726MOL0     C97882   3.575   8.232   6.777  0.3918 -0.7095 -0.6650
  726MOL0     O97883   3.637   8.339   6.836  0.1096  0.2868  0.0128
  726MOL0     C97884   3.617   8.472   6.787  1.2558 -0.1950 -0.8534
  726MOL0     C97885   3.657   8.569   6.897  0.2959 -0.1582  0.3810
  726MOL0     C97886   3.809   8.568   6.912 -0.1054 -1.5547 -0.8606
  726MOL0     C97887   3.878   8.706   6.878 -0.6167  0.3239  0.2865
  726MOL0     C97888   4.026   8.694   6.890 -0.1691  0.8567  0.4586
  726MOL0     C97889   4.093   8.611   6.782  1.0134  0.5029  0.1432
  726MOL0     C97890   4.242   8.656   6.771 -0.0160  0.1075 -0.1122
  726MOL0     C97891   4.254   8.787   6.694 -0.6606 -0.5360 -0.1534
  726MOL0     N97892   4.401   8.804   6.672 -0.1171 -0.0816 -1.1271
  726MOL0     C97893   4.503   8.766   6.766  0.3281 -1.0013 -0.2175
  726MOL0     C97894   4.622   8.772   6.694 -0.5181  0.5290 -0.2204
  726MOL0     C97895   4.756   8.738   6.747  0.4213 -0.0891  0.9240
  726MOL0     C97896   4.783   8.593   6.751 -0.3559  0.5429  0.3270
  726MOL0     C97897   4.922   8.557   6.811 -0.3398  0.8180  0.1804
  726MOL0     C97898   4.927   8.529   6.962 -0.4337 -0.8680 -0.4259
  726MOL0     O97899   4.838   8.418   6.976  0.1651  0.1587 -0.0020
  726MOL0     C97900   4.734   8.426   7.063 -0.8158 -0.0223  0.0645
  726MOL0     C97901   4.613   8.380   7.019  0.4107  0.8981 -0.5389
  726MOL0     C97902   4.496   8.389   7.096  0.1005  0.4445 -0.3405
  726MOL0     C97903   4.371   8.329   7.040  1.3561 -0.3858  0.1352
  726MOL0     C97904   4.495   8.462   7.215  0.3252  0.0942 -0.3409
  726MOL0     C97905   4.372   8.491   7.293 -0.0854  0.4965  0.6186
  726MOL0     O97906   4.246   8.446   7.261 -0.1928  0.3695 -0.6829
  726MOL0     C97907   4.132   8.472   7.333  0.5101  0.4554  0.9323
  726MOL0     C97908   4.051   8.577   7.292  0.1770  0.3922 -0.2167
  726MOL0     C97909   3.930   8.599   7.358  0.0715  0.6003  0.1993
  726MOL0     C97910   3.877   8.523   7.457  0.0904  0.1702 -0.6991
  726MOL0     O97911   3.768   8.558   7.550  0.4889  0.3091  0.7798
  726MOL0     C97912   3.750   8.699   7.590  0.3711 -0.2657 -0.2863
  726MOL0     C97913   3.792   8.721   7.734  0.0678  0.7700  0.9202
  726MOL0     C97914   3.789   8.859   7.802 -0.2661  0.1657  0.6796
  726MOL0     C97915   3.918   8.943   7.799 -0.4017 -0.3601  0.4558
  726MOL0     C97916   3.905   9.081   7.861  0.0685  1.1532  0.0255
  726MOL0     C97917   3.996   9.097   7.975 -0.4218 -0.2099  0.2403
  726MOL0     C97918   3.956   9.214   8.062  0.9318 -0.2349 -0.0571
  726MOL0     C97919   4.071   9.269   8.151 -1.4080  0.2621 -0.9581
  726MOL0    Cl97920   4.015   9.405   8.251  0.1919 -0.1814 -0.1940
  726MOL0     C97921   3.965   8.421   7.503 -0.0473  0.4391 -0.7355
  726MOL0     C97922   4.094   8.395   7.439  0.0650 -0.3697  0.3387
  726MOL0     O97923   4.399   8.560   7.383  0.1465 -0.4064  0.5138
  726MOL0     C97924   4.626   8.510   7.253  0.5133  1.1098 -0.8392
  726MOL0     C97925   4.739   8.487   7.179 -0.7569 -0.7503 -0.0727
  726MOL0     N97926   4.586   8.808   6.569 -0.3034 -0.1063  0.2513
  726MOL0     N97927   4.464   8.811   6.548 -0.2517 -0.2075 -0.8203
  726MOL0     C97928   3.524   8.235   6.648  0.9196  0.1687 -0.6665
  726MOL0     C97929   3.460   8.130   6.595  1.2089 -0.2986 -0.4021
  726MOL0     C97930   3.377   7.655   6.565 -0.0173 -0.1257 -1.0766
  726MOL0     C97931   3.251   7.676   6.597 -1.5745  0.3047 -0.0348
  726MOL0     C97932   3.162   7.584   6.554  0.0980 -1.4470 -0.0969
  726MOL0     C97933   3.201   7.457   6.493  0.3444 -0.7126 -0.8845
  726MOL0     O97934   3.131   7.357   6.432  0.1899 -0.2323  0.2912
  726MOL0     C97935   3.012   7.405   6.366 -1.0500 -0.7965 -0.7830
  726MOL0     C97936   2.937   7.289   6.295 -0.7916 -1.0583 -0.2400
  726MOL0     C97937   2.797   7.254   6.352 -0.4573 -0.3425 -0.4811
  726MOL0     C97938   2.786   7.232   6.511 -0.3854  0.1271  0.3088
  726MOL0     C97939   2.896   7.156   6.573  0.0221 -0.5376  0.3735
  726MOL0     C97940   2.958   7.079   6.644  0.6155  0.5863  0.4312
  726MOL0     C97941   3.341   7.441   6.469  0.5045  0.1149  0.1353
  726MOL0     C97942   3.428   7.536   6.511 -0.5375  1.0964  0.3047
  726MOL0     H97943   3.473   7.918   6.861  0.9302  0.4891  2.4184
  726MOL0     H97944   3.615   8.114   6.951 -1.2481  2.5127  0.8454
  726MOL0     H97945   3.671   8.496   6.696 -1.1063 -1.1518 -2.6295
  726MOL0     H97946   3.510   8.491   6.769  1.4149  2.3817  0.4631
  726MOL0     H97947   3.626   8.673   6.882 -1.5779 -0.5909  1.0101
  726MOL0     H97948   3.612   8.543   6.993 -1.1528  2.1146  0.3986
  726MOL0     H97949   3.827   8.541   7.016 -1.5248 -0.3172 -0.2457
  726MOL0     H97950   3.848   8.486   6.851 -0.3214 -1.6474 -0.8753
  726MOL0     H97951   3.852   8.728   6.774  2.8818 -3.0153 -1.5638
  726MOL0     H97952   3.838   8.783   6.945 -0.1143  0.8539 -0.0103
  726MOL0     H97953   4.064   8.796   6.882  2.8724 -0.2921 -1.2959
  726MOL0     H97954   4.055   8.651   6.986 -0.0382 -1.5238 -0.5600
  726MOL0     H97955   4.067   8.510   6.814 -2.2498  0.6134 -1.6600
  726MOL0     H97956   4.049   8.615   6.682  1.5388 -1.3093 -0.2017
  726MOL0     H97957   4.272   8.657   6.876  1.9460 -3.2275 -0.5043
  726MOL0     H97958   4.293   8.570   6.728 -0.3118 -1.0893  1.8118
  726MOL0     H97959   4.219   8.868   6.758  0.7068 -0.1324  0.1184
  726MOL0     H97960   4.204   8.770   6.598  1.8175  0.8280 -1.8293
  726MOL0     H97961   4.495   8.721   6.865  2.2116 -4.3902 -1.4446
  726MOL0     H97962   4.829   8.786   6.681  0.4017 -1.8537 -0.4615
  726MOL0     H97963   4.783   8.778   6.845  1.3079 -2.4363  1.7121
  726MOL0     H97964   4.773   8.542   6.654  2.9614 -0.8711  0.5993
  726MOL0     H97965   4.709   8.550   6.819 -2.2585  1.9958 -0.7318
  726MOL0     H97966   4.992   8.638   6.791 -2.4325  2.8477  0.6742
  726MOL0     H97967   4.968   8.470   6.763  2.1112  0.5280  2.8353
  726MOL0     H97968   4.897   8.618   7.018  0.2504 -1.1838  0.4613
  726MOL0     H97969   5.024   8.502   7.004 -0.4444 -0.6547 -0.2659
  726MOL0     H97970   4.601   8.340   6.919 -0.0526 -2.6332  0.7645
  726MOL0     H97971   4.294   8.402   7.011  1.9401 -0.0095 -0.4883
  726MOL0     H97972   4.400   8.268   6.954  4.2958 -0.4948  1.0929
  726MOL0     H97973   4.322   8.271   7.119 -1.4584  3.2225  1.3431
  726MOL0     H97974   4.069   8.636   7.203  4.0820 -1.4143 -0.8577
  726MOL0     H97975   3.881   8.692   7.332  0.6177  1.8337  3.0977
  726MOL0     H97976   3.808   8.772   7.533 -0.9249  1.0339 -0.0097
  726MOL0     H97977   3.643   8.719   7.578 -0.8771 -3.3825  3.5551
  726MOL0     H97978   3.726   8.663   7.799 -1.1147  3.4879  2.3355
  726MOL0     H97979   3.887   8.670   7.750 -0.7370 -1.0594  0.1234
  726MOL0     H97980   3.767   8.851   7.909  0.9888  1.3270  1.0542
  726MOL0     H97981   3.716   8.921   7.750 -0.5206  0.0501  0.8962
  726MOL0     H97982   3.987   8.884   7.861  0.1428 -0.2590 -0.0502
  726MOL0     H97983   3.945   8.958   7.695 -2.7046  0.6047 -0.0627
  726MOL0     H97984   3.801   9.089   7.893 -0.4743 -1.1709 -0.9644
  726MOL0     H97985   3.917   9.151   7.778  0.7517 -2.7491 -3.4820
  726MOL0     H97986   4.006   9.008   8.038 -2.3420  0.1866  1.1993
  726MOL0     H97987   4.097   9.117   7.938 -0.7941  0.7251 -0.3065
  726MOL0     H97988   3.880   9.193   8.138 -1.3979 -0.1305 -2.2232
  726MOL0     H97989   3.920   9.292   7.995 -1.3623 -0.3859  0.9199
  726MOL0     H97990   4.167   9.293   8.105  0.2969 -1.9243  1.1699
  726MOL0     H97991   4.110   9.187   8.212 -1.3120  0.6556 -0.4803
  726MOL0     H97992   3.926   8.359   7.584  0.0953  1.7393  0.3650
  726MOL0     H97993   4.149   8.312   7.483 -1.4127 -0.9422  1.1829
  726MOL0     H97994   4.637   8.565   7.346 -4.0711 -0.0718  0.6936
  726MOL0     H97995   4.826   8.537   7.220 -1.0407  2.5238 -2.9496
  726MOL0     H97996   3.559   8.313   6.580 -4.3666  1.9703 -1.7655
  726MOL0     H97997   3.440   8.130   6.489  1.0298  0.5456 -0.3745
  726MOL0     H97998   3.199   7.767   6.626 -1.7562  1.5405 -3.6384
  726MOL0     H97999   3.059   7.616   6.566  0.5637 -0.1230  0.5509
  726MOL0     H98000   2.953   7.446   6.449  2.4048  1.7951  0.6384
  726MOL0     H98001   3.042   7.475   6.287 -0.4336  0.1251  0.2407
  726MOL0     H98002   3.005   7.204   6.299 -2.5038 -2.4513  1.0013
  726MOL0     H98003   2.924   7.304   6.187 -1.6319  0.6088  0.0695
  726MOL0     H98004   2.764   7.163   6.302 -1.6723 -0.4501  0.4537
  726MOL0     H98005   2.727   7.333   6.323  1.2315  1.8137  0.9465
  726MOL0     H98006   2.698   7.171   6.530  0.8265 -1.4331  1.1039
  726MOL0     H98007   2.767   7.329   6.559 -1.2293 -0.9183  2.2066
  726MOL0     H98008   3.011   7.009   6.706  1.3979  0.4088 -0.4122
  726MOL0     H98009   3.387   7.355   6.421 -2.0998 -2.0665  1.2583
  726MOL0     H98010   3.534   7.534   6.489 -0.2099  0.4162  1.8284
  727MOL0     O98011   1.151   7.197   3.733 -0.4351 -0.4622 -0.4655
  727MOL0     C98012   1.117   7.270   3.823  1.4489 -0.0441  1.2628
  727MOL0     O98013   1.117   7.407   3.812  0.1922 -0.6329 -0.0174
  727MOL0     C98014   1.177   7.484   3.715 -0.7552 -0.8157 -0.1643
  727MOL0     C98015   1.263   7.441   3.611  0.0400  0.2861  0.1257
  727MOL0     C98016   1.311   7.532   3.515 -0.2257 -1.2352  0.9720
  727MOL0     C98017   1.284   7.671   3.532  0.4332  0.0452 -0.8858
  727MOL0     O98018   1.339   7.770   3.461  0.7674  0.4635  0.3205
  727MOL0     C98019   1.456   7.750   3.380 -0.5861  0.4434 -0.2257
  727MOL0     C98020   1.563   7.851   3.415 -1.1761  0.2940 -0.1061
  727MOL0     C98021   1.644   7.797   3.530  0.7263 -0.0196 -0.3763
  727MOL0     C98022   1.735   7.907   3.583 -0.9111  0.8754 -1.3703
  727MOL0     C98023   1.828   7.869   3.707  0.0709  0.8274  0.1618
  727MOL0     C98024   1.938   7.770   3.677 -0.2189 -0.2070 -0.2318
  727MOL0     C98025   2.033   7.738   3.794 -0.0369  0.0617 -0.8062
  727MOL0     C98026   1.980   7.666   3.922  0.5516  0.3097 -0.0800
  727MOL0     N98027   2.068   7.664   4.045 -0.8765  1.0292  0.5677
  727MOL0     C98028   2.060   7.555   4.133  0.0626 -0.0321  0.3334
  727MOL0     C98029   2.139   7.594   4.236 -0.2767 -1.1950  0.7582
  727MOL0     C98030   2.178   7.528   4.363 -0.9140  1.1028  1.2880
  727MOL0     C98031   2.081   7.559   4.476 -0.0088 -0.2130  0.0672
  727MOL0     C98032   2.138   7.511   4.611  0.0226  0.7713  0.7246
  727MOL0     C98033   2.207   7.609   4.695  0.5675 -0.9987 -0.2531
  727MOL0     O98034   2.312   7.670   4.628  0.1651  0.2232  0.0939
  727MOL0     C98035   2.400   7.737   4.701 -0.7420  1.1137  0.7108
  727MOL0     C98036   2.406   7.738   4.837  0.2340 -0.0123 -1.0280
  727MOL0     C98037   2.516   7.800   4.900  0.3131  0.4437 -0.0746
  727MOL0     C98038   2.533   7.780   5.049  0.4244 -0.0047  0.2590
  727MOL0     C98039   2.603   7.889   4.823 -0.3758  0.3871 -1.0530
  727MOL0     C98040   2.718   7.971   4.871  0.1514 -0.4057  0.5263
  727MOL0     O98041   2.783   8.035   4.775 -0.4844  0.1428 -0.2343
  727MOL0     C98042   2.899   8.116   4.797 -0.2422  0.2154  0.3737
  727MOL0     C98043   2.985   8.120   4.901  0.3727 -0.5263  0.0779
  727MOL0     C98044   3.103   8.187   4.898 -1.0021 -0.2005  0.2504
  727MOL0     C98045   3.142   8.276   4.794  1.1896  0.6107  1.1539
  727MOL0     O98046   3.262   8.346   4.789 -1.0261 -0.4586 -0.0292
  727MOL0     C98047   3.298   8.433   4.680 -0.6609 -0.3337  0.3382
  727MOL0     C98048   3.444   8.469   4.702 -0.9094  0.3784  0.6750
  727MOL0     C98049   3.490   8.586   4.610  1.0472  0.6471  0.6706
  727MOL0     C98050   3.640   8.621   4.619 -0.0236 -0.1493  0.1409
  727MOL0     C98051   3.732   8.504   4.562  0.1478  0.4484 -0.0209
  727MOL0     C98052   3.880   8.553   4.577  0.8336  0.3202  0.2459
  727MOL0     C98053   3.987   8.465   4.520  0.4437 -0.0244  0.4714
  727MOL0     C98054   4.131   8.524   4.541  0.8636  0.4463  0.1229
  727MOL0    Cl98055   4.154   8.656   4.433 -0.0087  0.1974  0.4592
  727MOL0     C98056   3.049   8.270   4.679 -0.3202 -1.2139 -0.6826
  727MOL0     C98057   2.935   8.198   4.692  0.1482 -0.7442  1.1294
  727MOL0     O98058   2.750   7.960   4.987 -0.3211  0.0352  0.6491
  727MOL0     C98059   2.583   7.892   4.678 -0.0918 -1.1428 -1.9815
  727MOL0     C98060   2.483   7.817   4.628 -0.1620  0.9339  0.9437
  727MOL0     N98061   2.215   7.711   4.192 -0.2337 -0.6078  0.5960
  727MOL0     N98062   2.150   7.758   4.082 -0.6059 -0.6674 -0.3101
  727MOL0     C98063   1.201   7.713   3.639 -0.8322  0.1428 -0.3250
  727MOL0     C98064   1.144   7.624   3.720 -0.7765  0.2300 -0.4647
  727MOL0     C98065   1.058   7.211   3.942  0.8900  0.2957  0.6523
  727MOL0     C98066   0.968   7.096   3.939  0.8079 -1.4941 -0.8779
  727MOL0     C98067   0.897   7.049   4.054 -0.8687 -0.4698 -0.4373
  727MOL0     C98068   0.922   7.117   4.172 -0.6210 -0.8132 -0.2547
  727MOL0     O98069   0.882   7.056   4.286  0.3324  0.0688 -0.2991
  727MOL0     C98070   0.881   7.120   4.411  0.1246 -0.1839 -0.0357
  727MOL0     C98071   0.811   7.026   4.512  0.3348  0.0012 -0.1729
  727MOL0     C98072   0.753   7.112   4.628 -0.4809 -0.9680 -0.0933
  727MOL0     C98073   0.855   7.149   4.731 -0.0355 -0.9816  0.1543
  727MOL0     C98074   0.898   7.045   4.827  1.6047  0.8581 -0.9007
  727MOL0     C98075   0.924   6.954   4.910 -0.0959 -0.3762 -0.5878
  727MOL0     C98076   0.998   7.234   4.178 -0.8519  0.3344 -1.1171
  727MOL0     C98077   1.061   7.282   4.064 -0.1097  0.3734  0.5423
  727MOL0     H98078   1.285   7.335   3.600  0.7404  0.6588 -2.9391
  727MOL0     H98079   1.392   7.487   3.458  2.4767  1.0298  2.8115
  727MOL0     H98080   1.499   7.649   3.382 -1.9867 -0.2295 -1.8740
  727MOL0     H98081   1.418   7.764   3.279 -0.3705  1.8411 -0.1258
  727MOL0     H98082   1.635   7.862   3.333  0.7745 -2.0744  1.1747
  727MOL0     H98083   1.524   7.949   3.442 -0.1332  0.4408  0.9376
  727MOL0     H98084   1.583   7.764   3.614 -1.1940  0.5333 -1.4931
  727MOL0     H98085   1.713   7.719   3.495  1.2986 -0.0120  0.6799
  727MOL0     H98086   1.796   7.949   3.503 -1.6957  0.3051 -2.2857
  727MOL0     H98087   1.677   7.987   3.631  0.4003  0.8547  0.3474
  727MOL0     H98088   1.849   7.959   3.766 -4.7187  1.8597  0.7013
  727MOL0     H98089   1.774   7.794   3.764  1.7898 -1.0796 -0.6080
  727MOL0     H98090   1.897   7.669   3.666 -0.6205 -0.5640  3.2920
  727MOL0     H98091   1.997   7.800   3.591 -0.2070 -2.4515 -1.0645
  727MOL0     H98092   2.121   7.687   3.754  1.9139  1.5001  1.3748
  727MOL0     H98093   2.077   7.828   3.838  2.5897 -1.6726  0.3890
  727MOL0     H98094   1.961   7.563   3.889  1.1961 -0.0669  0.6966
  727MOL0     H98095   1.884   7.717   3.931  0.6846  1.5284 -3.8390
  727MOL0     H98096   1.995   7.468   4.133  3.7082 -3.1537 -2.6604
  727MOL0     H98097   2.182   7.419   4.353 -1.9875  1.1361  0.3432
  727MOL0     H98098   2.278   7.566   4.387  0.4421 -0.4085 -1.4325
  727MOL0     H98099   1.995   7.497   4.448 -0.4682 -0.6778  2.3115
  727MOL0     H98100   2.046   7.662   4.473 -1.0807 -0.5081  1.4812
  727MOL0     H98101   2.208   7.428   4.593 -0.2871  0.8882 -1.3048
  727MOL0     H98102   2.047   7.486   4.667  0.5792  0.3280  1.4495
  727MOL0     H98103   2.235   7.564   4.791 -1.0919 -0.0950  0.6983
  727MOL0     H98104   2.125   7.681   4.704  0.4450 -0.9565 -1.5414
  727MOL0     H98105   2.333   7.696   4.905  2.0722 -1.1345  0.3620
  727MOL0     H98106   2.559   7.877   5.091 -5.9400  2.7118 -0.8630
  727MOL0     H98107   2.439   7.752   5.098 -0.0962  0.1776 -0.6023
  727MOL0     H98108   2.606   7.701   5.067 -0.5732 -1.2893 -1.0900
  727MOL0     H98109   2.951   8.068   4.990 -0.2315  0.3257  0.3608
  727MOL0     H98110   3.178   8.178   4.975  1.8803  2.0332 -2.0631
  727MOL0     H98111   3.295   8.394   4.577  0.1772  1.0044 -0.2150
  727MOL0     H98112   3.241   8.526   4.675 -0.7466 -0.3939  0.1731
  727MOL0     H98113   3.456   8.515   4.800  1.7806 -0.9085  1.0377
  727MOL0     H98114   3.506   8.380   4.697 -3.9089 -1.8122 -0.6843
  727MOL0     H98115   3.424   8.672   4.615 -2.2451 -1.3869 -2.4283
  727MOL0     H98116   3.472   8.554   4.507 -3.1369  0.7511  1.2121
  727MOL0     H98117   3.656   8.709   4.556  3.2180  0.0870  1.0903
  727MOL0     H98118   3.670   8.657   4.717  2.9348  2.8752 -1.6526
  727MOL0     H98119   3.714   8.497   4.454  2.0609 -0.8992 -0.3095
  727MOL0     H98120   3.724   8.403   4.604 -2.8932 -1.2651 -4.0312
  727MOL0     H98121   3.885   8.652   4.531 -0.5251 -0.2094 -1.1289
  727MOL0     H98122   3.900   8.553   4.685 -0.5277 -1.9993  0.5439
  727MOL0     H98123   3.965   8.446   4.414 -1.2403  0.2647  0.7479
  727MOL0     H98124   3.981   8.371   4.575 -0.0433 -0.9421 -1.0940
  727MOL0     H98125   4.214   8.454   4.533  0.1036 -0.4144 -0.4979
  727MOL0     H98126   4.121   8.568   4.641  2.5139 -0.8718  0.9081
  727MOL0     H98127   3.074   8.316   4.584  0.3493  2.7442  1.2352
  727MOL0     H98128   2.881   8.181   4.600  3.2816 -1.3292 -0.7163
  727MOL0     H98129   2.657   7.938   4.613  2.3709 -0.8740  0.8258
  727MOL0     H98130   2.480   7.810   4.520  0.0481  0.0206  0.9857
  727MOL0     H98131   1.190   7.820   3.653  1.6742  0.2762  1.2042
  727MOL0     H98132   1.077   7.666   3.795  1.9991  1.2120  1.6075
  727MOL0     H98133   0.969   7.042   3.845 -3.5253 -1.7274 -0.9898
  727MOL0     H98134   0.845   6.954   4.045 -0.1343 -1.0114  0.7278
  727MOL0     H98135   0.982   7.136   4.450  1.3391  1.8100 -3.5855
  727MOL0     H98136   0.825   7.214   4.405 -1.5374 -1.2452 -3.0012
  727MOL0     H98137   0.875   6.947   4.554  0.9225  0.0378 -0.9830
  727MOL0     H98138   0.723   6.988   4.460  2.1880 -3.2105 -1.2415
  727MOL0     H98139   0.674   7.059   4.682 -0.6466  0.9723  1.7007
  727MOL0     H98140   0.700   7.199   4.586  0.9729  0.4077  0.8477
  727MOL0     H98141   0.808   7.231   4.785  1.0969  0.6195 -1.1763
  727MOL0     H98142   0.941   7.198   4.685  1.4466 -0.4861  3.2548
  727MOL0     H98143   0.935   6.888   4.994  1.9695  1.2346  0.5215
  727MOL0     H98144   1.010   7.291   4.269 -2.4678  2.8155 -2.3651
  727MOL0     H98145   1.110   7.378   4.076  1.0401 -0.3169  1.6830
  728MOL0     O98146   3.284   4.520   7.244  0.3708  0.0291 -0.1268
  728MOL0     C98147   3.406   4.524   7.242 -0.3336  0.4583 -0.4900
  728MOL0     O98148   3.482   4.629   7.189 -0.6501  0.5446 -0.0372
  728MOL0     C98149   3.430   4.702   7.087 -0.0099  0.3686  0.2022
  728MOL0     C98150   3.467   4.834   7.088 -0.1801  0.7339  0.1786
  728MOL0     C98151   3.411   4.922   6.995  0.1448  0.2433  0.2014
  728MOL0     C98152   3.315   4.876   6.892  0.1643  0.2533 -0.3248
  728MOL0     O98153   3.264   4.972   6.806 -0.0728  1.0486 -0.3248
  728MOL0     C98154   3.188   5.072   6.859 -0.1444 -1.4253  0.4984
  728MOL0     C98155   3.269   5.201   6.886  0.0943 -0.7244 -0.1843
  728MOL0     C98156   3.218   5.329   6.823  0.4900  0.1505 -0.3588
  728MOL0     C98157   3.063   5.365   6.843 -0.3541  0.1494  0.5326
  728MOL0     C98158   3.026   5.486   6.764  0.7277 -0.6315  0.2930
  728MOL0     C98159   3.079   5.615   6.820  0.1778  0.5446  0.0076
  728MOL0     C98160   3.034   5.742   6.744 -0.0288 -0.5925  0.5374
  728MOL0     C98161   3.040   5.860   6.849  0.6540  0.5229  0.1699
  728MOL0     N98162   2.989   5.984   6.782 -0.0623 -0.4013 -0.2122
  728MOL0     C98163   2.857   6.010   6.769  0.3766  0.1570 -0.1634
  728MOL0     C98164   2.849   6.108   6.677 -0.1961 -0.3239 -0.1963
  728MOL0     C98165   2.713   6.171   6.638  0.3616 -0.6585 -0.0703
  728MOL0     C98166   2.655   6.106   6.514  0.1293 -0.0795  0.8677
  728MOL0     C98167   2.745   6.122   6.383 -0.5213  0.1940  0.3543
  728MOL0     C98168   2.756   6.271   6.355 -0.2621 -0.0946  0.3365
  728MOL0     O98169   2.622   6.327   6.318 -0.3244  0.1281  0.3290
  728MOL0     C98170   2.585   6.337   6.187 -1.0693  0.6260 -0.0169
  728MOL0     C98171   2.635   6.251   6.087 -0.2033  0.3388  0.2129
  728MOL0     C98172   2.594   6.272   5.952 -0.0894 -0.7784  0.9888
  728MOL0     C98173   2.662   6.187   5.852 -0.1129  1.3182  0.0137
  728MOL0     C98174   2.496   6.375   5.917  0.5151  0.5569  0.2928
  728MOL0     C98175   2.430   6.381   5.783 -0.1173  0.3358  0.3006
  728MOL0     O98176   2.521   6.375   5.674 -0.1825  0.0820  0.3223
  728MOL0     C98177   2.477   6.409   5.550 -0.8411  0.8933  0.0957
  728MOL0     C98178   2.365   6.483   5.509 -0.8386 -1.4030  0.1462
  728MOL0     C98179   2.331   6.497   5.377  1.4617 -0.1972  0.3703
  728MOL0     C98180   2.399   6.434   5.271  0.3791 -0.6934 -0.5398
  728MOL0     O98181   2.348   6.434   5.146  0.9565 -0.4795  0.1561
  728MOL0     C98182   2.426   6.396   5.026 -0.6105 -0.0023  0.3969
  728MOL0     C98183   2.366   6.465   4.906 -0.8612 -0.3956  0.2529
  728MOL0     C98184   2.433   6.421   4.775  0.3307  0.0911  0.7595
  728MOL0     C98185   2.436   6.539   4.679  0.8914 -0.2833  0.5341
  728MOL0     C98186   2.450   6.502   4.529 -0.8446  1.0165 -0.2447
  728MOL0     C98187   2.576   6.428   4.491  0.1047 -0.3088  0.2599
  728MOL0     C98188   2.581   6.386   4.341 -0.4014 -0.9845 -0.1113
  728MOL0     C98189   2.707   6.298   4.316  0.0150 -0.3941 -0.2862
  728MOL0    Cl98190   2.713   6.244   4.155  0.2920  0.1727  0.7195
  728MOL0     C98191   2.508   6.358   5.311  0.3482  0.1841 -0.3563
  728MOL0     C98192   2.552   6.354   5.448 -0.8232  0.5450 -0.9048
  728MOL0     O98193   2.308   6.396   5.778 -0.9539 -0.4637 -0.4897
  728MOL0     C98194   2.442   6.449   6.019 -0.1180  0.5722  0.5714
  728MOL0     C98195   2.493   6.433   6.155  0.2219  0.4022 -0.2013
  728MOL0     N98196   2.987   6.151   6.652 -0.1198 -0.8924 -0.3267
  728MOL0     N98197   3.064   6.071   6.717  0.1558  0.0148  1.2539
  728MOL0     C98198   3.291   4.736   6.882  0.2598  0.4777  0.1123
  728MOL0     C98199   3.341   4.654   6.977  0.3018 -0.4276 -1.0255
  728MOL0     C98200   3.468   4.399   7.302 -0.9308  0.3480  0.4449
  728MOL0     C98201   3.391   4.292   7.342  0.1800 -0.8549 -0.6225
  728MOL0     C98202   3.456   4.173   7.387 -1.1158  0.6626 -0.8494
  728MOL0     C98203   3.599   4.166   7.386 -1.1439  0.5924  0.4530
  728MOL0     O98204   3.662   4.046   7.413  0.2350  0.0976  0.8314
  728MOL0     C98205   3.805   4.046   7.444  0.1261  0.4534  0.3072
  728MOL0     C98206   3.854   3.930   7.530  0.6207  0.0416  0.5359
  728MOL0     C98207   3.990   3.949   7.581  0.3843  0.4856  0.2427
  728MOL0     C98208   4.073   3.827   7.618 -0.1363 -0.5738 -1.2876
  728MOL0     C98209   4.109   3.745   7.491  0.6435  0.9640 -0.1543
  728MOL0     C98210   4.149   3.670   7.406  0.3724  0.6970  0.1088
  728MOL0     C98211   3.679   4.277   7.356  0.5047 -0.6798 -0.0219
  728MOL0     C98212   3.611   4.389   7.314 -0.3148  0.2234  0.9754
  728MOL0     H98213   3.551   4.871   7.146  0.0066  1.9271 -0.8140
  728MOL0     H98214   3.425   5.030   7.003 -0.4586  0.2639  1.0639
  728MOL0     H98215   3.117   5.098   6.780  1.1884  0.2910 -0.1914
  728MOL0     H98216   3.134   5.038   6.948  0.8686 -1.1617  1.2302
  728MOL0     H98217   3.283   5.214   6.994 -0.4313 -2.2811  0.0926
  728MOL0     H98218   3.370   5.190   6.847  0.2244 -1.5111  0.3511
  728MOL0     H98219   3.276   5.413   6.863 -0.2171 -1.0672  3.5927
  728MOL0     H98220   3.232   5.333   6.714  0.0575  3.3640 -0.4108
  728MOL0     H98221   2.994   5.284   6.819 -1.0058  1.5151 -2.6100
  728MOL0     H98222   3.041   5.403   6.944 -1.2958  5.3743 -1.3318
  728MOL0     H98223   3.068   5.473   6.664  0.5415 -0.2634  0.1689
  728MOL0     H98224   2.918   5.496   6.749  0.7959 -2.2683 -1.7842
  728MOL0     H98225   3.032   5.615   6.918 -2.2274  0.9807 -1.0756
  728MOL0     H98226   3.188   5.607   6.826  0.1137 -3.3008 -1.2397
  728MOL0     H98227   3.099   5.779   6.663  0.4094  0.5956  1.3999
  728MOL0     H98228   2.930   5.729   6.714 -0.0615 -2.5472  1.3760
  728MOL0     H98229   3.143   5.872   6.884 -0.1092  2.5266  1.9345
  728MOL0     H98230   2.982   5.835   6.938 -0.9721 -0.2728 -1.0636
  728MOL0     H98231   2.779   5.942   6.802  0.4673 -0.6261 -1.5077
  728MOL0     H98232   2.635   6.160   6.713 -0.8444  1.1185 -0.9962
  728MOL0     H98233   2.748   6.275   6.633 -0.5802 -0.0042  3.7838
  728MOL0     H98234   2.557   6.144   6.484  1.6173  1.4906 -2.5564
  728MOL0     H98235   2.637   5.999   6.530 -1.5038  0.2273  1.2773
  728MOL0     H98236   2.703   6.075   6.294  2.7850  0.2544 -1.3894
  728MOL0     H98237   2.850   6.096   6.394  0.4419  2.9159 -1.2880
  728MOL0     H98238   2.817   6.285   6.265 -1.7824  0.2233 -0.6981
  728MOL0     H98239   2.806   6.333   6.430 -0.9450  0.4392  0.3644
  728MOL0     H98240   2.699   6.169   6.117 -1.6966  0.0489  2.8389
  728MOL0     H98241   2.730   6.236   5.783 -0.1412  1.9007  0.3960
  728MOL0     H98242   2.699   6.095   5.899 -3.4897 -0.0039  0.4398
  728MOL0     H98243   2.582   6.147   5.790 -0.1388 -2.0393  1.9456
  728MOL0     H98244   2.306   6.539   5.581 -0.1517 -2.6441  1.7373
  728MOL0     H98245   2.251   6.566   5.349  2.8517  0.8546 -1.1571
  728MOL0     H98246   2.532   6.420   5.034 -0.6020  0.2755 -0.5011
  728MOL0     H98247   2.407   6.289   5.013  2.1997 -0.7166  1.5346
  728MOL0     H98248   2.260   6.444   4.892 -1.2314  1.8530 -0.6719
  728MOL0     H98249   2.367   6.572   4.927 -0.8657  0.0692 -1.8837
  728MOL0     H98250   2.370   6.352   4.719  0.9247  0.0609  0.1205
  728MOL0     H98251   2.530   6.373   4.792 -0.3351 -0.5195  3.2846
  728MOL0     H98252   2.341   6.591   4.695  1.5612  1.1949 -0.0713
  728MOL0     H98253   2.516   6.610   4.703  2.0678 -1.6740  0.8824
  728MOL0     H98254   2.446   6.589   4.462 -0.1355  0.5300 -0.9429
  728MOL0     H98255   2.361   6.445   4.503  1.5062 -2.6631 -0.9170
  728MOL0     H98256   2.659   6.499   4.499  2.2851 -2.6874  0.1483
  728MOL0     H98257   2.602   6.351   4.564  3.1313 -1.3785 -1.7582
  728MOL0     H98258   2.584   6.475   4.278  0.6463  0.6117  2.0852
  728MOL0     H98259   2.495   6.326   4.308 -2.9797  1.2222  2.0785
  728MOL0     H98260   2.711   6.221   4.394  2.1500  0.3013  0.3545
  728MOL0     H98261   2.798   6.354   4.340  1.0125 -2.3660  0.8518
  728MOL0     H98262   2.560   6.297   5.238 -0.5492 -3.4709  1.8055
  728MOL0     H98263   2.642   6.303   5.482 -1.7742  0.1935  1.2552
  728MOL0     H98264   2.361   6.518   6.001  0.2257  0.4617 -1.6520
  728MOL0     H98265   2.458   6.494   6.238 -3.4242  0.9929 -1.9351
  728MOL0     H98266   3.237   4.706   6.792  0.2675 -0.1563  0.3141
  728MOL0     H98267   3.302   4.553   6.977  0.1504 -0.5096  2.5161
  728MOL0     H98268   3.282   4.296   7.338  0.1806 -1.3947 -1.7451
  728MOL0     H98269   3.394   4.087   7.409  0.6740 -0.2506  1.0367
  728MOL0     H98270   3.862   4.050   7.351  1.3575  0.4237  1.0456
  728MOL0     H98271   3.813   4.140   7.499  1.3113  1.9609 -2.2675
  728MOL0     H98272   3.859   3.844   7.462  2.3579  1.5757 -1.3767
  728MOL0     H98273   3.782   3.919   7.612 -1.7361  0.9908 -1.2709
  728MOL0     H98274   3.982   4.011   7.671  0.2791  2.0957 -0.8473
  728MOL0     H98275   4.045   3.999   7.501 -0.3216 -1.0592 -1.2714
  728MOL0     H98276   4.009   3.769   7.685 -0.8763 -2.4292 -3.4783
  728MOL0     H98277   4.169   3.858   7.658 -0.4581 -2.2109  0.9593
  728MOL0     H98278   4.190   3.597   7.338 -0.0532 -1.2125  1.7930
  728MOL0     H98279   3.787   4.279   7.361  0.4712  0.7112  0.8258
  728MOL0     H98280   3.675   4.472   7.283 -1.7754  1.1822  0.4222
  729MOL0     O98281   1.387   9.307   0.209 -0.2546 -0.4054  0.1596
  729MOL0     C98282   1.315   9.236   0.274  0.3048 -0.4428  0.2314
  729MOL0     O98283   1.203   9.275   0.356 -0.8677  0.0815  0.2458
  729MOL0     C98284   1.183   9.413   0.355  0.3550 -0.0199 -0.2230
  729MOL0     C98285   1.215   9.487   0.465 -0.4669  0.1489 -0.4343
  729MOL0     C98286   1.210   9.630   0.459 -0.0729  0.5867  1.1072
  729MOL0     C98287   1.158   9.697   0.353  0.4061  0.5664  0.0810
  729MOL0     O98288   1.137   9.828   0.341  0.2147 -0.7239  0.5443
  729MOL0     C98289   1.260   9.909   0.322 -0.2245 -0.4784 -0.7664
  729MOL0     C98290   1.334   9.880   0.190  0.1428  0.6521 -0.1460
  729MOL0     C98291   1.248   9.910   0.070  0.6896 -0.6588  0.7093
  729MOL0     C98292   1.185  10.052   0.072 -0.4320  0.6240  0.3664
  729MOL0     C98293   1.143  10.113  -0.058 -0.1645 -0.3702  0.5155
  729MOL0     C98294   1.033  10.206  -0.048 -0.7287  0.2205  0.3272
  729MOL0     C98295   1.054  10.345   0.011 -0.1084  0.2671 -0.1904
  729MOL0     C98296   0.942  10.445  -0.001 -0.2334  0.0194  0.1372
  729MOL0     N98297   0.943  10.568   0.087  0.3427  1.0535 -0.5840
  729MOL0     C98298   1.009  10.683   0.052  0.2966 -0.1369 -0.1812
  729MOL0     C98299   0.997  10.759   0.157  0.4414 -0.0716  0.3377
  729MOL0     C98300   1.063  10.890   0.184 -0.2121  0.1583 -0.4926
  729MOL0     C98301   1.220  10.859   0.210  0.1931  0.3260 -0.0629
  729MOL0     C98302   1.285  10.981   0.282  0.6584 -1.4490 -0.2112
  729MOL0     C98303   1.218  11.121   0.239  0.5199  0.1486  0.2301
  729MOL0     O98304   1.236  11.140   0.097  0.0762 -0.5187 -0.5427
  729MOL0     C98305   1.359  11.172   0.057 -0.0411 -0.5170  0.1619
  729MOL0     C98306   1.441  11.088  -0.011  1.1863  1.0779 -1.0723
  729MOL0     C98307   1.580  11.109  -0.017  0.3591 -0.8311  0.2598
  729MOL0     C98308   1.672  10.992  -0.050  0.3826 -0.1153 -0.1062
  729MOL0     C98309   1.618  11.243   0.002  0.2725 -0.2924  0.7278
  729MOL0     C98310   1.751  11.301  -0.043 -0.4850  0.7407 -0.2645
  729MOL0     O98311   1.757  11.434  -0.060 -0.2853 -0.0834 -0.2944
  729MOL0     C98312   1.867  11.502  -0.115  0.1550 -0.7971  0.1680
  729MOL0     C98313   1.936  11.586  -0.028 -0.2494 -0.0694  0.6709
  729MOL0     C98314   2.066  11.626  -0.062 -0.0634  0.8618 -0.1560
  729MOL0     C98315   2.121  11.597  -0.187 -0.8843 -0.4359 -0.7280
  729MOL0     O98316   2.244  11.651  -0.207  0.0131 -0.5833 -0.7537
  729MOL0     C98317   2.344  11.572  -0.145  1.1126  0.4598  0.2249
  729MOL0     C98318   2.478  11.574  -0.222  0.1694  1.2826 -0.9918
  729MOL0     C98319   2.585  11.488  -0.151 -0.2386 -0.1515 -0.1655
  729MOL0     C98320   2.695  11.431  -0.258 -0.0243 -0.4883 -0.6810
  729MOL0     C98321   2.630  11.339  -0.351  0.0918 -0.1347  0.3052
  729MOL0     C98322   2.715  11.329  -0.475  0.2574 -0.3150 -0.6252
  729MOL0     C98323   2.683  11.205  -0.565 -0.0301  0.6127 -0.6268
  729MOL0     C98324   2.817  11.175  -0.647  0.5542 -0.0390 -0.5075
  729MOL0    Cl98325   2.809  11.288  -0.786 -0.1825  0.6018 -0.5938
  729MOL0     C98326   2.043  11.528  -0.285  0.3894  0.7144 -0.3656
  729MOL0     C98327   1.917  11.476  -0.240  0.1107 -0.4523  0.4594
  729MOL0     O98328   1.843  11.225  -0.073  0.9482  0.1812 -0.0488
  729MOL0     C98329   1.519  11.339   0.043 -0.3884  0.4535  0.4209
  729MOL0     C98330   1.390  11.305   0.067  0.3910 -0.3197  0.7703
  729MOL0     N98331   0.907  10.706   0.249 -0.2014 -0.4674  0.4197
  729MOL0     N98332   0.878  10.589   0.208 -0.1961  0.5361 -0.2517
  729MOL0     C98333   1.100   9.620   0.251 -0.5277  0.0867 -0.1811
  729MOL0     C98334   1.107   9.474   0.252 -0.6049  0.0027 -0.2316
  729MOL0     C98335   1.352   9.093   0.266  0.7029  0.2730 -0.4065
  729MOL0     C98336   1.286   8.996   0.342 -1.0404  0.5731 -0.5135
  729MOL0     C98337   1.305   8.863   0.322 -0.2171  0.4846  0.0057
  729MOL0     C98338   1.412   8.824   0.230  0.1303 -0.4019 -0.7232
  729MOL0     O98339   1.440   8.687   0.215 -0.0584 -0.3531  0.1969
  729MOL0     C98340   1.348   8.629   0.122 -0.2420  0.2045  0.2188
  729MOL0     C98341   1.269   8.516   0.196 -0.9723 -0.3154 -0.4123
  729MOL0     C98342   1.380   8.409   0.232  0.2071 -0.9109 -0.0804
  729MOL0     C98343   1.324   8.268   0.220  0.5345  0.0818 -0.3471
  729MOL0     C98344   1.214   8.236   0.317 -1.0860  0.6497  0.4774
  729MOL0     C98345   1.127   8.215   0.400 -1.3767 -0.1459 -0.5559
  729MOL0     C98346   1.478   8.919   0.157 -0.2380 -0.4882  1.0648
  729MOL0     C98347   1.451   9.051   0.179 -0.3354 -1.0270 -0.3435
  729MOL0     H98348   1.259   9.450   0.557 -2.4427 -1.0345  0.0932
  729MOL0     H98349   1.247   9.695   0.538 -0.4045 -0.2878  1.9987
  729MOL0     H98350   1.247  10.017   0.333 -0.8237 -0.6477  0.3734
  729MOL0     H98351   1.316   9.879   0.411 -0.3321  1.8520  0.1465
  729MOL0     H98352   1.412   9.956   0.189  1.8148 -0.9694  0.1943
  729MOL0     H98353   1.383   9.783   0.177 -1.4584 -0.2097  0.0572
  729MOL0     H98354   1.305   9.905  -0.023  3.0601  0.0789  2.0071
  729MOL0     H98355   1.171   9.834   0.057  0.2248 -0.0707 -0.0578
  729MOL0     H98356   1.092  10.045   0.129 -0.9251  2.0134 -0.2236
  729MOL0     H98357   1.263  10.116   0.113 -0.7386  2.7683 -2.1070
  729MOL0     H98358   1.233  10.158  -0.102 -0.2585 -2.6501 -2.3933
  729MOL0     H98359   1.114  10.028  -0.121 -4.1585  0.4279  1.0093
  729MOL0     H98360   0.990  10.214  -0.148 -1.9508 -0.1362  0.8044
  729MOL0     H98361   0.953  10.153   0.005  0.5145 -2.3020 -0.1393
  729MOL0     H98362   1.094  10.338   0.113  3.0327 -2.3361 -1.4372
  729MOL0     H98363   1.140  10.389  -0.040  1.1188  0.2647  1.7463
  729MOL0     H98364   0.847  10.395   0.022 -2.2064  1.9114 -3.0734
  729MOL0     H98365   0.932  10.472  -0.107 -1.3209  1.1319  0.5006
  729MOL0     H98366   1.090  10.705  -0.017  1.0566 -1.3850  0.2702
  729MOL0     H98367   1.053  10.952   0.094  2.5612  0.5283 -0.6188
  729MOL0     H98368   1.022  10.928   0.278 -2.0679 -3.3949  0.3191
  729MOL0     H98369   1.262  10.849   0.109  0.1829  5.4729 -0.8342
  729MOL0     H98370   1.240  10.776   0.278  1.8132  1.7913  1.3520
  729MOL0     H98371   1.393  10.988   0.265  0.4303  4.6599 -1.1991
  729MOL0     H98372   1.265  10.971   0.389  1.5736  2.5972  0.4797
  729MOL0     H98373   1.262  11.205   0.293  1.5028 -0.7557  0.8905
  729MOL0     H98374   1.112  11.126   0.265  1.3288 -0.4156  4.3452
  729MOL0     H98375   1.408  10.986  -0.025 -0.9351  1.3547  1.1369
  729MOL0     H98376   1.632  10.895  -0.018 -2.0493  1.0699  0.6752
  729MOL0     H98377   1.712  10.997  -0.152 -2.9645  1.7888 -1.4829
  729MOL0     H98378   1.757  11.003   0.018 -0.1810  0.9079  0.4490
  729MOL0     H98379   1.901  11.588   0.074  0.1871 -1.5375  0.8728
  729MOL0     H98380   2.126  11.683   0.008  0.6615 -2.9376  2.6434
  729MOL0     H98381   2.360  11.592  -0.039 -1.0453 -0.1810  0.7215
  729MOL0     H98382   2.305  11.470  -0.139  0.3476  0.7849  1.0274
  729MOL0     H98383   2.465  11.548  -0.327  4.7418 -2.0306 -1.0156
  729MOL0     H98384   2.506  11.680  -0.221 -1.1932  1.6731 -0.8709
  729MOL0     H98385   2.544  11.404  -0.094  0.7042 -0.9719 -0.6614
  729MOL0     H98386   2.631  11.548  -0.072  2.9413 -1.4021 -0.9258
  729MOL0     H98387   2.738  11.516  -0.312  0.2199 -0.4610 -0.4421
  729MOL0     H98388   2.774  11.372  -0.211  0.2623  0.0611 -0.4637
  729MOL0     H98389   2.530  11.372  -0.383 -0.4688  0.1258  2.1967
  729MOL0     H98390   2.626  11.243  -0.298 -0.1078 -0.3823 -0.1546
  729MOL0     H98391   2.700  11.420  -0.534  0.6574  0.3998  0.3643
  729MOL0     H98392   2.822  11.332  -0.449 -0.1051 -1.3969  1.1340
  729MOL0     H98393   2.602  11.222  -0.636  0.9730 -0.8950 -2.2349
  729MOL0     H98394   2.661  11.115  -0.507 -0.0977 -0.3706 -2.1295
  729MOL0     H98395   2.812  11.070  -0.677 -3.8369 -0.7426  1.7867
  729MOL0     H98396   2.899  11.182  -0.575  0.0191 -1.8499  0.3342
  729MOL0     H98397   2.075  11.510  -0.387 -0.4387 -0.2716 -0.4683
  729MOL0     H98398   1.848  11.412  -0.294 -0.8615  0.1662  0.9505
  729MOL0     H98399   1.536  11.445   0.059  0.4190  0.4092 -0.0526
  729MOL0     H98400   1.323  11.380   0.107 -1.3642 -1.3371 -0.1146
  729MOL0     H98401   1.046   9.669   0.171  1.5452  2.1151 -0.4538
  729MOL0     H98402   1.087   9.424   0.158  1.7265 -0.7471 -0.3708
  729MOL0     H98403   1.223   9.018   0.427 -0.5925 -1.9056  0.5400
  729MOL0     H98404   1.248   8.792   0.381 -0.4314  0.3113 -0.4089
  729MOL0     H98405   1.268   8.702   0.108 -1.3729 -0.2887  3.2930
  729MOL0     H98406   1.388   8.596   0.026 -2.2091  0.3627 -0.6898
  729MOL0     H98407   1.198   8.483   0.120 -0.4244 -1.6954 -0.3704
  729MOL0     H98408   1.221   8.541   0.291  1.7461  3.1892  0.2756
  729MOL0     H98409   1.421   8.415   0.333 -2.1489 -3.8184  1.2161
  729MOL0     H98410   1.463   8.410   0.160  0.5763 -1.6899  0.3186
  729MOL0     H98411   1.407   8.198   0.231 -0.8267 -1.5334 -0.0015
  729MOL0     H98412   1.299   8.239   0.118 -0.4677 -1.4628  0.2924
  729MOL0     H98413   1.039   8.210   0.460 -0.1018 -0.5620  1.3568
  729MOL0     H98414   1.566   8.907   0.095 -0.7392 -0.6846  0.3773
  729MOL0     H98415   1.509   9.121   0.121  2.0434 -3.2495 -0.8390
  730MOL0     O98416   6.748  10.821   7.690 -0.9777 -0.3081  0.9870
  730MOL0     C98417   6.763  10.705   7.679  0.2568 -0.5538 -0.5843
  730MOL0     O98418   6.846  10.648   7.587 -0.9604  0.3629 -0.5454
  730MOL0     C98419   6.894  10.729   7.485 -0.8773 -0.1139  0.0113
  730MOL0     C98420   7.009  10.797   7.500  0.0951 -0.6174  0.5058
  730MOL0     C98421   7.043  10.895   7.409 -0.0370  1.8002  0.7324
  730MOL0     C98422   6.976  10.912   7.291  0.0701  0.1947 -0.0896
  730MOL0     O98423   7.030  11.011   7.211 -0.1541 -0.1355  0.9895
  730MOL0     C98424   6.987  11.023   7.071 -0.1889 -0.5883 -0.5151
  730MOL0     C98425   7.068  10.936   6.979 -0.1511  0.0008  0.0610
  730MOL0     C98426   7.212  10.967   6.999  0.4681 -0.2567  0.1008
  730MOL0     C98427   7.256  11.084   6.911 -1.1258 -0.3430  0.0680
  730MOL0     C98428   7.403  11.108   6.940 -0.2957  0.4534  1.0723
  730MOL0     C98429   7.434  11.257   6.970  0.8519 -0.9492 -0.5111
  730MOL0     C98430   7.408  11.337   6.835  0.1301 -0.9689 -0.5034
  730MOL0     C98431   7.451  11.478   6.852 -0.0378 -0.2723  0.3301
  730MOL0     N98432   7.379  11.563   6.750 -0.5026  0.3594  0.1356
  730MOL0     C98433   7.248  11.601   6.767 -0.0665  1.1899  0.4681
  730MOL0     C98434   7.229  11.687   6.656 -0.7426  0.2077  0.2748
  730MOL0     C98435   7.110  11.777   6.621 -0.8626 -0.6019  1.1394
  730MOL0     C98436   6.991  11.700   6.560 -0.9457 -0.8892 -0.3323
  730MOL0     C98437   6.866  11.788   6.541 -0.0945  0.2089  0.5925
  730MOL0     C98438   6.729  11.713   6.532  0.2213 -0.2284 -0.2489
  730MOL0     O98439   6.688  11.669   6.664 -1.1110 -0.0262  0.3185
  730MOL0     C98440   6.555  11.619   6.669  0.4894 -0.4799  0.4617
  730MOL0     C98441   6.517  11.559   6.788 -0.1969 -0.7411  0.2289
  730MOL0     C98442   6.393  11.498   6.813 -0.5058 -0.7969  0.4935
  730MOL0     C98443   6.372  11.444   6.961  0.2935  0.3827  0.1601
  730MOL0     C98444   6.298  11.488   6.705 -0.7390 -0.6431  0.0376
  730MOL0     C98445   6.179  11.396   6.705  0.5181  0.0826 -0.2908
  730MOL0     O98446   6.123  11.376   6.584  0.5793  0.2630  0.6989
  730MOL0     C98447   6.037  11.274   6.555  0.0789 -0.2661 -0.3974
  730MOL0     C98448   5.936  11.234   6.643 -0.5149  0.4400  0.1609
  730MOL0     C98449   5.835  11.155   6.599 -0.3017  0.7175 -0.3164
  730MOL0     C98450   5.834  11.095   6.479 -0.3209 -0.0848  0.8897
  730MOL0     O98451   5.742  11.004   6.440  0.2197 -0.5711  0.3606
  730MOL0     C98452   5.606  11.014   6.491  0.0442 -0.2335 -0.2577
  730MOL0     C98453   5.510  10.987   6.379 -0.2081  0.3538  0.5840
  730MOL0     C98454   5.365  10.950   6.422 -0.0241 -0.4650  0.0417
  730MOL0     C98455   5.272  10.894   6.317  0.4486  0.0882 -1.0519
  730MOL0     C98456   5.128  10.934   6.350  1.0519  0.1399  0.7184
  730MOL0     C98457   5.022  10.871   6.257  1.2087 -0.6850  0.3094
  730MOL0     C98458   4.871  10.905   6.305 -0.0287  0.5803 -0.1449
  730MOL0     C98459   4.767  10.839   6.214 -0.3111  0.9059  0.0708
  730MOL0    Cl98460   4.603  10.891   6.257  0.0643  0.0401 -0.0316
  730MOL0     C98461   5.927  11.130   6.382 -0.5016  0.4607 -0.0432
  730MOL0     C98462   6.027  11.222   6.420  0.4177 -0.4784 -0.5521
  730MOL0     O98463   6.127  11.362   6.811 -0.3714 -0.0490 -0.1176
  730MOL0     C98464   6.339  11.563   6.592 -0.8301  0.2499  0.1848
  730MOL0     C98465   6.460  11.625   6.569 -0.6890  0.1996  0.7743
  730MOL0     N98466   7.346  11.708   6.589 -0.1188  0.5789  1.2423
  730MOL0     N98467   7.434  11.637   6.646 -0.4525 -0.0496  0.6986
  730MOL0     C98468   6.872  10.822   7.256 -0.2143  0.7361 -0.4137
  730MOL0     C98469   6.826  10.735   7.360 -1.0145  0.2044 -0.9635
  730MOL0     C98470   6.684  10.620   7.768  0.4183  0.1960 -0.2011
  730MOL0     C98471   6.653  10.492   7.719  0.0040  0.2498 -0.2611
  730MOL0     C98472   6.593  10.398   7.801 -0.6245 -0.7402  0.6290
  730MOL0     C98473   6.556  10.431   7.931  1.1326 -0.3568  0.2390
  730MOL0     O98474   6.485  10.331   7.993  0.1906 -1.4462  0.1681
  730MOL0     C98475   6.391  10.364   8.097  0.4959 -0.8644  0.5273
  730MOL0     C98476   6.283  10.250   8.100 -0.9938  0.5812 -0.0045
  730MOL0     C98477   6.191  10.240   8.223 -0.2114  0.8836 -0.2239
  730MOL0     C98478   6.136  10.376   8.254  0.2026 -0.2334  0.1044
  730MOL0     C98479   6.083  10.371   8.386  0.1866 -0.1399  0.4911
  730MOL0     C98480   6.050  10.355   8.501  0.1957 -0.2826  0.1023
  730MOL0     C98481   6.600  10.552   7.984  0.3922 -0.7593 -0.1185
  730MOL0     C98482   6.667  10.650   7.905  0.6022 -0.2090  0.0784
  730MOL0     H98483   7.078  10.780   7.582 -1.8535  1.7777  2.8225
  730MOL0     H98484   7.133  10.954   7.420  1.7709 -0.5069 -0.7045
  730MOL0     H98485   6.881  11.005   7.050 -1.0300  2.2736  0.7613
  730MOL0     H98486   6.995  11.125   7.032 -0.4295 -0.7787 -1.0837
  730MOL0     H98487   7.052  10.832   7.007  2.6174  0.2891  3.3869
  730MOL0     H98488   7.037  10.970   6.880  0.9192  1.8709  0.3142
  730MOL0     H98489   7.237  10.985   7.104 -2.2508 -1.7251  1.0996
  730MOL0     H98490   7.270  10.877   6.976 -1.1617 -2.2370  3.0828
  730MOL0     H98491   7.240  11.065   6.804 -0.9783 -2.0869  0.3327
  730MOL0     H98492   7.197  11.174   6.934 -2.5893 -1.0989 -0.5857
  730MOL0     H98493   7.436  11.053   7.028 -0.2146 -1.5880 -0.1795
  730MOL0     H98494   7.462  11.066   6.859  0.6726 -1.2561  2.5884
  730MOL0     H98495   7.375  11.292   7.056  0.8044 -3.5779  0.6434
  730MOL0     H98496   7.540  11.263   6.995  0.6129 -1.9475  0.9267
  730MOL0     H98497   7.451  11.285   6.749 -3.1310 -0.2813 -2.6940
  730MOL0     H98498   7.300  11.345   6.827  0.2335  0.5723 -0.5517
  730MOL0     H98499   7.557  11.490   6.828 -0.5053 -0.3758 -1.9805
  730MOL0     H98500   7.445  11.526   6.951  1.6747 -1.7382  1.1941
  730MOL0     H98501   7.167  11.562   6.827 -0.6928 -0.0450 -1.1205
  730MOL0     H98502   7.089  11.843   6.706  0.8950 -1.3382  2.2020
  730MOL0     H98503   7.139  11.846   6.541  0.6958 -2.2187  0.2304
  730MOL0     H98504   6.961  11.625   6.634 -0.3398 -0.4673  0.3495
  730MOL0     H98505   7.004  11.653   6.462  0.2390 -0.6386 -0.3113
  730MOL0     H98506   6.873  11.855   6.455  0.7632 -0.8572 -0.1848
  730MOL0     H98507   6.854  11.846   6.633 -1.1312 -0.3742  0.8445
  730MOL0     H98508   6.728  11.630   6.460 -0.1083 -1.7456  1.4261
  730MOL0     H98509   6.661  11.789   6.494  0.5620 -0.8697 -2.2826
  730MOL0     H98510   6.592  11.548   6.865  0.2343  0.7831  0.0519
  730MOL0     H98511   6.270  11.463   6.996  0.7947  0.9870  1.3341
  730MOL0     H98512   6.395  11.337   6.961 -2.6492 -0.4214 -3.2425
  730MOL0     H98513   6.444  11.501   7.021  2.0592  0.9034 -2.2687
  730MOL0     H98514   5.917  11.269   6.744 -2.3932 -0.1193  0.0464
  730MOL0     H98515   5.761  11.138   6.676  0.5009  3.3692  1.1516
  730MOL0     H98516   5.595  10.937   6.568 -0.0221  1.2202  1.2585
  730MOL0     H98517   5.579  11.113   6.531  0.7471 -0.4771  0.8501
  730MOL0     H98518   5.504  11.069   6.307 -3.6140  1.9772  2.4607
  730MOL0     H98519   5.551  10.900   6.327  0.7262  0.1736  1.5846
  730MOL0     H98520   5.323  11.049   6.445  3.4073  1.7002 -2.0113
  730MOL0     H98521   5.366  10.882   6.508 -0.8451 -1.1175 -0.4570
  730MOL0     H98522   5.297  10.918   6.213  0.2050 -1.1005 -1.3987
  730MOL0     H98523   5.270  10.785   6.330  2.2825  0.3973  3.7015
  730MOL0     H98524   5.108  11.042   6.342  0.6910 -0.0663 -1.9123
  730MOL0     H98525   5.119  10.888   6.448 -0.2993 -0.2633  0.4178
  730MOL0     H98526   5.026  10.909   6.155  1.4241 -1.0985  0.1655
  730MOL0     H98527   5.017  10.762   6.254  0.1691 -0.6272 -1.2441
  730MOL0     H98528   4.854  11.013   6.295 -1.2214  0.4798  0.6230
  730MOL0     H98529   4.858  10.878   6.410 -2.0248  1.8660 -0.0190
  730MOL0     H98530   4.781  10.732   6.231  0.1286  1.2086  1.7773
  730MOL0     H98531   4.781  10.865   6.109 -1.6406  1.0782 -0.0821
  730MOL0     H98532   5.926  11.096   6.279 -0.9398 -0.2620  0.1978
  730MOL0     H98533   6.110  11.260   6.360 -0.1272  0.1790 -0.9160
  730MOL0     H98534   6.267  11.570   6.511 -0.5609 -0.1735 -0.0937
  730MOL0     H98535   6.473  11.674   6.473 -0.7262 -3.7379 -1.4363
  730MOL0     H98536   6.817  10.823   7.163  1.3492  0.6279 -1.3865
  730MOL0     H98537   6.745  10.663   7.347 -1.1019 -0.5950  2.7975
  730MOL0     H98538   6.694  10.461   7.623 -0.1298 -0.0944 -0.2075
  730MOL0     H98539   6.550  10.308   7.758  0.5432  0.0569 -2.4976
  730MOL0     H98540   6.430  10.386   8.197  1.5454  1.0144 -0.2241
  730MOL0     H98541   6.328  10.452   8.078 -0.2481 -1.2405  1.1804
  730MOL0     H98542   6.342  10.159   8.086 -0.0604  0.9997  1.0709
  730MOL0     H98543   6.221  10.252   8.010 -1.3950  5.5089  0.0789
  730MOL0     H98544   6.247  10.198   8.307  0.2444  1.3516 -0.2926
  730MOL0     H98545   6.113  10.163   8.217 -1.2325  1.4352  3.3735
  730MOL0     H98546   6.060  10.400   8.179 -1.7597 -3.3118  0.9064
  730MOL0     H98547   6.213  10.454   8.258  0.2946 -0.1572 -1.9356
  730MOL0     H98548   6.036  10.319   8.601  2.7656  1.7482  1.3419
  730MOL0     H98549   6.580  10.560   8.091 -0.5006 -0.2788 -0.3164
  730MOL0     H98550   6.696  10.746   7.945  2.9741 -1.3428  1.2728
  731MOL0     O98551   8.978   7.068  10.489 -0.4811 -0.6977 -0.5190
  731MOL0     C98552   9.035   7.132  10.402 -0.4994 -0.8993 -0.5420
  731MOL0     O98553   9.036   7.104  10.270  0.0677 -0.3711 -0.4248
  731MOL0     C98554   8.953   7.011  10.226 -0.2073  0.4450  0.9971
  731MOL0     C98555   8.863   7.049  10.124 -0.2023  0.5244  0.3252
  731MOL0     C98556   8.797   6.947  10.052  1.0452 -0.2345 -0.7562
  731MOL0     C98557   8.820   6.811  10.079  0.1523  0.1613 -0.0666
  731MOL0     O98558   8.745   6.715  10.014 -0.3119 -0.3454 -0.3429
  731MOL0     C98559   8.809   6.592   9.976  0.4556 -0.1415 -0.1378
  731MOL0     C98560   8.740   6.526   9.855  0.3140 -0.0912 -0.2950
  731MOL0     C98561   8.794   6.389   9.823 -0.0542 -0.2203 -0.4721
  731MOL0     C98562   8.785   6.353   9.677 -0.6838  0.8248  0.1076
  731MOL0     C98563   8.886   6.429   9.585 -0.0429  0.3195 -1.0015
  731MOL0     C98564   8.962   6.343   9.487 -0.0695  0.0272 -0.3830
  731MOL0     C98565   8.896   6.254   9.390  0.4218 -0.1666  0.5973
  731MOL0     C98566   8.969   6.225   9.251 -0.3460  0.8343 -0.7832
  731MOL0     N98567   9.107   6.173   9.272  0.7575 -0.0135 -0.4922
  731MOL0     C98568   9.221   6.239   9.320  0.2400  0.1199  0.3923
  731MOL0     C98569   9.325   6.157   9.278  0.2718 -0.4702 -0.3591
  731MOL0     C98570   9.468   6.191   9.292 -0.6816  0.4715 -0.6478
  731MOL0     C98571   9.521   6.127   9.420 -0.2293  0.2109  0.0842
  731MOL0     C98572   9.513   5.974   9.434  0.2373 -0.4192  0.1810
  731MOL0     C98573   9.562   5.931   9.564 -0.5576  0.3538 -0.3677
  731MOL0     O98574   9.534   5.788   9.577 -0.8156 -0.8009  0.5425
  731MOL0     C98575   9.590   5.730   9.688  0.0515 -0.5983  0.8153
  731MOL0     C98576   9.523   5.616   9.731  0.0189 -0.3441  0.5284
  731MOL0     C98577   9.564   5.540   9.853 -0.0464 -0.4784  0.3323
  731MOL0     C98578   9.477   5.417   9.888  1.3371 -0.9093 -0.0110
  731MOL0     C98579   9.687   5.580   9.913  0.3025 -0.1969 -1.0337
  731MOL0     C98580   9.742   5.513  10.033  0.5233 -0.3701  0.1989
  731MOL0     O98581   9.667   5.424  10.098  0.1865 -0.4009  0.0483
  731MOL0     C98582   9.690   5.375  10.230  0.5306  0.2038  0.3111
  731MOL0     C98583   9.583   5.310  10.288 -0.1155 -0.7328 -0.3858
  731MOL0     C98584   9.587   5.244  10.411 -0.2308  1.0216  0.1672
  731MOL0     C98585   9.705   5.231  10.491  0.5597 -0.2015 -0.4036
  731MOL0     O98586   9.736   5.171  10.608 -0.3384 -0.5325 -0.0050
  731MOL0     C98587   9.613   5.106  10.657 -0.1457 -0.0798  0.5064
  731MOL0     C98588   9.651   5.049  10.796  0.1560  0.0301  0.3898
  731MOL0     C98589   9.527   5.020  10.875 -0.5594  0.2041 -0.5958
  731MOL0     C98590   9.487   5.139  10.962  0.3575 -0.0205  0.1272
  731MOL0     C98591   9.359   5.097  11.039 -0.4153 -0.9312  0.1562
  731MOL0     C98592   9.305   5.202  11.136  1.8593 -0.3685 -0.2165
  731MOL0     C98593   9.296   5.339  11.071 -0.3046  0.5972 -0.2041
  731MOL0     C98594   9.235   5.439  11.171 -0.1501  0.0602  0.8090
  731MOL0    Cl98595   9.374   5.520  11.245 -0.0697  0.3797 -0.1989
  731MOL0     C98596   9.810   5.304  10.429 -0.3534  0.3051 -1.6710
  731MOL0     C98597   9.811   5.379  10.306  0.3577 -0.2407  0.2162
  731MOL0     O98598   9.861   5.529  10.044 -0.5155  0.6017  0.4456
  731MOL0     C98599   9.755   5.696   9.863  0.0535  0.1669 -0.3489
  731MOL0     C98600   9.706   5.771   9.756 -0.4609 -0.0537  0.8283
  731MOL0     N98601   9.276   6.048   9.221 -0.4621  0.1641  0.6579
  731MOL0     N98602   9.146   6.052   9.217 -0.2683 -0.0929  0.8832
  731MOL0     C98603   8.918   6.778  10.177 -0.6198  0.1903 -0.9003
  731MOL0     C98604   8.981   6.879  10.258 -0.4204 -0.2524 -0.3435
  731MOL0     C98605   9.119   7.257  10.440  0.1752  0.1378  0.0383
  731MOL0     C98606   9.130   7.284  10.576 -0.0084  0.0479 -0.1838
  731MOL0     C98607   9.184   7.405  10.632  0.5376  1.0371 -0.2624
  731MOL0     C98608   9.247   7.490  10.537  0.6597 -0.3390 -0.5620
  731MOL0     O98609   9.329   7.594  10.574  0.6155 -0.5325  0.7551
  731MOL0     C98610   9.287   7.677  10.679 -0.1645  0.0979 -0.5670
  731MOL0     C98611   9.374   7.802  10.678 -0.0048  0.2921  0.7444
  731MOL0     C98612   9.322   7.926  10.752  0.6213  0.2031  0.0737
  731MOL0     C98613   9.400   8.054  10.724 -1.4972  0.6163 -0.3848
  731MOL0     C98614   9.509   8.062  10.820  0.4643  0.5875  0.8697
  731MOL0     C98615   9.621   8.070  10.875  0.7596 -0.4829 -0.2792
  731MOL0     C98616   9.230   7.463  10.401  0.0399 -0.1469 -0.3973
  731MOL0     C98617   9.168   7.351  10.354 -0.5222  0.6717 -0.3740
  731MOL0     H98618   8.845   7.148  10.082 -0.9325 -0.8122 -2.7874
  731MOL0     H98619   8.717   6.971   9.983  0.6197 -1.5938 -0.7820
  731MOL0     H98620   8.910   6.610   9.937  0.3140 -0.0945 -0.4809
  731MOL0     H98621   8.812   6.521  10.060 -0.9990 -0.7332 -0.5670
  731MOL0     H98622   8.632   6.528   9.873  0.2954  0.9870 -0.4707
  731MOL0     H98623   8.760   6.598   9.775  1.0493  1.6158  1.3497
  731MOL0     H98624   8.895   6.381   9.864 -1.2694 -1.0653  2.6476
  731MOL0     H98625   8.729   6.318   9.875 -0.2645 -1.6392 -2.5522
  731MOL0     H98626   8.804   6.246   9.664 -3.2280  0.3632 -0.3544
  731MOL0     H98627   8.686   6.376   9.635 -0.1896  2.6400 -0.1510
  731MOL0     H98628   8.832   6.507   9.531  1.0672  4.2428  2.9597
  731MOL0     H98629   8.961   6.478   9.649  0.2604 -2.2722  0.8145
  731MOL0     H98630   9.012   6.420   9.427  1.8299 -1.6933 -1.1281
  731MOL0     H98631   9.044   6.285   9.531  1.2382  0.1215 -2.4936
  731MOL0     H98632   8.872   6.160   9.441  3.2905 -2.9912 -2.7201
  731MOL0     H98633   8.798   6.298   9.369  0.1747 -1.2833 -0.7389
  731MOL0     H98634   8.961   6.318   9.194 -1.6706 -0.2301 -2.4381
  731MOL0     H98635   8.914   6.143   9.203  0.2675 -0.5305  0.7402
  731MOL0     H98636   9.226   6.338   9.363 -0.9188 -0.2775  1.5220
  731MOL0     H98637   9.533   6.153   9.213 -0.0596 -0.2199  0.1699
  731MOL0     H98638   9.468   6.300   9.300 -1.7053  0.4845 -0.6454
  731MOL0     H98639   9.468   6.166   9.507 -0.8169 -1.8162  0.6808
  731MOL0     H98640   9.623   6.164   9.438 -1.1771  1.9656  2.4290
  731MOL0     H98641   9.578   5.929   9.358  3.2937  0.6001  1.9994
  731MOL0     H98642   9.409   5.940   9.430 -0.1755  0.8069  0.2458
  731MOL0     H98643   9.510   5.982   9.647  0.7412  1.0243  0.0747
  731MOL0     H98644   9.670   5.942   9.576 -0.5931 -1.4397  2.5964
  731MOL0     H98645   9.433   5.582   9.682 -0.4720  0.2213  1.0310
  731MOL0     H98646   9.551   5.336   9.898  2.4524  0.0450 -0.3318
  731MOL0     H98647   9.421   5.421   9.981  0.0107 -0.2097 -0.8152
  731MOL0     H98648   9.403   5.393   9.811 -0.4496  0.0274  1.3726
  731MOL0     H98649   9.491   5.304  10.231  0.5569  2.2330 -2.0289
  731MOL0     H98650   9.493   5.191  10.416  0.6739 -1.0120 -2.3380
  731MOL0     H98651   9.518   5.160  10.670  0.1744  0.0212  2.7755
  731MOL0     H98652   9.585   5.029  10.584 -2.9074  1.7263 -0.5200
  731MOL0     H98653   9.708   4.957  10.781  0.0428 -0.4437  2.5064
  731MOL0     H98654   9.713   5.124  10.845 -0.6667  0.0778  1.3835
  731MOL0     H98655   9.543   4.927  10.930  0.4516 -0.6499 -2.2315
  731MOL0     H98656   9.440   5.001  10.812 -0.7756 -1.5068  0.1690
  731MOL0     H98657   9.560   5.158  11.042  0.4904  0.2277 -0.0525
  731MOL0     H98658   9.461   5.230  10.908  0.4643 -0.5730 -0.8786
  731MOL0     H98659   9.377   5.014  11.108 -1.6413 -1.2085  0.1578
  731MOL0     H98660   9.283   5.059  10.970  0.0701 -3.3797  0.8432
  731MOL0     H98661   9.208   5.166  11.173  2.4360 -0.7455  0.9928
  731MOL0     H98662   9.378   5.200  11.217  2.4289 -2.6951 -0.7142
  731MOL0     H98663   9.240   5.326  10.977  1.8492 -0.9577 -1.3643
  731MOL0     H98664   9.390   5.383  11.038  1.0648 -0.1123  2.5216
  731MOL0     H98665   9.190   5.379  11.250  1.4013  0.0477  1.7236
  731MOL0     H98666   9.162   5.507  11.126 -1.3534 -2.4082 -1.2056
  731MOL0     H98667   9.892   5.287  10.498 -2.3074  4.2401  2.1840
  731MOL0     H98668   9.901   5.432  10.276 -1.5527  2.9410 -0.3596
  731MOL0     H98669   9.842   5.735   9.912  0.1244  0.8034 -0.9652
  731MOL0     H98670   9.762   5.856   9.719 -3.0948  1.4184 -0.0344
  731MOL0     H98671   8.928   6.673  10.202  4.2493  0.5964 -0.1494
  731MOL0     H98672   9.056   6.858  10.333  1.5194  0.3516 -1.9986
  731MOL0     H98673   9.087   7.210  10.644 -0.2077  0.5927  0.2908
  731MOL0     H98674   9.190   7.439  10.735  2.7618 -0.4703  0.1715
  731MOL0     H98675   9.183   7.711  10.677  0.6789  2.9596 -0.7675
  731MOL0     H98676   9.307   7.623  10.772 -0.9041 -0.1319 -0.5390
  731MOL0     H98677   9.393   7.832  10.574  1.3644 -1.5047  0.4311
  731MOL0     H98678   9.477   7.783  10.710  0.4851 -3.1906 -2.3283
  731MOL0     H98679   9.333   7.912  10.860  2.3194  0.1306 -0.0923
  731MOL0     H98680   9.217   7.940  10.722  0.8335 -1.3710 -1.6136
  731MOL0     H98681   9.335   8.139  10.750 -0.7839  1.5749 -1.5679
  731MOL0     H98682   9.430   8.060  10.618 -1.0589  1.3862 -0.2289
  731MOL0     H98683   9.713   8.079  10.930  1.3369  2.5552 -1.5333
  731MOL0     H98684   9.256   7.544  10.334 -4.4010  2.7207  0.8986
  731MOL0     H98685   9.163   7.338  10.246 -1.4245  3.2021 -0.7135
  732MOL0     O98686   0.824  11.428  10.602  0.2809 -0.2568 -0.1887
  732MOL0     C98687   0.713  11.469  10.641  1.0560 -0.9077  0.1341
  732MOL0     O98688   0.623  11.546  10.561  0.1732  0.4245  0.0684
  732MOL0     C98689   0.676  11.606  10.450  0.7112  0.2704 -0.3566
  732MOL0     C98690   0.620  11.587  10.329 -0.2089  0.1297  0.0610
  732MOL0     C98691   0.647  11.667  10.218  0.2724  0.1457  0.0535
  732MOL0     C98692   0.742  11.766  10.230 -0.2119 -0.7373  0.0434
  732MOL0     O98693   0.792  11.835  10.122  0.2004 -0.1479 -0.3639
  732MOL0     C98694   0.910  11.768  10.087 -1.1446 -0.4485 -0.1722
  732MOL0     C98695   1.028  11.868  10.080  0.4710 -0.3142  0.5099
  732MOL0     C98696   1.128  11.845  10.198 -0.3744 -0.2496 -0.3116
  732MOL0     C98697   1.254  11.932  10.199 -1.1858 -0.1535 -0.2780
  732MOL0     C98698   1.345  11.884  10.315 -0.7002  0.6202 -0.3931
  732MOL0     C98699   1.288  11.945  10.450 -1.0272  0.1377 -0.7479
  732MOL0     C98700   1.320  12.094  10.468 -0.4581  0.3620 -0.4630
  732MOL0     C98701   1.201  12.183  10.516  1.2201  0.4850 -0.1768
  732MOL0     N98702   1.241  12.325  10.540  0.1654  0.2586 -0.8855
  732MOL0     C98703   1.266  12.426  10.452  0.2864  0.5035  0.7032
  732MOL0     C98704   1.301  12.534  10.522  0.9727 -0.1150 -0.5765
  732MOL0     C98705   1.315  12.661  10.475  0.3515 -0.0549 -0.0242
  732MOL0     C98706   1.394  12.745  10.570  0.0447 -0.4896  0.0892
  732MOL0     C98707   1.404  12.894  10.514  0.1665  0.0809  0.9911
  732MOL0     C98708   1.269  12.952  10.467  0.5834  0.5912 -0.4495
  732MOL0     O98709   1.175  12.941  10.567  0.1948 -0.0960  0.5755
  732MOL0     C98710   1.038  12.979  10.539  0.1428 -0.7267 -0.1985
  732MOL0     C98711   0.971  12.951  10.411 -0.1947 -0.1709  0.0056
  732MOL0     C98712   0.842  12.979  10.400  0.3950 -0.7339  1.1755
  732MOL0     C98713   0.784  12.948  10.266  0.5460 -0.8911  0.3746
  732MOL0     C98714   0.767  13.045  10.493 -0.7341 -0.6116  0.0907
  732MOL0     C98715   0.639  13.124  10.466 -0.6400  0.5621  0.5232
  732MOL0     O98716   0.601  13.202  10.575 -0.4221 -0.2292  1.0034
  732MOL0     C98717   0.484  13.263  10.577  0.0948  0.0846  0.4534
  732MOL0     C98718   0.450  13.357  10.476  0.4807  0.8406  0.1708
  732MOL0     C98719   0.326  13.430  10.477  0.0000  0.2026 -0.2605
  732MOL0     C98720   0.248  13.410  10.594 -0.0063 -0.1932 -0.9239
  732MOL0     O98721   0.127  13.477  10.605  0.1170 -0.0530 -0.1611
  732MOL0     C98722   0.064  13.584  10.525  0.1240  0.3903 -0.3773
  732MOL0     C98723   0.108  13.713  10.564  0.5718 -0.4456  0.5707
  732MOL0     C98724   0.065  13.760  10.699 -0.0317 -0.0903 -0.8860
  732MOL0     C98725   0.149  13.889  10.742 -0.3918 -0.4348  0.5220
  732MOL0     C98726   0.117  13.934  10.885 -0.6002 -0.0038 -0.2968
  732MOL0     C98727  -0.028  13.988  10.910 -1.2988 -0.8655 -0.3977
  732MOL0     C98728  -0.065  14.008  11.058  0.8838  0.6561 -0.9708
  732MOL0     C98729  -0.201  14.078  11.078 -0.2844  0.1220  0.5082
  732MOL0    Cl98730  -0.325  13.982  10.985  0.0736  0.4689  0.1480
  732MOL0     C98731   0.285  13.326  10.698 -0.4838 -0.2034  0.1781
  732MOL0     C98732   0.401  13.253  10.688  0.3130  0.1607 -1.0141
  732MOL0     O98733   0.562  13.093  10.369  0.3428  0.3350 -0.0688
  732MOL0     C98734   0.825  13.064  10.625  0.1439  0.1081  0.0448
  732MOL0     C98735   0.954  13.017  10.651 -1.2432 -0.4339  0.8941
  732MOL0     N98736   1.316  12.488  10.652  0.8842  0.5673 -0.5968
  732MOL0     N98737   1.271  12.364  10.665 -0.5815  0.1119  0.0949
  732MOL0     C98738   0.788  11.798  10.361 -1.2440  0.1490 -0.0785
  732MOL0     C98739   0.763  11.717  10.469  0.1405  0.0197 -0.1120
  732MOL0     C98740   0.672  11.423  10.768  0.5660 -1.0778 -0.1468
  732MOL0     C98741   0.755  11.373  10.869  0.0641  0.0750  0.1603
  732MOL0     C98742   0.702  11.323  10.991  0.0714  1.2901  0.2095
  732MOL0     C98743   0.567  11.332  11.024 -0.8429 -1.1413 -0.1217
  732MOL0     O98744   0.531  11.275  11.143 -0.6629 -0.3334  0.3504
  732MOL0     C98745   0.401  11.284  11.183 -0.0730  0.4761 -0.9096
  732MOL0     C98746   0.385  11.191  11.306  0.1506  0.1957 -0.5526
  732MOL0     C98747   0.433  11.249  11.435  0.3440 -0.3254  0.3031
  732MOL0     C98748   0.415  11.163  11.566  0.0791  0.5809 -0.3916
  732MOL0     C98749   0.271  11.154  11.597 -0.7445 -0.3390  0.1993
  732MOL0     C98750   0.155  11.141  11.636  0.3906  0.2442  0.0444
  732MOL0     C98751   0.488  11.400  10.933 -0.0122 -0.6222  0.3588
  732MOL0     C98752   0.537  11.449  10.811 -0.0445  0.0448  0.1677
  732MOL0     H98753   0.536  11.519  10.315 -1.1536  1.3814 -0.5254
  732MOL0     H98754   0.606  11.643  10.121  1.2463 -0.0200 -0.3344
  732MOL0     H98755   0.943  11.694  10.161  2.2213  1.3766  0.3375
  732MOL0     H98756   0.899  11.720   9.990  3.6084 -0.2335 -1.0597
  732MOL0     H98757   1.091  11.846   9.993  0.3971  0.0681  0.3606
  732MOL0     H98758   0.992  11.971  10.076  0.3463  0.0980  5.6590
  732MOL0     H98759   1.074  11.871  10.290 -0.5986  2.9517 -1.2164
  732MOL0     H98760   1.148  11.738  10.208  0.6353  0.0473  1.0612
  732MOL0     H98761   1.312  11.909  10.109  1.8619  1.9080  0.9869
  732MOL0     H98762   1.238  12.040  10.198 -1.8788 -0.2005 -3.1706
  732MOL0     H98763   1.343  11.775  10.317 -1.2516  0.6063 -1.1079
  732MOL0     H98764   1.446  11.923  10.299 -0.5617  1.4544  2.1785
  732MOL0     H98765   1.180  11.928  10.448 -1.4151  2.2773 -0.5754
  732MOL0     H98766   1.332  11.892  10.536  1.3663  0.1648 -1.8757
  732MOL0     H98767   1.402  12.120  10.535 -0.0328  2.3559 -1.6540
  732MOL0     H98768   1.359  12.140  10.377 -0.9798  0.3007 -0.7254
  732MOL0     H98769   1.160  12.139  10.608 -0.7823  0.4472 -1.0380
  732MOL0     H98770   1.131  12.181  10.433  4.1514 -1.2809 -2.8402
  732MOL0     H98771   1.261  12.437  10.344 -1.9461  1.3672  0.8290
  732MOL0     H98772   1.380  12.667  10.387  2.5898 -0.1697  1.5505
  732MOL0     H98773   1.216  12.704  10.457  1.9211  3.6667 -0.7766
  732MOL0     H98774   1.492  12.696  10.576  0.2757  0.0581  0.9435
  732MOL0     H98775   1.341  12.755  10.665 -2.5500  0.2088 -1.3458
  732MOL0     H98776   1.466  12.901  10.425 -3.1782 -1.9040 -1.7592
  732MOL0     H98777   1.435  12.968  10.588 -1.4303  2.4946 -0.6183
  732MOL0     H98778   1.248  12.889  10.381 -0.2355 -1.8065  1.3765
  732MOL0     H98779   1.265  13.057  10.437 -1.0181  1.0778  1.2510
  732MOL0     H98780   1.035  12.915  10.331 -0.6223  1.2320 -1.0054
  732MOL0     H98781   0.696  12.884  10.269  0.1113 -0.2747  1.3881
  732MOL0     H98782   0.759  13.042  10.217  2.2718 -0.4622  0.2654
  732MOL0     H98783   0.849  12.881  10.209  0.2004 -4.1922  3.4553
  732MOL0     H98784   0.503  13.368  10.382  1.5860 -0.5433  0.6027
  732MOL0     H98785   0.297  13.483  10.387  0.2401 -2.4916 -2.0100
  732MOL0     H98786   0.081  13.571  10.417 -1.9487 -1.4866 -0.5485
  732MOL0     H98787  -0.043  13.578  10.549  0.7749  1.4543  3.3908
  732MOL0     H98788   0.217  13.718  10.570  0.8246  1.2374 -2.8157
  732MOL0     H98789   0.083  13.793  10.494  2.9510  0.0470  0.2143
  732MOL0     H98790   0.087  13.681  10.772  4.2712 -1.1530 -3.0298
  732MOL0     H98791  -0.044  13.759  10.697 -0.0993 -0.1662  0.7886
  732MOL0     H98792   0.256  13.869  10.738 -0.0482  1.4193 -1.4233
  732MOL0     H98793   0.133  13.962  10.662  1.2350  0.2242  0.7621
  732MOL0     H98794   0.188  14.008  10.925 -0.0747  0.3726 -1.8663
  732MOL0     H98795   0.130  13.842  10.944  0.8831 -0.3596 -1.1075
  732MOL0     H98796  -0.029  14.084  10.857 -0.8050 -0.4596  0.3154
  732MOL0     H98797  -0.097  13.920  10.858  0.2889 -3.1746  0.3493
  732MOL0     H98798   0.006  14.078  11.105  4.9087 -1.5178 -3.3059
  732MOL0     H98799  -0.072  13.918  11.120  0.4831  2.2138  1.4076
  732MOL0     H98800  -0.186  14.180  11.041 -0.0526  0.7317  2.2234
  732MOL0     H98801  -0.239  14.091  11.179 -1.3270 -1.1348  0.2972
  732MOL0     H98802   0.215  13.310  10.779 -0.5096  0.1202  0.2210
  732MOL0     H98803   0.431  13.176  10.758  0.9021 -0.5226 -1.9957
  732MOL0     H98804   0.779  13.113  10.710  2.2634  3.0352 -0.3366
  732MOL0     H98805   1.000  13.017  10.749 -0.1633  3.7354  0.6084
  732MOL0     H98806   0.858  11.878  10.384 -0.9932 -0.3738  1.0473
  732MOL0     H98807   0.819  11.743  10.558  1.3675 -3.9391  0.4933
  732MOL0     H98808   0.858  11.356  10.837 -0.2569  1.4300 -1.7333
  732MOL0     H98809   0.767  11.266  11.056 -1.2406 -2.5027 -1.5203
  732MOL0     H98810   0.384  11.387  11.217  3.6742  1.0806 -0.5174
  732MOL0     H98811   0.321  11.248  11.118  0.3593 -1.2960 -0.5203
  732MOL0     H98812   0.432  11.094  11.284 -3.0882 -1.2942 -1.5015
  732MOL0     H98813   0.278  11.171  11.316  0.7238 -2.4166  1.2973
  732MOL0     H98814   0.393  11.350  11.449  0.3570 -0.6974  3.9303
  732MOL0     H98815   0.540  11.255  11.414  0.4674 -3.6722 -0.7741
  732MOL0     H98816   0.449  11.215  11.656 -1.7522  0.9502  0.1440
  732MOL0     H98817   0.461  11.068  11.539 -1.0741  1.0345 -4.7095
  732MOL0     H98818   0.055  11.125  11.671  0.9746 -1.9611  0.8786
  732MOL0     H98819   0.384  11.430  10.940  1.0474  3.6564  0.6185
  732MOL0     H98820   0.473  11.513  10.751  0.7351  0.4423 -0.2638
  733MOL0     O98821   9.792   8.398   5.106 -0.9583  0.8300  0.0012
  733MOL0     C98822   9.735   8.498   5.146  0.0350  0.4975 -0.0898
  733MOL0     O98823   9.600   8.515   5.151 -0.7506  0.1037  0.0657
  733MOL0     C98824   9.501   8.428   5.095 -0.0874 -0.5245 -1.2873
  733MOL0     C98825   9.529   8.323   4.999 -0.0398  0.8535 -0.0424
  733MOL0     C98826   9.436   8.229   4.953 -0.4927 -1.1820 -0.1738
  733MOL0     C98827   9.310   8.237   5.012  0.2121 -0.0786 -0.7152
  733MOL0     O98828   9.196   8.161   4.989 -0.8986 -0.3788  1.2106
  733MOL0     C98829   9.203   8.047   4.893 -0.4802 -0.5755 -0.9097
  733MOL0     C98830   9.065   7.992   4.877 -0.2700 -0.7096 -0.9263
  733MOL0     C98831   8.984   8.072   4.770  0.2885 -0.4995  0.0245
  733MOL0     C98832   8.831   8.072   4.800 -0.1710  1.1761 -1.1253
  733MOL0     C98833   8.753   8.154   4.700 -0.2490  0.4497  0.0435
  733MOL0     C98834   8.756   8.092   4.553 -0.3031 -0.1953  0.6777
  733MOL0     C98835   8.657   8.135   4.455  0.6357  0.1297 -0.0176
  733MOL0     C98836   8.579   8.029   4.377 -0.4052 -0.7920 -0.0486
  733MOL0     N98837   8.479   8.082   4.276 -0.4112 -0.4897  0.1296
  733MOL0     C98838   8.512   8.147   4.162 -0.5397 -0.0957 -0.3762
  733MOL0     C98839   8.412   8.154   4.073 -0.0163  1.1211 -0.2327
  733MOL0     C98840   8.431   8.197   3.924 -0.7384  0.1011 -0.3186
  733MOL0     C98841   8.323   8.296   3.855 -0.3420  0.4370  0.7023
  733MOL0     C98842   8.185   8.225   3.830  0.3131  0.0915  0.0928
  733MOL0     C98843   8.181   8.150   3.698 -0.3418  0.1702  0.2798
  733MOL0     O98844   8.174   8.237   3.579 -0.0308  0.1222  0.6687
  733MOL0     C98845   8.119   8.174   3.467  0.5085 -0.1722 -0.5330
  733MOL0     C98846   8.083   8.261   3.361 -0.2681  0.2787 -0.5845
  733MOL0     C98847   8.022   8.218   3.234 -0.5896  0.9834 -0.5338
  733MOL0     C98848   7.974   8.315   3.131 -0.1736  0.0826 -0.1619
  733MOL0     C98849   8.016   8.076   3.213  0.4405  0.5886  0.9065
  733MOL0     C98850   7.955   8.008   3.092  0.6515  0.2449 -0.2104
  733MOL0     O98851   7.863   8.076   3.012 -0.6516 -0.1662 -0.0406
  733MOL0     C98852   7.868   8.030   2.885  0.0465  0.5910  0.5925
  733MOL0     C98853   7.968   8.062   2.796 -0.3002 -0.5763  0.7480
  733MOL0     C98854   7.981   7.984   2.673  0.2760 -0.0668 -0.5016
  733MOL0     C98855   7.894   7.871   2.649  0.5743 -0.1956 -0.4304
  733MOL0     O98856   7.908   7.798   2.530  0.0171  0.4556 -0.0750
  733MOL0     C98857   8.041   7.765   2.483  1.8665  0.8566 -0.7497
  733MOL0     C98858   8.052   7.629   2.398  0.5204 -1.1497 -1.0036
  733MOL0     C98859   8.194   7.550   2.413  0.1171 -0.0772 -0.3033
  733MOL0     C98860   8.203   7.461   2.539  0.2606  0.7187 -0.3958
  733MOL0     C98861   8.335   7.371   2.559 -0.5175 -0.8566 -0.3956
  733MOL0     C98862   8.462   7.464   2.538 -0.1223  0.3657 -0.0950
  733MOL0     C98863   8.591   7.396   2.595  0.0356 -0.2755 -0.0772
  733MOL0     C98864   8.701   7.501   2.587  0.7012  0.0731  0.7514
  733MOL0    Cl98865   8.836   7.402   2.556  0.2457 -0.5896 -0.1054
  733MOL0     C98866   7.792   7.847   2.746 -0.0314 -0.6255  0.4815
  733MOL0     C98867   7.776   7.932   2.850 -0.1952 -0.0934  0.0899
  733MOL0     O98868   7.993   7.890   3.070 -0.1463 -0.7894  0.4628
  733MOL0     C98869   8.066   7.994   3.314  0.2995  0.3547 -0.1281
  733MOL0     C98870   8.120   8.037   3.437 -1.2662 -0.5395 -0.4610
  733MOL0     N98871   8.306   8.097   4.137 -1.3820 -0.1540 -0.3054
  733MOL0     N98872   8.351   8.055   4.250  0.5614  0.3009  0.3192
  733MOL0     C98873   9.279   8.341   5.102 -0.3205 -0.7472 -0.7585
  733MOL0     C98874   9.367   8.443   5.143 -0.1507  0.4708  0.9197
  733MOL0     C98875   9.817   8.622   5.175 -0.3740 -0.0367 -0.1524
  733MOL0     C98876   9.949   8.608   5.217 -0.5777  0.1686 -0.4373
  733MOL0     C98877  10.031   8.716   5.232 -0.8954  0.1605  0.4254
  733MOL0     C98878   9.973   8.843   5.216 -0.5080 -0.0410 -0.3166
  733MOL0     O98879  10.050   8.955   5.227 -0.0442  0.9268 -0.3558
  733MOL0     C98880  10.192   8.958   5.257  0.4114  0.6154  0.2080
  733MOL0     C98881  10.242   9.100   5.283 -0.2397  0.7881 -0.3067
  733MOL0     C98882  10.230   9.204   5.175  0.3983  0.0883  0.5367
  733MOL0     C98883  10.319   9.324   5.207 -0.5224 -0.8002 -0.2918
  733MOL0     C98884  10.311   9.427   5.098 -0.4511  0.0151 -0.2766
  733MOL0     C98885  10.292   9.505   5.005 -0.0139 -0.9114  0.5445
  733MOL0     C98886   9.838   8.858   5.199  0.4059  0.8803 -0.9250
  733MOL0     C98887   9.758   8.750   5.165 -0.2325 -1.1954 -0.8006
  733MOL0     H98888   9.630   8.311   4.959 -0.9334 -3.1357 -1.5544
  733MOL0     H98889   9.480   8.155   4.886  2.0720  0.0205  0.0690
  733MOL0     H98890   9.237   8.081   4.794  0.7527  2.7456  0.5039
  733MOL0     H98891   9.272   7.975   4.938  1.1303 -0.3582 -2.8639
  733MOL0     H98892   9.088   7.890   4.845  0.2746 -1.0661  0.5186
  733MOL0     H98893   9.006   7.985   4.969  1.0991  0.6085  0.1247
  733MOL0     H98894   9.029   8.171   4.761  0.1724 -0.4984 -0.5988
  733MOL0     H98895   9.000   8.029   4.670  2.0545  1.0556 -0.3987
  733MOL0     H98896   8.788   7.972   4.790 -1.5763  1.8027 -1.6522
  733MOL0     H98897   8.826   8.102   4.905  0.9412  1.9175 -1.2691
  733MOL0     H98898   8.649   8.136   4.728 -0.0468  0.1713  0.6191
  733MOL0     H98899   8.781   8.260   4.694 -0.6031  0.4693 -3.4283
  733MOL0     H98900   8.853   8.123   4.516 -0.5976  1.9414  1.5794
  733MOL0     H98901   8.750   7.983   4.563  0.1285 -0.2376  0.4991
  733MOL0     H98902   8.582   8.204   4.496 -0.6126 -0.9625 -0.4199
  733MOL0     H98903   8.720   8.186   4.381 -1.3596  1.5821 -0.8049
  733MOL0     H98904   8.520   7.970   4.447 -0.8824  0.6122  0.7646
  733MOL0     H98905   8.658   7.969   4.331  3.7113  2.9627  1.3701
  733MOL0     H98906   8.611   8.170   4.124 -0.4340 -4.1178 -3.1169
  733MOL0     H98907   8.534   8.235   3.929 -0.7825  0.1819 -0.0116
  733MOL0     H98908   8.423   8.108   3.861 -3.3034  0.7392 -1.0017
  733MOL0     H98909   8.372   8.331   3.763  1.3263 -0.1312  1.3457
  733MOL0     H98910   8.298   8.380   3.921 -1.4861  2.5789 -2.2135
  733MOL0     H98911   8.105   8.300   3.836 -0.9643 -1.3405  1.7170
  733MOL0     H98912   8.171   8.143   3.900  0.2728  3.5813  4.6791
  733MOL0     H98913   8.088   8.093   3.698 -0.2783 -0.0238 -1.5966
  733MOL0     H98914   8.262   8.076   3.699 -0.5662 -0.0744  1.9997
  733MOL0     H98915   8.095   8.367   3.379 -3.0183  0.3704  1.3119
  733MOL0     H98916   8.013   8.414   3.158  0.1683 -0.6545  2.2730
  733MOL0     H98917   8.011   8.288   3.031 -2.8117 -0.6344 -1.0318
  733MOL0     H98918   7.865   8.308   3.134 -0.2494  0.6046 -1.0826
  733MOL0     H98919   8.044   8.138   2.813 -0.6485 -0.1078  0.2469
  733MOL0     H98920   8.071   8.015   2.620 -1.1194  1.6004 -2.0311
  733MOL0     H98921   8.079   7.852   2.430 -0.0200  2.0275 -0.2741
  733MOL0     H98922   8.098   7.745   2.574  0.5337 -0.9372 -0.2509
  733MOL0     H98923   7.967   7.570   2.432  2.5619 -2.1627  2.9129
  733MOL0     H98924   8.043   7.641   2.290  0.6839 -2.2113 -1.1488
  733MOL0     H98925   8.275   7.624   2.420 -1.4001  1.6402  0.0072
  733MOL0     H98926   8.228   7.489   2.329 -0.5217  0.0650 -0.6733
  733MOL0     H98927   8.179   7.509   2.634  0.8784 -1.2248  0.7990
  733MOL0     H98928   8.116   7.398   2.519 -0.0974  0.8076  0.8260
  733MOL0     H98929   8.349   7.279   2.501  3.1433  0.1457 -1.3521
  733MOL0     H98930   8.331   7.351   2.667  2.6239  1.5929  0.2983
  733MOL0     H98931   8.473   7.478   2.430 -3.9148 -1.8560 -0.9627
  733MOL0     H98932   8.454   7.558   2.592 -2.8162 -0.0009  0.2779
  733MOL0     H98933   8.605   7.307   2.532 -3.2613 -0.7303 -0.3697
  733MOL0     H98934   8.581   7.359   2.698  1.8883 -4.4087 -1.1490
  733MOL0     H98935   8.716   7.554   2.682  3.5407  2.1683 -0.7136
  733MOL0     H98936   8.684   7.575   2.509 -0.1870 -0.8499  0.0376
  733MOL0     H98937   7.736   7.755   2.738 -1.8645  0.5072 -0.7216
  733MOL0     H98938   7.709   7.905   2.931  1.6636 -2.8411  0.8581
  733MOL0     H98939   8.065   7.891   3.282 -2.7541  1.0609 -2.9188
  733MOL0     H98940   8.152   7.967   3.514 -1.8881 -0.0273  0.2784
  733MOL0     H98941   9.184   8.342   5.156 -0.9306  1.1751 -1.7969
  733MOL0     H98942   9.327   8.518   5.211 -1.9679 -1.5105  2.1715
  733MOL0     H98943   9.993   8.509   5.223 -3.5773 -1.3172 -1.2832
  733MOL0     H98944  10.135   8.694   5.257 -1.1718  2.0418  3.8986
  733MOL0     H98945  10.220   8.903   5.347 -1.4837  0.1878  0.5687
  733MOL0     H98946  10.248   8.904   5.179  0.0622  1.8184 -0.9095
  733MOL0     H98947  10.345   9.093   5.319 -1.1483  1.8866  2.9556
  733MOL0     H98948  10.192   9.135   5.374 -0.1984 -3.9037  1.8092
  733MOL0     H98949  10.126   9.237   5.162 -0.1234 -1.7891 -0.5403
  733MOL0     H98950  10.237   9.169   5.071 -0.2899 -0.8958  0.8031
  733MOL0     H98951  10.423   9.293   5.220 -1.0590 -2.0055  1.4925
  733MOL0     H98952  10.297   9.373   5.303  2.0651 -2.2883  1.1620
  733MOL0     H98953  10.275   9.569   4.921  0.3999 -0.5393  0.7397
  733MOL0     H98954   9.805   8.961   5.198 -5.8023 -0.7229 -1.2449
  733MOL0     H98955   9.661   8.761   5.117 -1.0855 -1.3931  0.8140
  734MOL0     O98956   9.803   3.657   5.339 -0.3759 -0.8582 -0.0352
  734MOL0     C98957   9.692   3.655   5.393  0.0565  0.7588 -0.3409
  734MOL0     O98958   9.650   3.757   5.474 -0.0180 -0.6432 -0.5739
  734MOL0     C98959   9.709   3.882   5.464  0.6654 -0.9575 -0.2046
  734MOL0     C98960   9.742   3.953   5.585  0.7045  0.4507 -0.1136
  734MOL0     C98961   9.805   4.075   5.579 -0.2572  0.3193  0.8116
  734MOL0     C98962   9.840   4.126   5.447 -0.3981 -0.6462  0.5309
  734MOL0     O98963   9.902   4.252   5.434 -0.0968  0.2460  0.5575
  734MOL0     C98964   9.815   4.342   5.365  0.2248 -0.9750  1.4211
  734MOL0     C98965   9.878   4.477   5.339 -0.1505 -0.1624  0.9853
  734MOL0     C98966   9.798   4.557   5.238  0.3418  0.8091  0.0078
  734MOL0     C98967   9.861   4.695   5.212  0.6145  1.1921  1.1107
  734MOL0     C98968   9.816   4.770   5.083 -0.0623 -0.0138  0.0550
  734MOL0     C98969   9.671   4.814   5.089 -0.1596  0.7909 -0.0480
  734MOL0     C98970   9.643   4.894   4.964  0.5627  0.0183 -0.4520
  734MOL0     C98971   9.498   4.886   4.923  0.1549  0.1956 -1.3110
  734MOL0     N98972   9.463   4.989   4.826 -0.1649  0.4193  0.3821
  734MOL0     C98973   9.518   5.009   4.703  0.1696  0.9676  0.6128
  734MOL0     C98974   9.448   5.104   4.643  0.3586 -0.2779  1.2682
  734MOL0     C98975   9.457   5.162   4.501  0.7989  0.7760  0.1085
  734MOL0     C98976   9.331   5.148   4.407 -0.0722 -0.2526 -0.7418
  734MOL0     C98977   9.336   5.252   4.294 -0.5673  0.1948 -0.6789
  734MOL0     C98978   9.202   5.291   4.239  0.7923 -1.0048  0.2794
  734MOL0     O98979   9.146   5.393   4.319  0.6366  0.6060 -0.1032
  734MOL0     C98980   9.097   5.511   4.271 -0.4569 -0.1672 -0.2419
  734MOL0     C98981   9.145   5.565   4.154 -0.1480 -0.4473  0.4219
  734MOL0     C98982   9.102   5.685   4.099  0.6258 -0.1921  0.0790
  734MOL0     C98983   9.172   5.735   3.979 -0.5162  0.3931 -0.0578
  734MOL0     C98984   8.995   5.760   4.169  0.6294 -0.4346 -0.0805
  734MOL0     C98985   8.918   5.876   4.104 -0.4980  0.1055  0.1047
  734MOL0     O98986   8.817   5.934   4.181 -0.2081  0.2671 -0.7354
  734MOL0     C98987   8.719   6.000   4.107 -0.4694 -0.2709 -0.5952
  734MOL0     C98988   8.691   6.140   4.138 -0.2791  1.1115  0.7751
  734MOL0     C98989   8.579   6.206   4.071 -0.6121 -0.1749 -0.2309
  734MOL0     C98990   8.506   6.143   3.977 -0.4436  0.1947  0.9472
  734MOL0     O98991   8.419   6.226   3.911 -0.3420  0.1898  0.4769
  734MOL0     C98992   8.385   6.209   3.765 -0.4184  0.0885  0.2197
  734MOL0     C98993   8.262   6.119   3.748  0.2702 -0.3691  0.0092
  734MOL0     C98994   8.271   6.050   3.610 -1.2607 -0.7487 -0.3529
  734MOL0     C98995   8.140   6.000   3.545  0.0945  0.4437  0.6117
  734MOL0     C98996   8.146   5.985   3.396 -0.2505  0.4806 -0.3951
  734MOL0     C98997   8.082   6.093   3.315  0.1248 -0.4992 -0.5126
  734MOL0     C98998   8.120   6.084   3.173  0.2521  0.8325 -0.3585
  734MOL0     C98999   8.033   6.166   3.088 -0.2263  0.5564 -0.8301
  734MOL0    Cl99000   8.062   6.113   2.908 -0.2872  0.1193  0.3364
  734MOL0     C99001   8.534   6.010   3.950  0.0371  0.0359  0.2970
  734MOL0     C99002   8.642   5.942   4.006  0.0920  0.1726 -1.2889
  734MOL0     O99003   8.965   5.920   3.996 -0.4542  0.2378 -0.2527
  734MOL0     C99004   8.946   5.706   4.290 -0.4194  0.0543 -0.0269
  734MOL0     C99005   9.003   5.591   4.343  0.5290 -0.0433  0.1556
  734MOL0     N99006   9.364   5.151   4.737  0.0419  0.4899 -0.0552
  734MOL0     N99007   9.377   5.084   4.853 -0.1234  0.3950 -0.9191
  734MOL0     C99008   9.821   4.050   5.332  0.2036 -0.7569  0.0485
  734MOL0     C99009   9.758   3.935   5.344 -0.2783 -0.0655  0.6095
  734MOL0     C99010   9.604   3.550   5.375  0.0529 -0.6311  1.0075
  734MOL0     C99011   9.476   3.542   5.435  0.2639  0.0195  0.5699
  734MOL0     C99012   9.399   3.423   5.433  0.5749 -0.5728  0.9351
  734MOL0     C99013   9.445   3.308   5.361  0.5874 -0.0574  1.2853
  734MOL0     O99014   9.377   3.191   5.321 -0.4821 -0.0383 -0.1454
  734MOL0     C99015   9.251   3.164   5.399  0.2119 -1.2458  0.8970
  734MOL0     C99016   9.249   3.022   5.445  0.5674 -0.1168 -0.1410
  734MOL0     C99017   9.314   2.915   5.360 -0.8706 -0.5377 -0.3032
  734MOL0     C99018   9.249   2.920   5.223 -0.0612 -0.0606 -0.1228
  734MOL0     C99019   9.142   2.818   5.228 -0.1944 -0.7376 -0.2353
  734MOL0     C99020   9.056   2.737   5.237  0.3528  0.7697 -1.1183
  734MOL0     C99021   9.568   3.318   5.297  0.5061 -0.0898  0.2040
  734MOL0     C99022   9.648   3.428   5.303 -0.1190  0.6724  0.0259
  734MOL0     H99023   9.717   3.912   5.682 -1.7949  0.9340 -0.4871
  734MOL0     H99024   9.838   4.137   5.662 -4.8082  0.9449  2.3835
  734MOL0     H99025   9.773   4.293   5.277  0.9997 -0.1233  0.5478
  734MOL0     H99026   9.728   4.358   5.429  1.2090 -0.1499  2.5867
  734MOL0     H99027   9.866   4.524   5.438  0.9572 -0.8174  1.4507
  734MOL0     H99028   9.983   4.471   5.311 -0.1792 -0.1863  0.8856
  734MOL0     H99029   9.803   4.501   5.145  1.6695  0.8280  0.0373
  734MOL0     H99030   9.694   4.566   5.270  0.0287 -3.4782  0.7993
  734MOL0     H99031   9.835   4.754   5.300  2.7427  4.0676 -0.0267
  734MOL0     H99032   9.970   4.686   5.213  0.6056  0.6783 -0.2371
  734MOL0     H99033   9.871   4.863   5.065  1.5070 -0.9819 -0.2979
  734MOL0     H99034   9.825   4.698   5.001  1.5856 -1.5121  1.4677
  734MOL0     H99035   9.603   4.728   5.101 -1.5948  1.8944 -0.0173
  734MOL0     H99036   9.667   4.875   5.179 -0.3968  1.1913 -0.3273
  734MOL0     H99037   9.656   5.001   4.983 -2.9315  0.0570  2.8707
  734MOL0     H99038   9.718   4.864   4.890  3.6991  0.2979  2.3314
  734MOL0     H99039   9.442   4.902   5.016 -1.5187  0.5602 -2.3437
  734MOL0     H99040   9.473   4.786   4.888 -0.6582 -0.5791  1.2529
  734MOL0     H99041   9.597   4.949   4.659 -0.1365  1.3878 -0.5553
  734MOL0     H99042   9.459   5.267   4.531 -3.2333  1.1891 -0.5354
  734MOL0     H99043   9.547   5.119   4.456  0.4417 -2.3412  2.0487
  734MOL0     H99044   9.243   5.175   4.465  0.9165 -1.5866  1.5201
  734MOL0     H99045   9.324   5.045   4.369  0.2747 -0.4696 -0.2302
  734MOL0     H99046   9.396   5.209   4.214  0.3794 -1.3164  0.7745
  734MOL0     H99047   9.383   5.346   4.324 -1.5941  1.3032 -2.3405
  734MOL0     H99048   9.138   5.203   4.245 -2.0886  0.9255 -0.2829
  734MOL0     H99049   9.206   5.309   4.131  0.0968 -1.4786  0.1694
  734MOL0     H99050   9.236   5.530   4.106  0.7505 -0.2644  1.9539
  734MOL0     H99051   9.239   5.819   4.003  1.8515 -1.6129  0.8735
  734MOL0     H99052   9.238   5.660   3.934 -1.5006 -0.4762 -0.0791
  734MOL0     H99053   9.110   5.758   3.893  0.6250  0.6789 -0.8258
  734MOL0     H99054   8.754   6.182   4.215 -2.2474 -2.6668  4.9222
  734MOL0     H99055   8.577   6.313   4.088 -2.1041 -0.0087 -1.2767
  734MOL0     H99056   8.369   6.307   3.721 -0.0419 -0.2720 -0.7461
  734MOL0     H99057   8.466   6.165   3.705 -1.5685 -1.2676 -0.3914
  734MOL0     H99058   8.249   6.044   3.826  0.0157  1.3029  1.6406
  734MOL0     H99059   8.176   6.187   3.746 -1.2088 -2.1827 -0.9525
  734MOL0     H99060   8.346   5.971   3.612  1.6336  1.7272 -1.3847
  734MOL0     H99061   8.309   6.128   3.542 -1.1733 -1.7733 -1.5083
  734MOL0     H99062   8.107   5.904   3.586  0.1570 -0.2294 -0.8881
  734MOL0     H99063   8.056   6.069   3.564  0.1904  0.7819 -0.1471
  734MOL0     H99064   8.102   5.892   3.359  2.0048 -0.2658 -1.4099
  734MOL0     H99065   8.251   5.973   3.368 -0.5183 -0.8885 -0.9069
  734MOL0     H99066   7.975   6.096   3.338  0.2868 -0.9163  0.3367
  734MOL0     H99067   8.119   6.189   3.351 -2.6354 -0.0418  1.4356
  734MOL0     H99068   8.105   5.980   3.143 -2.0182  0.1360  2.6335
  734MOL0     H99069   8.226   6.111   3.172  0.2781  1.4499  3.3984
  734MOL0     H99070   8.062   6.271   3.101 -1.3527  0.8629 -0.6352
  734MOL0     H99071   7.927   6.149   3.112 -0.3521 -1.3996 -2.5011
  734MOL0     H99072   8.475   5.955   3.877  0.3665  0.9517 -0.6919
  734MOL0     H99073   8.659   5.842   3.968 -2.5832 -1.5550  1.5948
  734MOL0     H99074   8.862   5.743   4.349  1.0211  1.6126  1.1421
  734MOL0     H99075   8.955   5.549   4.431  0.6950 -2.2621 -0.7461
  734MOL0     H99076   9.850   4.094   5.236  1.8754  0.5788  1.0970
  734MOL0     H99077   9.739   3.882   5.252  0.4729  0.4826  0.1256
  734MOL0     H99078   9.444   3.634   5.483  1.4033 -0.2998  2.0090
  734MOL0     H99079   9.309   3.452   5.486  0.7717  0.5769  0.6577
  734MOL0     H99080   9.240   3.236   5.481 -1.4483  1.7333 -1.7345
  734MOL0     H99081   9.159   3.191   5.346  0.4135 -0.0397  1.1426
  734MOL0     H99082   9.144   3.004   5.469  0.1234  0.3548 -1.6621
  734MOL0     H99083   9.307   3.007   5.537 -0.1841 -1.4413  0.1449
  734MOL0     H99084   9.310   2.814   5.401 -1.0862 -1.2280 -1.9466
  734MOL0     H99085   9.422   2.931   5.346 -1.2550 -0.4267 -4.6601
  734MOL0     H99086   9.318   2.915   5.138  0.4807  2.1014  0.1287
  734MOL0     H99087   9.189   3.009   5.202  0.6530  0.2661 -0.8189
  734MOL0     H99088   8.984   2.658   5.247  0.2594  0.8860 -0.8828
  734MOL0     H99089   9.593   3.223   5.249 -2.2449  0.7157 -3.1865
  734MOL0     H99090   9.744   3.406   5.256 -0.6492  0.0142 -0.7772
  735MOL0     O99091   3.161   1.350   5.204 -0.0484  0.4759 -1.4639
  735MOL0     C99092   3.213   1.307   5.100  0.5083 -0.5991 -0.5234
  735MOL0     O99093   3.296   1.204   5.095  0.5628 -0.2627 -1.0248
  735MOL0     C99094   3.321   1.114   5.195 -0.0854 -0.5722 -0.7872
  735MOL0     C99095   3.367   0.989   5.143  0.6596 -1.3570  0.1452
  735MOL0     C99096   3.384   0.884   5.234 -0.2998  0.0849  0.8454
  735MOL0     C99097   3.376   0.902   5.373  0.8021 -0.9183  0.9818
  735MOL0     O99098   3.402   0.811   5.463 -0.1532 -0.1229 -0.2833
  735MOL0     C99099   3.500   0.714   5.443 -1.0304  0.4574 -1.1102
  735MOL0     C99100   3.526   0.647   5.580 -0.0587  0.0993 -0.0292
  735MOL0     C99101   3.416   0.551   5.601  1.6775  0.1459 -0.2413
  735MOL0     C99102   3.420   0.516   5.754  1.0615  0.0056 -0.5182
  735MOL0     C99103   3.306   0.428   5.795 -0.5354 -0.3567  0.0316
  735MOL0     C99104   3.316   0.282   5.748 -0.1384 -0.5932 -0.7319
  735MOL0     C99105   3.436   0.211   5.822  0.2405  0.0801  0.8554
  735MOL0     C99106   3.430   0.061   5.844  0.4837  0.2266  0.0544
  735MOL0     N99107   3.482  -0.015   5.729 -1.0380  0.1706 -0.2592
  735MOL0     C99108   3.435  -0.004   5.609 -0.4042  0.3540  0.0378
  735MOL0     C99109   3.511  -0.084   5.535  0.0321 -0.1355 -0.1597
  735MOL0     C99110   3.500  -0.099   5.387  0.5413 -0.0693 -0.1286
  735MOL0     C99111   3.502  -0.242   5.333 -0.0559  0.5429 -0.6879
  735MOL0     C99112   3.381  -0.332   5.393 -0.4499 -0.6179 -0.7514
  735MOL0     C99113   3.395  -0.472   5.340 -0.0484 -0.7069  0.2522
  735MOL0     O99114   3.265  -0.548   5.329 -0.4017 -0.2185  0.5645
  735MOL0     C99115   3.276  -0.688   5.344  1.2460  0.0940 -0.1705
  735MOL0     C99116   3.367  -0.763   5.271 -0.3033 -0.2398  0.6705
  735MOL0     C99117   3.379  -0.903   5.287  0.2864 -0.8176 -0.0303
  735MOL0     C99118   3.490  -0.965   5.206 -0.2544  0.0372 -0.2410
  735MOL0     C99119   3.284  -0.968   5.378  1.2873 -0.1038 -0.4102
  735MOL0     C99120   3.272  -1.119   5.388  0.3685  0.2029 -0.6832
  735MOL0     O99121   3.209  -1.170   5.499 -0.5106 -0.0218  0.2084
  735MOL0     C99122   3.187  -1.296   5.510  0.0783  0.4113  0.9951
  735MOL0     C99123   3.292  -1.383   5.537 -0.0629 -0.9979 -0.8652
  735MOL0     C99124   3.271  -1.521   5.556 -0.5347 -0.5877  0.1635
  735MOL0     C99125   3.143  -1.568   5.539 -0.9695  0.1090 -0.0791
  735MOL0     O99126   3.126  -1.703   5.542  0.3346  0.7648  0.4756
  735MOL0     C99127   3.024  -1.749   5.626 -0.1320 -0.4431 -1.0277
  735MOL0     C99128   3.066  -1.850   5.732 -1.2008  0.2261 -0.5019
  735MOL0     C99129   2.950  -1.903   5.824 -0.2340  0.3386  0.7262
  735MOL0     C99130   2.880  -2.029   5.784 -0.3412 -0.7061  0.0170
  735MOL0     C99131   2.762  -2.057   5.875  0.8785  1.1742  0.2532
  735MOL0     C99132   2.701  -2.200   5.856  0.7313 -0.7715 -0.1550
  735MOL0     C99133   2.779  -2.312   5.937  0.0434  0.5072 -0.2959
  735MOL0     C99134   2.690  -2.426   5.990 -0.7176  0.1424  0.0719
  735MOL0    Cl99135   2.607  -2.515   5.874  0.3174 -0.2713 -0.4001
  735MOL0     C99136   3.032  -1.476   5.516 -0.1968  0.0727  0.1189
  735MOL0     C99137   3.062  -1.346   5.498 -0.3534 -0.4670 -0.2650
  735MOL0     O99138   3.321  -1.187   5.299  0.2570 -0.3788  0.3175
  735MOL0     C99139   3.204  -0.893   5.463 -0.6017  0.8421  0.4061
  735MOL0     C99140   3.190  -0.753   5.438 -0.5080 -0.0456 -1.2689
  735MOL0     N99141   3.608  -0.149   5.617 -0.2876  0.5690  0.3881
  735MOL0     N99142   3.593  -0.104   5.731 -0.1215  0.5974  0.4623
  735MOL0     C99143   3.353   1.038   5.411 -0.4404 -0.2805  0.1605
  735MOL0     C99144   3.316   1.139   5.331 -0.7466  0.3238  0.0192
  735MOL0     C99145   3.154   1.359   4.966  0.0436  0.4449  0.4015
  735MOL0     C99146   3.203   1.313   4.839  0.8435  0.1862 -0.5752
  735MOL0     C99147   3.128   1.338   4.721  0.1674 -0.1528  0.5659
  735MOL0     C99148   3.017   1.420   4.730  0.4379 -0.7190  0.2523
  735MOL0     O99149   2.951   1.460   4.612  0.3677 -0.7891 -0.9493
  735MOL0     C99150   2.817   1.412   4.599 -0.1474 -0.0615 -0.6387
  735MOL0     C99151   2.719   1.526   4.608  0.2238 -0.4322  0.2294
  735MOL0     C99152   2.744   1.652   4.526 -0.4047 -0.1301 -0.0721
  735MOL0     C99153   2.619   1.730   4.510  0.7400  0.7008  0.1136
  735MOL0     C99154   2.651   1.851   4.433  1.2269 -0.0728 -0.0763
  735MOL0     C99155   2.699   1.937   4.366 -0.0297  0.3784 -0.4389
  735MOL0     C99156   2.968   1.470   4.847 -0.2815  0.0176 -0.2946
  735MOL0     C99157   3.037   1.439   4.964  0.2112  0.1072 -0.0413
  735MOL0     H99158   3.385   0.962   5.039  2.2419 -2.7012  0.7156
  735MOL0     H99159   3.403   0.791   5.182  3.9901  0.8496  0.6113
  735MOL0     H99160   3.486   0.635   5.369  0.1817 -1.1719  0.3353
  735MOL0     H99161   3.589   0.775   5.423 -0.3972  0.4716  1.3615
  735MOL0     H99162   3.616   0.588   5.560  0.6567  1.2347 -0.2628
  735MOL0     H99163   3.555   0.709   5.665  4.0916  0.3794 -1.4025
  735MOL0     H99164   3.316   0.591   5.579  1.5419  1.4057  2.3393
  735MOL0     H99165   3.429   0.461   5.541 -1.4101 -2.3716  2.4852
  735MOL0     H99166   3.518   0.473   5.774  0.5403  0.1174  2.7139
  735MOL0     H99167   3.403   0.614   5.798  2.3879  1.1179 -2.3120
  735MOL0     H99168   3.310   0.428   5.904 -0.5935  0.4923  0.0455
  735MOL0     H99169   3.213   0.476   5.764 -0.5329 -0.1005  0.4050
  735MOL0     H99170   3.229   0.220   5.775 -0.7138  0.7817  0.7563
  735MOL0     H99171   3.325   0.272   5.640  1.6371 -2.5670 -0.4451
  735MOL0     H99172   3.531   0.233   5.774  1.5937 -1.9814  2.4188
  735MOL0     H99173   3.445   0.244   5.926 -0.4310 -2.7821  1.9310
  735MOL0     H99174   3.325   0.029   5.851  0.4987  0.2470  0.3569
  735MOL0     H99175   3.461   0.037   5.946 -0.5508 -1.1679  0.0803
  735MOL0     H99176   3.348   0.048   5.571  1.7746  3.3966 -1.2134
  735MOL0     H99177   3.407  -0.054   5.351  0.1524 -0.4268  0.4031
  735MOL0     H99178   3.579  -0.045   5.335  1.7121 -0.1636  1.4677
  735MOL0     H99179   3.598  -0.286   5.363  0.3854  1.3171 -0.9494
  735MOL0     H99180   3.515  -0.248   5.225  6.1453  0.1078 -0.2603
  735MOL0     H99181   3.282  -0.297   5.364 -1.1795 -1.9286  0.0851
  735MOL0     H99182   3.384  -0.334   5.502  2.9265 -0.5786 -0.7296
  735MOL0     H99183   3.471  -0.527   5.396  0.1169  0.2870  1.0202
  735MOL0     H99184   3.425  -0.463   5.235  3.6657  2.6177  1.3755
  735MOL0     H99185   3.435  -0.714   5.202 -3.8933  0.1573 -2.9687
  735MOL0     H99186   3.537  -0.897   5.134  0.1534  0.7868  0.7102
  735MOL0     H99187   3.560  -1.011   5.277 -0.7055 -0.0205  0.1708
  735MOL0     H99188   3.459  -1.057   5.156  2.5690 -0.4688 -1.2321
  735MOL0     H99189   3.393  -1.351   5.562 -0.0101 -1.6723 -0.1667
  735MOL0     H99190   3.349  -1.592   5.582  0.0760 -0.4482 -1.2151
  735MOL0     H99191   2.980  -1.663   5.677  1.6855  1.3941 -2.4053
  735MOL0     H99192   2.945  -1.799   5.569 -1.5090 -0.3328  0.7254
  735MOL0     H99193   3.119  -1.931   5.681 -0.2199 -0.1542  1.0535
  735MOL0     H99194   3.146  -1.811   5.795 -0.3838 -0.9236 -0.7998
  735MOL0     H99195   2.875  -1.826   5.842  0.1761  0.6803  1.0116
  735MOL0     H99196   2.997  -1.913   5.923 -0.9722 -2.0612  0.9066
  735MOL0     H99197   2.841  -2.029   5.682 -1.0194 -3.9059  0.1519
  735MOL0     H99198   2.947  -2.116   5.781 -0.1849 -0.6564  1.5019
  735MOL0     H99199   2.683  -1.994   5.833  2.3409  1.5492 -2.1242
  735MOL0     H99200   2.784  -2.040   5.981  2.2004 -0.9354  0.3674
  735MOL0     H99201   2.605  -2.187   5.905  0.2508  0.0598 -1.2811
  735MOL0     H99202   2.692  -2.225   5.750 -1.5996 -0.1940 -0.1359
  735MOL0     H99203   2.821  -2.269   6.028 -1.4134  1.3283  0.0067
  735MOL0     H99204   2.862  -2.348   5.874  0.2154 -1.4373  0.9555
  735MOL0     H99205   2.613  -2.378   6.051 -2.7519 -2.6220 -0.1390
  735MOL0     H99206   2.756  -2.491   6.048  0.7415  1.4947 -0.0119
  735MOL0     H99207   2.928  -1.506   5.523 -0.8662  2.3225  0.6215
  735MOL0     H99208   2.981  -1.275   5.481 -1.0740 -1.2666 -0.2347
  735MOL0     H99209   3.133  -0.929   5.538  0.2443 -0.0156  0.8222
  735MOL0     H99210   3.127  -0.695   5.505 -1.3621 -1.3107 -0.9431
  735MOL0     H99211   3.338   1.051   5.518 -1.4636 -0.3390  0.0410
  735MOL0     H99212   3.306   1.241   5.367  0.0918  0.5720 -0.4255
  735MOL0     H99213   3.292   1.251   4.834  1.0199  0.4093 -0.1887
  735MOL0     H99214   3.166   1.312   4.623  2.7538 -0.0613  1.4664
  735MOL0     H99215   2.805   1.360   4.503  1.9523 -2.1885  0.1461
  735MOL0     H99216   2.799   1.325   4.662  0.2882  0.0180 -0.4063
  735MOL0     H99217   2.693   1.545   4.713 -1.5318  0.8580 -0.3736
  735MOL0     H99218   2.625   1.482   4.572  2.6230 -2.9787 -3.7265
  735MOL0     H99219   2.785   1.622   4.429 -0.9780 -1.5431  0.0896
  735MOL0     H99220   2.818   1.717   4.574 -1.1785  1.2599 -0.7233
  735MOL0     H99221   2.567   1.754   4.603  2.2238  1.2106  0.8533
  735MOL0     H99222   2.549   1.681   4.442  1.0359  1.3790 -0.7060
  735MOL0     H99223   2.741   2.017   4.309 -1.1304  1.5927  0.3967
  735MOL0     H99224   2.870   1.516   4.848 -0.4030 -0.2367  1.0399
  735MOL0     H99225   2.984   1.474   5.053 -1.2005  2.8701 -1.8174
  736MOL0     O99226   5.668   7.564   1.046  0.4298 -0.4971 -0.2364
  736MOL0     C99227   5.582   7.644   1.012  0.6613 -0.3843  0.6332
  736MOL0     O99228   5.497   7.710   1.096 -0.5850  0.6357  0.3281
  736MOL0     C99229   5.499   7.681   1.230  0.8565  0.1064 -0.3591
  736MOL0     C99230   5.611   7.699   1.324  0.1592 -0.6159  0.6696
  736MOL0     C99231   5.580   7.678   1.461  0.1739  0.0100  0.1166
  736MOL0     C99232   5.449   7.635   1.501  0.0537  0.5267  0.2796
  736MOL0     O99233   5.419   7.610   1.633  0.5023 -0.5541 -0.1619
  736MOL0     C99234   5.523   7.569   1.722 -1.4711  1.1950  0.5142
  736MOL0     C99235   5.459   7.539   1.867 -0.4149 -1.8986 -1.2628
  736MOL0     C99236   5.355   7.654   1.915 -1.3606 -1.2481 -0.0845
  736MOL0     C99237   5.330   7.642   2.070 -0.3795  0.3298 -0.2564
  736MOL0     C99238   5.205   7.709   2.109  0.6389  0.8019 -1.1525
  736MOL0     C99239   5.076   7.622   2.076 -0.0144  1.3567  0.2077
  736MOL0     C99240   4.958   7.694   2.143 -1.0927  0.3466  0.3229
  736MOL0     C99241   4.824   7.639   2.100  0.5953  1.0414 -0.0174
  736MOL0     N99242   4.782   7.519   2.179  0.4112 -0.2474 -0.6285
  736MOL0     C99243   4.822   7.387   2.176 -0.3648 -0.1759 -0.3146
  736MOL0     C99244   4.783   7.335   2.296 -1.1460 -0.6461  0.0817
  736MOL0     C99245   4.828   7.197   2.330 -0.5059 -0.0843 -0.9846
  736MOL0     C99246   4.982   7.170   2.315  0.6833 -0.3078 -0.4373
  736MOL0     C99247   5.070   7.267   2.395  0.3116  0.0775  0.1033
  736MOL0     C99248   5.210   7.282   2.339  0.1043  0.6554  0.4658
  736MOL0     O99249   5.261   7.401   2.399  0.3099 -0.4852  0.0339
  736MOL0     C99250   5.384   7.394   2.458  0.5295  0.0097  0.1221
  736MOL0     C99251   5.494   7.464   2.412  0.6724  0.0129 -0.5139
  736MOL0     C99252   5.619   7.452   2.465 -0.3530 -0.0605  0.4213
  736MOL0     C99253   5.729   7.539   2.391  0.5517 -0.2974  0.6988
  736MOL0     C99254   5.641   7.366   2.571 -0.4112  0.4857  0.3345
  736MOL0     C99255   5.773   7.338   2.630 -0.1809  0.9809  0.1586
  736MOL0     O99256   5.778   7.281   2.753  0.0491  0.4626  0.0672
  736MOL0     C99257   5.865   7.324   2.850 -0.0882  0.0501  1.1008
  736MOL0     C99258   5.899   7.228   2.950  0.2995  0.4933  0.2518
  736MOL0     C99259   5.968   7.274   3.058  0.0797  0.7015 -0.5467
  736MOL0     C99260   5.989   7.407   3.091  0.6615 -0.5039  0.1922
  736MOL0     O99261   6.050   7.468   3.202 -0.1574  0.8906  0.1134
  736MOL0     C99262   6.121   7.374   3.281  0.0096 -0.6214 -0.1246
  736MOL0     C99263   6.199   7.435   3.392 -0.4339 -0.3956 -0.2193
  736MOL0     C99264   6.222   7.339   3.518 -0.3911  0.0845 -0.3836
  736MOL0     C99265   6.293   7.414   3.630 -0.1635 -0.2229 -0.0119
  736MOL0     C99266   6.298   7.329   3.758  0.6091 -0.1368 -0.4473
  736MOL0     C99267   6.336   7.401   3.888  0.2302  0.0883  0.7553
  736MOL0     C99268   6.401   7.300   3.982  0.1820  0.6521  0.3646
  736MOL0     C99269   6.416   7.359   4.125  0.2048  0.7852 -0.2962
  736MOL0    Cl99270   6.527   7.236   4.205  0.0314 -0.2318  0.3814
  736MOL0     C99271   5.941   7.501   2.995  0.1421 -0.2836 -0.0195
  736MOL0     C99272   5.891   7.461   2.878  0.2090 -0.3898 -0.2047
  736MOL0     O99273   5.873   7.387   2.571 -0.2784  0.0286  0.1177
  736MOL0     C99274   5.533   7.312   2.634 -0.6398 -0.3083 -0.1098
  736MOL0     C99275   5.400   7.319   2.578 -0.5191  0.2045 -0.2895
  736MOL0     N99276   4.717   7.439   2.360  0.6049 -0.4767  0.2350
  736MOL0     N99277   4.722   7.543   2.291  0.1288 -0.7570  0.4847
  736MOL0     C99278   5.344   7.626   1.409 -0.4527  0.0827  0.5372
  736MOL0     C99279   5.369   7.642   1.273  0.5419  0.8791  1.4303
  736MOL0     C99280   5.561   7.672   0.870  0.6076 -0.6910  1.1481
  736MOL0     C99281   5.451   7.745   0.825 -0.8337 -0.0994 -0.4319
  736MOL0     C99282   5.428   7.772   0.689  0.3396 -0.0162 -0.4237
  736MOL0     C99283   5.517   7.731   0.591 -0.1370  0.0565 -1.1181
  736MOL0     O99284   5.486   7.760   0.460  0.4124 -0.1889 -0.1283
  736MOL0     C99285   5.574   7.735   0.357 -0.5551 -0.5956  0.3007
  736MOL0     C99286   5.532   7.817   0.237  0.5706 -0.2031 -1.7339
  736MOL0     C99287   5.596   7.785   0.105  1.5201  0.1562  0.4068
  736MOL0     C99288   5.556   7.887   0.005  0.1556 -0.5174  0.1679
  736MOL0     C99289   5.577   7.860  -0.141  0.0798  0.2171 -0.6997
  736MOL0     C99290   5.599   7.835  -0.255 -0.7769  0.8914 -0.1639
  736MOL0     C99291   5.624   7.651   0.641 -0.2572  0.2616  0.1924
  736MOL0     C99292   5.643   7.620   0.780  0.0469 -0.1988 -0.2149
  736MOL0     H99293   5.711   7.721   1.290  0.1497  0.1119  1.0877
  736MOL0     H99294   5.655   7.696   1.536 -0.2628  1.5366  0.2150
  736MOL0     H99295   5.582   7.480   1.696  0.8272  2.6042  0.5829
  736MOL0     H99296   5.593   7.650   1.747  0.9601 -1.1141  1.6920
  736MOL0     H99297   5.408   7.446   1.843 -2.1767 -0.3861 -3.8006
  736MOL0     H99298   5.543   7.510   1.932  0.4367 -3.1963 -2.8717
  736MOL0     H99299   5.399   7.749   1.883  1.7461 -1.4564  2.9392
  736MOL0     H99300   5.263   7.648   1.856 -2.7068  2.9274  1.2403
  736MOL0     H99301   5.336   7.535   2.094 -0.3312  0.1375 -1.1045
  736MOL0     H99302   5.416   7.683   2.123 -0.1482 -0.4486 -0.0172
  736MOL0     H99303   5.208   7.731   2.216 -2.9366 -0.9493 -0.5486
  736MOL0     H99304   5.194   7.806   2.060 -1.1965  1.0321 -0.3706
  736MOL0     H99305   5.075   7.616   1.966 -1.3485 -0.3102  0.2523
  736MOL0     H99306   5.081   7.523   2.122 -1.0337  0.0392 -2.2988
  736MOL0     H99307   4.953   7.682   2.251 -0.1509  1.3946  0.4994
  736MOL0     H99308   4.957   7.802   2.122 -2.2603  0.0012 -1.7552
  736MOL0     H99309   4.814   7.616   1.993  1.3639 -0.8598  0.2822
  736MOL0     H99310   4.748   7.717   2.109 -1.3292 -0.5731 -1.1640
  736MOL0     H99311   4.868   7.344   2.087 -2.1839  0.2771 -1.5263
  736MOL0     H99312   4.815   7.191   2.439  3.1643  1.7034 -0.2709
  736MOL0     H99313   4.769   7.128   2.269 -1.5451  0.2028 -0.3260
  736MOL0     H99314   5.007   7.179   2.209  1.7033 -0.1975 -0.1991
  736MOL0     H99315   4.999   7.066   2.343 -2.2780 -0.8329 -0.2192
  736MOL0     H99316   5.068   7.226   2.497 -3.7630 -1.5608 -0.4321
  736MOL0     H99317   5.021   7.365   2.403 -0.2558 -0.0706 -1.3655
  736MOL0     H99318   5.217   7.277   2.230  1.4473 -0.1149  0.5621
  736MOL0     H99319   5.260   7.189   2.368 -3.0266 -1.0151  0.9097
  736MOL0     H99320   5.476   7.527   2.325 -0.5045  0.3587 -0.0400
  736MOL0     H99321   5.692   7.594   2.305  1.5079 -1.2192 -0.3379
  736MOL0     H99322   5.777   7.609   2.461 -1.7559  0.4711  1.6192
  736MOL0     H99323   5.798   7.473   2.337 -1.9511 -0.7164 -2.2493
  736MOL0     H99324   5.879   7.122   2.947  0.3610  0.5079 -1.7318
  736MOL0     H99325   5.995   7.201   3.134  2.6647  1.2038 -0.8889
  736MOL0     H99326   6.045   7.313   3.331 -1.4637 -0.3010 -1.8306
  736MOL0     H99327   6.187   7.305   3.228 -1.5870 -1.8164 -0.6615
  736MOL0     H99328   6.299   7.469   3.364 -0.5516 -0.8066 -1.2140
  736MOL0     H99329   6.148   7.526   3.425  1.6707  0.0802  2.0253
  736MOL0     H99330   6.290   7.262   3.482  1.0706  0.8328  0.6859
  736MOL0     H99331   6.128   7.299   3.557 -0.0800 -0.1737  0.1016
  736MOL0     H99332   6.389   7.450   3.592 -0.1245  0.9813  1.1122
  736MOL0     H99333   6.247   7.510   3.655  0.5468 -0.4808  2.5733
  736MOL0     H99334   6.375   7.254   3.737 -0.8195 -2.0561  0.8369
  736MOL0     H99335   6.205   7.274   3.774 -0.1995  1.4214  0.4462
  736MOL0     H99336   6.424   7.463   3.869  0.5657 -1.0751 -2.0718
  736MOL0     H99337   6.248   7.439   3.940 -0.9553 -1.4170 -0.0753
  736MOL0     H99338   6.499   7.281   3.936 -0.1646  1.0153 -0.5535
  736MOL0     H99339   6.340   7.209   3.982  0.3132  0.5109 -1.6639
  736MOL0     H99340   6.319   7.354   4.176 -0.4062  1.4730 -1.3492
  736MOL0     H99341   6.456   7.461   4.132 -1.2338  1.2580  1.8007
  736MOL0     H99342   5.955   7.604   3.025  3.2479 -0.5496 -0.2095
  736MOL0     H99343   5.862   7.526   2.796  1.6941 -0.9459 -1.2034
  736MOL0     H99344   5.552   7.245   2.717 -1.7054  0.7034  0.9931
  736MOL0     H99345   5.319   7.266   2.627 -0.0669  1.1630  1.5766
  736MOL0     H99346   5.242   7.608   1.443 -0.6403  0.8690  0.4241
  736MOL0     H99347   5.297   7.626   1.195  3.4114 -0.2167 -1.2074
  736MOL0     H99348   5.379   7.785   0.897 -2.6485 -0.5010 -1.9430
  736MOL0     H99349   5.346   7.830   0.649 -0.8765 -1.8445 -0.6774
  736MOL0     H99350   5.679   7.752   0.381  0.3965 -0.8692 -3.2060
  736MOL0     H99351   5.570   7.627   0.340  1.0451 -0.3219 -2.3382
  736MOL0     H99352   5.557   7.919   0.268  1.4379 -0.1060 -2.6881
  736MOL0     H99353   5.425   7.814   0.216  0.1209  0.1827  0.2585
  736MOL0     H99354   5.559   7.686   0.076  0.3854  0.9021 -0.7493
  736MOL0     H99355   5.705   7.779   0.115  1.4571 -1.0185  0.5209
  736MOL0     H99356   5.610   7.981   0.022  0.4398 -0.9641  1.8218
  736MOL0     H99357   5.450   7.910  -0.003  0.4840  0.7048 -1.3110
  736MOL0     H99358   5.624   7.813  -0.357 -1.2957  1.5698 -0.4440
  736MOL0     H99359   5.693   7.597   0.577 -0.4392 -0.1132  0.3089
  736MOL0     H99360   5.716   7.548   0.814  0.3049 -0.2042 -0.7783
  737MOL0     O99361   6.163   7.996   6.733  0.2538 -0.1079 -0.4349
  737MOL0     C99362   6.287   7.988   6.747  1.1534  0.3374  0.2549
  737MOL0     O99363   6.341   7.964   6.866 -0.9463 -0.0388 -0.4431
  737MOL0     C99364   6.272   7.949   6.989  1.2012 -0.2583 -0.7109
  737MOL0     C99365   6.144   7.889   6.999  0.5034 -0.5513 -0.5598
  737MOL0     C99366   6.079   7.858   7.118 -0.1927  0.3046 -0.0222
  737MOL0     C99367   6.152   7.891   7.238 -0.2643  0.4918 -0.0037
  737MOL0     O99368   6.082   7.853   7.353  0.1197 -0.2204 -0.6072
  737MOL0     C99369   6.157   7.834   7.465  0.2917  0.4947  0.4991
  737MOL0     C99370   6.058   7.820   7.582  0.3230 -0.4098  0.2844
  737MOL0     C99371   5.986   7.948   7.625  0.3344  0.2315 -0.0104
  737MOL0     C99372   5.873   7.926   7.738 -1.1308 -0.1818  0.2946
  737MOL0     C99373   5.835   8.056   7.806  1.0394  0.0625 -0.2843
  737MOL0     C99374   5.737   8.024   7.924  0.2210  0.1697 -0.3802
  737MOL0     C99375   5.665   8.151   7.972 -0.7156  0.5624 -0.5308
  737MOL0     C99376   5.603   8.120   8.106 -0.4349 -0.3128 -0.3135
  737MOL0     N99377   5.509   8.007   8.116 -0.7208  0.6281 -0.6847
  737MOL0     C99378   5.410   7.978   8.028 -0.4624 -0.2991  0.1684
  737MOL0     C99379   5.337   7.884   8.077 -0.7097  0.2551 -0.1754
  737MOL0     C99380   5.219   7.834   8.003  0.3031 -0.5996 -1.3207
  737MOL0     C99381   5.249   7.736   7.891 -0.4460 -0.5085 -0.0918
  737MOL0     C99382   5.141   7.737   7.783  0.3683  0.4765 -0.2590
  737MOL0     C99383   5.013   7.658   7.818  0.5918 -0.9077 -0.2963
  737MOL0     O99384   4.915   7.682   7.717  0.9604  1.0751  0.0821
  737MOL0     C99385   4.799   7.613   7.725 -0.2142 -0.4376 -0.1162
  737MOL0     C99386   4.730   7.626   7.614  0.6251 -0.2925  0.5297
  737MOL0     C99387   4.608   7.562   7.601  0.3686  0.1952 -0.7104
  737MOL0     C99388   4.532   7.577   7.468 -0.6590  0.7528  1.3276
  737MOL0     C99389   4.554   7.479   7.706  0.3519  0.1921  0.2254
  737MOL0     C99390   4.423   7.415   7.705 -0.3360 -0.5769 -0.0690
  737MOL0     O99391   4.392   7.337   7.810  0.0735 -0.9596 -0.3474
  737MOL0     C99392   4.306   7.235   7.778 -0.1214  0.2125 -0.6910
  737MOL0     C99393   4.183   7.241   7.821 -0.3966  0.1800  0.0088
  737MOL0     C99394   4.085   7.148   7.779 -0.5539  0.0426  0.1156
  737MOL0     C99395   4.115   7.049   7.682 -0.9622 -0.7903  0.8261
  737MOL0     O99396   4.025   6.948   7.642 -0.2296  0.8536 -0.5659
  737MOL0     C99397   3.887   6.958   7.675  0.2415  0.1456  0.0942
  737MOL0     C99398   3.792   6.861   7.601 -0.7546 -0.8572  0.2634
  737MOL0     C99399   3.646   6.886   7.598  0.2919  0.4681  0.1603
  737MOL0     C99400   3.573   6.790   7.510 -0.2865 -0.0204  0.8081
  737MOL0     C99401   3.426   6.831   7.479 -1.1104  0.1701 -0.0015
  737MOL0     C99402   3.341   6.719   7.428 -0.4012 -0.8592  1.8560
  737MOL0     C99403   3.299   6.634   7.536 -0.0341  0.5467  1.0108
  737MOL0     C99404   3.296   6.478   7.502  0.1531 -0.3029 -0.2784
  737MOL0    Cl99405   3.167   6.449   7.385 -0.0753 -0.2918 -0.2763
  737MOL0     C99406   4.251   7.038   7.640  0.3523  0.7696  0.1685
  737MOL0     C99407   4.343   7.137   7.694  0.1911 -1.2159 -0.1491
  737MOL0     O99408   4.342   7.454   7.626 -0.4061 -0.5956 -0.1394
  737MOL0     C99409   4.622   7.494   7.827 -0.9790 -0.4028 -0.0421
  737MOL0     C99410   4.750   7.555   7.836  0.0486  0.8813 -0.4932
  737MOL0     N99411   5.388   7.843   8.194 -0.1063  0.0275 -0.0997
  737MOL0     N99412   5.483   7.925   8.227  0.2345 -0.6008  0.6332
  737MOL0     C99413   6.280   7.955   7.236  0.1355  0.1656  1.1017
  737MOL0     C99414   6.341   7.981   7.108  1.0926 -0.3577 -0.1097
  737MOL0     C99415   6.368   8.040   6.629  0.1790 -0.2101 -0.2266
  737MOL0     C99416   6.318   8.098   6.515 -0.0754  0.3354 -0.4983
  737MOL0     C99417   6.405   8.153   6.411  0.6221  0.3343 -0.0504
  737MOL0     C99418   6.545   8.143   6.424  0.3557  0.2410 -0.1218
  737MOL0     O99419   6.611   8.212   6.326  0.5954 -0.6633  1.2185
  737MOL0     C99420   6.756   8.190   6.318 -0.6709 -1.0779  0.1791
  737MOL0     C99421   6.794   8.056   6.255 -0.8578 -0.3796  0.0212
  737MOL0     C99422   6.939   8.045   6.218 -0.4864 -0.1243 -0.8655
  737MOL0     C99423   7.020   8.024   6.349  0.2994  0.2552  1.0178
  737MOL0     C99424   7.017   7.886   6.408  0.2518 -0.8966  1.3902
  737MOL0     C99425   7.036   7.772   6.448  0.5715  0.2097  0.8900
  737MOL0     C99426   6.594   8.078   6.541 -0.1725  0.6381  0.4063
  737MOL0     C99427   6.509   8.035   6.640 -0.2412 -0.3737 -0.1571
  737MOL0     H99428   6.093   7.861   6.906  1.5148  3.0262 -2.3756
  737MOL0     H99429   5.987   7.800   7.115  1.0009 -1.8089  1.2724
  737MOL0     H99430   6.209   7.739   7.447 -1.5100  0.1065 -3.5077
  737MOL0     H99431   6.224   7.918   7.487  0.8050  0.2651 -0.1507
  737MOL0     H99432   5.974   7.763   7.543 -1.1332  0.4965  1.9541
  737MOL0     H99433   6.098   7.775   7.674 -2.5822 -1.6499  1.0390
  737MOL0     H99434   6.061   8.012   7.672 -0.8537  2.9270 -1.5133
  737MOL0     H99435   5.938   8.014   7.552  2.9863  3.7018  1.1389
  737MOL0     H99436   5.789   7.883   7.683  0.0018 -1.7217 -0.2855
  737MOL0     H99437   5.907   7.855   7.814  1.1714 -0.8103 -1.2250
  737MOL0     H99438   5.931   8.089   7.847  1.7878 -1.2682 -0.8797
  737MOL0     H99439   5.784   8.122   7.735  1.8318  1.1914  0.1832
  737MOL0     H99440   5.650   7.973   7.880 -1.6017  1.4636  1.5358
  737MOL0     H99441   5.783   7.965   8.003  1.0448  0.1534 -0.8599
  737MOL0     H99442   5.744   8.224   7.992 -0.7333  0.8100 -1.3423
  737MOL0     H99443   5.594   8.185   7.896  0.6716 -2.4446 -3.4793
  737MOL0     H99444   5.547   8.209   8.135 -2.1988 -0.7911 -1.9854
  737MOL0     H99445   5.682   8.080   8.170 -1.2693 -1.8482 -0.1767
  737MOL0     H99446   5.401   8.032   7.934  0.1163 -0.6367 -0.0828
  737MOL0     H99447   5.147   7.816   8.084  1.7207  5.0454  1.7091
  737MOL0     H99448   5.167   7.916   7.953 -1.8020 -1.9095 -1.4405
  737MOL0     H99449   5.238   7.633   7.926 -3.3693  0.7939  3.4289
  737MOL0     H99450   5.348   7.763   7.852 -1.3769  5.3253  0.6019
  737MOL0     H99451   5.164   7.690   7.687  0.6068  1.0525 -0.4867
  737MOL0     H99452   5.117   7.840   7.758 -1.6713  0.4960  1.4629
  737MOL0     H99453   4.975   7.694   7.914  0.0863  2.5184 -1.6364
  737MOL0     H99454   5.051   7.556   7.830 -0.5722 -1.4527 -1.1164
  737MOL0     H99455   4.765   7.685   7.530  0.0677 -2.9877 -1.7131
  737MOL0     H99456   4.435   7.627   7.459 -0.3797  1.0525 -0.4749
  737MOL0     H99457   4.601   7.612   7.390 -2.0108  1.0421  0.2029
  737MOL0     H99458   4.520   7.471   7.446  1.5803  0.6247  0.4921
  737MOL0     H99459   4.141   7.313   7.890 -0.2508  0.9562 -0.7046
  737MOL0     H99460   3.981   7.148   7.811 -1.2593  0.4237 -2.0262
  737MOL0     H99461   3.882   6.945   7.784 -1.4296  2.5193  0.3965
  737MOL0     H99462   3.848   7.059   7.655 -0.0955 -0.5035 -2.9861
  737MOL0     H99463   3.825   6.862   7.497 -1.8628 -3.2340 -0.1881
  737MOL0     H99464   3.814   6.764   7.647  2.4445 -1.3395 -1.9725
  737MOL0     H99465   3.628   6.990   7.569  1.2213  0.4626 -0.4720
  737MOL0     H99466   3.622   6.880   7.705  1.2787 -2.7931  0.3029
  737MOL0     H99467   3.630   6.774   7.418  0.7202 -2.0086  1.7074
  737MOL0     H99468   3.564   6.691   7.555  0.0242  0.3601  1.7307
  737MOL0     H99469   3.424   6.913   7.407  2.0039  0.6620  0.3407
  737MOL0     H99470   3.374   6.873   7.566 -2.1157  0.8002 -0.8830
  737MOL0     H99471   3.258   6.763   7.373  2.5853  1.1173 -1.4973
  737MOL0     H99472   3.392   6.667   7.346 -2.4234 -0.6873  0.4318
  737MOL0     H99473   3.205   6.669   7.580 -0.3603 -1.0130  1.6215
  737MOL0     H99474   3.357   6.637   7.629 -0.2113 -1.3161  1.2174
  737MOL0     H99475   3.287   6.410   7.587  1.6203 -1.1768 -0.7770
  737MOL0     H99476   3.388   6.447   7.452  1.0862 -3.3573  2.9254
  737MOL0     H99477   4.291   6.960   7.577  3.4200  0.0710  2.7288
  737MOL0     H99478   4.449   7.143   7.672  1.1623  1.2066  4.1049
  737MOL0     H99479   4.579   7.439   7.910 -1.0918 -0.2137  0.0284
  737MOL0     H99480   4.807   7.540   7.927  0.3892 -0.1099 -0.8559
  737MOL0     H99481   6.340   7.952   7.326  0.6141 -2.9268  0.8084
  737MOL0     H99482   6.444   8.014   7.104  0.4467  2.6732  3.5289
  737MOL0     H99483   6.214   8.085   6.489 -0.4250  1.3656  0.3053
  737MOL0     H99484   6.363   8.210   6.329 -1.0135  2.5673  2.1909
  737MOL0     H99485   6.798   8.277   6.267 -1.7183  0.2614  1.5233
  737MOL0     H99486   6.801   8.195   6.418 -0.1079  1.6319 -0.1476
  737MOL0     H99487   6.734   8.046   6.164 -4.7556 -1.2215  2.4310
  737MOL0     H99488   6.766   7.975   6.323  0.6081 -0.5493  0.4469
  737MOL0     H99489   6.976   8.136   6.168  2.1750 -1.6872 -1.9389
  737MOL0     H99490   6.958   7.957   6.156 -0.7515  0.1037 -1.2706
  737MOL0     H99491   6.980   8.091   6.426 -0.3810  2.2008 -0.9279
  737MOL0     H99492   7.120   8.062   6.328 -0.6936  1.4366 -2.2417
  737MOL0     H99493   7.062   7.669   6.465 -1.3428  0.0031  2.8683
  737MOL0     H99494   6.699   8.052   6.546 -0.5264 -0.6474  1.7365
  737MOL0     H99495   6.559   7.991   6.726  1.5370  0.3503 -0.7655
  738MOL0     O99496   8.650   6.748   2.198  0.2837  0.7444  0.0366
  738MOL0     C99497   8.671   6.651   2.124  0.2867 -0.4361  0.8342
  738MOL0     O99498   8.698   6.661   1.991  0.3445  0.2310  0.6048
  738MOL0     C99499   8.706   6.775   1.912  0.6738 -0.0630  0.2060
  738MOL0     C99500   8.766   6.764   1.793  0.1683  0.1786  1.0256
  738MOL0     C99501   8.778   6.869   1.705  0.2733  0.0780 -0.0438
  738MOL0     C99502   8.715   6.993   1.729  0.3609 -0.7537  0.4397
  738MOL0     O99503   8.742   7.098   1.637  0.2668  1.1035  0.1465
  738MOL0     C99504   8.677   7.221   1.655  0.3342 -0.5276 -0.5916
  738MOL0     C99505   8.710   7.323   1.547  0.4551 -0.2936  0.4254
  738MOL0     C99506   8.681   7.266   1.404  0.0319  0.0322  0.3005
  738MOL0     C99507   8.539   7.297   1.352  0.7282 -0.6087  0.3786
  738MOL0     C99508   8.510   7.231   1.212  0.1880  0.6418  0.2016
  738MOL0     C99509   8.355   7.245   1.181 -0.8799  0.5469  0.6525
  738MOL0     C99510   8.322   7.188   1.046  0.3308 -0.3723  0.4121
  738MOL0     C99511   8.380   7.256   0.914 -0.9755  0.1950  0.0213
  738MOL0     N99512   8.320   7.386   0.883 -0.2193 -0.3601  0.2839
  738MOL0     C99513   8.183   7.409   0.891 -0.1318  0.3290  0.0282
  738MOL0     C99514   8.167   7.514   0.811 -0.4174 -0.5813  0.4697
  738MOL0     C99515   8.027   7.566   0.759  0.4506  0.7841  0.4545
  738MOL0     C99516   8.039   7.597   0.608  1.1759 -0.0485 -1.0343
  738MOL0     C99517   7.912   7.669   0.557  0.0680 -0.7835  0.2966
  738MOL0     C99518   7.803   7.576   0.502 -0.5456  0.5143 -0.2165
  738MOL0     O99519   7.691   7.653   0.455 -0.2298  0.5238  0.1334
  738MOL0     C99520   7.604   7.588   0.380  0.0060 -0.4097 -0.1003
  738MOL0     C99521   7.630   7.560   0.248 -0.9424  0.2302  0.1832
  738MOL0     C99522   7.542   7.488   0.174 -0.3468  1.0751  0.8468
  738MOL0     C99523   7.582   7.456   0.033 -0.7967 -1.0141  0.3668
  738MOL0     C99524   7.423   7.440   0.232 -0.0084  0.0131 -0.0065
  738MOL0     C99525   7.325   7.353   0.164 -0.0233 -0.4739  0.2121
  738MOL0     O99526   7.238   7.282   0.245 -0.0756  0.2538  0.8245
  738MOL0     C99527   7.120   7.228   0.195  0.1277  0.0225  0.1744
  738MOL0     C99528   7.089   7.102   0.236 -0.2665 -0.3467  0.3440
  738MOL0     C99529   6.976   7.031   0.194 -1.0377 -0.2599 -0.4296
  738MOL0     C99530   6.881   7.099   0.116  0.1357 -0.0843  0.6412
  738MOL0     O99531   6.769   7.040   0.067  0.3787  0.4124 -0.2675
  738MOL0     C99532   6.645   7.064   0.127 -0.3891 -0.0345 -0.4305
  738MOL0     C99533   6.545   7.108   0.024  0.1765 -0.1180  0.6782
  738MOL0     C99534   6.414   7.171   0.076  0.9085  0.3022 -0.8376
  738MOL0     C99535   6.310   7.190  -0.043  1.3392  0.3886  0.2250
  738MOL0     C99536   6.166   7.223  -0.007 -0.3627  0.4266 -0.2003
  738MOL0     C99537   6.159   7.348   0.095  0.2194 -0.5301 -0.2651
  738MOL0     C99538   6.002   7.396   0.087 -0.1789 -0.3617  0.3798
  738MOL0     C99539   5.973   7.517   0.169  0.8088  1.3030  0.3836
  738MOL0    Cl99540   5.805   7.499   0.238  0.3278 -0.1689  0.0984
  738MOL0     C99541   6.907   7.228   0.071 -0.6484 -0.8586  0.1262
  738MOL0     C99542   7.034   7.281   0.101  0.0092 -0.4586 -0.2120
  738MOL0     O99543   7.322   7.344   0.037 -0.6418  0.6581 -0.2322
  738MOL0     C99544   7.391   7.490   0.359 -1.0288 -0.5008  0.3800
  738MOL0     C99545   7.478   7.561   0.435  0.0436 -0.3157  1.1284
  738MOL0     N99546   8.293   7.564   0.764  0.2205  1.0078 -0.1621
  738MOL0     N99547   8.374   7.474   0.802 -0.3355  0.2454 -0.0359
  738MOL0     C99548   8.639   7.009   1.846  0.0907 -1.3112 -0.8264
  738MOL0     C99549   8.645   6.897   1.934 -0.8948 -0.0405 -0.6488
  738MOL0     C99550   8.655   6.525   2.194  0.3824  0.3132  0.4207
  738MOL0     C99551   8.571   6.501   2.303  0.2195  0.1824  0.0173
  738MOL0     C99552   8.553   6.374   2.360  0.2422  0.2017  0.5836
  738MOL0     C99553   8.629   6.263   2.311  0.6615  0.4226 -0.3620
  738MOL0     O99554   8.612   6.136   2.360  0.5097  0.8115  1.2660
  738MOL0     C99555   8.536   6.105   2.478 -0.2388 -0.7465  0.6525
  738MOL0     C99556   8.577   5.960   2.509  0.8697 -0.4643 -0.6241
  738MOL0     C99557   8.507   5.849   2.430  0.4697  0.6131  0.4442
  738MOL0     C99558   8.536   5.862   2.275 -0.3573  0.6371 -0.1486
  738MOL0     C99559   8.483   5.734   2.211 -0.4414  0.4287 -0.6142
  738MOL0     C99560   8.432   5.634   2.166  0.0772  0.4354  0.4580
  738MOL0     C99561   8.721   6.290   2.209 -0.4851 -0.0304  0.2929
  738MOL0     C99562   8.733   6.420   2.153  0.4804 -0.2903  0.0100
  738MOL0     H99563   8.800   6.662   1.776  2.6785  0.8967  1.4136
  738MOL0     H99564   8.839   6.861   1.615 -0.2677 -1.6053 -0.3063
  738MOL0     H99565   8.569   7.208   1.645 -0.0173  0.2007  1.6617
  738MOL0     H99566   8.700   7.254   1.757  1.0177 -3.4224  0.2657
  738MOL0     H99567   8.649   7.409   1.576  2.5349  1.3421  0.1770
  738MOL0     H99568   8.809   7.368   1.558  0.4038 -0.2075  0.5384
  738MOL0     H99569   8.756   7.306   1.335  1.5085  0.8498  2.3021
  738MOL0     H99570   8.712   7.161   1.401  3.0136  0.8382  0.3774
  738MOL0     H99571   8.467   7.268   1.430 -0.6833 -1.3914 -1.1391
  738MOL0     H99572   8.526   7.405   1.336  0.3096 -0.8339 -0.9100
  738MOL0     H99573   8.565   7.274   1.128  0.7915 -0.9775 -0.2571
  738MOL0     H99574   8.535   7.125   1.199  0.8881  0.9879 -1.5707
  738MOL0     H99575   8.289   7.214   1.262 -2.1798  1.0264 -0.1970
  738MOL0     H99576   8.331   7.352   1.182 -4.1748 -0.0798  0.1076
  738MOL0     H99577   8.360   7.086   1.041 -2.2726 -1.4436  0.8295
  738MOL0     H99578   8.213   7.185   1.051  0.2174  1.6031 -0.0547
  738MOL0     H99579   8.340   7.184   0.842 -2.9937  0.9783  0.3001
  738MOL0     H99580   8.489   7.257   0.919 -1.0257 -0.6971  3.7830
  738MOL0     H99581   8.102   7.357   0.943  0.5766 -3.1596 -2.0357
  738MOL0     H99582   7.959   7.481   0.761  1.2007  0.1771  1.4540
  738MOL0     H99583   7.991   7.653   0.814  1.0688  0.4329  1.4463
  738MOL0     H99584   8.058   7.497   0.566 -0.1899 -0.0188 -1.7529
  738MOL0     H99585   8.125   7.654   0.572  0.6262  2.6779  1.6177
  738MOL0     H99586   7.943   7.740   0.481  3.6241 -1.4035  0.9820
  738MOL0     H99587   7.868   7.727   0.639  4.7984  2.1562  1.1098
  738MOL0     H99588   7.766   7.505   0.577 -1.6200 -0.2965 -1.4592
  738MOL0     H99589   7.844   7.510   0.425  0.6155  0.7902  0.1399
  738MOL0     H99590   7.723   7.593   0.202 -0.4796  2.3680  2.4390
  738MOL0     H99591   7.598   7.348   0.028  4.5672 -0.5026  0.4482
  738MOL0     H99592   7.517   7.485  -0.050  2.3862  0.7304 -1.7395
  738MOL0     H99593   7.673   7.511   0.007 -2.3448  2.9435  2.4746
  738MOL0     H99594   7.154   7.046   0.302  0.8917  0.0430 -0.4428
  738MOL0     H99595   6.949   6.931   0.224  2.5495 -1.4671 -0.6871
  738MOL0     H99596   6.606   6.970   0.168 -1.3976 -0.0765 -1.4437
  738MOL0     H99597   6.646   7.138   0.208  1.0712 -0.3845 -0.0984
  738MOL0     H99598   6.597   7.162  -0.056  1.0956 -2.4585 -0.3865
  738MOL0     H99599   6.509   7.024  -0.037 -0.2790  1.2091 -0.9823
  738MOL0     H99600   6.438   7.263   0.131  1.1148 -0.0425 -0.3362
  738MOL0     H99601   6.383   7.110   0.161  1.5052 -0.4691 -1.1623
  738MOL0     H99602   6.351   7.266  -0.110  3.1234 -0.6467  0.0728
  738MOL0     H99603   6.310   7.093  -0.093  1.2507  0.8858 -0.7652
  738MOL0     H99604   6.123   7.129   0.030  2.4387 -2.2898 -3.1292
  738MOL0     H99605   6.114   7.245  -0.100  0.2210  0.5556 -0.5051
  738MOL0     H99606   6.169   7.309   0.197 -0.2420 -0.6254 -0.2526
  738MOL0     H99607   6.237   7.422   0.074  1.4043 -2.3660 -2.8265
  738MOL0     H99608   5.943   7.305   0.104 -0.0835 -1.4244 -3.7046
  738MOL0     H99609   5.975   7.431  -0.013  1.3662  0.6083  0.2707
  738MOL0     H99610   5.999   7.606   0.111  2.3312  0.8691  0.3431
  738MOL0     H99611   6.046   7.518   0.250  2.0950  0.8305 -0.7162
  738MOL0     H99612   6.841   7.289   0.010 -0.9045 -2.3229 -1.1179
  738MOL0     H99613   7.048   7.379   0.057 -0.5195  0.8850  2.4128
  738MOL0     H99614   7.306   7.458   0.418 -0.7966  0.4008  1.2412
  738MOL0     H99615   7.475   7.587   0.540  2.5498 -1.2471  1.5018
  738MOL0     H99616   8.577   7.089   1.885  1.5139  0.2114 -1.5911
  738MOL0     H99617   8.587   6.898   2.026  0.6504 -1.7012  0.4128
  738MOL0     H99618   8.521   6.588   2.346 -0.9414 -1.5968  2.4724
  738MOL0     H99619   8.474   6.363   2.433 -0.5937 -0.3146 -0.3829
  738MOL0     H99620   8.589   6.179   2.539  2.4190  0.2761 -2.5497
  738MOL0     H99621   8.428   6.112   2.466 -0.5814 -0.5532  3.3333
  738MOL0     H99622   8.555   5.949   2.615  2.5568  4.5181  0.4975
  738MOL0     H99623   8.686   5.950   2.517  0.9819  0.8926 -0.2556
  738MOL0     H99624   8.399   5.846   2.450  0.4303  0.6229  0.2319
  738MOL0     H99625   8.546   5.749   2.453 -1.7153 -0.5036 -0.4272
  738MOL0     H99626   8.636   5.883   2.236 -1.3447  1.8668 -2.1655
  738MOL0     H99627   8.479   5.950   2.242  1.8646  3.0550  2.0462
  738MOL0     H99628   8.389   5.557   2.105  1.9656 -0.3055  0.0070
  738MOL0     H99629   8.786   6.210   2.175 -0.6833 -1.3749  2.8832
  738MOL0     H99630   8.807   6.426   2.074  3.1063  2.0985  2.4086
  739MOL0     O99631   7.933  10.300   6.129  0.8936 -0.0780 -0.3601
  739MOL0     C99632   8.030  10.252   6.176 -0.1039  0.4850  0.1922
  739MOL0     O99633   8.141  10.208   6.109  0.3947  0.2198 -0.3070
  739MOL0     C99634   8.152  10.236   5.973  0.1729 -0.2354  0.3610
  739MOL0     C99635   8.221  10.135   5.901  0.2921  0.3818 -0.9149
  739MOL0     C99636   8.242  10.155   5.769  0.6276 -1.1773  0.5555
  739MOL0     C99637   8.201  10.268   5.698  0.9245 -0.1206  0.5115
  739MOL0     O99638   8.239  10.290   5.573  0.2885  0.0814  0.2093
  739MOL0     C99639   8.384  10.317   5.553  0.9537  0.8104 -0.6522
  739MOL0     C99640   8.386  10.351   5.401 -0.1315  0.7191  0.5531
  739MOL0     C99641   8.317  10.473   5.353  0.5653 -0.5452  1.2571
  739MOL0     C99642   8.369  10.589   5.427  0.0175 -0.1161  0.8917
  739MOL0     C99643   8.492  10.631   5.377 -0.1383 -0.3534 -0.6705
  739MOL0     C99644   8.561  10.740   5.459  0.8994  0.0213 -0.5615
  739MOL0     C99645   8.620  10.842   5.362 -0.6916 -0.3039  0.1982
  739MOL0     C99646   8.536  10.962   5.368  0.2767  0.2215  0.8591
  739MOL0     N99647   8.396  10.954   5.310 -0.9518  0.8145 -0.5391
  739MOL0     C99648   8.284  10.932   5.387  1.0607  0.8461 -0.4228
  739MOL0     C99649   8.174  10.927   5.303  0.3294 -0.0182  0.5478
  739MOL0     C99650   8.026  10.916   5.337 -0.5804 -0.0613  0.4738
  739MOL0     C99651   7.969  10.772   5.317  0.4287  0.1811 -0.9134
  739MOL0     C99652   7.819  10.761   5.354  0.4514  0.3060  0.9052
  739MOL0     C99653   7.762  10.795   5.493  0.2716 -0.5285 -0.3548
  739MOL0     O99654   7.838  10.706   5.576 -0.1162 -0.2289  0.1462
  739MOL0     C99655   7.859  10.752   5.698  0.5459  0.1900 -0.8188
  739MOL0     C99656   7.942  10.857   5.736 -0.1725 -0.4511  0.4333
  739MOL0     C99657   7.965  10.890   5.867  0.2572  0.1264 -0.0982
  739MOL0     C99658   8.033  11.022   5.906  0.0137 -0.2822  0.8779
  739MOL0     C99659   7.914  10.797   5.963 -0.4865  0.1786 -0.6795
  739MOL0     C99660   7.942  10.809   6.101 -1.3719  1.1940  0.3711
  739MOL0     O99661   7.995  10.688   6.161  0.2239  0.3210  0.7907
  739MOL0     C99662   8.011  10.682   6.292  0.3231  0.0150 -0.3719
  739MOL0     C99663   8.114  10.590   6.327  1.6883  0.2317 -0.2869
  739MOL0     C99664   8.148  10.579   6.461 -0.1972 -0.7483 -0.6417
  739MOL0     C99665   8.091  10.649   6.564 -0.8678 -0.7001 -1.4044
  739MOL0     O99666   8.124  10.620   6.689 -0.2706 -0.0338 -0.1184
  739MOL0     C99667   8.143  10.733   6.783 -0.8334 -0.9126  0.0564
  739MOL0     C99668   8.283  10.713   6.853  0.6064 -0.1679  0.7831
  739MOL0     C99669   8.305  10.808   6.971 -0.4748  0.5660  0.0664
  739MOL0     C99670   8.311  10.944   6.916 -0.4081 -0.9779  0.5369
  739MOL0     C99671   8.361  11.041   7.023 -0.2143 -0.2297 -0.1750
  739MOL0     C99672   8.358  11.189   6.973 -0.0915  0.0289  0.2749
  739MOL0     C99673   8.352  11.290   7.091 -0.7820  0.0373  0.1266
  739MOL0     C99674   8.333  11.429   7.030  0.5791  1.4781  0.1413
  739MOL0    Cl99675   8.487  11.488   6.956  0.0745  0.2003 -0.3273
  739MOL0     C99676   7.986  10.741   6.531  0.7185 -0.5438  2.0839
  739MOL0     C99677   7.948  10.759   6.389  0.1726  0.1601 -0.4974
  739MOL0     O99678   7.875  10.897   6.146 -0.9731  0.0353 -0.6353
  739MOL0     C99679   7.834  10.690   5.934  0.1052 -0.2448 -0.3759
  739MOL0     C99680   7.806  10.672   5.800  0.0666  0.2073 -0.3485
  739MOL0     N99681   8.238  10.929   5.175  0.0915 -0.2329 -0.4489
  739MOL0     N99682   8.374  10.933   5.179  0.1799 -0.1173  0.5480
  739MOL0     C99683   8.114  10.352   5.766  0.2175 -0.6217  0.0964
  739MOL0     C99684   8.091  10.343   5.899 -0.8143 -0.4056 -0.2358
  739MOL0     C99685   8.025  10.219   6.317 -0.4776 -0.4107 -0.4666
  739MOL0     C99686   7.916  10.270   6.393  0.7912 -0.0591 -0.3733
  739MOL0     C99687   7.886  10.210   6.513 -0.5112 -0.0245 -0.4394
  739MOL0     C99688   7.967  10.105   6.553  0.1353 -0.7082 -0.2000
  739MOL0     O99689   7.933  10.027   6.658 -0.3888  0.8238  0.1799
  739MOL0     C99690   7.870  10.087   6.779 -1.1983  0.2114 -0.0998
  739MOL0     C99691   7.984  10.078   6.889 -0.4480  1.1073  0.6032
  739MOL0     C99692   8.120  10.128   6.842 -0.3396  0.2694 -0.5097
  739MOL0     C99693   8.118  10.282   6.794  0.6128  0.4013  0.3874
  739MOL0     C99694   8.095  10.382   6.899 -0.3045  0.7185 -0.9674
  739MOL0     C99695   8.080  10.469   6.984 -0.8191  0.6989 -0.1694
  739MOL0     C99696   8.078  10.059   6.484 -1.2191 -0.2701  0.9818
  739MOL0     C99697   8.113  10.119   6.364 -0.1705  0.7810  0.0990
  739MOL0     H99698   8.253  10.054   5.966  1.2620  2.4802  1.3675
  739MOL0     H99699   8.301  10.087   5.709  0.8418  0.6331 -1.3875
  739MOL0     H99700   8.422  10.402   5.610  1.6128  1.5710 -2.1630
  739MOL0     H99701   8.440  10.227   5.581  0.4882  1.4558  2.7857
  739MOL0     H99702   8.491  10.363   5.374 -1.0750  2.1647 -3.1654
  739MOL0     H99703   8.349  10.273   5.333  1.9750  1.2783 -1.3703
  739MOL0     H99704   8.328  10.487   5.245 -1.2603 -1.8429  0.8507
  739MOL0     H99705   8.208  10.465   5.365  0.1049  2.0196 -0.4697
  739MOL0     H99706   8.304  10.677   5.422  2.1883  1.5194  0.2546
  739MOL0     H99707   8.362  10.563   5.533  1.0720 -2.4147  0.4648
  739MOL0     H99708   8.567  10.551   5.372  0.5733  0.0190  2.2119
  739MOL0     H99709   8.470  10.672   5.278  0.3566  1.5012 -0.0370
  739MOL0     H99710   8.499  10.791   5.534  4.0555  2.4054  0.6739
  739MOL0     H99711   8.638  10.694   5.521 -0.2640 -1.8270 -0.4208
  739MOL0     H99712   8.719  10.875   5.393  0.0525 -1.8287 -0.4503
  739MOL0     H99713   8.640  10.806   5.261 -1.6028 -3.0073  0.9042
  739MOL0     H99714   8.586  11.043   5.314 -0.3708  0.1501  0.1261
  739MOL0     H99715   8.528  10.992   5.473  2.9696  1.1347  0.8789
  739MOL0     H99716   8.280  10.916   5.495  2.6679  0.1689 -0.4426
  739MOL0     H99717   8.015  10.948   5.441  1.7507  3.0455 -0.0920
  739MOL0     H99718   7.971  10.986   5.274  1.1117  2.0090  1.1864
  739MOL0     H99719   8.028  10.714   5.388  0.4097 -0.1448 -1.1634
  739MOL0     H99720   7.969  10.731   5.216 -0.6515 -0.6064 -0.6193
  739MOL0     H99721   7.801  10.653   5.343 -0.3730  0.7023 -3.0648
  739MOL0     H99722   7.768  10.820   5.278  1.1496  0.3850  0.4969
  739MOL0     H99723   7.655  10.774   5.501  0.8646 -3.9959  0.1301
  739MOL0     H99724   7.785  10.899   5.518 -0.7190  0.1765 -2.1451
  739MOL0     H99725   7.990  10.918   5.661 -0.5407  0.1341  0.6645
  739MOL0     H99726   8.115  11.049   5.838 -0.1391 -1.9819 -0.0289
  739MOL0     H99727   7.957  11.099   5.896 -0.2296 -0.7432 -1.6194
  739MOL0     H99728   8.065  11.025   6.011  1.0112  0.7533  0.5665
  739MOL0     H99729   8.167  10.547   6.242 -1.2812  2.8717 -3.8218
  739MOL0     H99730   8.222  10.503   6.480 -0.9480 -1.3314 -0.0188
  739MOL0     H99731   8.139  10.832   6.736  0.6694  0.2676  2.2300
  739MOL0     H99732   8.070  10.735   6.864  0.4796  0.6160  1.2766
  739MOL0     H99733   8.280  10.606   6.875 -1.5183 -0.6519 -1.4547
  739MOL0     H99734   8.348  10.737   6.768  0.7119  0.7091  1.1024
  739MOL0     H99735   8.402  10.778   7.011 -0.3209 -3.2554 -2.6260
  739MOL0     H99736   8.226  10.790   7.046  1.2337 -2.3320  1.3402
  739MOL0     H99737   8.391  10.952   6.842 -0.6276 -4.7542 -0.3493
  739MOL0     H99738   8.219  10.981   6.870 -0.3447 -0.5155  0.7841
  739MOL0     H99739   8.458  11.015   7.066 -0.4092  0.6538  0.8345
  739MOL0     H99740   8.277  11.026   7.093 -1.2754 -1.9714 -1.7372
  739MOL0     H99741   8.452  11.208   6.920 -0.1320  0.0920  0.2247
  739MOL0     H99742   8.271  11.197   6.908 -0.5423  2.4132  1.0709
  739MOL0     H99743   8.439  11.281   7.156 -1.0018 -2.6331  0.1303
  739MOL0     H99744   8.269  11.261   7.156 -1.1002  0.6708  0.0173
  739MOL0     H99745   8.301  11.505   7.101 -0.5888  0.2642  0.9829
  739MOL0     H99746   8.257  11.423   6.951 -2.5143  1.6089  2.8605
  739MOL0     H99747   7.926  10.792   6.606 -3.6344 -2.7301  0.4245
  739MOL0     H99748   7.867  10.830   6.372 -0.6893 -0.4569  0.8537
  739MOL0     H99749   7.779  10.628   6.005 -0.4864  1.9008  1.1463
  739MOL0     H99750   7.736  10.592   5.777  2.7904 -3.4956  2.8951
  739MOL0     H99751   8.067  10.428   5.704  1.7003  0.1216 -0.1534
  739MOL0     H99752   8.031  10.421   5.945 -1.1160 -0.3969 -0.6344
  739MOL0     H99753   7.842  10.338   6.351 -2.4021 -3.2366 -0.3880
  739MOL0     H99754   7.797  10.229   6.572 -0.5909 -2.2122  0.2246
  739MOL0     H99755   7.831  10.188   6.762  0.7574  1.0247 -0.0619
  739MOL0     H99756   7.787  10.028   6.820  0.5249 -0.8966  2.0010
  739MOL0     H99757   7.981   9.975   6.925 -0.8238  1.6074  2.0514
  739MOL0     H99758   7.959  10.123   6.985  1.0000 -2.0511  2.6500
  739MOL0     H99759   8.163  10.073   6.757  0.1241 -0.6891  0.3336
  739MOL0     H99760   8.187  10.116   6.928 -2.3037 -2.7955  0.7539
  739MOL0     H99761   8.056  10.308   6.707 -0.3903 -0.7793  0.7182
  739MOL0     H99762   8.223  10.278   6.762  0.2373  1.3424 -1.0466
  739MOL0     H99763   8.072  10.542   7.061 -5.0537  0.2430  0.0383
  739MOL0     H99764   8.124   9.963   6.509  0.0320 -0.1581 -0.6490
  739MOL0     H99765   8.191  10.080   6.299 -0.8316 -1.3242  0.4826
  740MOL0     O99766  10.125   3.980   2.625  0.1899 -0.4688 -1.2052
  740MOL0     C99767  10.124   4.041   2.730  0.0255  0.0643  0.4805
  740MOL0     O99768  10.120   3.994   2.857 -0.1990  0.8306  0.7180
  740MOL0     C99769  10.137   3.857   2.887 -0.3270  0.0569  0.6557
  740MOL0     C99770  10.250   3.824   2.972  0.1109 -0.0197  0.6773
  740MOL0     C99771  10.281   3.692   2.995  0.0152 -0.3532 -0.2410
  740MOL0     C99772  10.183   3.598   2.959 -0.7756 -0.5469 -0.0607
  740MOL0     O99773  10.199   3.463   2.985 -0.2985 -0.4325 -0.3183
  740MOL0     C99774  10.280   3.425   3.101  0.7215 -0.5411  0.9976
  740MOL0     C99775  10.215   3.484   3.231  0.4370 -0.2636  0.0128
  740MOL0     C99776  10.308   3.471   3.351  0.1613  0.0223 -0.1615
  740MOL0     C99777  10.369   3.336   3.383 -0.7015 -0.2984 -0.5679
  740MOL0     C99778  10.452   3.354   3.508  0.0797  0.1960 -0.3206
  740MOL0     C99779  10.384   3.287   3.628 -0.3982  0.3126 -0.3291
  740MOL0     C99780  10.447   3.305   3.763  0.5202  1.1370  0.6366
  740MOL0     C99781  10.370   3.286   3.890  1.2757 -0.7827  0.2303
  740MOL0     N99782  10.324   3.414   3.940 -0.0646 -0.1062 -0.4237
  740MOL0     C99783  10.210   3.477   3.888  0.7358 -0.1405 -0.0687
  740MOL0     C99784  10.214   3.599   3.939  0.2409 -0.6530  0.1783
  740MOL0     C99785  10.121   3.720   3.900  0.1173 -0.3714  0.3253
  740MOL0     C99786  10.048   3.702   3.761  0.0704  0.2017 -0.3786
  740MOL0     C99787  10.124   3.700   3.635  0.3200  0.2535  0.1291
  740MOL0     C99788  10.030   3.689   3.510 -0.0096 -0.8413 -0.2562
  740MOL0     O99789   9.978   3.563   3.516 -0.1693 -0.3974  0.0899
  740MOL0     C99790   9.841   3.563   3.491  1.1136 -0.2281  0.9994
  740MOL0     C99791   9.797   3.492   3.375  0.1096 -0.0422 -0.2110
  740MOL0     C99792   9.653   3.475   3.351 -0.6219  0.0310 -0.4687
  740MOL0     C99793   9.625   3.403   3.214  0.2000 -0.6381 -0.8622
  740MOL0     C99794   9.556   3.539   3.434 -0.8450 -0.1860  0.3389
  740MOL0     C99795   9.415   3.526   3.420 -0.0881  0.4513 -0.1194
  740MOL0     O99796   9.340   3.602   3.506 -0.1101  0.2570  0.0486
  740MOL0     C99797   9.200   3.606   3.489 -0.1464 -0.8483  0.1195
  740MOL0     C99798   9.124   3.542   3.579  0.0053 -0.1927  0.3305
  740MOL0     C99799   8.990   3.553   3.584 -0.1059  0.3447  0.3018
  740MOL0     C99800   8.918   3.625   3.487 -0.0812  0.1208  0.9900
  740MOL0     O99801   8.777   3.628   3.484  0.2351 -0.2113  0.5538
  740MOL0     C99802   8.706   3.751   3.516 -0.1334  0.5452  0.8173
  740MOL0     C99803   8.553   3.728   3.534 -0.1532 -0.7326  0.1341
  740MOL0     C99804   8.494   3.650   3.421 -0.2695  0.0388  0.1838
  740MOL0     C99805   8.342   3.678   3.431  0.3983 -0.0197  0.2454
  740MOL0     C99806   8.257   3.606   3.323 -0.4904  0.6671 -0.8603
  740MOL0     C99807   8.100   3.591   3.352  0.3644 -0.4226  0.4010
  740MOL0     C99808   8.044   3.522   3.226  0.0811 -0.5772  0.0094
  740MOL0     C99809   7.900   3.479   3.240 -0.2496  0.8578  0.5801
  740MOL0    Cl99810   7.801   3.629   3.238 -0.5254 -0.3141  0.1551
  740MOL0     C99811   8.993   3.700   3.390 -0.1109  0.3142  0.1505
  740MOL0     C99812   9.141   3.687   3.396  0.4356  0.0002 -0.0208
  740MOL0     O99813   9.364   3.468   3.326 -0.3958  0.4018  0.9955
  740MOL0     C99814   9.602   3.613   3.538  0.6716 -0.8432 -0.3538
  740MOL0     C99815   9.739   3.614   3.570  2.3253  0.2799 -0.9379
  740MOL0     N99816  10.307   3.603   4.037 -0.4196  0.1337 -0.4678
  740MOL0     N99817  10.373   3.491   4.042  0.0487 -0.3937  0.2341
  740MOL0     C99818  10.081   3.635   2.881  0.4637 -0.5275 -1.4375
  740MOL0     C99819  10.048   3.765   2.835 -0.2055  0.0681  0.1887
  740MOL0     C99820  10.107   4.190   2.718  0.1181 -0.3838  0.1301
  740MOL0     C99821  10.095   4.273   2.830  1.3846 -0.3781 -0.2880
  740MOL0     C99822  10.106   4.416   2.825 -0.2168  0.5685  0.3406
  740MOL0     C99823  10.116   4.477   2.697  0.4425 -0.5447 -0.0824
  740MOL0     O99824  10.110   4.612   2.704 -0.1829 -0.2234  0.2787
  740MOL0     C99825  10.168   4.685   2.594  0.0267  0.0798  0.3501
  740MOL0     C99826  10.183   4.830   2.632 -1.0119  0.1076  0.8451
  740MOL0     C99827  10.107   4.928   2.544  0.4002 -0.9435 -0.8859
  740MOL0     C99828  10.129   5.083   2.580 -0.1295  0.5734  0.5677
  740MOL0     C99829  10.053   5.134   2.693 -0.6386 -0.1736 -0.4044
  740MOL0     C99830   9.989   5.171   2.790 -0.3992 -0.6568 -0.3219
  740MOL0     C99831  10.115   4.399   2.586  0.1956 -0.3278  0.3090
  740MOL0     C99832  10.115   4.253   2.594 -0.4688  0.8545  0.0171
  740MOL0     H99833  10.332   3.892   2.991  2.0177 -2.1934  0.6006
  740MOL0     H99834  10.376   3.660   3.038  1.4295  0.1530 -2.7400
  740MOL0     H99835  10.269   3.316   3.102 -3.8388 -0.3289 -0.9007
  740MOL0     H99836  10.386   3.452   3.092  0.4676  0.3953  0.7261
  740MOL0     H99837  10.197   3.591   3.217  1.6364  0.0382  0.6072
  740MOL0     H99838  10.125   3.428   3.258 -0.6138 -0.8317 -3.9963
  740MOL0     H99839  10.388   3.542   3.329  1.9088 -1.5425  0.9056
  740MOL0     H99840  10.256   3.518   3.436 -2.5382  0.7443 -2.0586
  740MOL0     H99841  10.291   3.259   3.388 -2.0906  1.0608 -0.1612
  740MOL0     H99842  10.435   3.313   3.300 -0.5399 -0.1504 -0.4820
  740MOL0     H99843  10.546   3.303   3.489 -0.0528  0.3288 -1.3976
  740MOL0     H99844  10.466   3.461   3.521 -0.1149  0.3961 -1.6076
  740MOL0     H99845  10.290   3.343   3.625 -0.3166  0.6654  1.8214
  740MOL0     H99846  10.366   3.180   3.612 -0.2460  0.0163  1.3001
  740MOL0     H99847  10.529   3.232   3.764 -0.8333 -0.4522  2.5725
  740MOL0     H99848  10.498   3.402   3.762  0.1185  1.3488 -0.0829
  740MOL0     H99849  10.424   3.225   3.963  0.2890 -0.5225  1.2110
  740MOL0     H99850  10.281   3.234   3.853  0.1777  1.6955 -0.8220
  740MOL0     H99851  10.142   3.447   3.809 -1.9471  0.3672  1.9038
  740MOL0     H99852  10.045   3.729   3.979  0.0310 -2.1998  0.5023
  740MOL0     H99853  10.175   3.814   3.904 -0.4427 -0.0694  1.2027
  740MOL0     H99854   9.997   3.798   3.752 -3.0896 -1.0505  2.1230
  740MOL0     H99855   9.962   3.634   3.771 -2.4490  2.9263 -1.8183
  740MOL0     H99856  10.199   3.621   3.641  4.8423  3.9777 -1.6461
  740MOL0     H99857  10.179   3.792   3.615  2.0438 -0.6403  0.5190
  740MOL0     H99858  10.091   3.692   3.420 -0.7915  3.1901 -0.8232
  740MOL0     H99859   9.955   3.768   3.508  0.4966 -0.3463  0.1995
  740MOL0     H99860   9.870   3.446   3.310  0.4706 -0.0567  0.1987
  740MOL0     H99861   9.718   3.370   3.167 -0.4001 -3.4908 -0.2346
  740MOL0     H99862   9.559   3.317   3.227  1.6427 -1.3848  2.5215
  740MOL0     H99863   9.569   3.475   3.153  0.2090 -1.6257 -2.0720
  740MOL0     H99864   9.181   3.492   3.657  0.2976 -0.1274  0.1577
  740MOL0     H99865   8.941   3.493   3.659  1.4599  1.2307  2.1165
  740MOL0     H99866   8.735   3.799   3.610  3.1193  1.1043 -0.3336
  740MOL0     H99867   8.736   3.825   3.441  0.7974 -1.4262 -0.8861
  740MOL0     H99868   8.536   3.680   3.631 -0.9800  0.5218  0.6448
  740MOL0     H99869   8.508   3.828   3.538  0.7453 -0.1454 -2.4801
  740MOL0     H99870   8.532   3.548   3.422  1.2315  0.5548 -0.2198
  740MOL0     H99871   8.527   3.694   3.326  0.7275 -0.4478  0.2885
  740MOL0     H99872   8.304   3.636   3.525 -1.0157 -0.3878 -0.4627
  740MOL0     H99873   8.311   3.782   3.441  1.1285  0.0531  2.1838
  740MOL0     H99874   8.301   3.508   3.300  0.2272  0.9252 -0.6302
  740MOL0     H99875   8.289   3.667   3.237  1.7468 -1.4327 -1.6141
  740MOL0     H99876   8.088   3.530   3.443 -1.2761 -0.7782 -0.0321
  740MOL0     H99877   8.063   3.692   3.374  3.5007  1.1262 -0.7756
  740MOL0     H99878   8.091   3.425   3.206  0.1725 -0.0009 -3.1522
  740MOL0     H99879   8.048   3.583   3.136 -0.4013 -0.2800  0.1853
  740MOL0     H99880   7.887   3.427   3.335  0.2292  0.1279  0.2580
  740MOL0     H99881   7.870   3.409   3.161 -1.6212  1.7278  0.2905
  740MOL0     H99882   8.945   3.777   3.330 -0.1285 -0.3760 -0.7462
  740MOL0     H99883   9.200   3.735   3.318 -0.6780  1.5871  0.0561
  740MOL0     H99884   9.550   3.689   3.595  2.9015 -0.9557  2.0326
  740MOL0     H99885   9.766   3.687   3.646 -2.2620  2.3795 -0.9663
  740MOL0     H99886  10.014   3.554   2.853 -1.4746  0.5157 -0.0379
  740MOL0     H99887   9.964   3.808   2.782 -1.8820 -0.3332  2.3727
  740MOL0     H99888  10.090   4.239   2.933 -0.8924  3.8862  1.2365
  740MOL0     H99889  10.115   4.480   2.912 -0.8512  1.4188 -0.1952
  740MOL0     H99890  10.260   4.630   2.572 -1.4607 -1.2216 -3.5017
  740MOL0     H99891  10.115   4.680   2.499  0.6702 -1.1644  0.0402
  740MOL0     H99892  10.287   4.861   2.616 -1.8228  1.8170 -1.6300
  740MOL0     H99893  10.161   4.848   2.737 -0.4640 -0.4098  1.0554
  740MOL0     H99894   9.999   4.926   2.556  0.4592  1.7174  0.8124
  740MOL0     H99895  10.119   4.927   2.435 -0.4466 -1.4624 -0.9851
  740MOL0     H99896  10.100   5.133   2.487  0.6391 -2.6537 -1.5475
  740MOL0     H99897  10.233   5.100   2.611  0.0043 -0.7145  0.8697
  740MOL0     H99898   9.920   5.194   2.868 -2.9037  3.7928 -3.4074
  740MOL0     H99899  10.113   4.450   2.490 -1.5929  1.1441  1.0689
  740MOL0     H99900  10.117   4.192   2.504  2.0426 -3.4508  2.6477
  741MOL0     O99901   5.828  10.388   3.336 -0.7525  0.0895  0.2163
  741MOL0     C99902   5.754  10.452   3.256 -0.6362  0.4572 -0.4284
  741MOL0     O99903   5.781  10.574   3.202  0.0156 -0.3895  0.5962
  741MOL0     C99904   5.913  10.601   3.195 -0.3709  1.1737 -0.1983
  741MOL0     C99905   6.013  10.590   3.299  0.4206  0.2659 -0.0431
  741MOL0     C99906   6.143  10.596   3.265 -0.1596 -0.6724  0.3672
  741MOL0     C99907   6.190  10.652   3.138 -0.1412 -0.1044  0.0569
  741MOL0     O99908   6.323  10.645   3.107 -0.4936  0.4445 -1.0343
  741MOL0     C99909   6.371  10.688   2.980 -0.7489  0.4475 -0.2590
  741MOL0     C99910   6.520  10.684   2.985  0.8899 -0.1889  0.1123
  741MOL0     C99911   6.566  10.544   2.977 -0.2755  0.2197 -0.8997
  741MOL0     C99912   6.693  10.530   3.059  0.1480  0.5253  0.1585
  741MOL0     C99913   6.771  10.397   3.031  0.6894  0.1600  0.5330
  741MOL0     C99914   6.850  10.347   3.151 -0.2460  0.1189 -0.2310
  741MOL0     C99915   6.945  10.230   3.126 -0.3932 -0.2485  0.3268
  741MOL0     C99916   7.037  10.199   3.249  0.7865  0.1029  0.6639
  741MOL0     N99917   6.970  10.100   3.332 -0.2431  0.2798  0.2220
  741MOL0     C99918   7.000   9.963   3.328  0.5718  0.1152 -0.1563
  741MOL0     C99919   6.904   9.904   3.405  1.1253  0.1578 -0.5322
  741MOL0     C99920   6.861   9.765   3.427 -0.3964 -0.4240  0.8857
  741MOL0     C99921   6.965   9.669   3.489  0.6138 -0.5766  0.3006
  741MOL0     C99922   7.083   9.630   3.398 -0.0451  0.0944 -0.3022
  741MOL0     C99923   7.166   9.527   3.477 -0.4699  0.5566  0.0832
  741MOL0     O99924   7.306   9.525   3.417  0.1260  0.1465 -0.5147
  741MOL0     C99925   7.406   9.599   3.482 -0.9433  0.9569 -0.3075
  741MOL0     C99926   7.384   9.704   3.563  0.1277  0.7947 -0.8723
  741MOL0     C99927   7.490   9.766   3.634  0.4961  0.1383  0.3600
  741MOL0     C99928   7.457   9.886   3.727 -0.7897  1.8126  0.0953
  741MOL0     C99929   7.618   9.730   3.605 -0.1223  0.7175 -0.7548
  741MOL0     C99930   7.733   9.784   3.666  0.3885  1.0189 -0.5243
  741MOL0     O99931   7.810   9.702   3.740 -0.4940 -0.3648 -0.5076
  741MOL0     C99932   7.925   9.748   3.788 -0.5435 -0.0382  0.2449
  741MOL0     C99933   8.033   9.760   3.699  0.0184 -0.0411  0.4538
  741MOL0     C99934   8.161   9.784   3.753 -0.3090  0.7205 -0.3539
  741MOL0     C99935   8.189   9.784   3.894  0.2823  0.1978 -0.4113
  741MOL0     O99936   8.316   9.791   3.952 -0.1853 -0.7469  0.7308
  741MOL0     C99937   8.431   9.771   3.873 -0.6422 -0.2729 -0.4255
  741MOL0     C99938   8.464   9.614   3.877  0.7830 -1.1908 -0.2276
  741MOL0     C99939   8.592   9.560   3.804 -0.2307 -0.2963 -0.0676
  741MOL0     C99940   8.584   9.407   3.794 -0.4842  0.4351 -0.2139
  741MOL0     C99941   8.712   9.353   3.749 -1.0510  0.2603  0.3422
  741MOL0     C99942   8.768   9.428   3.625  0.4140 -0.5108 -0.1065
  741MOL0     C99943   8.677   9.394   3.504  0.4179  0.5590 -0.3785
  741MOL0     C99944   8.668   9.512   3.409  0.2610 -0.8335 -0.3689
  741MOL0    Cl99945   8.800   9.500   3.295  0.0361  0.0404 -0.1243
  741MOL0     C99946   8.076   9.780   3.979 -0.2633 -0.9644 -0.8823
  741MOL0     C99947   7.943   9.766   3.924 -0.0151 -0.9626  0.2791
  741MOL0     O99948   7.771   9.894   3.641  0.8318  0.6759  0.4622
  741MOL0     C99949   7.638   9.627   3.512 -0.0272  0.4419 -0.5595
  741MOL0     C99950   7.538   9.555   3.465 -0.7723 -0.3358  0.3568
  741MOL0     N99951   6.824  10.002   3.449  0.1465  0.6860 -0.0935
  741MOL0     N99952   6.852  10.112   3.392 -0.7532 -0.2148 -0.1775
  741MOL0     C99953   6.087  10.668   3.043 -0.0184  0.5493 -0.0207
  741MOL0     C99954   5.953  10.648   3.068  0.2461 -0.7117 -0.0286
  741MOL0     C99955   5.619  10.393   3.250 -0.0707 -0.1673 -0.4792
  741MOL0     C99956   5.511  10.467   3.190 -0.0996 -0.2844  0.0489
  741MOL0     C99957   5.382  10.404   3.191  0.1408  0.4274  0.6772
  741MOL0     C99958   5.359  10.269   3.249 -0.6827 -0.7526  0.0806
  741MOL0     O99959   5.252  10.191   3.237 -0.1440 -0.2364 -0.5883
  741MOL0     C99960   5.127  10.265   3.265 -0.1140  0.0306  0.0582
  741MOL0     C99961   5.035  10.237   3.151 -0.4205  0.6552  0.6389
  741MOL0     C99962   5.063  10.320   3.022  0.3928  1.0724 -0.7091
  741MOL0     C99963   5.003  10.260   2.893  0.1002 -0.2405  0.1075
  741MOL0     C99964   4.857  10.256   2.896 -0.6410 -0.5896 -0.0575
  741MOL0     C99965   4.735  10.262   2.905 -0.4546  0.1539  0.0723
  741MOL0     C99966   5.473  10.208   3.306  0.3924 -0.6672  0.5079
  741MOL0     C99967   5.599  10.265   3.299 -0.7112  0.2700  0.6896
  741MOL0     H99968   5.986  10.571   3.402 -2.7602  2.0996 -0.3994
  741MOL0     H99969   6.227  10.573   3.330 -0.8105 -1.5055  0.9291
  741MOL0     H99970   6.340  10.615   2.905  1.8754 -0.8716 -0.1948
  741MOL0     H99971   6.327  10.788   2.970  0.3868  1.0090  0.1945
  741MOL0     H99972   6.561  10.744   2.904  1.5623  2.7454  2.4518
  741MOL0     H99973   6.555  10.733   3.077 -3.0537  2.1388  0.6061
  741MOL0     H99974   6.493  10.468   3.007 -0.1880  0.2403 -0.6343
  741MOL0     H99975   6.597  10.518   2.875  3.7278  1.6157 -0.2336
  741MOL0     H99976   6.767  10.609   3.045 -0.4815  0.7388 -2.4301
  741MOL0     H99977   6.664  10.523   3.165 -0.0599  2.3559  0.2450
  741MOL0     H99978   6.702  10.317   3.000  0.0314  1.6245 -2.1040
  741MOL0     H99979   6.846  10.420   2.954 -1.7417  0.1806 -2.0090
  741MOL0     H99980   6.904  10.432   3.194  1.6938 -0.2288 -1.8448
  741MOL0     H99981   6.779  10.301   3.220 -1.4122 -0.9717 -2.0644
  741MOL0     H99982   6.881  10.149   3.092 -0.5137  0.2590 -0.7071
  741MOL0     H99983   7.010  10.256   3.041 -0.6615  2.4667  0.8543
  741MOL0     H99984   7.056  10.287   3.311 -3.4105  1.3265  0.5371
  741MOL0     H99985   7.123  10.150   3.201  1.0092 -0.8831  2.0098
  741MOL0     H99986   7.073   9.913   3.266 -0.9853 -3.3551  0.5709
  741MOL0     H99987   6.769   9.773   3.487 -2.7216  4.4927 -2.6765
  741MOL0     H99988   6.815   9.727   3.336 -1.0160 -0.5983  1.2607
  741MOL0     H99989   6.905   9.579   3.509  1.7352 -1.2985  0.5518
  741MOL0     H99990   6.990   9.717   3.584 -0.5124  0.8605 -0.1065
  741MOL0     H99991   7.133   9.722   3.365 -0.4040  0.0418 -1.0072
  741MOL0     H99992   7.049   9.590   3.302 -1.7246  1.7600 -0.4541
  741MOL0     H99993   7.119   9.430   3.461  0.8456 -0.3812  1.5736
  741MOL0     H99994   7.175   9.535   3.586  2.1690  0.4568 -0.0597
  741MOL0     H99995   7.285   9.744   3.580 -0.0408  0.7314 -1.6991
  741MOL0     H99996   7.371   9.862   3.790  2.4080  1.7030  4.9579
  741MOL0     H99997   7.533   9.891   3.805 -3.2981 -2.6309  3.2893
  741MOL0     H99998   7.428   9.973   3.668  1.2703  1.4264 -1.5983
  741MOL0     H99999   8.013   9.741   3.594 -0.2796 -0.2573  0.5479
  741MOL0     H    0   8.240   9.783   3.678  0.4354  0.7539  0.4267
  741MOL0     H    1   8.428   9.819   3.775  1.3519  4.2781  1.4560
  741MOL0     H    2   8.514   9.832   3.910 -0.9151  1.6882 -2.7842
  741MOL0     H    3   8.470   9.597   3.984  0.5508 -0.3811 -0.0813
  741MOL0     H    4   8.380   9.557   3.837  2.5422 -2.4660 -2.3948
  741MOL0     H    5   8.678   9.572   3.871 -0.3257 -4.5513  1.1276
  741MOL0     H    6   8.597   9.594   3.701 -1.4406 -0.0635 -0.0649
  741MOL0     H    7   8.566   9.357   3.889  1.9226 -0.5876 -0.2075
  741MOL0     H    8   8.502   9.381   3.726 -2.9446  6.3493 -0.0969
  741MOL0     H    9   8.713   9.245   3.727  3.0365  0.2008  0.0786
  741MOL0     H   10   8.799   9.371   3.813 -1.5398  1.7600  0.6096
  741MOL0     H   11   8.777   9.533   3.656  1.0184 -0.5685 -0.0723
  741MOL0     H   12   8.868   9.391   3.599  1.1545  1.2643  0.0640
  741MOL0     H   13   8.575   9.367   3.531  0.4883  1.9178  1.4472
  741MOL0     H   14   8.712   9.307   3.449  0.1215 -0.2796  0.7345
  741MOL0     H   15   8.678   9.607   3.463  1.2701  0.7898 -3.2242
  741MOL0     H   16   8.577   9.504   3.350 -0.0029  0.6309 -0.1881
  741MOL0     H   17   8.089   9.777   4.086 -1.7809  3.3019 -0.3711
  741MOL0     H   18   7.862   9.771   3.996  1.3339  2.7779  1.7586
  741MOL0     H   19   7.741   9.609   3.485  0.4371 -1.5335  2.0752
  741MOL0     H   20   7.540   9.469   3.400 -2.2876  1.2483 -1.9392
  741MOL0     H   21   6.116  10.709   2.947  1.4104  1.0430  0.5940
  741MOL0     H   22   5.887  10.674   2.986  0.0943 -3.1563 -0.7304
  741MOL0     H   23   5.512  10.570   3.156  0.1404 -0.0617  0.7127
  741MOL0     H   24   5.298  10.461   3.154  0.2555  2.5111  3.2689
  741MOL0     H   25   5.088  10.208   3.350  0.3038 -1.0762 -0.4768
  741MOL0     H   26   5.147  10.371   3.283  2.4302  0.0094 -1.9319
  741MOL0     H   27   4.941  10.276   3.190 -1.4027 -2.0632  1.1414
  741MOL0     H   28   5.016  10.130   3.137  0.8101  0.4537  0.3434
  741MOL0     H   29   5.171  10.302   3.014  0.4888 -0.3131  2.3506
  741MOL0     H   30   5.054  10.428   3.032  2.8507  1.1165  3.6675
  741MOL0     H   31   5.028  10.154   2.878 -3.4148 -1.0070 -1.2507
  741MOL0     H   32   5.047  10.321   2.813 -1.8297  0.7615 -0.2467
  741MOL0     H   33   4.629  10.256   2.923 -0.0563 -3.2113  2.2185
  741MOL0     H   34   5.448  10.116   3.357  1.9028 -2.2851 -1.4945
  741MOL0     H   35   5.679  10.204   3.340  1.3844  0.2976 -2.9860
  742MOL0     O   36   4.161   6.691  10.969 -0.2173 -0.7480 -0.3422
  742MOL0     C   37   4.059   6.653  11.022 -0.0841 -0.0359 -0.4262
  742MOL0     O   38   4.037   6.528  11.083 -0.2167  0.1602 -0.1340
  742MOL0     C   39   4.144   6.439  11.065 -0.2682  0.0490 -0.9963
  742MOL0     C   40   4.174   6.375  10.943  0.1546 -0.4958 -0.6024
  742MOL0     C   41   4.293   6.306  10.908 -0.4805  0.6633 -1.0893
  742MOL0     C   42   4.379   6.278  11.018  0.4830 -0.1589 -0.4734
  742MOL0     O   43   4.478   6.183  10.998  0.0639 -0.1565  1.1371
  742MOL0     C   44   4.601   6.188  11.068 -0.7551 -0.4190 -0.2072
  742MOL0     C   45   4.668   6.052  11.027  0.3431  0.3625 -0.1040
  742MOL0     C   46   4.721   6.057  10.888 -0.0426 -0.1085 -0.5913
  742MOL0     C   47   4.760   5.919  10.842  0.3121  0.6229 -0.6378
  742MOL0     C   48   4.857   5.918  10.721  0.4177  1.0006  0.2670
  742MOL0     C   49   4.901   5.780  10.660  0.8287  0.0907 -0.6172
  742MOL0     C   50   4.779   5.702  10.609  0.5556 -0.2217  0.5063
  742MOL0     C   51   4.783   5.557  10.553  0.1719  0.6383  0.3428
  742MOL0     N   52   4.818   5.459  10.658  0.0360  0.0910 -0.5308
  742MOL0     C   53   4.944   5.406  10.651  0.6950 -0.8610  0.2824
  742MOL0     C   54   4.951   5.321  10.758  0.5834  0.4741 -0.4248
  742MOL0     C   55   5.061   5.230  10.806 -0.4062  0.9935 -0.1272
  742MOL0     C   56   5.200   5.296  10.789 -0.0673  0.1518 -0.3735
  742MOL0     C   57   5.319   5.202  10.834  0.4910  0.4367  0.4641
  742MOL0     C   58   5.458   5.272  10.817 -0.3546  0.4841  0.2411
  742MOL0     O   59   5.468   5.341  10.689 -0.0460 -0.0565  0.5344
  742MOL0     C   60   5.583   5.350  10.609 -0.5770  0.3174  0.4258
  742MOL0     C   61   5.575   5.408  10.482 -0.1850 -0.6086 -0.9133
  742MOL0     C   62   5.683   5.429  10.401  0.1494 -0.3580  0.1342
  742MOL0     C   63   5.660   5.502  10.271  0.4766 -0.8707 -0.5897
  742MOL0     C   64   5.809   5.390  10.441  0.4405 -0.9137  1.2396
  742MOL0     C   65   5.932   5.424  10.363  1.1591  0.4516 -0.3013
  742MOL0     O   66   6.037   5.476  10.438  0.4728  0.0762  1.1261
  742MOL0     C   67   6.146   5.496  10.362  0.9570 -0.5643 -0.7202
  742MOL0     C   68   6.165   5.614  10.293  0.2573 -0.2510 -0.2016
  742MOL0     C   69   6.278   5.639  10.219  0.1246 -0.1953  0.2893
  742MOL0     C   70   6.385   5.549  10.200 -0.5751  1.0625 -0.2977
  742MOL0     O   71   6.493   5.564  10.121 -0.1709 -0.8280  0.4735
  742MOL0     C   72   6.531   5.697  10.076  0.1375  0.4944  0.6918
  742MOL0     C   73   6.647   5.689   9.978 -0.2584 -0.0865  0.0845
  742MOL0     C   74   6.705   5.825   9.935  0.5644 -0.0686  0.0515
  742MOL0     C   75   6.729   5.935  10.045  0.2822  0.8343  0.2670
  742MOL0     C   76   6.819   5.903  10.158 -1.0111  0.1547 -0.5736
  742MOL0     C   77   6.870   5.998  10.262  0.8809  0.6216 -0.5640
  742MOL0     C   78   6.747   6.056  10.332 -0.6701  0.0508 -0.2119
  742MOL0     C   79   6.791   6.148  10.450 -0.5536  1.0351 -0.3070
  742MOL0    Cl   80   6.832   6.036  10.580 -0.0909 -0.0714  0.3073
  742MOL0     C   81   6.364   5.431  10.276 -0.5657 -1.1090 -0.0168
  742MOL0     C   82   6.259   5.403  10.362  0.2373  0.6507 -0.6484
  742MOL0     O   83   5.928   5.405  10.243 -0.4706  0.0159  0.1046
  742MOL0     C   84   5.825   5.334  10.564 -0.1213  0.5415  0.9073
  742MOL0     C   85   5.707   5.319  10.652 -0.2211 -0.6109 -1.8359
  742MOL0     N   86   4.821   5.324  10.817  0.3959 -0.6290 -0.0092
  742MOL0     N   87   4.748   5.412  10.760  0.6614  0.6705 -0.6652
  742MOL0     C   88   4.352   6.338  11.139 -0.1321  0.2233  0.1960
  742MOL0     C   89   4.243   6.423  11.158  0.6259  0.0054 -0.6097
  742MOL0     C   90   3.932   6.730  11.004  0.7529 -0.2873  1.0875
  742MOL0     C   91   3.928   6.830  10.903  0.0208  0.3242 -0.3255
  742MOL0     C   92   3.812   6.881  10.851  0.2471  1.0028  0.7673
  742MOL0     C   93   3.699   6.833  10.907 -0.5190 -0.4628  0.6711
  742MOL0     O   94   3.587   6.871  10.844 -0.0425 -0.4646  0.1769
  742MOL0     C   95   3.553   6.788  10.734 -1.1044 -0.2240  1.0991
  742MOL0     C   96   3.447   6.848  10.649  0.9528  0.1024 -0.3587
  742MOL0     C   97   3.317   6.858  10.728  0.2852 -0.1745 -0.1998
  742MOL0     C   98   3.207   6.940  10.671 -0.5826 -0.5594 -0.4279
  742MOL0     C   99   3.184   6.897  10.532  0.1292  0.7898  0.4668
  742MOL0     C  100   3.172   6.853  10.414  0.3236 -0.5084 -0.3301
  742MOL0     C  101   3.693   6.734  11.002  0.1257 -0.5772 -0.3774
  742MOL0     C  102   3.812   6.678  11.048  0.3195  0.1740  0.3847
  742MOL0     H  103   4.099   6.388  10.864  0.2155 -1.7114 -0.8870
  742MOL0     H  104   4.311   6.265  10.809  0.9693  1.4184 -1.1688
  742MOL0     H  105   4.658   6.274  11.032 -4.5611  2.1760 -0.7005
  742MOL0     H  106   4.592   6.188  11.177 -0.5445 -2.7780 -0.1461
  742MOL0     H  107   4.750   6.026  11.094  1.8175 -1.4070 -2.4137
  742MOL0     H  108   4.596   5.971  11.033  0.9857 -0.1155  1.9226
  742MOL0     H  109   4.657   6.097  10.810  0.1474  1.4035 -0.0048
  742MOL0     H  110   4.812   6.118  10.887  1.0740 -1.7203 -2.2658
  742MOL0     H  111   4.803   5.862  10.924 -0.3229  2.1644  0.8351
  742MOL0     H  112   4.666   5.870  10.816 -1.4663  0.7100  4.6289
  742MOL0     H  113   4.799   5.968  10.644 -2.3913 -2.1126  0.1413
  742MOL0     H  114   4.953   5.965  10.746  2.9317 -2.2416 -2.3752
  742MOL0     H  115   4.954   5.798  10.566  1.9411 -1.4523 -0.3199
  742MOL0     H  116   4.960   5.724  10.733 -0.1780  2.5420  2.2624
  742MOL0     H  117   4.712   5.688  10.694  1.0857 -1.6082  0.7180
  742MOL0     H  118   4.717   5.759  10.538  0.0311  0.6597  1.6367
  742MOL0     H  119   4.864   5.564  10.480  1.0293 -1.0840  1.0783
  742MOL0     H  120   4.683   5.536  10.511 -0.1572 -0.3741  1.5822
  742MOL0     H  121   5.015   5.423  10.571 -1.6163  0.6610 -1.5603
  742MOL0     H  122   5.046   5.218  10.913  0.1692 -0.0649 -0.1500
  742MOL0     H  123   5.066   5.142  10.741  3.2693  1.7732 -1.1400
  742MOL0     H  124   5.206   5.384  10.855 -1.3569  0.4053 -0.5813
  742MOL0     H  125   5.218   5.338  10.689 -0.7197  0.8261 -0.2191
  742MOL0     H  126   5.316   5.102  10.789 -1.2807 -0.4852  2.4342
  742MOL0     H  127   5.314   5.179  10.941  1.6392  1.0903  0.6755
  742MOL0     H  128   5.529   5.189  10.823 -2.7056 -1.9564 -2.5632
  742MOL0     H  129   5.478   5.346  10.895  0.2633 -0.7401  1.2775
  742MOL0     H  130   5.477   5.444  10.453 -1.0643 -0.3600  2.0595
  742MOL0     H  131   5.751   5.562  10.261 -0.8446  0.9827 -2.2793
  742MOL0     H  132   5.654   5.434  10.185  0.9291 -1.2147 -0.3547
  742MOL0     H  133   5.576   5.572  10.276  0.8739 -0.4798  1.1521
  742MOL0     H  134   6.089   5.691  10.298 -0.0431 -0.5945  0.6348
  742MOL0     H  135   6.288   5.734  10.168  0.3348  0.1989  1.0616
  742MOL0     H  136   6.443   5.734  10.024 -0.0129 -0.1832  0.4634
  742MOL0     H  137   6.546   5.759  10.166 -0.9318  0.2603  1.0461
  742MOL0     H  138   6.730   5.638  10.028  1.1908  2.8575  0.9264
  742MOL0     H  139   6.622   5.630   9.889 -5.0012  0.4215  0.8428
  742MOL0     H  140   6.632   5.876   9.870  0.6724  1.0327  0.7740
  742MOL0     H  141   6.801   5.806   9.887 -0.0421 -1.1185 -0.8031
  742MOL0     H  142   6.781   6.019   9.998  0.7807 -1.2161 -3.1996
  742MOL0     H  143   6.630   5.968  10.078  0.4939  3.2268 -1.2148
  742MOL0     H  144   6.910   5.861  10.113 -0.5888 -0.5841  0.9191
  742MOL0     H  145   6.777   5.817  10.211  1.6824 -1.8376 -1.4290
  742MOL0     H  146   6.927   5.944  10.338 -3.4185 -0.9578  1.8665
  742MOL0     H  147   6.931   6.075  10.213 -0.6284  1.7357 -0.7659
  742MOL0     H  148   6.690   5.977  10.382 -0.5888 -0.9024 -1.5802
  742MOL0     H  149   6.686   6.107  10.257  1.4380 -0.5959 -2.5167
  742MOL0     H  150   6.714   6.216  10.487 -0.7132  0.5257  0.3070
  742MOL0     H  151   6.871   6.212  10.413  0.0016  1.2175  1.1770
  742MOL0     H  152   6.438   5.351  10.273  2.6422  1.6665 -0.7082
  742MOL0     H  153   6.258   5.309  10.415 -1.6549 -0.4661 -2.5091
  742MOL0     H  154   5.919   5.303  10.607  0.4362  1.9883  0.7893
  742MOL0     H  155   5.721   5.286  10.754  0.3370  2.9017 -0.6705
  742MOL0     H  156   4.403   6.325  11.234 -3.6359  2.4837  2.6591
  742MOL0     H  157   4.239   6.455  11.262 -1.2202 -0.4091 -0.5346
  742MOL0     H  158   4.017   6.876  10.860  1.0759 -1.7773 -0.5031
  742MOL0     H  159   3.799   6.946  10.766 -0.6347  1.4921  1.2547
  742MOL0     H  160   3.646   6.790  10.677 -0.6332  0.3939  1.8707
  742MOL0     H  161   3.533   6.687  10.770  1.8983 -0.5873  2.0063
  742MOL0     H  162   3.442   6.776  10.568  1.7502  0.9359 -1.1643
  742MOL0     H  163   3.470   6.948  10.611 -3.4728  1.3986 -0.2929
  742MOL0     H  164   3.350   6.903  10.823  4.8026 -4.0171  0.4234
  742MOL0     H  165   3.270   6.763  10.753  1.8545  0.0978  4.9680
  742MOL0     H  166   3.246   7.043  10.671 -4.5714  1.1659  0.7874
  742MOL0     H  167   3.115   6.928  10.729  1.0459 -0.6962  2.2841
  742MOL0     H  168   3.149   6.806  10.320  1.9977  0.1253 -1.0978
  742MOL0     H  169   3.599   6.707  11.047  0.0488  1.2186  0.6029
  742MOL0     H  170   3.807   6.609  11.132 -1.7580 -0.3777 -0.1300
  743MOL0     O  171   5.372   3.240   8.717  0.3469  0.6750  0.4101
  743MOL0     C  172   5.345   3.163   8.633  0.4585  1.0850 -0.2292
  743MOL0     O  173   5.253   3.056   8.656 -0.2784 -0.6057  0.7846
  743MOL0     C  174   5.195   3.040   8.783  0.3924  0.0054 -0.0603
  743MOL0     C  175   5.275   3.035   8.901 -0.0191  0.1354 -1.1425
  743MOL0     C  176   5.212   3.023   9.026  0.3723  0.6550 -0.3683
  743MOL0     C  177   5.080   3.004   9.032 -0.1896  0.2770 -0.0921
  743MOL0     O  178   5.005   2.976   9.141  0.2067 -0.5435  0.0489
  743MOL0     C  179   5.070   2.922   9.262 -1.3185  0.0533  0.7924
  743MOL0     C  180   4.960   2.869   9.358  1.0599 -0.5399  0.2613
  743MOL0     C  181   4.882   2.973   9.444 -0.0105  1.7170  0.1055
  743MOL0     C  182   4.812   3.081   9.369  0.5278  0.3328 -0.4284
  743MOL0     C  183   4.746   3.187   9.466 -0.1688  0.9752 -0.4341
  743MOL0     C  184   4.618   3.143   9.524 -0.8897  0.9776 -0.6905
  743MOL0     C  185   4.531   3.257   9.571  1.0875 -0.4167 -0.7095
  743MOL0     C  186   4.387   3.192   9.579 -0.5269 -0.3871 -0.2026
  743MOL0     N  187   4.312   3.280   9.671  0.1495  0.0892 -0.6606
  743MOL0     C  188   4.274   3.255   9.799  0.3701  0.8685  0.4239
  743MOL0     C  189   4.199   3.360   9.841 -0.9322 -0.2110  0.4059
  743MOL0     C  190   4.157   3.379   9.991 -0.1704 -0.9055 -0.2529
  743MOL0     C  191   4.033   3.453  10.003 -0.9625 -0.4529  0.8376
  743MOL0     C  192   3.913   3.369   9.973  0.2675 -0.2024 -0.1070
  743MOL0     C  193   3.784   3.386  10.059  0.6211 -0.2371  0.6797
  743MOL0     O  194   3.819   3.397  10.197 -0.0848 -0.1110  0.2999
  743MOL0     C  195   3.762   3.487  10.281  0.6091  0.0892 -0.7785
  743MOL0     C  196   3.671   3.585  10.241  0.8521 -0.5537  0.0131
  743MOL0     C  197   3.617   3.672  10.335 -0.3113 -0.2332 -1.1493
  743MOL0     C  198   3.514   3.770  10.284  0.2282  0.3011  0.9886
  743MOL0     C  199   3.668   3.671  10.475  0.1048 -0.8443  0.2784
  743MOL0     C  200   3.622   3.786  10.571  1.5062  1.0308  0.5070
  743MOL0     O  201   3.714   3.832  10.657 -0.9409  0.4078  0.4987
  743MOL0     C  202   3.720   3.971  10.672 -0.1813  0.6294 -0.3343
  743MOL0     C  203   3.695   4.016  10.803  0.5392  0.1365 -0.6607
  743MOL0     C  204   3.699   4.153  10.832 -0.1399 -0.3796  0.0418
  743MOL0     C  205   3.727   4.244  10.727  0.1026 -0.9014  0.2131
  743MOL0     O  206   3.743   4.381  10.745  0.3618  0.5127 -0.1952
  743MOL0     C  207   3.818   4.407  10.868 -0.1009  0.2921  0.3561
  743MOL0     C  208   3.856   4.561  10.868 -0.5661  0.5534 -0.0336
  743MOL0     C  209   3.941   4.572  10.741 -0.3320  0.0228  0.5382
  743MOL0     C  210   4.000   4.712  10.718  0.0665 -0.3519 -0.0066
  743MOL0     C  211   4.057   4.735  10.582  0.0817  0.0660  0.0939
  743MOL0     C  212   4.103   4.884  10.576  0.3281  0.2861 -0.3707
  743MOL0     C  213   4.077   4.928  10.431 -0.6670 -0.2971 -0.1914
  743MOL0     C  214   4.087   5.081  10.405  0.9684 -0.4484 -0.7571
  743MOL0    Cl  215   4.031   5.181  10.542 -0.1142 -0.2198 -0.3236
  743MOL0     C  216   3.749   4.201  10.592  0.0061 -0.0178  0.7006
  743MOL0     C  217   3.746   4.062  10.573 -0.8942  0.3711 -0.8848
  743MOL0     O  218   3.504   3.824  10.574  0.1125  0.6229 -0.7094
  743MOL0     C  219   3.749   3.566  10.508 -0.6539 -0.5316  0.7317
  743MOL0     C  220   3.797   3.475  10.409  0.1501 -0.2141 -0.6259
  743MOL0     N  221   4.181   3.446   9.733 -0.1913  0.9306  0.3438
  743MOL0     N  222   4.244   3.395   9.636  0.2989 -0.4702  0.0193
  743MOL0     C  223   5.003   3.004   8.919 -0.6730 -0.3351 -0.3358
  743MOL0     C  224   5.055   3.029   8.797  0.1432  0.2567  1.0114
  743MOL0     C  225   5.418   3.177   8.516  0.6118 -0.8351  1.2077
  743MOL0     C  226   5.488   3.299   8.490  0.9569 -0.7660  0.1205
  743MOL0     C  227   5.578   3.302   8.377 -0.3209 -0.5458  0.0027
  743MOL0     C  228   5.592   3.196   8.281  0.4517  1.1490 -0.0407
  743MOL0     O  229   5.678   3.195   8.174 -0.4865 -0.2195  0.1238
  743MOL0     C  230   5.763   3.304   8.154  0.1255 -0.0168 -0.0507
  743MOL0     C  231   5.887   3.302   8.251  0.1874 -0.5961  0.4833
  743MOL0     C  232   5.978   3.180   8.228 -0.3897  0.0894 -0.1115
  743MOL0     C  233   6.110   3.196   8.306  0.1006 -0.7333 -0.2229
  743MOL0     C  234   6.212   3.272   8.230 -0.0713  0.2815  0.1774
  743MOL0     C  235   6.302   3.328   8.168  0.0764 -0.4262  0.8814
  743MOL0     C  236   5.513   3.083   8.307 -0.0210  0.4112 -0.3682
  743MOL0     C  237   5.435   3.073   8.419 -0.3452  1.3151  0.2672
  743MOL0     H  238   5.379   3.064   8.909  0.1495 -0.9503  1.7015
  743MOL0     H  239   5.257   3.022   9.125 -2.4477  0.7292  1.0249
  743MOL0     H  240   5.141   2.844   9.235  0.1965  2.2760 -2.2268
  743MOL0     H  241   5.127   3.004   9.307  1.7217 -1.1328 -0.6228
  743MOL0     H  242   4.892   2.808   9.298 -0.3409  1.5602 -0.3723
  743MOL0     H  243   5.019   2.809   9.428  2.1730 -0.3727 -0.5185
  743MOL0     H  244   4.821   2.924   9.521  0.0745 -0.6804 -1.2496
  743MOL0     H  245   4.964   3.025   9.496  0.9341  0.2398  0.1595
  743MOL0     H  246   4.891   3.135   9.316  3.4877 -1.4515  1.8627
  743MOL0     H  247   4.735   3.049   9.298  0.0632 -2.2041  1.1147
  743MOL0     H  248   4.816   3.204   9.548  2.2367 -0.1516 -2.1405
  743MOL0     H  249   4.728   3.278   9.408 -2.6087  2.7901  2.8538
  743MOL0     H  250   4.551   3.088   9.459 -2.7236  1.3060  0.8367
  743MOL0     H  251   4.649   3.080   9.608 -1.0115  0.5543 -0.9592
  743MOL0     H  252   4.565   3.312   9.659  0.3411  3.6976 -2.7673
  743MOL0     H  253   4.532   3.328   9.488  3.8786  1.2714  0.6079
  743MOL0     H  254   4.398   3.089   9.613  0.4680 -1.1036 -2.5110
  743MOL0     H  255   4.329   3.183   9.487 -0.0097 -0.0945 -0.5654
  743MOL0     H  256   4.311   3.182   9.870  3.7007  1.1431 -0.8321
  743MOL0     H  257   4.145   3.280  10.035  0.0961 -1.4707 -1.4128
  743MOL0     H  258   4.239   3.440  10.029 -0.5819 -0.2266 -0.4435
  743MOL0     H  259   4.034   3.536   9.932  1.8278  0.5133  1.8721
  743MOL0     H  260   4.033   3.479  10.109 -1.4986  0.4391  0.6239
  743MOL0     H  261   3.934   3.263   9.990 -1.1598 -0.1562  2.4178
  743MOL0     H  262   3.887   3.373   9.866 -3.0720 -1.3665  0.5310
  743MOL0     H  263   3.711   3.304  10.056  0.7984 -0.4728  2.0311
  743MOL0     H  264   3.740   3.475  10.014 -1.0435 -0.0676  2.5198
  743MOL0     H  265   3.656   3.597  10.135  0.9050 -1.8014 -0.1600
  743MOL0     H  266   3.414   3.742  10.317 -0.6995  2.0710 -0.1578
  743MOL0     H  267   3.535   3.873  10.312 -1.6862  1.1989 -0.6547
  743MOL0     H  268   3.511   3.772  10.174 -0.7145 -0.2698  0.9925
  743MOL0     H  269   3.663   3.949  10.882  0.1621  0.9897 -0.0691
  743MOL0     H  270   3.695   4.192  10.933 -0.3768  1.1733 -0.5380
  743MOL0     H  271   3.757   4.382  10.955  0.8835 -0.7123  0.7798
  743MOL0     H  272   3.910   4.348  10.872  0.4239  1.0230 -0.6911
  743MOL0     H  273   3.760   4.614  10.870 -2.3429 -2.3009 -2.2962
  743MOL0     H  274   3.923   4.582  10.951  1.8342 -3.0707 -0.8149
  743MOL0     H  275   3.881   4.550  10.652 -0.4223  4.1600 -0.6398
  743MOL0     H  276   4.017   4.496  10.763 -1.0126 -0.2011  2.2909
  743MOL0     H  277   3.916   4.782  10.715 -2.0107 -2.7608 -1.2245
  743MOL0     H  278   4.064   4.741  10.802 -0.9501 -1.0054  1.0146
  743MOL0     H  279   3.997   4.699  10.498  3.7809 -3.0003 -1.5723
  743MOL0     H  280   4.144   4.668  10.584 -0.8991 -1.2365  1.5861
  743MOL0     H  281   4.050   4.943  10.651 -1.0949 -1.7995  0.3548
  743MOL0     H  282   4.210   4.891  10.598  0.2273 -2.5527  1.4683
  743MOL0     H  283   3.974   4.905  10.405 -0.9488 -1.2502  1.6033
  743MOL0     H  284   4.146   4.883  10.359 -0.9695  1.6697 -1.8002
  743MOL0     H  285   4.014   5.102  10.326  0.0376 -3.2481 -0.7588
  743MOL0     H  286   4.188   5.107  10.373  0.0885  0.8958 -2.7029
  743MOL0     H  287   3.772   4.261  10.504 -1.2715 -3.2194 -2.0176
  743MOL0     H  288   3.768   4.030  10.472 -1.1123 -0.8731 -0.5649
  743MOL0     H  289   3.781   3.561  10.612  0.0619 -2.0262  0.4680
  743MOL0     H  290   3.866   3.400  10.447  1.0622  0.8945 -0.0656
  743MOL0     H  291   4.899   2.997   8.946 -0.6022 -1.6550 -0.3686
  743MOL0     H  292   4.989   3.041   8.712 -0.3220 -2.3986  0.9282
  743MOL0     H  293   5.491   3.391   8.547  1.3909  0.3112 -1.5821
  743MOL0     H  294   5.611   3.402   8.355 -2.5911 -0.0377 -1.4632
  743MOL0     H  295   5.796   3.302   8.049  1.4399  1.1483  0.3210
  743MOL0     H  296   5.704   3.395   8.165 -1.1756 -0.6911 -1.0597
  743MOL0     H  297   5.843   3.286   8.350  2.3847 -1.7684  1.3456
  743MOL0     H  298   5.943   3.396   8.240 -2.0532  0.6837 -0.6054
  743MOL0     H  299   5.992   3.172   8.120  3.6880  0.0641  0.2884
  743MOL0     H  300   5.921   3.101   8.278 -1.9237  0.4901 -1.1424
  743MOL0     H  301   6.148   3.101   8.345  1.6553 -0.0943 -0.0926
  743MOL0     H  302   6.085   3.253   8.396 -2.4747 -2.0984  0.0087
  743MOL0     H  303   6.371   3.376   8.101  0.0691 -0.6458  0.7160
  743MOL0     H  304   5.530   3.000   8.240  1.6738  1.0502 -0.7827
  743MOL0     H  305   5.367   2.989   8.431 -0.9697  1.7190 -0.3462
  744MOL0     O  306   5.731   5.077  10.957 -0.1389 -0.5787 -0.1401
  744MOL0     C  307   5.668   4.972  10.949 -0.4473 -1.0754 -0.1179
  744MOL0     O  308   5.658   4.895  10.836 -0.0694 -0.4648 -0.3913
  744MOL0     C  309   5.731   4.918  10.721 -0.6233 -0.7113  0.3017
  744MOL0     C  310   5.665   4.943  10.598 -0.4165 -0.1629 -0.2240
  744MOL0     C  311   5.739   4.977  10.484  0.3831 -0.5745 -0.2836
  744MOL0     C  312   5.872   5.007  10.498 -0.2006 -0.9331 -0.0802
  744MOL0     O  313   5.956   5.052  10.395 -0.4244 -0.1638 -1.3031
  744MOL0     C  314   5.927   5.058  10.263  0.5844 -0.2528  0.3976
  744MOL0     C  315   6.063   5.074  10.180 -0.3586  0.7886 -0.9125
  744MOL0     C  316   6.164   4.957  10.193  0.0020  0.1870 -1.1107
  744MOL0     C  317   6.300   4.989  10.124  0.4400 -0.2723  0.3529
  744MOL0     C  318   6.393   4.868  10.115  0.4344  0.3535 -1.4140
  744MOL0     C  319   6.373   4.782   9.982  1.2751  0.9194 -0.1890
  744MOL0     C  320   6.437   4.647   9.982  0.3954  0.2232 -0.2744
  744MOL0     C  321   6.586   4.653   9.948 -0.5372  0.2686 -0.4605
  744MOL0     N  322   6.656   4.540  10.013 -0.3286 -0.4344  0.2698
  744MOL0     C  323   6.712   4.542  10.138 -0.2817 -0.4050 -0.2734
  744MOL0     C  324   6.772   4.422  10.160 -0.3873  0.4998 -0.5077
  744MOL0     C  325   6.840   4.369  10.288 -0.3054 -0.3048  0.1800
  744MOL0     C  326   6.760   4.410  10.409 -1.2586 -0.2806 -0.7626
  744MOL0     C  327   6.632   4.324  10.413 -0.2740  0.4537 -0.1341
  744MOL0     C  328   6.551   4.334  10.547 -0.4799  0.1248 -0.9893
  744MOL0     O  329   6.484   4.461  10.539 -0.2462 -0.3479  0.2882
  744MOL0     C  330   6.398   4.482  10.639  0.3107  0.1841 -1.0323
  744MOL0     C  331   6.352   4.612  10.632  0.0276 -0.8341  0.0385
  744MOL0     C  332   6.266   4.676  10.728 -0.4349  1.0738 -0.6113
  744MOL0     C  333   6.214   4.820  10.728 -0.5703 -0.2491 -0.3992
  744MOL0     C  334   6.240   4.595  10.846  0.2941 -0.3082  0.0319
  744MOL0     C  335   6.141   4.630  10.961  0.3275  0.2122 -0.0006
  744MOL0     O  336   6.160   4.550  11.069  0.7418  0.6301  0.1137
  744MOL0     C  337   6.057   4.521  11.160 -0.7912  0.7583  1.0941
  744MOL0     C  338   6.098   4.461  11.276  0.4074 -1.5557 -0.2607
  744MOL0     C  339   6.006   4.423  11.377  0.6079 -0.3697 -0.9297
  744MOL0     C  340   5.868   4.428  11.352 -0.2437  0.4359  0.1868
  744MOL0     O  341   5.789   4.370  11.445  0.0302 -0.4537  0.8026
  744MOL0     C  342   5.673   4.292  11.414 -0.1991  0.8032  0.2076
  744MOL0     C  343   5.559   4.290  11.507  0.3209  0.6835  0.8270
  744MOL0     C  344   5.596   4.217  11.641 -0.2385 -0.2934  0.9780
  744MOL0     C  345   5.465   4.179  11.714 -1.0592 -1.3950 -0.1615
  744MOL0     C  346   5.374   4.298  11.754 -0.1257  0.6667 -0.0135
  744MOL0     C  347   5.247   4.229  11.799  0.7512  0.8401 -0.0307
  744MOL0     C  348   5.137   4.332  11.811  0.4676  1.2370  0.4320
  744MOL0     C  349   5.013   4.271  11.860 -0.4080  1.6217  0.0748
  744MOL0    Cl  350   4.876   4.392  11.867 -0.5548 -0.1514  0.5567
  744MOL0     C  351   5.822   4.474  11.226  0.0070 -1.1124  0.9414
  744MOL0     C  352   5.917   4.527  11.137  0.0351 -0.1234 -1.0245
  744MOL0     O  353   6.046   4.708  10.941  0.2336  0.0263  0.0245
  744MOL0     C  354   6.293   4.463  10.856  0.6143  0.3600 -0.3050
  744MOL0     C  355   6.368   4.408  10.752 -0.4131  0.3572  0.9450
  744MOL0     N  356   6.746   4.349  10.050 -1.4739 -0.8265  0.1560
  744MOL0     N  357   6.690   4.421   9.959 -0.7376  0.6124  0.0893
  744MOL0     C  358   5.938   4.982  10.625 -0.0504 -0.0946 -0.2578
  744MOL0     C  359   5.864   4.938  10.731 -0.2729 -0.3353  1.0113
  744MOL0     C  360   5.613   4.922  11.073 -0.2270  0.7886 -0.8196
  744MOL0     C  361   5.632   4.784  11.104 -1.3299  0.5520  0.3510
  744MOL0     C  362   5.571   4.729  11.215 -0.0664  0.4591  0.1391
  744MOL0     C  363   5.491   4.807  11.295 -0.3045  1.1245 -0.4683
  744MOL0     O  364   5.457   4.737  11.408  0.4121 -0.1498 -0.0368
  744MOL0     C  365   5.356   4.786  11.496 -0.0040  0.5626  0.3838
  744MOL0     C  366   5.329   4.688  11.607  0.4907  0.2710 -0.0262
  744MOL0     C  367   5.223   4.735  11.718 -0.2468 -0.4307  0.1034
  744MOL0     C  368   5.204   4.888  11.753 -0.3777  0.4490  0.3213
  744MOL0     C  369   5.324   4.947  11.802  0.2404  0.8137 -1.3034
  744MOL0     C  370   5.422   5.003  11.847 -0.3729  0.1085 -0.0877
  744MOL0     C  371   5.455   4.937  11.258  0.5431 -0.0619 -0.1296
  744MOL0     C  372   5.521   4.996  11.149 -0.7636  0.3333 -0.3465
  744MOL0     H  373   5.558   4.933  10.583 -0.6164  2.6304 -1.1920
  744MOL0     H  374   5.677   4.997  10.397  1.4905  1.1025 -0.7381
  744MOL0     H  375   5.880   4.962  10.239  1.2582 -0.9040  1.5638
  744MOL0     H  376   5.863   5.144  10.240  1.2769  0.4858  1.1576
  744MOL0     H  377   6.030   5.094  10.078  1.0465  0.2383 -1.4964
  744MOL0     H  378   6.114   5.166  10.206 -0.4671  1.2320 -2.2027
  744MOL0     H  379   6.188   4.933  10.297  3.0251  1.3426 -1.4433
  744MOL0     H  380   6.128   4.862  10.153 -0.7227 -1.5151  3.0189
  744MOL0     H  381   6.283   5.024  10.022 -2.4476 -3.1799 -0.3279
  744MOL0     H  382   6.354   5.066  10.181  1.0913 -0.3912 -0.0934
  744MOL0     H  383   6.492   4.915  10.111 -0.0857  1.6044 -0.5190
  744MOL0     H  384   6.384   4.812  10.209 -1.5982  1.6688 -0.7549
  744MOL0     H  385   6.266   4.763   9.968  1.2856 -1.0278  1.7902
  744MOL0     H  386   6.418   4.842   9.902  3.7132 -0.6392 -0.1057
  744MOL0     H  387   6.421   4.594  10.076  0.5417 -1.0498 -0.9457
  744MOL0     H  388   6.388   4.584   9.906 -1.1928 -1.1673  1.7715
  744MOL0     H  389   6.629   4.745   9.987 -0.6551 -0.4391  1.4278
  744MOL0     H  390   6.602   4.648   9.840 -1.9542  0.3235 -0.6884
  744MOL0     H  391   6.718   4.626  10.206 -1.7558 -1.2813  0.9823
  744MOL0     H  392   6.850   4.261  10.272 -0.4161 -0.2532 -0.2448
  744MOL0     H  393   6.941   4.410  10.287 -0.6103  0.4667 -1.4808
  744MOL0     H  394   6.749   4.516  10.430  2.0000  0.0109  0.0206
  744MOL0     H  395   6.826   4.371  10.487  1.5476  2.9604 -1.2815
  744MOL0     H  396   6.661   4.219  10.398  1.2861  0.9971 -1.2434
  744MOL0     H  397   6.560   4.352  10.336 -1.0366  1.6790  0.9933
  744MOL0     H  398   6.607   4.351  10.639 -1.7811 -0.1429 -0.1127
  744MOL0     H  399   6.474   4.257  10.560 -0.7604  0.7084  1.3933
  744MOL0     H  400   6.379   4.667  10.542 -5.2138  0.7591 -0.9002
  744MOL0     H  401   6.107   4.833  10.744 -0.5540 -1.4393  0.8100
  744MOL0     H  402   6.271   4.879  10.801 -0.3100  1.6691 -2.0532
  744MOL0     H  403   6.242   4.876  10.638 -0.2301 -1.4813 -1.0713
  744MOL0     H  404   6.206   4.451  11.286  0.4703 -0.6102  0.0702
  744MOL0     H  405   6.043   4.384  11.472 -1.4132 -3.2409 -1.1723
  744MOL0     H  406   5.642   4.308  11.310 -1.5091 -0.7817  0.3247
  744MOL0     H  407   5.712   4.190  11.420  1.4569  1.3319 -0.7586
  744MOL0     H  408   5.516   4.388  11.532 -1.0899  0.9701 -2.2621
  744MOL0     H  409   5.477   4.233  11.462 -1.0347  2.4592  0.8992
  744MOL0     H  410   5.670   4.279  11.692  0.0717  1.6562 -1.6493
  744MOL0     H  411   5.654   4.129  11.612  0.4701 -0.4111  2.6335
  744MOL0     H  412   5.400   4.118  11.651  0.8186 -0.1935 -3.4818
  744MOL0     H  413   5.499   4.129  11.805  1.8573  2.1261  0.9392
  744MOL0     H  414   5.337   4.364  11.675  0.1894  0.4600 -0.3357
  744MOL0     H  415   5.421   4.360  11.831 -3.3571  1.4948  1.4728
  744MOL0     H  416   5.209   4.157  11.726  2.6052 -1.7459  1.3803
  744MOL0     H  417   5.262   4.176  11.893  1.7976  1.9361  0.4503
  744MOL0     H  418   5.122   4.376  11.712  3.2268 -1.0031 -1.1522
  744MOL0     H  419   5.167   4.419  11.870  3.3339  1.8879 -1.7436
  744MOL0     H  420   5.039   4.234  11.960 -1.9834  1.1072  0.3240
  744MOL0     H  421   4.989   4.176  11.812  0.6714  1.5009 -0.2477
  744MOL0     H  422   5.718   4.470  11.196 -0.8328  1.7006  3.0311
  744MOL0     H  423   5.865   4.581  11.059 -1.6322 -0.1508  0.0186
  744MOL0     H  424   6.266   4.394  10.935 -0.8344  1.7486  0.4855
  744MOL0     H  425   6.417   4.312  10.761  2.3132  1.4760 -0.6078
  744MOL0     H  426   6.045   4.999  10.634 -0.0716 -0.8666  1.8779
  744MOL0     H  427   5.915   4.929  10.827  0.9373 -2.2076  0.2562
  744MOL0     H  428   5.683   4.722  11.032 -1.6088  0.8145 -0.0798
  744MOL0     H  429   5.585   4.622  11.229 -2.7064 -0.0547 -0.7547
  744MOL0     H  430   5.390   4.885  11.525  0.2991  0.7138 -0.4448
  744MOL0     H  431   5.262   4.791  11.440 -1.1999  0.4330  2.3016
  744MOL0     H  432   5.426   4.681  11.657 -0.1099  2.0366  1.5322
  744MOL0     H  433   5.289   4.599  11.558  2.1292  0.1322 -1.1825
  744MOL0     H  434   5.240   4.678  11.810  6.2005 -1.4150 -1.2418
  744MOL0     H  435   5.128   4.705  11.673  0.5786 -1.6340 -0.8923
  744MOL0     H  436   5.116   4.908  11.814  0.4707  0.7023  1.4857
  744MOL0     H  437   5.182   4.931  11.654 -0.8315  1.0440  0.6734
  744MOL0     H  438   5.501   5.051  11.902  0.0615 -0.3723 -0.2793
  744MOL0     H  439   5.390   5.002  11.317  2.0799  1.9760 -0.5798
  744MOL0     H  440   5.503   5.098  11.119  1.6081  1.3354  1.3014
  745MOL0     O  441   1.587   2.105   6.219  0.6477  0.0622  0.0270
  745MOL0     C  442   1.656   2.117   6.117 -0.2463 -0.4848 -0.3216
  745MOL0     O  443   1.601   2.149   5.997  0.1120  0.0858 -1.1421
  745MOL0     C  444   1.469   2.176   5.986  0.7412  0.3965  0.2333
  745MOL0     C  445   1.384   2.102   5.893 -0.7551  0.1300 -1.7265
  745MOL0     C  446   1.253   2.151   5.873 -0.1021 -0.2869  0.0964
  745MOL0     C  447   1.209   2.266   5.937  0.6347  0.4616 -0.2075
  745MOL0     O  448   1.081   2.295   5.894  0.6659  0.3893 -0.0105
  745MOL0     C  449   0.991   2.362   5.982  0.0149 -0.4109 -0.0436
  745MOL0     C  450   0.860   2.408   5.915  0.6252 -0.1560 -0.1441
  745MOL0     C  451   0.816   2.548   5.973 -0.0676  0.3549 -1.0928
  745MOL0     C  452   0.700   2.613   5.897  0.6812  0.7184 -0.2815
  745MOL0     C  453   0.698   2.765   5.944  0.3959  0.4157 -0.0353
  745MOL0     C  454   0.580   2.855   5.896  0.5318 -0.2733 -0.2524
  745MOL0     C  455   0.474   2.880   6.004 -0.4679  0.4661 -0.2312
  745MOL0     C  456   0.372   2.987   5.967  0.5189  1.1101 -0.6113
  745MOL0     N  457   0.271   3.003   6.078 -0.1112  0.6175 -0.8461
  745MOL0     C  458   0.138   2.960   6.076 -0.1778  0.5645  0.5139
  745MOL0     C  459   0.108   3.008   6.199  0.4198 -0.2450  0.1344
  745MOL0     C  460  -0.020   2.992   6.265  0.3572  0.4174 -1.1564
  745MOL0     C  461  -0.133   3.039   6.167  0.2553 -0.1497 -0.6814
  745MOL0     C  462  -0.272   3.067   6.243  0.0424 -0.6516  0.6675
  745MOL0     C  463  -0.385   3.082   6.139  1.3052  0.3689 -0.8043
  745MOL0     O  464  -0.406   2.960   6.070 -0.1982  0.2873  0.4440
  745MOL0     C  465  -0.519   2.899   6.088 -0.6570  0.3772  0.4133
  745MOL0     C  466  -0.636   2.964   6.058  0.0700 -0.2004 -0.0855
  745MOL0     C  467  -0.760   2.904   6.086  0.3942 -0.1114 -0.9021
  745MOL0     C  468  -0.886   2.976   6.047 -0.4955  0.5344 -0.0630
  745MOL0     C  469  -0.764   2.768   6.144 -0.0776 -0.5675 -0.5773
  745MOL0     C  470  -0.883   2.693   6.180 -0.3309 -0.0130 -0.3873
  745MOL0     O  471  -0.858   2.568   6.223  0.1232 -0.1005 -0.7858
  745MOL0     C  472  -0.962   2.502   6.294 -0.1075 -0.6239 -0.1035
  745MOL0     C  473  -1.096   2.491   6.244  0.7398  0.4960  0.4874
  745MOL0     C  474  -1.191   2.411   6.314  0.0337 -0.6640 -0.7519
  745MOL0     C  475  -1.162   2.347   6.433  0.4387 -0.6952 -0.0558
  745MOL0     O  476  -1.269   2.291   6.500  0.2950  0.0831 -0.1231
  745MOL0     C  477  -1.264   2.225   6.630  0.2613  0.0593 -0.3848
  745MOL0     C  478  -1.183   2.097   6.633  0.3828 -0.2430 -0.0652
  745MOL0     C  479  -1.263   1.964   6.623  0.2541  0.4878 -0.1960
  745MOL0     C  480  -1.336   1.919   6.755 -0.5932  0.3422 -0.2747
  745MOL0     C  481  -1.432   1.803   6.727  0.4598 -0.1735  0.2303
  745MOL0     C  482  -1.535   1.785   6.840  0.3201  0.3203 -0.3642
  745MOL0     C  483  -1.624   1.667   6.813 -0.2632  0.0861  0.0058
  745MOL0     C  484  -1.701   1.625   6.939 -0.1280  0.2993 -1.0572
  745MOL0    Cl  485  -1.612   1.506   7.045 -0.1035  0.0793  0.1777
  745MOL0     C  486  -1.035   2.364   6.489 -0.7910  0.4640 -0.2405
  745MOL0     C  487  -0.935   2.439   6.418  0.8157 -0.7075 -0.1340
  745MOL0     O  488  -0.991   2.747   6.180 -0.2522  0.0818 -0.4343
  745MOL0     C  489  -0.643   2.705   6.163 -0.5605 -0.0239  0.4738
  745MOL0     C  490  -0.533   2.770   6.131 -0.2199  0.0072 -0.5643
  745MOL0     N  491   0.215   3.062   6.270 -0.5259  0.2917 -0.1865
  745MOL0     N  492   0.314   3.063   6.193  0.0462 -0.4083  1.3529
  745MOL0     C  493   1.288   2.337   6.020  0.4456 -0.1441  0.0659
  745MOL0     C  494   1.416   2.298   6.046 -0.2262  0.4400  0.1206
  745MOL0     C  495   1.801   2.115   6.129  0.2871  0.3826  0.1013
  745MOL0     C  496   1.868   2.102   6.249 -0.3686  0.4556 -0.8987
  745MOL0     C  497   2.006   2.089   6.264 -0.8022 -0.3231 -0.0426
  745MOL0     C  498   2.098   2.095   6.159  0.3737  0.1720  1.1660
  745MOL0     O  499   2.234   2.066   6.163  0.9682  0.1046  0.1919
  745MOL0     C  500   2.291   2.052   6.300 -0.1857  0.9565  0.6258
  745MOL0     C  501   2.319   2.186   6.364 -0.5169 -0.3787 -0.0971
  745MOL0     C  502   2.448   2.254   6.297  0.5139  0.0470 -0.6742
  745MOL0     C  503   2.465   2.403   6.339 -0.4983  0.5772 -0.2872
  745MOL0     C  504   2.551   2.460   6.232  0.6317 -0.3222 -0.4659
  745MOL0     C  505   2.618   2.508   6.146  1.4776  0.9473  0.0112
  745MOL0     C  506   2.027   2.116   6.036 -0.1387 -0.0748 -0.3119
  745MOL0     C  507   1.888   2.118   6.016 -1.4100 -0.3218  0.1382
  745MOL0     H  508   1.403   2.000   5.861 -1.4702 -1.8085  3.1199
  745MOL0     H  509   1.184   2.095   5.810  3.7968 -3.6258 -1.7050
  745MOL0     H  510   0.960   2.296   6.063  1.8795 -0.8350  0.3691
  745MOL0     H  511   1.032   2.460   6.009  0.4760  0.3046 -3.0137
  745MOL0     H  512   0.876   2.417   5.807  2.3937 -1.7784 -0.0677
  745MOL0     H  513   0.776   2.341   5.932  1.8006 -2.1153 -1.6454
  745MOL0     H  514   0.808   2.555   6.082  1.1148  2.1438 -1.0748
  745MOL0     H  515   0.897   2.618   5.953 -0.9968  2.1758  1.0875
  745MOL0     H  516   0.709   2.604   5.788 -4.3623  5.4570 -1.5381
  745MOL0     H  517   0.606   2.561   5.920  1.9735 -1.0425  1.3567
  745MOL0     H  518   0.686   2.764   6.053 -3.1575  0.9874 -0.2892
  745MOL0     H  519   0.794   2.812   5.921  3.1228 -3.7997  1.4852
  745MOL0     H  520   0.636   2.943   5.861  1.9298 -0.8597  0.4213
  745MOL0     H  521   0.525   2.816   5.809  0.4510 -1.5777  0.3533
  745MOL0     H  522   0.435   2.780   6.027  2.7059 -1.1369 -1.1943
  745MOL0     H  523   0.509   2.923   6.099  1.4189 -0.0935 -0.6298
  745MOL0     H  524   0.324   2.965   5.872 -1.4704 -1.1935  0.7876
  745MOL0     H  525   0.423   3.082   5.948  0.5510  0.4429 -4.5479
  745MOL0     H  526   0.081   2.900   6.006  0.7011  0.2324  0.0766
  745MOL0     H  527  -0.039   2.887   6.287  0.2064  0.1648 -2.4596
  745MOL0     H  528  -0.032   3.063   6.348 -1.5046  1.8729 -2.6017
  745MOL0     H  529  -0.148   2.972   6.082 -0.1857 -1.8770  0.7056
  745MOL0     H  530  -0.111   3.139   6.128  1.5154  0.0946  0.5791
  745MOL0     H  531  -0.265   3.160   6.299 -3.0953  0.3258 -0.3943
  745MOL0     H  532  -0.294   2.985   6.312  0.4971 -1.7881 -0.4761
  745MOL0     H  533  -0.363   3.151   6.057 -3.5868  1.1967 -1.7314
  745MOL0     H  534  -0.483   3.110   6.178 -0.1256 -0.9932 -3.1815
  745MOL0     H  535  -0.622   3.059   6.008  1.6266  1.0141  2.4384
  745MOL0     H  536  -0.957   2.915   5.991 -1.8483  2.2179 -0.2446
  745MOL0     H  537  -0.934   3.024   6.133 -3.0452  1.3809 -1.8728
  745MOL0     H  538  -0.864   3.054   5.974 -0.9879 -0.6876 -1.5681
  745MOL0     H  539  -1.127   2.542   6.154  0.2249 -2.4865 -1.1507
  745MOL0     H  540  -1.292   2.405   6.274  0.6771  1.5471 -2.9823
  745MOL0     H  541  -1.229   2.294   6.708  0.2942  0.8602 -1.0967
  745MOL0     H  542  -1.369   2.202   6.649  0.8668 -2.5469  0.2533
  745MOL0     H  543  -1.107   2.096   6.554 -0.1311  2.9315 -0.7635
  745MOL0     H  544  -1.121   2.100   6.723 -0.6070 -1.0733  0.6509
  745MOL0     H  545  -1.205   1.882   6.581  2.1237  1.6094  0.0696
  745MOL0     H  546  -1.347   1.979   6.555 -2.8210 -0.3488  3.0610
  745MOL0     H  547  -1.261   1.885   6.827 -0.4815 -1.5297 -1.2012
  745MOL0     H  548  -1.395   2.003   6.792  0.3211 -0.0248  2.1698
  745MOL0     H  549  -1.376   1.715   6.695  1.9755  1.6383 -2.4652
  745MOL0     H  550  -1.488   1.830   6.637  1.3545  0.5077 -0.1353
  745MOL0     H  551  -1.475   1.782   6.931 -1.3391 -0.7068  0.7361
  745MOL0     H  552  -1.598   1.875   6.843 -4.0616 -2.4072  4.1095
  745MOL0     H  553  -1.561   1.585   6.777  0.4112 -0.1076  1.5730
  745MOL0     H  554  -1.696   1.706   6.740 -1.0906 -1.9805 -0.3779
  745MOL0     H  555  -1.793   1.570   6.921 -0.8432 -0.1617  3.0530
  745MOL0     H  556  -1.729   1.710   7.002 -0.5248 -0.4438 -0.2160
  745MOL0     H  557  -0.997   2.302   6.569  3.2490  0.7489 -1.7000
  745MOL0     H  558  -0.836   2.458   6.457  1.3561 -2.1581 -0.7405
  745MOL0     H  559  -0.628   2.605   6.203  1.1375  0.3446  0.8236
  745MOL0     H  560  -0.442   2.712   6.146 -1.0781 -1.3802 -0.5713
  745MOL0     H  561   1.239   2.424   6.063 -3.3674 -0.6948 -2.6140
  745MOL0     H  562   1.474   2.354   6.119 -0.8965 -1.2088  1.9940
  745MOL0     H  563   1.829   2.112   6.349  0.4703 -3.0532 -0.0551
  745MOL0     H  564   2.043   2.080   6.365 -2.5131 -1.1366  0.5542
  745MOL0     H  565   2.235   1.979   6.360  0.1989  0.7628  0.7535
  745MOL0     H  566   2.386   2.003   6.277  0.0678  0.9466  1.6204
  745MOL0     H  567   2.325   2.178   6.473 -2.9424  0.8162  0.1999
  745MOL0     H  568   2.228   2.247   6.358 -0.1533  0.2368  0.5104
  745MOL0     H  569   2.415   2.255   6.193  0.5843 -1.7612 -0.7483
  745MOL0     H  570   2.538   2.192   6.301 -0.6562 -1.7921 -1.2282
  745MOL0     H  571   2.508   2.412   6.439 -0.7271  0.3003 -0.1619
  745MOL0     H  572   2.367   2.452   6.333 -0.3729  0.8302 -0.2494
  745MOL0     H  573   2.695   2.526   6.074  1.7549  1.7534  0.5008
  745MOL0     H  574   2.098   2.133   5.955 -1.3628  2.9914 -0.9122
  745MOL0     H  575   1.856   2.123   5.912 -0.3039  0.4659 -0.1827
  746MOL0     O  576   6.011  10.410  11.167  0.1892  0.7447 -0.0297
  746MOL0     C  577   6.032  10.300  11.221 -0.8972 -0.0010  0.3132
  746MOL0     O  578   6.160  10.257  11.260  0.7282 -0.1634 -0.5629
  746MOL0     C  579   6.274  10.319  11.224 -0.3386  0.4568  0.4492
  746MOL0     C  580   6.376  10.334  11.327 -0.3936 -1.5913  0.1626
  746MOL0     C  581   6.498  10.396  11.302 -0.4354  0.2664  0.6135
  746MOL0     C  582   6.520  10.425  11.167 -0.1460 -0.5095 -0.4441
  746MOL0     O  583   6.654  10.461  11.148 -0.1040  0.4586  0.1537
  746MOL0     C  584   6.672  10.602  11.123  0.2245  0.1015 -0.9177
  746MOL0     C  585   6.811  10.616  11.073 -0.1596  0.9411 -0.4865
  746MOL0     C  586   6.914  10.587  11.180  0.1667 -0.9687 -0.1076
  746MOL0     C  587   6.898  10.673  11.308 -0.1000  0.0283 -0.5174
  746MOL0     C  588   7.023  10.657  11.396  1.3620 -0.3087 -0.0301
  746MOL0     C  589   7.003  10.755  11.515 -0.3557 -0.5972 -0.3677
  746MOL0     C  590   7.109  10.754  11.622  0.4323  0.4123  0.3754
  746MOL0     C  591   7.251  10.754  11.559 -0.2986  0.5311 -0.2950
  746MOL0     N  592   7.344  10.729  11.671  0.3911 -0.2766 -0.5498
  746MOL0     C  593   7.373  10.602  11.720 -0.1960 -0.2795 -0.0993
  746MOL0     C  594   7.470  10.628  11.820  0.1436  0.4728 -0.3307
  746MOL0     C  595   7.551  10.527  11.903 -0.3432 -0.6825  1.2418
  746MOL0     C  596   7.463  10.462  12.001  0.2821 -0.5424 -0.4697
  746MOL0     C  597   7.417  10.557  12.113 -0.5566 -0.5624 -0.2683
  746MOL0     C  598   7.383  10.477  12.239 -0.1550  0.1234  0.6892
  746MOL0     O  599   7.307  10.362  12.211 -1.1901 -0.0213  0.0330
  746MOL0     C  600   7.367  10.235  12.226 -0.4534 -0.0858  1.1588
  746MOL0     C  601   7.504  10.204  12.264  0.4168 -0.5008  0.0300
  746MOL0     C  602   7.556  10.076  12.274 -0.5181 -0.3188  0.1583
  746MOL0     C  603   7.701  10.067  12.333  0.4424 -0.9130  0.2777
  746MOL0     C  604   7.480   9.963  12.229 -0.0408 -0.3784 -0.3815
  746MOL0     C  605   7.526   9.819  12.228  1.1033  0.4058  0.7384
  746MOL0     O  606   7.437   9.722  12.195  0.1178  0.1575  0.6195
  746MOL0     C  607   7.468   9.589  12.209  0.2268  0.1963  1.2357
  746MOL0     C  608   7.545   9.532  12.316 -0.1399  0.4626  0.0756
  746MOL0     C  609   7.562   9.394  12.316 -0.3768  0.4719  0.8937
  746MOL0     C  610   7.505   9.310  12.207  0.6497  0.0981  0.3960
  746MOL0     O  611   7.521   9.171  12.221  0.0438 -0.3541 -0.4428
  746MOL0     C  612   7.513   9.080  12.111  0.2728  0.2157  1.3348
  746MOL0     C  613   7.366   9.019  12.102  0.5971 -0.2218 -0.6292
  746MOL0     C  614   7.351   8.924  11.972 -0.6021 -0.0461  0.6252
  746MOL0     C  615   7.254   9.002  11.880  0.8586  0.9167  0.4547
  746MOL0     C  616   7.267   8.951  11.740 -1.2021 -0.2841 -0.4306
  746MOL0     C  617   7.151   8.959  11.636 -0.7142  0.4382 -0.0344
  746MOL0     C  618   7.017   8.901  11.685  0.6471 -0.8032  0.1235
  746MOL0     C  619   7.020   8.756  11.734  0.0146 -0.2678  0.0343
  746MOL0    Cl  620   7.073   8.650  11.598 -0.2547  0.3208 -0.2554
  746MOL0     C  621   7.440   9.366  12.096 -0.6993  0.1029  0.5675
  746MOL0     C  622   7.429   9.504  12.099 -0.2202 -0.0241  1.0660
  746MOL0     O  623   7.646   9.799  12.262 -0.0930  0.0507 -0.6434
  746MOL0     C  624   7.343   9.988  12.204 -1.1242 -0.3435  0.7301
  746MOL0     C  625   7.289  10.116  12.196  0.0428 -0.5007  0.5682
  746MOL0     N  626   7.484  10.761  11.829 -0.4031  0.3017  0.0639
  746MOL0     N  627   7.407  10.829  11.749 -0.5264  1.1908  0.0823
  746MOL0     C  628   6.421  10.432  11.063 -0.0532 -0.6174 -0.1227
  746MOL0     C  629   6.302  10.363  11.090  1.1807 -0.1262 -0.2752
  746MOL0     C  630   5.923  10.200  11.252  0.0269 -1.4646 -0.9645
  746MOL0     C  631   5.953  10.093  11.336  0.3422 -0.4967  0.0159
  746MOL0     C  632   5.848  10.006  11.365 -0.7085  0.0932 -0.0471
  746MOL0     C  633   5.718  10.031  11.323  0.1413  0.9101 -0.3902
  746MOL0     O  634   5.627   9.929  11.356  0.6752 -0.1573 -0.6383
  746MOL0     C  635   5.486   9.962  11.374 -0.0128 -0.1878 -0.9635
  746MOL0     C  636   5.418   9.841  11.444 -0.0315  0.5081 -0.6233
  746MOL0     C  637   5.275   9.883  11.485 -0.5805 -0.3404 -0.6908
  746MOL0     C  638   5.205   9.769  11.562  0.4801  1.5900 -0.2476
  746MOL0     C  639   5.079   9.817  11.632 -1.0394  0.3818  0.3722
  746MOL0     C  640   4.976   9.845  11.689 -0.3535  0.3532  0.3391
  746MOL0     C  641   5.686  10.138  11.245  0.4188 -0.8123 -0.2683
  746MOL0     C  642   5.793  10.227  11.213 -0.0950  0.5309  0.3536
  746MOL0     H  643   6.357  10.307  11.431 -1.2798 -1.3220  0.0807
  746MOL0     H  644   6.584  10.407  11.368  0.7581  1.7626 -1.0855
  746MOL0     H  645   6.599  10.638  11.051  0.5101  1.3677 -0.5919
  746MOL0     H  646   6.656  10.656  11.217  3.1685 -1.0411  0.3803
  746MOL0     H  647   6.820  10.544  10.991 -0.3393  1.4921 -1.0013
  746MOL0     H  648   6.822  10.715  11.028  1.7912  1.7540  1.5762
  746MOL0     H  649   6.917  10.483  11.212 -0.5047 -1.2220 -0.8399
  746MOL0     H  650   7.015  10.602  11.141  0.1388 -0.6228 -0.0550
  746MOL0     H  651   6.868  10.773  11.272 -1.5616 -1.0369 -2.4951
  746MOL0     H  652   6.812  10.635  11.363 -0.1003  1.4370  0.5026
  746MOL0     H  653   7.046  10.555  11.429  0.5399 -1.1912 -2.0223
  746MOL0     H  654   7.106  10.681  11.328  0.3402 -4.1555 -3.0284
  746MOL0     H  655   6.995  10.857  11.478 -0.1293 -0.9298 -1.3712
  746MOL0     H  656   6.904  10.737  11.559 -0.8363 -0.4928 -1.3674
  746MOL0     H  657   7.092  10.837  11.692 -0.2081  1.1983 -0.6755
  746MOL0     H  658   7.103  10.669  11.690  3.0687  0.3265  0.5916
  746MOL0     H  659   7.277  10.844  11.502  0.7180  1.0894  1.0149
  746MOL0     H  660   7.277  10.675  11.488  2.0541 -0.5443  1.6325
  746MOL0     H  661   7.319  10.514  11.686 -2.4709  1.5450 -1.4738
  746MOL0     H  662   7.600  10.462  11.831  3.0501  1.7940  1.1048
  746MOL0     H  663   7.638  10.569  11.954  0.6862 -1.9735  0.5789
  746MOL0     H  664   7.527  10.395  12.060  0.9137  1.3056  1.0571
  746MOL0     H  665   7.384  10.412  11.945  1.4608 -0.1959 -2.5816
  746MOL0     H  666   7.328  10.610  12.076 -2.2216 -2.7477  0.4045
  746MOL0     H  667   7.498  10.624  12.145  2.1257 -3.9195  0.5891
  746MOL0     H  668   7.328  10.541  12.308 -2.0754  3.0995 -3.2264
  746MOL0     H  669   7.477  10.454  12.289  0.0321 -4.3184 -1.1681
  746MOL0     H  670   7.569  10.283  12.301  0.8319 -1.4629  1.4513
  746MOL0     H  671   7.743  10.167  12.340 -1.2341 -0.2278  1.1550
  746MOL0     H  672   7.698  10.039  12.438  0.3093  0.5164  0.6641
  746MOL0     H  673   7.775  10.008  12.277 -0.2904 -0.9110 -0.7419
  746MOL0     H  674   7.583   9.597  12.394 -1.9560  0.4385  1.0276
  746MOL0     H  675   7.621   9.357  12.400  3.1994 -2.2097 -2.4442
  746MOL0     H  676   7.552   9.125  12.019 -1.1913 -0.8910  0.1375
  746MOL0     H  677   7.573   8.991  12.130 -0.1506  0.0151  1.7403
  746MOL0     H  678   7.343   8.973  12.198  1.6449 -1.0895 -0.7692
  746MOL0     H  679   7.293   9.099  12.088 -0.8365 -1.1354  1.2205
  746MOL0     H  680   7.307   8.830  12.005  1.9594 -0.9941  1.5254
  746MOL0     H  681   7.451   8.917  11.929 -0.1464 -0.7140  1.7455
  746MOL0     H  682   7.152   8.977  11.910  1.0650 -0.9463 -0.2638
  746MOL0     H  683   7.255   9.111  11.871  1.0190  1.0350  1.6526
  746MOL0     H  684   7.293   8.845  11.740  1.7690  0.3671  0.0690
  746MOL0     H  685   7.357   8.991  11.692 -1.6227  1.4007  0.1099
  746MOL0     H  686   7.120   9.060  11.608 -3.2866  1.4297  5.1164
  746MOL0     H  687   7.175   8.902  11.546 -1.2424  0.1303  0.0145
  746MOL0     H  688   6.942   8.910  11.605  1.6651 -0.3361 -0.8043
  746MOL0     H  689   6.976   8.967  11.762  1.0621 -0.5047  0.0958
  746MOL0     H  690   6.919   8.726  11.762  0.1813  0.3296  1.3482
  746MOL0     H  691   7.084   8.752  11.823 -0.9416 -1.3185  0.7032
  746MOL0     H  692   7.399   9.316  12.009  1.3894  2.6639 -2.1042
  746MOL0     H  693   7.381   9.559  12.019  0.1652 -2.5747 -1.0441
  746MOL0     H  694   7.273   9.908  12.184  2.2940 -4.0673  2.2630
  746MOL0     H  695   7.197  10.147  12.148 -0.5705 -1.5996  0.9904
  746MOL0     H  696   6.444  10.469  10.964 -3.4289  2.6444  0.0698
  746MOL0     H  697   6.217  10.373  11.024 -2.7594 -2.4372  3.8899
  746MOL0     H  698   6.057  10.075  11.362  1.5844  2.1587 -2.6092
  746MOL0     H  699   5.876   9.919  11.422 -0.9047  0.2984  0.3658
  746MOL0     H  700   5.481  10.046  11.444  0.3124 -1.3221  0.4689
  746MOL0     H  701   5.427   9.996  11.289  0.3470  3.2913  0.0161
  746MOL0     H  702   5.460   9.802  11.536  0.1164  2.3714  0.1372
  746MOL0     H  703   5.432   9.752  11.382 -1.8613 -0.7762  0.7153
  746MOL0     H  704   5.212   9.914  11.401  0.6732 -0.3898 -1.6787
  746MOL0     H  705   5.288   9.970  11.551  0.7240 -1.2422  0.3025
  746MOL0     H  706   5.271   9.720  11.635  0.3319  2.0221  0.1767
  746MOL0     H  707   5.182   9.679  11.503  3.6250  0.6124 -0.1837
  746MOL0     H  708   4.884   9.871  11.738  0.4736  3.8695  0.2973
  746MOL0     H  709   5.588  10.154  11.202  0.5635 -0.3984 -0.4452
  746MOL0     H  710   5.770  10.319  11.162  0.8995  0.8872  0.5456
  747MOL0     O  711   5.447   6.794   0.865 -0.0376  0.9123  0.0241
  747MOL0     C  712   5.513   6.885   0.903  1.4393 -0.1510 -0.7268
  747MOL0     O  713   5.593   6.879   1.009 -0.1633 -0.2115 -0.0520
  747MOL0     C  714   5.616   6.765   1.074 -0.3862  0.1806 -0.1093
  747MOL0     C  715   5.526   6.665   1.096  0.2287 -0.7159 -0.6751
  747MOL0     C  716   5.561   6.554   1.171 -0.1269 -0.4527  0.1899
  747MOL0     C  717   5.699   6.535   1.221  1.1612 -0.2979  0.0755
  747MOL0     O  718   5.753   6.416   1.262 -0.3029 -0.5028  0.1975
  747MOL0     C  719   5.666   6.330   1.341 -0.6335 -1.2452  1.0561
  747MOL0     C  720   5.637   6.386   1.490  0.0229 -0.7310 -0.3682
  747MOL0     C  721   5.751   6.350   1.580  0.0801  1.1296 -1.6782
  747MOL0     C  722   5.721   6.397   1.729  0.2757  0.7404 -0.2299
  747MOL0     C  723   5.777   6.295   1.836  0.0362 -0.1440  0.6042
  747MOL0     C  724   5.871   6.363   1.923 -0.9220 -0.9284 -0.4136
  747MOL0     C  725   5.939   6.275   2.025 -0.0247  0.0359 -0.2254
  747MOL0     C  726   6.027   6.343   2.135 -0.4904  0.1954  0.0039
  747MOL0     N  727   5.929   6.423   2.216  0.1528 -0.2477  1.0220
  747MOL0     C  728   5.828   6.372   2.289 -0.5072  0.2804  1.1654
  747MOL0     C  729   5.746   6.476   2.313  0.2032  0.0868  1.3467
  747MOL0     C  730   5.615   6.489   2.393  0.9965  0.8497  0.0038
  747MOL0     C  731   5.557   6.356   2.431 -0.6420  0.0682 -0.3438
  747MOL0     C  732   5.531   6.265   2.312  0.9899  0.0536 -0.1365
  747MOL0     C  733   5.436   6.142   2.334 -0.9902 -0.3851 -0.0500
  747MOL0     O  734   5.316   6.188   2.413  0.7088 -0.4408  1.2412
  747MOL0     C  735   5.298   6.112   2.528 -0.5332 -0.5414  0.7501
  747MOL0     C  736   5.318   6.164   2.654 -0.0589  0.3486 -0.2591
  747MOL0     C  737   5.303   6.086   2.772 -0.0152  0.5776  0.2871
  747MOL0     C  738   5.335   6.157   2.899 -0.4585 -1.1385 -0.3122
  747MOL0     C  739   5.254   5.957   2.764 -0.4995 -0.3894  0.1097
  747MOL0     C  740   5.234   5.871   2.874  0.5970  0.8458  0.8387
  747MOL0     O  741   5.138   5.783   2.856 -0.5634 -0.1188  0.2209
  747MOL0     C  742   5.103   5.697   2.956  0.5530 -1.0241 -0.8881
  747MOL0     C  743   5.008   5.735   3.052 -0.2658  0.5839 -0.5631
  747MOL0     C  744   4.994   5.670   3.173 -1.0478  0.8417 -0.1893
  747MOL0     C  745   5.063   5.551   3.192 -0.4703 -0.2884  0.4199
  747MOL0     O  746   5.046   5.495   3.311  0.2464 -0.2989 -0.2418
  747MOL0     C  747   5.068   5.353   3.333 -0.0398  0.1516  0.3280
  747MOL0     C  748   4.958   5.261   3.269 -0.1517  0.0141  0.5179
  747MOL0     C  749   4.991   5.108   3.230 -0.9529 -0.2790 -0.0985
  747MOL0     C  750   5.062   5.041   3.346  0.3213  1.2237  0.5065
  747MOL0     C  751   4.992   5.048   3.480  1.4149 -0.3036 -0.4093
  747MOL0     C  752   5.070   4.965   3.586 -0.6818 -0.2422 -0.4356
  747MOL0     C  753   5.056   4.814   3.592  0.5836  0.6436 -0.1492
  747MOL0     C  754   5.086   4.767   3.730 -1.7401  0.3029  0.0661
  747MOL0    Cl  755   5.121   4.587   3.719 -0.7623 -0.1537  0.1734
  747MOL0     C  756   5.162   5.503   3.094 -0.3039  0.0569  1.2894
  747MOL0     C  757   5.188   5.577   2.978  0.1248 -0.3279  0.5632
  747MOL0     O  758   5.304   5.870   2.973  0.0068 -0.6385 -0.2009
  747MOL0     C  759   5.223   5.912   2.631 -0.1494 -0.8413  0.2118
  747MOL0     C  760   5.258   5.977   2.516 -1.0443 -1.1385  0.1749
  747MOL0     N  761   5.804   6.587   2.252  0.1720  0.5737  0.4230
  747MOL0     N  762   5.919   6.558   2.197 -1.1597 -0.1180  0.4860
  747MOL0     C  763   5.787   6.638   1.198  0.6536  0.3367 -1.4064
  747MOL0     C  764   5.750   6.747   1.126 -0.2287 -0.0644 -0.2524
  747MOL0     C  765   5.494   7.008   0.831 -0.1773  0.3814  0.2647
  747MOL0     C  766   5.431   7.017   0.708 -0.0836  0.3903 -0.3816
  747MOL0     C  767   5.419   7.138   0.641  0.7678  0.3368 -0.4257
  747MOL0     C  768   5.467   7.256   0.699  1.4841 -0.9678 -0.0614
  747MOL0     O  769   5.467   7.380   0.635  0.3228 -0.7253  0.0001
  747MOL0     C  770   5.343   7.410   0.577 -0.2488 -0.2452  0.4107
  747MOL0     C  771   5.226   7.426   0.674 -0.3937 -1.0007 -0.2459
  747MOL0     C  772   5.086   7.396   0.608  0.0031 -0.5958  0.1923
  747MOL0     C  773   5.070   7.502   0.504  0.7812 -0.9900 -0.4586
  747MOL0     C  774   5.060   7.640   0.560 -0.1874  0.2774  0.3105
  747MOL0     C  775   5.034   7.754   0.582 -0.7181  0.3912 -0.1760
  747MOL0     C  776   5.526   7.253   0.831 -0.2261  0.2460  0.5838
  747MOL0     C  777   5.541   7.133   0.896 -0.1624  0.3739  0.6678
  747MOL0     H  778   5.425   6.662   1.056 -0.8425 -2.3295  1.9291
  747MOL0     H  779   5.480   6.485   1.151  1.0197 -0.6828 -5.2430
  747MOL0     H  780   5.576   6.316   1.281  0.9945  0.4129 -2.0411
  747MOL0     H  781   5.710   6.230   1.346 -0.1373 -1.1618 -0.8301
  747MOL0     H  782   5.626   6.495   1.492  1.2623 -0.5822 -0.6697
  747MOL0     H  783   5.539   6.352   1.526  0.6777 -1.2208  1.0084
  747MOL0     H  784   5.782   6.245   1.579  0.5147  1.2198 -0.1613
  747MOL0     H  785   5.841   6.398   1.541 -1.2048  1.8598 -3.9429
  747MOL0     H  786   5.784   6.486   1.743  0.4810  0.9295 -2.0859
  747MOL0     H  787   5.619   6.423   1.758  0.0538  0.8423 -1.0691
  747MOL0     H  788   5.693   6.272   1.903  0.6696  2.8039  2.5982
  747MOL0     H  789   5.815   6.204   1.789 -1.5022 -1.4722  1.7912
  747MOL0     H  790   5.947   6.400   1.853 -2.3929  0.5231 -1.3114
  747MOL0     H  791   5.830   6.451   1.973 -0.4628  1.6613 -4.1706
  747MOL0     H  792   5.857   6.225   2.079 -0.9120  1.9703  0.2902
  747MOL0     H  793   5.988   6.188   1.979  0.0579  0.8730 -1.7580
  747MOL0     H  794   6.100   6.410   2.089 -1.0603  0.8532  0.0358
  747MOL0     H  795   6.078   6.269   2.197  0.2155  2.8129  2.7778
  747MOL0     H  796   5.808   6.265   2.292 -3.1756  0.0842 -5.4825
  747MOL0     H  797   5.637   6.544   2.485  1.2576 -0.5375  0.7980
  747MOL0     H  798   5.545   6.541   2.326  1.3015 -0.6680 -1.5727
  747MOL0     H  799   5.470   6.380   2.492  0.2792  1.3865  0.4899
  747MOL0     H  800   5.623   6.306   2.503 -1.1767  0.7415  0.6309
  747MOL0     H  801   5.615   6.222   2.255  0.4084  0.9814 -1.7523
  747MOL0     H  802   5.472   6.319   2.238  0.3427  1.1088  1.1136
  747MOL0     H  803   5.498   6.064   2.378  0.7324  1.2658  0.5738
  747MOL0     H  804   5.392   6.108   2.240  0.3030 -1.5850 -0.2495
  747MOL0     H  805   5.349   6.268   2.664  1.0168 -0.0682  1.0544
  747MOL0     H  806   5.285   6.120   2.988  1.8880 -1.1297  1.1095
  747MOL0     H  807   5.443   6.160   2.920 -0.7701  1.1637  1.3184
  747MOL0     H  808   5.304   6.262   2.894  0.3707 -0.6724  2.6179
  747MOL0     H  809   4.956   5.825   3.022 -0.5331  0.9875  1.0227
  747MOL0     H  810   4.913   5.698   3.241 -0.6178  0.7507  0.3693
  747MOL0     H  811   5.171   5.332   3.303  0.2664  1.5309  0.3227
  747MOL0     H  812   5.068   5.344   3.442  0.7707 -2.0462  0.1901
  747MOL0     H  813   4.870   5.264   3.333 -0.1608 -0.0707  0.5088
  747MOL0     H  814   4.939   5.300   3.168 -0.0269 -1.1056  0.0448
  747MOL0     H  815   5.055   5.088   3.143 -1.2487 -1.1942 -0.1096
  747MOL0     H  816   4.902   5.059   3.190 -0.8566 -1.1792  0.7825
  747MOL0     H  817   5.067   4.933   3.329 -0.0706  1.2461  0.2502
  747MOL0     H  818   5.165   5.078   3.353  0.6829  0.6321 -1.2495
  747MOL0     H  819   4.896   4.997   3.472  1.9276 -0.9745 -4.2236
  747MOL0     H  820   4.996   5.151   3.517 -0.1051 -1.2814  2.7605
  747MOL0     H  821   5.172   5.002   3.599 -0.8330  0.1739 -0.4178
  747MOL0     H  822   5.018   5.008   3.672 -1.4194  0.5873 -1.2769
  747MOL0     H  823   5.121   4.759   3.523  1.0672  0.9232  0.0743
  747MOL0     H  824   4.950   4.796   3.574  0.2663  0.9364  1.3046
  747MOL0     H  825   4.997   4.792   3.788  0.2099  1.2550  2.8661
  747MOL0     H  826   5.171   4.823   3.771 -0.6508 -0.1882 -1.4262
  747MOL0     H  827   5.237   5.426   3.109  2.5277  2.5765  0.9902
  747MOL0     H  828   5.271   5.567   2.908 -0.9249 -0.7100 -0.6560
  747MOL0     H  829   5.187   5.809   2.630 -1.4089 -0.4272 -0.0418
  747MOL0     H  830   5.224   5.952   2.416  0.8282 -0.2369 -0.7538
  747MOL0     H  831   5.890   6.635   1.231 -0.4242  0.2026  2.5130
  747MOL0     H  832   5.825   6.824   1.112 -0.9036  1.3774  3.1042
  747MOL0     H  833   5.391   6.937   0.646  0.6069  1.1961 -1.9215
  747MOL0     H  834   5.366   7.144   0.547 -0.4552  1.5038  0.3091
  747MOL0     H  835   5.353   7.507   0.527  1.9815 -0.7434 -0.2311
  747MOL0     H  836   5.324   7.341   0.494 -1.0139 -1.2704  1.4080
  747MOL0     H  837   5.228   7.524   0.723 -2.1785 -2.1737  2.4174
  747MOL0     H  838   5.232   7.351   0.753  0.9151 -0.0930  0.5523
  747MOL0     H  839   5.000   7.412   0.673 -1.3668  3.0682 -2.1628
  747MOL0     H  840   5.087   7.295   0.568 -2.3475 -1.0053  0.9978
  747MOL0     H  841   4.973   7.492   0.454 -0.0770 -1.1874  1.1709
  747MOL0     H  842   5.139   7.500   0.419 -1.6140  0.0449 -2.5606
  747MOL0     H  843   4.995   7.852   0.600  2.5067  1.5462  1.1680
  747MOL0     H  844   5.560   7.342   0.884 -0.5091  2.9075 -3.2661
  747MOL0     H  845   5.592   7.121   0.992  1.5764  1.5021 -0.0603
  748MOL0     O  846   3.922   5.451   7.488 -0.0459 -0.5853  0.5571
  748MOL0     C  847   3.864   5.511   7.577  0.0140  0.0592  0.4519
  748MOL0     O  848   3.848   5.460   7.704  0.3227 -1.2088  0.1337
  748MOL0     C  849   3.863   5.332   7.732  0.6517  0.8877 -0.4240
  748MOL0     C  850   3.769   5.282   7.825 -0.1915  0.3571 -0.1346
  748MOL0     C  851   3.785   5.157   7.885 -0.4993  0.5885  0.0976
  748MOL0     C  852   3.904   5.082   7.861  1.0553  0.0945 -0.2666
  748MOL0     O  853   3.908   4.955   7.916  0.2508 -0.4797 -0.5994
  748MOL0     C  854   4.028   4.874   7.916  1.1914  0.3456 -0.1787
  748MOL0     C  855   4.008   4.745   8.000  0.2902 -0.2655  0.5893
  748MOL0     C  856   3.977   4.777   8.146  0.5993  0.3795  0.9659
  748MOL0     C  857   3.987   4.659   8.243 -0.3103  0.3446 -0.0464
  748MOL0     C  858   3.968   4.706   8.397 -1.4568  0.4814  0.1467
  748MOL0     C  859   4.010   4.606   8.505  0.5062 -0.7952 -0.0180
  748MOL0     C  860   4.008   4.656   8.640 -0.2925  1.2035 -0.3496
  748MOL0     C  861   4.123   4.758   8.670  0.4652  0.2776  0.4632
  748MOL0     N  862   4.143   4.751   8.815 -0.3834  0.0645  0.2090
  748MOL0     C  863   4.053   4.759   8.912 -0.3667 -0.3805 -0.3536
  748MOL0     C  864   4.111   4.702   9.013  0.3875 -0.8071 -0.1078
  748MOL0     C  865   4.048   4.677   9.144  0.2058  0.0998 -0.1256
  748MOL0     C  866   4.012   4.813   9.203 -0.5884  0.1435 -0.0133
  748MOL0     C  867   3.861   4.827   9.249  1.3563 -0.2306 -0.1849
  748MOL0     C  868   3.819   4.972   9.225 -0.3240  0.6335  0.4563
  748MOL0     O  869   3.809   5.004   9.083  0.1576 -0.5919 -0.2918
  748MOL0     C  870   3.737   5.113   9.044 -0.1062 -0.5204 -0.4359
  748MOL0     C  871   3.703   5.221   9.128 -0.3326 -0.4054 -0.5136
  748MOL0     C  872   3.655   5.342   9.074 -0.5818 -1.0402 -0.8170
  748MOL0     C  873   3.617   5.451   9.172  0.6119  0.0669  0.1999
  748MOL0     C  874   3.637   5.359   8.933  0.0486 -0.4737 -0.8677
  748MOL0     C  875   3.591   5.484   8.868  1.8153  1.1658  0.3221
  748MOL0     O  876   3.553   5.454   8.736 -0.2330  1.0247  0.4450
  748MOL0     C  877   3.484   5.540   8.651 -0.3016  0.5501  0.0104
  748MOL0     C  878   3.385   5.463   8.582  0.1425 -0.0801  1.2401
  748MOL0     C  879   3.286   5.538   8.516  0.1745  0.0245 -0.3612
  748MOL0     C  880   3.287   5.673   8.515 -0.5694 -0.3215 -0.0994
  748MOL0     O  881   3.198   5.753   8.444  0.1470 -0.3475  0.1075
  748MOL0     C  882   3.179   5.704   8.305  1.0981 -0.7009  0.2674
  748MOL0     C  883   3.151   5.814   8.199  0.1079  0.1589  0.4990
  748MOL0     C  884   3.262   5.911   8.212 -0.0668  0.1550  0.6198
  748MOL0     C  885   3.246   6.031   8.121  0.0755 -0.8864 -0.5985
  748MOL0     C  886   3.347   6.145   8.153  0.5828  0.2636 -0.4161
  748MOL0     C  887   3.297   6.253   8.071  0.1272 -0.4123 -0.3140
  748MOL0     C  888   3.373   6.376   8.111  0.3291  0.0889  0.5188
  748MOL0     C  889   3.320   6.510   8.074  0.6777  0.3761  0.3042
  748MOL0    Cl  890   3.347   6.582   7.913 -0.3070  0.0455  0.3659
  748MOL0     C  891   3.386   5.747   8.584 -0.2311 -0.8483 -0.5744
  748MOL0     C  892   3.490   5.678   8.643  0.7124 -1.3811 -1.2241
  748MOL0     O  893   3.564   5.592   8.930  0.1407  0.1014  0.8281
  748MOL0     C  894   3.666   5.244   8.850  0.0220 -0.3835  1.1834
  748MOL0     C  895   3.715   5.125   8.902 -0.0250 -0.4360 -0.3105
  748MOL0     N  896   4.238   4.661   8.984  0.1422 -0.6093 -0.4707
  748MOL0     N  897   4.254   4.688   8.859 -0.1923  0.4691  0.5233
  748MOL0     C  898   3.986   5.126   7.760  0.7966 -1.3518  1.2769
  748MOL0     C  899   3.975   5.254   7.701  0.2532 -0.0750  0.7742
  748MOL0     C  900   3.808   5.646   7.537  0.8630  0.2264  0.8795
  748MOL0     C  901   3.874   5.721   7.431  0.5973  0.1575  0.4482
  748MOL0     C  902   3.822   5.847   7.397  0.3875 -0.4927 -0.6488
  748MOL0     C  903   3.702   5.898   7.457  0.1657 -0.6984  0.1792
  748MOL0     O  904   3.635   6.012   7.431 -0.7284  0.4306 -0.6065
  748MOL0     C  905   3.698   6.130   7.373  0.3716 -0.1270 -1.7259
  748MOL0     C  906   3.627   6.242   7.453  0.9090 -0.6018 -0.0186
  748MOL0     C  907   3.709   6.286   7.574 -0.0718 -0.2141 -0.5777
  748MOL0     C  908   3.619   6.380   7.667  0.4748 -0.3211 -0.0330
  748MOL0     C  909   3.692   6.433   7.783  0.5030 -0.5951  0.1795
  748MOL0     C  910   3.748   6.466   7.887 -0.4035 -0.9257 -1.0934
  748MOL0     C  911   3.628   5.812   7.544 -0.1769 -1.2254  0.5212
  748MOL0     C  912   3.697   5.699   7.599 -1.0311 -1.0833 -0.6530
  748MOL0     H  913   3.682   5.340   7.854  1.7602  3.7550 -0.4377
  748MOL0     H  914   3.705   5.110   7.941 -0.6414  1.5344  0.7071
  748MOL0     H  915   4.045   4.852   7.810 -3.4093  0.9126 -1.2359
  748MOL0     H  916   4.113   4.928   7.957  1.3004  2.1978 -2.5893
  748MOL0     H  917   3.921   4.691   7.960 -0.2093  1.0885 -0.2296
  748MOL0     H  918   4.101   4.687   7.999  0.4235 -0.0484  0.4675
  748MOL0     H  919   4.049   4.852   8.180  0.3636  2.6778 -3.0452
  748MOL0     H  920   3.873   4.809   8.144  0.1820 -0.6384 -3.5477
  748MOL0     H  921   3.910   4.586   8.215  1.1978 -0.8599 -1.2196
  748MOL0     H  922   4.082   4.605   8.247 -2.4712 -3.8388  1.1379
  748MOL0     H  923   4.023   4.801   8.399 -1.6767  0.7151 -2.1179
  748MOL0     H  924   3.861   4.723   8.405 -1.2982  2.7020 -1.5608
  748MOL0     H  925   3.948   4.517   8.491  1.6037 -1.3614 -1.6307
  748MOL0     H  926   4.112   4.571   8.485  0.8327 -0.5428  1.1338
  748MOL0     H  927   3.911   4.707   8.650 -0.6580  0.8485 -1.8561
  748MOL0     H  928   4.001   4.576   8.715  1.8777  0.8157 -0.5029
  748MOL0     H  929   4.105   4.858   8.628  1.3263  0.1841 -0.1386
  748MOL0     H  930   4.212   4.713   8.625  0.3478 -0.1408  0.6455
  748MOL0     H  931   3.953   4.801   8.903  1.0976  4.8356  3.1169
  748MOL0     H  932   3.965   4.609   9.123  0.6886 -0.9240  1.1706
  748MOL0     H  933   4.119   4.632   9.214 -1.0883 -0.4746  0.8746
  748MOL0     H  934   4.031   4.889   9.126  0.4104  0.0903  0.1699
  748MOL0     H  935   4.090   4.832   9.277  2.5739  1.8901 -3.4260
  748MOL0     H  936   3.850   4.821   9.358 -1.0064  5.4641  0.2468
  748MOL0     H  937   3.797   4.753   9.199  3.0537 -1.6564 -0.3659
  748MOL0     H  938   3.895   5.035   9.272  0.7633 -1.6729  2.0159
  748MOL0     H  939   3.725   4.978   9.280 -1.4284 -4.5130 -0.3040
  748MOL0     H  940   3.740   5.224   9.230  1.4191  1.3281 -1.1450
  748MOL0     H  941   3.672   5.544   9.162 -1.4648  1.3380 -0.0966
  748MOL0     H  942   3.515   5.488   9.157 -0.3106 -1.8887  1.2273
  748MOL0     H  943   3.614   5.419   9.276  0.2042 -1.1917 -0.1776
  748MOL0     H  944   3.380   5.355   8.591  1.2855 -1.0969 -5.4498
  748MOL0     H  945   3.208   5.491   8.456 -0.0570 -0.3973  0.2535
  748MOL0     H  946   3.276   5.660   8.279  2.3595  1.7190  0.6005
  748MOL0     H  947   3.102   5.626   8.306  0.7629 -0.4601  3.3970
  748MOL0     H  948   3.147   5.770   8.099 -0.4205 -1.0961  1.0491
  748MOL0     H  949   3.053   5.861   8.215  0.0933 -0.8548  4.5098
  748MOL0     H  950   3.354   5.859   8.183  0.4633  1.3259  0.1301
  748MOL0     H  951   3.275   5.936   8.318  3.1172 -1.2186  0.6697
  748MOL0     H  952   3.276   6.002   8.020  0.5828  2.1803 -1.4266
  748MOL0     H  953   3.141   6.060   8.107 -0.0211 -1.2233 -0.5914
  748MOL0     H  954   3.447   6.105   8.136  1.5510  1.5486  1.8785
  748MOL0     H  955   3.332   6.180   8.255  1.5415 -2.4705  0.7584
  748MOL0     H  956   3.307   6.241   7.963 -0.3367 -0.7943 -0.3171
  748MOL0     H  957   3.191   6.275   8.085  0.2109 -1.3106  2.3975
  748MOL0     H  958   3.474   6.361   8.072  0.1994  0.3913  0.0595
  748MOL0     H  959   3.379   6.382   8.220  0.3017  2.0933  0.4527
  748MOL0     H  960   3.357   6.586   8.143  1.5885 -2.5296  3.2320
  748MOL0     H  961   3.211   6.509   8.080  0.4364  3.5082 -1.2078
  748MOL0     H  962   3.385   5.855   8.591 -0.7730 -0.8513 -0.5892
  748MOL0     H  963   3.575   5.727   8.690 -0.7940 -0.7759  1.0607
  748MOL0     H  964   3.635   5.245   8.746 -2.0147 -1.9161  1.7308
  748MOL0     H  965   3.742   5.042   8.838  2.3141 -0.5465  0.7594
  748MOL0     H  966   4.064   5.066   7.714  0.6515 -0.6962  0.1577
  748MOL0     H  967   4.049   5.274   7.624 -1.1199 -4.4224 -2.0678
  748MOL0     H  968   3.965   5.684   7.386  1.6419  1.3275  1.4946
  748MOL0     H  969   3.880   5.911   7.332  1.6553 -3.1747 -2.3803
  748MOL0     H  970   3.806   6.128   7.390 -0.1088  2.3843  4.5402
  748MOL0     H  971   3.680   6.141   7.266 -1.3172  0.4072 -1.4248
  748MOL0     H  972   3.527   6.209   7.485 -1.5776  1.3566 -4.7202
  748MOL0     H  973   3.612   6.319   7.377 -2.3647 -0.9887  0.0847
  748MOL0     H  974   3.807   6.323   7.542 -0.6358  1.5265 -0.4019
  748MOL0     H  975   3.723   6.195   7.632 -0.0157 -0.5493 -1.1104
  748MOL0     H  976   3.536   6.317   7.698  1.3652 -1.5483 -0.0945
  748MOL0     H  977   3.574   6.468   7.618  0.5137  1.2476  2.5579
  748MOL0     H  978   3.818   6.487   7.965  0.2289 -3.9689 -0.7188
  748MOL0     H  979   3.524   5.831   7.567 -1.1071  0.9599 -4.1772
  748MOL0     H  980   3.654   5.639   7.678  1.3228 -0.3429  1.3013
  749MOL0     O  981  11.301   6.202  10.330 -0.9750  0.6323 -0.7541
  749MOL0     C  982  11.412   6.256  10.352  1.1915 -0.0686  0.3924
  749MOL0     O  983  11.461   6.370  10.288 -0.6619  0.4034 -1.0454
  749MOL0     C  984  11.378   6.442  10.209  0.5364 -0.5261 -0.5627
  749MOL0     C  985  11.298   6.378  10.108  0.3074  0.2191 -0.5287
  749MOL0     C  986  11.226   6.458  10.021 -0.2802  0.4586 -0.0729
  749MOL0     C  987  11.226   6.600  10.022  0.7239  0.4115  0.8141
  749MOL0     O  988  11.168   6.653   9.909  0.2632  0.0806  0.2771
  749MOL0     C  989  11.068   6.746   9.942  0.4901 -0.4337  0.6129
  749MOL0     C  990  10.939   6.695   9.887  0.2469 -0.5146 -0.2253
  749MOL0     C  991  10.836   6.811   9.919  0.0129 -0.2864 -0.0183
  749MOL0     C  992  10.699   6.777   9.862  0.5062  0.0046  0.4451
  749MOL0     C  993  10.587   6.869   9.917  0.1620 -0.4242 -0.7048
  749MOL0     C  994  10.455   6.837   9.836 -0.9800  0.2688 -0.6285
  749MOL0     C  995  10.326   6.901   9.888  0.3462 -0.1943  0.2936
  749MOL0     C  996  10.270   7.006   9.783 -0.0191  0.6675  0.5470
  749MOL0     N  997  10.155   7.094   9.825 -0.5914 -0.2481 -1.5671
  749MOL0     C  998  10.069   7.083   9.939  0.5791 -0.3317  0.2956
  749MOL0     C  999   9.976   7.181   9.926  0.4736 -0.6356  0.1731
  749MOL0     C 1000   9.849   7.200  10.009  0.7676  0.2826  0.3018
  749MOL0     C 1001   9.769   7.068  10.040  0.7579  0.5204  0.7012
  749MOL0     C 1002   9.689   7.030   9.918  0.4661  0.5323 -0.1240
  749MOL0     C 1003   9.761   6.975   9.801 -0.3523  0.8570 -0.2193
  749MOL0     O 1004   9.839   6.859   9.840 -0.8500 -0.4226  0.7830
  749MOL0     C 1005   9.922   6.792   9.745 -0.4753 -0.1605 -1.4752
  749MOL0     C 1006   9.955   6.835   9.622 -0.9028 -0.7613 -0.0857
  749MOL0     C 1007  10.040   6.763   9.536  0.3104  0.9645 -0.3863
  749MOL0     C 1008  10.066   6.820   9.401 -0.1738  1.5053 -0.5899
  749MOL0     C 1009  10.075   6.627   9.577  0.3832 -0.4289 -0.2713
  749MOL0     C 1010  10.133   6.519   9.498  0.4601 -0.6962  1.4684
  749MOL0     O 1011  10.138   6.395   9.550  0.2240  0.4045 -0.1654
  749MOL0     C 1012  10.171   6.293   9.465  0.3504  0.3066 -0.1748
  749MOL0     C 1013  10.298   6.243   9.463 -0.8065 -0.7735 -0.4292
  749MOL0     C 1014  10.338   6.152   9.364  0.5889 -0.1521 -0.3573
  749MOL0     C 1015  10.253   6.100   9.263 -0.6443  0.1600 -0.2203
  749MOL0     O 1016  10.281   5.998   9.175  0.0767  0.1929 -0.3380
  749MOL0     C 1017  10.376   5.909   9.215 -0.8043  1.8744  0.2982
  749MOL0     C 1018  10.360   5.763   9.158  0.2784  0.1640 -0.6903
  749MOL0     C 1019  10.332   5.753   9.001  0.1424 -0.1958 -0.9210
  749MOL0     C 1020  10.298   5.605   8.971 -0.6185 -0.4479 -0.2453
  749MOL0     C 1021  10.319   5.583   8.820  0.1589  0.1884 -0.2176
  749MOL0     C 1022  10.460   5.596   8.771 -0.8501 -0.4598 -0.2246
  749MOL0     C 1023  10.503   5.523   8.631 -0.2821 -0.3965  0.1948
  749MOL0     C 1024  10.504   5.368   8.629 -0.5000 -0.6245 -0.1701
  749MOL0    Cl 1025  10.569   5.309   8.481 -0.7724  0.1824 -0.2000
  749MOL0     C 1026  10.119   6.143   9.281  0.3131 -0.7399 -0.0181
  749MOL0     C 1027  10.075   6.237   9.378 -0.5123 -1.3401 -0.5954
  749MOL0     O 1028  10.171   6.549   9.380 -0.0787 -0.7133 -0.4518
  749MOL0     C 1029  10.044   6.596   9.706 -0.0726 -0.1406  0.9046
  749MOL0     C 1030   9.960   6.672   9.785  0.6752 -0.0447 -0.3368
  749MOL0     N 1031  10.012   7.252   9.811  0.1524 -0.4240 -0.0981
  749MOL0     N 1032  10.107   7.198   9.749  0.5267 -0.5324 -0.8378
  749MOL0     C 1033  11.302   6.664  10.117  0.2181  0.6209 -0.5561
  749MOL0     C 1034  11.380   6.583  10.208  0.6713  0.6684 -0.6850
  749MOL0     C 1035  11.499   6.203  10.455  0.2610  0.0596  0.1587
  749MOL0     C 1036  11.604   6.273  10.512  0.1814  0.4035 -0.5149
  749MOL0     C 1037  11.684   6.232  10.620  0.5741  0.4859 -0.4264
  749MOL0     C 1038  11.650   6.110  10.682  1.3940 -0.4462 -0.8837
  749MOL0     O 1039  11.713   6.050  10.783  0.6646  0.0705 -1.2753
  749MOL0     C 1040  11.777   6.135  10.884  0.2105 -0.0729 -0.0315
  749MOL0     C 1041  11.831   6.045  10.987 -0.3726  0.4957  0.7766
  749MOL0     C 1042  11.742   5.983  11.091  0.9263  0.2127  0.1710
  749MOL0     C 1043  11.834   5.916  11.191 -0.7027 -0.1119 -0.8291
  749MOL0     C 1044  11.866   5.769  11.159  0.4576 -0.1636 -0.9217
  749MOL0     C 1045  11.887   5.649  11.151  1.7860 -0.0739  0.7175
  749MOL0     C 1046  11.559   6.027  10.612 -0.1147 -0.1164  0.4992
  749MOL0     C 1047  11.478   6.074  10.510 -0.9091 -0.7264 -0.4128
  749MOL0     H 1048  11.306   6.271  10.095  3.0958  0.4368 -1.3596
  749MOL0     H 1049  11.171   6.407   9.943  0.0375  1.2247 -0.8133
  749MOL0     H 1050  11.051   6.776  10.046  0.0146 -1.2436  0.7865
  749MOL0     H 1051  11.101   6.841   9.900 -2.1096  1.0110  1.6185
  749MOL0     H 1052  10.946   6.675   9.779 -2.3996 -2.6322 -0.1214
  749MOL0     H 1053  10.917   6.604   9.944 -1.1875  0.4575  0.8229
  749MOL0     H 1054  10.812   6.824  10.025  1.2439  3.7377 -0.0591
  749MOL0     H 1055  10.875   6.903   9.874  1.8905 -0.5062  1.0732
  749MOL0     H 1056  10.696   6.790   9.754 -3.1968 -1.1440  0.2556
  749MOL0     H 1057  10.669   6.673   9.879 -3.3290  0.4772 -2.1385
  749MOL0     H 1058  10.572   6.846  10.023 -2.3783  0.0561 -0.9018
  749MOL0     H 1059  10.617   6.974   9.906  1.7877 -0.8894 -1.0769
  749MOL0     H 1060  10.481   6.865   9.733  3.3119  0.9472  0.4367
  749MOL0     H 1061  10.441   6.729   9.839  0.5246  0.0691  2.3617
  749MOL0     H 1062  10.249   6.829   9.914  1.1900 -1.0750  0.3972
  749MOL0     H 1063  10.349   6.953   9.981  0.5625  3.7692 -1.7606
  749MOL0     H 1064  10.238   6.964   9.687 -0.1754 -0.8945  1.2405
  749MOL0     H 1065  10.346   7.079   9.754 -2.2727  1.8097 -3.0645
  749MOL0     H 1066  10.074   7.020  10.027  2.5496  3.1996  2.9949
  749MOL0     H 1067   9.876   7.234  10.109 -0.2506 -1.2519  1.1478
  749MOL0     H 1068   9.796   7.277   9.952 -0.3225  3.2999  4.8257
  749MOL0     H 1069   9.691   7.093  10.112  0.7852 -0.7240  1.1886
  749MOL0     H 1070   9.841   6.991  10.069  3.7231  2.0985 -1.7839
  749MOL0     H 1071   9.627   7.114   9.884 -1.9895  0.4001  3.4461
  749MOL0     H 1072   9.617   6.955   9.950 -1.3328  3.7530  4.6304
  749MOL0     H 1073   9.820   7.052   9.753 -1.4415  1.1427 -1.1484
  749MOL0     H 1074   9.682   6.940   9.733 -2.0517 -2.6233  3.1228
  749MOL0     H 1075   9.924   6.932   9.583 -0.7513 -1.3167 -1.6464
  749MOL0     H 1076  10.021   6.917   9.380 -1.1164  0.4032 -4.3707
  749MOL0     H 1077  10.173   6.821   9.380 -0.1904 -2.2212 -1.5615
  749MOL0     H 1078  10.025   6.750   9.327  1.2335  0.6919 -0.6361
  749MOL0     H 1079  10.370   6.280   9.535  1.2920  0.3514 -2.9659
  749MOL0     H 1080  10.441   6.117   9.365  0.8345  0.5514  1.0381
  749MOL0     H 1081  10.475   5.941   9.180 -0.6665  0.2338 -0.9440
  749MOL0     H 1082  10.385   5.902   9.324 -1.2454  0.5850  0.2661
  749MOL0     H 1083  10.452   5.706   9.171  1.3892  2.2792  1.4080
  749MOL0     H 1084  10.283   5.714   9.218  2.9538 -2.5637  0.7604
  749MOL0     H 1085  10.419   5.799   8.952 -1.6911  3.1072 -1.4011
  749MOL0     H 1086  10.249   5.821   8.979  1.0317  1.7956  1.4275
  749MOL0     H 1087  10.361   5.529   9.019 -0.9615 -2.4579 -2.7438
  749MOL0     H 1088  10.196   5.574   8.996  0.3967 -2.6897  1.5346
  749MOL0     H 1089  10.250   5.634   8.753 -0.6309 -0.2451  0.2522
  749MOL0     H 1090  10.295   5.476   8.812 -0.9301  0.5358 -2.4017
  749MOL0     H 1091  10.493   5.700   8.767 -2.1605 -0.0386 -0.4709
  749MOL0     H 1092  10.529   5.551   8.844 -0.0182  0.6379 -0.3157
  749MOL0     H 1093  10.607   5.544   8.607 -0.2850 -3.7644 -3.7123
  749MOL0     H 1094  10.450   5.564   8.545  0.2258  0.9843  0.5142
  749MOL0     H 1095  10.401   5.335   8.646  0.2996 -1.9371  3.0228
  749MOL0     H 1096  10.567   5.326   8.708 -0.5915  1.8292  1.3119
  749MOL0     H 1097  10.047   6.111   9.207  1.3375  0.9511 -1.8201
  749MOL0     H 1098   9.975   6.273   9.399  0.4779  0.3991  1.5169
  749MOL0     H 1099  10.073   6.503   9.752  1.0777 -0.4492 -0.3951
  749MOL0     H 1100   9.933   6.638   9.885  2.8204  3.4922  1.6724
  749MOL0     H 1101  11.303   6.772  10.119 -1.3579  0.7212 -2.4159
  749MOL0     H 1102  11.446   6.642  10.271  0.7937 -1.3925  1.2178
  749MOL0     H 1103  11.620   6.378  10.490 -0.9974  1.1871  2.0192
  749MOL0     H 1104  11.756   6.302  10.662 -1.7430  1.7126  1.7766
  749MOL0     H 1105  11.863   6.185  10.840  1.1934 -0.9948  0.7588
  749MOL0     H 1106  11.714   6.213  10.927 -0.2556 -0.6152  0.2885
  749MOL0     H 1107  11.911   6.091  11.046 -1.1532  1.8492  0.8010
  749MOL0     H 1108  11.870   5.963  10.926  2.3483  2.6346 -0.6081
  749MOL0     H 1109  11.667   5.910  11.062  0.7945  0.0393  0.9302
  749MOL0     H 1110  11.685   6.062  11.141  1.6407  0.6957  0.2563
  749MOL0     H 1111  11.779   5.920  11.286 -1.3461 -1.2502 -1.1431
  749MOL0     H 1112  11.928   5.967  11.214 -0.8434  0.2349 -1.0180
  749MOL0     H 1113  11.900   5.546  11.123 -1.8166 -0.5231  0.1838
  749MOL0     H 1114  11.537   5.931  10.658  2.1259 -2.0482 -2.1586
  749MOL0     H 1115  11.405   6.007  10.464 -1.7475 -0.3729  0.3806
  750MOL0     O 1116   1.264  11.500   1.617  0.0782 -0.1606  0.3138
  750MOL0     C 1117   1.341  11.506   1.710 -0.8439  0.4187  0.0271
  750MOL0     O 1118   1.453  11.592   1.720 -0.1726 -0.1184  0.0496
  750MOL0     C 1119   1.455  11.711   1.643  0.2787  0.2629  0.2795
  750MOL0     C 1120   1.583  11.758   1.622  0.4831  0.8408  1.3868
  750MOL0     C 1121   1.598  11.860   1.513  0.6043  0.3269  0.2450
  750MOL0     C 1122   1.498  11.910   1.428  0.7723 -1.2555 -0.9549
  750MOL0     O 1123   1.521  12.000   1.329  0.0129 -0.2948  0.1344
  750MOL0     C 1124   1.414  12.023   1.227 -0.0134 -0.5050  0.1911
  750MOL0     C 1125   1.462  12.150   1.142 -1.2943  0.6703 -0.4248
  750MOL0     C 1126   1.358  12.170   1.039 -0.5412  0.2597  0.0576
  750MOL0     C 1127   1.386  12.248   0.914 -0.1621 -0.8193 -0.6525
  750MOL0     C 1128   1.261  12.310   0.847 -0.2627  0.4087 -0.0682
  750MOL0     C 1129   1.291  12.402   0.718 -0.0092 -0.3856 -0.6991
  750MOL0     C 1130   1.347  12.542   0.758  0.1385  0.4010 -0.0163
  750MOL0     C 1131   1.412  12.611   0.641  0.9236 -0.0397  0.6523
  750MOL0     N 1132   1.542  12.677   0.675  0.3805  0.2866  0.5035
  750MOL0     C 1133   1.663  12.647   0.626 -0.5627 -0.2304  0.8330
  750MOL0     C 1134   1.748  12.738   0.674 -0.1063 -0.2542 -1.1291
  750MOL0     C 1135   1.890  12.758   0.653 -0.3645  0.0541  0.4641
  750MOL0     C 1136   1.925  12.791   0.501  0.3011  0.1312  0.3373
  750MOL0     C 1137   1.948  12.942   0.464 -0.1831  0.5120  0.9121
  750MOL0     C 1138   1.820  13.028   0.496  0.2495 -1.2033 -0.0750
  750MOL0     O 1139   1.807  13.074   0.625 -0.5298 -0.2704 -0.4284
  750MOL0     C 1140   1.752  13.198   0.650 -0.8323 -0.1036 -0.0965
  750MOL0     C 1141   1.648  13.201   0.742  0.8707 -1.2870 -0.1550
  750MOL0     C 1142   1.591  13.320   0.789  0.5807 -0.0825  0.4281
  750MOL0     C 1143   1.485  13.315   0.893 -0.3360  0.5985  0.3629
  750MOL0     C 1144   1.645  13.438   0.725  0.0005  0.6957  0.6820
  750MOL0     C 1145   1.591  13.573   0.758  0.1561  0.8572 -0.3519
  750MOL0     O 1146   1.575  13.601   0.885 -0.4082  0.3702 -0.6864
  750MOL0     C 1147   1.532  13.729   0.918 -1.0842 -0.3935 -0.1633
  750MOL0     C 1148   1.428  13.749   1.015  0.2836 -0.1354  0.0914
  750MOL0     C 1149   1.373  13.874   1.043  0.2715  1.1186  0.3656
  750MOL0     C 1150   1.429  13.983   0.991 -0.5679 -0.2772 -0.6998
  750MOL0     O 1151   1.369  14.103   1.025 -0.4960 -1.0021  0.3168
  750MOL0     C 1152   1.351  14.197   0.915 -1.0192  0.3233 -0.2089
  750MOL0     C 1153   1.254  14.142   0.801 -0.4351 -0.0574  0.5568
  750MOL0     C 1154   1.113  14.103   0.862 -0.2250 -0.4875  0.3527
  750MOL0     C 1155   1.003  14.054   0.761 -0.4039  1.1453  0.2584
  750MOL0     C 1156   0.881  13.999   0.825  0.4447  0.3137 -0.9804
  750MOL0     C 1157   0.783  13.927   0.729  0.2134 -0.1542 -0.5298
  750MOL0     C 1158   0.652  13.878   0.789 -0.6931  0.1321  0.0043
  750MOL0     C 1159   0.545  13.987   0.802  0.5675 -0.4400  0.5592
  750MOL0    Cl 1160   0.474  14.006   0.637  0.0989 -0.2038  0.1172
  750MOL0     C 1161   1.534  13.966   0.897 -0.3709  0.6463  1.1906
  750MOL0     C 1162   1.580  13.841   0.857  0.1686  0.4634 -0.3557
  750MOL0     O 1163   1.568  13.650   0.672 -0.6215 -0.2344  0.4934
  750MOL0     C 1164   1.740  13.428   0.623 -0.3691 -0.2085 -0.4211
  750MOL0     C 1165   1.803  13.311   0.589 -0.6973  0.2368  1.1480
  750MOL0     N 1166   1.676  12.827   0.757  0.0985 -0.2053  1.2187
  750MOL0     N 1167   1.559  12.774   0.766  0.2820 -0.6839 -0.0181
  750MOL0     C 1168   1.368  11.869   1.469  0.5616  0.1146  0.1297
  750MOL0     C 1169   1.344  11.779   1.577  0.2541 -0.0946  0.1491
  750MOL0     C 1170   1.329  11.405   1.808 -0.3541  1.0283 -0.9236
  750MOL0     C 1171   1.401  11.411   1.926  0.4308  0.3527  0.9376
  750MOL0     C 1172   1.376  11.323   2.029  0.2487  1.0833  1.1090
  750MOL0     C 1173   1.299  11.208   2.007 -0.2904 -0.2929  0.2127
  750MOL0     O 1174   1.280  11.096   2.087 -0.8167 -0.2001 -0.3581
  750MOL0     C 1175   1.375  11.094   2.198  1.1044 -0.1287 -0.2335
  750MOL0     C 1176   1.368  10.965   2.253  0.7327  0.8943 -0.8660
  750MOL0     C 1177   1.459  10.867   2.173  0.1394  0.4126  0.2504
  750MOL0     C 1178   1.426  10.721   2.201  0.2750 -0.3159 -1.0163
  750MOL0     C 1179   1.471  10.664   2.334 -1.0938  0.1648 -0.4102
  750MOL0     C 1180   1.497  10.607   2.435  0.6039  0.9899 -0.0332
  750MOL0     C 1181   1.229  11.203   1.890  0.7842  0.7979 -0.1349
  750MOL0     C 1182   1.240  11.301   1.790 -0.2663 -0.2464  0.3730
  750MOL0     H 1183   1.663  11.699   1.665  0.4394  0.5114  1.0253
  750MOL0     H 1184   1.693  11.909   1.492 -0.1260  1.5896 -0.2309
  750MOL0     H 1185   1.393  11.929   1.176 -2.7436 -0.3445  0.8439
  750MOL0     H 1186   1.319  12.051   1.274 -0.7699  0.3953 -1.7858
  750MOL0     H 1187   1.474  12.237   1.207 -0.4752 -0.5783  1.1698
  750MOL0     H 1188   1.555  12.111   1.099  0.0326 -0.1036  2.8729
  750MOL0     H 1189   1.328  12.072   1.000 -0.0912  0.6944 -1.4329
  750MOL0     H 1190   1.272  12.198   1.101 -1.4995 -3.5522  0.7571
  750MOL0     H 1191   1.459  12.329   0.929  0.4345 -1.1556 -1.6179
  750MOL0     H 1192   1.433  12.175   0.846  0.1235 -0.7739 -0.5068
  750MOL0     H 1193   1.200  12.223   0.821 -0.4132  0.4267  0.2227
  750MOL0     H 1194   1.199  12.358   0.923 -0.2868 -0.0091  0.1749
  750MOL0     H 1195   1.375  12.350   0.670  0.9364  0.4947 -0.0678
  750MOL0     H 1196   1.200  12.404   0.659 -0.9965 -0.1421  0.7716
  750MOL0     H 1197   1.275  12.613   0.801  0.4743  0.3375  0.6699
  750MOL0     H 1198   1.429  12.528   0.830 -0.5812 -0.2742  0.6901
  750MOL0     H 1199   1.340  12.670   0.584 -0.9479  0.9851  3.8221
  750MOL0     H 1200   1.452  12.539   0.569 -0.2086  1.2230 -1.3395
  750MOL0     H 1201   1.697  12.566   0.562 -2.5008 -3.1099  3.1261
  750MOL0     H 1202   1.935  12.838   0.712  4.5668 -2.5904  0.8342
  750MOL0     H 1203   1.946  12.670   0.686 -0.8261  0.0491  1.2654
  750MOL0     H 1204   1.856  12.741   0.432 -0.2368  0.7538  0.4200
  750MOL0     H 1205   2.022  12.745   0.482  0.7405  1.2520 -0.1735
  750MOL0     H 1206   1.960  12.941   0.355  0.0610  1.3857  0.9221
  750MOL0     H 1207   2.038  12.972   0.517  2.2509 -2.5073 -1.1659
  750MOL0     H 1208   1.746  12.951   0.469  1.6920 -1.7637 -2.8914
  750MOL0     H 1209   1.821  13.107   0.421  3.1275 -0.8451  0.2290
  750MOL0     H 1210   1.621  13.110   0.794  1.4364  0.4035  3.3691
  750MOL0     H 1211   1.518  13.315   0.998 -2.5034 -1.2365  1.1110
  750MOL0     H 1212   1.408  13.391   0.879 -0.2249  1.0831  2.0819
  750MOL0     H 1213   1.435  13.218   0.885  0.1296 -0.0381  3.7460
  750MOL0     H 1214   1.397  13.648   1.042 -2.3484 -0.6658 -3.9820
  750MOL0     H 1215   1.281  13.883   1.100  1.8078  1.3193  2.9605
  750MOL0     H 1216   1.300  14.274   0.974 -3.9444 -0.2442 -1.8162
  750MOL0     H 1217   1.443  14.244   0.880  0.2776 -0.8544  1.4582
  750MOL0     H 1218   1.253  14.216   0.721  1.2227 -1.0370 -0.4430
  750MOL0     H 1219   1.288  14.049   0.754  0.2855 -0.2179  1.3733
  750MOL0     H 1220   1.084  14.183   0.931 -1.9194 -2.5288  2.1257
  750MOL0     H 1221   1.136  14.016   0.924  4.6866  0.9044  0.8724
  750MOL0     H 1222   0.990  14.148   0.707  0.3773  0.9053 -0.3565
  750MOL0     H 1223   1.039  13.986   0.685 -1.3724  1.3609 -0.4145
  750MOL0     H 1224   0.844  14.082   0.886  0.0163 -0.1492 -0.6074
  750MOL0     H 1225   0.911  13.919   0.893 -1.5006 -1.4162 -2.0386
  750MOL0     H 1226   0.762  14.006   0.656  1.6003  0.0399 -0.7533
  750MOL0     H 1227   0.825  13.850   0.663  0.5737 -1.4657  1.1421
  750MOL0     H 1228   0.673  13.848   0.892 -0.3367  2.1712  0.5807
  750MOL0     H 1229   0.608  13.807   0.719  1.4917  0.2236 -1.5460
  750MOL0     H 1230   0.590  14.080   0.836  1.0425 -1.0084  1.5256
  750MOL0     H 1231   0.452  13.962   0.855 -1.2777 -0.3393 -2.4011
  750MOL0     H 1232   1.585  14.050   0.851  0.8859 -0.4181  0.5675
  750MOL0     H 1233   1.667  13.827   0.793 -0.5066 -0.9939 -1.0153
  750MOL0     H 1234   1.762  13.522   0.574 -0.4215  1.4434  2.4703
  750MOL0     H 1235   1.883  13.306   0.516  0.0178  1.8975  1.7605
  750MOL0     H 1236   1.271  11.901   1.432 -0.0523  0.0558  1.5971
  750MOL0     H 1237   1.242  11.766   1.613  0.0687  3.7855  1.4842
  750MOL0     H 1238   1.452  11.504   1.951  0.8516  1.7349 -3.9130
  750MOL0     H 1239   1.431  11.345   2.120  0.4812  0.4095  1.1329
  750MOL0     H 1240   1.479  11.112   2.168  0.6623  2.1581 -0.5735
  750MOL0     H 1241   1.340  11.174   2.263  0.0445 -0.0550 -0.8719
  750MOL0     H 1242   1.266  10.927   2.253  1.0103 -0.1094  1.9038
  750MOL0     H 1243   1.412  10.971   2.353 -1.6221  2.8456  0.1658
  750MOL0     H 1244   1.568  10.873   2.180  0.2757  0.0204 -1.1959
  750MOL0     H 1245   1.436  10.881   2.067 -1.4533 -2.2416  0.1601
  750MOL0     H 1246   1.464  10.664   2.115  0.6597  2.1420 -2.5496
  750MOL0     H 1247   1.318  10.714   2.213  0.2110 -0.7495 -1.7514
  750MOL0     H 1248   1.530  10.557   2.524 -2.4925 -3.4729 -1.0626
  750MOL0     H 1249   1.154  11.128   1.866 -2.3563  4.6612 -4.1779
  750MOL0     H 1250   1.169  11.305   1.708 -2.7475 -0.0580  2.3988
  751MOL0     O 1251   6.428  10.382   9.419 -0.0148 -0.0720 -0.8614
  751MOL0     C 1252   6.450  10.332   9.312 -0.5099  0.2506 -0.5107
  751MOL0     O 1253   6.502  10.201   9.295  0.5996 -0.5336  0.6397
  751MOL0     C 1254   6.543  10.136   9.396  0.1847 -0.0206  0.6021
  751MOL0     C 1255   6.662  10.166   9.459  0.1789  0.0207  0.2624
  751MOL0     C 1256   6.713  10.099   9.571 -0.6369 -0.7428  0.8338
  751MOL0     C 1257   6.650   9.984   9.614  0.2258  0.9078  0.5858
  751MOL0     O 1258   6.683   9.901   9.716  1.2110  0.4772  0.3213
  751MOL0     C 1259   6.736   9.960   9.833 -0.4674  1.0073  0.5503
  751MOL0     C 1260   6.673   9.908   9.963 -0.6022 -0.8702 -0.3754
  751MOL0     C 1261   6.761   9.786  10.014  0.8451 -0.7826  0.4056
  751MOL0     C 1262   6.706   9.704  10.131 -0.1762 -0.6439  0.7298
  751MOL0     C 1263   6.795   9.602  10.199 -0.9183  1.0236 -0.5258
  751MOL0     C 1264   6.733   9.555  10.332  0.2401 -0.8253 -0.2584
  751MOL0     C 1265   6.817   9.434  10.381  0.8278  0.4042 -0.7217
  751MOL0     C 1266   6.775   9.404  10.517 -0.9040  0.4084 -0.7409
  751MOL0     N 1267   6.851   9.291  10.579  0.1887  0.1047  0.5055
  751MOL0     C 1268   6.815   9.162  10.557 -0.8598  0.7682  0.0090
  751MOL0     C 1269   6.913   9.084  10.619  0.2122 -0.1412 -0.4258
  751MOL0     C 1270   6.904   8.934  10.649 -1.0369 -1.1407 -0.0889
  751MOL0     C 1271   7.044   8.877  10.655  0.4117 -0.3175 -0.4798
  751MOL0     C 1272   7.099   8.859  10.516 -0.0507  0.6683 -0.2605
  751MOL0     C 1273   7.179   8.732  10.511  0.1858  0.1773  0.2639
  751MOL0     O 1274   7.252   8.704  10.390  0.3109  0.1919  0.2301
  751MOL0     C 1275   7.385   8.751  10.384 -0.4950  0.4467  0.9204
  751MOL0     C 1276   7.415   8.852  10.288 -0.2161 -0.1983 -0.7472
  751MOL0     C 1277   7.535   8.904  10.272 -0.7132  0.7497  0.1433
  751MOL0     C 1278   7.558   9.018  10.174  0.8133  0.1990  0.0856
  751MOL0     C 1279   7.637   8.868  10.367 -0.3845  0.6408  0.1144
  751MOL0     C 1280   7.771   8.936  10.379 -0.2741  0.4365  1.0845
  751MOL0     O 1281   7.818   9.030  10.293  0.6237 -0.3697  0.2538
  751MOL0     C 1282   7.946   9.081  10.297  1.0836  0.4867  0.9644
  751MOL0     C 1283   8.054   8.992  10.317 -0.2859 -0.0056 -0.5414
  751MOL0     C 1284   8.179   9.050  10.319  0.5273 -0.7618  0.1795
  751MOL0     C 1285   8.202   9.182  10.289 -0.1461  0.3295 -0.6564
  751MOL0     O 1286   8.308   9.263  10.302  0.2481  0.6120 -0.0495
  751MOL0     C 1287   8.403   9.227  10.408 -0.5151 -0.6174 -0.7055
  751MOL0     C 1288   8.524   9.321  10.407  1.2476 -1.9944  0.4909
  751MOL0     C 1289   8.615   9.307  10.526 -0.2085  0.3278 -0.2975
  751MOL0     C 1290   8.755   9.360  10.516  0.1550 -0.1899  0.0295
  751MOL0     C 1291   8.861   9.281  10.430  0.4283 -0.6286  0.5464
  751MOL0     C 1292   9.003   9.346  10.445  0.3267  0.7960 -0.0393
  751MOL0     C 1293   9.106   9.271  10.354 -0.4970  0.3663  0.5663
  751MOL0     C 1294   9.253   9.319  10.344  0.2802  0.3034  0.5797
  751MOL0    Cl 1295   9.322   9.302  10.509 -0.1702  0.3629 -0.0037
  751MOL0     C 1296   8.096   9.266  10.266  0.2965 -1.1332  0.4393
  751MOL0     C 1297   7.955   9.221  10.265 -0.3920  0.2380 -0.4445
  751MOL0     O 1298   7.828   8.896  10.480 -0.2124 -0.1581 -0.5696
  751MOL0     C 1299   7.609   8.762  10.451 -0.4651  0.6675 -0.0084
  751MOL0     C 1300   7.491   8.694  10.452  0.1564 -0.3699  0.0005
  751MOL0     N 1301   7.004   9.174  10.666 -0.0029  0.4177 -0.3572
  751MOL0     N 1302   6.970   9.295  10.634  0.0690  0.1387  1.0867
  751MOL0     C 1303   6.539   9.941   9.543 -0.2998  0.7531  0.2130
  751MOL0     C 1304   6.486  10.010   9.438 -0.3982 -0.2474  0.1085
  751MOL0     C 1305   6.410  10.408   9.197 -0.1895  1.0963  0.3125
  751MOL0     C 1306   6.417  10.349   9.074 -0.3598 -0.1142 -0.8706
  751MOL0     C 1307   6.418  10.423   8.954 -0.0074 -0.6831  0.1231
  751MOL0     C 1308   6.382  10.559   8.961 -0.1508  0.5662  0.2991
  751MOL0     O 1309   6.367  10.644   8.853 -0.7585  0.1795 -0.0412
  751MOL0     C 1310   6.349  10.588   8.721 -0.8215 -0.4628  0.0333
  751MOL0     C 1311   6.312  10.692   8.615 -0.0563 -0.7797 -0.0343
  751MOL0     C 1312   6.356  10.652   8.481 -0.4424 -1.1261  0.5965
  751MOL0     C 1313   6.302  10.738   8.367 -0.0897 -0.1420 -0.5419
  751MOL0     C 1314   6.371  10.869   8.370  0.0702 -0.0759  1.0817
  751MOL0     C 1315   6.421  10.977   8.359 -0.4596 -0.6870  0.1219
  751MOL0     C 1316   6.374  10.616   9.085  0.6325 -0.1354  0.9535
  751MOL0     C 1317   6.388  10.544   9.201 -0.1803 -0.5408  0.2702
  751MOL0     H 1318   6.708  10.250   9.408 -0.8077  0.6670  0.4280
  751MOL0     H 1319   6.806  10.132   9.616  1.8823 -4.3430 -1.2354
  751MOL0     H 1320   6.842   9.936   9.824 -0.7849 -0.0222 -0.8062
  751MOL0     H 1321   6.725  10.069   9.828 -0.9316  1.0647  2.2234
  751MOL0     H 1322   6.675   9.991  10.034  3.8500 -1.8335  0.9003
  751MOL0     H 1323   6.570   9.877   9.941 -1.2194  0.4416  0.4895
  751MOL0     H 1324   6.771   9.719   9.928 -2.6350 -1.7151  0.5556
  751MOL0     H 1325   6.858   9.826  10.042  0.2241 -0.2356  1.8905
  751MOL0     H 1326   6.661   9.767  10.208  1.7573  3.1367 -1.0040
  751MOL0     H 1327   6.619   9.650  10.093 -0.2778 -0.1107  0.1825
  751MOL0     H 1328   6.805   9.517  10.131 -0.1555  1.0073 -0.4057
  751MOL0     H 1329   6.901   9.628  10.201  0.4103 -3.6009  0.0217
  751MOL0     H 1330   6.757   9.633  10.404  3.6183 -2.6030  0.7768
  751MOL0     H 1331   6.629   9.523  10.330  0.4013 -1.4576 -3.0659
  751MOL0     H 1332   6.792   9.357  10.308 -0.3146  1.8583 -1.9574
  751MOL0     H 1333   6.922   9.463  10.372 -0.2221  4.1011 -3.5360
  751MOL0     H 1334   6.672   9.379  10.545  1.0225 -3.3554  4.4713
  751MOL0     H 1335   6.801   9.492  10.576 -2.8618  0.9990 -0.6908
  751MOL0     H 1336   6.726   9.113  10.519  0.6625 -2.1486 -0.0352
  751MOL0     H 1337   6.850   8.917  10.743 -0.3810 -1.7301  0.1921
  751MOL0     H 1338   6.854   8.876  10.571  2.7289 -2.3532 -1.8401
  751MOL0     H 1339   7.023   8.776  10.689 -1.3025  0.6197  1.5175
  751MOL0     H 1340   7.109   8.927  10.727 -3.1465 -0.4688  3.2107
  751MOL0     H 1341   7.167   8.935  10.477 -3.5211  2.9894 -2.3463
  751MOL0     H 1342   7.016   8.842  10.448 -0.1870  1.2636 -0.2527
  751MOL0     H 1343   7.108   8.650  10.523 -1.2632  0.8501 -2.8036
  751MOL0     H 1344   7.254   8.732  10.591  1.3074  3.2452 -0.6272
  751MOL0     H 1345   7.334   8.893  10.228 -0.4965 -1.2140 -1.0703
  751MOL0     H 1346   7.463   9.039  10.123  0.8924 -1.9424 -1.0117
  751MOL0     H 1347   7.580   9.107  10.235  0.1094 -1.4576  2.9241
  751MOL0     H 1348   7.623   8.994  10.090 -0.8157 -1.5275 -0.7574
  751MOL0     H 1349   8.031   8.891  10.349  0.2075  0.6591  2.1761
  751MOL0     H 1350   8.265   8.988  10.343  2.9806  2.2358 -0.2377
  751MOL0     H 1351   8.339   9.215  10.496  0.9771 -3.0228  0.1455
  751MOL0     H 1352   8.442   9.125  10.399  1.1156 -0.5134  2.9743
  751MOL0     H 1353   8.572   9.314  10.309  2.1868 -2.0285  0.9421
  751MOL0     H 1354   8.490   9.424  10.414 -0.3634 -2.4274 -0.4696
  751MOL0     H 1355   8.618   9.204  10.563  3.1447 -0.0072 -1.1581
  751MOL0     H 1356   8.563   9.354  10.610 -1.2732 -1.9434  0.3947
  751MOL0     H 1357   8.757   9.457  10.465  2.4169 -1.5360 -2.7589
  751MOL0     H 1358   8.798   9.376  10.615  4.0011  3.4268 -1.8596
  751MOL0     H 1359   8.830   9.283  10.325  0.9025  0.8194  0.4169
  751MOL0     H 1360   8.868   9.176  10.459  1.5434 -1.1430 -1.3901
  751MOL0     H 1361   9.002   9.447  10.403 -1.0100  1.7171  2.0156
  751MOL0     H 1362   9.025   9.334  10.552 -2.0127  0.0771  0.4211
  751MOL0     H 1363   9.065   9.272  10.253 -0.8459  0.2775  0.7045
  751MOL0     H 1364   9.102   9.164  10.374 -3.9310 -0.3620 -2.7691
  751MOL0     H 1365   9.266   9.424  10.317  1.5127  1.2677  4.3289
  751MOL0     H 1366   9.308   9.255  10.274  0.9312  0.1972  1.1744
  751MOL0     H 1367   8.116   9.372  10.251 -2.8334 -0.8641 -3.2891
  751MOL0     H 1368   7.881   9.292  10.229  0.8292  1.7449 -0.0653
  751MOL0     H 1369   7.688   8.723  10.515 -0.4363  0.8628  0.0764
  751MOL0     H 1370   7.484   8.610  10.521  1.0414  1.0256  1.8893
  751MOL0     H 1371   6.474   9.856   9.565  0.0638  0.8182  1.6167
  751MOL0     H 1372   6.392   9.980   9.394 -0.2571  0.4454 -0.6718
  751MOL0     H 1373   6.419  10.241   9.067 -2.1216 -0.2995  0.7725
  751MOL0     H 1374   6.443  10.363   8.867  3.0404  0.2875  0.2195
  751MOL0     H 1375   6.444  10.544   8.688 -1.1485 -0.4545 -0.9704
  751MOL0     H 1376   6.275  10.509   8.734  0.6788 -1.4094  4.6420
  751MOL0     H 1377   6.354  10.787   8.651  0.6615  0.1672 -3.0733
  751MOL0     H 1378   6.203  10.700   8.613 -0.1650 -2.2335 -1.2238
  751MOL0     H 1379   6.311  10.554   8.461 -3.1061  0.3894 -1.4248
  751MOL0     H 1380   6.465  10.664   8.476 -0.5906  0.9073  1.3443
  751MOL0     H 1381   6.195  10.752   8.384  0.3931  1.2860  1.7676
  751MOL0     H 1382   6.321  10.699   8.267 -2.4773  1.6686 -1.7864
  751MOL0     H 1383   6.459  11.077   8.354 -0.4954 -0.7340 -1.6828
  751MOL0     H 1384   6.350  10.722   9.079 -0.9139 -0.4827  0.2210
  751MOL0     H 1385   6.395  10.588   9.300  2.3924 -3.8405  1.7359
  752MOL0     O 1386   3.680   4.281   3.152 -0.0296  0.2728  0.4160
  752MOL0     C 1387   3.684   4.302   3.271 -0.2081 -0.3272 -0.6156
  752MOL0     O 1388   3.577   4.303   3.358 -0.0350  1.1020 -0.2756
  752MOL0     C 1389   3.448   4.295   3.316  0.1731  0.4061  0.9280
  752MOL0     C 1390   3.367   4.215   3.390  0.7469 -0.0394  0.0929
  752MOL0     C 1391   3.227   4.184   3.354  0.1250 -0.3864 -0.9719
  752MOL0     C 1392   3.178   4.243   3.239 -0.2751  0.3885  0.2269
  752MOL0     O 1393   3.043   4.212   3.211 -0.0311 -0.0891  0.8134
  752MOL0     C 1394   3.009   4.253   3.078  0.5509 -0.2102 -0.6744
  752MOL0     C 1395   2.854   4.237   3.062 -0.0093  0.6739 -0.8217
  752MOL0     C 1396   2.788   4.134   3.161 -0.8054  0.0545  0.5173
  752MOL0     C 1397   2.654   4.088   3.108 -0.0755  0.6019  0.0107
  752MOL0     C 1398   2.565   4.027   3.211 -0.0398 -0.0119  0.1183
  752MOL0     C 1399   2.482   4.124   3.297 -0.5886  1.0415 -0.0435
  752MOL0     C 1400   2.368   4.050   3.380  0.4366 -0.0576  0.1025
  752MOL0     C 1401   2.291   4.123   3.491  0.5304 -0.6698 -0.2119
  752MOL0     N 1402   2.199   4.220   3.422  0.2248  0.6936 -0.5291
  752MOL0     C 1403   2.238   4.344   3.403 -0.9476 -1.2762 -0.2728
  752MOL0     C 1404   2.119   4.405   3.358 -0.3865  0.3622  0.1441
  752MOL0     C 1405   2.098   4.552   3.302 -0.2802  0.5755  0.4253
  752MOL0     C 1406   2.186   4.582   3.179  0.1060 -0.5589  0.9127
  752MOL0     C 1407   2.129   4.509   3.046  0.1117 -0.5131  0.1463
  752MOL0     C 1408   2.224   4.388   3.029  0.6031 -0.2054 -1.0267
  752MOL0     O 1409   2.175   4.294   2.938  0.4700  0.1753  0.0026
  752MOL0     C 1410   2.205   4.162   2.945  0.5305  0.2912  0.2729
  752MOL0     C 1411   2.132   4.075   3.026  0.2274  0.5510  0.0146
  752MOL0     C 1412   2.164   3.937   3.029 -0.7734  0.2988 -0.7715
  752MOL0     C 1413   2.077   3.852   3.123  0.3505 -0.1629  0.4187
  752MOL0     C 1414   2.272   3.891   2.949  0.2978 -0.0570 -0.5583
  752MOL0     C 1415   2.303   3.751   2.933  0.7900 -0.0339  0.7175
  752MOL0     O 1416   2.430   3.708   2.949 -0.7698 -0.2669 -0.1852
  752MOL0     C 1417   2.468   3.586   2.904  1.0412  0.6863 -0.1122
  752MOL0     C 1418   2.497   3.568   2.767  0.4737 -0.0456 -0.1511
  752MOL0     C 1419   2.570   3.455   2.726  0.8070  0.4323  0.2895
  752MOL0     C 1420   2.600   3.360   2.817  0.6801  0.4324 -0.0982
  752MOL0     O 1421   2.668   3.258   2.752 -0.5092  0.0229 -0.0332
  752MOL0     C 1422   2.772   3.208   2.831 -0.6703  0.2010 -0.4294
  752MOL0     C 1423   2.905   3.185   2.759 -0.2571 -0.3408  0.2748
  752MOL0     C 1424   2.990   3.314   2.746  0.3730  0.1178 -1.0263
  752MOL0     C 1425   3.110   3.285   2.667  0.7121 -0.2476  0.1033
  752MOL0     C 1426   3.211   3.398   2.669 -0.9767 -0.0533 -0.6441
  752MOL0     C 1427   3.169   3.511   2.571  0.8834  0.3106  0.0279
  752MOL0     C 1428   3.273   3.623   2.577 -0.5893 -0.0080 -0.2679
  752MOL0     C 1429   3.230   3.733   2.485 -0.1244  0.5773  0.3964
  752MOL0    Cl 1430   3.243   3.659   2.322 -0.1596 -0.0215 -0.0140
  752MOL0     C 1431   2.555   3.370   2.954 -0.9332  0.4310 -0.1083
  752MOL0     C 1432   2.497   3.486   2.997  0.9874  0.4245 -0.3944
  752MOL0     O 1433   2.199   3.681   2.911 -0.6864  0.7536 -0.2727
  752MOL0     C 1434   2.347   3.985   2.879  0.1821  0.5260  0.2448
  752MOL0     C 1435   2.305   4.113   2.868  0.8293 -0.3710 -0.0392
  752MOL0     N 1436   2.023   4.310   3.341 -0.4430  0.3113  0.4414
  752MOL0     N 1437   2.069   4.196   3.387  0.3555 -0.2843 -0.1229
  752MOL0     C 1438   3.262   4.330   3.156  0.1131  0.5532  0.3601
  752MOL0     C 1439   3.398   4.354   3.198  0.3533 -0.7656 -0.0352
  752MOL0     C 1440   3.814   4.339   3.334 -0.5644 -0.1447 -0.4581
  752MOL0     C 1441   3.820   4.416   3.456  0.2776 -0.1102  0.3221
  752MOL0     C 1442   3.939   4.463   3.501 -0.5904 -0.5811  0.2058
  752MOL0     C 1443   4.056   4.427   3.437  0.3655  0.7360  0.1157
  752MOL0     O 1444   4.173   4.489   3.474 -0.2870  0.2818  0.0799
  752MOL0     C 1445   4.282   4.491   3.383  0.4497 -0.6691 -0.0981
  752MOL0     C 1446   4.392   4.595   3.426 -0.4531  0.3531 -0.7764
  752MOL0     C 1447   4.458   4.547   3.548 -0.0278  0.1716 -0.2388
  752MOL0     C 1448   4.590   4.625   3.591  0.8088 -0.5741  0.2988
  752MOL0     C 1449   4.697   4.634   3.494 -0.1123  0.1523 -0.6159
  752MOL0     C 1450   4.790   4.658   3.419  0.2162 -0.2509 -0.1333
  752MOL0     C 1451   4.045   4.322   3.342 -0.3888  0.7158 -0.2839
  752MOL0     C 1452   3.931   4.280   3.290  0.4356  0.7131 -0.1273
  752MOL0     H 1453   3.409   4.174   3.481  0.9068  1.8565  0.9179
  752MOL0     H 1454   3.184   4.105   3.414  1.8877 -2.1374 -1.8933
  752MOL0     H 1455   3.024   4.362   3.082 -0.1586 -0.1350  1.7928
  752MOL0     H 1456   3.061   4.199   2.998 -0.8670 -2.8532  0.0789
  752MOL0     H 1457   2.794   4.327   3.074  1.7048  2.3229 -3.6347
  752MOL0     H 1458   2.833   4.199   2.962 -1.2361  0.3290 -0.4496
  752MOL0     H 1459   2.857   4.051   3.175 -0.5714 -0.3018 -2.1752
  752MOL0     H 1460   2.764   4.195   3.249 -0.7610 -0.7684  1.1131
  752MOL0     H 1461   2.611   4.181   3.069  0.8369  0.6182 -1.0075
  752MOL0     H 1462   2.672   4.019   3.025 -2.2145 -1.0551  0.8370
  752MOL0     H 1463   2.494   3.970   3.151  1.4364  0.8248 -2.5580
  752MOL0     H 1464   2.614   3.941   3.257 -1.0580 -0.4645  0.3835
  752MOL0     H 1465   2.560   4.160   3.366  1.7526 -0.1225 -1.9348
  752MOL0     H 1466   2.451   4.203   3.228  1.8467  3.4064  1.3379
  752MOL0     H 1467   2.296   4.006   3.310  0.5359  0.5114 -0.3649
  752MOL0     H 1468   2.406   3.958   3.424 -0.9923  0.0339  1.5934
  752MOL0     H 1469   2.360   4.171   3.561 -0.0684 -1.9920  1.3668
  752MOL0     H 1470   2.229   4.053   3.549 -0.8052  1.7860  1.5040
  752MOL0     H 1471   2.339   4.378   3.423 -1.1682  0.1454 -1.4311
  752MOL0     H 1472   1.993   4.549   3.270  0.9746 -1.0031 -4.2033
  752MOL0     H 1473   2.128   4.619   3.384 -0.3694  0.6701  0.3809
  752MOL0     H 1474   2.295   4.584   3.187  0.2110  0.2231 -0.4125
  752MOL0     H 1475   2.164   4.689   3.178  1.3345 -0.2912 -0.2695
  752MOL0     H 1476   2.163   4.572   2.963  1.2208 -0.6129  0.4966
  752MOL0     H 1477   2.021   4.499   3.035 -0.2925  1.2790  1.9632
  752MOL0     H 1478   2.248   4.341   3.125  1.1998  1.9546 -0.0655
  752MOL0     H 1479   2.321   4.435   3.005  0.6473  2.6419  3.5231
  752MOL0     H 1480   2.050   4.121   3.080  0.4736  2.4648 -1.1193
  752MOL0     H 1481   2.082   3.887   3.227 -1.9278  2.2003 -0.1525
  752MOL0     H 1482   1.972   3.851   3.090  1.2080 -1.1616 -2.5792
  752MOL0     H 1483   2.101   3.746   3.113  4.3372  0.6277 -0.0909
  752MOL0     H 1484   2.464   3.633   2.687 -1.1037 -0.7814 -0.1367
  752MOL0     H 1485   2.585   3.436   2.620 -0.4108 -2.3478  0.5393
  752MOL0     H 1486   2.801   3.283   2.904 -0.6143  0.5274 -0.7851
  752MOL0     H 1487   2.738   3.113   2.873  2.2845 -2.1532 -2.8140
  752MOL0     H 1488   2.957   3.105   2.813  0.0921 -1.0982 -1.1401
  752MOL0     H 1489   2.875   3.145   2.662 -1.3795 -0.7613  0.7807
  752MOL0     H 1490   3.013   3.339   2.850 -3.1235 -0.2119 -0.0471
  752MOL0     H 1491   2.936   3.397   2.699  2.3076 -0.5477 -4.8346
  752MOL0     H 1492   3.150   3.192   2.710 -0.1049 -0.0729  1.2915
  752MOL0     H 1493   3.082   3.261   2.564 -1.1359  0.6561  0.3634
  752MOL0     H 1494   3.311   3.359   2.648  0.3132  0.8700  2.9853
  752MOL0     H 1495   3.217   3.433   2.773 -0.1233  1.0647 -1.0512
  752MOL0     H 1496   3.164   3.464   2.472 -2.7167 -1.2697  0.7977
  752MOL0     H 1497   3.068   3.548   2.588 -0.2207 -1.5776 -1.9789
  752MOL0     H 1498   3.363   3.575   2.538  1.0702  1.5481  1.4284
  752MOL0     H 1499   3.286   3.652   2.681 -1.6572  1.2363 -0.4553
  752MOL0     H 1500   3.294   3.821   2.494 -1.6456  1.7412  0.2418
  752MOL0     H 1501   3.128   3.768   2.500 -0.1383  0.5092  0.4613
  752MOL0     H 1502   2.583   3.284   3.014  2.5541  1.3230 -0.2353
  752MOL0     H 1503   2.457   3.493   3.098  0.5821 -1.9889 -0.3102
  752MOL0     H 1504   2.433   3.949   2.822  0.9362  0.3478  1.4473
  752MOL0     H 1505   2.365   4.183   2.812 -0.2042  1.7442  1.3816
  752MOL0     H 1506   3.223   4.379   3.068 -3.7029  2.0755  2.6197
  752MOL0     H 1507   3.452   4.421   3.132 -2.9485 -0.2608 -2.4878
  752MOL0     H 1508   3.728   4.453   3.500 -0.7554 -2.2179  0.0171
  752MOL0     H 1509   3.947   4.547   3.570 -1.9182  0.4028 -0.7761
  752MOL0     H 1510   4.338   4.398   3.376  0.9903 -0.2451 -2.8990
  752MOL0     H 1511   4.251   4.522   3.282  1.1859  1.2674  0.2146
  752MOL0     H 1512   4.352   4.695   3.446  1.7923  0.5421  4.6414
  752MOL0     H 1513   4.463   4.596   3.343 -0.4697 -2.2168 -0.9111
  752MOL0     H 1514   4.501   4.446   3.538 -3.2239 -1.5677  1.9746
  752MOL0     H 1515   4.397   4.535   3.638  0.4116  1.5004  0.2631
  752MOL0     H 1516   4.621   4.576   3.684  0.5243 -0.9637  0.1945
  752MOL0     H 1517   4.561   4.725   3.623 -0.2474 -0.6564 -0.3359
  752MOL0     H 1518   4.878   4.683   3.363  0.3678 -1.4029 -0.4402
  752MOL0     H 1519   4.131   4.275   3.296 -0.0396  1.0497  0.0176
  752MOL0     H 1520   3.918   4.198   3.220 -4.2395 -1.6656  2.9883
  753MOL0     O 1521  11.123   9.687   4.565 -0.6941  0.3024 -0.2514
  753MOL0     C 1522  11.118   9.655   4.451 -0.2324 -0.1225 -0.2310
  753MOL0     O 1523  11.218   9.587   4.371 -0.0134 -0.3250 -0.3803
  753MOL0     C 1524  11.327   9.546   4.446  0.0001  0.0913  0.7767
  753MOL0     C 1525  11.326   9.438   4.535 -0.1463 -0.1249 -1.7059
  753MOL0     C 1526  11.441   9.379   4.588  0.5154  0.9340  0.4928
  753MOL0     C 1527  11.562   9.428   4.537 -0.2781  0.5355  0.2623
  753MOL0     O 1528  11.685   9.411   4.589  0.3681 -0.2877 -0.8761
  753MOL0     C 1529  11.687   9.389   4.733 -0.3701 -0.3308  0.5210
  753MOL0     C 1530  11.809   9.474   4.770  0.1234 -0.3473  0.2071
  753MOL0     C 1531  11.946   9.397   4.731  0.8806 -0.0695 -0.4196
  753MOL0     C 1532  12.072   9.479   4.775  1.5253 -0.2206  0.6329
  753MOL0     C 1533  12.063   9.628   4.750 -0.0385  0.6100 -0.6478
  753MOL0     C 1534  12.204   9.698   4.777 -0.0777  0.0284  0.1649
  753MOL0     C 1535  12.211   9.723   4.936 -0.3832 -0.1081 -0.5709
  753MOL0     C 1536  12.364   9.706   4.977  0.3583  0.8132  0.2199
  753MOL0     N 1537  12.444   9.794   4.900 -0.8442 -0.5187  0.4640
  753MOL0     C 1538  12.507   9.774   4.782  0.3431 -0.2480 -0.4234
  753MOL0     C 1539  12.559   9.899   4.750 -0.2371 -0.0622 -0.2266
  753MOL0     C 1540  12.641   9.944   4.627  0.5534 -0.7517  0.3321
  753MOL0     C 1541  12.652   9.839   4.524  0.0131 -0.6369 -0.0504
  753MOL0     C 1542  12.718   9.872   4.399  1.4104 -1.3921  0.6675
  753MOL0     C 1543  12.643   9.952   4.308  0.1919  0.0459  0.0946
  753MOL0     O 1544  12.723   9.977   4.194  0.0587 -0.6524  0.1539
  753MOL0     C 1545  12.670  10.066   4.109 -0.0990  0.8720 -0.6241
  753MOL0     C 1546  12.751  10.163   4.058 -0.0771 -0.5631 -0.8389
  753MOL0     C 1547  12.701  10.264   3.981 -1.7621  1.1337 -0.3508
  753MOL0     C 1548  12.789  10.384   3.966  0.1404  0.6409 -0.0473
  753MOL0     C 1549  12.573  10.258   3.928  1.0316  0.1345  0.2086
  753MOL0     C 1550  12.504  10.361   3.835 -0.5852  0.6338  0.6796
  753MOL0     O 1551  12.551  10.483   3.846 -0.7666 -0.1032  0.1803
  753MOL0     C 1552  12.506  10.599   3.781 -0.5818 -0.3474 -0.3026
  753MOL0     C 1553  12.376  10.616   3.731  1.3917 -0.2422  1.4693
  753MOL0     C 1554  12.339  10.730   3.654 -0.1463  0.2307 -0.8678
  753MOL0     C 1555  12.443  10.823   3.618  0.1216 -0.7543  0.2226
  753MOL0     O 1556  12.404  10.918   3.521  0.8620  0.3569  0.5387
  753MOL0     C 1557  12.367  10.856   3.397  0.9122 -0.2023 -0.5756
  753MOL0     C 1558  12.345  10.966   3.289 -0.1255 -0.4188 -0.7539
  753MOL0     C 1559  12.252  11.084   3.348  0.0700  0.0128 -0.5680
  753MOL0     C 1560  12.100  11.037   3.371 -0.3874  0.7523  0.5678
  753MOL0     C 1561  12.031  11.119   3.473  0.0035 -0.3640 -0.5187
  753MOL0     C 1562  11.981  11.035   3.588  0.1874 -0.3324 -0.4428
  753MOL0     C 1563  12.068  10.954   3.676 -0.1934 -0.6518  0.8421
  753MOL0     C 1564  11.993  10.924   3.810  0.0082 -0.9195  0.1825
  753MOL0    Cl 1565  12.084  10.784   3.879  0.3083  0.1093 -0.0862
  753MOL0     C 1566  12.569  10.812   3.686  0.6011  0.0566  0.1783
  753MOL0     C 1567  12.598  10.707   3.763  0.1278  1.3764 -1.4740
  753MOL0     O 1568  12.422  10.319   3.750  0.0258 -0.1333 -0.4182
  753MOL0     C 1569  12.489  10.151   3.981 -0.9147 -0.2894  0.4277
  753MOL0     C 1570  12.535  10.063   4.076  0.6834  0.4906  0.2862
  753MOL0     N 1571  12.541   9.979   4.856 -0.2309 -0.4721 -0.2137
  753MOL0     N 1572  12.473   9.919   4.947 -0.5640 -0.0340 -0.0642
  753MOL0     C 1573  11.569   9.544   4.455  0.3208  0.2022  0.8002
  753MOL0     C 1574  11.444   9.600   4.407 -0.2154  0.3265  0.9488
  753MOL0     C 1575  10.995   9.668   4.381  0.3805  0.9980  0.2631
  753MOL0     C 1576  10.905   9.767   4.415 -0.2350 -0.3250 -0.2916
  753MOL0     C 1577  10.778   9.769   4.362 -0.6629  0.8394  0.2411
  753MOL0     C 1578  10.747   9.684   4.245 -0.0640  0.4717 -0.5355
  753MOL0     O 1579  10.636   9.695   4.154 -0.2425 -0.1196 -0.0742
  753MOL0     C 1580  10.535   9.799   4.175 -1.2292  0.1071 -0.0100
  753MOL0     C 1581  10.582   9.923   4.113  0.5135  0.1546 -0.2487
  753MOL0     C 1582  10.619   9.903   3.963  0.8049 -0.4359  0.5404
  753MOL0     C 1583  10.667  10.030   3.894 -0.8440  0.7709 -0.6086
  753MOL0     C 1584  10.562  10.126   3.861  0.4066  0.1739 -0.3869
  753MOL0     C 1585  10.493  10.222   3.838 -0.9700  0.6134  0.0547
  753MOL0     C 1586  10.844   9.598   4.204  0.2025  0.0010  0.6405
  753MOL0     C 1587  10.966   9.589   4.270  0.1427  0.9736  0.2433
  753MOL0     H 1588  11.229   9.410   4.575 -0.6910  2.9895 -0.6279
  753MOL0     H 1589  11.447   9.290   4.651  0.3765 -1.1020 -2.1886
  753MOL0     H 1590  11.604   9.434   4.789 -1.8089 -1.1003 -0.9108
  753MOL0     H 1591  11.707   9.285   4.759 -1.4421 -1.6708 -3.3576
  753MOL0     H 1592  11.804   9.571   4.721  0.9817  0.9949  2.5920
  753MOL0     H 1593  11.795   9.509   4.873  0.1107  0.9418 -0.2128
  753MOL0     H 1594  11.947   9.298   4.777 -0.3556 -1.1928 -2.6110
  753MOL0     H 1595  11.956   9.378   4.624 -1.3089 -2.2830 -0.3237
  753MOL0     H 1596  12.082   9.463   4.883 -2.0412  1.7291  1.4230
  753MOL0     H 1597  12.161   9.441   4.725  0.7903  3.2111 -3.9076
  753MOL0     H 1598  12.046   9.646   4.643  0.9398 -0.1712 -0.9518
  753MOL0     H 1599  11.992   9.678   4.817  4.0889 -0.5898  5.4065
  753MOL0     H 1600  12.282   9.632   4.738  1.8238  2.5846 -0.5580
  753MOL0     H 1601  12.210   9.796   4.730  3.5444 -0.6004 -0.9859
  753MOL0     H 1602  12.177   9.826   4.952 -0.3037 -0.5201  3.1599
  753MOL0     H 1603  12.151   9.650   4.992 -1.7460 -0.0349 -1.8872
  753MOL0     H 1604  12.395   9.602   4.962 -1.8141  0.4083 -2.0899
  753MOL0     H 1605  12.390   9.728   5.081 -1.3546  3.5040  0.1865
  753MOL0     H 1606  12.499   9.686   4.719  2.4567 -1.3238  0.6753
  753MOL0     H 1607  12.585  10.029   4.586 -1.0521 -0.8450  2.2028
  753MOL0     H 1608  12.742   9.973   4.657  0.9165  0.9882 -2.1474
  753MOL0     H 1609  12.554   9.801   4.494  0.3224 -1.2664 -0.2713
  753MOL0     H 1610  12.708   9.763   4.579 -1.9631 -0.1692  2.8408
  753MOL0     H 1611  12.734   9.781   4.341 -0.5576 -1.7073  0.5403
  753MOL0     H 1612  12.810   9.928   4.416  0.9716 -0.2188 -0.5956
  753MOL0     H 1613  12.625  10.051   4.352 -0.9988 -1.0003  2.0784
  753MOL0     H 1614  12.546   9.904   4.304 -0.9975  2.2105  1.1446
  753MOL0     H 1615  12.854  10.155   4.092 -0.6196 -1.8296  0.6395
  753MOL0     H 1616  12.888  10.344   3.988 -0.7543 -0.9307  1.3275
  753MOL0     H 1617  12.795  10.437   3.870 -1.5597  0.6287 -0.1874
  753MOL0     H 1618  12.762  10.464   4.035 -1.9079 -1.7987  2.1907
  753MOL0     H 1619  12.285  10.560   3.747 -0.4252  2.3274  0.7451
  753MOL0     H 1620  12.242  10.732   3.606 -0.3490  0.8212 -0.4498
  753MOL0     H 1621  12.442  10.790   3.353  2.8946  1.4513  0.1274
  753MOL0     H 1622  12.276  10.799   3.416 -0.2756 -0.2951 -5.3100
  753MOL0     H 1623  12.442  11.010   3.268  0.4243 -1.3175 -0.1649
  753MOL0     H 1624  12.297  10.932   3.197 -1.3317  2.8129 -1.4795
  753MOL0     H 1625  12.252  11.158   3.268 -0.7726  0.0140 -0.5717
  753MOL0     H 1626  12.301  11.114   3.441  2.2862 -1.2909 -1.2386
  753MOL0     H 1627  12.049  11.029   3.274  0.1118 -2.2636  0.4725
  753MOL0     H 1628  12.102  10.931   3.395  0.9836  0.7669  0.6042
  753MOL0     H 1629  11.958  11.184   3.423  0.3741  1.5983  1.3497
  753MOL0     H 1630  12.106  11.191   3.508  2.7180 -2.0666 -2.4420
  753MOL0     H 1631  11.938  11.108   3.658 -1.7602 -0.2327 -1.6869
  753MOL0     H 1632  11.889  10.981   3.564  0.7474 -1.8376  0.6538
  753MOL0     H 1633  12.163  11.004   3.694  0.8882 -1.5764 -1.7627
  753MOL0     H 1634  12.096  10.855   3.638  1.6293  0.0795  0.2061
  753MOL0     H 1635  11.889  10.895   3.792 -0.3188 -0.3774  1.1202
  753MOL0     H 1636  11.995  11.013   3.874 -0.7809  1.5152 -2.9284
  753MOL0     H 1637  12.646  10.887   3.674  0.1388  0.3583 -1.1049
  753MOL0     H 1638  12.693  10.714   3.815 -0.2215  2.6461 -0.9572
  753MOL0     H 1639  12.382  10.154   3.960 -0.6596 -5.2526 -3.2406
  753MOL0     H 1640  12.470   9.987   4.118  2.1408  0.0051  1.7767
  753MOL0     H 1641  11.661   9.582   4.413 -0.9231  1.9447 -0.5068
  753MOL0     H 1642  11.435   9.687   4.342 -0.8168  0.1211  0.7516
  753MOL0     H 1643  10.937   9.841   4.488 -1.9270 -0.3381  0.5103
  753MOL0     H 1644  10.708   9.848   4.384 -1.1302  0.9574 -1.5317
  753MOL0     H 1645  10.444   9.755   4.133  1.0671 -4.4712 -0.7776
  753MOL0     H 1646  10.526   9.824   4.281  2.1252  3.1502 -0.2448
  753MOL0     H 1647  10.671   9.948   4.172 -0.8092  0.2784  1.7593
  753MOL0     H 1648  10.514  10.008   4.123 -2.4959 -2.2231  0.7221
  753MOL0     H 1649  10.535   9.869   3.902 -1.3405  0.3055  2.9262
  753MOL0     H 1650  10.702   9.832   3.948  2.9996  2.5069 -3.0731
  753MOL0     H 1651  10.721  10.003   3.803 -1.6207  1.7598 -1.3733
  753MOL0     H 1652  10.741  10.080   3.958 -0.8280 -0.3571  0.2924
  753MOL0     H 1653  10.440  10.313   3.817 -3.7808 -1.1651 -1.0067
  753MOL0     H 1654  10.835   9.533   4.118  2.4334  0.7686 -0.2376
  753MOL0     H 1655  11.040   9.518   4.232 -3.4463 -1.5321 -2.7988
  754MOL0     O 1656   2.237   9.015   4.963 -0.6454 -0.1571  0.0932
  754MOL0     C 1657   2.362   9.045   4.959  0.1605 -0.0544  0.5753
  754MOL0     O 1658   2.417   9.094   4.844 -0.2758  0.8686 -0.6119
  754MOL0     C 1659   2.328   9.130   4.751  0.8096  0.4063  0.6960
  754MOL0     C 1660   2.315   9.049   4.631  1.0120  0.6597  0.1029
  754MOL0     C 1661   2.240   9.092   4.518 -0.1169  0.0601 -0.1152
  754MOL0     C 1662   2.178   9.216   4.527  0.0570  0.3681 -0.4224
  754MOL0     O 1663   2.093   9.267   4.434  1.2235 -1.7168 -0.0256
  754MOL0     C 1664   2.029   9.200   4.327  0.4474 -0.6978 -0.5784
  754MOL0     C 1665   1.934   9.295   4.245  0.1698  0.5184 -0.4030
  754MOL0     C 1666   1.787   9.289   4.304  0.8704 -0.3796 -0.2176
  754MOL0     C 1667   1.690   9.311   4.194 -0.0262  0.5167  0.7103
  754MOL0     C 1668   1.538   9.334   4.233  0.3374 -0.1341  0.1810
  754MOL0     C 1669   1.490   9.237   4.338  0.2489  0.6925  0.3625
  754MOL0     C 1670   1.355   9.284   4.407  0.6594 -0.4190  0.8748
  754MOL0     C 1671   1.234   9.290   4.315  0.8564 -0.0899 -0.3646
  754MOL0     N 1672   1.125   9.347   4.408 -0.0177 -0.1402  1.1198
  754MOL0     C 1673   1.063   9.282   4.511 -0.8354 -0.3637 -0.0431
  754MOL0     C 1674   1.016   9.373   4.592  0.9842  0.0810 -0.6298
  754MOL0     C 1675   0.926   9.351   4.710 -0.7839 -0.3198  0.1700
  754MOL0     C 1676   1.003   9.271   4.818  0.2549 -0.1700  0.4993
  754MOL0     C 1677   0.914   9.269   4.949  0.3538  0.3708  0.7775
  754MOL0     C 1678   0.981   9.172   5.054 -0.6820  0.3248 -0.4065
  754MOL0     O 1679   0.917   9.163   5.188 -0.8155 -0.3300 -0.2064
  754MOL0     C 1680   0.790   9.186   5.188  1.5224 -0.2411  0.4051
  754MOL0     C 1681   0.732   9.313   5.218  0.3305 -1.1529 -0.8515
  754MOL0     C 1682   0.595   9.331   5.243 -0.4638 -0.7180  0.4156
  754MOL0     C 1683   0.547   9.475   5.259  0.0032  0.1800  0.1342
  754MOL0     C 1684   0.511   9.223   5.229 -0.1943  0.5459  0.6281
  754MOL0     C 1685   0.364   9.240   5.241 -0.5431  0.7866 -0.7430
  754MOL0     O 1686   0.301   9.138   5.187  0.0925  0.4460 -0.3354
  754MOL0     C 1687   0.167   9.137   5.183 -0.5550  1.1293  0.0132
  754MOL0     C 1688   0.099   9.241   5.122  0.7569 -0.4344  0.1118
  754MOL0     C 1689  -0.045   9.234   5.118 -1.2277 -0.0284  0.6411
  754MOL0     C 1690  -0.112   9.128   5.165 -0.2114 -0.2704  0.1343
  754MOL0     O 1691  -0.248   9.144   5.164 -0.0268  0.6390  0.9775
  754MOL0     C 1692  -0.327   9.025   5.180  0.0985  0.4160 -1.1881
  754MOL0     C 1693  -0.459   9.068   5.128  0.2569 -0.3613 -0.0006
  754MOL0     C 1694  -0.579   8.978   5.184 -0.8622  0.0688  0.1951
  754MOL0     C 1695  -0.589   8.836   5.133  1.2219 -0.4641 -1.1057
  754MOL0     C 1696  -0.706   8.778   5.223  0.0700 -0.7179 -0.1215
  754MOL0     C 1697  -0.850   8.819   5.187 -0.3911  0.7695 -0.3552
  754MOL0     C 1698  -0.952   8.696   5.168  0.2470  0.9315  0.8372
  754MOL0     C 1699  -0.971   8.613   5.297  0.1282 -0.4853  0.2520
  754MOL0    Cl 1700  -1.071   8.697   5.410  0.2462 -0.2574  0.1097
  754MOL0     C 1701  -0.043   9.014   5.200 -0.1237  0.9689 -0.7133
  754MOL0     C 1702   0.097   9.017   5.207 -0.6369  0.5603 -0.2944
  754MOL0     O 1703   0.313   9.320   5.321 -0.9169 -0.3718  0.6785
  754MOL0     C 1704   0.572   9.099   5.206  0.8745 -0.1154  0.8667
  754MOL0     C 1705   0.704   9.082   5.194 -0.4752 -0.2929  0.1193
  754MOL0     N 1706   1.043   9.501   4.544  0.2575  0.2746 -0.6268
  754MOL0     N 1707   1.119   9.481   4.436  0.3606 -0.6922 -0.3509
  754MOL0     C 1708   2.190   9.291   4.646  0.3919 -0.5846 -0.1844
  754MOL0     C 1709   2.255   9.252   4.762 -0.6839 -0.2378  0.2780
  754MOL0     C 1710   2.448   9.015   5.081 -0.0928 -0.1665  0.4186
  754MOL0     C 1711   2.395   8.950   5.187 -0.6069 -0.4248 -0.5919
  754MOL0     C 1712   2.482   8.927   5.297 -0.2062  0.2719  0.0172
  754MOL0     C 1713   2.606   8.983   5.313 -0.8291  0.1181  0.6430
  754MOL0     O 1714   2.682   8.984   5.424 -1.0420 -0.0278 -0.7572
  754MOL0     C 1715   2.662   8.872   5.511  0.6048  0.2799  0.7389
  754MOL0     C 1716   2.776   8.865   5.608  0.1855 -0.7095 -0.0444
  754MOL0     C 1717   2.764   8.735   5.687  0.4427 -0.0308  0.7413
  754MOL0     C 1718   2.850   8.739   5.818 -0.3087 -0.0134  0.4116
  754MOL0     C 1719   2.994   8.752   5.789 -0.2546 -1.6080  0.2105
  754MOL0     C 1720   3.107   8.769   5.765 -0.3881 -0.5252  0.1392
  754MOL0     C 1721   2.659   9.049   5.203  0.5643 -0.9212 -0.8622
  754MOL0     C 1722   2.582   9.063   5.083  0.1343  0.3650 -1.4020
  754MOL0     H 1723   2.369   8.955   4.629  2.8240  1.5983  1.3288
  754MOL0     H 1724   2.236   9.029   4.431  1.6746  1.3346 -1.1894
  754MOL0     H 1725   2.108   9.158   4.264  0.0840 -5.5848  1.7317
  754MOL0     H 1726   1.968   9.125   4.378  1.0695  0.1925  1.5875
  754MOL0     H 1727   1.978   9.394   4.259 -1.6550  1.2699  0.3636
  754MOL0     H 1728   1.927   9.266   4.140 -0.9000  1.1128 -0.5185
  754MOL0     H 1729   1.765   9.199   4.362  1.5173  0.1282  0.8566
  754MOL0     H 1730   1.779   9.374   4.373  2.4009  0.3103 -0.8439
  754MOL0     H 1731   1.716   9.400   4.135 -2.2771  0.8586  0.1438
  754MOL0     H 1732   1.680   9.222   4.131  2.8624 -1.2240  2.4710
  754MOL0     H 1733   1.522   9.441   4.249  0.1769 -0.0509 -0.5126
  754MOL0     H 1734   1.477   9.320   4.143 -2.6094 -0.1662  2.0567
  754MOL0     H 1735   1.468   9.145   4.283 -1.3442  0.8949  0.5962
  754MOL0     H 1736   1.564   9.215   4.416 -1.2052  1.7380  2.1304
  754MOL0     H 1737   1.333   9.215   4.490 -3.1443 -2.9634 -1.9126
  754MOL0     H 1738   1.370   9.385   4.445  1.7948 -1.6221  3.9713
  754MOL0     H 1739   1.212   9.192   4.272 -1.3863  0.0305  0.3309
  754MOL0     H 1740   1.250   9.364   4.236 -0.2321  3.6058  2.5495
  754MOL0     H 1741   1.057   9.174   4.504  2.6211 -0.6312 -0.4428
  754MOL0     H 1742   0.884   9.445   4.748 -1.4846  0.2072 -1.7739
  754MOL0     H 1743   0.840   9.293   4.677 -2.2014  1.9174 -0.3402
  754MOL0     H 1744   1.094   9.321   4.852  1.2698 -0.5186 -1.5673
  754MOL0     H 1745   1.031   9.172   4.780  0.0864 -0.1751  0.3845
  754MOL0     H 1746   0.820   9.223   4.920  1.7238 -1.9901 -0.2562
  754MOL0     H 1747   0.894   9.367   4.992 -0.1303  1.6522 -2.1204
  754MOL0     H 1748   1.086   9.200   5.062  0.3200 -2.9219 -0.9420
  754MOL0     H 1749   0.994   9.071   5.014  1.8478  0.8828 -1.1810
  754MOL0     H 1750   0.796   9.399   5.238 -0.5103 -1.0890  2.0590
  754MOL0     H 1751   0.631   9.542   5.236  1.3843 -1.1292  1.1372
  754MOL0     H 1752   0.479   9.500   5.178 -0.4916 -2.9306 -0.5484
  754MOL0     H 1753   0.500   9.493   5.356  3.6346  2.3134  1.7109
  754MOL0     H 1754   0.147   9.324   5.071 -1.8954  0.0246 -1.8904
  754MOL0     H 1755  -0.110   9.316   5.090 -2.0304 -1.0846 -0.6944
  754MOL0     H 1756  -0.287   8.942   5.121  4.4176  2.6878 -1.8739
  754MOL0     H 1757  -0.347   9.010   5.286 -0.7044 -2.4707 -1.6617
  754MOL0     H 1758  -0.484   9.172   5.150  2.7598  0.3862 -0.4073
  754MOL0     H 1759  -0.459   9.064   5.019 -1.1443 -0.5899 -0.0133
  754MOL0     H 1760  -0.671   9.032   5.158  1.2617  3.7405 -0.4451
  754MOL0     H 1761  -0.582   8.986   5.293  3.0045  4.0441  0.3261
  754MOL0     H 1762  -0.613   8.827   5.027  0.3151 -0.3858 -0.9136
  754MOL0     H 1763  -0.491   8.787   5.141  0.1987 -2.3790  1.0263
  754MOL0     H 1764  -0.695   8.797   5.330 -3.1012  0.1550  0.1590
  754MOL0     H 1765  -0.692   8.671   5.203  2.7345 -0.0450 -2.5038
  754MOL0     H 1766  -0.882   8.876   5.274 -0.1185  2.2314 -1.1894
  754MOL0     H 1767  -0.858   8.859   5.085 -2.7076 -0.4120 -0.7215
  754MOL0     H 1768  -0.922   8.629   5.087 -3.5642  1.6325 -1.3500
  754MOL0     H 1769  -1.054   8.731   5.149 -1.4321 -2.6902  2.2686
  754MOL0     H 1770  -0.882   8.602   5.358  1.3102  2.1095 -0.8752
  754MOL0     H 1771  -1.017   8.517   5.273  0.9598 -1.0396  0.8492
  754MOL0     H 1772  -0.096   8.922   5.224  0.8388  0.7310  0.6048
  754MOL0     H 1773   0.149   8.927   5.238 -2.9077 -1.7470 -2.6127
  754MOL0     H 1774   0.499   9.018   5.200  2.0293 -1.2194  1.1396
  754MOL0     H 1775   0.742   8.980   5.184  2.8115  0.7236  0.7742
  754MOL0     H 1776   2.135   9.384   4.659  0.6029 -0.7485  2.4639
  754MOL0     H 1777   2.277   9.319   4.844  1.4490 -0.7347  0.1893
  754MOL0     H 1778   2.288   8.934   5.198 -0.7322  1.5236  2.1524
  754MOL0     H 1779   2.435   8.871   5.377 -2.0503  0.7013 -0.7263
  754MOL0     H 1780   2.576   8.896   5.574 -0.8184  1.3074 -1.4602
  754MOL0     H 1781   2.639   8.779   5.458 -1.0618  0.5434  0.9357
  754MOL0     H 1782   2.780   8.959   5.664 -4.7530  1.4879 -2.6890
  754MOL0     H 1783   2.860   8.861   5.538 -0.0819  4.8881 -1.1445
  754MOL0     H 1784   2.785   8.654   5.617 -1.7831  0.1539 -0.2357
  754MOL0     H 1785   2.658   8.739   5.715  0.0868  1.8735 -0.6501
  754MOL0     H 1786   2.836   8.645   5.873 -2.9047 -0.0322 -0.1147
  754MOL0     H 1787   2.818   8.814   5.890  0.1638 -2.2168  3.0981
  754MOL0     H 1788   3.211   8.783   5.747 -1.2092  3.2926 -2.7853
  754MOL0     H 1789   2.751   9.107   5.211 -1.2504  2.5515 -2.6913
  754MOL0     H 1790   2.620   9.126   5.004  2.2786  0.9403 -0.0116
  755MOL0     O 1791   5.403   3.997   0.489  0.3586 -0.2673  0.2993
  755MOL0     C 1792   5.419   3.877   0.460 -0.4780  0.9473  0.4530
  755MOL0     O 1793   5.333   3.781   0.501  0.8433  0.4700  0.8418
  755MOL0     C 1794   5.249   3.800   0.611 -0.6277  0.1513  0.2438
  755MOL0     C 1795   5.115   3.848   0.602 -0.3618  0.2666  0.3665
  755MOL0     C 1796   5.039   3.821   0.713  0.6896 -0.1203  0.8333
  755MOL0     C 1797   5.086   3.780   0.841 -0.9137 -0.2724  0.3939
  755MOL0     O 1798   5.010   3.776   0.954 -0.6060 -0.4372  0.2536
  755MOL0     C 1799   4.978   3.909   1.000  0.1707  0.3483  0.2780
  755MOL0     C 1800   5.053   3.938   1.132  0.1152 -0.8934  0.4456
  755MOL0     C 1801   4.967   3.886   1.246 -0.5654 -0.2715  0.3003
  755MOL0     C 1802   4.958   3.734   1.273  0.4782 -0.6832  0.0663
  755MOL0     C 1803   4.844   3.696   1.373  0.4214 -0.3645  1.2113
  755MOL0     C 1804   4.709   3.658   1.295 -0.4108 -0.8982 -0.0193
  755MOL0     C 1805   4.613   3.609   1.402 -0.2747  0.9252 -1.8061
  755MOL0     C 1806   4.462   3.633   1.378  0.4849  0.2360 -0.0445
  755MOL0     N 1807   4.427   3.780   1.354 -0.6495  0.2091  0.3455
  755MOL0     C 1808   4.445   3.883   1.442  0.6683 -0.2438 -1.2444
  755MOL0     C 1809   4.421   3.998   1.375  0.1397 -1.0220 -0.5396
  755MOL0     C 1810   4.440   4.134   1.431  0.8276 -0.5706 -0.1669
  755MOL0     C 1811   4.588   4.168   1.445 -0.1918 -0.6163 -1.1628
  755MOL0     C 1812   4.656   4.138   1.582 -0.2657 -0.0991  0.5689
  755MOL0     C 1813   4.807   4.119   1.561 -1.5414  0.8913 -0.0688
  755MOL0     O 1814   4.882   4.116   1.685  0.5913  1.0304  0.6544
  755MOL0     C 1815   4.878   3.993   1.753 -0.2071 -0.6230  0.1509
  755MOL0     C 1816   4.955   3.890   1.704 -0.0589 -0.0306 -0.4506
  755MOL0     C 1817   4.970   3.770   1.778  0.7861  0.4874  1.0758
  755MOL0     C 1818   5.062   3.663   1.725 -0.6444 -0.4144 -0.3184
  755MOL0     C 1819   4.921   3.763   1.907  0.4263 -0.0238 -0.9316
  755MOL0     C 1820   4.953   3.650   2.002 -0.6633  0.4605 -1.3665
  755MOL0     O 1821   4.869   3.637   2.094  0.0001 -0.4127 -0.1635
  755MOL0     C 1822   4.872   3.548   2.196  1.3044 -0.9920  0.4429
  755MOL0     C 1823   4.745   3.550   2.254  0.6843 -0.7865  0.1759
  755MOL0     C 1824   4.721   3.467   2.362 -0.3250 -0.3558 -0.0419
  755MOL0     C 1825   4.815   3.380   2.418 -1.0207 -1.2218 -0.6373
  755MOL0     O 1826   4.766   3.291   2.519 -0.6869  0.1136 -0.2308
  755MOL0     C 1827   4.858   3.186   2.566 -0.4556  0.3953  0.0741
  755MOL0     C 1828   4.769   3.092   2.654 -0.4011  0.0268 -0.7154
  755MOL0     C 1829   4.704   2.984   2.558  0.3960 -0.7879 -0.4793
  755MOL0     C 1830   4.634   2.872   2.628  0.2717 -0.2698 -0.2357
  755MOL0     C 1831   4.591   2.762   2.534 -0.2393  0.2506  0.3220
  755MOL0     C 1832   4.511   2.663   2.623 -0.1136 -0.6956 -1.0611
  755MOL0     C 1833   4.507   2.529   2.560  0.7192 -0.6637 -0.1303
  755MOL0     C 1834   4.371   2.448   2.610 -0.5919 -0.4786  1.0284
  755MOL0    Cl 1835   4.347   2.313   2.504  0.0710 -0.4097  0.6272
  755MOL0     C 1836   4.933   3.372   2.353 -0.1034 -0.7945  0.0788
  755MOL0     C 1837   4.966   3.464   2.249 -0.0509  0.3203 -0.1197
  755MOL0     O 1838   5.056   3.590   1.993  0.6404 -0.0574 -0.0330
  755MOL0     C 1839   4.832   3.863   1.947 -0.3105  0.1433 -0.4640
  755MOL0     C 1840   4.817   3.977   1.874  0.7119  0.4860  0.7249
  755MOL0     N 1841   4.365   3.958   1.252 -0.3965 -0.1700 -0.4952
  755MOL0     N 1842   4.385   3.833   1.237 -0.1883  0.0798  1.0006
  755MOL0     C 1843   5.222   3.739   0.850 -0.2521 -0.9263 -0.6477
  755MOL0     C 1844   5.302   3.748   0.737  0.6505  0.1966  0.3624
  755MOL0     C 1845   5.538   3.826   0.375 -0.0258 -0.9253  0.5893
  755MOL0     C 1846   5.656   3.894   0.358 -0.5105  0.2706 -0.3654
  755MOL0     C 1847   5.747   3.857   0.257  0.7479 -0.3407 -1.1417
  755MOL0     C 1848   5.729   3.739   0.177  0.5346  0.1600  0.1912
  755MOL0     O 1849   5.834   3.692   0.090  0.1712  0.0843  0.4593
  755MOL0     C 1850   5.970   3.722   0.122 -0.6920  1.4798 -0.3966
  755MOL0     C 1851   6.086   3.659   0.046 -0.7389  0.9782 -0.0769
  755MOL0     C 1852   6.221   3.718   0.101 -0.0559 -0.5533 -0.0718
  755MOL0     C 1853   6.350   3.680   0.041  0.4519 -0.1068  0.0525
  755MOL0     C 1854   6.470   3.744   0.095  0.4059  0.0552  0.5463
  755MOL0     C 1855   6.572   3.789   0.135 -0.0176  0.9096 -0.5338
  755MOL0     C 1856   5.613   3.664   0.197  0.7197 -0.4186 -0.1774
  755MOL0     C 1857   5.526   3.707   0.302 -0.0508 -0.6643  1.4894
  755MOL0     H 1858   5.065   3.887   0.515  0.2753 -2.0357 -1.1115
  755MOL0     H 1859   4.933   3.846   0.709  0.9567  1.1423  1.2571
  755MOL0     H 1860   5.006   3.981   0.923  0.3858 -1.2744 -1.2268
  755MOL0     H 1861   4.870   3.912   1.014  0.3818 -0.1060  2.3471
  755MOL0     H 1862   5.155   3.898   1.126 -0.3591 -2.1230  0.2418
  755MOL0     H 1863   5.058   4.047   1.144  0.5751 -0.8822  0.1995
  755MOL0     H 1864   5.010   3.925   1.339  0.9473 -0.3652 -0.3252
  755MOL0     H 1865   4.869   3.935   1.252 -0.3510  0.3434 -0.9472
  755MOL0     H 1866   4.939   3.689   1.175 -1.9440  0.6919 -0.1852
  755MOL0     H 1867   5.050   3.686   1.308 -0.1987 -3.5128 -1.7059
  755MOL0     H 1868   4.878   3.613   1.437  0.3719 -0.1776  1.4829
  755MOL0     H 1869   4.832   3.782   1.439 -1.0775 -0.0677  0.5833
  755MOL0     H 1870   4.662   3.746   1.249  3.1199  1.1037 -0.1709
  755MOL0     H 1871   4.707   3.585   1.214 -3.6797 -1.1024  0.1078
  755MOL0     H 1872   4.620   3.502   1.423 -0.6120  1.1445 -0.4923
  755MOL0     H 1873   4.627   3.668   1.493  0.3015  2.0677 -2.6003
  755MOL0     H 1874   4.399   3.593   1.458  0.9437  1.4975  0.9636
  755MOL0     H 1875   4.439   3.577   1.286  0.0267  0.3703 -0.0170
  755MOL0     H 1876   4.461   3.874   1.549  2.6222 -1.1098 -1.5786
  755MOL0     H 1877   4.407   4.200   1.351  2.1889  1.3642  0.7943
  755MOL0     H 1878   4.378   4.140   1.521 -0.6030 -0.3168 -1.1429
  755MOL0     H 1879   4.608   4.272   1.418 -0.7334 -0.2390 -0.1435
  755MOL0     H 1880   4.642   4.108   1.371  2.5279 -0.7744  0.8075
  755MOL0     H 1881   4.600   4.065   1.641 -2.6062  1.2957  0.1816
  755MOL0     H 1882   4.642   4.226   1.646 -3.9240 -0.7261  0.8062
  755MOL0     H 1883   4.836   4.210   1.508 -0.4273  1.3509  1.2726
  755MOL0     H 1884   4.830   4.028   1.505  1.1405  2.9362 -2.6850
  755MOL0     H 1885   5.002   3.895   1.606 -0.1231  1.0069 -0.4316
  755MOL0     H 1886   5.070   3.669   1.616 -0.0377  0.1064 -0.2497
  755MOL0     H 1887   5.159   3.686   1.772 -1.5709  1.0776  0.9575
  755MOL0     H 1888   5.023   3.563   1.744 -2.0702 -0.3281 -2.4821
  755MOL0     H 1889   4.671   3.621   2.221  0.7956 -0.7577 -0.0129
  755MOL0     H 1890   4.620   3.462   2.402 -0.8913 -0.5178 -1.4505
  755MOL0     H 1891   4.914   3.133   2.489  0.5078 -2.2259  2.4521
  755MOL0     H 1892   4.931   3.234   2.631  3.8618 -1.5306 -2.9075
  755MOL0     H 1893   4.849   3.053   2.718  0.5646  1.4071 -1.0355
  755MOL0     H 1894   4.703   3.157   2.713 -1.3387 -0.7040 -0.9387
  755MOL0     H 1895   4.782   2.932   2.502  1.8379  1.6455 -0.8717
  755MOL0     H 1896   4.637   3.033   2.487  1.8747  0.0258 -1.3656
  755MOL0     H 1897   4.694   2.831   2.710  0.0455 -2.4199 -1.1036
  755MOL0     H 1898   4.545   2.909   2.680  1.2820  0.7018  0.8666
  755MOL0     H 1899   4.677   2.710   2.491 -1.5424 -0.5385 -1.4962
  755MOL0     H 1900   4.546   2.816   2.450 -0.0718 -0.8225 -0.4845
  755MOL0     H 1901   4.561   2.635   2.716 -0.7731  0.0571 -0.4702
  755MOL0     H 1902   4.420   2.716   2.654  2.6959  2.6581  2.5104
  755MOL0     H 1903   4.597   2.467   2.570  0.6458 -0.9491 -1.1051
  755MOL0     H 1904   4.488   2.542   2.453  1.9880  0.3999 -0.2477
  755MOL0     H 1905   4.281   2.507   2.592 -0.2676 -0.7467 -1.8487
  755MOL0     H 1906   4.367   2.429   2.718  1.0191  2.3306  1.6809
  755MOL0     H 1907   5.013   3.306   2.386 -0.4606 -2.6637 -2.5040
  755MOL0     H 1908   5.063   3.452   2.202 -0.8255 -0.0134 -1.7109
  755MOL0     H 1909   4.788   3.876   2.044  0.8511 -0.3962  0.1599
  755MOL0     H 1910   4.765   4.060   1.920 -1.7946 -0.7944  0.3871
  755MOL0     H 1911   5.271   3.713   0.943  1.2533 -1.5860 -1.5800
  755MOL0     H 1912   5.407   3.722   0.744  0.6487 -1.2177 -3.0459
  755MOL0     H 1913   5.671   3.986   0.413 -0.6650  2.0149 -3.0218
  755MOL0     H 1914   5.831   3.926   0.264 -0.4056  1.2440 -2.1442
  755MOL0     H 1915   5.986   3.830   0.112  0.0661  1.3422 -0.8033
  755MOL0     H 1916   5.988   3.703   0.228  1.0355 -1.3862 -1.0805
  755MOL0     H 1917   6.084   3.674  -0.062 -0.1697 -0.7149 -0.3637
  755MOL0     H 1918   6.072   3.552   0.065  2.0707  0.7366  1.1740
  755MOL0     H 1919   6.212   3.712   0.210 -0.4576 -0.1039 -0.0748
  755MOL0     H 1920   6.216   3.822   0.067  0.3082 -0.6469 -0.4225
  755MOL0     H 1921   6.335   3.697  -0.066 -1.3455 -1.5551  0.0445
  755MOL0     H 1922   6.363   3.572   0.048  2.4385 -0.0678 -1.8347
  755MOL0     H 1923   6.667   3.832   0.160  1.0768 -0.9625 -1.2977
  755MOL0     H 1924   5.581   3.574   0.145  0.5543 -1.5356  1.7654
  755MOL0     H 1925   5.437   3.647   0.319 -1.2057  0.5500  0.0628
  756MOL0     O 1926   5.032   6.037   6.914 -0.3211 -0.7848  0.9610
  756MOL0     C 1927   5.144   6.022   6.882  0.2592 -0.4220  0.6038
  756MOL0     O 1928   5.216   5.907   6.902  1.0544  0.4916  0.4763
  756MOL0     C 1929   5.172   5.789   6.961  0.4656  0.4528  1.5163
  756MOL0     C 1930   5.040   5.756   6.989 -0.4178  0.4225 -0.2027
  756MOL0     C 1931   5.008   5.628   7.040 -0.2139  0.0371  0.1433
  756MOL0     C 1932   5.109   5.536   7.083  0.1613  0.6525 -0.9490
  756MOL0     O 1933   5.089   5.422   7.151  0.4343 -0.3231 -0.2662
  756MOL0     C 1934   4.993   5.436   7.261 -0.2811  0.3427  0.6943
  756MOL0     C 1935   4.996   5.305   7.327  0.2416 -0.5208  0.1067
  756MOL0     C 1936   4.919   5.200   7.241 -0.4712  0.7160 -0.6213
  756MOL0     C 1937   4.907   5.060   7.312 -0.0784 -0.0945  0.3188
  756MOL0     C 1938   4.863   4.958   7.205  0.7038 -0.7035  0.4497
  756MOL0     C 1939   4.707   4.966   7.177  0.4449  0.3165 -0.2672
  756MOL0     C 1940   4.642   4.829   7.142  0.3158 -0.4875 -0.4813
  756MOL0     C 1941   4.499   4.814   7.201 -1.0524 -0.8509 -0.6738
  756MOL0     N 1942   4.421   4.693   7.156  0.0243  0.7473  0.2770
  756MOL0     C 1943   4.311   4.658   7.233 -0.1148  0.1304  0.0077
  756MOL0     C 1944   4.263   4.550   7.164  0.1626  0.3979  1.1673
  756MOL0     C 1945   4.137   4.477   7.205  0.1210 -0.4703  0.0302
  756MOL0     C 1946   4.058   4.424   7.080  0.0901 -0.0198  0.1991
  756MOL0     C 1947   4.018   4.527   6.976  0.2496  0.3551 -0.5139
  756MOL0     C 1948   3.885   4.595   7.016 -0.9951  0.1112  0.1972
  756MOL0     O 1949   3.877   4.674   7.137 -0.7265 -0.2091 -0.2414
  756MOL0     C 1950   3.953   4.786   7.156 -0.2099  0.1239 -0.4475
  756MOL0     C 1951   3.979   4.816   7.286  0.2564 -0.2019 -0.3444
  756MOL0     C 1952   4.058   4.927   7.328  1.4193  0.3270 -0.6025
  756MOL0     C 1953   4.107   4.932   7.471 -0.0786  0.0847 -0.5888
  756MOL0     C 1954   4.116   5.005   7.228  0.8734  0.2464 -0.0718
  756MOL0     C 1955   4.215   5.109   7.251 -0.4504 -0.5611 -0.2164
  756MOL0     O 1956   4.225   5.221   7.174  0.3704 -0.2368 -0.0612
  756MOL0     C 1957   4.324   5.307   7.201  0.4211 -0.4884 -0.1084
  756MOL0     C 1958   4.297   5.398   7.307 -0.2126  1.1994  0.3486
  756MOL0     C 1959   4.385   5.487   7.347 -0.2734  0.0117 -0.4271
  756MOL0     C 1960   4.511   5.499   7.282  0.9815 -0.3831 -0.1593
  756MOL0     O 1961   4.604   5.599   7.307 -0.2307 -0.5375 -1.0614
  756MOL0     C 1962   4.572   5.698   7.412 -0.0499 -0.3077  0.0204
  756MOL0     C 1963   4.689   5.777   7.461 -0.0930  0.0796  0.4454
  756MOL0     C 1964   4.641   5.872   7.571 -0.3947 -0.5599 -0.2388
  756MOL0     C 1965   4.752   5.943   7.643 -0.2704 -0.0865 -0.0032
  756MOL0     C 1966   4.695   6.049   7.739  0.5964  0.5445 -0.4375
  756MOL0     C 1967   4.634   6.179   7.682 -0.2508  0.8681  0.2519
  756MOL0     C 1968   4.610   6.282   7.794 -0.1445  0.9314  0.4314
  756MOL0     C 1969   4.586   6.422   7.741  0.7699  0.3781  0.7643
  756MOL0    Cl 1970   4.418   6.446   7.697 -0.1439 -0.7076  0.7561
  756MOL0     C 1971   4.539   5.403   7.185  1.3575 -0.1719 -0.2487
  756MOL0     C 1972   4.444   5.310   7.138 -0.5428  0.5834  0.5717
  756MOL0     O 1973   4.288   5.083   7.339  0.1410 -1.0354 -0.3358
  756MOL0     C 1974   4.077   4.986   7.089 -0.3181  0.6585  0.4875
  756MOL0     C 1975   4.003   4.877   7.049 -0.3207  0.0513 -0.6761
  756MOL0     N 1976   4.338   4.531   7.045 -0.4478 -0.0969 -0.6368
  756MOL0     N 1977   4.440   4.614   7.050  0.3293 -0.0087  0.1135
  756MOL0     C 1978   5.236   5.575   7.064  0.0361  1.0916  0.7707
  756MOL0     C 1979   5.272   5.701   7.009 -0.3602  0.2231 -0.0157
  756MOL0     C 1980   5.229   6.141   6.849 -0.1013 -1.0771  0.0278
  756MOL0     C 1981   5.168   6.266   6.841 -0.1561 -0.5782  0.8654
  756MOL0     C 1982   5.245   6.387   6.823  0.2055 -0.1047 -0.7568
  756MOL0     C 1983   5.386   6.380   6.823 -0.0644  0.0885  0.5579
  756MOL0     O 1984   5.454   6.496   6.800 -0.3076  0.3072 -0.4167
  756MOL0     C 1985   5.440   6.612   6.879 -0.1438  0.8547  0.3024
  756MOL0     C 1986   5.328   6.708   6.843  0.1706  0.1895 -0.1998
  756MOL0     C 1987   5.323   6.735   6.698  0.1298  0.8340  0.1663
  756MOL0     C 1988   5.288   6.878   6.654 -0.1086  0.3112 -0.8497
  756MOL0     C 1989   5.364   6.987   6.712  0.1459  0.0874 -0.9875
  756MOL0     C 1990   5.432   7.083   6.754  0.4663 -0.0408  0.4472
  756MOL0     C 1991   5.445   6.259   6.831  0.9343 -0.8004 -0.5185
  756MOL0     C 1992   5.373   6.142   6.839  0.5570  1.2174  0.1180
  756MOL0     H 1993   4.951   5.818   6.976 -1.0592 -0.7799 -1.8710
  756MOL0     H 1994   4.905   5.598   7.053  0.4864 -3.0453 -0.5712
  756MOL0     H 1995   5.025   5.509   7.336 -2.0608 -1.1071  3.0047
  756MOL0     H 1996   4.896   5.455   7.213  0.7984  1.2216 -1.2364
  756MOL0     H 1997   5.099   5.276   7.348  0.7777  2.4283  2.1373
  756MOL0     H 1998   4.950   5.309   7.426  4.0520  0.5289  2.0164
  756MOL0     H 1999   4.820   5.239   7.217 -0.7956 -0.9817 -2.2567
  756MOL0     H 2000   4.974   5.184   7.148 -2.4699 -6.6370 -1.1482
  756MOL0     H 2001   5.004   5.026   7.350 -1.1827 -3.6907  0.2518
  756MOL0     H 2002   4.835   5.071   7.393 -1.3788  2.8063 -1.0816
  756MOL0     H 2003   4.925   4.962   7.115 -0.8701 -1.1701 -0.7063
  756MOL0     H 2004   4.886   4.857   7.240 -0.7716 -1.8588 -1.6556
  756MOL0     H 2005   4.663   4.997   7.272 -0.5329 -3.1753  0.5917
  756MOL0     H 2006   4.685   5.032   7.093  0.1018  0.4302 -0.0908
  756MOL0     H 2007   4.623   4.815   7.035 -3.7786 -1.7077  0.2148
  756MOL0     H 2008   4.704   4.745   7.175 -1.8786 -2.0386 -0.0512
  756MOL0     H 2009   4.437   4.901   7.181  0.7561  0.4776 -0.6860
  756MOL0     H 2010   4.512   4.817   7.310  2.6652  2.4796 -0.9908
  756MOL0     H 2011   4.271   4.707   7.320 -0.1691 -0.9819  0.6305
  756MOL0     H 2012   4.159   4.391   7.269  0.0670 -0.6864 -0.2365
  756MOL0     H 2013   4.080   4.544   7.270  0.1110 -1.4071  1.0270
  756MOL0     H 2014   3.985   4.358   7.129  1.0938 -1.7527 -0.5258
  756MOL0     H 2015   4.121   4.351   7.028  1.5158  0.9920  0.4633
  756MOL0     H 2016   4.020   4.471   6.882  2.5656 -0.6467  0.0640
  756MOL0     H 2017   4.090   4.609   6.970  1.6286 -0.5840  1.6852
  756MOL0     H 2018   3.808   4.518   7.021  1.2707 -2.5929 -2.7890
  756MOL0     H 2019   3.853   4.653   6.929  0.5719 -0.2745 -0.6827
  756MOL0     H 2020   3.945   4.752   7.367  1.0163 -0.8499 -0.5239
  756MOL0     H 2021   4.122   5.036   7.500  1.2413 -0.3823  0.4725
  756MOL0     H 2022   4.047   4.887   7.550  0.4622  3.2238  1.7930
  756MOL0     H 2023   4.201   4.876   7.476  1.4502  2.4676 -0.5967
  756MOL0     H 2024   4.199   5.396   7.354 -3.4204 -0.4000 -5.3029
  756MOL0     H 2025   4.358   5.543   7.436  0.4386 -2.3762  1.4091
  756MOL0     H 2026   4.497   5.764   7.368  0.1403  0.6744  1.1166
  756MOL0     H 2027   4.512   5.648   7.489 -1.9569  2.2240  0.3019
  756MOL0     H 2028   4.759   5.704   7.502  0.6741 -1.2586 -2.8892
  756MOL0     H 2029   4.727   5.824   7.369 -2.9031  1.3340 -0.2106
  756MOL0     H 2030   4.583   5.819   7.648 -2.5516  1.9502  0.0254
  756MOL0     H 2031   4.569   5.942   7.528 -0.8197 -0.4819  0.5669
  756MOL0     H 2032   4.813   5.870   7.697  0.8224  0.8311  0.0447
  756MOL0     H 2033   4.824   5.980   7.570  1.5591 -1.0430  1.2397
  756MOL0     H 2034   4.780   6.079   7.801  0.7699 -2.1058  0.7472
  756MOL0     H 2035   4.626   6.004   7.811 -0.2475  0.2170 -1.4204
  756MOL0     H 2036   4.700   6.241   7.621 -0.4445  1.0002  0.1772
  756MOL0     H 2037   4.535   6.159   7.638 -0.6762  1.4208  0.9516
  756MOL0     H 2038   4.704   6.292   7.849  1.9619 -0.0743 -2.7448
  756MOL0     H 2039   4.533   6.237   7.858 -0.9206 -1.1373 -1.8052
  756MOL0     H 2040   4.646   6.439   7.651 -0.7973  1.0658 -0.1967
  756MOL0     H 2041   4.604   6.500   7.815 -0.1665 -0.8952  2.3823
  756MOL0     H 2042   4.636   5.395   7.138 -0.2970  1.5135 -4.4667
  756MOL0     H 2043   4.461   5.233   7.063  0.9021 -0.4904  1.9304
  756MOL0     H 2044   4.109   5.061   7.018 -2.1716  2.7948  1.7765
  756MOL0     H 2045   3.985   4.866   6.943  1.5286  0.2884 -1.0387
  756MOL0     H 2046   5.325   5.523   7.097  1.2597  0.7314 -2.7255
  756MOL0     H 2047   5.378   5.717   6.996  0.1164 -2.4220 -0.0092
  756MOL0     H 2048   5.062   6.275   6.859 -1.0998 -0.6802 -3.5011
  756MOL0     H 2049   5.186   6.477   6.817 -0.9522 -0.9057 -2.1617
  756MOL0     H 2050   5.408   6.565   6.973 -2.2578 -2.2634 -1.7866
  756MOL0     H 2051   5.538   6.659   6.891  0.8465 -1.1703  0.7086
  756MOL0     H 2052   5.348   6.807   6.885  0.4349  0.2389 -0.4408
  756MOL0     H 2053   5.228   6.682   6.878  0.2474 -2.7662 -1.8172
  756MOL0     H 2054   5.267   6.659   6.642  2.0887 -2.3178  2.2218
  756MOL0     H 2055   5.424   6.719   6.660 -1.0350 -0.1420 -2.8777
  756MOL0     H 2056   5.182   6.897   6.672  0.4108  2.0295  0.8142
  756MOL0     H 2057   5.314   6.889   6.549  0.0301  0.6109 -0.7834
  756MOL0     H 2058   5.497   7.157   6.794  0.6237  1.4751 -2.3494
  756MOL0     H 2059   5.552   6.258   6.851  1.1323 -1.2088 -1.5550
  756MOL0     H 2060   5.414   6.043   6.853  2.7623  2.3727  2.6036
  757MOL0     O 2061   6.656   2.430   8.386  0.9139  0.4064 -0.3528
  757MOL0     C 2062   6.600   2.319   8.394  0.0494  0.3254  0.4002
  757MOL0     O 2063   6.672   2.208   8.377  0.0694 -0.3294  0.7979
  757MOL0     C 2064   6.797   2.198   8.331  0.8936  0.0324  0.1465
  757MOL0     C 2065   6.849   2.277   8.228  0.4163 -0.4076  0.1550
  757MOL0     C 2066   6.984   2.276   8.191  0.8963  0.2798  1.2050
  757MOL0     C 2067   7.066   2.198   8.264 -0.1013 -0.6764 -0.4262
  757MOL0     O 2068   7.195   2.217   8.240  0.1311  0.2582 -0.2192
  757MOL0     C 2069   7.297   2.166   8.337 -0.4817 -0.1534  0.1563
  757MOL0     C 2070   7.435   2.203   8.280 -0.0972  0.7184 -0.3949
  757MOL0     C 2071   7.555   2.155   8.370  0.2373 -0.2495  0.4898
  757MOL0     C 2072   7.677   2.145   8.281  0.0701 -0.0966  1.0312
  757MOL0     C 2073   7.792   2.082   8.341  0.8918  0.4897 -0.2945
  757MOL0     C 2074   7.923   2.074   8.248  0.2103 -0.2406 -0.4862
  757MOL0     C 2075   8.036   2.003   8.318 -1.2862  0.4703  0.2151
  757MOL0     C 2076   8.040   1.855   8.282 -0.9486  0.4057  0.3615
  757MOL0     N 2077   8.124   1.775   8.365  0.3145  0.4202 -1.1002
  757MOL0     C 2078   8.074   1.707   8.472  0.1523  1.1194  0.1517
  757MOL0     C 2079   8.182   1.688   8.556  0.1505 -0.1059 -0.5724
  757MOL0     C 2080   8.175   1.635   8.689  0.3859  0.4566 -0.1011
  757MOL0     C 2081   8.093   1.732   8.785 -0.4607  0.0093 -0.0528
  757MOL0     C 2082   8.163   1.863   8.819  0.1371  0.7864  0.2213
  757MOL0     C 2083   8.102   1.935   8.936  0.4679  0.1269 -0.7210
  757MOL0     O 2084   7.956   1.956   8.916  0.3659 -0.5396 -0.3047
  757MOL0     C 2085   7.895   2.033   9.007  0.7386  0.9170 -0.9267
  757MOL0     C 2086   7.786   2.100   8.954 -0.6565 -0.7901  0.1189
  757MOL0     C 2087   7.697   2.171   9.035  0.3724 -0.1724 -0.6015
  757MOL0     C 2088   7.569   2.223   8.968  1.4174  0.7576  0.8835
  757MOL0     C 2089   7.722   2.191   9.173  0.0889  1.0185  0.0501
  757MOL0     C 2090   7.630   2.254   9.275  0.3799  0.2434 -0.7329
  757MOL0     O 2091   7.652   2.231   9.403  0.1216  0.7843 -0.3673
  757MOL0     C 2092   7.582   2.299   9.496 -0.8401 -0.6454  0.2637
  757MOL0     C 2093   7.639   2.392   9.573  0.0106 -1.0089 -0.0979
  757MOL0     C 2094   7.559   2.461   9.670 -1.0499 -0.9179  0.3529
  757MOL0     C 2095   7.436   2.419   9.702  0.5562  0.1696 -0.3185
  757MOL0     O 2096   7.362   2.499   9.785 -0.4975  0.1735  0.4240
  757MOL0     C 2097   7.267   2.428   9.863  0.1522 -0.3935  0.8222
  757MOL0     C 2098   7.204   2.533   9.966  0.6263  1.1356  0.0187
  757MOL0     C 2099   7.103   2.623   9.887  0.3548  0.7117 -0.6779
  757MOL0     C 2100   7.057   2.761   9.950 -0.3156 -0.0352 -0.5218
  757MOL0     C 2101   6.954   2.821   9.858  0.4056 -0.1478  0.3725
  757MOL0     C 2102   6.907   2.959   9.914  1.0797 -0.0659 -0.7196
  757MOL0     C 2103   6.795   3.008   9.829 -0.1448 -0.0475  0.6590
  757MOL0     C 2104   6.702   3.100   9.907  0.0966  0.8859  0.8573
  757MOL0    Cl 2105   6.603   3.007  10.032 -0.0946  0.6067 -0.2348
  757MOL0     C 2106   7.373   2.310   9.627 -0.8784 -0.5125 -0.6309
  757MOL0     C 2107   7.451   2.261   9.528  0.0497  0.5228 -0.8997
  757MOL0     O 2108   7.531   2.315   9.237  0.5789  0.3052  0.3453
  757MOL0     C 2109   7.837   2.121   9.226  0.3983  0.1062  0.7588
  757MOL0     C 2110   7.919   2.048   9.146 -0.2133  0.5330 -0.7960
  757MOL0     N 2111   8.289   1.742   8.501  0.0172  0.4164  0.5385
  757MOL0     N 2112   8.257   1.787   8.381 -0.3126 -0.4420 -0.0995
  757MOL0     C 2113   7.014   2.105   8.352  0.0459  0.2099  0.7468
  757MOL0     C 2114   6.881   2.109   8.386 -0.5643  0.2245 -0.2867
  757MOL0     C 2115   6.455   2.314   8.426  0.2398 -0.0773 -0.1440
  757MOL0     C 2116   6.393   2.189   8.421  0.4445  0.1083 -0.5314
  757MOL0     C 2117   6.250   2.172   8.437 -1.2395  0.1546  1.3997
  757MOL0     C 2118   6.168   2.281   8.460 -0.4931  0.0937 -0.3896
  757MOL0     O 2119   6.031   2.291   8.453 -1.4102  0.7494 -0.1984
  757MOL0     C 2120   5.951   2.177   8.500  0.4476  0.4796  0.6891
  757MOL0     C 2121   5.844   2.140   8.409  0.1634 -0.1195 -0.3364
  757MOL0     C 2122   5.881   2.121   8.267 -0.1072 -0.3323 -0.7976
  757MOL0     C 2123   5.842   2.242   8.179  0.1430  0.2706 -0.1164
  757MOL0     C 2124   5.697   2.253   8.161 -1.2000  0.2229 -0.2426
  757MOL0     C 2125   5.578   2.250   8.169 -0.4085  0.1116  0.1372
  757MOL0     C 2126   6.233   2.403   8.483  0.3423  0.9738 -0.3498
  757MOL0     C 2127   6.373   2.418   8.485  0.0850  0.4702  0.5476
  757MOL0     H 2128   6.780   2.344   8.178  2.1906  1.4251  0.0357
  757MOL0     H 2129   7.029   2.347   8.123  1.2883 -1.1401 -0.0871
  757MOL0     H 2130   7.281   2.214   8.434 -2.3427 -1.5830  0.6131
  757MOL0     H 2131   7.282   2.058   8.333 -3.3455  0.1470  0.4932
  757MOL0     H 2132   7.441   2.172   8.176 -0.5569 -0.6383 -0.0271
  757MOL0     H 2133   7.446   2.312   8.276  0.5511  0.6941  0.3707
  757MOL0     H 2134   7.573   2.223   8.454 -1.2899  1.9959 -0.8958
  757MOL0     H 2135   7.536   2.055   8.411 -0.4943 -0.2267  0.2130
  757MOL0     H 2136   7.650   2.089   8.191 -0.4336  2.6655 -0.6505
  757MOL0     H 2137   7.704   2.246   8.248  0.5722 -0.1882  1.1517
  757MOL0     H 2138   7.807   2.116   8.443 -0.8932 -0.2288  0.2464
  757MOL0     H 2139   7.756   1.979   8.354 -0.1555  0.9878  0.9000
  757MOL0     H 2140   7.900   2.031   8.151 -1.1146 -1.5108  0.3440
  757MOL0     H 2141   7.943   2.179   8.225 -1.8704  0.3409  0.1325
  757MOL0     H 2142   8.131   2.042   8.281 -2.2353  1.4287 -1.3411
  757MOL0     H 2143   8.027   2.003   8.427 -2.9018  1.1256  0.1163
  757MOL0     H 2144   8.068   1.840   8.177 -0.4548 -2.0621  0.7963
  757MOL0     H 2145   7.941   1.808   8.285  0.3495 -3.0303 -2.7837
  757MOL0     H 2146   7.972   1.677   8.493 -1.5889  5.6057 -0.6754
  757MOL0     H 2147   8.136   1.534   8.677  2.2185  0.0811 -4.9867
  757MOL0     H 2148   8.277   1.628   8.730  0.9624  2.5917 -1.0137
  757MOL0     H 2149   8.072   1.675   8.876  1.0661  0.3389  0.5412
  757MOL0     H 2150   7.999   1.751   8.733 -1.6656 -1.7524  1.3456
  757MOL0     H 2151   8.155   1.931   8.734 -2.7580  0.6340  0.2411
  757MOL0     H 2152   8.266   1.829   8.831  0.0288  0.8225  1.3366
  757MOL0     H 2153   8.144   2.036   8.940 -2.6773  1.5563  2.0989
  757MOL0     H 2154   8.125   1.888   9.032 -2.3111  0.5217  0.2405
  757MOL0     H 2155   7.771   2.090   8.848 -1.0954  0.3096  0.0618
  757MOL0     H 2156   7.482   2.159   8.984  0.9636  0.3935 -2.4301
  757MOL0     H 2157   7.541   2.327   8.989 -0.6035  0.5660 -0.5805
  757MOL0     H 2158   7.582   2.227   8.860  1.1533 -0.7279  0.7833
  757MOL0     H 2159   7.746   2.409   9.569  0.0633 -0.6706  1.8678
  757MOL0     H 2160   7.604   2.542   9.727 -1.1967 -0.3765 -0.2877
  757MOL0     H 2161   7.187   2.388   9.801 -1.0200  2.4217  0.3845
  757MOL0     H 2162   7.335   2.357   9.911  2.0150 -0.1263 -1.2780
  757MOL0     H 2163   7.149   2.480  10.043 -1.9668  0.6435 -2.0311
  757MOL0     H 2164   7.287   2.589  10.010  1.9972  1.4727 -2.7278
  757MOL0     H 2165   7.018   2.556   9.870  1.4236 -1.4625  1.8180
  757MOL0     H 2166   7.148   2.652   9.792  2.7790 -1.8186 -0.4236
  757MOL0     H 2167   7.021   2.755  10.053 -1.9387 -1.0703 -1.1173
  757MOL0     H 2168   7.144   2.827   9.954 -2.0064  2.3494  4.1817
  757MOL0     H 2169   6.866   2.758   9.844  1.3016 -0.7129 -4.5009
  757MOL0     H 2170   6.993   2.838   9.758  1.5408 -1.0886  0.6296
  757MOL0     H 2171   6.859   2.942  10.011 -3.1478  1.5054 -2.3107
  757MOL0     H 2172   6.988   3.032   9.923  0.5634  0.4203  0.1494
  757MOL0     H 2173   6.739   2.928   9.782  1.2952 -0.1401 -1.0182
  757MOL0     H 2174   6.834   3.071   9.748  0.0297 -0.2497  0.5838
  757MOL0     H 2175   6.649   3.140   9.820  4.1230  0.9870 -1.8471
  757MOL0     H 2176   6.748   3.182   9.962 -1.2655  1.0314  1.8195
  757MOL0     H 2177   7.273   2.268   9.634 -0.1811 -2.1691  0.0303
  757MOL0     H 2178   7.398   2.204   9.453  0.2624 -0.9878  0.0578
  757MOL0     H 2179   7.837   2.106   9.334 -1.3760 -4.0887  0.4097
  757MOL0     H 2180   8.005   1.995   9.185 -0.5928 -1.0989 -2.0388
  757MOL0     H 2181   7.085   2.043   8.407 -2.3012  0.2231  4.0885
  757MOL0     H 2182   6.857   2.042   8.468 -1.0980 -0.4450 -0.9742
  757MOL0     H 2183   6.446   2.097   8.398 -0.2001 -0.4164  0.0361
  757MOL0     H 2184   6.211   2.075   8.406  1.0121 -0.8986  1.6665
  757MOL0     H 2185   6.006   2.089   8.537 -1.5163  0.2468  3.3807
  757MOL0     H 2186   5.899   2.206   8.592  1.9987  0.8641  1.4896
  757MOL0     H 2187   5.763   2.212   8.425  2.0380  2.3063 -0.9982
  757MOL0     H 2188   5.797   2.050   8.450 -0.6338 -0.9109 -2.8402
  757MOL0     H 2189   5.835   2.028   8.230 -1.4488  0.8704 -2.3096
  757MOL0     H 2190   5.987   2.107   8.245 -0.4803 -1.9505 -1.7813
  757MOL0     H 2191   5.893   2.241   8.082  2.8446 -1.2456  1.2308
  757MOL0     H 2192   5.883   2.328   8.232 -2.0128  1.6227 -0.5047
  757MOL0     H 2193   5.472   2.240   8.177 -0.1457 -2.7564  0.9686
  757MOL0     H 2194   6.171   2.489   8.510  2.3376  1.5628  2.8571
  757MOL0     H 2195   6.406   2.518   8.512 -1.8494  0.6087  2.6351
  758MOL0     O 2196   9.879   3.319   2.673  0.1518 -1.3019  0.2311
  758MOL0     C 2197   9.872   3.437   2.646  0.5517  0.2481 -0.7935
  758MOL0     O 2198   9.976   3.502   2.576 -0.3240  1.1992  0.1494
  758MOL0     C 2199  10.084   3.419   2.539 -0.2978  0.2009 -0.2442
  758MOL0     C 2200  10.190   3.407   2.630 -1.1019 -0.4906 -0.5491
  758MOL0     C 2201  10.301   3.321   2.602 -0.7974 -0.1304  0.5507
  758MOL0     C 2202  10.294   3.247   2.483 -0.5755 -0.4913  0.2966
  758MOL0     O 2203  10.382   3.139   2.453  1.3182  0.1884 -0.6057
  758MOL0     C 2204  10.408   3.060   2.559 -1.0724  0.2061  0.5251
  758MOL0     C 2205  10.455   2.917   2.514 -0.4212  0.3590 -0.0508
  758MOL0     C 2206  10.448   2.808   2.621  0.6267 -0.5957 -0.2836
  758MOL0     C 2207  10.495   2.667   2.572  0.1324 -0.1305  0.8941
  758MOL0     C 2208  10.397   2.597   2.467 -0.0585 -0.2449 -0.7495
  758MOL0     C 2209  10.465   2.462   2.440 -0.8911 -0.6416 -0.4344
  758MOL0     C 2210  10.407   2.410   2.312 -0.4200  0.2921 -0.2661
  758MOL0     C 2211  10.461   2.274   2.264 -0.5114  0.0607  1.1381
  758MOL0     N 2212  10.407   2.170   2.343 -0.7430  0.4756 -0.4842
  758MOL0     C 2213  10.297   2.086   2.324  0.0088 -0.5466 -1.4901
  758MOL0     C 2214  10.299   2.007   2.431  0.0601 -0.3850  0.0190
  758MOL0     C 2215  10.209   1.888   2.468  1.0135 -0.4324 -0.1972
  758MOL0     C 2216  10.283   1.762   2.419  0.8855 -0.7758  0.3250
  758MOL0     C 2217  10.197   1.639   2.431  0.3478 -0.0424  0.1034
  758MOL0     C 2218  10.215   1.569   2.567  0.2521  0.0107  0.0791
  758MOL0     O 2219  10.362   1.551   2.609  0.0109  0.1501 -0.1151
  758MOL0     C 2220  10.424   1.429   2.596  0.0337  0.3942  1.0474
  758MOL0     C 2221  10.403   1.328   2.501  0.1317 -0.9819 -0.0738
  758MOL0     C 2222  10.483   1.213   2.494  0.0183 -0.2774  0.2187
  758MOL0     C 2223  10.440   1.108   2.391 -0.6708 -0.2838 -0.0228
  758MOL0     C 2224  10.580   1.185   2.590 -0.0332 -0.1491  0.2429
  758MOL0     C 2225  10.658   1.056   2.590  0.3731  0.1031 -0.4389
  758MOL0     O 2226  10.759   1.054   2.683 -0.7635  0.1127  0.7336
  758MOL0     C 2227  10.827   0.933   2.710 -0.1693 -0.6029  0.8049
  758MOL0     C 2228  10.925   0.891   2.621  0.5069  0.1528 -0.4260
  758MOL0     C 2229  10.998   0.777   2.661  0.6174 -0.9103 -0.0857
  758MOL0     C 2230  10.992   0.716   2.786  0.5006  0.1198  1.2317
  758MOL0     O 2231  11.057   0.598   2.806 -1.2143 -0.5360  0.6503
  758MOL0     C 2232  11.077   0.541   2.937  0.7252 -0.4462 -0.3552
  758MOL0     C 2233  11.177   0.427   2.936 -0.3246  1.3127 -0.2618
  758MOL0     C 2234  11.318   0.474   2.900 -0.0323 -0.0491  1.3477
  758MOL0     C 2235  11.421   0.398   2.965 -0.5616  0.1331 -0.1099
  758MOL0     C 2236  11.560   0.431   2.910 -0.0436 -0.2977 -0.0561
  758MOL0     C 2237  11.691   0.394   2.986 -0.0063 -0.0030 -0.2660
  758MOL0     C 2238  11.820   0.421   2.907  0.9366 -0.6544 -0.4288
  758MOL0     C 2239  11.941   0.378   2.976 -0.6112 -0.3454 -0.5438
  758MOL0    Cl 2240  11.952   0.193   2.955 -0.0045  0.3930 -0.3800
  758MOL0     C 2241  10.881   0.753   2.860  0.0791 -0.0570  0.3758
  758MOL0     C 2242  10.801   0.860   2.825  0.6487  0.3750 -0.7692
  758MOL0     O 2243  10.634   0.956   2.517  0.1567 -0.1953  0.3560
  758MOL0     C 2244  10.604   1.287   2.682  1.0743  0.9964 -1.0884
  758MOL0     C 2245  10.537   1.413   2.677  0.0837 -0.3301  1.0746
  758MOL0     N 2246  10.415   2.028   2.507  0.9049  0.7245  0.2552
  758MOL0     N 2247  10.475   2.128   2.458 -0.1055  0.1915  0.0416
  758MOL0     C 2248  10.195   3.275   2.390  0.1176 -0.4081 -0.7788
  758MOL0     C 2249  10.079   3.352   2.417 -0.7762 -0.5210 -0.5797
  758MOL0     C 2250   9.753   3.523   2.676 -0.3899  0.0019 -0.1175
  758MOL0     C 2251   9.671   3.484   2.776  0.1915  0.1512 -0.2193
  758MOL0     C 2252   9.558   3.548   2.805  0.6632 -0.8203 -0.5404
  758MOL0     C 2253   9.518   3.661   2.738  0.1677 -0.0119  0.6088
  758MOL0     O 2254   9.394   3.711   2.778 -0.0660  0.5701  0.1008
  758MOL0     C 2255   9.341   3.833   2.708  0.3196  0.0105 -0.1668
  758MOL0     C 2256   9.292   3.783   2.569  1.0383  0.0414 -0.2327
  758MOL0     C 2257   9.171   3.702   2.583 -0.1035 -0.5404  0.5161
  758MOL0     C 2258   9.101   3.675   2.448 -0.8037  0.7333 -0.8901
  758MOL0     C 2259   8.984   3.589   2.477 -0.3936 -0.4722  1.1408
  758MOL0     C 2260   8.884   3.521   2.489 -0.0456 -0.7442 -0.2211
  758MOL0     C 2261   9.607   3.717   2.643  0.7525 -0.3048 -0.4079
  758MOL0     C 2262   9.720   3.646   2.605  0.0236  0.8371 -0.2842
  758MOL0     H 2263  10.194   3.458   2.725 -1.2834  1.5493 -1.5775
  758MOL0     H 2264  10.374   3.303   2.681  1.1495  1.2382 -0.8286
  758MOL0     H 2265  10.482   3.118   2.615 -0.2611 -1.6337  1.4813
  758MOL0     H 2266  10.329   3.042   2.633  1.7594 -0.1204  3.7010
  758MOL0     H 2267  10.403   2.894   2.421  0.9320 -1.2509 -0.4545
  758MOL0     H 2268  10.560   2.928   2.482 -0.0631 -1.1183  0.5793
  758MOL0     H 2269  10.499   2.836   2.713  1.0901  2.5505 -1.4020
  758MOL0     H 2270  10.341   2.797   2.644  0.8174 -1.4674  0.2471
  758MOL0     H 2271  10.599   2.666   2.539 -0.0909  0.3566  0.1324
  758MOL0     H 2272  10.506   2.614   2.667 -0.9623  2.6092  2.6632
  758MOL0     H 2273  10.297   2.587   2.511  0.3609  0.0198  0.2730
  758MOL0     H 2274  10.384   2.672   2.388  3.0608  1.6670  0.3959
  758MOL0     H 2275  10.574   2.466   2.432 -0.7845 -4.0488 -2.8842
  758MOL0     H 2276  10.442   2.399   2.526  3.5783  0.6101  2.0004
  758MOL0     H 2277  10.298   2.404   2.319 -0.5942 -2.4944 -3.0838
  758MOL0     H 2278  10.436   2.479   2.231  3.3876 -0.2349  0.4603
  758MOL0     H 2279  10.569   2.262   2.252 -1.2001 -4.6966 -4.2031
  758MOL0     H 2280  10.438   2.261   2.158 -0.0502 -0.6286  1.1206
  758MOL0     H 2281  10.230   2.079   2.239  2.1013  3.6630 -3.7803
  758MOL0     H 2282  10.196   1.883   2.576 -0.0339 -2.3916 -0.3630
  758MOL0     H 2283  10.105   1.897   2.435  0.1502  0.4696  2.4853
  758MOL0     H 2284  10.374   1.746   2.477  2.3882  0.2447 -1.6033
  758MOL0     H 2285  10.318   1.780   2.316  1.0138  0.9835  0.6418
  758MOL0     H 2286  10.218   1.571   2.347  1.6708  0.2556  0.1741
  758MOL0     H 2287  10.096   1.680   2.418  0.9216  1.2331 -0.5390
  758MOL0     H 2288  10.168   1.471   2.549  0.5588 -0.8397  3.3380
  758MOL0     H 2289  10.161   1.618   2.649 -1.3806 -1.9257  0.2351
  758MOL0     H 2290  10.328   1.346   2.425  3.1939  1.8789 -2.7460
  758MOL0     H 2291  10.526   1.068   2.336  1.1112  2.0514  0.8441
  758MOL0     H 2292  10.380   1.033   2.442  0.1481 -0.3180  0.9210
  758MOL0     H 2293  10.380   1.156   2.313  1.6996  0.4606 -1.5269
  758MOL0     H 2294  10.944   0.960   2.540 -2.6417  2.0070  0.2162
  758MOL0     H 2295  11.077   0.744   2.594  2.8971  0.8754  1.5672
  758MOL0     H 2296  11.110   0.621   3.003  3.6795 -0.8160 -1.2004
  758MOL0     H 2297  10.987   0.498   2.982 -0.0555  0.5891 -0.8956
  758MOL0     H 2298  11.178   0.385   3.037 -0.9197  0.4749 -0.5852
  758MOL0     H 2299  11.140   0.344   2.874 -0.1058  0.1036  1.1768
  758MOL0     H 2300  11.321   0.582   2.913 -2.4598  0.6034 -2.0324
  758MOL0     H 2301  11.338   0.467   2.793  2.6279  1.1425  1.6714
  758MOL0     H 2302  11.429   0.407   3.073 -0.4010 -2.2522  0.1254
  758MOL0     H 2303  11.410   0.290   2.950  0.8392 -0.3998  2.1992
  758MOL0     H 2304  11.563   0.539   2.894  1.8560 -0.7191 -3.8667
  758MOL0     H 2305  11.570   0.380   2.813 -0.5876  1.1340 -0.8995
  758MOL0     H 2306  11.692   0.446   3.083  0.1485 -0.8632  0.2024
  758MOL0     H 2307  11.693   0.293   3.028  0.0258  0.2564  0.3767
  758MOL0     H 2308  11.822   0.530   2.900  1.3256 -0.2536  3.8207
  758MOL0     H 2309  11.816   0.372   2.809 -1.9471 -2.1298  0.3018
  758MOL0     H 2310  11.934   0.415   3.079  2.8699 -0.2052 -0.2437
  758MOL0     H 2311  12.022   0.429   2.922  0.4978  0.2577  1.5932
  758MOL0     H 2312  10.841   0.698   2.945 -1.2122 -1.4995 -1.0780
  758MOL0     H 2313  10.731   0.898   2.899  3.3966  3.9531  0.2966
  758MOL0     H 2314  10.679   1.273   2.759 -2.3863  1.8145  2.8233
  758MOL0     H 2315  10.573   1.498   2.734 -1.4471  0.1534  1.3916
  758MOL0     H 2316  10.211   3.221   2.297  1.4201 -1.5069  0.0373
  758MOL0     H 2317   9.995   3.351   2.349 -2.3370  1.3486  1.2178
  758MOL0     H 2318   9.688   3.392   2.832 -2.6129 -0.7736 -0.7304
  758MOL0     H 2319   9.503   3.501   2.885  1.3670 -1.6689 -0.5299
  758MOL0     H 2320   9.262   3.874   2.772  2.0377  0.3836  1.8406
  758MOL0     H 2321   9.421   3.907   2.698  0.7169 -0.2562  0.8293
  758MOL0     H 2322   9.361   3.722   2.509  0.8151  0.3390 -0.8091
  758MOL0     H 2323   9.266   3.871   2.509 -1.8302 -0.5416  0.0218
  758MOL0     H 2324   9.099   3.753   2.649 -1.2502 -1.7475  0.2463
  758MOL0     H 2325   9.192   3.611   2.638 -4.7290 -0.9030  2.1513
  758MOL0     H 2326   9.191   3.632   2.404  1.9038  1.3910  3.4357
  758MOL0     H 2327   9.077   3.769   2.397 -2.0298  1.1760  0.4280
  758MOL0     H 2328   8.795   3.467   2.512 -0.8799  0.6757  0.0608
  758MOL0     H 2329   9.586   3.814   2.598 -2.0403 -0.6180  0.0436
  758MOL0     H 2330   9.792   3.684   2.533  0.7479  0.1043  0.0338
  759MOL0     O 2331   2.547   2.786   1.095 -0.0839  0.3039  0.3284
  759MOL0     C 2332   2.492   2.867   1.173  0.5914 -0.1816 -0.0421
  759MOL0     O 2333   2.529   2.897   1.295  0.5379  0.8787 -0.3370
  759MOL0     C 2334   2.642   2.842   1.359 -0.3806  0.5205  1.0954
  759MOL0     C 2335   2.720   2.728   1.313 -0.2132  0.0114  0.8078
  759MOL0     C 2336   2.821   2.680   1.396  0.4796  0.0393  0.0444
  759MOL0     C 2337   2.856   2.743   1.518 -0.2752 -0.0878 -0.1270
  759MOL0     O 2338   2.954   2.701   1.598 -0.2231  0.1911  0.6903
  759MOL0     C 2339   2.937   2.579   1.668  0.1270 -0.1811 -0.5118
  759MOL0     C 2340   2.963   2.613   1.817 -0.0262 -0.6013  0.0098
  759MOL0     C 2341   3.102   2.687   1.849  1.4574  0.4754  0.0369
  759MOL0     C 2342   3.104   2.759   1.985 -0.7185  0.3775 -0.9898
  759MOL0     C 2343   3.053   2.894   1.994  0.0483  0.0350 -0.6039
  759MOL0     C 2344   3.125   2.991   1.907 -0.7617 -0.4940 -0.4178
  759MOL0     C 2345   3.079   3.135   1.940  0.4478 -0.3490  0.3590
  759MOL0     C 2346   3.082   3.233   1.832 -0.0538 -0.2122 -0.6696
  759MOL0     N 2347   3.217   3.268   1.788 -0.1830 -1.0326 -0.1245
  759MOL0     C 2348   3.327   3.325   1.857  0.5694  0.1142  0.8068
  759MOL0     C 2349   3.428   3.346   1.767 -0.9989  0.7731  0.1709
  759MOL0     C 2350   3.567   3.407   1.779 -0.0466 -0.7119 -0.0368
  759MOL0     C 2351   3.647   3.356   1.899  0.2428 -0.1865  0.7161
  759MOL0     C 2352   3.632   3.204   1.926  0.3706  0.2530  0.8156
  759MOL0     C 2353   3.714   3.160   2.038 -0.8740  0.0888 -0.5414
  759MOL0     O 2354   3.669   3.027   2.094  0.3285  0.0652 -0.0712
  759MOL0     C 2355   3.553   3.019   2.167 -0.6952 -0.6085 -1.0153
  759MOL0     C 2356   3.485   3.136   2.201 -0.8305  0.1753  0.8775
  759MOL0     C 2357   3.359   3.123   2.253 -1.3120 -0.1204  0.1795
  759MOL0     C 2358   3.297   3.250   2.300  0.5324 -0.7620  0.0254
  759MOL0     C 2359   3.297   3.001   2.282 -0.8791 -0.6415 -0.6056
  759MOL0     C 2360   3.167   2.989   2.352  0.3286  0.1447  0.5018
  759MOL0     O 2361   3.131   2.864   2.408 -1.1537 -0.4367  0.0546
  759MOL0     C 2362   3.013   2.846   2.467  0.1002 -0.0296  0.1143
  759MOL0     C 2363   2.904   2.774   2.408 -0.8141  0.0521  0.5545
  759MOL0     C 2364   2.783   2.745   2.473  0.5579  0.5780 -0.0916
  759MOL0     C 2365   2.770   2.782   2.609 -0.4555  0.0685 -0.2197
  759MOL0     O 2366   2.645   2.769   2.665  0.2769  0.0944 -0.5858
  759MOL0     C 2367   2.598   2.862   2.762  0.1549 -0.6253  0.5327
  759MOL0     C 2368   2.449   2.909   2.763  0.3929 -0.4436 -0.0886
  759MOL0     C 2369   2.420   3.041   2.837  0.6267  0.1708 -0.3614
  759MOL0     C 2370   2.277   3.038   2.918  0.7482  0.1631 -0.1877
  759MOL0     C 2371   2.173   3.145   2.889  0.3658  0.1809  0.0968
  759MOL0     C 2372   2.214   3.285   2.924 -0.9487  0.7678 -0.0500
  759MOL0     C 2373   2.107   3.382   2.867  0.3541 -0.0802  1.3644
  759MOL0     C 2374   2.018   3.447   2.967  0.7047 -0.2053  0.2959
  759MOL0    Cl 2375   1.904   3.328   3.047 -0.2056  0.1488 -0.2921
  759MOL0     C 2376   2.874   2.841   2.675  0.3948 -0.7611  0.2880
  759MOL0     C 2377   2.993   2.885   2.602  1.3332  0.7564  0.2395
  759MOL0     O 2378   3.089   3.079   2.341  0.0497  0.2191  0.4246
  759MOL0     C 2379   3.368   2.887   2.245  0.0287 -0.3344 -0.6296
  759MOL0     C 2380   3.492   2.893   2.192  0.5372 -0.0135  0.2891
  759MOL0     N 2381   3.372   3.300   1.636 -0.2173 -0.5780 -0.7915
  759MOL0     N 2382   3.255   3.243   1.665  1.0804 -1.3191 -0.0820
  759MOL0     C 2383   2.771   2.853   1.557  0.6346  0.1107 -0.6958
  759MOL0     C 2384   2.669   2.902   1.472  0.7070 -1.2790 -0.2613
  759MOL0     C 2385   2.361   2.931   1.129  0.0162  0.0103  0.4190
  759MOL0     C 2386   2.312   3.050   1.191  0.3722  0.0429 -0.2124
  759MOL0     C 2387   2.203   3.115   1.141  0.5663 -1.4088  0.6960
  759MOL0     C 2388   2.141   3.070   1.021  0.7037 -0.7143  0.1535
  759MOL0     O 2389   2.022   3.127   0.965  0.1500  1.0383  0.1881
  759MOL0     C 2390   1.998   3.270   0.979  0.0079  0.1025 -0.3398
  759MOL0     C 2391   2.086   3.356   0.901  0.5406 -0.2708  0.6619
  759MOL0     C 2392   2.044   3.363   0.743 -0.0381 -0.4734 -0.4596
  759MOL0     C 2393   2.141   3.461   0.680  0.2142  0.2997 -0.3686
  759MOL0     C 2394   2.136   3.591   0.747 -0.0121  0.7058 -0.1498
  759MOL0     C 2395   2.117   3.692   0.806 -0.1630 -0.3541  0.2785
  759MOL0     C 2396   2.194   2.952   0.964 -0.1668 -0.4443 -0.1094
  759MOL0     C 2397   2.302   2.881   1.013  0.0535 -0.1429  0.7252
  759MOL0     H 2398   2.718   2.679   1.216  1.3095 -0.8330  1.1739
  759MOL0     H 2399   2.883   2.598   1.361  0.8609  0.7757 -1.0751
  759MOL0     H 2400   2.842   2.528   1.649 -0.1439  0.9665 -2.6172
  759MOL0     H 2401   3.018   2.512   1.637  1.0812  0.5541  0.3152
  759MOL0     H 2402   2.882   2.670   1.863  0.2617 -1.3926  1.5484
  759MOL0     H 2403   2.973   2.517   1.868  0.3485 -0.1258  0.8446
  759MOL0     H 2404   3.183   2.617   1.828 -0.2955 -0.4014 -5.5773
  759MOL0     H 2405   3.137   2.758   1.773  1.5846  3.0005  2.2873
  759MOL0     H 2406   3.055   2.688   2.053  0.8953  1.1782  1.1376
  759MOL0     H 2407   3.203   2.772   2.028 -1.6392 -2.1595  2.3618
  759MOL0     H 2408   2.945   2.900   1.982 -0.0643  0.1886  0.4148
  759MOL0     H 2409   3.065   2.916   2.100  1.1056  0.1054 -0.7221
  759MOL0     H 2410   3.233   2.986   1.923 -0.9258  0.5133  1.2266
  759MOL0     H 2411   3.113   2.969   1.800  2.8243 -1.0171 -0.8422
  759MOL0     H 2412   2.979   3.134   1.983 -1.5188  1.7476 -3.5494
  759MOL0     H 2413   3.138   3.166   2.026 -0.9748 -1.1780  1.6736
  759MOL0     H 2414   3.042   3.329   1.865  2.1462  0.8151 -0.8084
  759MOL0     H 2415   3.019   3.207   1.746  0.6447  0.8992 -1.5386
  759MOL0     H 2416   3.319   3.354   1.962  1.1492  0.5730  0.7289
  759MOL0     H 2417   3.628   3.409   1.688 -2.9816  2.4741 -2.1585
  759MOL0     H 2418   3.552   3.513   1.798  0.9417 -1.0308  3.0813
  759MOL0     H 2419   3.626   3.414   1.989  0.9629 -0.9326  1.3761
  759MOL0     H 2420   3.755   3.375   1.899  0.1452  0.4122  1.5626
  759MOL0     H 2421   3.659   3.158   1.831  1.4577  3.8674 -0.7998
  759MOL0     H 2422   3.531   3.174   1.955  0.2395 -0.0481  0.0701
  759MOL0     H 2423   3.736   3.239   2.111  3.5874  0.4640 -1.9584
  759MOL0     H 2424   3.816   3.137   2.004 -1.1551 -0.1326 -1.2517
  759MOL0     H 2425   3.546   3.226   2.194 -2.1222  0.9929 -0.5075
  759MOL0     H 2426   3.350   3.339   2.266  0.2395  0.1714  1.9004
  759MOL0     H 2427   3.191   3.254   2.273  0.2847 -3.0891  0.4362
  759MOL0     H 2428   3.299   3.252   2.409 -3.1281 -3.7556  0.3566
  759MOL0     H 2429   2.926   2.745   2.306  3.6656  1.0611  1.0462
  759MOL0     H 2430   2.692   2.707   2.427 -0.1096  0.1757  1.4880
  759MOL0     H 2431   2.624   2.822   2.861  0.2525 -1.4842  0.1676
  759MOL0     H 2432   2.652   2.957   2.751 -1.6879  0.4818  0.6355
  759MOL0     H 2433   2.419   2.927   2.660 -1.3160 -2.6274 -0.0371
  759MOL0     H 2434   2.389   2.821   2.786  0.8002 -1.2663 -1.9887
  759MOL0     H 2435   2.419   3.116   2.757 -1.1983 -0.7782 -1.2977
  759MOL0     H 2436   2.498   3.061   2.911 -0.4512  1.5883  0.4221
  759MOL0     H 2437   2.227   2.944   2.894 -1.1709  1.9303 -3.9711
  759MOL0     H 2438   2.301   3.048   3.024  1.5109 -0.9673 -0.2298
  759MOL0     H 2439   2.079   3.119   2.938 -0.0649  0.8755 -0.3392
  759MOL0     H 2440   2.160   3.129   2.781 -1.2367 -0.7749  0.3923
  759MOL0     H 2441   2.224   3.299   3.032 -2.9682 -2.2378  0.6618
  759MOL0     H 2442   2.304   3.303   2.865 -0.8318 -2.8062 -1.2240
  759MOL0     H 2443   2.041   3.324   2.802  0.9460  0.3912  0.3285
  759MOL0     H 2444   2.151   3.460   2.803 -0.1697  1.2837  2.5917
  759MOL0     H 2445   1.960   3.522   2.913  2.2633  0.1566 -0.9602
  759MOL0     H 2446   2.076   3.488   3.051  0.5799  0.6034 -0.0100
  759MOL0     H 2447   2.853   2.867   2.778 -1.3160  1.4341 -0.5343
  759MOL0     H 2448   3.072   2.939   2.654  0.9511  0.9585  0.6177
  759MOL0     H 2449   3.310   2.796   2.260  1.2747 -0.7133  2.8623
  759MOL0     H 2450   3.548   2.803   2.173  0.3477 -0.4813  1.8151
  759MOL0     H 2451   2.784   2.899   1.654 -2.9882  0.5196 -0.2521
  759MOL0     H 2452   2.598   2.980   1.496  0.9435 -0.7082 -1.3484
  759MOL0     H 2453   2.366   3.090   1.277  0.7515 -1.3945  0.2398
  759MOL0     H 2454   2.166   3.195   1.205 -1.4414 -3.0057  1.6535
  759MOL0     H 2455   1.896   3.290   0.945 -1.0924 -0.7552  2.1684
  759MOL0     H 2456   2.009   3.292   1.086  2.5624  5.4295 -1.4098
  759MOL0     H 2457   2.191   3.326   0.910  0.0734 -1.9681  0.9625
  759MOL0     H 2458   2.088   3.457   0.941  2.1914  0.2522 -0.6542
  759MOL0     H 2459   1.941   3.390   0.719 -0.2122 -1.5541 -1.0006
  759MOL0     H 2460   2.046   3.262   0.700  0.7233 -0.9278  0.6111
  759MOL0     H 2461   2.117   3.474   0.574 -1.1169 -0.3481 -0.1700
  759MOL0     H 2462   2.243   3.424   0.692 -1.0185 -3.0769  1.0185
  759MOL0     H 2463   2.115   3.793   0.842 -0.5378 -0.0590 -0.5392
  759MOL0     H 2464   2.150   2.916   0.871 -0.0566 -0.2602 -0.2344
  759MOL0     H 2465   2.339   2.795   0.958 -1.7605  1.1368 -2.8183
  760MOL0     O 2466   4.743   0.973   2.368 -0.9657  0.3217 -0.3197
  760MOL0     C 2467   4.760   0.943   2.253  0.6826 -0.6786  0.2408
  760MOL0     O 2468   4.711   0.832   2.194  0.2045  0.9009  0.4662
  760MOL0     C 2469   4.632   0.746   2.274  1.1386  0.4383 -0.2523
  760MOL0     C 2470   4.505   0.782   2.304  1.5960 -0.0212  0.4872
  760MOL0     C 2471   4.422   0.692   2.384  0.4365 -0.2040  0.4235
  760MOL0     C 2472   4.470   0.558   2.412 -0.3636  0.0643 -0.2831
  760MOL0     O 2473   4.405   0.444   2.462 -0.4648 -1.1179  0.0912
  760MOL0     C 2474   4.263   0.444   2.477  0.3351  0.4044 -1.0496
  760MOL0     C 2475   4.210   0.311   2.540  0.9889  0.3626 -0.4154
  760MOL0     C 2476   4.272   0.195   2.453 -0.0882 -0.1258  0.2288
  760MOL0     C 2477   4.177   0.076   2.479  0.8183  1.1174 -0.1969
  760MOL0     C 2478   4.183  -0.026   2.365  0.0659  0.7808 -0.5964
  760MOL0     C 2479   4.325  -0.093   2.369  0.1318 -0.4346  0.5922
  760MOL0     C 2480   4.345  -0.200   2.259  0.4937  0.1574 -0.5096
  760MOL0     C 2481   4.237  -0.315   2.251  0.4268 -0.2228  0.4747
  760MOL0     N 2482   4.246  -0.405   2.363 -0.0651  0.0371 -0.9140
  760MOL0     C 2483   4.206  -0.381   2.491  0.4019 -0.9198  0.3469
  760MOL0     C 2484   4.223  -0.492   2.558 -0.4161  0.5282 -0.1168
  760MOL0     C 2485   4.191  -0.505   2.703 -0.1272  0.1701  1.3876
  760MOL0     C 2486   4.259  -0.409   2.802 -0.5808 -0.5019 -0.0139
  760MOL0     C 2487   4.409  -0.408   2.810 -1.0435 -0.3459 -0.2256
  760MOL0     C 2488   4.462  -0.286   2.895 -0.3365  0.0799  0.4115
  760MOL0     O 2489   4.468  -0.165   2.828  0.1114  0.6973  0.7783
  760MOL0     C 2490   4.513  -0.054   2.886 -0.7444 -0.0690 -0.1094
  760MOL0     C 2491   4.503   0.067   2.816 -0.6817  0.0016 -0.7609
  760MOL0     C 2492   4.537   0.186   2.877 -1.0745  0.3715 -1.2651
  760MOL0     C 2493   4.542   0.304   2.796  0.6710  0.0141  0.1906
  760MOL0     C 2494   4.587   0.200   3.005  0.7040  0.3122  0.0659
  760MOL0     C 2495   4.642   0.322   3.066  0.5842 -0.5574 -0.2309
  760MOL0     O 2496   4.755   0.330   3.134  0.0536 -0.2098 -0.8248
  760MOL0     C 2497   4.778   0.433   3.220 -0.6879  0.2948 -0.9140
  760MOL0     C 2498   4.872   0.521   3.170  0.0515  0.3840  0.4327
  760MOL0     C 2499   4.884   0.646   3.233 -0.5654  1.1905  0.0255
  760MOL0     C 2500   4.795   0.688   3.336 -0.2445  0.2062 -0.3966
  760MOL0     O 2501   4.812   0.823   3.381 -0.1467 -0.2729 -0.0373
  760MOL0     C 2502   4.735   0.873   3.490  0.0502 -0.5775  0.0370
  760MOL0     C 2503   4.811   0.834   3.617 -0.5159  0.3025 -0.1195
  760MOL0     C 2504   4.744   0.872   3.748 -0.3211 -0.8124  0.8627
  760MOL0     C 2505   4.764   1.032   3.772 -0.7323 -0.4758 -0.3901
  760MOL0     C 2506   4.694   1.072   3.908  0.6997 -0.8525  0.8374
  760MOL0     C 2507   4.770   1.023   4.033 -0.0938  0.1249  0.3342
  760MOL0     C 2508   4.715   1.068   4.166  0.7688 -0.2295 -0.2607
  760MOL0     C 2509   4.798   1.032   4.292  0.1647  0.1401  1.2786
  760MOL0    Cl 2510   4.954   1.112   4.279 -0.1649  0.1052 -0.0086
  760MOL0     C 2511   4.704   0.593   3.397 -0.5483 -0.1107  0.8121
  760MOL0     C 2512   4.698   0.465   3.334  0.9928 -0.3093 -0.4877
  760MOL0     O 2513   4.564   0.410   3.053 -0.5370 -1.0611 -0.1460
  760MOL0     C 2514   4.590   0.079   3.080 -0.3123 -0.8907 -0.5945
  760MOL0     C 2515   4.550  -0.049   3.021  0.4949 -0.2535 -0.3211
  760MOL0     N 2516   4.279  -0.590   2.479  0.6456 -0.0628 -0.0142
  760MOL0     N 2517   4.280  -0.539   2.357  0.1878  0.7023 -0.4702
  760MOL0     C 2518   4.601   0.532   2.372  0.6652 -0.3571  0.1813
  760MOL0     C 2519   4.677   0.621   2.304 -0.7069  0.7587 -0.3510
  760MOL0     C 2520   4.810   1.048   2.162 -0.5254 -0.4695  1.0745
  760MOL0     C 2521   4.879   1.162   2.196  0.3204 -0.2231  0.9266
  760MOL0     C 2522   4.929   1.255   2.099 -0.0762  0.6219 -0.0013
  760MOL0     C 2523   4.915   1.227   1.963  0.3441 -1.5670  0.6996
  760MOL0     O 2524   4.960   1.329   1.884  0.4528  0.1799  0.0930
  760MOL0     C 2525   4.929   1.333   1.740 -0.5845  0.2740  0.5495
  760MOL0     C 2526   4.989   1.459   1.681  0.2052  1.0704 -0.2485
  760MOL0     C 2527   5.137   1.440   1.651  0.3283  0.2468  0.0189
  760MOL0     C 2528   5.195   1.562   1.577 -0.7227  1.1538  0.5830
  760MOL0     C 2529   5.220   1.676   1.664  1.4078  0.1235  0.3411
  760MOL0     C 2530   5.227   1.767   1.734 -1.1609 -0.8504  0.3887
  760MOL0     C 2531   4.841   1.117   1.926  0.0079 -1.3030  0.6172
  760MOL0     C 2532   4.794   1.025   2.024  0.2604  0.4057  0.6007
  760MOL0     H 2533   4.471   0.879   2.271 -1.4922 -1.1874 -0.0846
  760MOL0     H 2534   4.322   0.733   2.385  0.1423 -0.8847  1.6800
  760MOL0     H 2535   4.215   0.523   2.534 -2.7086 -0.1849 -2.6224
  760MOL0     H 2536   4.218   0.468   2.381 -3.1253 -0.3811  0.2335
  760MOL0     H 2537   4.252   0.300   2.641  2.4794  1.1066 -0.9129
  760MOL0     H 2538   4.101   0.307   2.549  0.9512  3.3671  2.5405
  760MOL0     H 2539   4.288   0.227   2.350  2.1749 -2.1092 -0.1429
  760MOL0     H 2540   4.368   0.158   2.491 -0.2712 -1.8118 -0.8509
  760MOL0     H 2541   4.215   0.042   2.575  3.8703  2.0451 -0.9714
  760MOL0     H 2542   4.073   0.109   2.490  1.0068  1.7318 -0.2414
  760MOL0     H 2543   4.087  -0.079   2.374 -0.6422  2.3249  1.9695
  760MOL0     H 2544   4.178   0.008   2.261  0.5535 -0.2662 -0.9858
  760MOL0     H 2545   4.406  -0.022   2.350  2.2751 -2.6873  0.6736
  760MOL0     H 2546   4.330  -0.135   2.470  2.1994  0.0938  0.7632
  760MOL0     H 2547   4.345  -0.158   2.158  2.0019 -4.6091 -2.7894
  760MOL0     H 2548   4.436  -0.255   2.284 -0.4764 -0.3301  2.2849
  760MOL0     H 2549   4.251  -0.367   2.157  1.2130  1.4019 -0.3534
  760MOL0     H 2550   4.140  -0.264   2.255  0.5087  0.0018 -0.3406
  760MOL0     H 2551   4.166  -0.288   2.530 -2.5647 -1.9305  0.0241
  760MOL0     H 2552   4.088  -0.478   2.727  0.1736 -0.3212  3.4537
  760MOL0     H 2553   4.204  -0.609   2.736  1.8800  0.5047  1.7786
  760MOL0     H 2554   4.211  -0.421   2.899 -3.3246  1.1936 -1.0384
  760MOL0     H 2555   4.219  -0.310   2.780 -1.1874 -0.5220  0.9699
  760MOL0     H 2556   4.445  -0.413   2.707  3.8411 -3.9014  1.2740
  760MOL0     H 2557   4.447  -0.504   2.846 -1.5890  0.3551  2.3978
  760MOL0     H 2558   4.561  -0.300   2.940  0.9025  1.1121 -1.8136
  760MOL0     H 2559   4.390  -0.276   2.977 -1.7447  1.7151 -0.9560
  760MOL0     H 2560   4.488   0.053   2.709 -1.4136 -3.0008 -0.3714
  760MOL0     H 2561   4.629   0.368   2.811  1.3866 -0.9811  0.3795
  760MOL0     H 2562   4.552   0.278   2.690 -0.1381 -0.7644  0.2908
  760MOL0     H 2563   4.451   0.363   2.810  0.0377 -1.4103  2.7396
  760MOL0     H 2564   4.931   0.497   3.082  1.3828  0.8375  1.1759
  760MOL0     H 2565   4.961   0.715   3.201 -1.0067  1.3957 -0.6066
  760MOL0     H 2566   4.735   0.982   3.480  0.7532 -0.5108  0.6564
  760MOL0     H 2567   4.633   0.834   3.493 -0.4470  0.6409 -0.4221
  760MOL0     H 2568   4.800   0.725   3.626 -3.1861  0.4237 -1.0753
  760MOL0     H 2569   4.915   0.868   3.611 -0.3667 -0.0620  0.3318
  760MOL0     H 2570   4.793   0.821   3.832  0.9502  0.8690  1.1918
  760MOL0     H 2571   4.636   0.858   3.755 -0.5165  0.9136  2.0930
  760MOL0     H 2572   4.868   1.065   3.776 -1.1384  1.1691 -1.8923
  760MOL0     H 2573   4.707   1.076   3.689 -1.7494 -1.6665 -0.3429
  760MOL0     H 2574   4.594   1.032   3.924 -0.0844  0.3723 -0.7887
  760MOL0     H 2575   4.692   1.180   3.924  0.3257 -0.8839  1.0038
  760MOL0     H 2576   4.776   0.914   4.034 -3.2190 -0.4107 -4.7788
  760MOL0     H 2577   4.872   1.062   4.023  0.0913 -0.0871  1.2849
  760MOL0     H 2578   4.615   1.025   4.175 -1.2834  2.8647 -4.3471
  760MOL0     H 2579   4.707   1.177   4.171 -0.4092 -0.3565  2.1787
  760MOL0     H 2580   4.824   0.926   4.299  2.5576  0.6361  0.6187
  760MOL0     H 2581   4.733   1.052   4.377  1.3570 -2.0252  2.8044
  760MOL0     H 2582   4.629   0.624   3.469  0.0985  1.0616  1.0048
  760MOL0     H 2583   4.618   0.396   3.362 -0.9083  1.5025 -1.2090
  760MOL0     H 2584   4.628   0.077   3.182  0.8017 -0.1362 -0.9845
  760MOL0     H 2585   4.541  -0.137   3.084  2.0201 -1.2440 -1.4101
  760MOL0     H 2586   4.648   0.434   2.382  0.6577 -0.9087 -3.7916
  760MOL0     H 2587   4.778   0.589   2.280 -0.1927  0.6460  1.7292
  760MOL0     H 2588   4.883   1.175   2.304 -2.3493 -3.2674  1.5462
  760MOL0     H 2589   4.980   1.341   2.140  0.0723  1.5533 -2.0621
  760MOL0     H 2590   4.971   1.253   1.680 -0.8465  0.0915  0.6080
  760MOL0     H 2591   4.822   1.330   1.716 -0.3267  2.0045 -1.0457
  760MOL0     H 2592   4.976   1.543   1.750 -1.6538  0.7046 -0.0911
  760MOL0     H 2593   4.942   1.479   1.584  0.7186 -2.8291 -1.4759
  760MOL0     H 2594   5.145   1.352   1.587  3.4333  0.6837 -0.3390
  760MOL0     H 2595   5.202   1.413   1.735 -0.8965 -0.6269  0.7150
  760MOL0     H 2596   5.124   1.580   1.496 -0.0232  0.6390 -0.1588
  760MOL0     H 2597   5.287   1.532   1.528 -2.2555 -0.0695 -1.7395
  760MOL0     H 2598   5.234   1.853   1.798  1.4169  0.5303 -1.5476
  760MOL0     H 2599   4.826   1.082   1.824  1.9873 -1.1295  0.2139
  760MOL0     H 2600   4.759   0.927   1.993 -1.1004  0.9714  0.2938
  761MOL0     O 2601   7.752   2.175   2.531 -0.1016  0.6175  0.0615
  761MOL0     C 2602   7.841   2.102   2.484  0.9073 -0.3184 -0.4797
  761MOL0     O 2603   7.959   2.073   2.542 -0.0164 -0.5180  0.2360
  761MOL0     C 2604   7.990   2.129   2.667 -0.2416 -0.8136 -0.0914
  761MOL0     C 2605   7.945   2.258   2.703 -0.3865 -0.4051  0.3232
  761MOL0     C 2606   7.992   2.316   2.824  1.0453  0.1380  1.0617
  761MOL0     C 2607   8.056   2.235   2.913 -0.4924 -0.9231 -0.4134
  761MOL0     O 2608   8.093   2.279   3.039  0.1400 -0.3961 -0.6628
  761MOL0     C 2609   8.153   2.410   3.035 -0.2386  0.5945  0.4795
  761MOL0     C 2610   8.303   2.379   3.008  0.4317 -1.2879 -0.2093
  761MOL0     C 2611   8.375   2.517   3.023 -0.2326  0.6765 -0.8690
  761MOL0     C 2612   8.526   2.504   3.037 -1.4027 -1.0110  0.0216
  761MOL0     C 2613   8.572   2.641   3.010  0.3015  0.0478  0.5052
  761MOL0     C 2614   8.718   2.649   3.046 -0.3549  0.0511  0.2805
  761MOL0     C 2615   8.789   2.786   3.035  0.5819  0.1120 -0.5628
  761MOL0     C 2616   8.938   2.780   3.053  0.3699  1.0042  0.4080
  761MOL0     N 2617   9.004   2.727   2.936 -0.3129  0.6837  0.1498
  761MOL0     C 2618   9.031   2.794   2.826  0.5679  0.0741 -0.1767
  761MOL0     C 2619   9.116   2.716   2.755 -0.9507  0.2591  0.3319
  761MOL0     C 2620   9.174   2.761   2.619 -0.4007  0.5974  0.3367
  761MOL0     C 2621   9.263   2.645   2.559 -0.6084  0.2109  0.8678
  761MOL0     C 2622   9.389   2.613   2.629 -0.6901  0.3588 -0.0621
  761MOL0     C 2623   9.485   2.550   2.526 -0.9876 -0.8646 -0.2876
  761MOL0     O 2624   9.444   2.427   2.468  0.3051 -0.2568 -0.6353
  761MOL0     C 2625   9.481   2.308   2.515 -0.2304  0.7459 -0.0569
  761MOL0     C 2626   9.601   2.283   2.591 -0.2236 -0.0223  0.3166
  761MOL0     C 2627   9.625   2.148   2.635 -0.0383  0.3971  0.0834
  761MOL0     C 2628   9.736   2.142   2.734 -0.0481  0.0801 -0.3977
  761MOL0     C 2629   9.538   2.042   2.599  0.3364 -0.2900 -0.4391
  761MOL0     C 2630   9.544   1.905   2.648  0.0663  0.0556  0.6233
  761MOL0     O 2631   9.465   1.821   2.572  0.0387 -0.0294 -0.1211
  761MOL0     C 2632   9.452   1.689   2.592 -0.1923 -0.3081  0.5063
  761MOL0     C 2633   9.414   1.627   2.477  0.1408 -0.0023 -0.0657
  761MOL0     C 2634   9.412   1.484   2.475  0.1876  0.5948  0.4620
  761MOL0     C 2635   9.433   1.416   2.589 -0.5158  0.3420  0.0845
  761MOL0     O 2636   9.408   1.277   2.588  0.2164 -1.1873 -0.2641
  761MOL0     C 2637   9.501   1.201   2.661 -0.4011  0.3068 -0.2841
  761MOL0     C 2638   9.470   1.055   2.645  0.0842 -0.2973  0.0568
  761MOL0     C 2639   9.498   1.014   2.503  0.3754  0.1644  0.7178
  761MOL0     C 2640   9.643   0.994   2.453  0.0378 -0.6202  0.0885
  761MOL0     C 2641   9.659   0.898   2.333  0.4110  0.6790  0.4014
  761MOL0     C 2642   9.806   0.875   2.305  0.1760 -0.1213  0.0989
  761MOL0     C 2643   9.841   0.823   2.161  0.2298 -0.4921 -0.8002
  761MOL0     C 2644   9.759   0.703   2.117  0.7247 -0.2371 -1.1185
  761MOL0    Cl 2645   9.801   0.562   2.220  0.3183  0.3410 -0.6959
  761MOL0     C 2646   9.471   1.483   2.707 -0.3195 -0.1753  0.5950
  761MOL0     C 2647   9.474   1.619   2.710  0.0319 -0.9939  0.0510
  761MOL0     O 2648   9.622   1.871   2.736 -0.1206  0.0874 -1.0875
  761MOL0     C 2649   9.428   2.073   2.508 -0.3639  1.0679 -0.1587
  761MOL0     C 2650   9.404   2.200   2.465 -0.9645  0.9882 -0.7047
  761MOL0     N 2651   9.132   2.605   2.821  0.0987 -0.1300 -0.9261
  761MOL0     N 2652   9.060   2.599   2.928 -0.6700  0.9905 -0.4058
  761MOL0     C 2653   8.093   2.107   2.873 -0.0640  0.4304  0.1363
  761MOL0     C 2654   8.069   2.054   2.751  0.0626 -0.5730 -0.6271
  761MOL0     C 2655   7.801   2.037   2.363  1.4369  0.9920  0.8146
  761MOL0     C 2656   7.884   1.934   2.308  1.0979  1.0710 -0.8701
  761MOL0     C 2657   7.840   1.865   2.201 -0.1438  0.5789  0.4599
  761MOL0     C 2658   7.714   1.872   2.148 -1.0480 -1.0592 -0.2660
  761MOL0     O 2659   7.667   1.784   2.054 -0.4769  0.0302  0.3491
  761MOL0     C 2660   7.754   1.758   1.943  1.2623  0.0174 -1.4394
  761MOL0     C 2661   7.662   1.668   1.855  0.6510 -0.0084 -0.5280
  761MOL0     C 2662   7.627   1.532   1.920  0.2811  0.2669 -0.6880
  761MOL0     C 2663   7.533   1.450   1.839 -0.1115  0.8293 -0.9420
  761MOL0     C 2664   7.403   1.509   1.832  0.6294  0.9066 -0.7163
  761MOL0     C 2665   7.295   1.567   1.822 -0.5626  0.3274  0.0955
  761MOL0     C 2666   7.636   1.984   2.191 -0.3673  1.0318  0.0689
  761MOL0     C 2667   7.677   2.062   2.301 -0.4044  0.2884 -0.4566
  761MOL0     H 2668   7.896   2.319   2.627  0.1544 -1.1169 -0.6190
  761MOL0     H 2669   7.965   2.419   2.845 -0.0507  0.0111  0.3666
  761MOL0     H 2670   8.107   2.490   2.976 -0.8528 -1.4818 -2.0245
  761MOL0     H 2671   8.157   2.448   3.138  0.8868 -0.3218  0.7980
  761MOL0     H 2672   8.336   2.316   3.092  2.3793  0.9907  0.8499
  761MOL0     H 2673   8.331   2.345   2.908  2.2943  1.3521 -0.7057
  761MOL0     H 2674   8.343   2.586   2.944 -3.2034 -1.0335 -1.3250
  761MOL0     H 2675   8.326   2.571   3.104 -2.0179  0.6512 -1.8664
  761MOL0     H 2676   8.533   2.462   3.138 -0.9975  0.0310  0.4383
  761MOL0     H 2677   8.570   2.444   2.957 -0.2361  2.2916 -2.0119
  761MOL0     H 2678   8.567   2.661   2.902 -2.3293 -0.2600  0.4940
  761MOL0     H 2679   8.516   2.727   3.046 -1.2730  0.7857 -3.1934
  761MOL0     H 2680   8.730   2.610   3.147 -0.5828  2.1358  1.1519
  761MOL0     H 2681   8.776   2.580   2.983  3.4404  2.1877  1.1472
  761MOL0     H 2682   8.772   2.839   2.941  1.9721  0.3942 -0.6851
  761MOL0     H 2683   8.749   2.860   3.105  1.3937 -0.8269  0.9696
  761MOL0     H 2684   8.945   2.707   3.134 -0.4733  2.3649  1.7682
  761MOL0     H 2685   8.977   2.878   3.082  2.2736 -0.1145  1.9064
  761MOL0     H 2686   9.015   2.900   2.805 -1.0719 -0.5563 -2.5225
  761MOL0     H 2687   9.080   2.765   2.563  0.4928 -1.0358 -1.3809
  761MOL0     H 2688   9.232   2.853   2.621 -1.8998  1.5744 -0.0734
  761MOL0     H 2689   9.286   2.671   2.456  2.3900 -4.0152  0.1952
  761MOL0     H 2690   9.205   2.552   2.562 -0.8935  0.3903  3.5192
  761MOL0     H 2691   9.382   2.545   2.714  4.1142 -2.3628 -1.4461
  761MOL0     H 2692   9.435   2.707   2.661 -3.2766  2.0451 -0.9616
  761MOL0     H 2693   9.584   2.559   2.573 -0.2371  1.2772 -2.0490
  761MOL0     H 2694   9.487   2.621   2.442  0.1054  0.9443  1.1936
  761MOL0     H 2695   9.661   2.373   2.604 -3.2563  2.1846  0.2068
  761MOL0     H 2696   9.815   2.080   2.690 -1.7383 -2.3269 -0.2593
  761MOL0     H 2697   9.767   2.244   2.757  1.8365 -0.8582  1.5863
  761MOL0     H 2698   9.712   2.090   2.827 -0.9199  1.6105  0.2712
  761MOL0     H 2699   9.400   1.685   2.386  3.2463 -0.9952 -1.3248
  761MOL0     H 2700   9.386   1.437   2.381 -0.6582  1.9126 -0.0032
  761MOL0     H 2701   9.604   1.229   2.635  0.8328 -3.1919  0.1761
  761MOL0     H 2702   9.478   1.224   2.765 -1.7549  2.5914 -1.0350
  761MOL0     H 2703   9.532   0.989   2.706 -0.2059 -0.2678  0.3874
  761MOL0     H 2704   9.363   1.039   2.666 -0.0994 -1.4020 -1.5159
  761MOL0     H 2705   9.460   1.089   2.433  1.6424 -1.1955 -1.5537
  761MOL0     H 2706   9.444   0.923   2.473 -0.7361 -0.3546  3.9756
  761MOL0     H 2707   9.685   1.091   2.424  0.7869 -1.1774 -0.7080
  761MOL0     H 2708   9.710   0.961   2.532  0.1607  0.2175  0.3500
  761MOL0     H 2709   9.604   0.949   2.253  0.2940 -1.7287 -1.1342
  761MOL0     H 2710   9.602   0.805   2.338 -0.4387  1.2359  1.4621
  761MOL0     H 2711   9.878   0.955   2.325  3.3366 -2.7987  0.2825
  761MOL0     H 2712   9.841   0.795   2.371  0.9334 -0.5624 -0.8118
  761MOL0     H 2713   9.946   0.794   2.170  0.5446  0.9698  0.6975
  761MOL0     H 2714   9.848   0.909   2.093  0.9810 -1.0188 -1.3992
  761MOL0     H 2715   9.812   0.678   2.025  2.4138  1.6318 -0.7457
  761MOL0     H 2716   9.655   0.720   2.090  0.4710 -0.1167 -0.0965
  761MOL0     H 2717   9.490   1.425   2.797  1.1538 -0.2124  0.2945
  761MOL0     H 2718   9.504   1.670   2.801 -1.5768  2.4106 -1.1685
  761MOL0     H 2719   9.364   1.997   2.464  0.7635  1.2287 -2.2146
  761MOL0     H 2720   9.322   2.211   2.396 -2.4239  0.6313  0.9093
  761MOL0     H 2721   8.134   2.045   2.952 -3.4236 -1.9236  0.2761
  761MOL0     H 2722   8.116   1.963   2.716  1.3077  0.4645 -1.7300
  761MOL0     H 2723   7.980   1.909   2.353  0.6648 -0.0827 -0.5501
  761MOL0     H 2724   7.899   1.780   2.166 -1.1987  0.9592 -2.6142
  761MOL0     H 2725   7.785   1.850   1.894 -0.3033 -0.3487 -3.2282
  761MOL0     H 2726   7.837   1.701   1.986 -0.6558 -0.3541  2.2495
  761MOL0     H 2727   7.717   1.646   1.764  0.5087  2.5722 -1.3147
  761MOL0     H 2728   7.580   1.735   1.828 -0.5201 -1.0376  0.3030
  761MOL0     H 2729   7.581   1.534   2.019 -0.0255 -4.8957 -0.4509
  761MOL0     H 2730   7.725   1.486   1.939 -0.7624 -2.4051 -1.3299
  761MOL0     H 2731   7.518   1.353   1.887 -0.3475  1.0905 -0.4714
  761MOL0     H 2732   7.583   1.431   1.744  2.8129  0.9834  0.4503
  761MOL0     H 2733   7.203   1.620   1.811 -0.8428 -0.6002 -2.9530
  761MOL0     H 2734   7.537   1.991   2.147  0.6853 -0.8169 -2.8589
  761MOL0     H 2735   7.606   2.139   2.332  0.6562  1.3799 -0.6771
  762MOL0     O 2736   5.685   8.372   4.376  1.0073 -0.3244 -0.3974
  762MOL0     C 2737   5.570   8.356   4.335 -0.2020 -0.5475 -0.3284
  762MOL0     O 2738   5.449   8.407   4.385  0.0416  0.3633  1.0684
  762MOL0     C 2739   5.437   8.499   4.485  0.4835  0.5169  0.1721
  762MOL0     C 2740   5.310   8.510   4.553  0.2579 -0.5718  0.0575
  762MOL0     C 2741   5.295   8.595   4.657 -0.3392  0.0420  0.3238
  762MOL0     C 2742   5.406   8.672   4.699  0.0452  1.0684  0.1527
  762MOL0     O 2743   5.396   8.748   4.809  0.4979 -0.0622  0.6192
  762MOL0     C 2744   5.425   8.691   4.934 -0.1323  0.1316  0.2248
  762MOL0     C 2745   5.571   8.645   4.949  0.1986  0.0481  0.8726
  762MOL0     C 2746   5.605   8.593   5.090  0.1949 -0.1840  0.5108
  762MOL0     C 2747   5.513   8.480   5.139  0.7477  0.1987  0.1151
  762MOL0     C 2748   5.566   8.412   5.261  0.5873  0.0244 -0.0716
  762MOL0     C 2749   5.543   8.486   5.391  0.7413  0.3110  0.4932
  762MOL0     C 2750   5.593   8.397   5.510 -0.1940  0.2216 -0.1559
  762MOL0     C 2751   5.510   8.416   5.628  0.0574 -0.3617 -0.4702
  762MOL0     N 2752   5.589   8.380   5.740  0.5329  0.5187 -0.5017
  762MOL0     C 2753   5.667   8.459   5.822  0.3127 -0.7787 -0.0070
  762MOL0     C 2754   5.696   8.388   5.924  0.4635 -0.1671  0.1114
  762MOL0     C 2755   5.782   8.425   6.047 -0.2616  0.9807 -0.0598
  762MOL0     C 2756   5.746   8.340   6.175 -0.0640  0.2665  0.3492
  762MOL0     C 2757   5.619   8.382   6.245  0.5511  0.6277  0.7945
  762MOL0     C 2758   5.573   8.260   6.335 -0.0134 -0.8332  0.4221
  762MOL0     O 2759   5.494   8.323   6.441 -0.3239 -0.1128 -0.7333
  762MOL0     C 2760   5.389   8.246   6.489 -0.0504 -0.2381  0.6324
  762MOL0     C 2761   5.305   8.184   6.403  0.1353 -0.3219  0.5130
  762MOL0     C 2762   5.200   8.105   6.447 -0.8478 -0.1183  0.7487
  762MOL0     C 2763   5.143   8.019   6.335  0.6439  0.0566  0.3903
  762MOL0     C 2764   5.179   8.093   6.591 -0.8335  0.6626  0.7032
  762MOL0     C 2765   5.085   8.004   6.656  1.5376 -0.0366 -1.4514
  762MOL0     O 2766   5.071   8.000   6.784  0.6235 -0.3990 -0.9249
  762MOL0     C 2767   4.954   7.956   6.844 -0.2873  0.0554 -0.1540
  762MOL0     C 2768   4.867   8.045   6.907 -0.0571 -0.2333  0.3112
  762MOL0     C 2769   4.748   8.002   6.964 -1.0073 -0.6989 -0.1756
  762MOL0     C 2770   4.725   7.860   6.974  0.0298 -0.1534 -0.2384
  762MOL0     O 2771   4.620   7.826   7.055  0.4307  0.0744 -0.0877
  762MOL0     C 2772   4.586   7.691   7.064  1.2310  0.0313 -0.9615
  762MOL0     C 2773   4.497   7.625   6.955 -0.4400 -0.8703  1.7143
  762MOL0     C 2774   4.358   7.679   6.960  0.4664 -0.4750 -0.0114
  762MOL0     C 2775   4.264   7.625   6.855 -1.2401  0.4931 -0.8074
  762MOL0     C 2776   4.121   7.663   6.891  0.6029  0.3054  0.4922
  762MOL0     C 2777   4.077   7.578   7.009  0.2217 -0.1933  0.1492
  762MOL0     C 2778   3.940   7.644   7.046 -0.5506 -0.0197 -0.8312
  762MOL0     C 2779   3.818   7.597   6.962  0.2309  0.2560 -0.2258
  762MOL0    Cl 2780   3.808   7.421   6.974 -0.4728  0.0364  0.1479
  762MOL0     C 2781   4.811   7.774   6.905  0.2854 -0.5216  0.6370
  762MOL0     C 2782   4.927   7.821   6.841  0.7397 -0.1681 -1.3303
  762MOL0     O 2783   5.040   7.916   6.583  0.2346  0.1896 -0.0087
  762MOL0     C 2784   5.268   8.164   6.678  0.7110 -0.7497 -0.1333
  762MOL0     C 2785   5.367   8.238   6.628 -1.1932 -0.2646  0.2065
  762MOL0     N 2786   5.641   8.265   5.910  0.0410  0.4813  0.8552
  762MOL0     N 2787   5.578   8.262   5.800  0.0983 -0.2387  0.0631
  762MOL0     C 2788   5.523   8.675   4.621 -0.6273  0.7906 -0.0153
  762MOL0     C 2789   5.538   8.583   4.525 -0.4669  0.2607  0.2989
  762MOL0     C 2790   5.556   8.265   4.222  0.7697  1.7036  1.0387
  762MOL0     C 2791   5.655   8.263   4.115 -0.3901 -0.7691 -1.0872
  762MOL0     C 2792   5.634   8.171   4.008  0.5606  0.1726  0.0325
  762MOL0     C 2793   5.518   8.097   3.999  0.0884  1.0052  0.4679
  762MOL0     O 2794   5.493   8.011   3.889 -0.8221 -0.2039 -0.0141
  762MOL0     C 2795   5.600   7.983   3.803  0.8625 -0.3184  0.3830
  762MOL0     C 2796   5.555   7.875   3.702  0.2951  0.1706 -0.2572
  762MOL0     C 2797   5.454   7.930   3.601  0.3945 -0.8627 -0.6374
  762MOL0     C 2798   5.414   7.817   3.487 -0.8301 -0.4836 -0.8874
  762MOL0     C 2799   5.359   7.708   3.554  0.4504  0.2568  0.0044
  762MOL0     C 2800   5.311   7.596   3.590 -0.1802 -0.0311 -0.6844
  762MOL0     C 2801   5.417   8.116   4.087  0.4200  0.0816 -0.5756
  762MOL0     C 2802   5.433   8.187   4.199 -0.1648  0.2820 -0.2316
  762MOL0     H 2803   5.227   8.447   4.522  0.1962  0.5101 -2.1495
  762MOL0     H 2804   5.208   8.591   4.723  1.3682 -0.3965  2.7042
  762MOL0     H 2805   5.394   8.758   5.014  1.9367  3.0673 -1.2658
  762MOL0     H 2806   5.370   8.598   4.955 -1.1802  1.3019  3.1975
  762MOL0     H 2807   5.598   8.565   4.880 -1.4663  0.6286 -0.5219
  762MOL0     H 2808   5.636   8.729   4.921 -0.1587 -1.1777 -4.8098
  762MOL0     H 2809   5.713   8.575   5.098  0.8715 -0.0260 -4.8251
  762MOL0     H 2810   5.591   8.686   5.146  1.4122  2.3562 -3.0772
  762MOL0     H 2811   5.408   8.502   5.163  0.5013 -1.2314  0.4433
  762MOL0     H 2812   5.505   8.406   5.059 -0.6401 -0.5413  0.8970
  762MOL0     H 2813   5.500   8.325   5.267 -1.8179  1.7441 -0.0182
  762MOL0     H 2814   5.673   8.389   5.256  0.9199  0.9341  1.8799
  762MOL0     H 2815   5.600   8.579   5.382  0.9001  0.2219  0.5916
  762MOL0     H 2816   5.439   8.515   5.407 -0.1842 -1.2167 -2.0980
  762MOL0     H 2817   5.598   8.292   5.481  1.6731 -0.1894  1.4553
  762MOL0     H 2818   5.698   8.423   5.527  0.4969 -0.9078 -2.3399
  762MOL0     H 2819   5.413   8.367   5.630  0.3523 -0.9875 -1.0895
  762MOL0     H 2820   5.487   8.522   5.638  1.1004 -0.2989  2.1859
  762MOL0     H 2821   5.683   8.565   5.804 -0.1011 -0.8067 -0.5867
  762MOL0     H 2822   5.890   8.412   6.034 -0.0243  1.6220  1.1097
  762MOL0     H 2823   5.767   8.531   6.069 -0.9722  0.6803  0.9979
  762MOL0     H 2824   5.824   8.363   6.247  1.2206  1.5890 -1.3736
  762MOL0     H 2825   5.729   8.233   6.164 -3.5984  0.3003  3.5768
  762MOL0     H 2826   5.544   8.392   6.165 -0.9253  3.1886  2.3730
  762MOL0     H 2827   5.630   8.473   6.304  2.5933  1.2986 -0.5145
  762MOL0     H 2828   5.654   8.221   6.397 -0.0255  0.7077  1.4559
  762MOL0     H 2829   5.521   8.180   6.282  0.2986 -1.4443  1.0128
  762MOL0     H 2830   5.325   8.192   6.297 -0.4920 -3.3779  0.0592
  762MOL0     H 2831   5.186   8.035   6.235  2.8610 -1.7115  0.9767
  762MOL0     H 2832   5.158   7.915   6.363 -2.6422 -0.3015  1.1206
  762MOL0     H 2833   5.037   8.038   6.318  1.6253  4.4595 -2.7839
  762MOL0     H 2834   4.904   8.147   6.898 -1.2933  0.1570 -0.6221
  762MOL0     H 2835   4.690   8.074   7.022  2.4358  1.4780  0.8170
  762MOL0     H 2836   4.675   7.628   7.074  0.5592 -0.6164  1.4531
  762MOL0     H 2837   4.530   7.679   7.157  0.5293  0.9883 -1.2522
  762MOL0     H 2838   4.547   7.648   6.860 -3.4979  0.8385  0.3682
  762MOL0     H 2839   4.493   7.519   6.981 -0.2218 -1.2141  0.4566
  762MOL0     H 2840   4.370   7.784   6.932 -2.1019 -0.6682 -2.1833
  762MOL0     H 2841   4.328   7.672   7.064 -0.1068  1.4744 -0.0079
  762MOL0     H 2842   4.284   7.673   6.758  0.3232 -2.9490 -2.3233
  762MOL0     H 2843   4.278   7.517   6.848  2.6191  0.9039 -1.9143
  762MOL0     H 2844   4.056   7.658   6.803  0.7744  1.2841  0.2978
  762MOL0     H 2845   4.126   7.769   6.920  0.7299  0.1425  1.0637
  762MOL0     H 2846   4.061   7.472   6.988  0.4559 -0.3945  0.9748
  762MOL0     H 2847   4.145   7.589   7.093  3.3679  0.7504 -2.3418
  762MOL0     H 2848   3.954   7.752   7.050  1.7364 -0.2937  0.4262
  762MOL0     H 2849   3.909   7.609   7.145  1.1967  0.8328  0.0792
  762MOL0     H 2850   3.834   7.634   6.860  0.8081  1.2231  0.2037
  762MOL0     H 2851   3.720   7.640   6.986 -0.9400 -1.7387 -1.1709
  762MOL0     H 2852   4.799   7.667   6.890  1.9618 -0.5671 -0.6275
  762MOL0     H 2853   4.995   7.760   6.783  2.0141 -1.4903  1.3687
  762MOL0     H 2854   5.253   8.169   6.786 -0.5623  0.6292 -0.3437
  762MOL0     H 2855   5.424   8.308   6.688 -0.1893  1.6523 -2.7638
  762MOL0     H 2856   5.601   8.744   4.650 -0.2665  0.3961 -0.0399
  762MOL0     H 2857   5.621   8.587   4.455 -0.8182  3.5466 -0.0661
  762MOL0     H 2858   5.746   8.321   4.124  0.2791 -1.5402 -2.5620
  762MOL0     H 2859   5.724   8.155   3.949  0.7333 -1.3094  0.6538
  762MOL0     H 2860   5.630   8.077   3.756 -1.1191 -1.7539 -4.3258
  762MOL0     H 2861   5.681   7.949   3.870  1.3317  2.6278  1.4858
  762MOL0     H 2862   5.508   7.794   3.758  0.4454  1.4443  1.8315
  762MOL0     H 2863   5.638   7.832   3.645 -0.7448 -0.7643 -1.1187
  762MOL0     H 2864   5.500   8.016   3.552 -0.3360 -1.7883 -3.0860
  762MOL0     H 2865   5.365   7.968   3.654  2.9598  2.2307  1.8635
  762MOL0     H 2866   5.502   7.785   3.430 -0.6305 -2.9551  0.6820
  762MOL0     H 2867   5.340   7.864   3.422  0.5185  1.2652 -1.2420
  762MOL0     H 2868   5.272   7.516   3.649 -0.8274  0.9747  0.2719
  762MOL0     H 2869   5.326   8.060   4.072  1.7136 -1.8094 -1.8072
  762MOL0     H 2870   5.360   8.187   4.279  2.6518  0.1478  2.5129
  763MOL0     O 2871   2.863   8.892  10.199 -0.1725 -0.1902 -0.2288
  763MOL0     C 2872   2.840   8.772  10.168  0.2864 -0.8762 -1.1459
  763MOL0     O 2873   2.766   8.684  10.238 -0.1209 -0.4571 -0.2303
  763MOL0     C 2874   2.750   8.700  10.372 -0.0026 -0.1997 -0.3614
  763MOL0     C 2875   2.624   8.669  10.429  0.0774  0.1600 -0.1502
  763MOL0     C 2876   2.601   8.675  10.567 -0.1750 -1.2708  0.0276
  763MOL0     C 2877   2.696   8.732  10.657 -0.0386  0.3284  0.4128
  763MOL0     O 2878   2.671   8.741  10.791 -0.5718  0.7638  0.4213
  763MOL0     C 2879   2.708   8.854  10.864  0.8986  0.0954 -0.6364
  763MOL0     C 2880   2.810   8.813  10.976 -0.3424 -0.1667  1.2090
  763MOL0     C 2881   2.863   8.926  11.059  0.4055  0.5115  0.2405
  763MOL0     C 2882   2.932   8.880  11.186 -0.2420 -0.7975  0.1515
  763MOL0     C 2883   2.953   8.997  11.284 -0.4302 -0.0788 -0.4513
  763MOL0     C 2884   3.058   9.094  11.232 -0.5615 -0.1895 -0.8699
  763MOL0     C 2885   3.110   9.208  11.340 -0.1742  0.2502  0.0631
  763MOL0     C 2886   3.006   9.308  11.385  0.1943  0.0300 -0.1163
  763MOL0     N 2887   2.951   9.378  11.275  0.6480  0.0874 -0.5652
  763MOL0     C 2888   2.822   9.372  11.222 -0.3685 -0.4225  0.0090
  763MOL0     C 2889   2.828   9.438  11.106  1.4480  0.8020  0.2659
  763MOL0     C 2890   2.717   9.446  11.005 -0.2985 -0.6620  0.1677
  763MOL0     C 2891   2.652   9.310  10.970 -0.5614 -0.2358 -0.2325
  763MOL0     C 2892   2.513   9.311  11.019  0.6207 -0.4021  0.6668
  763MOL0     C 2893   2.445   9.182  11.000 -1.0788  0.1048 -0.9132
  763MOL0     O 2894   2.445   9.106  11.122  0.5303  0.0734 -1.0737
  763MOL0     C 2895   2.373   8.993  11.110 -0.2484  0.7102 -0.0313
  763MOL0     C 2896   2.446   8.880  11.123 -0.5402  0.0199  0.5713
  763MOL0     C 2897   2.384   8.755  11.109 -0.4603 -0.6774  1.2018
  763MOL0     C 2898   2.482   8.640  11.107  0.5170  0.1993 -0.6440
  763MOL0     C 2899   2.246   8.747  11.084 -0.3631  0.1991  1.5123
  763MOL0     C 2900   2.171   8.618  11.060 -0.3427  0.9170 -0.5324
  763MOL0     O 2901   2.055   8.628  10.991 -0.6605 -0.1560 -0.0299
  763MOL0     C 2902   1.990   8.506  10.983  0.8761 -0.7099 -0.0535
  763MOL0     C 2903   2.009   8.417  10.875  0.1892 -0.5997 -0.2528
  763MOL0     C 2904   1.919   8.314  10.841  0.0903 -0.1659  0.7221
  763MOL0     C 2905   1.815   8.280  10.927  0.1349 -0.4042 -0.1345
  763MOL0     O 2906   1.728   8.180  10.899  0.5478  0.0045 -0.1537
  763MOL0     C 2907   1.786   8.054  10.853 -0.6960 -0.6941 -0.2439
  763MOL0     C 2908   1.680   7.973  10.778  0.5301 -0.6515 -0.1087
  763MOL0     C 2909   1.750   7.847  10.726 -0.6423 -0.2325  0.8725
  763MOL0     C 2910   1.655   7.760  10.647 -0.1939 -0.3520 -0.3276
  763MOL0     C 2911   1.656   7.802  10.497  0.4653  1.0359 -0.1610
  763MOL0     C 2912   1.558   7.719  10.420  0.0118 -0.0369  0.3932
  763MOL0     C 2913   1.563   7.747  10.271 -0.4186 -0.0302  0.3667
  763MOL0     C 2914   1.683   7.815  10.213 -1.0547 -0.1663  0.3698
  763MOL0    Cl 2915   1.672   7.811  10.040 -0.0488 -0.0086 -0.2139
  763MOL0     C 2916   1.792   8.372  11.030  0.7562 -0.1302 -0.6665
  763MOL0     C 2917   1.877   8.490  11.062 -0.7687 -0.6013  0.1539
  763MOL0     O 2918   2.201   8.518  11.123 -0.1645 -0.0766 -0.4438
  763MOL0     C 2919   2.174   8.865  11.060  0.1257 -0.3277 -0.2696
  763MOL0     C 2920   2.233   8.993  11.082 -0.1441  0.1670  0.1527
  763MOL0     N 2921   2.955   9.500  11.095  0.2719  1.2486  0.5131
  763MOL0     N 2922   3.023   9.463  11.196  0.8071 -0.1057  0.3245
  763MOL0     C 2923   2.817   8.758  10.603 -0.6174 -0.3858  0.6636
  763MOL0     C 2924   2.846   8.748  10.462 -0.8259 -0.1603 -1.3656
  763MOL0     C 2925   2.911   8.727  10.050  0.5252  0.7203 -0.9488
  763MOL0     C 2926   2.854   8.621   9.977 -0.1599 -1.0394  0.1067
  763MOL0     C 2927   2.906   8.562   9.866 -0.2118  0.9641  0.5915
  763MOL0     C 2928   3.040   8.606   9.820  0.7248 -0.3014  0.1650
  763MOL0     O 2929   3.131   8.545   9.743  0.0804  0.3115  0.4064
  763MOL0     C 2930   3.083   8.456   9.641  0.6873  0.4839 -0.4135
  763MOL0     C 2931   3.208   8.381   9.581 -1.6066  0.0729  0.3224
  763MOL0     C 2932   3.303   8.310   9.682 -0.0479  0.4580 -0.3440
  763MOL0     C 2933   3.412   8.226   9.598  0.4349  0.3574 -0.0017
  763MOL0     C 2934   3.353   8.103   9.525 -0.5190  0.0034 -1.4424
  763MOL0     C 2935   3.318   8.001   9.469  0.2247  1.1361 -0.8903
  763MOL0     C 2936   3.090   8.707   9.890 -0.4609  0.0024  0.1987
  763MOL0     C 2937   3.030   8.769  10.001 -0.4967 -0.5064 -0.4736
  763MOL0     H 2938   2.544   8.640  10.361  0.8529 -1.4218 -0.4245
  763MOL0     H 2939   2.503   8.659  10.611  0.4177 -3.6037  0.5862
  763MOL0     H 2940   2.746   8.930  10.795  1.4112  1.3651  0.9983
  763MOL0     H 2941   2.621   8.900  10.911  1.7188  2.3699 -1.2379
  763MOL0     H 2942   2.756   8.739  11.035  2.5913 -1.3587  2.6018
  763MOL0     H 2943   2.894   8.757  10.933 -0.1018 -1.0663  2.7738
  763MOL0     H 2944   2.938   8.970  10.992  0.6161 -1.8860 -1.2241
  763MOL0     H 2945   2.782   8.995  11.083  1.2212  1.0016  1.7598
  763MOL0     H 2946   2.869   8.801  11.229 -0.4318 -1.7191 -1.7101
  763MOL0     H 2947   3.025   8.834  11.153 -1.2909 -2.2635 -0.9337
  763MOL0     H 2948   2.864   9.056  11.308  0.5141  1.3643 -0.3778
  763MOL0     H 2949   2.987   8.958  11.380 -1.5217  1.2288  0.5034
  763MOL0     H 2950   3.154   9.044  11.215 -0.9280 -0.7175 -1.4013
  763MOL0     H 2951   3.038   9.144  11.137  1.4511  1.9263 -0.2906
  763MOL0     H 2952   3.148   9.159  11.431  1.9561  2.3884  0.4167
  763MOL0     H 2953   3.197   9.260  11.299  1.3976 -2.2209  0.0512
  763MOL0     H 2954   3.045   9.381  11.456 -0.6732  3.0551 -2.5171
  763MOL0     H 2955   2.927   9.251  11.434  1.0655 -0.9919  0.1182
  763MOL0     H 2956   2.750   9.301  11.263  0.6274 -0.3311  2.0726
  763MOL0     H 2957   2.648   9.518  11.050  2.4432  1.4911  1.2498
  763MOL0     H 2958   2.764   9.491  10.917  0.5479  2.0622  1.8894
  763MOL0     H 2959   2.699   9.228  11.025 -0.9580 -0.8961 -0.8527
  763MOL0     H 2960   2.649   9.294  10.861 -3.7794  1.7250 -0.5665
  763MOL0     H 2961   2.460   9.391  10.966  1.6125 -1.6982 -2.5179
  763MOL0     H 2962   2.512   9.321  11.128  0.6719  1.3352  0.5362
  763MOL0     H 2963   2.494   9.130  10.917  0.0711 -0.3765  0.0369
  763MOL0     H 2964   2.349   9.198  10.951 -0.2929  1.6934 -2.0709
  763MOL0     H 2965   2.552   8.889  11.147 -0.7977  1.5097  1.2429
  763MOL0     H 2966   2.461   8.580  11.196  1.4327  4.3507  2.7323
  763MOL0     H 2967   2.456   8.591  11.013  1.3849  0.0950 -0.8323
  763MOL0     H 2968   2.587   8.670  11.116  0.9997 -1.5818  0.0880
  763MOL0     H 2969   2.091   8.445  10.811  0.7193  0.7689  0.9706
  763MOL0     H 2970   1.936   8.247  10.758 -2.0423 -2.0719  1.7327
  763MOL0     H 2971   1.870   8.071  10.785  0.7811  0.5250  1.7612
  763MOL0     H 2972   1.815   8.002  10.945  2.0814  2.5066  0.8964
  763MOL0     H 2973   1.592   7.953  10.840  2.3167 -2.9097  1.8969
  763MOL0     H 2974   1.644   8.034  10.694 -0.6382 -0.2811  0.6503
  763MOL0     H 2975   1.798   7.787  10.803 -0.1033 -2.6444 -1.2137
  763MOL0     H 2976   1.828   7.878  10.655  2.0610  2.5495  4.6406
  763MOL0     H 2977   1.676   7.652  10.648 -0.0488 -0.3218 -0.1148
  763MOL0     H 2978   1.553   7.768  10.687 -0.9330 -0.3990 -2.0989
  763MOL0     H 2979   1.761   7.793  10.469  1.3410 -0.4025  3.0440
  763MOL0     H 2980   1.628   7.907  10.481 -4.7267 -0.4863 -3.3975
  763MOL0     H 2981   1.579   7.612  10.432  0.0173 -0.4710 -2.6850
  763MOL0     H 2982   1.456   7.738  10.457 -0.6800 -1.4065 -0.7192
  763MOL0     H 2983   1.477   7.809  10.242 -0.8810 -1.2317 -0.9394
  763MOL0     H 2984   1.561   7.647  10.228 -2.0337 -0.2927  0.9949
  763MOL0     H 2985   1.777   7.765  10.237 -0.0112  0.1859 -2.6522
  763MOL0     H 2986   1.690   7.919  10.247  2.3451 -0.6116  1.3609
  763MOL0     H 2987   1.702   8.359  11.089  0.8171  1.3169 -0.2069
  763MOL0     H 2988   1.849   8.554  11.145 -2.5496 -0.5580 -0.4502
  763MOL0     H 2989   2.074   8.861  11.019 -0.0540  1.0726 -0.0142
  763MOL0     H 2990   2.181   9.086  11.062 -1.2968 -0.8330 -1.8237
  763MOL0     H 2991   2.902   8.786  10.664  0.9557 -2.5556 -0.3873
  763MOL0     H 2992   2.953   8.761  10.445  0.0115 -1.2108  2.1342
  763MOL0     H 2993   2.764   8.576  10.017 -1.6236 -1.6007 -3.4271
  763MOL0     H 2994   2.857   8.472   9.827  0.7881  0.6474  0.0144
  763MOL0     H 2995   3.019   8.377   9.680  0.5329 -1.2748 -3.8790
  763MOL0     H 2996   3.031   8.523   9.572  0.9051  0.4735 -0.5870
  763MOL0     H 2997   3.263   8.463   9.534  1.1427 -2.0190 -0.3570
  763MOL0     H 2998   3.181   8.321   9.493 -1.3701  0.5582 -0.0915
  763MOL0     H 2999   3.233   8.239   9.727 -1.1263  1.7871  0.1138
  763MOL0     H 3000   3.355   8.368   9.759  2.0057  1.6602 -2.5115
  763MOL0     H 3001   3.477   8.185   9.675 -0.7149  1.5911  1.7096
  763MOL0     H 3002   3.458   8.284   9.517  2.0243 -2.8797 -1.5737
  763MOL0     H 3003   3.287   7.910   9.423  0.2502 -0.7482  2.4446
  763MOL0     H 3004   3.185   8.756   9.866  2.1729 -3.1731  3.1027
  763MOL0     H 3005   3.063   8.861  10.049 -1.4581 -0.7904  0.7591
  764MOL0     O 3006  11.471   0.233   3.733 -0.6338 -0.5378  0.3055
  764MOL0     C 3007  11.581   0.259   3.707  0.9698 -0.0298  0.0006
  764MOL0     O 3008  11.662   0.171   3.654  0.0865  0.1357 -1.0885
  764MOL0     C 3009  11.644   0.040   3.675 -0.4746  0.6902  0.7834
  764MOL0     C 3010  11.683  -0.050   3.571  0.8852 -0.0242 -0.0008
  764MOL0     C 3011  11.657  -0.184   3.569 -0.6229  0.1764 -0.4600
  764MOL0     C 3012  11.602  -0.237   3.687 -0.3826  0.2463  0.4392
  764MOL0     O 3013  11.574  -0.377   3.677 -0.8076 -1.2537  0.2122
  764MOL0     C 3014  11.565  -0.448   3.800  0.2244 -0.3140  0.8641
  764MOL0     C 3015  11.424  -0.478   3.848  0.4184  0.0985  0.7093
  764MOL0     C 3016  11.359  -0.551   3.741 -0.0370 -0.0095 -0.3937
  764MOL0     C 3017  11.205  -0.578   3.755 -0.7938 -0.4542 -0.0984
  764MOL0     C 3018  11.160  -0.678   3.652  0.4097 -0.0019  0.1348
  764MOL0     C 3019  11.066  -0.612   3.549  0.4241 -0.1205  0.1385
  764MOL0     C 3020  10.934  -0.562   3.619  0.0511 -0.4730  0.2897
  764MOL0     C 3021  10.852  -0.458   3.525 -0.2180  0.5725  0.7381
  764MOL0     N 3022  10.741  -0.404   3.598 -0.5028  0.4322  0.9205
  764MOL0     C 3023  10.615  -0.441   3.573  0.6818 -1.0927  0.6543
  764MOL0     C 3024  10.544  -0.395   3.678  0.2401 -0.7121  0.3117
  764MOL0     C 3025  10.398  -0.378   3.692  0.3690 -0.2851 -0.6333
  764MOL0     C 3026  10.335  -0.268   3.597  0.8327 -0.1757  0.3568
  764MOL0     C 3027  10.189  -0.233   3.638 -0.7224  0.3976  0.4361
  764MOL0     C 3028  10.088  -0.334   3.582  1.1335  0.7138 -0.0789
  764MOL0     O 3029  10.106  -0.348   3.439  0.2762  0.1725 -0.2737
  764MOL0     C 3030  10.055  -0.262   3.344  0.0567  0.0386 -0.8698
  764MOL0     C 3031   9.965  -0.164   3.374  0.2798  0.0549 -0.3737
  764MOL0     C 3032   9.943  -0.065   3.279  0.2104  0.2274 -0.1386
  764MOL0     C 3033   9.834   0.040   3.312  0.3294  0.2877 -0.4892
  764MOL0     C 3034   9.995  -0.077   3.152 -0.6768 -0.0479  0.7622
  764MOL0     C 3035   9.981   0.019   3.036 -0.1571 -0.0106 -0.6880
  764MOL0     O 3036   9.917   0.146   3.047  0.1108  0.6965 -0.1473
  764MOL0     C 3037   9.822   0.200   2.955 -1.3633  0.9999  0.9250
  764MOL0     C 3038   9.852   0.212   2.820  0.1105  0.9412  0.0994
  764MOL0     C 3039   9.774   0.284   2.731  0.2631 -0.9815  0.3038
  764MOL0     C 3040   9.662   0.369   2.773 -1.4373  0.2277  0.0366
  764MOL0     O 3041   9.597   0.463   2.697 -0.4718  0.2471 -0.0629
  764MOL0     C 3042   9.629   0.478   2.559 -0.5274  0.0459 -0.2137
  764MOL0     C 3043   9.521   0.573   2.507  0.1251  0.1611  0.5771
  764MOL0     C 3044   9.379   0.511   2.513  0.2704 -0.2272  0.9354
  764MOL0     C 3045   9.285   0.627   2.475  0.3139 -0.1745 -0.2339
  764MOL0     C 3046   9.141   0.575   2.460 -0.3700  0.1308 -0.0353
  764MOL0     C 3047   9.025   0.682   2.465 -0.5762 -0.0792 -0.5611
  764MOL0     C 3048   9.035   0.773   2.344 -0.9756  0.5521  0.2001
  764MOL0     C 3049   9.035   0.919   2.379  1.2768 -0.3010  0.4438
  764MOL0    Cl 3050   8.902   0.971   2.478  0.7290  0.1074  0.1131
  764MOL0     C 3051   9.624   0.348   2.904  0.8340 -0.3291 -0.3676
  764MOL0     C 3052   9.699   0.269   2.989 -0.7449 -0.4018  0.0918
  764MOL0     O 3053  10.034  -0.019   2.932  0.6829 -0.9668 -0.1007
  764MOL0     C 3054  10.087  -0.183   3.135  0.1731 -0.7383  0.2732
  764MOL0     C 3055  10.119  -0.279   3.227  0.5523  0.0259  0.7378
  764MOL0     N 3056  10.632  -0.326   3.758  0.9648  0.0874 -0.2414
  764MOL0     N 3057  10.753  -0.335   3.720  0.6695 -0.7642 -0.0523
  764MOL0     C 3058  11.573  -0.157   3.803 -0.2983  0.3006 -0.0464
  764MOL0     C 3059  11.602  -0.019   3.803 -0.2529 -0.0297  0.4808
  764MOL0     C 3060  11.642   0.386   3.728  0.9464  0.3828  0.2880
  764MOL0     C 3061  11.561   0.501   3.747  1.4831 -0.0294  0.3974
  764MOL0     C 3062  11.604   0.630   3.756  0.3957 -0.2860 -0.1161
  764MOL0     C 3063  11.742   0.647   3.750 -0.2872  0.7863 -0.6218
  764MOL0     O 3064  11.810   0.765   3.728  0.3134 -0.2657  0.0982
  764MOL0     C 3065  11.730   0.863   3.663 -0.1213 -0.1569 -0.6057
  764MOL0     C 3066  11.811   0.925   3.548  0.0100  0.3412 -0.1699
  764MOL0     C 3067  11.950   0.970   3.603  0.0114  0.1777  0.2606
  764MOL0     C 3068  12.040   1.034   3.492 -1.0529  0.2180 -0.0715
  764MOL0     C 3069  11.989   1.169   3.481  0.4724 -0.2939 -0.3783
  764MOL0     C 3070  11.923   1.261   3.466 -0.5796 -0.2366 -1.0644
  764MOL0     C 3071  11.828   0.538   3.733  0.9950  0.6685 -1.0398
  764MOL0     C 3072  11.779   0.406   3.722 -0.5906 -0.0458 -0.6038
  764MOL0     H 3073  11.726   0.013   3.493 -0.4849  1.1126  0.1166
  764MOL0     H 3074  11.686  -0.250   3.488  1.0543 -1.4668  1.3901
  764MOL0     H 3075  11.609  -0.545   3.777 -0.7273 -0.4002 -0.7783
  764MOL0     H 3076  11.635  -0.397   3.867  2.7177  3.4549 -3.9086
  764MOL0     H 3077  11.422  -0.546   3.934 -1.9743 -0.1497  0.5147
  764MOL0     H 3078  11.365  -0.388   3.866 -0.3095 -0.6970  2.6112
  764MOL0     H 3079  11.372  -0.507   3.641 -2.1802  0.7803 -0.3596
  764MOL0     H 3080  11.417  -0.644   3.740  2.5083  1.4537  0.1167
  764MOL0     H 3081  11.189  -0.634   3.848  1.0101 -1.7332 -0.5158
  764MOL0     H 3082  11.143  -0.488   3.749 -0.5604 -0.3165 -0.4772
  764MOL0     H 3083  11.243  -0.719   3.594 -0.8770 -3.5298  0.5328
  764MOL0     H 3084  11.109  -0.765   3.694  0.5776  0.0096  0.3647
  764MOL0     H 3085  11.117  -0.525   3.507  4.0623 -0.8869  2.5363
  764MOL0     H 3086  11.047  -0.682   3.467 -1.4313  0.5516 -0.0700
  764MOL0     H 3087  10.872  -0.652   3.629  1.0446 -1.4515 -1.5790
  764MOL0     H 3088  10.951  -0.518   3.717  0.1827 -0.3171  0.1982
  764MOL0     H 3089  10.809  -0.512   3.440  1.2116 -0.1507  0.4350
  764MOL0     H 3090  10.925  -0.381   3.499 -2.2691  2.4421  0.2690
  764MOL0     H 3091  10.579  -0.493   3.486  0.5986  0.3507 -0.2100
  764MOL0     H 3092  10.352  -0.474   3.669 -1.0361 -1.0776  4.2925
  764MOL0     H 3093  10.375  -0.350   3.795  1.5936 -0.6209 -0.2495
  764MOL0     H 3094  10.328  -0.300   3.493 -0.2715 -1.6654  0.8577
  764MOL0     H 3095  10.405  -0.184   3.601  1.0137 -0.1610 -1.7920
  764MOL0     H 3096  10.166  -0.132   3.602  2.2667  1.3790  0.9662
  764MOL0     H 3097  10.187  -0.213   3.746  1.5433  2.2089  0.2120
  764MOL0     H 3098   9.985  -0.302   3.599  0.6258 -0.1945 -1.2991
  764MOL0     H 3099  10.110  -0.427   3.635  0.5030  0.6430  0.0584
  764MOL0     H 3100   9.933  -0.163   3.478 -1.6266  0.6838 -0.9169
  764MOL0     H 3101   9.784   0.011   3.404 -1.2373  2.6943 -0.4931
  764MOL0     H 3102   9.883   0.138   3.321 -1.0567  0.8619  1.5494
  764MOL0     H 3103   9.761   0.049   3.230  1.5074 -1.0174 -1.7355
  764MOL0     H 3104   9.948   0.176   2.784 -1.6867 -0.4211 -3.9472
  764MOL0     H 3105   9.802   0.276   2.627 -1.8629 -2.0571 -0.2453
  764MOL0     H 3106   9.724   0.523   2.531  1.3328 -1.5640  2.9097
  764MOL0     H 3107   9.617   0.374   2.525  0.5825 -0.6859  1.4879
  764MOL0     H 3108   9.517   0.658   2.575 -1.6574 -0.7907  1.7397
  764MOL0     H 3109   9.559   0.591   2.406  3.4266 -0.8509  1.5079
  764MOL0     H 3110   9.338   0.478   2.608 -2.2401 -1.7167 -0.5501
  764MOL0     H 3111   9.385   0.431   2.438  1.9250  1.9170 -1.4232
  764MOL0     H 3112   9.285   0.702   2.555 -1.8397  0.5892 -0.8821
  764MOL0     H 3113   9.317   0.662   2.376  0.2672 -4.0775 -1.7779
  764MOL0     H 3114   9.125   0.506   2.544  2.6787 -1.0054 -0.2861
  764MOL0     H 3115   9.143   0.510   2.372  2.0067  0.6787 -0.4425
  764MOL0     H 3116   8.929   0.632   2.455 -0.2884 -0.8393  0.3281
  764MOL0     H 3117   9.031   0.744   2.555 -0.4344  0.5623 -0.9994
  764MOL0     H 3118   8.945   0.772   2.282  0.6534 -0.3154 -2.2941
  764MOL0     H 3119   9.122   0.743   2.284 -0.9910 -1.4365  1.0774
  764MOL0     H 3120   9.026   0.984   2.291 -2.1757  0.1361  0.9799
  764MOL0     H 3121   9.125   0.943   2.435  1.1218 -0.8798  0.9573
  764MOL0     H 3122   9.536   0.393   2.949  0.8603 -2.6743  2.2592
  764MOL0     H 3123   9.677   0.263   3.095  1.2886 -1.4478  0.4985
  764MOL0     H 3124  10.147  -0.195   3.045  3.5356 -2.3276  2.5092
  764MOL0     H 3125  10.187  -0.362   3.211  1.1810  0.4896  0.9545
  764MOL0     H 3126  11.527  -0.206   3.887 -3.6939 -2.8597 -3.3655
  764MOL0     H 3127  11.583   0.049   3.885 -1.6297  1.4529 -0.9948
  764MOL0     H 3128  11.454   0.485   3.757  1.3446  0.9339  0.5209
  764MOL0     H 3129  11.521   0.698   3.772 -0.1053 -1.2715  1.7932
  764MOL0     H 3130  11.641   0.823   3.614  1.5576 -4.2913 -0.6955
  764MOL0     H 3131  11.702   0.946   3.728  1.5339  0.9390 -1.2407
  764MOL0     H 3132  11.754   1.012   3.513 -2.0642 -0.0425  2.0548
  764MOL0     H 3133  11.826   0.862   3.459  0.6576  0.5401 -0.2103
  764MOL0     H 3134  12.008   0.881   3.626 -1.0077 -0.4873  0.3084
  764MOL0     H 3135  11.947   1.036   3.690  1.1254 -0.1821  0.5903
  764MOL0     H 3136  12.040   0.979   3.397  1.6121  0.3186 -0.1988
  764MOL0     H 3137  12.143   1.040   3.528 -1.7281  0.4110  1.9500
  764MOL0     H 3138  11.853   1.343   3.475  1.2612  1.3127 -0.1896
  764MOL0     H 3139  11.932   0.569   3.728  1.4878 -0.9927 -1.7934
  764MOL0     H 3140  11.843   0.319   3.724  0.3332  0.5994 -1.5326
  765MOL0     O 3141   2.674   5.401   7.572 -0.0873 -0.2828 -1.2791
  765MOL0     C 3142   2.602   5.304   7.619 -0.5213 -1.0896 -0.3181
  765MOL0     O 3143   2.648   5.204   7.697 -0.5052 -0.3060 -0.4222
  765MOL0     C 3144   2.774   5.207   7.762 -1.0091 -0.4915  0.0997
  765MOL0     C 3145   2.891   5.291   7.731 -0.0621  0.6831 -1.0917
  765MOL0     C 3146   3.002   5.294   7.810 -0.2816 -0.0852 -0.0388
  765MOL0     C 3147   3.008   5.212   7.929  0.0780  0.8904 -0.4411
  765MOL0     O 3148   3.127   5.190   7.990 -0.2110 -0.2395  0.6466
  765MOL0     C 3149   3.209   5.293   8.020  0.1671 -0.0235  0.6633
  765MOL0     C 3150   3.337   5.251   8.097  1.1973  0.0237  0.4015
  765MOL0     C 3151   3.299   5.179   8.231  0.0471  0.2785 -0.5538
  765MOL0     C 3152   3.430   5.161   8.314 -0.0862  0.6225  0.5809
  765MOL0     C 3153   3.405   5.050   8.413  0.7104 -0.5575  0.8324
  765MOL0     C 3154   3.528   4.999   8.475 -0.8673  0.7095 -0.0314
  765MOL0     C 3155   3.498   4.889   8.575 -0.2540  0.4211 -0.0576
  765MOL0     C 3156   3.637   4.836   8.625 -0.0680 -0.3889  0.3891
  765MOL0     N 3157   3.626   4.753   8.755  0.0248  0.0414  1.1854
  765MOL0     C 3158   3.695   4.631   8.766 -0.2367 -0.8806 -0.4878
  765MOL0     C 3159   3.717   4.616   8.903  0.2560 -0.0622  0.5309
  765MOL0     C 3160   3.780   4.501   8.954 -0.5410 -0.5019 -0.5704
  765MOL0     C 3161   3.699   4.384   8.902 -0.4583 -0.1325  0.3193
  765MOL0     C 3162   3.720   4.263   8.991 -0.6311  0.0120 -0.9258
  765MOL0     C 3163   3.628   4.152   8.966  1.3322 -0.0753 -0.6110
  765MOL0     O 3164   3.491   4.187   9.006 -0.3683 -0.0287  0.6674
  765MOL0     C 3165   3.413   4.096   9.075  0.2094  0.7124  0.3250
  765MOL0     C 3166   3.455   3.975   9.116  0.3616 -0.1712  0.0694
  765MOL0     C 3167   3.372   3.890   9.190  0.2668 -0.2814 -0.2692
  765MOL0     C 3168   3.425   3.756   9.234 -0.7956 -0.2560 -0.9559
  765MOL0     C 3169   3.241   3.935   9.228 -0.0690 -0.2240 -0.4673
  765MOL0     C 3170   3.146   3.839   9.300 -0.0268 -0.2997 -0.1497
  765MOL0     O 3171   3.156   3.703   9.266 -0.2496  0.3608 -0.1577
  765MOL0     C 3172   3.040   3.632   9.245 -0.6057 -0.5642  0.2994
  765MOL0     C 3173   2.927   3.684   9.185 -0.6456 -1.1959  0.7952
  765MOL0     C 3174   2.806   3.624   9.175  0.3239 -0.3289 -0.0917
  765MOL0     C 3175   2.792   3.496   9.245  1.3141 -0.0742 -1.0292
  765MOL0     O 3176   2.673   3.416   9.257 -0.1360 -0.2379 -0.2634
  765MOL0     C 3177   2.562   3.471   9.175  0.2956 -0.2662 -0.0815
  765MOL0     C 3178   2.454   3.363   9.152  1.2324 -0.1197 -0.7603
  765MOL0     C 3179   2.379   3.344   9.278  0.5165 -0.4000 -0.8172
  765MOL0     C 3180   2.266   3.238   9.261 -0.8416  0.5044 -0.2097
  765MOL0     C 3181   2.183   3.214   9.388  0.3328  1.5012 -0.2449
  765MOL0     C 3182   2.072   3.320   9.422  0.3805  0.8430 -0.0240
  765MOL0     C 3183   1.986   3.366   9.304 -0.3082  0.8343 -0.2181
  765MOL0     C 3184   1.871   3.452   9.366 -0.3969 -0.3624 -0.2611
  765MOL0    Cl 3185   1.745   3.356   9.449  0.1804  0.5509 -0.3164
  765MOL0     C 3186   2.895   3.442   9.324 -0.1514  0.4376  0.7488
  765MOL0     C 3187   3.020   3.514   9.316  0.1440  0.2354  0.3712
  765MOL0     O 3188   3.054   3.895   9.359 -0.8969  0.0250 -0.1243
  765MOL0     C 3189   3.208   4.066   9.206 -0.7218 -0.0445 -0.1459
  765MOL0     C 3190   3.288   4.138   9.126 -0.3243 -0.1940  0.9373
  765MOL0     N 3191   3.663   4.732   8.959  0.2657  0.0244  0.0486
  765MOL0     N 3192   3.595   4.801   8.876  0.0333 -0.6060 -0.7147
  765MOL0     C 3193   2.903   5.122   7.950  0.0895 -1.1896 -1.1630
  765MOL0     C 3194   2.785   5.125   7.876  0.8259  1.2402  0.3210
  765MOL0     C 3195   2.448   5.309   7.606  0.0128  0.1444  0.6165
  765MOL0     C 3196   2.397   5.377   7.491  0.0981 -0.0823  0.7289
  765MOL0     C 3197   2.264   5.376   7.455 -0.1190  0.5535 -0.8231
  765MOL0     C 3198   2.176   5.304   7.532  0.7699  0.0081 -1.0738
  765MOL0     O 3199   2.047   5.330   7.495 -0.4534  0.8535  0.9852
  765MOL0     C 3200   1.957   5.357   7.604 -0.3349 -0.1019  0.0899
  765MOL0     C 3201   1.807   5.370   7.561 -0.4496 -0.1789  0.2399
  765MOL0     C 3202   1.702   5.410   7.669  0.1367 -0.5395 -0.2874
  765MOL0     C 3203   1.574   5.466   7.608 -0.0567  0.0485  0.6185
  765MOL0     C 3204   1.487   5.370   7.556  0.2953  0.4235 -0.1581
  765MOL0     C 3205   1.438   5.267   7.515 -0.5744 -0.3733 -0.2585
  765MOL0     C 3206   2.219   5.247   7.650 -0.0376 -0.3442  0.5077
  765MOL0     C 3207   2.351   5.247   7.694  0.3440 -0.0692 -0.1835
  765MOL0     H 3208   2.897   5.345   7.637  0.2815 -1.3518 -2.3087
  765MOL0     H 3209   3.089   5.355   7.786 -2.3463  2.4713 -1.6450
  765MOL0     H 3210   3.238   5.332   7.922 -0.9593 -0.1058  0.2837
  765MOL0     H 3211   3.148   5.363   8.078 -0.9713 -0.9273  0.5700
  765MOL0     H 3212   3.406   5.187   8.041  1.1912  1.0884 -0.8570
  765MOL0     H 3213   3.389   5.345   8.114  0.2490  0.5846  0.2302
  765MOL0     H 3214   3.215   5.228   8.280  0.5173  0.1020  0.4431
  765MOL0     H 3215   3.255   5.085   8.193  1.5070 -0.9582  0.7079
  765MOL0     H 3216   3.516   5.143   8.249  0.1302 -0.4819  1.1422
  765MOL0     H 3217   3.456   5.257   8.360 -0.6843 -0.2046  2.7760
  765MOL0     H 3218   3.341   5.086   8.494  2.7700 -0.9346  2.7441
  765MOL0     H 3219   3.350   4.974   8.357  3.2024 -0.2742 -2.2983
  765MOL0     H 3220   3.594   4.955   8.401 -3.4617 -2.0046 -0.9217
  765MOL0     H 3221   3.573   5.072   8.544 -1.0843 -1.0128  2.0388
  765MOL0     H 3222   3.427   4.919   8.652 -0.5035  1.1554 -0.5690
  765MOL0     H 3223   3.445   4.817   8.512 -1.1871  1.4831 -0.5204
  765MOL0     H 3224   3.697   4.924   8.647  2.7371 -1.9366 -0.5940
  765MOL0     H 3225   3.689   4.778   8.549  0.8367  0.9859 -0.0569
  765MOL0     H 3226   3.733   4.563   8.690  0.0212  0.8529 -2.0100
  765MOL0     H 3227   3.883   4.491   8.919 -0.9784 -1.8318 -1.5797
  765MOL0     H 3228   3.762   4.517   9.060 -1.5592  0.6718 -0.8894
  765MOL0     H 3229   3.723   4.367   8.797  0.2179  0.2576  0.4044
  765MOL0     H 3230   3.592   4.402   8.917 -1.3394 -3.2318 -1.3867
  765MOL0     H 3231   3.707   4.300   9.093  1.3196 -2.1454  0.1962
  765MOL0     H 3232   3.824   4.230   8.986  0.0767  2.0585 -0.8006
  765MOL0     H 3233   3.680   4.067   9.010  0.4567 -2.0964 -3.2083
  765MOL0     H 3234   3.620   4.122   8.861 -1.4064  2.1735 -1.1720
  765MOL0     H 3235   3.547   3.926   9.085  0.7393  1.8156 -2.2111
  765MOL0     H 3236   3.532   3.747   9.251 -1.1461  1.5282  3.3772
  765MOL0     H 3237   3.380   3.741   9.333 -0.0700  4.1102  0.2271
  765MOL0     H 3238   3.386   3.674   9.172  0.2246 -1.1766 -0.4164
  765MOL0     H 3239   2.920   3.784   9.143 -3.5573 -1.3073  0.7609
  765MOL0     H 3240   2.720   3.670   9.129  2.2665 -0.5380 -4.4550
  765MOL0     H 3241   2.525   3.568   9.210  0.0808  0.8235 -3.0605
  765MOL0     H 3242   2.598   3.489   9.073 -1.1773 -0.2557 -0.6218
  765MOL0     H 3243   2.392   3.404   9.071  2.4224 -0.5377 -1.9249
  765MOL0     H 3244   2.510   3.277   9.114  2.2417  0.0687  0.2396
  765MOL0     H 3245   2.342   3.438   9.321  1.9531 -0.8205  1.5019
  765MOL0     H 3246   2.454   3.303   9.347 -1.6826 -1.3077  1.1907
  765MOL0     H 3247   2.199   3.264   9.178 -0.6521 -0.4712 -0.6830
  765MOL0     H 3248   2.315   3.142   9.238 -0.5381  1.2910 -3.1733
  765MOL0     H 3249   2.243   3.195   9.477 -2.1853  1.1525  1.4786
  765MOL0     H 3250   2.127   3.122   9.368  0.3553  0.7229  2.7575
  765MOL0     H 3251   2.012   3.269   9.498 -1.5143 -1.2284 -2.7545
  765MOL0     H 3252   2.126   3.401   9.473 -2.0533  3.3749 -1.2441
  765MOL0     H 3253   1.936   3.278   9.261 -0.9029  1.3284 -0.5510
  765MOL0     H 3254   2.051   3.420   9.235 -0.6261  1.8897  0.2832
  765MOL0     H 3255   1.828   3.519   9.291  1.7568  0.8650 -0.4812
  765MOL0     H 3256   1.921   3.512   9.442  1.4913 -3.1852  0.8831
  765MOL0     H 3257   2.872   3.355   9.385 -3.2846 -1.1486 -2.3176
  765MOL0     H 3258   3.108   3.491   9.375  1.1733 -4.5261 -2.4891
  765MOL0     H 3259   3.114   4.101   9.247 -1.6294 -2.7366  0.2612
  765MOL0     H 3260   3.270   4.244   9.108 -2.7182 -1.0369 -2.8950
  765MOL0     H 3261   2.901   5.054   8.035  1.0022 -2.1845 -1.9113
  765MOL0     H 3262   2.710   5.054   7.909  2.7739 -0.3482  1.5225
  765MOL0     H 3263   2.473   5.416   7.424  1.7919 -2.2074  1.2831
  765MOL0     H 3264   2.223   5.435   7.374  0.0352 -2.2186 -3.0820
  765MOL0     H 3265   1.944   5.285   7.686 -2.3764  0.7466  0.5716
  765MOL0     H 3266   1.983   5.446   7.663 -0.2674  0.9945 -1.5131
  765MOL0     H 3267   1.773   5.276   7.518 -1.5498 -0.3042  1.3501
  765MOL0     H 3268   1.796   5.443   7.479  0.5257 -0.1682  0.1025
  765MOL0     H 3269   1.747   5.483   7.736 -1.2832 -0.1326  0.2547
  765MOL0     H 3270   1.683   5.330   7.741  0.0898  0.6107  1.0053
  765MOL0     H 3271   1.593   5.538   7.527 -0.2922 -2.4415 -1.8080
  765MOL0     H 3272   1.521   5.523   7.685 -1.0751 -0.2196  0.1379
  765MOL0     H 3273   1.385   5.179   7.483 -1.2148 -0.5349  1.2038
  765MOL0     H 3274   2.150   5.188   7.709 -1.3188  1.6164  1.1035
  765MOL0     H 3275   2.383   5.203   7.788  1.1395  2.2415  0.6980
  766MOL0     O 3276   9.708   3.671   8.339  0.0441  0.7907 -0.3640
  766MOL0     C 3277   9.662   3.702   8.226 -0.5803  0.0694  0.7643
  766MOL0     O 3278   9.533   3.705   8.193  0.2012 -1.0592  0.0066
  766MOL0     C 3279   9.450   3.717   8.298 -0.1566  0.1420 -0.4899
  766MOL0     C 3280   9.405   3.842   8.338 -0.4281  0.0862 -0.5378
  766MOL0     C 3281   9.293   3.861   8.430 -0.2459  0.2856 -0.5436
  766MOL0     C 3282   9.230   3.743   8.479 -0.7576 -0.6008  0.1395
  766MOL0     O 3283   9.119   3.741   8.567  0.0840  0.0067 -0.6338
  766MOL0     C 3284   9.049   3.863   8.598  0.3583  0.0946 -0.1953
  766MOL0     C 3285   8.929   3.826   8.691  0.3003 -0.7635  0.8610
  766MOL0     C 3286   8.883   3.954   8.758  0.2870 -0.4589  0.9678
  766MOL0     C 3287   8.787   4.043   8.671  0.3131  0.3652 -0.2073
  766MOL0     C 3288   8.733   4.180   8.718 -0.1533 -0.6985  0.3171
  766MOL0     C 3289   8.832   4.270   8.786 -0.3836 -0.1541  0.2804
  766MOL0     C 3290   8.775   4.420   8.792 -0.8060  0.9040 -0.3414
  766MOL0     C 3291   8.853   4.503   8.884 -0.0823 -0.0016 -0.3295
  766MOL0     N 3292   8.983   4.548   8.834  0.0418 -0.3684 -0.0110
  766MOL0     C 3293   9.011   4.677   8.781  0.2668 -0.1220  0.7895
  766MOL0     C 3294   9.134   4.661   8.735 -0.5652 -0.5293  0.0317
  766MOL0     C 3295   9.206   4.770   8.651 -0.6618 -0.4664  0.5678
  766MOL0     C 3296   9.249   4.707   8.520  1.0169 -1.1708  0.6344
  766MOL0     C 3297   9.332   4.823   8.446 -0.2261 -0.4138 -0.0042
  766MOL0     C 3298   9.387   4.794   8.312 -0.9016 -0.2091 -0.7207
  766MOL0     O 3299   9.300   4.773   8.202 -0.3737  0.4214  0.1759
  766MOL0     C 3300   9.272   4.887   8.136 -0.4464 -0.5883  0.5727
  766MOL0     C 3301   9.153   4.957   8.171 -0.1803  0.2661  0.9900
  766MOL0     C 3302   9.115   5.066   8.094  0.0495 -0.7435 -0.1339
  766MOL0     C 3303   8.968   5.130   8.130  0.2433  0.1884 -0.5639
  766MOL0     C 3304   9.178   5.101   7.971  0.3553  0.4996 -1.0141
  766MOL0     C 3305   9.125   5.183   7.859 -0.1517  0.5637 -0.2996
  766MOL0     O 3306   9.214   5.239   7.768 -0.6101  0.1591 -0.3399
  766MOL0     C 3307   9.177   5.276   7.644 -0.4636 -0.0351 -0.1056
  766MOL0     C 3308   9.206   5.407   7.602 -0.4595  1.0280 -1.2427
  766MOL0     C 3309   9.193   5.445   7.476 -0.3647 -0.7096 -0.3364
  766MOL0     C 3310   9.127   5.358   7.383 -0.0661  0.1916 -0.0949
  766MOL0     O 3311   9.100   5.412   7.259 -1.0635  0.6893 -0.3481
  766MOL0     C 3312   9.007   5.369   7.165  0.6689 -1.2747 -0.1201
  766MOL0     C 3313   8.865   5.391   7.210 -0.1186  0.3955  0.2721
  766MOL0     C 3314   8.783   5.272   7.168 -0.8545  0.1222 -0.3435
  766MOL0     C 3315   8.630   5.297   7.167  0.1919 -0.1284 -0.4957
  766MOL0     C 3316   8.588   5.413   7.081  0.1614  0.1523  0.2904
  766MOL0     C 3317   8.594   5.387   6.929 -0.5621  0.2433 -0.0982
  766MOL0     C 3318   8.517   5.485   6.848 -0.2150 -0.9278  0.3729
  766MOL0     C 3319   8.391   5.427   6.794  0.0704 -0.1365  0.2962
  766MOL0    Cl 3320   8.427   5.312   6.655 -0.1297 -0.0286  0.4419
  766MOL0     C 3321   9.095   5.225   7.425 -0.1900 -0.7234  0.5512
  766MOL0     C 3322   9.110   5.188   7.556 -0.9348 -0.1579  0.3440
  766MOL0     O 3323   9.006   5.210   7.858 -0.6104  0.1912 -0.7197
  766MOL0     C 3324   9.298   5.034   7.950 -0.1092 -0.7518 -0.1614
  766MOL0     C 3325   9.350   4.933   8.030  0.1643 -0.2639  0.3785
  766MOL0     N 3326   9.201   4.545   8.778  0.1481  0.2796  0.2697
  766MOL0     N 3327   9.102   4.477   8.831  1.4670  0.5033  0.9419
  766MOL0     C 3328   9.275   3.614   8.436  0.1040 -0.8657 -1.0708
  766MOL0     C 3329   9.377   3.609   8.344 -0.3904  0.6899  0.8703
  766MOL0     C 3330   9.759   3.739   8.124  0.2252  0.3344 -0.0916
  766MOL0     C 3331   9.870   3.661   8.106  0.9731 -0.5975  0.4922
  766MOL0     C 3332   9.976   3.698   8.028  0.1674 -0.0078 -0.4527
  766MOL0     C 3333   9.972   3.818   7.959  0.3162 -1.2557  0.3187
  766MOL0     O 3334  10.074   3.864   7.880  0.5339 -0.0589 -0.0866
  766MOL0     C 3335  10.209   3.838   7.913 -0.6224 -0.6880 -0.0202
  766MOL0     C 3336  10.285   3.948   7.840 -0.0086 -0.0699  0.5095
  766MOL0     C 3337  10.240   4.094   7.869 -0.0898  0.2914 -0.5986
  766MOL0     C 3338  10.261   4.141   8.008 -0.0892  0.7373  0.3858
  766MOL0     C 3339  10.409   4.159   8.016  0.2614  0.3685 -0.0247
  766MOL0     C 3340  10.526   4.182   8.037  0.1490  0.1495 -0.1200
  766MOL0     C 3341   9.860   3.902   7.979 -0.3227  0.3842 -0.2859
  766MOL0     C 3342   9.747   3.853   8.043 -0.2804 -0.1345 -0.3401
  766MOL0     H 3343   9.454   3.930   8.298  0.0908  1.6622  3.1833
  766MOL0     H 3344   9.256   3.961   8.451  0.2257  0.5073 -0.7797
  766MOL0     H 3345   9.116   3.927   8.654  1.8465 -2.9189  1.7400
  766MOL0     H 3346   9.021   3.911   8.504  2.6862  1.4724 -0.2649
  766MOL0     H 3347   8.855   3.779   8.625  0.6891 -0.2711  0.0656
  766MOL0     H 3348   8.957   3.757   8.772  2.4547  0.1978  1.0038
  766MOL0     H 3349   8.830   3.922   8.848 -0.2017 -1.5968  0.3001
  766MOL0     H 3350   8.967   4.021   8.779 -0.5640  1.0629 -0.2289
  766MOL0     H 3351   8.845   4.047   8.578  0.8556 -0.4339  0.0923
  766MOL0     H 3352   8.704   3.976   8.648  3.2315 -2.5411 -3.4837
  766MOL0     H 3353   8.682   4.222   8.630  1.3814  0.0628 -0.2448
  766MOL0     H 3354   8.646   4.167   8.782 -1.5869  2.2940 -0.7842
  766MOL0     H 3355   8.853   4.227   8.884  1.3628 -0.7792 -0.3332
  766MOL0     H 3356   8.926   4.278   8.732 -0.2748  0.8042  0.5947
  766MOL0     H 3357   8.772   4.472   8.695 -1.6436  1.0306 -0.2606
  766MOL0     H 3358   8.675   4.428   8.837  0.1068 -1.4237  2.3565
  766MOL0     H 3359   8.863   4.444   8.975 -0.5165 -0.3807 -0.5252
  766MOL0     H 3360   8.794   4.595   8.888 -0.2902 -0.1090 -0.7888
  766MOL0     H 3361   8.941   4.759   8.767  0.6156  0.6067  2.9427
  766MOL0     H 3362   9.141   4.856   8.635  2.2460  1.8378  0.3612
  766MOL0     H 3363   9.289   4.807   8.712 -1.6341  0.2842  1.4816
  766MOL0     H 3364   9.161   4.671   8.468  1.8520  0.5671 -2.1834
  766MOL0     H 3365   9.312   4.619   8.533  0.7504 -1.7569 -1.6819
  766MOL0     H 3366   9.416   4.850   8.510 -1.6924  0.3900  1.6629
  766MOL0     H 3367   9.263   4.907   8.454  0.7759  0.5822 -1.3421
  766MOL0     H 3368   9.462   4.715   8.323  0.8062  0.9817 -3.1328
  766MOL0     H 3369   9.455   4.874   8.283 -0.8961 -0.1168 -0.4586
  766MOL0     H 3370   9.086   4.916   8.246 -1.4493  1.7668  0.7286
  766MOL0     H 3371   8.953   5.227   8.082 -0.5828  1.4055  2.0093
  766MOL0     H 3372   8.890   5.065   8.088 -0.9737  1.9359 -1.1275
  766MOL0     H 3373   8.962   5.149   8.237  2.1197  0.8058 -0.5328
  766MOL0     H 3374   9.261   5.475   7.667  1.9981  0.0328 -2.1631
  766MOL0     H 3375   9.224   5.544   7.444  0.0113 -0.8451 -0.3946
  766MOL0     H 3376   9.033   5.427   7.076  0.8501  2.1424  1.9802
  766MOL0     H 3377   9.017   5.262   7.144 -2.1624 -1.8776  1.0492
  766MOL0     H 3378   8.864   5.408   7.318 -1.5226  0.7627  0.2204
  766MOL0     H 3379   8.824   5.481   7.163  0.3013  0.2949 -0.2956
  766MOL0     H 3380   8.792   5.192   7.242 -0.7312  2.3432  2.1927
  766MOL0     H 3381   8.816   5.228   7.074  0.6808 -0.4691  0.4226
  766MOL0     H 3382   8.580   5.210   7.125 -1.6042  0.3782  0.4773
  766MOL0     H 3383   8.589   5.317   7.266 -1.0214 -0.3911 -0.9303
  766MOL0     H 3384   8.634   5.510   7.106  4.7526 -1.6017 -0.3460
  766MOL0     H 3385   8.485   5.430   7.111 -0.2398  1.1683 -1.5094
  766MOL0     H 3386   8.695   5.397   6.888  0.8634  1.7955  3.4156
  766MOL0     H 3387   8.572   5.282   6.911  0.4271  0.4735 -3.2369
  766MOL0     H 3388   8.574   5.511   6.759 -1.7568  2.9830  0.3214
  766MOL0     H 3389   8.507   5.581   6.900  3.2532 -0.0020 -0.4416
  766MOL0     H 3390   8.318   5.505   6.770 -2.4796 -1.8256  2.1197
  766MOL0     H 3391   8.342   5.368   6.871 -0.0534 -0.5621 -0.1066
  766MOL0     H 3392   9.050   5.165   7.346 -0.2195  1.4808 -1.2152
  766MOL0     H 3393   9.090   5.085   7.585 -4.8307  0.6106  0.8893
  766MOL0     H 3394   9.352   5.075   7.865 -1.5341  0.8626 -0.3441
  766MOL0     H 3395   9.445   4.888   8.000 -0.8586 -0.0307 -3.8760
  766MOL0     H 3396   9.219   3.527   8.469 -2.4666  0.5253 -1.4473
  766MOL0     H 3397   9.405   3.508   8.317 -0.5568  0.1837  2.4507
  766MOL0     H 3398   9.887   3.579   8.175 -0.6928 -1.7667 -0.4295
  766MOL0     H 3399  10.064   3.641   8.001 -0.3014 -0.7057 -0.5549
  766MOL0     H 3400  10.223   3.855   8.020 -1.3664 -0.6696  0.0809
  766MOL0     H 3401  10.235   3.733   7.900 -1.2024 -1.1268  1.9987
  766MOL0     H 3402  10.282   3.935   7.731  0.4422  0.2000  0.4607
  766MOL0     H 3403  10.385   3.931   7.881  0.1736  0.5417  0.3421
  766MOL0     H 3404  10.132   4.099   7.853 -0.8304 -0.8165  3.1539
  766MOL0     H 3405  10.287   4.168   7.803  0.9711  1.3333  1.2460
  766MOL0     H 3406  10.222   4.062   8.073  1.6168 -1.1382 -0.7716
  766MOL0     H 3407  10.218   4.241   8.019  2.0999  1.8042 -0.1175
  766MOL0     H 3408  10.627   4.202   8.067  0.1157  3.0127 -1.5234
  766MOL0     H 3409   9.843   4.001   7.938 -0.0499 -0.0288 -1.4094
  766MOL0     H 3410   9.658   3.914   8.054 -1.3883 -1.6646 -0.5412
  767MOL0     O 3411   6.106   0.497   9.983 -0.2251  0.1473  0.2095
  767MOL0     C 3412   6.119   0.471   9.865 -0.2536  0.0977  0.6899
  767MOL0     O 3413   6.224   0.513   9.788 -0.2290 -0.2542 -0.5682
  767MOL0     C 3414   6.302   0.625   9.821  1.3479 -0.2714 -0.3620
  767MOL0     C 3415   6.429   0.616   9.774  0.1171  0.0529 -0.2834
  767MOL0     C 3416   6.513   0.732   9.783 -0.1956 -0.1620 -0.0337
  767MOL0     C 3417   6.475   0.847   9.851 -0.4863 -1.4956  0.4417
  767MOL0     O 3418   6.567   0.951   9.870  0.5336  0.7750 -0.7593
  767MOL0     C 3419   6.710   0.916   9.874 -0.1629  0.1630 -0.2599
  767MOL0     C 3420   6.800   1.023   9.936  1.2178  0.7138 -0.0678
  767MOL0     C 3421   6.950   0.992   9.920  0.0564  0.7912 -0.1126
  767MOL0     C 3422   7.006   0.979   9.778 -1.1993  0.1790 -0.1026
  767MOL0     C 3423   7.161   0.957   9.783  0.3829  0.0089  0.2580
  767MOL0     C 3424   7.223   0.950   9.637 -0.6319 -0.2224 -0.1317
  767MOL0     C 3425   7.379   0.949   9.627  0.7672 -0.1110  0.6824
  767MOL0     C 3426   7.431   0.809   9.662  0.4206 -0.4215  0.3679
  767MOL0     N 3427   7.578   0.811   9.679 -0.2621  0.8858  0.5585
  767MOL0     C 3428   7.653   0.720   9.752  0.3966  0.6510  0.6634
  767MOL0     C 3429   7.786   0.762   9.744 -0.1436 -0.4502 -0.5634
  767MOL0     C 3430   7.905   0.700   9.815 -0.7738 -0.4548  0.4172
  767MOL0     C 3431   7.964   0.789   9.934 -0.5683  1.3942  0.3192
  767MOL0     C 3432   7.870   0.778  10.051  0.0877  0.7648  0.0706
  767MOL0     C 3433   7.865   0.636  10.120 -1.4471  0.8619 -0.0101
  767MOL0     O 3434   7.764   0.547  10.058 -1.1567  0.4021  0.3355
  767MOL0     C 3435   7.630   0.543  10.090 -0.2257  0.3597  0.2832
  767MOL0     C 3436   7.555   0.634  10.159  0.3179 -0.3060  0.0515
  767MOL0     C 3437   7.422   0.616  10.194  0.1154  0.0182  0.9914
  767MOL0     C 3438   7.352   0.725  10.262 -0.2324 -0.2208 -0.8807
  767MOL0     C 3439   7.367   0.494  10.162 -0.4744 -0.9981  1.5142
  767MOL0     C 3440   7.221   0.450  10.195 -0.0017  0.5239 -0.2488
  767MOL0     O 3441   7.198   0.312  10.181  0.1308 -0.4573 -0.3595
  767MOL0     C 3442   7.069   0.255  10.198 -0.1696  0.6408 -0.7420
  767MOL0     C 3443   7.044   0.121  10.146 -0.2903 -0.2158  0.4309
  767MOL0     C 3444   6.917   0.069  10.149  0.1819 -0.3247  0.1124
  767MOL0     C 3445   6.802   0.138  10.181 -0.4117 -0.1670 -0.1021
  767MOL0     O 3446   6.692   0.057  10.198  0.1839  0.7349  0.0313
  767MOL0     C 3447   6.583   0.113  10.270  0.9676 -0.1353 -0.0668
  767MOL0     C 3448   6.457   0.027  10.247 -0.3650  0.1154  0.6798
  767MOL0     C 3449   6.325   0.079  10.303  0.2230  0.3672  0.0974
  767MOL0     C 3450   6.209  -0.011  10.299 -0.5000  0.2008 -0.7063
  767MOL0     C 3451   6.208  -0.107  10.423 -0.0196 -0.2096  1.9560
  767MOL0     C 3452   6.079  -0.198  10.409 -0.0847 -0.7778 -0.0884
  767MOL0     C 3453   6.092  -0.328  10.500 -0.3186  0.2625  0.2103
  767MOL0     C 3454   5.991  -0.441  10.473  0.1014  0.9990 -0.6483
  767MOL0    Cl 3455   5.823  -0.394  10.518 -0.0520 -0.4761  0.1331
  767MOL0     C 3456   6.822   0.270  10.224 -0.6835  0.0753  0.9982
  767MOL0     C 3457   6.951   0.325  10.243  0.8183 -0.5384 -0.1228
  767MOL0     O 3458   7.132   0.533  10.216 -0.5175 -0.1458 -0.3967
  767MOL0     C 3459   7.445   0.400  10.086 -0.6556  0.3040  0.1508
  767MOL0     C 3460   7.574   0.424  10.052  0.2636 -0.0483  1.6141
  767MOL0     N 3461   7.785   0.874   9.660  0.2685 -0.1325 -0.2853
  767MOL0     N 3462   7.663   0.908   9.628  0.1614  0.4153 -0.3501
  767MOL0     C 3463   6.344   0.840   9.903 -0.0694 -0.5842 -0.4266
  767MOL0     C 3464   6.258   0.731   9.890 -0.0726  0.5325 -0.3537
  767MOL0     C 3465   6.030   0.360   9.810 -0.7093  0.4197 -0.0224
  767MOL0     C 3466   6.035   0.329   9.670  1.3895  0.2307  0.2778
  767MOL0     C 3467   5.973   0.207   9.629  0.3854 -0.8602  0.9982
  767MOL0     C 3468   5.892   0.133   9.720 -0.0942 -0.3936  0.3248
  767MOL0     O 3469   5.823   0.020   9.681 -0.2726 -0.1355 -0.2097
  767MOL0     C 3470   5.836  -0.040   9.553 -0.2761  0.2832  0.1214
  767MOL0     C 3471   5.851  -0.182   9.587 -0.5047 -0.3497  0.0248
  767MOL0     C 3472   5.731  -0.246   9.655  0.0519 -0.1085  0.6681
  767MOL0     C 3473   5.613  -0.292   9.565  0.3515  0.4458 -0.4303
  767MOL0     C 3474   5.536  -0.388   9.645 -0.3537  0.0146 -0.1782
  767MOL0     C 3475   5.473  -0.461   9.724 -0.4024 -0.4320  0.7092
  767MOL0     C 3476   5.870   0.179   9.850  0.5426 -0.4587 -0.2362
  767MOL0     C 3477   5.941   0.293   9.896 -0.2193  0.1844  0.2276
  767MOL0     H 3478   6.458   0.525   9.722  1.9331 -0.6853  1.8752
  767MOL0     H 3479   6.618   0.729   9.759 -0.1965  1.6784 -0.4470
  767MOL0     H 3480   6.715   0.837   9.948  0.3266  0.9929  0.6119
  767MOL0     H 3481   6.754   0.872   9.784 -0.3458 -1.3281  0.3684
  767MOL0     H 3482   6.774   1.124   9.901 -0.8016  0.1872 -0.2107
  767MOL0     H 3483   6.787   1.033  10.044  4.1570 -0.8076  0.5216
  767MOL0     H 3484   7.016   1.070   9.959  0.8805  0.0335  0.0595
  767MOL0     H 3485   6.962   0.900   9.978 -2.2026  0.7662  0.3992
  767MOL0     H 3486   6.968   0.893   9.723  1.2812 -3.1198  2.8162
  767MOL0     H 3487   6.986   1.075   9.730 -3.7178 -0.5061 -0.5634
  767MOL0     H 3488   7.206   1.034   9.846 -0.6599 -1.2366  2.6720
  767MOL0     H 3489   7.186   0.859   9.825 -0.1250 -0.7604 -1.1678
  767MOL0     H 3490   7.198   0.858   9.584  3.4484 -1.1437 -0.8084
  767MOL0     H 3491   7.181   1.035   9.583 -0.2486  0.6134  0.8506
  767MOL0     H 3492   7.421   0.984   9.532  1.1435 -0.5147  0.6965
  767MOL0     H 3493   7.411   1.021   9.703  0.9944  0.2133  0.2824
  767MOL0     H 3494   7.418   0.748   9.572  0.4466  0.1153 -0.0031
  767MOL0     H 3495   7.377   0.779   9.752 -1.2018 -0.9813 -0.7339
  767MOL0     H 3496   7.610   0.638   9.809  2.0090 -1.1026 -0.4969
  767MOL0     H 3497   7.882   0.602   9.856 -0.3411 -0.0058  1.7705
  767MOL0     H 3498   7.984   0.699   9.740 -2.2483  1.3541 -1.2898
  767MOL0     H 3499   7.957   0.894   9.905 -0.7683  1.5621  0.9640
  767MOL0     H 3500   8.065   0.759   9.963 -1.4277 -1.0774  1.0572
  767MOL0     H 3501   7.768   0.803  10.020 -0.1697  0.6899  0.8363
  767MOL0     H 3502   7.898   0.855  10.123 -4.0336  1.5828  1.0292
  767MOL0     H 3503   7.850   0.638  10.228 -1.3507  1.6797 -0.0064
  767MOL0     H 3504   7.969   0.605  10.105 -1.0580  1.3791  1.4160
  767MOL0     H 3505   7.595   0.733  10.176  0.5046 -0.1735 -1.0807
  767MOL0     H 3506   7.412   0.816  10.275  2.6950 -2.3926  4.4018
  767MOL0     H 3507   7.255   0.731  10.212  0.1634  0.6628 -1.5838
  767MOL0     H 3508   7.333   0.696  10.366  2.4347  2.4022  0.5376
  767MOL0     H 3509   7.134   0.068  10.118  0.3748  1.6154 -1.1378
  767MOL0     H 3510   6.909  -0.036  10.120  0.3575 -0.3999  0.3343
  767MOL0     H 3511   6.595   0.121  10.378  0.2222  1.0218 -0.0509
  767MOL0     H 3512   6.560   0.213  10.231  0.3176  0.5885  2.0007
  767MOL0     H 3513   6.438   0.010  10.141  1.9253  1.2605  0.0313
  767MOL0     H 3514   6.487  -0.068  10.292  0.4864  0.8502  1.7123
  767MOL0     H 3515   6.305   0.167  10.241  0.4443  0.7381  0.5365
  767MOL0     H 3516   6.337   0.119  10.405 -1.7358  2.5629 -0.4420
  767MOL0     H 3517   6.123   0.055  10.307  0.5150  1.6281 -1.2338
  767MOL0     H 3518   6.220  -0.064  10.203  0.2345 -2.1786  0.6058
  767MOL0     H 3519   6.213  -0.055  10.520  1.4642  2.3155  0.6436
  767MOL0     H 3520   6.297  -0.170  10.415  0.9104  1.3084 -2.7094
  767MOL0     H 3521   6.000  -0.138  10.454  0.1579 -1.0874  0.7719
  767MOL0     H 3522   6.044  -0.218  10.307 -1.6598 -2.1042  0.6739
  767MOL0     H 3523   6.090  -0.307  10.607 -0.2174  1.6582 -0.0512
  767MOL0     H 3524   6.192  -0.370  10.491 -0.1114  0.5386  1.1208
  767MOL0     H 3525   6.024  -0.527  10.532  3.0560  1.2850 -1.6826
  767MOL0     H 3526   5.995  -0.471  10.368  0.9371 -2.0873  0.1697
  767MOL0     H 3527   6.742   0.337  10.255 -1.5509  1.3595 -3.3718
  767MOL0     H 3528   6.946   0.428  10.276  0.4496  0.5049 -3.0961
  767MOL0     H 3529   7.415   0.306  10.040  0.6122  1.6829 -3.9728
  767MOL0     H 3530   7.610   0.341   9.992 -2.9547 -3.1745  3.5904
  767MOL0     H 3531   6.317   0.929   9.958 -0.5656 -1.6585  1.1418
  767MOL0     H 3532   6.160   0.734   9.936  1.0009  0.6049  2.0534
  767MOL0     H 3533   6.083   0.392   9.596 -2.4076  1.8971 -1.0608
  767MOL0     H 3534   5.989   0.173   9.527  0.0956 -0.0420  0.6728
  767MOL0     H 3535   5.754  -0.023   9.482 -1.6606 -1.4754  1.2063
  767MOL0     H 3536   5.932  -0.014   9.508 -0.3985  0.7651  0.1310
  767MOL0     H 3537   5.927  -0.192   9.665 -2.4434  1.5888  2.3082
  767MOL0     H 3538   5.880  -0.242   9.500  1.2278  0.9205 -0.3233
  767MOL0     H 3539   5.690  -0.170   9.722  0.5145  1.3475 -0.6556
  767MOL0     H 3540   5.776  -0.323   9.719  3.8869  0.0546 -1.5219
  767MOL0     H 3541   5.662  -0.352   9.488  0.2136 -2.5816  1.6375
  767MOL0     H 3542   5.552  -0.206   9.538  0.7833  0.5515 -1.0849
  767MOL0     H 3543   5.429  -0.516   9.804  1.2862  1.8343  3.4024
  767MOL0     H 3544   5.807   0.128   9.923  0.8197  2.7345  2.4944
  767MOL0     H 3545   5.945   0.327   9.999  0.3998 -0.7574  0.5313
  768MOL0     O 3546  11.513   9.295   2.465  0.3733 -0.2717  0.4504
  768MOL0     C 3547  11.482   9.248   2.353 -0.7647  0.0297  0.0395
  768MOL0     O 3548  11.526   9.295   2.228 -0.4207 -0.2625 -0.1723
  768MOL0     C 3549  11.580   9.423   2.223 -0.3567 -0.3233 -0.8836
  768MOL0     C 3550  11.498   9.536   2.248 -0.0619 -0.2235 -0.2481
  768MOL0     C 3551  11.540   9.664   2.214  0.4085 -0.2618  0.3844
  768MOL0     C 3552  11.675   9.679   2.179  0.1692 -0.6272  0.1477
  768MOL0     O 3553  11.718   9.812   2.159 -0.5237  0.3249  0.3898
  768MOL0     C 3554  11.803   9.822   2.041 -0.4944 -0.2734  0.3147
  768MOL0     C 3555  11.791   9.967   1.991  0.2707 -0.8074  0.8471
  768MOL0     C 3556  11.838   9.988   1.843  0.5080 -0.4421 -0.1631
  768MOL0     C 3557  11.993  10.002   1.840  0.3294 -0.0464  0.0953
  768MOL0     C 3558  12.028  10.033   1.704  0.3120 -0.2415 -0.2463
  768MOL0     C 3559  12.175  10.007   1.681  1.0947 -0.7343 -0.7999
  768MOL0     C 3560  12.207   9.863   1.639  0.5681  0.9140  0.1611
  768MOL0     C 3561  12.364   9.844   1.658 -0.2526 -0.0480  0.4240
  768MOL0     N 3562  12.396   9.707   1.621 -0.8364 -0.5479 -0.1261
  768MOL0     C 3563  12.361   9.584   1.680 -0.7972 -0.1858  0.1466
  768MOL0     C 3564  12.383   9.490   1.585 -0.8150 -0.2123 -0.2287
  768MOL0     C 3565  12.352   9.339   1.578  0.0418 -0.2095  0.3313
  768MOL0     C 3566  12.202   9.300   1.599 -0.5947  0.6752 -0.0873
  768MOL0     C 3567  12.202   9.152   1.559  0.7033  0.3933 -0.4140
  768MOL0     C 3568  12.058   9.103   1.581  0.3325 -0.0213 -0.8550
  768MOL0     O 3569  12.039   8.966   1.537 -0.3121 -0.0234  0.2924
  768MOL0     C 3570  12.086   8.863   1.615 -0.3456 -0.0971  0.4509
  768MOL0     C 3571  12.100   8.734   1.560  0.3239 -0.2073  0.1311
  768MOL0     C 3572  12.151   8.636   1.641  0.8651 -0.5596  0.3708
  768MOL0     C 3573  12.188   8.507   1.562 -0.4801 -0.5216  0.7735
  768MOL0     C 3574  12.196   8.656   1.773  0.7984  0.0975 -0.1617
  768MOL0     C 3575  12.272   8.553   1.857 -1.0254  0.8693 -0.5618
  768MOL0     O 3576  12.314   8.435   1.810  0.7533  0.3650  0.7071
  768MOL0     C 3577  12.392   8.345   1.884 -0.6881 -0.5079  0.2564
  768MOL0     C 3578  12.490   8.273   1.811 -0.5525 -0.3167  0.0393
  768MOL0     C 3579  12.576   8.180   1.884 -0.1359  0.5425 -1.2692
  768MOL0     C 3580  12.580   8.165   2.018  0.3574 -0.4542 -0.0390
  768MOL0     O 3581  12.668   8.069   2.067  1.0292 -0.3177  0.9107
  768MOL0     C 3582  12.642   8.016   2.193  0.1852 -0.0585 -1.2058
  768MOL0     C 3583  12.754   7.919   2.230 -0.9992  0.1316 -1.7524
  768MOL0     C 3584  12.755   7.872   2.377  0.6123  0.4649 -0.3824
  768MOL0     C 3585  12.863   7.943   2.464 -0.0753  0.0390  0.4536
  768MOL0     C 3586  12.853   7.889   2.607  0.0755  0.0406  0.7047
  768MOL0     C 3587  12.942   7.980   2.691  0.0162  0.6812 -0.1677
  768MOL0     C 3588  12.926   7.939   2.841 -0.7018  0.0610  0.1097
  768MOL0     C 3589  13.028   8.015   2.925  0.2414 -0.0717  1.2833
  768MOL0    Cl 3590  13.017   7.928   3.083  0.1518  0.0816 -0.0362
  768MOL0     C 3591  12.487   8.249   2.089  0.4430  0.4238  0.3361
  768MOL0     C 3592  12.387   8.326   2.021 -0.0699 -0.5041  1.4927
  768MOL0     O 3593  12.284   8.589   1.971 -0.9666 -0.3443 -0.2732
  768MOL0     C 3594  12.180   8.783   1.823  0.1479  0.3717 -0.6680
  768MOL0     C 3595  12.123   8.886   1.746 -0.1943  1.1467 -0.4754
  768MOL0     N 3596  12.432   9.555   1.472  0.5464 -0.5401 -0.7884
  768MOL0     N 3597  12.447   9.685   1.498 -0.9516  0.1373 -0.2945
  768MOL0     C 3598  11.754   9.566   2.150 -0.4573  0.3023  0.8329
  768MOL0     C 3599  11.704   9.434   2.172 -0.9514  0.3088  0.7352
  768MOL0     C 3600  11.432   9.112   2.354 -0.0387  0.3561  0.5199
  768MOL0     C 3601  11.458   9.011   2.261  0.3247  0.3662 -0.2980
  768MOL0     C 3602  11.407   8.884   2.281  0.0632  0.6275 -0.4559
  768MOL0     C 3603  11.316   8.847   2.379  0.4423 -0.2458 -0.6009
  768MOL0     O 3604  11.270   8.717   2.406  0.1021  0.5920  0.1633
  768MOL0     C 3605  11.315   8.665   2.530  0.4807 -0.4608 -0.9027
  768MOL0     C 3606  11.278   8.520   2.553 -1.0646  0.9490 -0.1169
  768MOL0     C 3607  11.362   8.422   2.472 -0.0752 -0.3329  0.0864
  768MOL0     C 3608  11.309   8.280   2.464 -0.6074  0.2347  0.1636
  768MOL0     C 3609  11.182   8.276   2.391 -0.7541 -1.0930 -0.7670
  768MOL0     C 3610  11.076   8.252   2.342  0.0768 -0.4237  0.3246
  768MOL0     C 3611  11.285   8.952   2.461  0.1445 -1.1099 -0.7351
  768MOL0     C 3612  11.346   9.077   2.455 -0.8032 -0.3066 -0.0966
  768MOL0     H 3613  11.406   9.513   2.300  0.3616 -0.1012  0.5799
  768MOL0     H 3614  11.466   9.740   2.236 -1.1242 -1.6610  0.2344
  768MOL0     H 3615  11.907   9.807   2.072 -0.2976 -1.1978 -0.7428
  768MOL0     H 3616  11.778   9.759   1.956 -0.1547 -1.2729  0.9384
  768MOL0     H 3617  11.702  10.029   2.009 -0.7658 -1.9862 -0.0605
  768MOL0     H 3618  11.864  10.024   2.049 -1.3476  1.9224  0.3791
  768MOL0     H 3619  11.800   9.912   1.775  1.0073  1.7236 -3.0169
  768MOL0     H 3620  11.790  10.079   1.805 -1.9046 -1.2649  0.7204
  768MOL0     H 3621  12.030  10.081   1.906  2.2668 -1.1119  0.3556
  768MOL0     H 3622  12.022   9.899   1.860 -2.9609 -1.5220 -1.9337
  768MOL0     H 3623  11.977   9.977   1.625  2.7071 -1.7888 -0.7912
  768MOL0     H 3624  12.005  10.139   1.686 -0.1900 -0.3262 -0.1196
  768MOL0     H 3625  12.191  10.068   1.592  0.0639  0.2513 -0.3313
  768MOL0     H 3626  12.236  10.045   1.763 -1.0499  3.6924 -0.9858
  768MOL0     H 3627  12.150   9.788   1.695  0.2024 -1.4589 -3.1082
  768MOL0     H 3628  12.178   9.850   1.535  1.4892 -0.6406  0.0755
  768MOL0     H 3629  12.394   9.869   1.760  1.4060 -0.5860  0.1057
  768MOL0     H 3630  12.415   9.914   1.591 -1.2442  0.5221  0.2442
  768MOL0     H 3631  12.325   9.564   1.780  0.7177 -2.1074  0.3718
  768MOL0     H 3632  12.384   9.296   1.482 -1.8548 -1.1765  0.0885
  768MOL0     H 3633  12.415   9.294   1.655 -1.6755 -3.5396 -0.0457
  768MOL0     H 3634  12.146   9.360   1.526  1.2122  1.8245 -0.6042
  768MOL0     H 3635  12.173   9.314   1.704  0.6604 -2.6760  0.8217
  768MOL0     H 3636  12.272   9.096   1.621  1.8965  0.6324 -1.4960
  768MOL0     H 3637  12.225   9.120   1.457  0.2062 -7.3693  1.3262
  768MOL0     H 3638  11.987   9.160   1.521  0.7528  1.2066 -0.2151
  768MOL0     H 3639  12.029   9.126   1.684  0.5963 -0.7344 -0.6111
  768MOL0     H 3640  12.079   8.726   1.454  2.4393  2.5890 -0.6127
  768MOL0     H 3641  12.189   8.528   1.455  1.8204 -0.5770  0.7348
  768MOL0     H 3642  12.294   8.482   1.574  0.0299  0.2626 -1.5373
  768MOL0     H 3643  12.125   8.425   1.599  1.9938 -2.7101  0.4481
  768MOL0     H 3644  12.494   8.276   1.702 -0.2985 -2.0750 -0.0278
  768MOL0     H 3645  12.648   8.107   1.847 -1.5911 -1.6323 -0.0429
  768MOL0     H 3646  12.649   8.096   2.268 -0.0563 -3.4084  2.6964
  768MOL0     H 3647  12.550   7.958   2.194  0.2923 -0.2294 -0.2114
  768MOL0     H 3648  12.747   7.827   2.172 -1.7102 -1.6275  0.9317
  768MOL0     H 3649  12.852   7.961   2.206 -0.5383  0.7005  0.8672
  768MOL0     H 3650  12.770   7.764   2.385 -2.1389  0.0606  0.2960
  768MOL0     H 3651  12.664   7.887   2.435  0.3242  0.6486 -0.8813
  768MOL0     H 3652  12.966   7.949   2.430 -0.8057 -0.0106 -1.9265
  768MOL0     H 3653  12.838   8.050   2.468  1.8887  0.5886 -0.7219
  768MOL0     H 3654  12.883   7.784   2.602 -0.5973 -0.1117 -1.2473
  768MOL0     H 3655  12.753   7.887   2.650  0.1667 -2.6338  0.9468
  768MOL0     H 3656  13.045   7.955   2.666 -0.2358 -2.5139  1.4574
  768MOL0     H 3657  12.939   8.087   2.671  4.1893  1.6613  2.9481
  768MOL0     H 3658  12.954   7.834   2.853  0.2239  0.4526  1.6857
  768MOL0     H 3659  12.822   7.944   2.874 -2.7654 -5.3957 -4.0566
  768MOL0     H 3660  13.002   8.121   2.932 -1.4748 -0.3957  0.1710
  768MOL0     H 3661  13.131   8.005   2.890  0.2655 -1.8418  1.7526
  768MOL0     H 3662  12.476   8.230   2.195 -0.9787  2.1639  0.5432
  768MOL0     H 3663  12.308   8.368   2.082  0.0622  0.4831  0.9924
  768MOL0     H 3664  12.225   8.805   1.919 -0.9199 -2.4853  0.6192
  768MOL0     H 3665  12.133   8.987   1.786 -1.8326  0.7601  1.0516
  768MOL0     H 3666  11.854   9.565   2.107  0.0664 -0.1270  2.0128
  768MOL0     H 3667  11.761   9.345   2.151 -0.8860  0.1740  1.4706
  768MOL0     H 3668  11.516   9.032   2.172  2.2026  0.2617  0.8528
  768MOL0     H 3669  11.421   8.810   2.202  1.4308  0.7719 -0.3631
  768MOL0     H 3670  11.423   8.676   2.544  0.3641 -0.8199  0.4072
  768MOL0     H 3671  11.260   8.717   2.609 -0.6880 -2.2405 -0.4703
  768MOL0     H 3672  11.172   8.497   2.541 -0.9304  0.5168 -0.5030
  768MOL0     H 3673  11.300   8.495   2.657  4.3460 -2.9235 -1.7197
  768MOL0     H 3674  11.464   8.407   2.507  0.7245 -0.8563 -2.2788
  768MOL0     H 3675  11.370   8.464   2.371 -2.4830  0.8747  0.3225
  768MOL0     H 3676  11.288   8.251   2.567 -1.7260  0.2959 -0.0349
  768MOL0     H 3677  11.382   8.210   2.422  0.0302 -0.5597  2.4641
  768MOL0     H 3678  10.984   8.236   2.290 -2.9841  2.8954  4.0147
  768MOL0     H 3679  11.227   8.941   2.552  0.5046  0.1330 -0.3346
  768MOL0     H 3680  11.323   9.130   2.547  0.4209 -2.4748  1.5420
  769MOL0     O 3681   1.312   1.283   5.898  0.0975  0.0902 -0.1399
  769MOL0     C 3682   1.298   1.203   5.795  0.6575 -0.4977  0.1138
  769MOL0     O 3683   1.398   1.175   5.699 -0.2619 -0.1671 -0.8351
  769MOL0     C 3684   1.523   1.217   5.733 -0.0121  0.3525  1.0343
  769MOL0     C 3685   1.604   1.139   5.820 -0.2471 -0.0444 -1.6252
  769MOL0     C 3686   1.723   1.184   5.871  0.1689 -0.6608 -0.6183
  769MOL0     C 3687   1.782   1.306   5.819  0.4804 -0.1006 -1.1669
  769MOL0     O 3688   1.909   1.356   5.849 -0.3501  0.2862  0.0068
  769MOL0     C 3689   2.007   1.361   5.750  0.2045  0.2284  0.6734
  769MOL0     C 3690   2.140   1.348   5.809  0.4948  0.1698  1.0167
  769MOL0     C 3691   2.268   1.363   5.722 -0.2801  0.1963  0.0731
  769MOL0     C 3692   2.274   1.253   5.609 -0.1980  0.3074 -0.9236
  769MOL0     C 3693   2.412   1.258   5.545  0.3011  0.1477 -0.5451
  769MOL0     C 3694   2.448   1.154   5.443 -0.1305  0.2342 -0.7196
  769MOL0     C 3695   2.428   1.003   5.476  0.4643  0.3847  0.9023
  769MOL0     C 3696   2.487   0.903   5.365 -0.1867  0.6374  0.3117
  769MOL0     N 3697   2.422   0.936   5.237  1.5746  0.0082  0.5266
  769MOL0     C 3698   2.292   0.905   5.206  1.2123  0.0553  0.0922
  769MOL0     C 3699   2.280   0.935   5.075  1.1588  0.3524  0.9422
  769MOL0     C 3700   2.162   0.902   4.982  0.3691 -0.5914 -0.4037
  769MOL0     C 3701   2.029   0.947   5.025  1.0935  0.3673  0.1693
  769MOL0     C 3702   1.924   0.915   4.919  0.3311 -0.1311 -0.2321
  769MOL0     C 3703   1.770   0.958   4.939 -1.1521  0.9049 -0.1074
  769MOL0     O 3704   1.690   0.899   4.838  0.3749 -0.1693 -0.0632
  769MOL0     C 3705   1.564   0.958   4.812  0.5113  0.3002  0.6905
  769MOL0     C 3706   1.462   0.956   4.914 -0.7405 -0.1169  0.0949
  769MOL0     C 3707   1.333   1.015   4.901  0.1363 -1.2849 -0.8188
  769MOL0     C 3708   1.231   1.001   5.008 -0.1579  0.2196 -0.6201
  769MOL0     C 3709   1.300   1.067   4.779 -1.2332 -0.5445  0.4283
  769MOL0     C 3710   1.164   1.121   4.733  0.4960  0.2305 -0.1881
  769MOL0     O 3711   1.149   1.136   4.599  0.0503  0.5123  1.1875
  769MOL0     C 3712   1.022   1.134   4.553  0.7807 -0.7957  0.3862
  769MOL0     C 3713   0.959   1.021   4.514 -0.5835 -0.3158  0.4898
  769MOL0     C 3714   0.831   1.022   4.469  0.9434  0.5392 -0.9927
  769MOL0     C 3715   0.757   1.132   4.482  0.2751  0.4556  0.2121
  769MOL0     O 3716   0.623   1.131   4.439  0.4320  0.3998 -0.0525
  769MOL0     C 3717   0.531   1.143   4.545  0.4927 -0.4038 -0.2525
  769MOL0     C 3718   0.399   1.196   4.487 -0.0623 -0.7810 -0.0196
  769MOL0     C 3719   0.400   1.333   4.415  0.0563 -0.3647 -0.4452
  769MOL0     C 3720   0.408   1.450   4.514 -0.6705  0.1393 -0.5008
  769MOL0     C 3721   0.493   1.554   4.441 -0.2122 -0.3993  0.4130
  769MOL0     C 3722   0.496   1.679   4.522 -0.7320 -0.1616  0.2914
  769MOL0     C 3723   0.576   1.795   4.461  0.3131 -0.1185  0.2214
  769MOL0     C 3724   0.712   1.752   4.436  0.2204 -0.0214  0.0806
  769MOL0    Cl 3725   0.799   1.897   4.381  0.0603 -0.1256 -0.1888
  769MOL0     C 3726   0.810   1.258   4.519  0.6635  0.0648 -0.3620
  769MOL0     C 3727   0.947   1.249   4.554 -0.0639 -0.6182 -0.1872
  769MOL0     O 3728   1.074   1.151   4.811  0.0171  1.1686 -0.6382
  769MOL0     C 3729   1.400   1.077   4.680  0.2797  0.4779 -0.3206
  769MOL0     C 3730   1.532   1.031   4.695 -0.2332  0.4601 -0.0945
  769MOL0     N 3731   2.401   0.983   5.028 -1.0326 -0.5498  0.2611
  769MOL0     N 3732   2.487   0.978   5.117  0.9154 -0.2727 -0.4637
  769MOL0     C 3733   1.704   1.379   5.733 -0.0842  0.0042 -0.0526
  769MOL0     C 3734   1.579   1.341   5.687 -1.1167  0.1691 -0.2948
  769MOL0     C 3735   1.162   1.153   5.775 -0.0707 -0.6078  0.0537
  769MOL0     C 3736   1.136   1.040   5.686  0.1938 -0.9419  0.1443
  769MOL0     C 3737   1.005   0.991   5.673  0.8635 -0.8291 -0.0620
  769MOL0     C 3738   0.902   1.045   5.743 -0.8159 -0.3927 -0.0014
  769MOL0     O 3739   0.775   1.006   5.726  0.8267  0.2265 -0.0127
  769MOL0     C 3740   0.726   0.891   5.789  0.1702  0.5656  0.2200
  769MOL0     C 3741   0.668   0.908   5.931  0.7632  0.2313 -1.2710
  769MOL0     C 3742   0.524   0.977   5.917 -0.5139 -0.5683 -0.0213
  769MOL0     C 3743   0.511   1.129   5.911 -0.7511 -0.1155 -0.7208
  769MOL0     C 3744   0.564   1.194   6.033  0.0444 -0.0084  0.3005
  769MOL0     C 3745   0.613   1.233   6.138 -0.3514 -0.2648 -0.4592
  769MOL0     C 3746   0.917   1.159   5.817 -0.7811 -0.1007  0.1857
  769MOL0     C 3747   1.049   1.209   5.843  0.5742  0.4082  0.1724
  769MOL0     H 3748   1.568   1.044   5.858 -1.2213  0.1996 -1.9097
  769MOL0     H 3749   1.767   1.113   5.941 -0.7769  0.3212  1.0192
  769MOL0     H 3750   1.996   1.290   5.668  1.3001 -0.0994  0.8015
  769MOL0     H 3751   1.993   1.464   5.717 -0.9341 -0.1360 -0.0244
  769MOL0     H 3752   2.149   1.420   5.891  0.0936  0.2387  1.0071
  769MOL0     H 3753   2.155   1.249   5.852  3.1445  0.5417  1.0968
  769MOL0     H 3754   2.271   1.463   5.677 -0.8642 -0.2196 -0.9357
  769MOL0     H 3755   2.359   1.352   5.781  1.3997  0.9277 -2.2237
  769MOL0     H 3756   2.251   1.157   5.656  0.2655  1.4872  1.9158
  769MOL0     H 3757   2.194   1.268   5.536 -1.2037  1.9496  0.4369
  769MOL0     H 3758   2.426   1.355   5.496 -1.4971 -0.1852 -1.8219
  769MOL0     H 3759   2.493   1.260   5.618  0.8049 -1.2864 -1.0241
  769MOL0     H 3760   2.390   1.173   5.352 -2.4709  0.7949  0.8288
  769MOL0     H 3761   2.551   1.171   5.408  0.1361 -2.8865 -1.8601
  769MOL0     H 3762   2.488   0.986   5.567  1.2811 -4.2959 -0.2628
  769MOL0     H 3763   2.322   0.982   5.493  0.0253 -0.0916 -1.9288
  769MOL0     H 3764   2.476   0.797   5.390  1.7598 -0.7647 -3.8646
  769MOL0     H 3765   2.593   0.926   5.350 -0.9349  4.5041 -0.2022
  769MOL0     H 3766   2.216   0.851   5.260  0.9008 -1.7054 -1.9564
  769MOL0     H 3767   2.190   0.947   4.887 -0.6937 -3.3206 -2.1273
  769MOL0     H 3768   2.146   0.798   4.952 -2.1739 -0.4355  0.1522
  769MOL0     H 3769   2.031   1.056   5.031 -0.1661  0.4692 -0.7259
  769MOL0     H 3770   1.994   0.889   5.112  2.2024  0.9403  1.0222
  769MOL0     H 3771   1.929   0.807   4.903  0.0806 -0.0597 -0.8098
  769MOL0     H 3772   1.953   0.971   4.830  0.1561 -1.7343 -1.3413
  769MOL0     H 3773   1.743   1.063   4.947 -0.8815  1.0635 -1.1697
  769MOL0     H 3774   1.741   0.924   5.039  0.1672 -0.8774 -0.2672
  769MOL0     H 3775   1.477   0.895   5.003 -0.4458 -1.5658 -0.9180
  769MOL0     H 3776   1.286   0.985   5.101 -0.9810 -0.2337 -0.2072
  769MOL0     H 3777   1.173   1.093   5.024  1.0695  1.2100 -1.6456
  769MOL0     H 3778   1.176   0.910   4.981 -1.7793  0.6855  0.9227
  769MOL0     H 3779   1.019   0.931   4.525 -0.6629 -0.4800 -0.3366
  769MOL0     H 3780   0.781   0.926   4.459 -2.3432  1.7178  1.8901
  769MOL0     H 3781   0.513   1.048   4.595  2.4027  0.2831  1.8768
  769MOL0     H 3782   0.560   1.221   4.616  2.1610 -0.4817 -0.8048
  769MOL0     H 3783   0.365   1.129   4.408 -2.3894 -1.7896  1.7173
  769MOL0     H 3784   0.322   1.190   4.565 -0.3708 -3.3856 -0.4366
  769MOL0     H 3785   0.311   1.357   4.356  1.6044  1.8799 -2.0675
  769MOL0     H 3786   0.486   1.336   4.348 -0.2373 -1.2800 -0.8743
  769MOL0     H 3787   0.302   1.475   4.523 -1.6245 -3.2111 -0.9947
  769MOL0     H 3788   0.442   1.425   4.615 -0.6239 -2.8871 -1.1807
  769MOL0     H 3789   0.450   1.587   4.346  0.3065  3.7021  1.4163
  769MOL0     H 3790   0.592   1.514   4.415  0.3611  2.6857 -3.0541
  769MOL0     H 3791   0.394   1.718   4.534 -1.4666 -2.1791  1.1060
  769MOL0     H 3792   0.540   1.646   4.617  0.5393 -0.8503 -0.5160
  769MOL0     H 3793   0.575   1.872   4.539  1.0766  0.6223 -0.4786
  769MOL0     H 3794   0.521   1.842   4.379  0.5640  0.1575  0.2109
  769MOL0     H 3795   0.698   1.684   4.352 -3.7648  1.6225 -0.7804
  769MOL0     H 3796   0.754   1.717   4.531  5.2070  1.2417 -1.3336
  769MOL0     H 3797   0.756   1.351   4.531  0.1747 -0.2192 -0.2908
  769MOL0     H 3798   0.999   1.341   4.581 -1.8977  0.6190 -0.7064
  769MOL0     H 3799   1.378   1.119   4.582  1.0307 -0.3573 -0.8546
  769MOL0     H 3800   1.606   1.052   4.619 -0.5494  3.8317  0.3641
  769MOL0     H 3801   1.758   1.463   5.690  0.8095 -1.1923 -1.3526
  769MOL0     H 3802   1.515   1.404   5.626  0.3638 -1.5962 -3.9814
  769MOL0     H 3803   1.217   0.993   5.632 -0.8369 -3.2844  0.5242
  769MOL0     H 3804   0.993   0.903   5.610  0.8973  0.6898 -2.2892
  769MOL0     H 3805   0.644   0.850   5.729  0.6911  1.5606 -1.1970
  769MOL0     H 3806   0.808   0.819   5.799 -1.5019 -1.4930 -0.0846
  769MOL0     H 3807   0.734   0.966   5.997  0.3353 -2.4597  1.7382
  769MOL0     H 3808   0.649   0.816   5.987 -0.5782  0.8313 -0.6782
  769MOL0     H 3809   0.459   0.945   5.999 -1.5135  2.3562  0.4439
  769MOL0     H 3810   0.488   0.928   5.827  2.4266 -1.7413 -0.6647
  769MOL0     H 3811   0.406   1.159   5.899 -1.2545 -1.8958 -1.0303
  769MOL0     H 3812   0.574   1.167   5.830  2.3576 -2.0065  0.6026
  769MOL0     H 3813   0.659   1.253   6.232 -3.4046 -1.2495  1.4090
  769MOL0     H 3814   0.831   1.190   5.875 -2.1028  1.0719 -2.2241
  769MOL0     H 3815   1.079   1.284   5.916 -1.5223  0.8417  0.6393
  770MOL0     O 3816   5.399   6.668   8.364  0.1907 -0.2361 -0.0377
  770MOL0     C 3817   5.327   6.643   8.461  0.1743  0.5477  0.3890
  770MOL0     O 3818   5.248   6.727   8.528 -0.1702  0.1628  0.0657
  770MOL0     C 3819   5.248   6.859   8.506  0.1044 -0.3038 -0.7274
  770MOL0     C 3820   5.248   6.911   8.382  0.5142 -0.1172 -0.5184
  770MOL0     C 3821   5.232   7.043   8.356  0.6963 -0.5530 -0.1172
  770MOL0     C 3822   5.238   7.135   8.470 -1.0155 -0.2734  0.5821
  770MOL0     O 3823   5.236   7.272   8.432 -0.7810  0.4185 -1.0008
  770MOL0     C 3824   5.216   7.368   8.540 -0.9589  0.3923  0.6288
  770MOL0     C 3825   5.249   7.494   8.471  0.4567 -0.1041  0.5935
  770MOL0     C 3826   5.202   7.610   8.555 -0.4076  0.4079 -0.7353
  770MOL0     C 3827   5.232   7.742   8.487 -0.0763 -0.8911  0.1685
  770MOL0     C 3828   5.125   7.850   8.519  0.1301  1.0210 -0.2657
  770MOL0     C 3829   5.123   7.894   8.664  0.2325 -1.5728 -0.8674
  770MOL0     C 3830   5.049   8.026   8.681 -0.0575 -0.4598 -0.4609
  770MOL0     C 3831   4.897   7.995   8.673  0.4438 -0.3403 -0.3218
  770MOL0     N 3832   4.816   8.100   8.729  0.9889 -0.4527 -0.9234
  770MOL0     C 3833   4.744   8.080   8.850 -0.2439  0.6240  0.3685
  770MOL0     C 3834   4.697   8.210   8.871  0.4698 -0.4926  0.4005
  770MOL0     C 3835   4.634   8.261   8.994  0.3246  0.7467  0.7676
  770MOL0     C 3836   4.478   8.253   8.991  0.1860  0.0691  0.1876
  770MOL0     C 3837   4.419   8.354   8.887 -0.5586  0.1497  0.6236
  770MOL0     C 3838   4.318   8.289   8.798  0.5552  0.0645 -0.1133
  770MOL0     O 3839   4.199   8.258   8.881 -0.1624  0.1289 -0.1355
  770MOL0     C 3840   4.106   8.165   8.840 -0.8614 -0.1516  0.3831
  770MOL0     C 3841   3.970   8.197   8.827 -0.4785  0.3813  0.5730
  770MOL0     C 3842   3.884   8.095   8.795 -0.2315 -0.3673  0.7358
  770MOL0     C 3843   3.744   8.134   8.774 -0.2377 -0.1546 -0.0399
  770MOL0     C 3844   3.933   7.964   8.761  0.5879 -0.7643 -0.4255
  770MOL0     C 3845   3.836   7.850   8.733 -0.8243  0.6765  0.3828
  770MOL0     O 3846   3.892   7.732   8.703  0.2558 -1.1147  0.2269
  770MOL0     C 3847   3.836   7.614   8.713  0.3985  0.6565 -0.3313
  770MOL0     C 3848   3.764   7.562   8.596 -0.1446  0.7737 -0.2091
  770MOL0     C 3849   3.732   7.426   8.587  0.4949 -0.2390  0.2867
  770MOL0     C 3850   3.768   7.338   8.691 -0.4754 -0.2259 -0.5274
  770MOL0     O 3851   3.739   7.203   8.682 -0.6240  0.3151  0.4597
  770MOL0     C 3852   3.628   7.153   8.611 -1.5093 -0.9362  0.3069
  770MOL0     C 3853   3.569   7.029   8.690 -0.0424  0.1680 -0.7394
  770MOL0     C 3854   3.468   7.061   8.807 -0.9378  0.6667 -0.4540
  770MOL0     C 3855   3.524   7.148   8.924 -0.6269  0.5953  0.4748
  770MOL0     C 3856   3.433   7.157   9.046  0.0310  1.1217  0.4355
  770MOL0     C 3857   3.435   7.025   9.130 -0.2447  0.0936  0.0166
  770MOL0     C 3858   3.324   7.049   9.238 -0.0592 -0.5727 -0.3703
  770MOL0     C 3859   3.338   6.953   9.351 -0.4123 -1.4778  0.4245
  770MOL0    Cl 3860   3.317   6.793   9.281  0.1575  0.2904  0.3637
  770MOL0     C 3861   3.832   7.393   8.803 -0.6079 -0.3536  0.2565
  770MOL0     C 3862   3.871   7.523   8.814 -0.8047 -1.1734 -1.0771
  770MOL0     O 3863   3.718   7.862   8.751  0.0812  0.0619  0.3429
  770MOL0     C 3864   4.073   7.937   8.781  0.2100 -0.2719  0.3590
  770MOL0     C 3865   4.151   8.037   8.829  0.6307  0.6271 -0.0426
  770MOL0     N 3866   4.740   8.291   8.768 -0.3459 -0.1376  0.4401
  770MOL0     N 3867   4.815   8.233   8.690  0.3508 -0.1245  0.7666
  770MOL0     C 3868   5.236   7.082   8.605  0.3102 -0.1679 -0.3236
  770MOL0     C 3869   5.234   6.940   8.621 -0.6054 -0.5827  0.1581
  770MOL0     C 3870   5.331   6.507   8.523  0.2564 -0.9725  0.2511
  770MOL0     C 3871   5.366   6.400   8.433  1.0233  0.4130 -0.0091
  770MOL0     C 3872   5.374   6.273   8.494  0.1261 -0.1322 -0.7361
  770MOL0     C 3873   5.345   6.255   8.636  0.4528  0.1235 -0.1951
  770MOL0     O 3874   5.390   6.146   8.705  1.3101 -0.0491  0.0103
  770MOL0     C 3875   5.309   6.032   8.685 -0.9008  0.3635 -1.0229
  770MOL0     C 3876   5.292   5.962   8.815 -0.2260  0.4537  0.4429
  770MOL0     C 3877   5.422   5.939   8.887 -0.2477 -0.2942 -0.2835
  770MOL0     C 3878   5.416   5.861   9.016 -0.0655 -0.7093  0.0563
  770MOL0     C 3879   5.395   5.721   8.988 -0.0372  1.2668  0.4055
  770MOL0     C 3880   5.359   5.606   8.969 -0.2764 -0.0199  0.2296
  770MOL0     C 3881   5.295   6.357   8.712 -0.2613  0.2754 -1.1851
  770MOL0     C 3882   5.301   6.486   8.659  0.4803  0.0593 -0.7714
  770MOL0     H 3883   5.243   6.842   8.298 -0.0738  2.1370 -2.4401
  770MOL0     H 3884   5.227   7.068   8.251 -0.9848  2.3517  0.5217
  770MOL0     H 3885   5.116   7.369   8.586 -1.0373  1.2145  0.4503
  770MOL0     H 3886   5.285   7.358   8.624  1.6432  3.9425 -0.8388
  770MOL0     H 3887   5.354   7.512   8.448 -0.2675  5.0080  0.2090
  770MOL0     H 3888   5.196   7.500   8.376  0.5433 -3.3890  0.2302
  770MOL0     H 3889   5.094   7.597   8.572  0.0566 -1.7552  0.9683
  770MOL0     H 3890   5.251   7.597   8.652  0.6627 -1.1972 -1.4635
  770MOL0     H 3891   5.328   7.786   8.514 -0.3026  0.5168 -1.2008
  770MOL0     H 3892   5.228   7.720   8.380  0.5726 -0.2385  0.0065
  770MOL0     H 3893   5.138   7.936   8.453  0.7355  0.8795 -0.3389
  770MOL0     H 3894   5.026   7.808   8.498  1.4940 -0.9147 -3.8143
  770MOL0     H 3895   5.101   7.820   8.742  3.8517 -0.1362  1.7879
  770MOL0     H 3896   5.228   7.915   8.689  0.4465  0.1609 -2.9368
  770MOL0     H 3897   5.076   8.085   8.769 -5.1013  1.3201  0.2177
  770MOL0     H 3898   5.082   8.092   8.601 -5.6959  2.8142 -0.6467
  770MOL0     H 3899   4.887   7.905   8.733  0.2008  0.5080  0.9538
  770MOL0     H 3900   4.851   7.983   8.575  1.2369  2.1740 -1.0832
  770MOL0     H 3901   4.734   7.992   8.913 -3.9085 -0.6849 -1.7565
  770MOL0     H 3902   4.664   8.210   9.087 -1.0632  1.5975  1.7289
  770MOL0     H 3903   4.664   8.365   9.001  0.6004  0.7417 -0.3080
  770MOL0     H 3904   4.427   8.284   9.082  1.2993  5.9971 -0.8189
  770MOL0     H 3905   4.431   8.156   8.971  1.7998 -0.7872  0.4193
  770MOL0     H 3906   4.504   8.394   8.831 -0.2058 -0.4707  0.7052
  770MOL0     H 3907   4.355   8.424   8.942 -3.1595 -1.2430 -0.4244
  770MOL0     H 3908   4.366   8.198   8.760 -1.1995  0.2005 -2.9368
  770MOL0     H 3909   4.291   8.358   8.717 -1.3997 -2.3414 -1.6723
  770MOL0     H 3910   3.937   8.300   8.827 -0.4329  0.4085 -0.6028
  770MOL0     H 3911   3.742   8.242   8.793  0.2471  0.0653 -1.1815
  770MOL0     H 3912   3.721   8.138   8.668  0.3428  2.0978 -0.1314
  770MOL0     H 3913   3.678   8.070   8.833 -0.5349  2.7002  3.0445
  770MOL0     H 3914   3.746   7.641   8.524  0.4965  0.1250 -1.1092
  770MOL0     H 3915   3.676   7.397   8.499 -0.3279 -0.9110  1.0279
  770MOL0     H 3916   3.552   7.221   8.572 -0.6899 -1.2816 -2.0906
  770MOL0     H 3917   3.668   7.110   8.519 -1.2830  3.2897 -1.8174
  770MOL0     H 3918   3.521   6.959   8.621 -0.8251 -1.2942  1.1824
  770MOL0     H 3919   3.651   6.967   8.727 -0.8049  0.3812  1.4927
  770MOL0     H 3920   3.425   6.967   8.842 -3.4550  1.3968 -1.3726
  770MOL0     H 3921   3.378   7.112   8.772 -1.9030 -0.4417  0.3622
  770MOL0     H 3922   3.619   7.097   8.946  1.1966  3.6719  0.3926
  770MOL0     H 3923   3.556   7.246   8.887  0.8649  0.1158  0.4008
  770MOL0     H 3924   3.335   7.186   9.007 -0.0396 -0.3939 -0.6150
  770MOL0     H 3925   3.472   7.230   9.118  0.0011  1.9708 -0.3966
  770MOL0     H 3926   3.417   6.931   9.078  0.0321 -0.8823  1.6092
  770MOL0     H 3927   3.527   7.019   9.189  0.5670 -1.3648 -1.3241
  770MOL0     H 3928   3.228   7.033   9.187  0.0417  0.9097 -1.0934
  770MOL0     H 3929   3.319   7.154   9.268 -0.5746 -0.9692  1.0274
  770MOL0     H 3930   3.268   6.954   9.435 -0.8640 -1.4617  0.0481
  770MOL0     H 3931   3.431   6.980   9.403  0.3506  1.3520 -2.1571
  770MOL0     H 3932   3.859   7.320   8.879  1.3435  0.9165  0.8606
  770MOL0     H 3933   3.924   7.569   8.898 -1.7813 -0.1182 -1.0135
  770MOL0     H 3934   4.117   7.839   8.770  1.6640  0.3588  0.3997
  770MOL0     H 3935   4.252   8.005   8.852  0.8471 -0.1676 -1.8625
  770MOL0     H 3936   5.235   7.139   8.698 -1.8287  2.1949 -1.6617
  770MOL0     H 3937   5.240   6.893   8.719  1.6498  0.1511  0.4252
  770MOL0     H 3938   5.389   6.405   8.327 -0.7438 -1.8547 -0.5964
  770MOL0     H 3939   5.407   6.181   8.448  1.1558 -0.1738  0.0499
  770MOL0     H 3940   5.207   6.044   8.648 -0.9166  1.6845 -0.6017
  770MOL0     H 3941   5.368   5.967   8.620 -0.6368  1.3508 -1.7783
  770MOL0     H 3942   5.244   5.865   8.795  0.3422  0.7786 -3.1238
  770MOL0     H 3943   5.223   6.019   8.878  1.2267 -0.5903  3.1714
  770MOL0     H 3944   5.453   6.037   8.924  0.9520 -1.6427  2.6566
  770MOL0     H 3945   5.502   5.903   8.821  0.5623 -1.3437  1.2201
  770MOL0     H 3946   5.347   5.911   9.084  0.3465  1.3507 -0.9482
  770MOL0     H 3947   5.517   5.869   9.058  0.2943 -2.1072 -0.5006
  770MOL0     H 3948   5.319   5.510   8.945  0.5372  0.0745 -1.7755
  770MOL0     H 3949   5.274   6.337   8.816  0.1982  2.1141 -0.6987
  770MOL0     H 3950   5.299   6.566   8.733  1.4059 -1.2693  0.7476
  771MOL0     O 3951  11.340   6.833   6.599 -0.7948 -0.2170  0.9473
  771MOL0     C 3952  11.340   6.709   6.572  0.5478 -0.8129  0.4847
  771MOL0     O 3953  11.329   6.607   6.665 -0.0681 -0.4048  0.2517
  771MOL0     C 3954  11.375   6.623   6.794 -0.3116  0.2832 -0.3945
  771MOL0     C 3955  11.470   6.527   6.847 -1.0553  0.0132 -0.2019
  771MOL0     C 3956  11.505   6.530   6.982  0.1682  0.0742  0.8596
  771MOL0     C 3957  11.464   6.626   7.061 -0.8341 -0.0546  0.3843
  771MOL0     O 3958  11.492   6.648   7.194 -0.4638 -0.4194 -0.7287
  771MOL0     C 3959  11.378   6.617   7.272  0.1472 -0.2758  0.3313
  771MOL0     C 3960  11.432   6.591   7.414 -0.0924 -1.0295  0.1007
  771MOL0     C 3961  11.307   6.546   7.487 -0.2544 -0.2830  0.1075
  771MOL0     C 3962  11.189   6.642   7.485  0.5155  0.1602 -0.4869
  771MOL0     C 3963  11.093   6.633   7.600  0.5452  0.9091  0.0079
  771MOL0     C 3964  11.037   6.490   7.634 -0.9521  0.0853 -0.0782
  771MOL0     C 3965  10.959   6.478   7.763  0.1640  0.5614  0.6283
  771MOL0     C 3966  11.027   6.517   7.893  0.0091  0.2764  0.1538
  771MOL0     N 3967  11.132   6.428   7.937  0.4546  0.6596 -0.5455
  771MOL0     C 3968  11.264   6.448   7.941  0.6610 -1.0257 -0.7857
  771MOL0     C 3969  11.303   6.329   7.988 -0.8889 -0.6512 -0.0758
  771MOL0     C 3970  11.449   6.290   7.990  0.2586 -0.1213  0.3671
  771MOL0     C 3971  11.486   6.258   7.837 -0.4897 -0.4710  0.5880
  771MOL0     C 3972  11.612   6.338   7.778  0.3941  0.3350  0.5534
  771MOL0     C 3973  11.740   6.316   7.873 -0.9135 -0.5782  0.1662
  771MOL0     O 3974  11.746   6.183   7.912  0.0463 -0.4609 -0.7443
  771MOL0     C 3975  11.875   6.143   7.945  0.4607 -0.0727 -0.9847
  771MOL0     C 3976  11.973   6.226   8.000 -0.3054 -1.1908  0.1097
  771MOL0     C 3977  12.108   6.182   8.022 -0.7059  0.9571  0.0809
  771MOL0     C 3978  12.206   6.282   8.062 -0.8596  0.3468 -0.0668
  771MOL0     C 3979  12.138   6.040   8.018  0.3378  0.8188 -0.9275
  771MOL0     C 3980  12.272   5.977   8.023 -0.5072  0.8299  0.3421
  771MOL0     O 3981  12.266   5.843   8.029 -0.7700  0.2482  0.1241
  771MOL0     C 3982  12.370   5.760   8.033 -0.7974  0.2295 -0.5531
  771MOL0     C 3983  12.506   5.780   8.009 -0.1745 -0.6389 -0.8623
  771MOL0     C 3984  12.601   5.675   8.028 -0.1489  0.2031  0.5530
  771MOL0     C 3985  12.560   5.551   8.068 -0.1932 -0.2251  0.0161
  771MOL0     O 3986  12.637   5.441   8.092  0.2545 -0.7070  0.6382
  771MOL0     C 3987  12.719   5.404   7.975  0.0579 -0.1781 -1.0293
  771MOL0     C 3988  12.761   5.257   7.988  0.2419 -0.5198  0.3177
  771MOL0     C 3989  12.662   5.155   7.939  0.5294 -0.1194 -1.5848
  771MOL0     C 3990  12.649   5.026   8.037  0.2476 -0.2772  0.6193
  771MOL0     C 3991  12.773   4.935   8.038  0.0475 -0.5914  0.0482
  771MOL0     C 3992  12.780   4.854   7.903 -0.0664 -0.0418 -0.4047
  771MOL0     C 3993  12.863   4.730   7.919 -0.7043  0.0899 -0.1154
  771MOL0     C 3994  13.015   4.754   7.961  1.1408  0.4276  0.1240
  771MOL0    Cl 3995  13.123   4.760   7.822 -0.1154 -0.0835  0.0967
  771MOL0     C 3996  12.425   5.527   8.094  0.3910  0.7387  0.0668
  771MOL0     C 3997  12.340   5.638   8.085  0.1438  0.3784 -0.2459
  771MOL0     O 3998  12.375   6.039   8.011 -0.8385 -0.9482 -0.2173
  771MOL0     C 3999  12.028   5.949   7.994 -0.3302 -0.3836  0.8874
  771MOL0     C 4000  11.901   6.003   7.961 -0.3766 -1.0671  0.2864
  771MOL0     N 4001  11.199   6.249   8.021 -1.1840  0.6421 -0.4842
  771MOL0     N 4002  11.097   6.309   7.991 -0.1706 -0.3141 -0.5526
  771MOL0     C 4003  11.385   6.726   7.003  1.0042 -1.2804 -0.6082
  771MOL0     C 4004  11.326   6.721   6.882 -0.2127  0.4296  1.7662
  771MOL0     C 4005  11.348   6.675   6.421 -0.2476  0.7258 -0.0587
  771MOL0     C 4006  11.342   6.776   6.327 -0.4262  0.0210 -0.4978
  771MOL0     C 4007  11.367   6.741   6.192  0.7243 -0.1403 -0.5498
  771MOL0     C 4008  11.373   6.613   6.152 -0.2819 -0.3270 -0.3894
  771MOL0     O 4009  11.379   6.595   6.021 -0.2901  0.1884  1.3908
  771MOL0     C 4010  11.370   6.468   5.957 -0.7108 -0.5682 -0.0975
  771MOL0     C 4011  11.513   6.415   5.949 -0.0817  0.2323  0.3140
  771MOL0     C 4012  11.516   6.272   5.901  0.1607 -0.0979  0.4172
  771MOL0     C 4013  11.466   6.258   5.752  0.3526 -0.5365 -0.2360
  771MOL0     C 4014  11.510   6.361   5.645 -0.1823 -0.0307 -0.5532
  771MOL0     C 4015  11.532   6.448   5.564 -0.1530  0.0505  0.1187
  771MOL0     C 4016  11.395   6.514   6.251  0.2633 -0.5166 -0.5772
  771MOL0     C 4017  11.383   6.545   6.392  0.3740 -0.2255  0.1690
  771MOL0     H 4018  11.506   6.443   6.789 -0.7687 -0.9946  1.3548
  771MOL0     H 4019  11.546   6.445   7.034  0.5159  0.8946  1.9631
  771MOL0     H 4020  11.312   6.705   7.271  0.9258  0.4720  3.4850
  771MOL0     H 4021  11.329   6.526   7.236  0.7184 -0.0953 -0.9830
  771MOL0     H 4022  11.508   6.513   7.409  3.6104  2.3147 -2.0674
  771MOL0     H 4023  11.475   6.683   7.454  0.5087 -0.7347 -1.1485
  771MOL0     H 4024  11.288   6.442   7.457  3.0217  0.1427 -4.3231
  771MOL0     H 4025  11.345   6.533   7.589  1.9012 -1.9440 -0.8156
  771MOL0     H 4026  11.218   6.747   7.479  0.6318  0.2489  1.2334
  771MOL0     H 4027  11.142   6.609   7.391 -2.3231  2.7933 -0.1583
  771MOL0     H 4028  11.156   6.676   7.678  2.1363 -0.5019 -0.4257
  771MOL0     H 4029  11.010   6.698   7.571 -2.3846 -2.3563  0.4464
  771MOL0     H 4030  10.970   6.454   7.555  0.9395 -1.7527 -0.9156
  771MOL0     H 4031  11.125   6.426   7.637 -2.3738 -2.0175 -0.6570
  771MOL0     H 4032  10.872   6.544   7.761 -1.2359 -1.2043 -0.5618
  771MOL0     H 4033  10.916   6.379   7.784  1.9173  0.1513  2.6332
  771MOL0     H 4034  10.958   6.545   7.974 -0.3667 -0.7459  0.2012
  771MOL0     H 4035  11.080   6.612   7.877  0.5796  0.1832  1.4197
  771MOL0     H 4036  11.316   6.534   7.901 -0.7813 -0.2766 -1.1175
  771MOL0     H 4037  11.511   6.376   8.018  1.8882 -0.9935 -0.3992
  771MOL0     H 4038  11.469   6.202   8.052 -1.9570 -0.8959  0.0777
  771MOL0     H 4039  11.407   6.273   7.763  0.5362 -2.0132 -0.8991
  771MOL0     H 4040  11.503   6.150   7.834 -1.1747 -0.5839  0.6510
  771MOL0     H 4041  11.599   6.444   7.756  1.3822 -0.1053 -2.6207
  771MOL0     H 4042  11.640   6.299   7.680  1.9227  1.6483  0.4203
  771MOL0     H 4043  11.719   6.378   7.961 -3.7712 -1.0755 -0.0703
  771MOL0     H 4044  11.829   6.342   7.815 -2.3897  2.0877 -1.0457
  771MOL0     H 4045  11.968   6.334   8.011  0.1202 -1.2960  1.6676
  771MOL0     H 4046  12.165   6.337   8.147  0.8645  0.3446  0.8172
  771MOL0     H 4047  12.307   6.247   8.086 -2.1519 -1.1400  3.9442
  771MOL0     H 4048  12.224   6.351   7.978  1.5088  0.3136  0.3205
  771MOL0     H 4049  12.553   5.871   7.973  0.1911 -1.3746 -2.3192
  771MOL0     H 4050  12.704   5.694   8.000 -0.7458 -0.8663 -2.6906
  771MOL0     H 4051  12.654   5.419   7.888 -1.6272  0.8784  0.3407
  771MOL0     H 4052  12.809   5.465   7.976 -0.7889  1.1398  0.7523
  771MOL0     H 4053  12.853   5.240   7.931 -0.0126 -1.5155  0.1840
  771MOL0     H 4054  12.784   5.232   8.092  0.0445 -1.7975  0.0663
  771MOL0     H 4055  12.675   5.126   7.834  3.5228  3.0164 -2.2323
  771MOL0     H 4056  12.569   5.210   7.957 -0.5975 -2.5341  0.6905
  771MOL0     H 4057  12.620   5.060   8.137 -1.8890 -0.3124  0.0593
  771MOL0     H 4058  12.568   4.960   8.005 -0.9642 -0.1799  3.2422
  771MOL0     H 4059  12.773   4.870   8.126 -1.3187 -2.9141 -1.5379
  771MOL0     H 4060  12.861   4.996   8.054  1.0069 -1.8694 -0.1776
  771MOL0     H 4061  12.675   4.828   7.890 -0.1703 -1.0260  1.9092
  771MOL0     H 4062  12.804   4.923   7.822 -0.9909  2.5087  1.3765
  771MOL0     H 4063  12.858   4.667   7.830 -0.5425 -1.3393  0.8516
  771MOL0     H 4064  12.811   4.670   7.994  2.2240 -0.7775  1.3593
  771MOL0     H 4065  13.054   4.684   8.035  2.1596  1.1657  0.2963
  771MOL0     H 4066  13.035   4.846   8.017 -1.6992 -0.0834  2.1809
  771MOL0     H 4067  12.384   5.433   8.130 -0.3335  1.1669  0.3805
  771MOL0     H 4068  12.236   5.618   8.110  0.6047 -3.9790 -0.9710
  771MOL0     H 4069  12.032   5.841   7.990  1.8859 -0.3129 -0.2066
  771MOL0     H 4070  11.814   5.941   7.944 -2.7368  2.7539 -3.7088
  771MOL0     H 4071  11.336   6.804   7.061  1.4866 -1.8032  0.5266
  771MOL0     H 4072  11.247   6.783   6.839 -0.6437 -0.8154  0.6967
  771MOL0     H 4073  11.337   6.880   6.357 -0.9868 -0.2819  0.5197
  771MOL0     H 4074  11.341   6.817   6.118 -1.2663 -0.1629  0.0689
  771MOL0     H 4075  11.304   6.403   6.015 -1.1486  0.7484  0.9431
  771MOL0     H 4076  11.343   6.484   5.852  0.2236 -0.4624 -0.3356
  771MOL0     H 4077  11.557   6.428   6.048  0.8041 -0.3365  0.0107
  771MOL0     H 4078  11.559   6.479   5.873 -2.0754  1.1313 -0.2051
  771MOL0     H 4079  11.462   6.206   5.969 -1.3593 -0.8416 -1.4056
  771MOL0     H 4080  11.621   6.244   5.911 -0.4653 -3.1479 -0.5543
  771MOL0     H 4081  11.357   6.254   5.747  0.2859 -1.0179  1.2578
  771MOL0     H 4082  11.490   6.156   5.722  1.8756  0.2918 -2.0936
  771MOL0     H 4083  11.546   6.502   5.473  1.8388  2.7214  1.8894
  771MOL0     H 4084  11.396   6.410   6.217 -0.7214  0.0950 -2.6345
  771MOL0     H 4085  11.399   6.464   6.462 -4.9355  1.3898  3.9295
  772MOL0     O 4086   5.588   3.365   5.136 -0.8320 -0.1213 -0.2542
  772MOL0     C 4087   5.531   3.403   5.239  0.1896  0.7144  0.3310
  772MOL0     O 4088   5.562   3.370   5.364 -0.4714 -0.4697 -0.9523
  772MOL0     C 4089   5.676   3.310   5.401 -0.8243 -0.2307 -0.6462
  772MOL0     C 4090   5.671   3.245   5.518 -0.6534 -0.4210 -0.0673
  772MOL0     C 4091   5.794   3.204   5.584 -0.3897  0.7213 -0.2121
  772MOL0     C 4092   5.918   3.230   5.524 -0.6132 -0.2557 -0.4367
  772MOL0     O 4093   6.025   3.206   5.609 -0.3931 -0.5959 -0.1914
  772MOL0     C 4094   6.151   3.208   5.557 -0.0392 -0.2742 -0.4609
  772MOL0     C 4095   6.249   3.154   5.665  1.5458 -0.1615  0.5646
  772MOL0     C 4096   6.195   3.051   5.758  0.0712 -0.7912  0.6037
  772MOL0     C 4097   6.300   3.027   5.867  0.3981 -0.3178  0.0991
  772MOL0     C 4098   6.435   2.961   5.837 -0.5845  0.1107 -0.0134
  772MOL0     C 4099   6.416   2.805   5.800  0.3718 -0.5975  0.2740
  772MOL0     C 4100   6.553   2.737   5.781 -0.4553  0.3067 -0.1880
  772MOL0     C 4101   6.602   2.672   5.911 -0.2424 -0.3073  0.9618
  772MOL0     N 4102   6.732   2.607   5.897  0.6728 -0.7349  0.9327
  772MOL0     C 4103   6.857   2.656   5.932  0.5408  0.3023 -0.4189
  772MOL0     C 4104   6.947   2.561   5.895 -0.1105  0.0540 -0.5921
  772MOL0     C 4105   7.098   2.572   5.902  0.8812 -0.7199  0.0492
  772MOL0     C 4106   7.139   2.557   6.043 -0.4934  0.1517 -0.2718
  772MOL0     C 4107   7.108   2.423   6.116 -0.2898 -0.1193  0.2676
  772MOL0     C 4108   7.197   2.417   6.232  0.8929  0.3014 -0.4035
  772MOL0     O 4109   7.238   2.285   6.272  0.3453  0.3135  0.4405
  772MOL0     C 4110   7.331   2.217   6.192 -0.7852  0.1432  0.1114
  772MOL0     C 4111   7.416   2.270   6.095  0.3134  0.1717  0.2771
  772MOL0     C 4112   7.515   2.188   6.036  0.4023  0.5011  0.4612
  772MOL0     C 4113   7.589   2.257   5.918  1.0889 -0.6732  0.0898
  772MOL0     C 4114   7.541   2.052   6.071 -0.2432  0.3795 -1.1269
  772MOL0     C 4115   7.648   1.963   6.008  0.9803  0.4598  0.5081
  772MOL0     O 4116   7.660   1.839   6.063  0.4170  0.4331 -0.1429
  772MOL0     C 4117   7.788   1.792   6.082 -0.7928  0.7414  0.4118
  772MOL0     C 4118   7.838   1.724   5.978  0.3959 -0.3880  0.4754
  772MOL0     C 4119   7.970   1.666   5.976 -0.3026  1.0494 -0.5581
  772MOL0     C 4120   8.045   1.689   6.092  0.6850  0.0726 -1.7174
  772MOL0     O 4121   8.169   1.630   6.106 -0.0792 -0.9945 -0.2513
  772MOL0     C 4122   8.274   1.727   6.109  0.0925  0.3857  0.2714
  772MOL0     C 4123   8.396   1.630   6.124  0.1466 -0.4806  0.5162
  772MOL0     C 4124   8.405   1.572   6.267 -0.3274 -0.3052 -0.6308
  772MOL0     C 4125   8.509   1.452   6.279  0.1516  0.4467  0.9449
  772MOL0     C 4126   8.515   1.389   6.415 -0.1951 -0.4705 -0.1930
  772MOL0     C 4127   8.383   1.341   6.478 -0.0805 -0.6490  0.4121
  772MOL0     C 4128   8.421   1.279   6.620  0.7634 -0.7237 -0.1287
  772MOL0     C 4129   8.292   1.239   6.689 -0.4905  0.7404  0.3184
  772MOL0    Cl 4130   8.220   1.111   6.599  0.0009 -0.0887  0.1649
  772MOL0     C 4131   7.996   1.767   6.195  0.2050  0.7044 -0.3168
  772MOL0     C 4132   7.868   1.826   6.187  1.1992 -0.3383 -0.2721
  772MOL0     O 4133   7.721   2.002   5.923 -0.2460 -0.4468  0.4875
  772MOL0     C 4134   7.461   2.006   6.175 -0.8522 -0.4196  0.1245
  772MOL0     C 4135   7.354   2.085   6.224 -0.2524 -0.5630 -0.8052
  772MOL0     N 4136   6.873   2.457   5.839  0.2715  0.6662 -0.0236
  772MOL0     N 4137   6.750   2.481   5.843  0.6382 -0.0713  0.3720
  772MOL0     C 4138   5.920   3.289   5.403 -0.6208 -0.0590 -0.3827
  772MOL0     C 4139   5.798   3.316   5.331 -0.2239  0.1323  0.2661
  772MOL0     C 4140   5.400   3.479   5.230  0.0111 -0.4050  0.1317
  772MOL0     C 4141   5.327   3.505   5.346  0.6354 -0.3500 -0.2698
  772MOL0     C 4142   5.199   3.561   5.334 -0.0070  0.0717  0.1310
  772MOL0     C 4143   5.146   3.601   5.217 -0.2626 -0.9242 -1.0007
  772MOL0     O 4144   5.019   3.663   5.225 -0.5560  0.3030  0.4014
  772MOL0     C 4145   4.982   3.711   5.092 -0.6685  0.2236 -0.1002
  772MOL0     C 4146   4.847   3.774   5.114  0.2388  0.8116  0.0356
  772MOL0     C 4147   4.738   3.668   5.097 -0.0361 -0.5586  0.3998
  772MOL0     C 4148   4.595   3.737   5.088  0.4579  0.4576  0.5064
  772MOL0     C 4149   4.502   3.623   5.087  1.0232  0.2470 -0.0931
  772MOL0     C 4150   4.418   3.531   5.084  0.4122  0.7943  0.5087
  772MOL0     C 4151   5.220   3.577   5.106 -0.6112 -0.6108 -0.1649
  772MOL0     C 4152   5.344   3.503   5.108  0.9490 -0.3201  0.7671
  772MOL0     H 4153   5.570   3.234   5.558 -2.2045  1.6836 -3.0407
  772MOL0     H 4154   5.800   3.168   5.686  2.7657  0.9179 -0.2508
  772MOL0     H 4155   6.150   3.143   5.469  0.5855 -1.5898  0.4753
  772MOL0     H 4156   6.162   3.316   5.541 -0.5347 -0.3047 -1.0619
  772MOL0     H 4157   6.337   3.119   5.609  0.5339 -3.4319  0.8493
  772MOL0     H 4158   6.285   3.238   5.725  4.1283 -0.4454 -0.4374
  772MOL0     H 4159   6.112   3.103   5.807 -0.5687 -0.3190 -0.9143
  772MOL0     H 4160   6.174   2.961   5.700 -0.4163  1.6034 -3.3454
  772MOL0     H 4161   6.323   3.118   5.922 -0.0919  0.6362 -1.2331
  772MOL0     H 4162   6.236   2.975   5.939 -1.0444 -0.6124 -1.3355
  772MOL0     H 4163   6.478   3.006   5.747 -1.4193  1.3866  0.2052
  772MOL0     H 4164   6.504   2.967   5.921 -0.1363 -0.7160 -0.3089
  772MOL0     H 4165   6.357   2.749   5.873  1.4337 -1.5725  0.4116
  772MOL0     H 4166   6.356   2.797   5.709  2.5309 -3.3883 -1.0818
  772MOL0     H 4167   6.533   2.663   5.703  2.9889 -1.0327  0.0208
  772MOL0     H 4168   6.625   2.815   5.755  2.8114 -2.6644 -0.8611
  772MOL0     H 4169   6.528   2.598   5.944 -0.3254  0.7546  3.3472
  772MOL0     H 4170   6.614   2.750   5.986 -3.3569  0.3038  0.9660
  772MOL0     H 4171   6.878   2.758   5.962  3.4649 -0.5797  0.9188
  772MOL0     H 4172   7.141   2.499   5.832 -0.8708 -0.2474 -1.5949
  772MOL0     H 4173   7.139   2.667   5.867 -1.1643  0.3539  0.4093
  772MOL0     H 4174   7.109   2.639   6.110  1.6485  0.9360 -0.2039
  772MOL0     H 4175   7.248   2.556   6.044 -0.3118  2.4325  3.3723
  772MOL0     H 4176   7.142   2.349   6.043  3.9136 -0.1125  1.9734
  772MOL0     H 4177   7.006   2.410   6.155 -0.0914 -3.3422 -0.0545
  772MOL0     H 4178   7.138   2.451   6.318  0.2875 -1.2390 -0.1673
  772MOL0     H 4179   7.286   2.480   6.219 -0.2398  2.3186  0.9953
  772MOL0     H 4180   7.412   2.372   6.058  1.6993  2.0115  4.5703
  772MOL0     H 4181   7.535   2.348   5.891 -0.1276 -0.9549  1.4436
  772MOL0     H 4182   7.687   2.283   5.958  1.6887 -1.3751 -0.8803
  772MOL0     H 4183   7.595   2.192   5.830  4.4427  0.5222 -0.6972
  772MOL0     H 4184   7.762   1.701   5.904  0.3275 -1.4020  0.8453
  772MOL0     H 4185   8.011   1.621   5.886  1.4921 -1.1785  1.2643
  772MOL0     H 4186   8.282   1.782   6.015  2.2518  0.5742  0.5111
  772MOL0     H 4187   8.258   1.801   6.189  0.9891 -0.2073  1.0281
  772MOL0     H 4188   8.390   1.548   6.051  3.3709 -2.2598  2.0469
  772MOL0     H 4189   8.490   1.680   6.100 -0.4712  1.6749  2.3038
  772MOL0     H 4190   8.317   1.521   6.305  1.7806 -4.1878 -0.4492
  772MOL0     H 4191   8.425   1.656   6.335  1.1313 -1.7120  0.7885
  772MOL0     H 4192   8.489   1.377   6.203 -0.3195  0.3142  1.1950
  772MOL0     H 4193   8.608   1.490   6.254  0.9588  0.9135  4.3516
  772MOL0     H 4194   8.540   1.478   6.473 -2.5848  0.7522 -0.8884
  772MOL0     H 4195   8.585   1.305   6.418 -0.4580 -0.7290 -1.1856
  772MOL0     H 4196   8.306   1.414   6.504 -0.7296 -0.4434 -1.8647
  772MOL0     H 4197   8.336   1.271   6.408  0.9600 -0.9552 -0.0041
  772MOL0     H 4198   8.476   1.353   6.679  2.8278 -0.7726 -1.8468
  772MOL0     H 4199   8.491   1.197   6.596  5.2274  2.7005 -0.2081
  772MOL0     H 4200   8.228   1.328   6.692 -0.6590  0.8766 -3.0554
  772MOL0     H 4201   8.318   1.207   6.790  0.9627  0.2855 -0.1715
  772MOL0     H 4202   8.061   1.787   6.280  0.7963 -0.0066 -0.5915
  772MOL0     H 4203   7.828   1.863   6.281  0.4141 -3.1501  0.6100
  772MOL0     H 4204   7.475   1.909   6.222 -0.6291 -0.1081  0.7053
  772MOL0     H 4205   7.294   2.053   6.308  0.9711  0.0243  0.3416
  772MOL0     H 4206   6.020   3.305   5.362  0.3706 -0.9848  1.5770
  772MOL0     H 4207   5.805   3.362   5.233  1.5517  0.6006  0.5752
  772MOL0     H 4208   5.380   3.500   5.440  1.2174 -0.2777 -0.5899
  772MOL0     H 4209   5.140   3.571   5.424 -1.3481 -2.1631 -0.4320
  772MOL0     H 4210   5.035   3.804   5.066 -3.4757  2.5542  1.8396
  772MOL0     H 4211   4.976   3.637   5.012  0.9493  0.0513 -0.1040
  772MOL0     H 4212   4.837   3.841   5.028  0.5979 -0.6850 -1.2183
  772MOL0     H 4213   4.839   3.837   5.203  0.3118 -2.0561  2.2093
  772MOL0     H 4214   4.743   3.595   5.178 -0.6507 -1.2949 -0.2185
  772MOL0     H 4215   4.758   3.619   5.002  2.1279  0.6820  0.1437
  772MOL0     H 4216   4.582   3.797   4.998  0.3076 -2.8520 -1.8686
  772MOL0     H 4217   4.566   3.810   5.164 -1.9631  2.3342 -2.0461
  772MOL0     H 4218   4.342   3.455   5.076  0.8409  0.1188  2.4430
  772MOL0     H 4219   5.190   3.597   5.004 -2.1064 -3.3453 -0.3464
  772MOL0     H 4220   5.386   3.474   5.012  4.2531 -0.5076  2.1389
  773MOL0     O 4221   8.522   6.870   9.167  0.1242  0.6595  0.6305
  773MOL0     C 4222   8.577   6.797   9.080 -0.4293  1.1351 -0.2843
  773MOL0     O 4223   8.633   6.844   8.965 -0.1798  0.9037  0.5992
  773MOL0     C 4224   8.571   6.955   8.911 -0.2062  0.2559 -0.2399
  773MOL0     C 4225   8.647   7.019   8.817 -0.6373 -0.1426  0.1952
  773MOL0     C 4226   8.591   7.132   8.745 -0.7304  0.7330 -0.3244
  773MOL0     C 4227   8.454   7.157   8.765  0.0454  0.5333 -1.3039
  773MOL0     O 4228   8.388   7.255   8.703  0.2059 -0.1259  0.0167
  773MOL0     C 4229   8.435   7.268   8.566 -0.1430 -0.4118  0.4557
  773MOL0     C 4230   8.321   7.348   8.495  0.0390 -0.8057 -0.4700
  773MOL0     C 4231   8.203   7.261   8.454  0.9415 -0.9090 -0.4613
  773MOL0     C 4232   8.218   7.164   8.331 -0.2804 -0.1477  0.2153
  773MOL0     C 4233   8.084   7.108   8.280 -0.0315  0.6796 -0.2228
  773MOL0     C 4234   8.018   7.003   8.375 -0.4706 -0.7687 -0.1647
  773MOL0     C 4235   7.889   6.949   8.320  0.5746 -0.5262  0.0532
  773MOL0     C 4236   7.901   6.842   8.209 -0.4572  0.4517  0.7096
  773MOL0     N 4237   7.921   6.900   8.074 -0.6061  0.4611  0.0018
  773MOL0     C 4238   7.865   7.001   8.010  0.3575 -0.0879 -0.9166
  773MOL0     C 4239   7.944   7.030   7.904 -0.4816 -0.6557  0.0181
  773MOL0     C 4240   7.921   7.141   7.800  1.1012  0.4534  0.7765
  773MOL0     C 4241   7.873   7.075   7.668 -0.4812  0.4680  0.6170
  773MOL0     C 4242   7.719   7.089   7.644 -0.9480  0.2094 -0.8643
  773MOL0     C 4243   7.656   7.003   7.538 -0.6319  0.5954  0.2284
  773MOL0     O 4244   7.712   7.020   7.408 -0.2313  0.0057  0.1974
  773MOL0     C 4245   7.699   7.154   7.361 -0.4546  0.0159 -0.0563
  773MOL0     C 4246   7.816   7.234   7.342  0.0136  0.2059 -0.2429
  773MOL0     C 4247   7.809   7.370   7.305  0.0865 -1.0050 -0.3171
  773MOL0     C 4248   7.934   7.440   7.287  0.4398  0.5844 -0.1512
  773MOL0     C 4249   7.681   7.422   7.273 -0.2952 -0.2492 -0.3863
  773MOL0     C 4250   7.657   7.567   7.248 -0.1944  0.2566 -0.1962
  773MOL0     O 4251   7.626   7.602   7.124  0.2070  0.6186  0.0159
  773MOL0     C 4252   7.578   7.737   7.106  0.0047  0.1631 -0.4934
  773MOL0     C 4253   7.439   7.756   7.104 -0.6430  0.8967  1.0369
  773MOL0     C 4254   7.377   7.879   7.106  0.4130 -0.0786  0.0571
  773MOL0     C 4255   7.455   7.998   7.119 -0.1476 -0.2478  0.1029
  773MOL0     O 4256   7.384   8.114   7.098  0.2832  0.4033  0.1124
  773MOL0     C 4257   7.462   8.227   7.052  0.4058 -0.6969 -0.5951
  773MOL0     C 4258   7.371   8.308   6.967  0.7823 -0.3250  0.3087
  773MOL0     C 4259   7.426   8.425   6.879  0.4318 -0.4789 -0.2157
  773MOL0     C 4260   7.331   8.473   6.758 -0.3175  0.6569  0.5278
  773MOL0     C 4261   7.405   8.576   6.671 -0.4851  0.9950  0.3749
  773MOL0     C 4262   7.401   8.713   6.737 -0.7173 -0.4844 -0.9289
  773MOL0     C 4263   7.454   8.811   6.634  0.8781 -0.4146  0.6819
  773MOL0     C 4264   7.448   8.952   6.688  0.4310 -1.7108  0.7734
  773MOL0    Cl 4265   7.283   9.018   6.710 -0.0985  0.0824  0.1537
  773MOL0     C 4266   7.601   7.976   7.136 -0.0828 -0.6805  0.1069
  773MOL0     C 4267   7.652   7.850   7.134 -0.9854  0.1218 -0.0476
  773MOL0     O 4268   7.641   7.642   7.348 -0.0469  0.1811  0.3108
  773MOL0     C 4269   7.567   7.345   7.294 -0.0824  1.1641  0.7518
  773MOL0     C 4270   7.568   7.214   7.337  0.3547 -0.5981 -0.1568
  773MOL0     N 4271   8.041   6.930   7.900 -1.1686 -0.7613 -1.0072
  773MOL0     N 4272   8.026   6.850   7.999 -0.4338 -0.0096  0.0773
  773MOL0     C 4273   8.381   7.094   8.863 -0.0085 -0.1588  0.4750
  773MOL0     C 4274   8.443   6.991   8.929  0.0634 -0.0473 -0.1861
  773MOL0     C 4275   8.586   6.654   9.109 -0.2585 -0.3192  0.5776
  773MOL0     C 4276   8.520   6.600   9.218 -0.8206 -0.3832  0.3974
  773MOL0     C 4277   8.496   6.466   9.237 -0.3682 -0.3026 -0.8017
  773MOL0     C 4278   8.556   6.379   9.152  0.2676  0.1281 -0.1479
  773MOL0     O 4279   8.545   6.241   9.155  0.2302  0.8228 -0.1403
  773MOL0     C 4280   8.489   6.161   9.267  0.1414 -0.3129 -1.4027
  773MOL0     C 4281   8.548   6.017   9.273  0.5455 -0.0065  0.1366
  773MOL0     C 4282   8.536   5.943   9.400  0.2369  0.9887 -0.7544
  773MOL0     C 4283   8.625   5.986   9.516  0.8214 -0.1796 -0.6134
  773MOL0     C 4284   8.587   5.923   9.640  0.1040  0.7564  0.4037
  773MOL0     C 4285   8.542   5.857   9.732 -0.5286  0.0836  0.5301
  773MOL0     C 4286   8.613   6.430   9.036 -0.8850  0.0111  0.0364
  773MOL0     C 4287   8.626   6.565   9.006  0.3747  0.5178 -0.0469
  773MOL0     H 4288   8.754   7.005   8.808 -0.6397  0.5178 -1.0410
  773MOL0     H 4289   8.642   7.188   8.668 -1.8427  0.7947 -1.0379
  773MOL0     H 4290   8.527   7.328   8.574  0.2599 -0.4276 -2.7077
  773MOL0     H 4291   8.452   7.174   8.513  0.0524  0.2315 -0.6667
  773MOL0     H 4292   8.287   7.427   8.563  0.8472 -0.4037 -0.5282
  773MOL0     H 4293   8.359   7.386   8.401 -0.1523 -0.7565 -0.5281
  773MOL0     H 4294   8.160   7.210   8.541 -0.4718 -2.4279 -1.9849
  773MOL0     H 4295   8.133   7.339   8.423  1.6702  0.2606  0.7560
  773MOL0     H 4296   8.270   7.215   8.250 -1.4677 -0.2864 -0.6578
  773MOL0     H 4297   8.281   7.080   8.363  1.0779  0.2309 -1.2954
  773MOL0     H 4298   8.015   7.191   8.261  0.8185  1.1001 -1.6218
  773MOL0     H 4299   8.106   7.054   8.188  1.5414 -3.8383  2.4979
  773MOL0     H 4300   8.094   6.926   8.394  1.0270  0.7647  0.3441
  773MOL0     H 4301   8.000   7.057   8.469 -0.1843 -0.3859 -0.3230
  773MOL0     H 4302   7.839   6.893   8.399  1.2259 -2.0527 -0.5803
  773MOL0     H 4303   7.813   7.025   8.299  0.3647 -0.5719  0.6320
  773MOL0     H 4304   7.814   6.775   8.207  1.0296 -1.6061 -2.9190
  773MOL0     H 4305   7.977   6.767   8.230  0.5840  1.5317  0.8719
  773MOL0     H 4306   7.778   7.057   8.045  0.0167  0.0894 -2.0160
  773MOL0     H 4307   7.839   7.204   7.836 -0.2874 -0.1471 -1.1621
  773MOL0     H 4308   8.013   7.199   7.788  1.8647 -0.9860 -0.8315
  773MOL0     H 4309   7.909   6.973   7.650  0.0559  0.8883 -0.8525
  773MOL0     H 4310   7.928   7.128   7.590 -0.6438  0.3621  0.4281
  773MOL0     H 4311   7.696   7.194   7.623  1.7782  1.3167  1.0543
  773MOL0     H 4312   7.681   7.049   7.739 -0.9463 -4.2442 -2.5252
  773MOL0     H 4313   7.550   7.025   7.552 -0.9086  0.3505 -1.3159
  773MOL0     H 4314   7.683   6.902   7.571 -1.0901  0.8172  1.3200
  773MOL0     H 4315   7.908   7.178   7.353  0.7036  1.5788  1.4605
  773MOL0     H 4316   7.992   7.403   7.373  1.7097  0.6085 -0.9740
  773MOL0     H 4317   7.975   7.411   7.190 -0.5203 -0.5154 -0.2587
  773MOL0     H 4318   7.926   7.548   7.282 -0.0946  0.4880 -2.7415
  773MOL0     H 4319   7.373   7.670   7.098 -0.0183  0.5323 -2.7762
  773MOL0     H 4320   7.269   7.877   7.096  0.4377 -2.0906 -0.2223
  773MOL0     H 4321   7.491   8.279   7.144  0.3228  0.3359 -1.1433
  773MOL0     H 4322   7.556   8.199   7.004  2.5002  0.9808  2.2226
  773MOL0     H 4323   7.317   8.237   6.903  1.7554 -0.0801 -0.8355
  773MOL0     H 4324   7.303   8.358   7.036  0.0879  0.1880 -0.7107
  773MOL0     H 4325   7.524   8.400   6.838  1.4377  1.2631  0.9566
  773MOL0     H 4326   7.445   8.512   6.943 -0.9634  0.6249 -1.2247
  773MOL0     H 4327   7.321   8.384   6.694 -0.1317  1.5113 -0.7160
  773MOL0     H 4328   7.232   8.507   6.790 -0.7063  0.0621  0.0049
  773MOL0     H 4329   7.373   8.573   6.566 -1.9730 -1.6784  0.8048
  773MOL0     H 4330   7.510   8.547   6.661  0.2432  3.0499  1.5242
  773MOL0     H 4331   7.298   8.731   6.768 -0.3214 -0.4612  0.4067
  773MOL0     H 4332   7.459   8.719   6.830  0.6911  3.4253 -1.8302
  773MOL0     H 4333   7.387   8.811   6.548 -2.6986  0.3553  3.2349
  773MOL0     H 4334   7.556   8.782   6.608  0.4953 -2.1480  0.9980
  773MOL0     H 4335   7.503   9.009   6.612 -1.2286  0.1392  0.8932
  773MOL0     H 4336   7.513   8.953   6.776  3.3434 -1.7179 -1.2170
  773MOL0     H 4337   7.675   8.049   7.167  1.2414 -2.8368  2.4104
  773MOL0     H 4338   7.758   7.830   7.149 -1.0931 -1.8365 -1.5190
  773MOL0     H 4339   7.474   7.389   7.259 -0.4148  0.1930  0.3939
  773MOL0     H 4340   7.485   7.145   7.351 -1.0621  1.2350  0.9528
  773MOL0     H 4341   8.277   7.126   8.869  0.0809  0.1096  0.6203
  773MOL0     H 4342   8.373   6.927   8.982 -1.9273  1.8257 -0.3854
  773MOL0     H 4343   8.494   6.666   9.300  0.9070  0.3695  0.3805
  773MOL0     H 4344   8.444   6.424   9.323  0.5144  0.2297  0.0084
  773MOL0     H 4345   8.512   6.203   9.365  0.3911 -3.8478  0.1765
  773MOL0     H 4346   8.380   6.158   9.259 -0.2211  2.8866  0.5663
  773MOL0     H 4347   8.654   6.024   9.247  0.7565 -1.7160  0.4273
  773MOL0     H 4348   8.502   5.970   9.186  0.6209 -0.3900  0.3019
  773MOL0     H 4349   8.586   5.848   9.376 -0.2896  0.1474  1.3160
  773MOL0     H 4350   8.431   5.922   9.420  0.5014 -0.9123 -1.1653
  773MOL0     H 4351   8.621   6.092   9.542 -0.6525  0.1512 -2.0616
  773MOL0     H 4352   8.730   5.973   9.489  0.4771  0.2596 -2.2781
  773MOL0     H 4353   8.494   5.799   9.808  1.0145  1.7081  2.8578
  773MOL0     H 4354   8.654   6.354   8.970  1.7340 -0.1188  1.6431
  773MOL0     H 4355   8.675   6.604   8.917  2.8788 -2.0088  0.0895
  774MOL0     O 4356   5.117   6.578   9.858 -0.9477 -1.0304  0.4190
  774MOL0     C 4357   5.164   6.496   9.787  0.3743  0.1240 -0.0230
  774MOL0     O 4358   5.300   6.476   9.759 -0.1383 -0.2887  0.4937
  774MOL0     C 4359   5.382   6.539   9.842 -0.4122  0.4195  0.2556
  774MOL0     C 4360   5.504   6.570   9.780  0.1950  0.1236  0.1655
  774MOL0     C 4361   5.612   6.624   9.850 -0.2327  0.1711 -0.1537
  774MOL0     C 4362   5.604   6.652   9.986  0.1668 -0.5862  0.1090
  774MOL0     O 4363   5.710   6.713  10.043  0.8443 -0.6746 -0.0862
  774MOL0     C 4364   5.776   6.631  10.140 -0.6441  0.7851 -0.1970
  774MOL0     C 4365   5.867   6.524  10.075  0.3931 -0.3301 -0.5423
  774MOL0     C 4366   5.971   6.570   9.967 -0.0905 -0.8339 -0.7855
  774MOL0     C 4367   6.071   6.454   9.932  0.0690 -0.0141  0.3766
  774MOL0     C 4368   6.188   6.462   9.826 -0.6207 -0.0439  0.3431
  774MOL0     C 4369   6.264   6.589   9.844  0.3472  0.4964  0.2579
  774MOL0     C 4370   6.391   6.606   9.764 -0.3298 -0.4210 -0.5884
  774MOL0     C 4371   6.393   6.629   9.611  1.5139  0.0176 -0.1315
  774MOL0     N 4372   6.313   6.752   9.580  0.1179  0.6762  0.0294
  774MOL0     C 4373   6.174   6.750   9.583 -0.4873  0.0702  0.0360
  774MOL0     C 4374   6.134   6.870   9.529 -0.2152 -0.0687 -0.3757
  774MOL0     C 4375   5.997   6.918   9.479 -0.0996 -0.1101 -0.5770
  774MOL0     C 4376   5.930   7.002   9.588 -0.0655 -0.2576 -0.6534
  774MOL0     C 4377   5.924   6.925   9.721  0.6545 -0.1927  0.0416
  774MOL0     C 4378   5.885   7.025   9.835 -0.0610 -0.7243  0.7393
  774MOL0     O 4379   5.919   6.977   9.962 -0.0497 -0.4531  0.7512
  774MOL0     C 4380   5.869   7.035  10.070 -0.3197  0.7487 -1.0896
  774MOL0     C 4381   5.805   7.163  10.064 -0.6828  0.2987 -0.0469
  774MOL0     C 4382   5.766   7.237  10.180  0.1058 -0.4307  0.7211
  774MOL0     C 4383   5.720   7.378  10.154 -0.0557 -0.0957 -0.4332
  774MOL0     C 4384   5.777   7.174  10.301  0.3495  0.9748 -0.1944
  774MOL0     C 4385   5.712   7.227  10.425 -0.2308 -0.5877 -0.5399
  774MOL0     O 4386   5.773   7.196  10.538  1.3085 -0.2093 -0.1125
  774MOL0     C 4387   5.733   7.249  10.654  0.4685  0.4766 -0.7209
  774MOL0     C 4388   5.612   7.230  10.719  0.2347  0.5022 -0.0101
  774MOL0     C 4389   5.592   7.281  10.848  0.4124  0.4093 -1.3170
  774MOL0     C 4390   5.701   7.362  10.907  0.6861  1.0858 -0.2737
  774MOL0     O 4391   5.677   7.424  11.027  0.1435  0.5951  0.3181
  774MOL0     C 4392   5.723   7.357  11.151 -0.3222  0.3210  0.3483
  774MOL0     C 4393   5.631   7.410  11.260  0.5189 -0.0800 -0.0210
  774MOL0     C 4394   5.485   7.402  11.235  0.7362  0.8697  0.1462
  774MOL0     C 4395   5.409   7.465  11.362  0.0508 -0.3827  0.4925
  774MOL0     C 4396   5.263   7.476  11.317  0.1141 -0.7827 -0.3290
  774MOL0     C 4397   5.177   7.570  11.417  0.2231 -0.3651  0.2459
  774MOL0     C 4398   5.093   7.485  11.520 -0.2117  0.0418  0.2424
  774MOL0     C 4399   5.028   7.560  11.634 -0.3648  0.0783  0.0841
  774MOL0    Cl 4400   4.918   7.456  11.707 -0.2523 -0.3960  0.1803
  774MOL0     C 4401   5.808   7.389  10.830 -0.0816 -0.9102  0.3993
  774MOL0     C 4402   5.827   7.331  10.704 -0.5906 -0.2437 -0.3218
  774MOL0     O 4403   5.610   7.282  10.414 -0.5058 -0.3126 -0.5756
  774MOL0     C 4404   5.836   7.040  10.313  0.1218 -0.7618 -0.6697
  774MOL0     C 4405   5.886   6.973  10.203 -0.6401  0.4148 -0.0423
  774MOL0     N 4406   6.250   6.952   9.540  0.3651  0.4955  1.0882
  774MOL0     N 4407   6.355   6.877   9.560 -0.1938 -0.2679  0.8135
  774MOL0     C 4408   5.483   6.628  10.048 -1.1464  0.8886 -0.1089
  774MOL0     C 4409   5.377   6.557   9.982 -0.5144  0.0351  0.3998
  774MOL0     C 4410   5.070   6.410   9.704 -0.1788 -0.0717  0.8466
  774MOL0     C 4411   5.102   6.333   9.593 -0.4792  0.1493  0.0446
  774MOL0     C 4412   5.005   6.268   9.508  0.3133 -0.5672 -0.2763
  774MOL0     C 4413   4.873   6.266   9.553 -0.0846  0.5458 -0.2879
  774MOL0     O 4414   4.785   6.184   9.476 -0.1498  0.0263 -0.5732
  774MOL0     C 4415   4.654   6.155   9.544  0.1592  0.3255 -0.0481
  774MOL0     C 4416   4.554   6.115   9.430  0.3496 -0.0260  0.2513
  774MOL0     C 4417   4.472   6.240   9.375  0.2503 -0.1557  0.0403
  774MOL0     C 4418   4.340   6.215   9.297 -0.1932 -0.5649  0.6935
  774MOL0     C 4419   4.364   6.115   9.200 -0.3016 -1.1247  0.9253
  774MOL0     C 4420   4.368   6.034   9.115 -0.7698  0.9654  0.6201
  774MOL0     C 4421   4.843   6.346   9.664  0.8023  0.3153  0.0733
  774MOL0     C 4422   4.941   6.409   9.739  0.6830 -1.0150  0.0164
  774MOL0     H 4423   5.503   6.556   9.672 -3.8145  2.4835 -0.3004
  774MOL0     H 4424   5.701   6.660   9.799  0.3153  1.7160  1.7801
  774MOL0     H 4425   5.849   6.688  10.198  1.0565 -1.5064  0.0676
  774MOL0     H 4426   5.706   6.575  10.202  1.3126 -1.0283  0.5202
  774MOL0     H 4427   5.935   6.484  10.152  1.1507  0.6233 -0.7015
  774MOL0     H 4428   5.813   6.443  10.024  0.6090 -2.4259  2.2935
  774MOL0     H 4429   5.925   6.602   9.873  0.7012 -0.6243 -1.0997
  774MOL0     H 4430   6.027   6.657  10.003 -0.9489 -0.6447  0.1526
  774MOL0     H 4431   6.108   6.424  10.030  0.3363 -1.5653 -0.1730
  774MOL0     H 4432   6.007   6.369   9.905  0.2712 -0.6224  1.7469
  774MOL0     H 4433   6.260   6.381   9.839 -1.8935 -1.0580  1.3485
  774MOL0     H 4434   6.148   6.452   9.724  3.9735 -2.0578 -1.5410
  774MOL0     H 4435   6.199   6.675   9.826 -2.0035 -0.6340  2.6840
  774MOL0     H 4436   6.287   6.601   9.950 -1.0611  0.8340  0.5402
  774MOL0     H 4437   6.444   6.687   9.813 -0.7904  0.8247 -2.0755
  774MOL0     H 4438   6.447   6.518   9.800 -1.0558  0.5158  3.3214
  774MOL0     H 4439   6.338   6.544   9.571  1.1762 -0.2921  0.9366
  774MOL0     H 4440   6.497   6.624   9.576  1.5375  1.9909 -0.4234
  774MOL0     H 4441   6.103   6.669   9.597 -2.8204  1.6536 -1.9335
  774MOL0     H 4442   6.014   6.989   9.397 -1.4480  0.2360 -0.5835
  774MOL0     H 4443   5.932   6.838   9.443 -2.8508  0.4110  2.6872
  774MOL0     H 4444   5.825   7.018   9.562 -0.3133 -1.5460 -0.5213
  774MOL0     H 4445   5.987   7.094   9.604 -0.2001 -0.1519 -0.7855
  774MOL0     H 4446   6.022   6.882   9.747  1.6473  1.1746 -1.2631
  774MOL0     H 4447   5.846   6.848   9.720  1.1614 -0.7211  0.0429
  774MOL0     H 4448   5.776   7.025   9.820 -0.0552  3.1805 -0.2632
  774MOL0     H 4449   5.933   7.119   9.808 -2.3625 -0.2796 -2.5029
  774MOL0     H 4450   5.791   7.216   9.970 -2.6574  1.2370  0.7055
  774MOL0     H 4451   5.751   7.427  10.062  3.3742  3.3485  2.2277
  774MOL0     H 4452   5.611   7.383  10.154 -0.1581 -1.7280 -0.3745
  774MOL0     H 4453   5.751   7.430  10.245  1.1917 -0.1249 -0.8256
  774MOL0     H 4454   5.539   7.166  10.671  1.4781 -1.6785  0.8525
  774MOL0     H 4455   5.512   7.261  10.919  2.2686 -3.1012  0.0311
  774MOL0     H 4456   5.702   7.251  11.142 -0.2369  0.3346 -0.0219
  774MOL0     H 4457   5.826   7.376  11.185  0.1449 -1.5641  0.0688
  774MOL0     H 4458   5.653   7.371  11.359  2.5100  1.8553  0.3598
  774MOL0     H 4459   5.639   7.519  11.267  0.1927  0.2702 -3.3690
  774MOL0     H 4460   5.471   7.294  11.245 -0.3730  1.0070  0.1924
  774MOL0     H 4461   5.447   7.434  11.137 -2.8872 -1.4552  0.5740
  774MOL0     H 4462   5.420   7.399  11.449  2.0757 -0.3647  0.2879
  774MOL0     H 4463   5.441   7.567  11.383 -2.6293  0.2327  2.1476
  774MOL0     H 4464   5.222   7.375  11.319  0.2967 -0.8731  2.4840
  774MOL0     H 4465   5.251   7.511  11.214 -2.4116 -0.3845  0.0388
  774MOL0     H 4466   5.239   7.641  11.472 -0.7512  1.4421 -0.8787
  774MOL0     H 4467   5.113   7.638  11.360  4.1127  2.4566 -1.1443
  774MOL0     H 4468   5.159   7.411  11.566 -0.3099  0.0291  0.3639
  774MOL0     H 4469   5.019   7.433  11.460  0.9049 -1.6791  0.2873
  774MOL0     H 4470   4.974   7.646  11.592 -0.7843 -0.6134 -0.8144
  774MOL0     H 4471   5.101   7.603  11.703 -0.7630 -0.9949  1.1997
  774MOL0     H 4472   5.876   7.448  10.891  2.2020 -1.9698 -0.9771
  774MOL0     H 4473   5.917   7.355  10.648  0.5045 -2.1883  0.4919
  774MOL0     H 4474   5.827   7.001  10.414  3.3036 -0.0655  0.0127
  774MOL0     H 4475   5.921   6.872  10.220 -1.8531 -0.0182 -0.0187
  774MOL0     H 4476   5.466   6.633  10.155 -0.3071  1.0498  0.0207
  774MOL0     H 4477   5.279   6.542  10.025 -1.7485  0.7174 -1.9847
  774MOL0     H 4478   5.204   6.346   9.559  0.1330 -0.6106  1.5395
  774MOL0     H 4479   5.020   6.212   9.416 -0.5181  0.5373 -1.1153
  774MOL0     H 4480   4.668   6.061   9.598  0.9615  0.2085 -0.4401
  774MOL0     H 4481   4.620   6.241   9.602  4.3630  2.6358 -0.5735
  774MOL0     H 4482   4.481   6.049   9.477  1.2527 -0.9328  0.4114
  774MOL0     H 4483   4.609   6.063   9.351 -0.0155  1.8108 -1.2811
  774MOL0     H 4484   4.553   6.292   9.323 -0.6398  2.0725  0.7424
  774MOL0     H 4485   4.439   6.296   9.463  1.9839  0.9804  0.0144
  774MOL0     H 4486   4.294   6.302   9.249 -0.8764 -0.6885  1.1027
  774MOL0     H 4487   4.268   6.170   9.367 -1.3373 -0.8528 -0.6197
  774MOL0     H 4488   4.366   5.963   9.036  0.8500  2.0489 -0.4645
  774MOL0     H 4489   4.738   6.356   9.691  0.3943 -0.1080 -1.2822
  774MOL0     H 4490   4.907   6.464   9.826  0.6411  0.5412 -0.9483
  775MOL0     O 4491   7.343   5.448   7.185  0.8112 -0.4770 -0.4468
  775MOL0     C 4492   7.434   5.404   7.109  0.4230  0.1318 -0.5748
  775MOL0     O 4493   7.550   5.471   7.089  0.2450  0.0971 -0.0017
  775MOL0     C 4494   7.579   5.576   7.175  0.0524  0.7473  0.9926
  775MOL0     C 4495   7.703   5.576   7.243  0.6169 -0.0778  0.6742
  775MOL0     C 4496   7.728   5.701   7.307  0.6743 -0.4158  0.4057
  775MOL0     C 4497   7.639   5.807   7.304  0.0141 -1.0133  0.2547
  775MOL0     O 4498   7.652   5.924   7.377  0.3608  0.2016 -0.3370
  775MOL0     C 4499   7.728   5.921   7.502 -0.3719 -0.6994  0.3937
  775MOL0     C 4500   7.662   6.042   7.578 -0.5038  0.1953  0.5618
  775MOL0     C 4501   7.695   6.181   7.521  0.4522  0.1566 -0.5260
  775MOL0     C 4502   7.652   6.282   7.627  0.5066 -0.0073  0.2143
  775MOL0     C 4503   7.692   6.422   7.590 -0.8363 -1.1889  0.0893
  775MOL0     C 4504   7.680   6.511   7.712  0.3690  0.0083  0.2323
  775MOL0     C 4505   7.716   6.654   7.689  0.6203 -0.3590  0.4896
  775MOL0     C 4506   7.729   6.714   7.829 -1.3155 -0.1107 -0.6368
  775MOL0     N 4507   7.606   6.748   7.892  0.0426  0.4839  0.8664
  775MOL0     C 4508   7.578   6.739   8.023 -0.1886 -0.5936  0.0849
  775MOL0     C 4509   7.453   6.793   8.035  0.0958  0.2900 -0.1943
  775MOL0     C 4510   7.352   6.770   8.150  0.0061 -0.4999 -0.2453
  775MOL0     C 4511   7.305   6.625   8.168 -1.1676  0.0341 -0.2103
  775MOL0     C 4512   7.178   6.592   8.103  0.2273  0.5382  0.2262
  775MOL0     C 4513   7.163   6.443   8.070 -0.3809  1.2333 -0.2027
  775MOL0     O 4514   7.265   6.407   7.970 -0.2843 -0.0229  0.3576
  775MOL0     C 4515   7.232   6.285   7.898 -0.2571 -1.7099 -0.0201
  775MOL0     C 4516   7.146   6.183   7.943  0.1145  0.6497 -0.5524
  775MOL0     C 4517   7.124   6.065   7.875  0.4747  0.1650  0.0433
  775MOL0     C 4518   7.029   5.966   7.928 -0.7204  0.3607 -0.2066
  775MOL0     C 4519   7.188   6.044   7.743  0.5266 -0.0720  0.1944
  775MOL0     C 4520   7.165   5.921   7.653  0.3855 -1.2162  0.0999
  775MOL0     O 4521   7.148   5.798   7.713  0.4545 -0.2507  0.7154
  775MOL0     C 4522   7.127   5.685   7.646 -1.1649 -0.6840 -0.5042
  775MOL0     C 4523   7.060   5.583   7.718  0.9516 -0.1740  0.9476
  775MOL0     C 4524   7.027   5.462   7.650  0.2144 -0.5127  0.1982
  775MOL0     C 4525   7.069   5.439   7.522 -0.1301  0.4123  0.1364
  775MOL0     O 4526   7.053   5.309   7.471 -0.7035  0.2434  0.1210
  775MOL0     C 4527   7.166   5.237   7.437 -0.2812  0.0032  0.6739
  775MOL0     C 4528   7.159   5.090   7.495 -0.2059 -0.0502 -0.2964
  775MOL0     C 4529   7.255   4.998   7.422  0.4106 -0.5174 -0.1343
  775MOL0     C 4530   7.178   4.920   7.312  0.1311 -1.2265 -0.6018
  775MOL0     C 4531   7.268   4.816   7.237 -0.2867  0.3245  0.7467
  775MOL0     C 4532   7.207   4.684   7.211  1.0301 -0.4685 -0.7927
  775MOL0     C 4533   7.104   4.691   7.095  0.0366  0.8048  0.1691
  775MOL0     C 4534   7.166   4.646   6.966 -0.0176 -0.1962 -0.5087
  775MOL0    Cl 4535   7.059   4.687   6.825  0.2051 -0.1242  0.3376
  775MOL0     C 4536   7.142   5.536   7.453  0.3225  0.1232  0.0467
  775MOL0     C 4537   7.172   5.653   7.517  0.0599 -0.4512 -0.6252
  775MOL0     O 4538   7.152   5.947   7.531  0.3050 -0.2571 -0.2167
  775MOL0     C 4539   7.270   6.144   7.690 -0.5421 -0.2344  0.2974
  775MOL0     C 4540   7.282   6.259   7.773 -0.0644  0.2777  1.1036
  775MOL0     N 4541   7.419   6.849   7.917  0.4191  0.2931 -0.0288
  775MOL0     N 4542   7.505   6.826   7.831 -0.6585  0.0190  0.0142
  775MOL0     C 4543   7.519   5.797   7.245 -1.4951 -0.3919 -1.0833
  775MOL0     C 4544   7.494   5.688   7.167  0.6221 -0.6195 -0.9140
  775MOL0     C 4545   7.405   5.285   7.030 -0.5488 -0.8375  0.2861
  775MOL0     C 4546   7.286   5.223   7.035  0.4286  0.0733  0.5582
  775MOL0     C 4547   7.262   5.106   6.963  0.1925  0.9121 -0.6030
  775MOL0     C 4548   7.366   5.046   6.882  0.3872  0.6951  0.4327
  775MOL0     O 4549   7.341   4.934   6.801 -0.1750 -0.2540 -0.7895
  775MOL0     C 4550   7.448   4.886   6.719  0.6676  0.6192 -0.7169
  775MOL0     C 4551   7.401   4.755   6.655  0.5300  0.2985  0.7392
  775MOL0     C 4552   7.506   4.666   6.586 -1.1203 -0.2642 -0.4871
  775MOL0     C 4553   7.544   4.556   6.683  1.5426  0.1376  0.0530
  775MOL0     C 4554   7.439   4.455   6.714 -1.5606  0.3006  0.6766
  775MOL0     C 4555   7.354   4.372   6.729 -0.2864 -0.2837  0.0194
  775MOL0     C 4556   7.485   5.121   6.874 -0.2940  0.1712 -0.0958
  775MOL0     C 4557   7.502   5.243   6.943  0.2962 -0.5468 -0.1276
  775MOL0     H 4558   7.757   5.483   7.255 -0.1911 -0.3844  2.1976
  775MOL0     H 4559   7.830   5.711   7.342  0.7050  1.6229 -0.1168
  775MOL0     H 4560   7.712   5.827   7.556  0.7752  0.0849  2.1882
  775MOL0     H 4561   7.836   5.934   7.491 -0.3134 -2.3398 -1.5415
  775MOL0     H 4562   7.553   6.037   7.584 -0.5400  1.5036  1.2176
  775MOL0     H 4563   7.704   6.033   7.679  0.2460 -0.6606  0.1996
  775MOL0     H 4564   7.802   6.203   7.516  0.0755  1.7991 -3.6754
  775MOL0     H 4565   7.637   6.206   7.432 -0.2038 -0.5680 -0.3173
  775MOL0     H 4566   7.544   6.299   7.638  0.5285  0.7983 -0.7343
  775MOL0     H 4567   7.687   6.248   7.725  0.9414 -3.9184 -1.1326
  775MOL0     H 4568   7.794   6.419   7.551 -0.3425 -0.2637  1.2099
  775MOL0     H 4569   7.620   6.457   7.515 -0.8722 -2.0826 -0.2952
  775MOL0     H 4570   7.582   6.493   7.757  0.6794 -2.7308 -0.0028
  775MOL0     H 4571   7.756   6.485   7.785  3.8668  2.1587 -2.3121
  775MOL0     H 4572   7.805   6.666   7.626 -2.5880  0.2798 -4.5264
  775MOL0     H 4573   7.633   6.695   7.631  1.9968  1.5042 -0.2799
  775MOL0     H 4574   7.792   6.802   7.810  1.2098 -1.8986 -1.0467
  775MOL0     H 4575   7.795   6.665   7.902  0.9278  1.6206 -1.3737
  775MOL0     H 4576   7.634   6.673   8.089 -1.1228  0.8026  2.4001
  775MOL0     H 4577   7.396   6.813   8.241 -2.0368  0.8616  0.1771
  775MOL0     H 4578   7.262   6.830   8.134  0.6455  1.4825  2.8049
  775MOL0     H 4579   7.307   6.616   8.277  0.8154  2.8240  0.0817
  775MOL0     H 4580   7.377   6.548   8.139 -3.1373 -2.9388  2.1045
  775MOL0     H 4581   7.159   6.652   8.014 -0.5583  0.4207  0.3042
  775MOL0     H 4582   7.099   6.624   8.172  1.8015  2.7281  1.1431
  775MOL0     H 4583   7.060   6.427   8.037 -2.6011  6.0389  3.2471
  775MOL0     H 4584   7.180   6.382   8.159  2.8759  0.2728 -1.3149
  775MOL0     H 4585   7.107   6.183   8.045 -4.0917 -3.5516 -1.7661
  775MOL0     H 4586   7.076   5.873   7.960 -0.9488 -1.1100 -3.6548
  775MOL0     H 4587   6.968   6.011   8.006 -3.1494 -0.0588 -1.7565
  775MOL0     H 4588   6.962   5.931   7.849 -2.5606  0.0671  1.4161
  775MOL0     H 4589   7.030   5.603   7.821  1.3756  0.8895  0.8774
  775MOL0     H 4590   6.987   5.378   7.707  2.3287 -1.0784  0.9491
  775MOL0     H 4591   7.163   5.222   7.329  0.6088  2.4302  0.2681
  775MOL0     H 4592   7.263   5.280   7.461  1.5241 -2.8197 -1.0189
  775MOL0     H 4593   7.184   5.097   7.601  3.7550  3.7138 -1.1493
  775MOL0     H 4594   7.056   5.053   7.489 -0.7052  1.4300 -1.7257
  775MOL0     H 4595   7.309   4.936   7.494  3.3745 -0.5420 -2.1906
  775MOL0     H 4596   7.339   5.045   7.370 -1.6032  0.1593 -2.9897
  775MOL0     H 4597   7.087   4.874   7.353 -3.3339  3.6220 -1.8743
  775MOL0     H 4598   7.140   4.987   7.234  1.6645 -0.0218 -0.3477
  775MOL0     H 4599   7.358   4.807   7.298  0.2073  1.4204  0.2106
  775MOL0     H 4600   7.305   4.854   7.141  3.3119 -0.8568  1.5223
  775MOL0     H 4601   7.282   4.613   7.177  3.6510  0.3449  2.7073
  775MOL0     H 4602   7.163   4.635   7.299  0.8889  1.3832  0.2293
  775MOL0     H 4603   7.066   4.792   7.082 -2.0979 -0.2676 -3.1155
  775MOL0     H 4604   7.025   4.617   7.109  0.3675  0.5433  0.7316
  775MOL0     H 4605   7.167   4.537   6.970 -0.3480 -0.1738  0.4015
  775MOL0     H 4606   7.269   4.681   6.953  0.6052 -1.9037 -0.4795
  775MOL0     H 4607   7.175   5.512   7.353  0.5121 -2.4136  0.6467
  775MOL0     H 4608   7.220   5.737   7.469 -1.4248  3.0855  3.4377
  775MOL0     H 4609   7.338   6.144   7.605  0.5839 -2.1694  1.1034
  775MOL0     H 4610   7.339   6.345   7.741 -0.7219  1.3638  2.7132
  775MOL0     H 4611   7.446   5.876   7.228 -2.1209 -1.0531 -1.5256
  775MOL0     H 4612   7.411   5.682   7.097  0.1491  1.4938 -0.5988
  775MOL0     H 4613   7.202   5.251   7.098 -0.7738 -1.7653 -0.1278
  775MOL0     H 4614   7.165   5.060   6.956 -0.0124  1.3432 -0.6224
  775MOL0     H 4615   7.473   4.957   6.639 -1.7408  2.0836 -0.2675
  775MOL0     H 4616   7.534   4.862   6.782 -1.3814 -0.4575  1.8579
  775MOL0     H 4617   7.328   4.786   6.580 -0.7726  1.7189  2.4938
  775MOL0     H 4618   7.341   4.695   6.723  1.0006  0.0712  0.9629
  775MOL0     H 4619   7.592   4.729   6.561  0.1788 -1.4287  0.7908
  775MOL0     H 4620   7.481   4.627   6.487 -0.8424  2.4756 -1.7211
  775MOL0     H 4621   7.573   4.591   6.783 -0.5409 -3.3727  2.0876
  775MOL0     H 4622   7.631   4.502   6.645  0.3837 -2.8670  1.3880
  775MOL0     H 4623   7.261   4.318   6.723 -0.0214 -0.6546 -0.9954
  775MOL0     H 4624   7.563   5.086   6.807 -0.3156 -0.4438  0.2021
  775MOL0     H 4625   7.582   5.304   6.902 -0.7659  0.0210 -1.4638
  776MOL0     O 4626   5.358   7.385   4.461  0.2088 -0.3637  0.5062
  776MOL0     C 4627   5.269   7.308   4.415  0.8199 -0.1579  0.5916
  776MOL0     O 4628   5.129   7.316   4.439  0.4042 -0.6520 -0.3992
  776MOL0     C 4629   5.096   7.418   4.524  0.3808  0.2679  0.9126
  776MOL0     C 4630   5.124   7.413   4.662 -1.4499 -0.1883 -0.4152
  776MOL0     C 4631   5.083   7.523   4.743  0.4413  0.8626  0.3603
  776MOL0     C 4632   5.005   7.633   4.700  0.6375  0.8830 -0.7899
  776MOL0     O 4633   4.972   7.746   4.773  0.3387 -0.4000 -0.6050
  776MOL0     C 4634   4.939   7.733   4.912  0.6642 -0.1069 -0.3676
  776MOL0     C 4635   4.905   7.868   4.973 -0.0553  0.4712 -1.2230
  776MOL0     C 4636   4.982   7.894   5.107  1.0468 -0.2287  0.0812
  776MOL0     C 4637   4.949   8.024   5.179  0.8768 -0.4520 -0.7306
  776MOL0     C 4638   4.798   8.035   5.242 -0.3408  0.2203 -0.0188
  776MOL0     C 4639   4.757   7.900   5.314  0.5003  0.3507  0.4632
  776MOL0     C 4640   4.626   7.889   5.385  1.0252 -0.0716 -0.0769
  776MOL0     C 4641   4.611   7.951   5.527  0.5308  0.2823  0.2804
  776MOL0     N 4642   4.671   7.864   5.627 -0.1506  0.2901 -0.2328
  776MOL0     C 4643   4.673   7.719   5.635 -0.3523 -0.1195  0.3781
  776MOL0     C 4644   4.795   7.704   5.687 -0.1678  0.5301 -0.3462
  776MOL0     C 4645   4.871   7.576   5.714 -0.0165 -0.3606 -0.1277
  776MOL0     C 4646   4.969   7.531   5.610 -0.1118 -0.0075 -0.1927
  776MOL0     C 4647   5.101   7.468   5.674  0.3922  0.4513  0.7640
  776MOL0     C 4648   5.064   7.322   5.716 -0.0546  0.4948  0.4696
  776MOL0     O 4649   4.989   7.321   5.842 -0.0947  1.0314  0.0688
  776MOL0     C 4650   4.946   7.198   5.888 -0.0743 -0.2354  0.0559
  776MOL0     C 4651   4.831   7.199   5.972 -0.8006 -0.0554 -0.5179
  776MOL0     C 4652   4.779   7.088   6.027 -0.3911 -0.2873  0.2838
  776MOL0     C 4653   4.649   7.109   6.104 -0.3389  0.6508  0.3761
  776MOL0     C 4654   4.847   6.968   6.006  0.5845  0.4122 -0.6897
  776MOL0     C 4655   4.799   6.842   6.066 -0.0706 -0.0533  0.2260
  776MOL0     O 4656   4.774   6.746   5.972  0.2977  0.0342  0.2492
  776MOL0     C 4657   4.799   6.614   5.991 -0.3128  0.8514  0.1946
  776MOL0     C 4658   4.756   6.524   5.894  0.2067 -0.9448  0.4494
  776MOL0     C 4659   4.793   6.393   5.896  0.7638 -0.1559 -0.9565
  776MOL0     C 4660   4.864   6.332   5.997  0.3032  0.8066  0.6110
  776MOL0     O 4661   4.894   6.195   5.984 -0.8790  0.0357 -0.1428
  776MOL0     C 4662   5.032   6.148   6.007  0.2549  0.8143  0.7482
  776MOL0     C 4663   5.035   5.990   5.977  0.1510 -0.0573  0.0093
  776MOL0     C 4664   5.188   5.952   5.955  0.4210 -0.1972 -0.2664
  776MOL0     C 4665   5.208   5.806   5.925 -0.4179  0.7868  0.3976
  776MOL0     C 4666   5.360   5.768   5.921  0.1700  0.8505 -0.0888
  776MOL0     C 4667   5.374   5.614   5.918 -0.7785 -0.0002 -0.3267
  776MOL0     C 4668   5.499   5.559   5.854 -0.1960 -0.0139  0.4590
  776MOL0     C 4669   5.560   5.440   5.939  0.6677 -0.3785 -0.2465
  776MOL0    Cl 4670   5.655   5.517   6.065  0.2222 -0.0112 -0.3206
  776MOL0     C 4671   4.904   6.426   6.100  0.9513  1.3928  0.0444
  776MOL0     C 4672   4.870   6.561   6.100  0.3889 -0.3412  0.2308
  776MOL0     O 4673   4.781   6.833   6.188  0.2566  0.2226 -0.0276
  776MOL0     C 4674   4.951   6.962   5.910  0.5158  0.0769  0.3251
  776MOL0     C 4675   5.001   7.074   5.850  0.7675 -0.2740  0.0257
  776MOL0     N 4676   4.851   7.826   5.726 -0.0725 -1.0526 -0.9966
  776MOL0     N 4677   4.771   7.923   5.704 -0.0846  0.2912  0.9122
  776MOL0     C 4678   4.966   7.633   4.565 -0.0034  0.3822  0.7342
  776MOL0     C 4679   5.010   7.525   4.474  0.2146  0.1657 -1.1421
  776MOL0     C 4680   5.334   7.190   4.342  0.5374 -0.7433 -0.0317
  776MOL0     C 4681   5.294   7.060   4.366 -0.0356  0.0539 -0.1219
  776MOL0     C 4682   5.354   6.955   4.286  0.6671 -0.4269  0.5119
  776MOL0     C 4683   5.438   6.983   4.176 -0.4829  0.2614 -0.1580
  776MOL0     O 4684   5.476   6.878   4.096 -0.0057  0.0103  0.2962
  776MOL0     C 4685   5.546   6.910   3.970 -0.6010 -0.9007  0.7513
  776MOL0     C 4686   5.457   6.972   3.858  0.6784 -0.5071 -0.0811
  776MOL0     C 4687   5.529   7.023   3.733 -0.7071 -0.0781  0.0364
  776MOL0     C 4688   5.566   6.926   3.623 -0.2323  1.1010  0.1224
  776MOL0     C 4689   5.685   6.844   3.637 -0.3389 -0.3225 -1.1495
  776MOL0     C 4690   5.784   6.778   3.670  0.2707  0.1234 -0.2550
  776MOL0     C 4691   5.477   7.117   4.159 -0.1359 -1.2680 -0.4728
  776MOL0     C 4692   5.422   7.218   4.240 -0.1101 -0.0558  0.3918
  776MOL0     H 4693   5.188   7.334   4.701  0.6943 -1.2676 -5.3096
  776MOL0     H 4694   5.138   7.523   4.837  0.0782 -1.5286  0.6280
  776MOL0     H 4695   4.855   7.666   4.931  1.1985 -0.4861  0.7412
  776MOL0     H 4696   5.026   7.695   4.967 -0.2736 -0.2240  1.0759
  776MOL0     H 4697   4.939   7.953   4.913  2.3901 -0.3515 -1.1132
  776MOL0     H 4698   4.797   7.866   4.994  0.0735 -1.0840 -0.5624
  776MOL0     H 4699   4.975   7.804   5.167 -0.3472  1.2166  2.2161
  776MOL0     H 4700   5.089   7.901   5.085  0.5997 -2.6092 -3.9459
  776MOL0     H 4701   5.023   8.022   5.259  1.8652  2.2213 -1.4552
  776MOL0     H 4702   4.967   8.107   5.110  3.2646  1.8064  2.3231
  776MOL0     H 4703   4.780   8.120   5.307 -1.0104 -0.3730  0.5833
  776MOL0     H 4704   4.728   8.052   5.160 -1.4849  1.7416  1.2308
  776MOL0     H 4705   4.764   7.830   5.231 -3.8812  0.3031 -0.0969
  776MOL0     H 4706   4.830   7.875   5.391  3.0630 -0.0021 -1.9122
  776MOL0     H 4707   4.573   7.962   5.323  1.0487 -1.4592 -1.8224
  776MOL0     H 4708   4.568   7.799   5.362  2.1021 -0.9775  0.6245
  776MOL0     H 4709   4.503   7.956   5.546  0.5277  0.9050  0.1355
  776MOL0     H 4710   4.656   8.051   5.524 -1.6893  1.3685  1.0766
  776MOL0     H 4711   4.618   7.644   5.579  0.9802  0.5648 -2.0275
  776MOL0     H 4712   4.929   7.587   5.806 -0.8636 -0.0413  0.3844
  776MOL0     H 4713   4.788   7.505   5.726 -0.9253  0.6066 -0.5517
  776MOL0     H 4714   5.023   7.614   5.562 -1.4291  0.2269 -1.3288
  776MOL0     H 4715   4.932   7.467   5.529  0.5741  0.2737 -0.7384
  776MOL0     H 4716   5.134   7.523   5.762  0.2518 -1.9260  2.3984
  776MOL0     H 4717   5.179   7.466   5.597  1.9890 -2.7957  2.2734
  776MOL0     H 4718   5.160   7.271   5.731  2.2691  4.5173  0.8406
  776MOL0     H 4719   5.004   7.269   5.642  1.8955 -2.4765  0.8637
  776MOL0     H 4720   4.797   7.301   5.986  1.8449  0.9257 -0.6379
  776MOL0     H 4721   4.597   7.183   6.043  1.4017  2.2013  0.6715
  776MOL0     H 4722   4.592   7.016   6.116  1.9172 -0.8999 -0.1822
  776MOL0     H 4723   4.669   7.153   6.202  3.7263  0.5513 -0.2182
  776MOL0     H 4724   4.708   6.555   5.802 -3.4229  2.2932  3.1145
  776MOL0     H 4725   4.742   6.331   5.823 -1.0406 -0.3475  0.3980
  776MOL0     H 4726   5.109   6.207   5.956  2.6203 -4.5964 -2.9333
  776MOL0     H 4727   5.051   6.154   6.114  1.9766 -1.0784  0.6140
  776MOL0     H 4728   4.992   5.945   6.067  1.6448 -0.8559  0.3605
  776MOL0     H 4729   4.965   5.961   5.899 -0.6713  1.0806  0.3027
  776MOL0     H 4730   5.242   5.973   6.048  2.4741 -1.7196 -1.0276
  776MOL0     H 4731   5.228   6.016   5.876  1.4962 -2.2485 -1.4855
  776MOL0     H 4732   5.149   5.749   5.997 -1.8574  0.1084 -1.2513
  776MOL0     H 4733   5.182   5.772   5.824  0.5194  0.1214  0.3635
  776MOL0     H 4734   5.413   5.794   6.013 -0.3640 -0.6852  0.6778
  776MOL0     H 4735   5.395   5.826   5.835  1.5006  1.2798  0.7131
  776MOL0     H 4736   5.383   5.578   6.021 -1.6878  1.5047  0.3033
  776MOL0     H 4737   5.289   5.558   5.878 -1.7348  0.6093  0.7956
  776MOL0     H 4738   5.568   5.644   5.846  0.0428  0.0775  2.8582
  776MOL0     H 4739   5.470   5.527   5.753  0.9321 -2.0889  0.7305
  776MOL0     H 4740   5.630   5.382   5.879  1.6522 -0.5048  0.9994
  776MOL0     H 4741   5.485   5.369   5.976  0.8535 -0.8062 -0.6912
  776MOL0     H 4742   4.948   6.385   6.191 -1.9311 -2.7512 -0.1366
  776MOL0     H 4743   4.884   6.622   6.189 -4.4762  2.9909 -0.9105
  776MOL0     H 4744   4.987   6.862   5.890  2.4925  0.7335  0.4693
  776MOL0     H 4745   5.084   7.066   5.781 -0.5940  1.0401 -1.8573
  776MOL0     H 4746   4.894   7.701   4.522 -0.8667 -0.3036  1.0770
  776MOL0     H 4747   4.977   7.540   4.372 -0.4093  1.4351 -0.7717
  776MOL0     H 4748   5.215   7.033   4.435 -2.1795  2.8404 -1.3112
  776MOL0     H 4749   5.334   6.851   4.306 -0.9235 -0.2809 -0.1905
  776MOL0     H 4750   5.630   6.973   4.000  0.5924 -3.3927  3.0037
  776MOL0     H 4751   5.595   6.824   3.924  1.6346  1.2972 -1.2628
  776MOL0     H 4752   5.404   7.058   3.900  1.6057  0.9578 -1.7503
  776MOL0     H 4753   5.386   6.891   3.838  0.8021 -0.8837  0.9974
  776MOL0     H 4754   5.625   7.058   3.772  0.0980 -1.2282 -0.8505
  776MOL0     H 4755   5.465   7.099   3.687 -0.4347  0.5391  0.6673
  776MOL0     H 4756   5.557   6.979   3.528 -0.8854 -0.3363 -0.6612
  776MOL0     H 4757   5.488   6.849   3.616 -0.4856  1.4911 -2.7340
  776MOL0     H 4758   5.868   6.723   3.707 -0.1859  0.3724  1.1938
  776MOL0     H 4759   5.544   7.153   4.082  0.4534  1.0394  1.0356
  776MOL0     H 4760   5.453   7.319   4.214  2.5361 -0.2250  2.3933
  777MOL0     O 4761  10.915   8.399   6.137 -0.1586 -0.1758  0.1285
  777MOL0     C 4762  10.989   8.337   6.064 -0.3713  0.1759 -0.2519
  777MOL0     O 4763  11.108   8.286   6.106 -0.7338  0.4836  1.0260
  777MOL0     C 4764  11.168   8.305   6.229 -0.1547 -0.4752 -0.0908
  777MOL0     C 4765  11.099   8.301   6.346  0.4362 -0.1603 -0.4411
  777MOL0     C 4766  11.168   8.296   6.467 -0.2649  0.4256 -0.1857
  777MOL0     C 4767  11.308   8.303   6.475  0.0487 -0.2089  0.7792
  777MOL0     O 4768  11.359   8.328   6.593  0.1110 -0.5299 -0.1382
  777MOL0     C 4769  11.371   8.466   6.629  0.0661  0.9021  0.6093
  777MOL0     C 4770  11.468   8.479   6.743  0.1447 -0.0427 -0.2371
  777MOL0     C 4771  11.410   8.423   6.869  1.2597 -0.0518  0.3147
  777MOL0     C 4772  11.500   8.464   6.980 -0.6294 -0.5243 -1.2548
  777MOL0     C 4773  11.456   8.416   7.125 -0.0144 -0.4078  0.2063
  777MOL0     C 4774  11.554   8.478   7.232 -0.0242 -0.6645  0.6335
  777MOL0     C 4775  11.510   8.432   7.367  0.4383 -0.3779 -0.4102
  777MOL0     C 4776  11.606   8.486   7.479  0.1658  0.4006 -0.7664
  777MOL0     N 4777  11.559   8.423   7.609  0.2143  0.2841  0.2903
  777MOL0     C 4778  11.479   8.488   7.701 -0.8766 -0.5399  0.0943
  777MOL0     C 4779  11.469   8.396   7.805 -0.0372  0.2302 -0.7547
  777MOL0     C 4780  11.381   8.423   7.928 -0.1078  0.0319 -0.1599
  777MOL0     C 4781  11.430   8.363   8.064  0.6703 -0.2923 -0.6908
  777MOL0     C 4782  11.326   8.406   8.169 -0.1510 -0.2042 -0.0571
  777MOL0     C 4783  11.361   8.354   8.312  0.4846  0.0374  0.3496
  777MOL0     O 4784  11.468   8.421   8.376 -0.2585 -0.5800  0.0654
  777MOL0     C 4785  11.442   8.484   8.490  0.1696  0.4422  0.0573
  777MOL0     C 4786  11.490   8.441   8.613  0.2773  0.2772 -0.1404
  777MOL0     C 4787  11.475   8.511   8.734  0.4003 -0.4286  0.1220
  777MOL0     C 4788  11.544   8.450   8.857  0.4159  0.7668  0.5311
  777MOL0     C 4789  11.399   8.631   8.733 -0.3087  0.3499 -0.0597
  777MOL0     C 4790  11.365   8.719   8.848 -1.0184  0.2446  0.0495
  777MOL0     O 4791  11.451   8.721   8.956 -0.4182 -0.3470 -0.1473
  777MOL0     C 4792  11.414   8.762   9.081 -0.2483 -0.5060  0.2013
  777MOL0     C 4793  11.354   8.664   9.156  0.4763  0.0064 -0.0836
  777MOL0     C 4794  11.322   8.700   9.288 -0.0034  0.3378  0.1922
  777MOL0     C 4795  11.327   8.835   9.332 -0.8677  0.4195 -0.5044
  777MOL0     O 4796  11.307   8.872   9.464  0.5499  0.4808  0.4815
  777MOL0     C 4797  11.321   8.771   9.560  0.6857 -0.5300  0.2443
  777MOL0     C 4798  11.187   8.707   9.600 -0.1556 -0.5363 -0.4507
  777MOL0     C 4799  11.077   8.820   9.608 -0.6114  0.1957  0.2628
  777MOL0     C 4800  10.949   8.773   9.688 -0.3413  0.2237  0.3698
  777MOL0     C 4801  10.841   8.893   9.701 -0.4602  0.3479 -0.2930
  777MOL0     C 4802  10.716   8.848   9.770  0.1650 -0.0881 -0.1817
  777MOL0     C 4803  10.628   8.969   9.797  0.1321  1.0570  0.4833
  777MOL0     C 4804  10.552   9.006   9.668 -0.8771  0.3849  0.2946
  777MOL0    Cl 4805  10.449   8.866   9.612 -0.3942  0.2369  0.0853
  777MOL0     C 4806  11.376   8.933   9.241  0.8578  0.0180 -0.0562
  777MOL0     C 4807  11.406   8.896   9.111 -0.3894 -0.4262  0.5718
  777MOL0     O 4808  11.270   8.794   8.842  0.1347 -0.2596 -0.7604
  777MOL0     C 4809  11.356   8.676   8.612 -0.6835 -0.3399  0.0972
  777MOL0     C 4810  11.375   8.605   8.495  0.4608  0.2701  1.0310
  777MOL0     N 4811  11.548   8.285   7.776  0.5919  0.3318  0.6734
  777MOL0     N 4812  11.599   8.294   7.659 -0.0960 -0.9770  0.2490
  777MOL0     C 4813  11.381   8.294   6.355 -0.0290 -0.2533  0.1744
  777MOL0     C 4814  11.307   8.294   6.231 -0.0949  0.7257  0.1308
  777MOL0     C 4815  10.968   8.349   5.923  0.3446 -0.4914 -0.3920
  777MOL0     C 4816  10.866   8.433   5.865 -0.2710 -0.1678 -0.3054
  777MOL0     C 4817  10.859   8.430   5.722  0.5851  0.6099  0.3628
  777MOL0     C 4818  10.944   8.358   5.638 -0.4613  0.1260 -0.0802
  777MOL0     O 4819  10.920   8.385   5.508 -0.0979 -0.0992 -0.8265
  777MOL0     C 4820  10.975   8.290   5.418  0.5074  0.6783 -0.1775
  777MOL0     C 4821  10.883   8.292   5.294 -0.6144 -0.1299  0.4792
  777MOL0     C 4822  10.737   8.261   5.334  0.1512 -0.3909  0.1125
  777MOL0     C 4823  10.734   8.122   5.413 -0.4633  0.1250  0.2281
  777MOL0     C 4824  10.754   8.001   5.331 -0.4633  0.2145 -0.0810
  777MOL0     C 4825  10.762   7.916   5.251  0.4395  0.2898  0.2849
  777MOL0     C 4826  11.047   8.287   5.699 -0.8556 -0.7012  0.8429
  777MOL0     C 4827  11.051   8.278   5.838 -0.1819 -0.0579  0.3504
  777MOL0     H 4828  10.993   8.319   6.358  0.6856  2.1932 -1.2169
  777MOL0     H 4829  11.123   8.297   6.566  2.1668 -4.8115  1.3100
  777MOL0     H 4830  11.403   8.523   6.541  0.1090 -2.1394 -1.5094
  777MOL0     H 4831  11.275   8.508   6.661  0.4145  1.2255  1.2237
  777MOL0     H 4832  11.560   8.424   6.721  1.4178  1.6388  0.6255
  777MOL0     H 4833  11.482   8.585   6.768 -0.6620  0.8545 -3.1497
  777MOL0     H 4834  11.312   8.467   6.889  1.5521 -0.4895  3.1543
  777MOL0     H 4835  11.404   8.314   6.854 -1.4513 -0.4319  3.0064
  777MOL0     H 4836  11.601   8.429   6.956 -1.1676 -3.1498 -0.0424
  777MOL0     H 4837  11.513   8.572   6.984  1.9576 -0.7813 -1.1146
  777MOL0     H 4838  11.352   8.446   7.135 -0.0541 -0.4768  0.0015
  777MOL0     H 4839  11.473   8.308   7.135  1.3930 -0.3240 -0.9586
  777MOL0     H 4840  11.658   8.448   7.214 -0.1747 -0.7976 -0.0674
  777MOL0     H 4841  11.545   8.587   7.231  3.1815 -0.2927  0.6066
  777MOL0     H 4842  11.408   8.462   7.396  1.1840  1.2206  0.7034
  777MOL0     H 4843  11.515   8.323   7.370 -0.1839 -0.5423 -2.9598
  777MOL0     H 4844  11.598   8.595   7.473 -0.7652  0.3201 -1.1690
  777MOL0     H 4845  11.703   8.442   7.454 -0.7798 -2.3192  0.0689
  777MOL0     H 4846  11.435   8.587   7.699  3.0120  1.4310  1.5008
  777MOL0     H 4847  11.373   8.531   7.944 -0.4176  0.4051 -2.5549
  777MOL0     H 4848  11.280   8.385   7.911 -0.1085 -0.3345  0.5849
  777MOL0     H 4849  11.529   8.398   8.092 -0.7070  2.2717  1.4377
  777MOL0     H 4850  11.440   8.254   8.056  2.0265 -0.4647  2.1986
  777MOL0     H 4851  11.226   8.375   8.137 -1.2232 -0.9522  3.5538
  777MOL0     H 4852  11.320   8.515   8.177 -3.6990 -0.1896 -0.8772
  777MOL0     H 4853  11.373   8.245   8.313  0.8827  0.0271  3.0969
  777MOL0     H 4854  11.276   8.368   8.379 -0.5029  1.9409 -1.2090
  777MOL0     H 4855  11.542   8.346   8.609 -3.0466 -1.8524  2.0647
  777MOL0     H 4856  11.650   8.479   8.853  0.5261  0.2273 -1.8604
  777MOL0     H 4857  11.506   8.496   8.949  3.9632  1.6396  1.7246
  777MOL0     H 4858  11.545   8.341   8.866  1.9755  0.4441 -2.2827
  777MOL0     H 4859  11.341   8.559   9.131 -1.1567  0.4472 -1.2282
  777MOL0     H 4860  11.281   8.621   9.352  0.8239  1.1369  1.7798
  777MOL0     H 4861  11.385   8.688   9.529 -1.2751 -1.5245 -1.4047
  777MOL0     H 4862  11.363   8.803   9.656  1.0031 -1.2439  0.3448
  777MOL0     H 4863  11.170   8.628   9.526 -0.0569 -1.0413  0.0553
  777MOL0     H 4864  11.200   8.662   9.699 -1.9030  3.1583  1.6780
  777MOL0     H 4865  11.038   8.848   9.509 -1.1027  0.5136  0.5431
  777MOL0     H 4866  11.123   8.904   9.661  1.8983 -2.5522  2.8678
  777MOL0     H 4867  10.907   8.695   9.623 -0.3955  0.6369 -0.0925
  777MOL0     H 4868  10.975   8.713   9.777  1.7676  0.2247 -0.2040
  777MOL0     H 4869  10.820   8.939   9.604  2.2915  0.9837 -0.6508
  777MOL0     H 4870  10.885   8.981   9.749  0.5647  0.3119 -1.1436
  777MOL0     H 4871  10.674   8.766   9.711  0.0401 -0.8956  0.9944
  777MOL0     H 4872  10.742   8.801   9.865  1.9381 -1.0642 -1.1077
  777MOL0     H 4873  10.689   9.049   9.839  1.5023 -0.8767  2.3864
  777MOL0     H 4874  10.547   8.949   9.868 -0.3753  2.8389  0.4417
  777MOL0     H 4875  10.625   9.043   9.596 -0.2141 -3.0137 -1.0066
  777MOL0     H 4876  10.491   9.088   9.706  2.6412  2.7513  1.2481
  777MOL0     H 4877  11.387   9.034   9.279  1.1995 -1.0358  2.9756
  777MOL0     H 4878  11.433   8.975   9.042  0.2703  0.2691  1.5955
  777MOL0     H 4879  11.318   8.778   8.613  0.8287  0.3249  3.1716
  777MOL0     H 4880  11.335   8.641   8.400  0.7300  2.0628  1.5608
  777MOL0     H 4881  11.488   8.307   6.364 -0.2932  1.1373  1.6288
  777MOL0     H 4882  11.361   8.286   6.137 -0.7388 -0.2212 -0.1799
  777MOL0     H 4883  10.812   8.503   5.928  1.4731  1.5155 -0.5873
  777MOL0     H 4884  10.772   8.484   5.687  2.3737  1.0494 -4.0514
  777MOL0     H 4885  11.076   8.325   5.394 -0.1097  4.3440  1.7902
  777MOL0     H 4886  10.982   8.191   5.463  2.0297  1.4697  1.4332
  777MOL0     H 4887  10.932   8.222   5.226  0.4106 -0.2222  1.2975
  777MOL0     H 4888  10.880   8.392   5.250 -1.5040 -0.2873  0.1756
  777MOL0     H 4889  10.666   8.267   5.251  1.2814 -0.6754 -0.9073
  777MOL0     H 4890  10.720   8.343   5.405 -0.2812 -0.2891 -0.1000
  777MOL0     H 4891  10.632   8.130   5.452 -0.5834  4.1958 -0.5398
  777MOL0     H 4892  10.797   8.111   5.502 -0.0218  0.3628 -0.0534
  777MOL0     H 4893  10.781   7.849   5.169  2.8100  3.7699 -2.3602
  777MOL0     H 4894  11.124   8.252   5.632 -0.5141  2.3018 -0.5168
  777MOL0     H 4895  11.128   8.215   5.881  0.5450  1.0264  0.6873
  778MOL0     O 4896   4.457  11.123   7.223  0.0631 -0.1465  0.5634
  778MOL0     C 4897   4.529  11.170   7.307  0.1172  0.1445  0.9882
  778MOL0     O 4898   4.501  11.277   7.383 -0.3341 -0.3534  0.1620
  778MOL0     C 4899   4.408  11.359   7.331 -0.0558  0.6989  0.7149
  778MOL0     C 4900   4.442  11.431   7.218  0.2230  0.2791  0.2665
  778MOL0     C 4901   4.357  11.532   7.186 -0.0703 -0.4476 -0.1830
  778MOL0     C 4902   4.238  11.558   7.253  0.6158 -0.4197  0.3138
  778MOL0     O 4903   4.164  11.666   7.201 -0.2020  0.3124  0.2667
  778MOL0     C 4904   4.030  11.686   7.248 -0.8742 -0.2468 -0.2883
  778MOL0     C 4905   3.969  11.811   7.175  0.7357 -1.2052 -1.4578
  778MOL0     C 4906   4.022  11.828   7.036  0.4383  0.0514  0.6047
  778MOL0     C 4907   3.939  11.923   6.948 -0.1667 -0.0036  0.0805
  778MOL0     C 4908   3.928  12.066   6.997 -0.8708 -0.4696 -0.5536
  778MOL0     C 4909   3.801  12.108   7.068 -0.9321  0.3217 -0.0300
  778MOL0     C 4910   3.803  12.256   7.111 -0.2439 -1.0269  0.5743
  778MOL0     C 4911   3.660  12.301   7.158 -0.6195 -0.6479 -1.2248
  778MOL0     N 4912   3.612  12.434   7.119 -0.1724  0.0591  0.0390
  778MOL0     C 4913   3.584  12.474   6.990  0.6599 -0.9867  0.1127
  778MOL0     C 4914   3.573  12.608   7.006  0.3338 -0.0209 -0.6429
  778MOL0     C 4915   3.520  12.701   6.901 -0.2277 -0.2513 -0.0275
  778MOL0     C 4916   3.620  12.740   6.789 -0.0172  0.9298 -0.4657
  778MOL0     C 4917   3.739  12.809   6.859  0.5321 -0.7589  0.0469
  778MOL0     C 4918   3.860  12.834   6.762 -0.6202  0.5203 -0.9562
  778MOL0     O 4919   3.820  12.915   6.652  0.3536 -0.2830  0.5761
  778MOL0     C 4920   3.910  12.976   6.571  0.5053  0.7154 -1.2081
  778MOL0     C 4921   3.912  13.111   6.551 -0.1961  0.1776 -0.4468
  778MOL0     C 4922   3.996  13.178   6.466 -0.5199  1.5518  0.5469
  778MOL0     C 4923   3.979  13.325   6.456  0.4579 -0.6269  0.2686
  778MOL0     C 4924   4.099  13.099   6.402 -0.0296 -0.3589 -0.0491
  778MOL0     C 4925   4.203  13.172   6.320  0.9883  0.0269 -0.3804
  778MOL0     O 4926   4.270  13.255   6.394  0.2456  0.3654 -0.8977
  778MOL0     C 4927   4.346  13.346   6.332 -0.0306 -0.2826  0.5739
  778MOL0     C 4928   4.475  13.367   6.382  0.2146 -0.0215  0.6454
  778MOL0     C 4929   4.570  13.446   6.320 -0.5515 -0.1615 -0.0645
  778MOL0     C 4930   4.541  13.517   6.205 -0.4191  0.3595  0.3959
  778MOL0     O 4931   4.631  13.616   6.162  0.0716  0.5036  0.4142
  778MOL0     C 4932   4.566  13.749   6.163 -0.2149  0.1270 -0.0573
  778MOL0     C 4933   4.668  13.856   6.211  0.0365  1.0355 -0.0170
  778MOL0     C 4934   4.631  13.999   6.167 -0.3270 -0.0143 -0.0458
  778MOL0     C 4935   4.754  14.092   6.156  0.7106  0.0418 -0.0497
  778MOL0     C 4936   4.709  14.214   6.066 -0.0132 -0.3085 -0.0828
  778MOL0     C 4937   4.607  14.302   6.142  0.2893  0.0521  0.7947
  778MOL0     C 4938   4.554  14.419   6.055  0.3489  0.7512  0.1501
  778MOL0     C 4939   4.660  14.518   6.035  0.4758 -0.5909 -0.9260
  778MOL0    Cl 4940   4.595  14.680   6.002  0.1752  0.1639 -0.5981
  778MOL0     C 4941   4.409  13.510   6.161 -0.3874  0.1874 -0.6312
  778MOL0     C 4942   4.322  13.418   6.219 -0.1075 -0.1224  0.5776
  778MOL0     O 4943   4.217  13.141   6.200 -0.2569 -0.5953 -0.3378
  778MOL0     C 4944   4.112  12.961   6.426 -0.2301  0.5222  1.2074
  778MOL0     C 4945   4.018  12.902   6.511  0.7706 -0.7246 -0.8514
  778MOL0     N 4946   3.588  12.637   7.136 -0.0178  0.0046 -0.7880
  778MOL0     N 4947   3.608  12.538   7.206 -0.1138 -0.3422  0.2249
  778MOL0     C 4948   4.205  11.480   7.364 -0.0386  1.2288  0.5001
  778MOL0     C 4949   4.286  11.379   7.404  0.9442  0.4521  0.3595
  778MOL0     C 4950   4.664  11.101   7.321  0.8005  0.6191 -0.5379
  778MOL0     C 4951   4.690  10.989   7.232 -0.1257 -0.4532 -1.0945
  778MOL0     C 4952   4.808  10.915   7.261  0.6366 -0.8173 -0.3845
  778MOL0     C 4953   4.890  10.938   7.365  0.0038  0.0920 -0.7143
  778MOL0     O 4954   5.000  10.860   7.377 -0.6443 -0.2254  0.3625
  778MOL0     C 4955   5.047  10.851   7.512 -0.2235 -0.4874 -0.3922
  778MOL0     C 4956   5.077  10.706   7.569  0.1601 -0.6868  0.3759
  778MOL0     C 4957   5.092  10.608   7.454 -0.0950  0.5046 -0.2447
  778MOL0     C 4958   5.110  10.461   7.493  1.1290 -0.2656  0.9134
  778MOL0     C 4959   5.232  10.443   7.572 -0.3274 -0.4801 -0.2461
  778MOL0     C 4960   5.327  10.430   7.653  0.8103  0.1768  0.4147
  778MOL0     C 4961   4.860  11.051   7.445 -1.0273 -0.0645 -0.7252
  778MOL0     C 4962   4.749  11.128   7.422 -0.6298 -0.1492 -0.1898
  778MOL0     H 4963   4.540  11.410   7.175  0.6029  3.9975 -1.1153
  778MOL0     H 4964   4.400  11.596   7.110  4.2078  2.1848  3.8918
  778MOL0     H 4965   3.975  11.592   7.236  1.1454 -1.7089  1.2645
  778MOL0     H 4966   4.035  11.700   7.357  2.3939 -1.3944 -0.1831
  778MOL0     H 4967   3.860  11.811   7.168  0.2950  4.9084 -0.0210
  778MOL0     H 4968   3.993  11.901   7.232 -0.5487 -2.0726  0.5751
  778MOL0     H 4969   4.123  11.869   7.044  1.7938 -3.3262  3.9692
  778MOL0     H 4970   4.015  11.728   6.992  0.1186  0.1962  0.3305
  778MOL0     H 4971   3.982  11.918   6.847 -0.3160 -1.8002  0.0803
  778MOL0     H 4972   3.837  11.883   6.938 -1.0663  2.3789 -1.3330
  778MOL0     H 4973   4.015  12.099   7.055 -2.1785  3.9431 -0.6997
  778MOL0     H 4974   3.948  12.127   6.908  0.7833 -0.0185  0.0838
  778MOL0     H 4975   3.720  12.095   6.997 -0.3276 -3.0381 -0.2901
  778MOL0     H 4976   3.778  12.047   7.156  1.0192  0.3130  0.5241
  778MOL0     H 4977   3.888  12.282   7.174 -0.4290  1.2988 -0.0510
  778MOL0     H 4978   3.816  12.320   7.023  1.2336  0.5975  1.9023
  778MOL0     H 4979   3.667  12.316   7.266  2.0600  3.1801 -1.7137
  778MOL0     H 4980   3.589  12.227   7.119 -1.9630 -0.5173  0.8116
  778MOL0     H 4981   3.556  12.414   6.904 -2.0350 -1.3171  1.1105
  778MOL0     H 4982   3.433  12.670   6.842 -0.2740 -0.0162 -0.0831
  778MOL0     H 4983   3.486  12.790   6.954 -4.5469 -0.9225 -1.3226
  778MOL0     H 4984   3.574  12.818   6.727 -1.5241  1.1637  0.8659
  778MOL0     H 4985   3.654  12.653   6.731 -1.3275 -0.0054  0.0973
  778MOL0     H 4986   3.775  12.752   6.944 -1.7361 -0.4314  1.3126
  778MOL0     H 4987   3.709  12.908   6.895 -2.2939  0.0590 -3.8133
  778MOL0     H 4988   3.895  12.739   6.721  1.1763  1.0944 -0.8492
  778MOL0     H 4989   3.950  12.872   6.812  0.6198 -2.6501 -0.5602
  778MOL0     H 4990   3.834  13.170   6.598  2.3173  1.9630  1.7903
  778MOL0     H 4991   3.981  13.382   6.550 -2.1571  0.5793 -0.3089
  778MOL0     H 4992   4.042  13.367   6.378  0.5234 -0.7858  0.2346
  778MOL0     H 4993   3.875  13.340   6.424  0.9184 -0.7219 -1.3655
  778MOL0     H 4994   4.508  13.309   6.468 -0.4390  0.7182  1.4166
  778MOL0     H 4995   4.670  13.464   6.357 -0.9146 -0.3050  1.0069
  778MOL0     H 4996   4.524  13.780   6.066 -2.4720  0.4870  0.9753
  778MOL0     H 4997   4.482  13.770   6.230  1.0123 -0.1877  1.6305
  778MOL0     H 4998   4.685  13.844   6.318 -1.5322  1.7289  0.3357
  778MOL0     H 4999   4.763  13.840   6.158 -0.8619  1.1814 -1.7538
  778MOL0     H 5000   4.558  14.038   6.239 -2.5581 -1.6703 -1.3038
  778MOL0     H 5001   4.589  13.996   6.066  1.1432  0.9327 -0.7153
  778MOL0     H 5002   4.771  14.125   6.259  0.3101 -1.6894  0.5982
  778MOL0     H 5003   4.837  14.034   6.114 -1.2885 -1.1053 -2.7405
  778MOL0     H 5004   4.666  14.168   5.976 -0.9857  0.9774 -0.2964
  778MOL0     H 5005   4.795  14.276   6.039  0.8111 -1.3678  0.0436
  778MOL0     H 5006   4.525  14.239   6.178  1.4770  0.5016  4.7200
  778MOL0     H 5007   4.661  14.349   6.224 -1.9280  2.9164  0.7828
  778MOL0     H 5008   4.481  14.474   6.115 -0.2353 -2.7900  3.0482
  778MOL0     H 5009   4.511  14.392   5.958 -1.7573 -1.6860  1.6672
  778MOL0     H 5010   4.726  14.488   5.953  1.8138 -2.9946  0.9009
  778MOL0     H 5011   4.719  14.532   6.126 -0.5885  2.6377 -0.6184
  778MOL0     H 5012   4.381  13.580   6.082  1.4661 -0.1008 -1.5971
  778MOL0     H 5013   4.226  13.412   6.171  0.1013  1.7750 -0.1806
  778MOL0     H 5014   4.194  12.911   6.377 -2.7146 -1.4657 -1.2999
  778MOL0     H 5015   4.023  12.796   6.533 -0.4604 -0.3382  1.6998
  778MOL0     H 5016   4.108  11.486   7.413 -1.5957  2.1413 -2.4890
  778MOL0     H 5017   4.254  11.313   7.485  2.3767 -1.5411 -0.6013
  778MOL0     H 5018   4.643  10.982   7.135 -3.8544 -1.1362  0.6070
  778MOL0     H 5019   4.837  10.838   7.189 -1.1090 -0.5598 -1.4249
  778MOL0     H 5020   5.140  10.907   7.525 -0.9701  0.4944  1.0142
  778MOL0     H 5021   4.972  10.889   7.582 -0.7840  0.5811 -1.5266
  778MOL0     H 5022   4.994  10.669   7.628 -3.3067  2.1981 -2.2535
  778MOL0     H 5023   5.169  10.701   7.629  0.1416 -3.4789  0.3387
  778MOL0     H 5024   5.173  10.633   7.384 -1.0127  1.7688 -0.8950
  778MOL0     H 5025   5.005  10.612   7.388 -0.2989  2.5412  0.0595
  778MOL0     H 5026   5.117  10.398   7.404  0.9893 -0.8904  1.3371
  778MOL0     H 5027   5.025  10.419   7.548  0.0071  0.3131 -0.3341
  778MOL0     H 5028   5.402  10.437   7.729  2.2109  0.6363 -0.9612
  778MOL0     H 5029   4.938  11.082   7.514  1.7894 -2.0144 -2.8213
  778MOL0     H 5030   4.737  11.211   7.490  2.6006 -0.4000  0.8671
  779MOL0     O 5031   0.466  10.825   8.469  0.0693  0.7092  0.4880
  779MOL0     C 5032   0.489  10.853   8.584  0.2564  0.0726 -0.5234
  779MOL0     O 5033   0.440  10.774   8.695 -0.6417  0.4122 -0.1204
  779MOL0     C 5034   0.336  10.687   8.672  0.5249 -0.5293  0.5873
  779MOL0     C 5035   0.339  10.566   8.741  0.4993 -0.0465  0.0742
  779MOL0     C 5036   0.246  10.464   8.736  0.3022  0.0241 -1.1888
  779MOL0     C 5037   0.127  10.487   8.661  0.2330  0.2074 -0.3879
  779MOL0     O 5038   0.009  10.406   8.667 -0.6294 -0.4043  0.5206
  779MOL0     C 5039  -0.011  10.298   8.756  0.0060  1.1301 -0.5554
  779MOL0     C 5040  -0.006  10.344   8.897  0.1129  0.8400 -0.8932
  779MOL0     C 5041  -0.127  10.432   8.920 -0.4522 -0.6306 -0.3324
  779MOL0     C 5042  -0.166  10.450   9.065  0.7348  0.1131 -1.0771
  779MOL0     C 5043  -0.297  10.504   9.083  0.3481  0.6733 -0.0638
  779MOL0     C 5044  -0.319  10.527   9.241 -0.5215 -0.0352  0.6042
  779MOL0     C 5045  -0.464  10.503   9.271 -0.2053  0.4379 -1.0204
  779MOL0     C 5046  -0.570  10.613   9.232 -0.6591  0.4239 -0.4502
  779MOL0     N 5047  -0.585  10.644   9.084  0.3731 -0.0068  0.3881
  779MOL0     C 5048  -0.623  10.551   8.988 -1.5276 -0.1027  0.0261
  779MOL0     C 5049  -0.651  10.627   8.879  0.4131  0.7149  0.2743
  779MOL0     C 5050  -0.714  10.578   8.755  0.9718  0.2083  0.4734
  779MOL0     C 5051  -0.854  10.632   8.732 -0.1494  0.6563  0.2715
  779MOL0     C 5052  -0.849  10.760   8.651 -0.9774  0.1574 -0.6019
  779MOL0     C 5053  -0.987  10.822   8.637 -0.3961  1.2814  0.1888
  779MOL0     O 5054  -0.998  10.941   8.557 -0.4703 -0.2986  0.2621
  779MOL0     C 5055  -1.087  10.949   8.446  0.0822 -0.8980  0.1854
  779MOL0     C 5056  -1.108  11.079   8.407  0.1020 -0.8852 -0.0819
  779MOL0     C 5057  -1.182  11.108   8.300  0.6774 -0.2662  0.8445
  779MOL0     C 5058  -1.202  11.260   8.286  0.4118  0.4917  0.0226
  779MOL0     C 5059  -1.257  11.002   8.229 -0.1455  0.0962 -0.0661
  779MOL0     C 5060  -1.360  11.012   8.122  0.3906 -0.1205  0.6769
  779MOL0     O 5061  -1.411  10.895   8.071 -0.2571 -0.0809  1.4603
  779MOL0     C 5062  -1.525  10.885   8.000  0.5096  0.4607  1.1111
  779MOL0     C 5063  -1.581  10.755   7.986 -0.2310  0.0674 -0.1848
  779MOL0     C 5064  -1.699  10.743   7.922 -0.2897 -0.5781  0.4943
  779MOL0     C 5065  -1.746  10.846   7.843  0.7259  0.4553  0.6144
  779MOL0     O 5066  -1.860  10.822   7.781  1.0293  0.1579 -0.0183
  779MOL0     C 5067  -1.953  10.939   7.767  0.6990  0.2022  0.6946
  779MOL0     C 5068  -2.090  10.876   7.745  1.0931  0.1540 -0.4697
  779MOL0     C 5069  -2.116  10.789   7.869 -0.8015 -0.3098  0.1188
  779MOL0     C 5070  -2.272  10.759   7.869 -1.3699 -0.3141 -0.5389
  779MOL0     C 5071  -2.304  10.634   7.956 -0.3916 -0.3039  0.5179
  779MOL0     C 5072  -2.452  10.641   7.991  0.2533  0.1555 -0.6642
  779MOL0     C 5073  -2.500  10.523   8.074  0.6315 -0.0978  0.1689
  779MOL0     C 5074  -2.496  10.389   8.002 -0.5365 -0.4428  1.2828
  779MOL0    Cl 5075  -2.535  10.258   8.112  0.3282  0.2785  0.1315
  779MOL0     C 5076  -1.680  10.972   7.822 -0.0012  0.1260 -0.4409
  779MOL0     C 5077  -1.579  10.992   7.915  0.1765  0.3281 -0.4859
  779MOL0     O 5078  -1.405  11.124   8.100 -0.5183  0.7267 -0.3764
  779MOL0     C 5079  -1.214  10.873   8.260  0.3568 -0.0623  0.1561
  779MOL0     C 5080  -1.136  10.847   8.367  0.5655 -0.0389 -0.1327
  779MOL0     N 5081  -0.648  10.756   8.919  0.0228  0.1765 -0.2888
  779MOL0     N 5082  -0.613  10.768   9.038 -0.0730  0.3337  0.5067
  779MOL0     C 5083   0.122  10.596   8.579  0.2427 -0.2287 -0.0047
  779MOL0     C 5084   0.229  10.691   8.580 -0.1610 -0.4341  0.3967
  779MOL0     C 5085   0.566  10.971   8.603  0.4975 -0.0389 -0.0825
  779MOL0     C 5086   0.611  11.009   8.736  0.1617 -0.3439  0.2135
  779MOL0     C 5087   0.701  11.122   8.751  1.3944 -0.4026 -0.7261
  779MOL0     C 5088   0.727  11.208   8.642 -0.1681  0.5588  1.0002
  779MOL0     O 5089   0.818  11.309   8.645  0.2106 -0.1569 -0.3208
  779MOL0     C 5090   0.825  11.399   8.761 -0.4267 -0.1112 -0.1765
  779MOL0     C 5091   0.882  11.535   8.711 -0.2856  0.7566 -0.3375
  779MOL0     C 5092   0.805  11.593   8.584  0.6232  0.4019 -0.5247
  779MOL0     C 5093   0.844  11.739   8.571 -0.7121  0.6694 -0.2101
  779MOL0     C 5094   0.764  11.806   8.464 -0.4237  1.5766 -0.1004
  779MOL0     C 5095   0.710  11.889   8.391  0.0426 -0.8875  0.3291
  779MOL0     C 5096   0.672  11.170   8.522  0.4899  0.6847  0.8884
  779MOL0     C 5097   0.602  11.054   8.502 -1.0511  1.0872  0.2717
  779MOL0     H 5098   0.412  10.561   8.821 -1.5762 -1.3301  2.0045
  779MOL0     H 5099   0.258  10.375   8.798  1.0438  0.5382 -0.5804
  779MOL0     H 5100  -0.108  10.251   8.739  0.2205  0.5594 -0.2148
  779MOL0     H 5101   0.066  10.224   8.731  1.1602  1.9778  0.3440
  779MOL0     H 5102  -0.011  10.254   8.958 -2.8729  0.0615 -2.1110
  779MOL0     H 5103   0.085  10.400   8.919 -0.5847  1.3629  0.8439
  779MOL0     H 5104  -0.111  10.528   8.869 -0.8902 -1.2243 -1.6589
  779MOL0     H 5105  -0.210  10.382   8.869 -0.0863 -0.2147 -1.3749
  779MOL0     H 5106  -0.174  10.347   9.101 -2.9188 -0.1101 -2.1166
  779MOL0     H 5107  -0.089  10.498   9.126 -1.6937  0.9781  1.5202
  779MOL0     H 5108  -0.313  10.595   9.025  1.8429  1.3002  0.4532
  779MOL0     H 5109  -0.377  10.444   9.039 -0.6494  0.7675  1.5380
  779MOL0     H 5110  -0.257  10.472   9.313 -1.4917 -0.0394  1.4582
  779MOL0     H 5111  -0.288  10.631   9.251 -0.1488  0.1606 -1.9969
  779MOL0     H 5112  -0.507  10.408   9.238  1.8146 -0.9011 -0.0789
  779MOL0     H 5113  -0.472  10.503   9.380 -5.1951  0.5447 -1.1710
  779MOL0     H 5114  -0.550  10.714   9.269 -3.1383  1.3244 -1.3373
  779MOL0     H 5115  -0.665  10.572   9.268  1.2419 -1.3698  3.0047
  779MOL0     H 5116  -0.633  10.446   9.009 -4.5576  0.2684  0.9154
  779MOL0     H 5117  -0.654  10.608   8.669 -1.0811  0.1031 -1.0642
  779MOL0     H 5118  -0.723  10.469   8.744 -4.1510  0.6325 -4.5711
  779MOL0     H 5119  -0.898  10.647   8.831  0.0571  1.1140  0.2944
  779MOL0     H 5120  -0.906  10.558   8.671  0.4055  0.4860 -0.0050
  779MOL0     H 5121  -0.821  10.744   8.547 -0.2488  1.0170 -0.5585
  779MOL0     H 5122  -0.786  10.840   8.691  0.1105  0.4381 -2.7449
  779MOL0     H 5123  -1.022  10.848   8.737 -0.0927  1.1461  0.3299
  779MOL0     H 5124  -1.056  10.745   8.602 -0.6109  0.3674  2.4863
  779MOL0     H 5125  -1.055  11.154   8.466  0.8591 -0.3869 -1.3489
  779MOL0     H 5126  -1.308  11.276   8.307  0.0836 -1.5166  0.1278
  779MOL0     H 5127  -1.143  11.329   8.347  1.2508  0.9416 -1.2330
  779MOL0     H 5128  -1.177  11.289   8.183 -1.1112 -1.7792 -1.0884
  779MOL0     H 5129  -1.538  10.676   8.047 -1.7927  1.0644  2.3691
  779MOL0     H 5130  -1.751  10.648   7.918 -2.3287  0.5055 -0.3255
  779MOL0     H 5131  -1.956  11.001   7.857 -0.6507  1.3044 -0.0633
  779MOL0     H 5132  -1.939  10.998   7.676  1.1703  1.6649  1.6811
  779MOL0     H 5133  -2.166  10.954   7.744  0.0831 -0.8141 -0.7133
  779MOL0     H 5134  -2.093  10.814   7.655  2.0156  0.8194 -0.9845
  779MOL0     H 5135  -2.083  10.847   7.955  0.0558 -0.8914  0.1931
  779MOL0     H 5136  -2.064  10.693   7.868 -1.2130 -0.5395 -0.9470
  779MOL0     H 5137  -2.326  10.845   7.910 -0.3415 -0.6778  1.7869
  779MOL0     H 5138  -2.303  10.742   7.766 -1.8915 -0.7641 -0.3143
  779MOL0     H 5139  -2.236  10.607   8.038 -1.8478  1.2479  2.3098
  779MOL0     H 5140  -2.278  10.553   7.887 -2.7029 -0.2544 -0.4871
  779MOL0     H 5141  -2.476  10.737   8.035 -0.3985 -0.7916  1.1398
  779MOL0     H 5142  -2.502  10.633   7.894 -1.0903 -2.7331  0.1603
  779MOL0     H 5143  -2.609  10.531   8.087  0.5613 -1.2921  0.4502
  779MOL0     H 5144  -2.447  10.518   8.169  0.3191  1.5039  0.4577
  779MOL0     H 5145  -2.398  10.372   7.955 -1.9942 -1.1127 -1.7712
  779MOL0     H 5146  -2.566  10.388   7.918  0.2421 -1.9546  0.6123
  779MOL0     H 5147  -1.714  11.048   7.752  0.7403  0.6762 -0.2183
  779MOL0     H 5148  -1.536  11.091   7.906 -0.3174  0.4698 -1.4289
  779MOL0     H 5149  -1.253  10.783   8.214  1.0873 -1.4982  2.1637
  779MOL0     H 5150  -1.122  10.742   8.389 -1.4972 -1.0246 -2.9364
  779MOL0     H 5151   0.033  10.607   8.517 -1.6861 -2.0991  2.2390
  779MOL0     H 5152   0.223  10.784   8.523 -2.9633 -0.2814  0.8164
  779MOL0     H 5153   0.575  10.957   8.824 -0.5808 -0.5793 -0.2178
  779MOL0     H 5154   0.730  11.140   8.854 -0.2886  1.6013 -0.5117
  779MOL0     H 5155   0.725  11.413   8.804  0.5305 -0.2632  2.2559
  779MOL0     H 5156   0.897  11.359   8.833 -1.3293 -0.7351  0.3973
  779MOL0     H 5157   0.984  11.513   8.680  0.3435  3.5184 -0.5092
  779MOL0     H 5158   0.876  11.601   8.799 -0.0661 -0.8680  0.9581
  779MOL0     H 5159   0.697  11.601   8.597  0.6419  3.0045 -1.3326
  779MOL0     H 5160   0.827  11.526   8.501  4.3918 -0.6563  1.0825
  779MOL0     H 5161   0.952  11.754   8.570 -0.4634 -0.5772 -3.3327
  779MOL0     H 5162   0.809  11.792   8.660  1.9999  0.5464  1.0247
  779MOL0     H 5163   0.686  11.965   8.320 -1.2989 -2.2869 -0.7941
  779MOL0     H 5164   0.702  11.210   8.426 -0.3493 -1.8037 -0.4937
  779MOL0     H 5165   0.574  11.029   8.401  1.4141 -3.2096  0.4066
  780MOL0     O 5166  10.455   7.788   3.702 -0.0969 -0.0334  0.3702
  780MOL0     C 5167  10.413   7.786   3.586  0.5607 -0.2550  1.0574
  780MOL0     O 5168  10.470   7.716   3.486  0.2531  0.6425 -0.4856
  780MOL0     C 5169  10.603   7.684   3.515 -0.0069 -0.3559  0.1750
  780MOL0     C 5170  10.645   7.571   3.587  0.9478 -0.5545  0.5075
  780MOL0     C 5171  10.777   7.545   3.613  0.3657 -0.5207 -0.2483
  780MOL0     C 5172  10.878   7.618   3.564  0.0903  0.0998 -0.7183
  780MOL0     O 5173  11.007   7.575   3.574 -0.6711 -0.0743  0.0252
  780MOL0     C 5174  11.119   7.670   3.573 -0.5785  0.2259 -0.3872
  780MOL0     C 5175  11.248   7.599   3.627 -0.5471 -0.6972 -0.4780
  780MOL0     C 5176  11.215   7.495   3.737 -0.4942  0.5952 -0.0300
  780MOL0     C 5177  11.119   7.556   3.850 -0.9863  0.8897 -0.1379
  780MOL0     C 5178  11.119   7.465   3.982  0.4665 -0.5349 -0.1778
  780MOL0     C 5179  11.124   7.316   3.943  0.2773  0.8218 -0.2201
  780MOL0     C 5180  11.072   7.232   4.063 -1.0901 -0.1448  0.0620
  780MOL0     C 5181  11.093   7.083   4.048  0.5503  0.4651 -0.6435
  780MOL0     N 5182  11.029   7.013   3.935  0.6603  0.0183 -0.5537
  780MOL0     C 5183  11.074   7.000   3.806  0.0177 -0.3486  0.0371
  780MOL0     C 5184  10.962   6.999   3.727 -0.3702 -0.5261 -1.0728
  780MOL0     C 5185  10.956   6.999   3.577  0.3623 -0.4166  0.1942
  780MOL0     C 5186  10.968   7.151   3.533 -0.5686  0.5397 -0.6953
  780MOL0     C 5187  11.049   7.165   3.410  0.4465  0.0595 -0.4126
  780MOL0     C 5188  11.009   7.290   3.339  0.6843  0.7650  0.0257
  780MOL0     O 5189  11.066   7.289   3.206  0.3725  0.0333 -0.1449
  780MOL0     C 5190  11.015   7.392   3.130 -0.6390 -0.5346  0.0407
  780MOL0     C 5191  10.942   7.510   3.167  1.1847  0.9748 -0.0343
  780MOL0     C 5192  10.887   7.605   3.071 -0.4471  0.6813  1.4247
  780MOL0     C 5193  10.793   7.714   3.113  0.2889  0.4889 -0.5656
  780MOL0     C 5194  10.927   7.588   2.935 -0.8168 -0.0764 -0.8386
  780MOL0     C 5195  10.896   7.679   2.821  0.6310  0.1971  0.5352
  780MOL0     O 5196  10.942   7.642   2.699  0.0834  0.4117  0.1041
  780MOL0     C 5197  10.893   7.719   2.590 -0.5743 -0.7131 -0.0026
  780MOL0     C 5198  10.959   7.842   2.556  0.0483  0.1279  0.7661
  780MOL0     C 5199  10.910   7.927   2.454 -0.7448  0.7642  0.9406
  780MOL0     C 5200  10.804   7.887   2.371 -0.2649  1.1521  0.4878
  780MOL0     O 5201  10.762   7.951   2.260  0.0225 -0.6054 -0.7143
  780MOL0     C 5202  10.617   7.969   2.247  0.4199 -0.7979 -0.4995
  780MOL0     C 5203  10.588   7.932   2.105  0.7356 -0.1605  0.2455
  780MOL0     C 5204  10.517   8.046   2.022 -1.1162 -0.3177  0.4777
  780MOL0     C 5205  10.622   8.154   1.991  0.0574  0.7985  0.0099
  780MOL0     C 5206  10.579   8.260   1.894 -0.3830  0.0539 -0.1777
  780MOL0     C 5207  10.544   8.211   1.758 -0.0229  0.1172  0.4666
  780MOL0     C 5208  10.535   8.321   1.656  0.1160 -0.0420  1.3926
  780MOL0     C 5209  10.491   8.285   1.513  0.2387 -0.5893 -0.0640
  780MOL0    Cl 5210  10.534   8.419   1.419  0.5469  0.1447 -0.0582
  780MOL0     C 5211  10.743   7.762   2.409 -0.5528  0.2631  0.6396
  780MOL0     C 5212  10.783   7.682   2.513  0.6098  0.8191 -0.4044
  780MOL0     O 5213  10.821   7.775   2.837 -0.3021 -0.4502 -0.4890
  780MOL0     C 5214  11.008   7.479   2.907  0.4490  1.1015 -0.9991
  780MOL0     C 5215  11.044   7.375   2.993 -0.1748  0.5043  0.1446
  780MOL0     N 5216  10.853   6.985   3.813 -0.0332  0.1818  0.6585
  780MOL0     N 5217  10.896   6.979   3.934  0.5168 -1.1863 -0.4291
  780MOL0     C 5218  10.832   7.746   3.510  0.3301 -0.4719  0.1959
  780MOL0     C 5219  10.704   7.776   3.478  0.0312 -1.1703 -0.9869
  780MOL0     C 5220  10.308   7.878   3.538  1.1151 -0.4075 -0.5755
  780MOL0     C 5221  10.215   7.935   3.632 -0.2549  0.0999  0.0359
  780MOL0     C 5222  10.102   8.023   3.590 -0.8077  0.1957  0.8964
  780MOL0     C 5223  10.087   8.051   3.458 -0.1424  0.5868 -0.3564
  780MOL0     O 5224   9.968   8.112   3.419 -0.1646 -0.0528  0.6858
  780MOL0     C 5225   9.951   8.140   3.278 -0.2683  0.1359  0.0164
  780MOL0     C 5226   9.829   8.237   3.252 -0.0750  0.3802  0.4614
  780MOL0     C 5227   9.699   8.169   3.273  0.5641  0.9876 -1.0875
  780MOL0     C 5228   9.577   8.266   3.254  0.9880  0.2046  0.8519
  780MOL0     C 5229   9.454   8.193   3.265 -0.2344  0.3015 -1.0562
  780MOL0     C 5230   9.346   8.143   3.264 -0.8328  0.3569 -0.3108
  780MOL0     C 5231  10.192   8.007   3.371  0.6740 -0.1683 -0.0627
  780MOL0     C 5232  10.292   7.921   3.400  0.0083  0.7650 -0.8545
  780MOL0     H 5233  10.570   7.509   3.634  0.5644  0.7775  1.7158
  780MOL0     H 5234  10.795   7.453   3.668  0.1412 -0.8409 -0.6952
  780MOL0     H 5235  11.139   7.696   3.469 -2.3236 -0.1593 -0.8453
  780MOL0     H 5236  11.088   7.752   3.638 -0.4290 -0.5098  0.6465
  780MOL0     H 5237  11.293   7.552   3.539  0.3419  0.7792 -0.8395
  780MOL0     H 5238  11.322   7.664   3.674 -0.9328 -2.0457  2.2161
  780MOL0     H 5239  11.166   7.409   3.691 -2.2782  2.3267 -1.5530
  780MOL0     H 5240  11.307   7.452   3.777 -1.5189 -2.6839 -0.8940
  780MOL0     H 5241  11.163   7.655   3.867 -1.1308  0.9844 -0.3113
  780MOL0     H 5242  11.014   7.569   3.824 -0.2210  0.9534 -3.7421
  780MOL0     H 5243  11.196   7.500   4.051 -2.6281  0.5225  3.0172
  780MOL0     H 5244  11.029   7.474   4.043  1.7980 -0.2077  1.8450
  780MOL0     H 5245  11.060   7.292   3.858  2.4695 -0.7935 -1.4954
  780MOL0     H 5246  11.225   7.281   3.922  1.3614  2.4293  1.9142
  780MOL0     H 5247  11.140   7.258   4.145 -0.1031 -2.1428 -0.0494
  780MOL0     H 5248  10.971   7.266   4.086 -0.5230  1.6227  0.0977
  780MOL0     H 5249  11.064   7.042   4.145  0.3400  0.8390 -0.5459
  780MOL0     H 5250  11.199   7.060   4.037  0.3870 -0.2490 -0.7673
  780MOL0     H 5251  11.170   7.007   3.756 -1.4133  1.4808 -2.7596
  780MOL0     H 5252  11.036   6.935   3.539 -0.7579 -2.3184  0.9021
  780MOL0     H 5253  10.860   6.956   3.548  0.5195  0.0131 -1.0185
  780MOL0     H 5254  11.014   7.215   3.608  0.0049 -1.6864  0.9541
  780MOL0     H 5255  10.863   7.171   3.510 -0.7619 -1.8303 -2.2514
  780MOL0     H 5256  11.023   7.079   3.347 -2.0721  0.2354  0.2893
  780MOL0     H 5257  11.153   7.169   3.444 -0.0300 -1.8729  1.5394
  780MOL0     H 5258  11.037   7.380   3.394 -2.1654  0.0495  2.9870
  780MOL0     H 5259  10.900   7.287   3.332  0.4451 -0.3258  2.9341
  780MOL0     H 5260  10.909   7.524   3.270 -3.0455  2.9446 -1.4388
  780MOL0     H 5261  10.847   7.803   3.145  0.2985 -0.8211  3.7817
  780MOL0     H 5262  10.720   7.740   3.036 -2.2197 -4.2753 -0.2316
  780MOL0     H 5263  10.738   7.679   3.202  0.1809  2.7322  0.3140
  780MOL0     H 5264  11.048   7.866   2.613  1.8207 -1.1460 -1.3065
  780MOL0     H 5265  10.954   8.023   2.429 -0.6624  0.4719 -0.0562
  780MOL0     H 5266  10.551   7.915   2.316  0.8929  0.1341  0.7340
  780MOL0     H 5267  10.605   8.076   2.269 -0.5236 -0.3702 -2.8073
  780MOL0     H 5268  10.682   7.896   2.063  1.3541 -0.3254  1.7139
  780MOL0     H 5269  10.521   7.846   2.108 -1.7689  1.6530 -0.3787
  780MOL0     H 5270  10.440   8.088   2.087  0.0471 -1.2790  2.5825
  780MOL0     H 5271  10.483   8.001   1.929 -1.9293 -0.5018  0.8605
  780MOL0     H 5272  10.651   8.195   2.088 -1.7038 -3.5909  2.7215
  780MOL0     H 5273  10.708   8.100   1.949 -1.1615 -0.2193 -1.3007
  780MOL0     H 5274  10.657   8.335   1.884 -0.3868  0.5201  2.5004
  780MOL0     H 5275  10.490   8.313   1.930  0.5517  1.1006  0.6394
  780MOL0     H 5276  10.607   8.125   1.734 -0.6520 -1.3661  3.6112
  780MOL0     H 5277  10.442   8.171   1.757 -0.2490  0.6916 -0.4977
  780MOL0     H 5278  10.632   8.372   1.655  0.4235 -0.3136 -3.1307
  780MOL0     H 5279  10.461   8.389   1.698 -2.3242 -1.6693 -0.0327
  780MOL0     H 5280  10.382   8.282   1.502  0.0800  3.5725 -1.1918
  780MOL0     H 5281  10.531   8.186   1.490 -1.0891 -1.0218 -0.5780
  780MOL0     H 5282  10.660   7.723   2.352 -0.3957  1.2776 -0.3240
  780MOL0     H 5283  10.735   7.585   2.522  1.3818  0.3632 -1.0007
  780MOL0     H 5284  11.043   7.469   2.805 -0.0943  2.0362 -1.2946
  780MOL0     H 5285  11.111   7.298   2.955 -0.8376 -0.2350  0.4357
  780MOL0     H 5286  10.904   7.822   3.482  1.0747 -0.9936  0.6869
  780MOL0     H 5287  10.677   7.872   3.436  1.0667  0.9365  2.6924
  780MOL0     H 5288  10.235   7.918   3.738 -0.3866 -0.2336  0.0106
  780MOL0     H 5289  10.032   8.064   3.662 -2.1468 -2.5186  1.2582
  780MOL0     H 5290  10.028   8.201   3.229 -1.2199 -1.3699 -3.7025
  780MOL0     H 5291   9.929   8.048   3.222 -0.4717 -0.0532  0.4085
  780MOL0     H 5292   9.839   8.288   3.156 -0.6978 -0.2533  0.0576
  780MOL0     H 5293   9.826   8.320   3.323 -0.7256 -0.8403  1.9312
  780MOL0     H 5294   9.694   8.118   3.370 -1.3790  0.5127 -1.3861
  780MOL0     H 5295   9.694   8.092   3.196  1.3017 -2.7965  2.3187
  780MOL0     H 5296   9.590   8.309   3.155  2.4677 -1.4996  0.2453
  780MOL0     H 5297   9.578   8.345   3.329  4.4789 -0.6407  1.8678
  780MOL0     H 5298   9.249   8.101   3.246  0.2432 -1.5541 -2.1394
  780MOL0     H 5299  10.189   8.055   3.274 -0.3107 -0.7497 -0.3395
  780MOL0     H 5300  10.359   7.904   3.316 -1.1327  2.2501 -2.1067
  781MOL0     O 5301   7.916   5.198   7.513 -0.1996 -0.0497  0.1775
  781MOL0     C 5302   7.806   5.253   7.503 -0.4926  1.8603 -0.6210
  781MOL0     O 5303   7.709   5.218   7.410 -0.2193  0.0866 -0.4471
  781MOL0     C 5304   7.707   5.100   7.349 -0.1147 -0.1475 -0.3404
  781MOL0     C 5305   7.627   4.991   7.385  0.4051 -0.4865  0.3226
  781MOL0     C 5306   7.646   4.861   7.327 -0.2148  0.9568 -0.0074
  781MOL0     C 5307   7.733   4.836   7.230  0.0841 -0.7667  0.1312
  781MOL0     O 5308   7.740   4.713   7.170 -0.3832 -1.1034 -0.7017
  781MOL0     C 5309   7.631   4.667   7.102  1.3804  0.1913  1.0092
  781MOL0     C 5310   7.615   4.515   7.129 -0.6552 -0.2765 -0.7026
  781MOL0     C 5311   7.578   4.447   7.263  0.0824 -0.8875  0.1768
  781MOL0     C 5312   7.577   4.299   7.241  0.4766  0.9181  1.3427
  781MOL0     C 5313   7.550   4.218   7.361 -0.0417 -0.3591 -0.2009
  781MOL0     C 5314   7.555   4.074   7.335  1.4915 -0.1116  0.9588
  781MOL0     C 5315   7.459   4.025   7.211  0.2940  0.6445 -0.0840
  781MOL0     C 5316   7.310   4.061   7.230 -0.7086 -0.0406 -0.0311
  781MOL0     N 5317   7.236   3.943   7.281 -1.3331  0.4977  1.0818
  781MOL0     C 5318   7.171   3.930   7.402 -0.6029 -1.2229 -0.4929
  781MOL0     C 5319   7.125   3.804   7.402 -0.0230 -0.3405  0.0804
  781MOL0     C 5320   7.052   3.737   7.517  0.4542 -0.6989  0.7088
  781MOL0     C 5321   7.123   3.609   7.558 -0.7753 -0.6832 -0.4775
  781MOL0     C 5322   7.104   3.550   7.696 -0.5957  0.4537 -0.0377
  781MOL0     C 5323   6.963   3.534   7.737  0.5649 -0.6874 -0.0682
  781MOL0     O 5324   6.879   3.477   7.629 -0.1764 -1.3210 -0.7556
  781MOL0     C 5325   6.761   3.428   7.685 -0.4914  0.1697 -0.8255
  781MOL0     C 5326   6.674   3.363   7.592  0.8082  0.7864 -1.0210
  781MOL0     C 5327   6.553   3.298   7.623 -0.1273 -0.8137  0.7031
  781MOL0     C 5328   6.471   3.239   7.502 -0.3996  0.0986  0.4763
  781MOL0     C 5329   6.525   3.289   7.761 -0.8320  0.3607 -0.1758
  781MOL0     C 5330   6.416   3.206   7.805 -0.0550 -0.5083 -0.2192
  781MOL0     O 5331   6.314   3.184   7.715  0.1056  0.4290 -0.2326
  781MOL0     C 5332   6.198   3.123   7.754 -0.9530 -0.8210  0.0201
  781MOL0     C 5333   6.111   3.191   7.837 -0.1493  0.8256 -0.1082
  781MOL0     C 5334   5.978   3.140   7.846  0.3614  0.0543 -0.2317
  781MOL0     C 5335   5.936   3.021   7.772 -0.4905 -0.5690 -0.4674
  781MOL0     O 5336   5.812   2.982   7.795 -0.3150 -0.1782 -1.0183
  781MOL0     C 5337   5.756   2.896   7.703 -0.2009  0.8160  0.1167
  781MOL0     C 5338   5.601   2.897   7.719 -1.4677 -0.3654 -0.1939
  781MOL0     C 5339   5.537   2.794   7.805 -0.0879 -0.3130  0.3465
  781MOL0     C 5340   5.584   2.833   7.948  0.4797 -0.3672  0.2304
  781MOL0     C 5341   5.517   2.746   8.062 -0.0575 -0.4130 -0.5282
  781MOL0     C 5342   5.620   2.729   8.162 -0.2302 -0.0830  0.2248
  781MOL0     C 5343   5.581   2.624   8.267 -0.4880 -0.7517  0.1433
  781MOL0     C 5344   5.693   2.605   8.366 -0.2324  1.3199 -0.7760
  781MOL0    Cl 5345   5.734   2.752   8.469  0.1108  0.4683  0.3714
  781MOL0     C 5346   6.033   2.952   7.709 -0.0898  0.2004 -0.9537
  781MOL0     C 5347   6.160   2.997   7.699  0.6401  1.2136 -0.7839
  781MOL0     O 5348   6.416   3.177   7.926  0.5960 -0.7355 -0.4549
  781MOL0     C 5349   6.616   3.354   7.856 -0.3243 -0.2522 -0.2245
  781MOL0     C 5350   6.728   3.423   7.818 -0.2379  0.1338 -0.9268
  781MOL0     N 5351   7.155   3.737   7.284  0.7154  0.9887 -0.2364
  781MOL0     N 5352   7.216   3.827   7.216 -0.4170 -0.0080  0.0592
  781MOL0     C 5353   7.812   4.940   7.189 -0.9319 -0.1328 -0.7575
  781MOL0     C 5354   7.798   5.074   7.245 -0.7237  0.4190 -0.1872
  781MOL0     C 5355   7.766   5.373   7.582 -0.4130  0.5767  0.1249
  781MOL0     C 5356   7.846   5.423   7.692  0.2372  0.4120  0.8685
  781MOL0     C 5357   7.803   5.524   7.765  0.1726 -0.7855 -0.6542
  781MOL0     C 5358   7.679   5.577   7.750  0.0118 -0.3936  0.5297
  781MOL0     O 5359   7.643   5.692   7.824 -0.2576  0.6825 -0.3808
  781MOL0     C 5360   7.510   5.746   7.826  1.3750  0.9058  0.1614
  781MOL0     C 5361   7.488   5.842   7.945  0.2511  0.2858  0.5644
  781MOL0     C 5362   7.540   5.777   8.071  0.3062  0.3587  0.1851
  781MOL0     C 5363   7.450   5.677   8.130 -0.2929  0.3138 -0.1629
  781MOL0     C 5364   7.327   5.725   8.195 -0.3673 -0.6415 -0.0900
  781MOL0     C 5365   7.224   5.768   8.248  0.3953 -0.5940 -0.0222
  781MOL0     C 5366   7.593   5.526   7.653 -0.6528  0.2477 -0.5316
  781MOL0     C 5367   7.639   5.429   7.562  0.3575  0.2709 -0.6542
  781MOL0     H 5368   7.559   5.003   7.469  1.0527  5.2039  0.4280
  781MOL0     H 5369   7.578   4.785   7.364  2.4230 -1.3393  0.3795
  781MOL0     H 5370   7.538   4.717   7.128  0.5683  0.3810 -1.9149
  781MOL0     H 5371   7.645   4.680   6.994  1.9705  0.4948  1.1130
  781MOL0     H 5372   7.536   4.485   7.059 -3.9227 -1.1928  3.0502
  781MOL0     H 5373   7.716   4.487   7.097 -0.3760 -0.4648  0.3053
  781MOL0     H 5374   7.651   4.486   7.334  0.0945 -0.6391  0.0276
  781MOL0     H 5375   7.481   4.490   7.289 -1.7122 -1.6515 -4.2684
  781MOL0     H 5376   7.499   4.272   7.169  1.4702  0.3445  0.4570
  781MOL0     H 5377   7.675   4.264   7.207  0.9480  2.2360  1.2844
  781MOL0     H 5378   7.626   4.257   7.428  0.2221  1.2323 -1.3692
  781MOL0     H 5379   7.451   4.247   7.398 -0.8745 -1.9334 -1.0346
  781MOL0     H 5380   7.653   4.040   7.301 -0.1019 -2.3130 -1.8452
  781MOL0     H 5381   7.546   4.019   7.428  0.5216 -0.8015  0.4773
  781MOL0     H 5382   7.496   4.069   7.118 -0.6192 -1.8420 -1.6886
  781MOL0     H 5383   7.472   3.918   7.197  2.0841  0.5041  2.0227
  781MOL0     H 5384   7.277   4.088   7.129 -1.5582 -0.5914  0.0898
  781MOL0     H 5385   7.286   4.143   7.298  0.9151 -1.9255  3.0708
  781MOL0     H 5386   7.167   4.006   7.479 -3.8296 -1.6552 -0.1094
  781MOL0     H 5387   7.048   3.808   7.600  1.9952  3.5156 -2.5019
  781MOL0     H 5388   6.951   3.703   7.492  0.4344 -1.5675  1.8235
  781MOL0     H 5389   7.231   3.625   7.557 -0.6229 -1.3937  1.3259
  781MOL0     H 5390   7.098   3.527   7.489  2.7410 -0.3875 -2.3301
  781MOL0     H 5391   7.170   3.590   7.773  3.2087 -0.7693 -2.3579
  781MOL0     H 5392   7.134   3.445   7.682 -2.0004  0.0008  0.1515
  781MOL0     H 5393   6.922   3.629   7.774  1.8712 -0.2988  0.4381
  781MOL0     H 5394   6.976   3.470   7.825  0.7047 -0.1828  0.2809
  781MOL0     H 5395   6.686   3.376   7.485 -2.9448 -0.1461 -1.7162
  781MOL0     H 5396   6.488   3.131   7.510 -1.0718  0.0671  1.8501
  781MOL0     H 5397   6.363   3.253   7.501 -0.5974 -1.1068  1.8409
  781MOL0     H 5398   6.515   3.278   7.409 -1.6402  0.2893 -0.0441
  781MOL0     H 5399   6.150   3.284   7.878  0.8788  1.3040 -2.0376
  781MOL0     H 5400   5.908   3.205   7.899 -0.1971 -0.3181 -0.4996
  781MOL0     H 5401   5.785   2.930   7.603  1.1385 -2.6140 -0.8301
  781MOL0     H 5402   5.786   2.795   7.735  0.8671  1.0009 -0.2684
  781MOL0     H 5403   5.573   2.997   7.755 -1.0779  0.7495 -2.7550
  781MOL0     H 5404   5.562   2.897   7.617  1.7031 -1.9931 -1.5615
  781MOL0     H 5405   5.567   2.697   7.764  0.4863 -0.0141  0.0361
  781MOL0     H 5406   5.429   2.803   7.809 -0.0674 -0.6943  3.1535
  781MOL0     H 5407   5.694   2.837   7.953  0.7343 -2.7427 -1.2831
  781MOL0     H 5408   5.546   2.934   7.962 -1.6361 -0.9908 -0.6649
  781MOL0     H 5409   5.493   2.650   8.015  0.3503 -1.1441  0.7296
  781MOL0     H 5410   5.429   2.805   8.091 -0.4995 -1.2719 -0.1117
  781MOL0     H 5411   5.714   2.699   8.115 -1.3321 -0.3014 -1.9501
  781MOL0     H 5412   5.644   2.823   8.214 -0.2725  0.5347 -0.8462
  781MOL0     H 5413   5.562   2.526   8.224 -1.2232 -1.1792  1.3899
  781MOL0     H 5414   5.491   2.649   8.324  0.5000 -0.2991  1.5676
  781MOL0     H 5415   5.786   2.571   8.321  0.8188 -1.2830  2.9406
  781MOL0     H 5416   5.666   2.519   8.428  3.4690 -0.3096 -1.1690
  781MOL0     H 5417   6.010   2.851   7.676  1.2553 -0.5322  0.2252
  781MOL0     H 5418   6.243   2.955   7.643  0.7581  2.3753 -1.5273
  781MOL0     H 5419   6.584   3.360   7.959  2.4161 -0.4825  0.7310
  781MOL0     H 5420   6.785   3.476   7.894  0.2394 -3.2641  1.3030
  781MOL0     H 5421   7.880   4.934   7.105  1.1308 -1.3880  0.8774
  781MOL0     H 5422   7.860   5.157   7.210 -1.5564  0.8023 -0.7829
  781MOL0     H 5423   7.940   5.372   7.712 -0.2021 -1.4059 -1.3598
  781MOL0     H 5424   7.865   5.554   7.848 -0.4536  0.4175 -0.5912
  781MOL0     H 5425   7.499   5.799   7.731 -0.8493  1.9740  0.9457
  781MOL0     H 5426   7.439   5.663   7.824 -1.2332  2.8431  2.9541
  781MOL0     H 5427   7.381   5.863   7.953  0.5766  4.6606 -3.0720
  781MOL0     H 5428   7.541   5.936   7.927 -0.4998  0.5883 -0.0866
  781MOL0     H 5429   7.551   5.853   8.149 -1.1834  1.4527 -0.6178
  781MOL0     H 5430   7.642   5.740   8.057  0.6774  1.0970  0.8312
  781MOL0     H 5431   7.504   5.633   8.214 -2.3484  2.3028  2.3600
  781MOL0     H 5432   7.412   5.605   8.057 -0.5497  1.1888 -0.9195
  781MOL0     H 5433   7.132   5.799   8.294  0.3578  0.5822 -0.8502
  781MOL0     H 5434   7.498   5.574   7.633 -1.1282 -1.3255 -2.2854
  781MOL0     H 5435   7.560   5.397   7.495 -1.6011 -0.5090  1.8345
  782MOL0     O 5436   5.427  10.229   1.561  0.6692  0.0582  0.5580
  782MOL0     C 5437   5.354  10.323   1.522 -0.2043 -1.0259 -0.7516
  782MOL0     O 5438   5.274  10.323   1.409  0.2140 -0.4819 -0.6975
  782MOL0     C 5439   5.311  10.237   1.305 -0.0331  0.8913 -0.3122
  782MOL0     C 5440   5.344  10.287   1.187  0.7235  0.3950 -0.0796
  782MOL0     C 5441   5.381  10.201   1.079 -0.9371 -0.9988 -0.5199
  782MOL0     C 5442   5.368  10.059   1.096  0.8967 -0.1266 -0.0332
  782MOL0     O 5443   5.408   9.976   0.999  0.1993 -0.5459 -0.5501
  782MOL0     C 5444   5.301   9.903   0.932  0.7216  0.6292  0.5874
  782MOL0     C 5445   5.271   9.977   0.801 -0.0930 -0.2097  0.2007
  782MOL0     C 5446   5.155   9.914   0.718 -1.0941 -0.3951 -0.4098
  782MOL0     C 5447   5.213   9.791   0.652 -0.1580  0.8953  0.8524
  782MOL0     C 5448   5.114   9.725   0.557 -1.1091 -0.2330  0.4668
  782MOL0     C 5449   5.033   9.612   0.618 -0.1115  0.4131  0.2131
  782MOL0     C 5450   4.922   9.564   0.527 -0.1557  0.5154  0.2338
  782MOL0     C 5451   4.885   9.423   0.550  0.1715  0.0023 -0.8997
  782MOL0     N 5452   4.773   9.378   0.467  0.2556  0.1607  0.4934
  782MOL0     C 5453   4.641   9.405   0.489  0.6195 -0.1947 -0.2178
  782MOL0     C 5454   4.575   9.387   0.373  0.5814 -0.2857 -0.1810
  782MOL0     C 5455   4.431   9.411   0.339  1.2314 -0.0286  0.1954
  782MOL0     C 5456   4.338   9.307   0.402  0.0802 -0.5464  0.3899
  782MOL0     C 5457   4.192   9.326   0.361  0.5457  0.8496  0.7874
  782MOL0     C 5458   4.108   9.406   0.447  0.5561 -1.0290 -0.1428
  782MOL0     O 5459   4.184   9.496   0.519  0.9985 -0.8617  0.3329
  782MOL0     C 5460   4.119   9.575   0.614 -1.1033  0.6593  0.7811
  782MOL0     C 5461   4.198   9.660   0.700  0.0585 -0.0487 -0.1944
  782MOL0     C 5462   4.146   9.725   0.814  0.6733 -0.4484 -0.1918
  782MOL0     C 5463   4.246   9.831   0.874  0.7459 -0.4887  0.8578
  782MOL0     C 5464   4.010   9.700   0.855 -0.1450  0.3194  0.2317
  782MOL0     C 5465   3.946   9.754   0.974  0.0620 -1.0042  0.2387
  782MOL0     O 5466   3.817   9.731   0.992  0.1334  0.9334 -0.1562
  782MOL0     C 5467   3.726   9.801   1.064  0.5119  0.2764  0.2755
  782MOL0     C 5468   3.739   9.940   1.090 -0.6552  0.9015 -0.5040
  782MOL0     C 5469   3.637  10.009   1.154  0.7936  0.0442 -0.2119
  782MOL0     C 5470   3.522   9.945   1.204  0.5080  0.7005  0.2537
  782MOL0     O 5471   3.441  10.018   1.287 -0.3507 -0.2217  0.9272
  782MOL0     C 5472   3.348   9.950   1.367 -0.0321 -0.4060 -0.6948
  782MOL0     C 5473   3.215   9.943   1.285 -0.6897 -0.1004  0.6870
  782MOL0     C 5474   3.191  10.057   1.187 -0.3289  0.2658  0.1616
  782MOL0     C 5475   3.194  10.197   1.253 -0.6979 -0.4254  0.2537
  782MOL0     C 5476   3.151  10.309   1.159 -0.5125 -0.6028 -0.0569
  782MOL0     C 5477   3.141  10.448   1.239  0.1139  0.4911  0.8144
  782MOL0     C 5478   3.075  10.570   1.165  0.1618  0.4388 -0.8878
  782MOL0     C 5479   3.090  10.704   1.235  0.1682 -0.0602 -0.1993
  782MOL0    Cl 5480   2.986  10.702   1.368  0.1533 -0.1653 -0.3469
  782MOL0     C 5481   3.505   9.805   1.174 -0.3367  0.9542  0.3003
  782MOL0     C 5482   3.607   9.737   1.106 -0.7868 -0.5371  0.8139
  782MOL0     O 5483   4.011   9.815   1.056  0.2244 -0.1261 -0.3339
  782MOL0     C 5484   3.935   9.617   0.766  0.6404  0.0508 -1.0258
  782MOL0     C 5485   3.992   9.563   0.652  0.6721  0.3883  0.2079
  782MOL0     N 5486   4.668   9.344   0.282  0.2733 -0.3056  0.7369
  782MOL0     N 5487   4.783   9.336   0.338 -0.4211 -0.1192  0.1360
  782MOL0     C 5488   5.325  10.017   1.213 -0.2187  0.9702 -1.0307
  782MOL0     C 5489   5.283  10.104   1.311 -0.4193 -0.0603 -0.4803
  782MOL0     C 5490   5.341  10.447   1.610 -0.0947  0.0813 -0.8806
  782MOL0     C 5491   5.430  10.473   1.713  0.0366  0.0916 -0.2692
  782MOL0     C 5492   5.420  10.581   1.799 -0.2025 -0.0703  0.1020
  782MOL0     C 5493   5.315  10.672   1.782  0.7397  0.3151 -0.4815
  782MOL0     O 5494   5.293  10.765   1.883 -0.1840  0.0304 -0.7095
  782MOL0     C 5495   5.194  10.725   1.983 -0.6874 -0.2752 -0.2338
  782MOL0     C 5496   5.253  10.640   2.101  0.5159 -0.5176  0.4659
  782MOL0     C 5497   5.140  10.581   2.186 -1.2715 -0.5255 -0.4373
  782MOL0     C 5498   5.194  10.527   2.317 -1.5423  0.3368 -1.2115
  782MOL0     C 5499   5.110  10.519   2.437  0.7539 -0.0901  0.7375
  782MOL0     C 5500   5.043  10.494   2.545  0.0352  0.2603 -0.1958
  782MOL0     C 5501   5.226  10.657   1.675  0.2582  0.0622  0.6226
  782MOL0     C 5502   5.250  10.551   1.584 -0.1357 -0.8506 -0.4072
  782MOL0     H 5503   5.362  10.394   1.184  3.2059  0.0188 -1.1140
  782MOL0     H 5504   5.415  10.245   0.987 -2.1406  1.9915  0.3462
  782MOL0     H 5505   5.339   9.802   0.915 -1.2805 -0.0670 -0.0939
  782MOL0     H 5506   5.211   9.893   0.994  1.9758 -0.6540  2.3000
  782MOL0     H 5507   5.243  10.080   0.824 -0.3407  0.2157 -1.8903
  782MOL0     H 5508   5.364   9.982   0.744  0.7014  0.8200  1.5173
  782MOL0     H 5509   5.074   9.887   0.786 -0.8025 -0.6314 -0.1520
  782MOL0     H 5510   5.125   9.980   0.636  3.8201 -0.3785 -2.5396
  782MOL0     H 5511   5.310   9.798   0.603 -1.1300 -4.7173 -2.8493
  782MOL0     H 5512   5.232   9.717   0.730 -0.3892  2.0647  2.0681
  782MOL0     H 5513   5.059   9.799   0.498 -1.3759 -0.4858  0.3993
  782MOL0     H 5514   5.171   9.683   0.474  0.7328 -1.0250  2.0495
  782MOL0     H 5515   5.111   9.538   0.639 -0.5071 -0.7069 -1.9493
  782MOL0     H 5516   4.997   9.641   0.717  1.5749  3.9882 -0.0641
  782MOL0     H 5517   4.841   9.636   0.545  2.4685  3.8665 -0.3329
  782MOL0     H 5518   4.952   9.583   0.424  1.3802  0.4544  0.6484
  782MOL0     H 5519   4.848   9.405   0.651 -2.8924  1.1278 -1.6964
  782MOL0     H 5520   4.970   9.356   0.536  2.9923  3.5499 -2.5520
  782MOL0     H 5521   4.594   9.440   0.580  2.9784  1.2446  0.5498
  782MOL0     H 5522   4.404   9.509   0.381  0.7925  0.1356 -0.4526
  782MOL0     H 5523   4.421   9.405   0.230  2.4396  0.4439  0.0368
  782MOL0     H 5524   4.356   9.304   0.510  3.1270 -3.1621 -0.0593
  782MOL0     H 5525   4.360   9.205   0.370 -0.9615 -1.2494  1.7962
  782MOL0     H 5526   4.148   9.226   0.365 -0.9496  1.5129  2.5016
  782MOL0     H 5527   4.186   9.356   0.256 -2.7927 -0.0828  0.5888
  782MOL0     H 5528   4.060   9.342   0.521 -2.7196 -0.0644 -1.2674
  782MOL0     H 5529   4.041   9.461   0.380 -0.5558 -2.5323 -0.3225
  782MOL0     H 5530   4.298   9.680   0.664 -1.0346 -1.5898 -4.7862
  782MOL0     H 5531   4.347   9.792   0.856  1.8097  0.8626  3.3299
  782MOL0     H 5532   4.225   9.918   0.812 -1.0581 -4.0655 -4.3314
  782MOL0     H 5533   4.234   9.837   0.983 -0.1081 -0.4705  0.7693
  782MOL0     H 5534   3.829   9.988   1.054  0.3554 -0.5207  0.0328
  782MOL0     H 5535   3.654  10.110   1.190  2.0667  0.2937 -1.4073
  782MOL0     H 5536   3.377   9.851   1.405  1.0455  0.0717 -0.2198
  782MOL0     H 5537   3.337  10.019   1.452  1.2305 -3.0240  1.7787
  782MOL0     H 5538   3.224   9.849   1.230 -2.1960 -0.5771  1.1866
  782MOL0     H 5539   3.133   9.930   1.356 -2.4539  0.2268 -1.1878
  782MOL0     H 5540   3.096  10.044   1.134 -0.5942  4.8146 -0.8618
  782MOL0     H 5541   3.276  10.067   1.120  0.6559  2.0612  1.6058
  782MOL0     H 5542   3.126  10.184   1.338  1.9854 -0.8888  2.5044
  782MOL0     H 5543   3.298  10.204   1.287  0.4987 -1.0200 -2.9442
  782MOL0     H 5544   3.053  10.290   1.114  1.0563 -0.2548 -4.0451
  782MOL0     H 5545   3.230  10.327   1.085  0.2084 -0.8056  0.6487
  782MOL0     H 5546   3.081  10.443   1.330 -1.4149  0.0436 -0.1788
  782MOL0     H 5547   3.245  10.464   1.266  1.1590 -0.5309 -2.1257
  782MOL0     H 5548   2.971  10.538   1.152  0.2851 -0.6852  0.6037
  782MOL0     H 5549   3.124  10.589   1.069 -0.2552 -2.0871 -1.6700
  782MOL0     H 5550   3.052  10.783   1.169 -0.2641 -2.8265 -3.4974
  782MOL0     H 5551   3.197  10.718   1.251  0.6401 -3.3705  0.1608
  782MOL0     H 5552   3.421   9.745   1.205  1.0192 -1.0831  0.1890
  782MOL0     H 5553   3.592   9.634   1.075  1.0347 -0.7171  0.4549
  782MOL0     H 5554   3.830   9.594   0.781  0.6774 -0.6176 -1.7274
  782MOL0     H 5555   3.923   9.520   0.580  2.8061 -1.9911 -0.5371
  782MOL0     H 5556   5.318   9.911   1.235  0.3236  0.5239 -2.8068
  782MOL0     H 5557   5.243  10.068   1.405 -0.0766 -0.0750 -0.3375
  782MOL0     H 5558   5.503  10.393   1.716 -1.2047 -1.2925 -3.0789
  782MOL0     H 5559   5.490  10.591   1.881 -0.5371  1.4554  0.2442
  782MOL0     H 5560   5.146  10.818   2.014  2.3740  1.5568 -0.6459
  782MOL0     H 5561   5.107  10.674   1.939 -0.7892  3.2934 -4.8873
  782MOL0     H 5562   5.309  10.706   2.167 -1.9612  0.8760  1.3002
  782MOL0     H 5563   5.308  10.552   2.067 -0.4699 -1.9196  2.2652
  782MOL0     H 5564   5.095  10.492   2.140  1.1265 -3.9149  3.1583
  782MOL0     H 5565   5.056  10.649   2.200 -0.8774 -0.1264  0.0158
  782MOL0     H 5566   5.268  10.597   2.357 -1.0720  0.0682 -1.5938
  782MOL0     H 5567   5.235  10.426   2.302  0.3314  1.0460 -1.1210
  782MOL0     H 5568   4.976  10.482   2.627 -0.9221 -0.5623 -1.0578
  782MOL0     H 5569   5.138  10.716   1.654  1.4515  0.9504 -2.3368
  782MOL0     H 5570   5.184  10.539   1.499 -0.3043  0.1670 -0.4339
  783MOL0     O 5571   2.305   6.049   1.106  0.2054  0.5331 -0.6955
  783MOL0     C 5572   2.373   6.127   1.177 -0.5418  0.0209  0.9997
  783MOL0     O 5573   2.328   6.205   1.280  0.8854  0.3830 -0.3000
  783MOL0     C 5574   2.194   6.189   1.327  0.1682 -0.1356  0.6094
  783MOL0     C 5575   2.135   6.057   1.329  0.5853 -0.3511  0.4757
  783MOL0     C 5576   2.010   6.036   1.399  0.3058 -0.2363  0.0797
  783MOL0     C 5577   1.942   6.145   1.466 -0.5024  0.4237  0.1988
  783MOL0     O 5578   1.831   6.118   1.543 -0.2171 -0.0896  0.3548
  783MOL0     C 5579   1.785   6.226   1.626  0.0708 -0.2327  0.0222
  783MOL0     C 5580   1.709   6.151   1.740  0.6341  0.1528  0.1103
  783MOL0     C 5581   1.596   6.056   1.691 -0.0509 -0.1575 -1.1118
  783MOL0     C 5582   1.540   5.949   1.789  0.3119  0.5648  0.6674
  783MOL0     C 5583   1.437   5.852   1.727 -0.1445 -0.9839 -0.5567
  783MOL0     C 5584   1.498   5.721   1.670  0.3280 -0.3200  0.2252
  783MOL0     C 5585   1.392   5.644   1.598  0.6658  0.1723  0.5671
  783MOL0     C 5586   1.451   5.523   1.521 -0.2277  0.5475 -0.0376
  783MOL0     N 5587   1.348   5.465   1.434  0.8641  0.2893  0.6606
  783MOL0     C 5588   1.212   5.491   1.451  0.0937  0.2486  0.0781
  783MOL0     C 5589   1.152   5.441   1.342 -0.9703 -0.5909  0.2158
  783MOL0     C 5590   1.011   5.457   1.309  0.6077 -0.1399  0.5782
  783MOL0     C 5591   0.957   5.375   1.191 -0.0131  0.6569 -0.4890
  783MOL0     C 5592   0.806   5.413   1.182  0.1529 -0.1046 -0.7273
  783MOL0     C 5593   0.705   5.322   1.261  0.0532 -0.2066 -0.3347
  783MOL0     O 5594   0.564   5.373   1.257  0.5059 -0.5645 -0.3998
  783MOL0     C 5595   0.468   5.286   1.289  0.0813  0.1253 -0.6523
  783MOL0     C 5596   0.479   5.144   1.293  0.8081  0.0320  0.9067
  783MOL0     C 5597   0.362   5.060   1.303 -0.2436 -0.2861  0.4996
  783MOL0     C 5598   0.376   4.909   1.284  0.0215  0.9635  0.0132
  783MOL0     C 5599   0.232   5.127   1.320 -0.1670 -0.8518  0.7476
  783MOL0     C 5600   0.106   5.057   1.346  0.6104 -0.0170  0.0299
  783MOL0     O 5601   0.109   4.944   1.414  0.1738  0.5486 -0.2946
  783MOL0     C 5602  -0.005   4.881   1.444  0.3309 -0.5569 -0.5058
  783MOL0     C 5603  -0.049   4.874   1.578  0.9430  0.4461 -0.4762
  783MOL0     C 5604  -0.172   4.805   1.612 -0.4152 -0.7611  0.0034
  783MOL0     C 5605  -0.249   4.757   1.504 -0.5418  0.4429  0.3218
  783MOL0     O 5606  -0.374   4.705   1.531  0.3113  0.3350 -0.0389
  783MOL0     C 5607  -0.361   4.567   1.585 -0.6609 -0.4220  0.4254
  783MOL0     C 5608  -0.428   4.464   1.492 -0.2584 -0.3151  0.5118
  783MOL0     C 5609  -0.573   4.465   1.474 -0.4750  0.0201  0.1835
  783MOL0     C 5610  -0.638   4.517   1.612  0.9031  0.3871 -1.3731
  783MOL0     C 5611  -0.794   4.517   1.604  0.5251  0.0477 -0.1302
  783MOL0     C 5612  -0.845   4.623   1.498 -0.2392 -0.1762  0.0551
  783MOL0     C 5613  -1.001   4.648   1.496 -0.3568 -0.9517  1.4450
  783MOL0     C 5614  -1.055   4.732   1.375 -0.0611 -0.6796 -1.1864
  783MOL0    Cl 5615  -1.231   4.747   1.401  0.4425  0.1837  0.0919
  783MOL0     C 5616  -0.207   4.768   1.377  0.2714  0.0430  0.5142
  783MOL0     C 5617  -0.084   4.833   1.341  0.2688 -0.4404  1.8655
  783MOL0     O 5618   0.002   5.115   1.304  0.3832 -0.3245 -0.6200
  783MOL0     C 5619   0.232   5.270   1.337  0.1943 -0.6985  0.1851
  783MOL0     C 5620   0.344   5.350   1.322  0.7933 -0.0670 -0.2642
  783MOL0     N 5621   1.248   5.376   1.256  0.0719  0.0023  0.2899
  783MOL0     N 5622   1.363   5.382   1.326 -0.4012  0.3267  0.1654
  783MOL0     C 5623   2.003   6.273   1.456 -0.6491 -0.3215 -0.1390
  783MOL0     C 5624   2.127   6.289   1.393  0.1412  0.0171  0.3005
  783MOL0     C 5625   2.512   6.157   1.128 -0.0918  0.4737 -0.9875
  783MOL0     C 5626   2.541   6.162   0.989 -0.3009 -0.4247  0.3491
  783MOL0     C 5627   2.676   6.170   0.947 -0.2424  0.0956  0.4061
  783MOL0     C 5628   2.777   6.195   1.049 -0.5804  0.9212 -0.4425
  783MOL0     O 5629   2.909   6.209   1.007 -0.0781 -0.3345  0.0380
  783MOL0     C 5630   3.015   6.270   1.084  0.3741  0.7804  0.6580
  783MOL0     C 5631   3.130   6.292   0.995  0.0893 -1.3493 -0.7882
  783MOL0     C 5632   3.250   6.354   1.070 -0.6440  0.0010  0.3733
  783MOL0     C 5633   3.377   6.373   0.989 -0.3100 -0.6233  0.1664
  783MOL0     C 5634   3.413   6.254   0.919  0.5529 -0.9541  0.0762
  783MOL0     C 5635   3.447   6.164   0.856  0.2446  0.5277  0.2377
  783MOL0     C 5636   2.746   6.198   1.188  0.2334 -0.2515  0.0942
  783MOL0     C 5637   2.609   6.181   1.224  0.3818  0.1468  0.6444
  783MOL0     H 5638   2.193   5.975   1.287  2.3754  0.2364  1.6724
  783MOL0     H 5639   1.968   5.939   1.423 -1.8352  1.0953  2.2979
  783MOL0     H 5640   1.873   6.265   1.679 -0.7915 -2.2026  3.1572
  783MOL0     H 5641   1.724   6.297   1.570  0.1220 -2.7698 -3.6131
  783MOL0     H 5642   1.779   6.105   1.809 -1.6748 -0.7679  1.9652
  783MOL0     H 5643   1.661   6.232   1.797  0.8194 -0.1212  0.6562
  783MOL0     H 5644   1.506   6.117   1.702  1.6767  2.1566  1.4751
  783MOL0     H 5645   1.604   6.021   1.588  1.6064  1.5272 -1.6241
  783MOL0     H 5646   1.627   5.900   1.835 -0.5662 -0.6916  1.0353
  783MOL0     H 5647   1.483   5.999   1.867 -3.0156  1.3251 -2.0050
  783MOL0     H 5648   1.361   5.833   1.803 -2.0170  1.8857 -1.5350
  783MOL0     H 5649   1.391   5.911   1.647  1.7553  0.4246 -0.6935
  783MOL0     H 5650   1.587   5.747   1.611  0.2722 -1.4238 -0.3695
  783MOL0     H 5651   1.538   5.662   1.753  0.5226  1.6970  1.6331
  783MOL0     H 5652   1.321   5.605   1.672  0.0930  0.5735  0.2442
  783MOL0     H 5653   1.332   5.714   1.539  1.2396  1.1263  1.0937
  783MOL0     H 5654   1.498   5.446   1.583  2.0808  1.4110 -0.6113
  783MOL0     H 5655   1.521   5.574   1.454  0.0450 -0.9690 -0.9553
  783MOL0     H 5656   1.169   5.552   1.530  1.0850 -3.6188  3.9732
  783MOL0     H 5657   0.959   5.426   1.400 -2.9496  1.4058 -0.7271
  783MOL0     H 5658   0.991   5.563   1.290  3.7500  0.6225  1.0236
  783MOL0     H 5659   0.970   5.267   1.199 -1.5925  0.1863 -3.1380
  783MOL0     H 5660   1.023   5.408   1.111  0.7159 -0.3608 -0.3143
  783MOL0     H 5661   0.781   5.412   1.076 -2.1558 -1.7942 -0.2507
  783MOL0     H 5662   0.789   5.512   1.225  0.2366 -0.7707  0.9214
  783MOL0     H 5663   0.735   5.295   1.363  0.0951 -2.1839 -0.8364
  783MOL0     H 5664   0.703   5.228   1.205 -1.3710 -0.5963  0.3072
  783MOL0     H 5665   0.573   5.099   1.262  0.9164  0.3270  0.7999
  783MOL0     H 5666   0.282   4.859   1.259 -0.6830 -0.9497  5.1469
  783MOL0     H 5667   0.453   4.872   1.216 -2.6905 -2.2801 -1.5900
  783MOL0     H 5668   0.401   4.868   1.383 -1.0768  1.3191  0.4447
  783MOL0     H 5669   0.006   4.913   1.663 -1.0690  0.9800  0.6456
  783MOL0     H 5670  -0.202   4.805   1.717  1.8966  0.9400  0.7573
  783MOL0     H 5671  -0.258   4.533   1.594 -0.6509 -0.2121  1.1779
  783MOL0     H 5672  -0.394   4.560   1.689  0.8632 -0.6458  0.9158
  783MOL0     H 5673  -0.382   4.455   1.393 -1.1921  0.5581 -0.0132
  783MOL0     H 5674  -0.401   4.365   1.532  1.5063  0.2193  0.7304
  783MOL0     H 5675  -0.602   4.363   1.447  3.3853 -1.2244  0.1767
  783MOL0     H 5676  -0.598   4.538   1.397  1.4655  0.0712 -0.4540
  783MOL0     H 5677  -0.600   4.458   1.696 -1.2822 -0.5327 -0.9378
  783MOL0     H 5678  -0.610   4.621   1.626 -3.6300  2.3656 -4.3761
  783MOL0     H 5679  -0.843   4.540   1.699  0.4323  2.9015 -0.7547
  783MOL0     H 5680  -0.831   4.421   1.569  0.3378  0.0642  0.0201
  783MOL0     H 5681  -0.786   4.710   1.527  2.4343 -1.8941  0.0624
  783MOL0     H 5682  -0.813   4.598   1.396 -0.4910  1.1269 -0.3657
  783MOL0     H 5683  -1.034   4.696   1.588  0.9026 -1.6936  2.3097
  783MOL0     H 5684  -1.036   4.545   1.485  1.5011 -1.4967  0.1989
  783MOL0     H 5685  -1.022   4.688   1.281  0.0197 -2.1166 -0.5161
  783MOL0     H 5686  -1.015   4.833   1.385  2.8812 -1.6739 -2.0470
  783MOL0     H 5687  -0.264   4.739   1.289 -1.3907 -2.4787  2.3137
  783MOL0     H 5688  -0.064   4.845   1.235 -0.1632  1.7672  1.9746
  783MOL0     H 5689   0.139   5.324   1.356 -0.7253 -2.1126 -0.1351
  783MOL0     H 5690   0.331   5.457   1.333 -0.5288 -0.3784  1.6002
  783MOL0     H 5691   1.960   6.359   1.506  1.2233  0.8464 -0.4781
  783MOL0     H 5692   2.190   6.378   1.393  1.4935 -0.9017  1.0387
  783MOL0     H 5693   2.460   6.163   0.917  0.7129 -0.5910 -0.8409
  783MOL0     H 5694   2.701   6.180   0.842 -0.8530  0.2410  0.2666
  783MOL0     H 5695   2.979   6.362   1.131 -2.2607 -0.0364  0.3862
  783MOL0     H 5696   3.043   6.215   1.175  1.0478  1.1596  0.6854
  783MOL0     H 5697   3.103   6.365   0.918  0.4393 -2.0721 -1.6291
  783MOL0     H 5698   3.160   6.192   0.959  0.7520 -0.6510 -2.2672
  783MOL0     H 5699   3.271   6.282   1.150 -4.3644 -0.0610  1.4666
  783MOL0     H 5700   3.229   6.449   1.120  1.4973  0.6293  0.1980
  783MOL0     H 5701   3.461   6.396   1.056 -0.7192  2.0999 -0.1443
  783MOL0     H 5702   3.365   6.460   0.924 -1.1848 -3.6937 -4.1932
  783MOL0     H 5703   3.472   6.076   0.800  1.8152  1.7793 -1.1433
  783MOL0     H 5704   2.825   6.220   1.259  1.7694 -0.5623 -1.4543
  783MOL0     H 5705   2.589   6.182   1.331  0.2471 -2.7987  0.7149
  784MOL0     O 5706   7.817   1.432  11.289 -0.5452  0.4082  0.2318
  784MOL0     C 5707   7.874   1.435  11.181 -0.4635 -0.0714  0.4769
  784MOL0     O 5708   8.009   1.405  11.167  1.3870 -0.6035  0.0078
  784MOL0     C 5709   8.078   1.360  11.277  0.5940  0.2315  0.6281
  784MOL0     C 5710   8.095   1.227  11.312 -0.4243  0.0968 -0.7723
  784MOL0     C 5711   8.160   1.194  11.433  0.2249  0.2414  0.4493
  784MOL0     C 5712   8.219   1.288  11.515  0.2653  0.0545 -0.3458
  784MOL0     O 5713   8.282   1.251  11.631  0.1071 -0.4393 -0.3386
  784MOL0     C 5714   8.420   1.291  11.638 -0.7445 -0.0227 -0.3717
  784MOL0     C 5715   8.466   1.249  11.774  0.3580 -0.5535 -0.5891
  784MOL0     C 5716   8.500   1.099  11.782 -0.8473  0.8635 -0.2507
  784MOL0     C 5717   8.522   1.050  11.931  0.1614 -0.8623  0.8984
  784MOL0     C 5718   8.502   0.896  11.947 -0.0829 -0.7291  0.3069
  784MOL0     C 5719   8.622   0.833  11.851  0.8762 -0.4310 -0.4787
  784MOL0     C 5720   8.620   0.685  11.874  0.3236 -0.1755  0.1404
  784MOL0     C 5721   8.662   0.631  12.009  0.1652 -0.2373 -0.7363
  784MOL0     N 5722   8.644   0.491  12.020 -1.4108 -0.5565 -0.1203
  784MOL0     C 5723   8.746   0.392  12.028 -0.5097  0.0942 -0.4999
  784MOL0     C 5724   8.686   0.278  12.066  1.0420  0.1045  0.4457
  784MOL0     C 5725   8.760   0.144  12.090 -0.3120 -0.1152 -0.1361
  784MOL0     C 5726   8.694   0.049  12.178  0.5328  0.3357  0.5330
  784MOL0     C 5727   8.788  -0.060  12.240  0.2848 -0.7543 -0.1310
  784MOL0     C 5728   8.726  -0.122  12.369 -0.1369  0.1442  0.0728
  784MOL0     O 5729   8.588  -0.165  12.354 -0.2629 -0.0838 -0.1929
  784MOL0     C 5730   8.511  -0.093  12.445 -0.0092 -0.1348  0.7586
  784MOL0     C 5731   8.417  -0.002  12.391 -0.1386 -0.1277  0.4523
  784MOL0     C 5732   8.323   0.082  12.466 -0.4873  0.5101  0.0516
  784MOL0     C 5733   8.230   0.173  12.389 -0.0310  0.7963 -0.3349
  784MOL0     C 5734   8.313   0.055  12.606 -0.7464 -0.4204  0.3602
  784MOL0     C 5735   8.213   0.106  12.710 -0.4376 -0.6024  0.0545
  784MOL0     O 5736   8.187   0.012  12.813 -0.9905  0.1549  0.8397
  784MOL0     C 5737   8.108   0.058  12.917 -0.2734 -0.7310 -0.6784
  784MOL0     C 5738   7.984  -0.003  12.941  0.4523 -0.2910  1.5062
  784MOL0     C 5739   7.896   0.038  13.044  0.1133  0.3320  0.2998
  784MOL0     C 5740   7.948   0.131  13.130  0.8551  0.3006 -0.6243
  784MOL0     O 5741   7.868   0.138  13.238  0.0504 -0.2797  0.0649
  784MOL0     C 5742   7.883   0.254  13.316 -0.4792  1.1998  0.8930
  784MOL0     C 5743   7.745   0.284  13.382 -0.1235 -0.4464  0.7963
  784MOL0     C 5744   7.696   0.162  13.449  0.0996  0.0449  0.9021
  784MOL0     C 5745   7.583   0.091  13.380 -0.3336 -0.5889  0.2752
  784MOL0     C 5746   7.446   0.158  13.417  0.3768 -1.3748  0.5710
  784MOL0     C 5747   7.333   0.082  13.348  0.0411  0.4808  0.9679
  784MOL0     C 5748   7.204   0.159  13.363  0.6053  0.3518 -0.2511
  784MOL0     C 5749   7.094   0.079  13.301  0.4522  0.1191  0.2052
  784MOL0    Cl 5750   7.030  -0.033  13.418  0.2891  0.2383  0.2823
  784MOL0     C 5751   8.074   0.194  13.116  0.0063 -0.0221 -0.5047
  784MOL0     C 5752   8.152   0.163  13.004  0.8313  0.4704 -0.4548
  784MOL0     O 5753   8.153   0.213  12.693  0.4932  0.3924  0.0695
  784MOL0     C 5754   8.410  -0.040  12.657 -0.0019 -0.5680 -0.1366
  784MOL0     C 5755   8.521  -0.104  12.584  0.7860  0.7192  0.6399
  784MOL0     N 5756   8.544   0.297  12.037 -0.1721  0.2388 -0.5962
  784MOL0     N 5757   8.520   0.427  12.018  0.1969  0.1651  0.8194
  784MOL0     C 5758   8.215   1.422  11.471 -0.1375 -0.3754  0.3680
  784MOL0     C 5759   8.147   1.454  11.353 -0.6653 -0.1455 -1.3181
  784MOL0     C 5760   7.790   1.469  11.063  0.7847  0.7114 -0.4449
  784MOL0     C 5761   7.833   1.468  10.931  0.6454 -0.4765 -0.5141
  784MOL0     C 5762   7.746   1.510  10.831 -0.1794 -0.0249  0.5136
  784MOL0     C 5763   7.603   1.531  10.853 -0.7653  0.6871  0.5048
  784MOL0     O 5764   7.512   1.562  10.759  0.8869 -0.1332  0.1936
  784MOL0     C 5765   7.562   1.599  10.630  0.2733  1.0480 -0.7167
  784MOL0     C 5766   7.453   1.663  10.544 -0.1716  0.9901  0.4342
  784MOL0     C 5767   7.475   1.641  10.395 -0.0523 -1.2918  0.0175
  784MOL0     C 5768   7.594   1.727  10.357  0.1172 -0.0077 -0.4966
  784MOL0     C 5769   7.612   1.723  10.218  0.2683 -0.4529 -0.0161
  784MOL0     C 5770   7.648   1.716  10.097 -0.3611  0.1827 -0.7233
  784MOL0     C 5771   7.561   1.527  10.984  0.7309 -0.1778  0.0265
  784MOL0     C 5772   7.655   1.499  11.087  0.7455  0.1219 -0.0285
  784MOL0     H 5773   8.037   1.150  11.262  1.1723 -0.6469 -1.5453
  784MOL0     H 5774   8.166   1.098  11.483  2.3317  0.0891  0.0056
  784MOL0     H 5775   8.476   1.228  11.568 -0.3959 -0.6177  0.4272
  784MOL0     H 5776   8.435   1.399  11.630  1.2936 -0.1009  1.3855
  784MOL0     H 5777   8.563   1.295  11.797  0.6830 -2.5557  2.7239
  784MOL0     H 5778   8.393   1.275  11.850  1.2099  0.1468  0.0107
  784MOL0     H 5779   8.409   1.048  11.749 -1.3433  1.3044  0.4083
  784MOL0     H 5780   8.579   1.061  11.717 -0.5094  0.3738  0.4308
  784MOL0     H 5781   8.619   1.076  11.975 -0.4197 -1.1027  2.3838
  784MOL0     H 5782   8.448   1.095  11.998 -3.7195 -1.2925 -2.6634
  784MOL0     H 5783   8.512   0.876  12.054  1.8092  4.0993  1.3248
  784MOL0     H 5784   8.403   0.870  11.908 -0.2848 -0.3246  0.5379
  784MOL0     H 5785   8.598   0.843  11.744 -3.1101 -1.5493  0.1784
  784MOL0     H 5786   8.721   0.861  11.888  1.8359 -2.4194 -1.3689
  784MOL0     H 5787   8.518   0.645  11.873 -0.0869  0.8266  0.3613
  784MOL0     H 5788   8.672   0.629  11.796 -4.1439 -1.4797 -2.2819
  784MOL0     H 5789   8.596   0.667  12.088  3.7421  0.6139  2.1786
  784MOL0     H 5790   8.762   0.663  12.041 -0.6333 -0.3727  2.1344
  784MOL0     H 5791   8.854   0.407  12.024 -0.2581 -0.4717  2.3985
  784MOL0     H 5792   8.788   0.095  11.996  0.6068 -3.0328  1.5336
  784MOL0     H 5793   8.857   0.159  12.137 -0.0769 -1.9235  0.0453
  784MOL0     H 5794   8.620  -0.000  12.114 -1.1131 -0.8547  3.1720
  784MOL0     H 5795   8.639   0.109  12.251 -2.2798 -0.9199 -0.4027
  784MOL0     H 5796   8.880  -0.011  12.272  0.5106 -0.0786 -1.7358
  784MOL0     H 5797   8.816  -0.137  12.167 -0.3923 -0.2314 -0.9560
  784MOL0     H 5798   8.734  -0.045  12.446 -0.5928  0.7935 -0.5186
  784MOL0     H 5799   8.779  -0.212  12.403 -4.2612 -2.9802 -1.0039
  784MOL0     H 5800   8.399  -0.004  12.284 -0.8687  2.5263  0.4637
  784MOL0     H 5801   8.238   0.280  12.411 -0.9882  0.9795 -0.8338
  784MOL0     H 5802   8.247   0.160  12.281  0.1330  2.0407 -0.4697
  784MOL0     H 5803   8.124   0.148  12.400  0.8615 -2.6923  2.0964
  784MOL0     H 5804   7.947  -0.080  12.875 -0.5689 -2.8432  4.7435
  784MOL0     H 5805   7.804  -0.015  13.063 -0.4956  0.3973 -2.0902
  784MOL0     H 5806   7.963   0.234  13.387 -1.0963  2.9809  2.1590
  784MOL0     H 5807   7.892   0.338  13.246 -6.2273 -0.1542 -2.1928
  784MOL0     H 5808   7.753   0.365  13.455  0.8807 -0.7926  1.0784
  784MOL0     H 5809   7.671   0.308  13.305 -0.6298 -2.6985  0.4929
  784MOL0     H 5810   7.673   0.175  13.555 -1.0849 -1.6879  0.9121
  784MOL0     H 5811   7.769   0.081  13.452 -1.2678 -1.2716  0.2593
  784MOL0     H 5812   7.597   0.109  13.273 -1.3558 -0.8437  0.0849
  784MOL0     H 5813   7.581  -0.018  13.387 -1.8678 -0.5243  1.5385
  784MOL0     H 5814   7.445   0.257  13.370 -2.2137 -1.2032  0.8533
  784MOL0     H 5815   7.413   0.169  13.520 -0.2900 -0.4882  0.2742
  784MOL0     H 5816   7.347   0.066  13.241 -0.4480  1.5806  0.7212
  784MOL0     H 5817   7.331  -0.015  13.400  1.2827 -1.0497 -1.6605
  784MOL0     H 5818   7.202   0.262  13.326  1.2916  0.3014 -0.4327
  784MOL0     H 5819   7.182   0.178  13.468  0.8990  3.4674 -0.6434
  784MOL0     H 5820   7.115   0.036  13.202 -0.8955  0.1832 -0.1319
  784MOL0     H 5821   7.010   0.150  13.294  0.0412  0.0297  3.0670
  784MOL0     H 5822   8.119   0.251  13.197 -4.1267 -0.3117  2.2682
  784MOL0     H 5823   8.247   0.215  13.000  0.8130  0.8717  2.2930
  784MOL0     H 5824   8.406  -0.052  12.764  1.3267  2.8277  0.4207
  784MOL0     H 5825   8.584  -0.180  12.630 -1.5210 -1.4985  0.3903
  784MOL0     H 5826   8.267   1.501  11.524 -1.9964  1.0463  0.2006
  784MOL0     H 5827   8.148   1.559  11.326  0.0427  0.4613  0.8482
  784MOL0     H 5828   7.933   1.434  10.909  0.9086  0.9534 -1.7209
  784MOL0     H 5829   7.790   1.505  10.732  2.1766 -4.8803  1.5100
  784MOL0     H 5830   7.628   1.683  10.654  0.1567  1.3511 -1.4288
  784MOL0     H 5831   7.613   1.512  10.587  0.2572 -1.0261  3.0548
  784MOL0     H 5832   7.444   1.770  10.567 -1.2943  0.5822  2.0209
  784MOL0     H 5833   7.358   1.620  10.578 -0.0940  1.7895  1.7504
  784MOL0     H 5834   7.394   1.669  10.328  0.4331 -2.1178 -0.9357
  784MOL0     H 5835   7.506   1.537  10.380  3.6295 -0.2967 -0.3973
  784MOL0     H 5836   7.687   1.695  10.406 -1.6821 -1.8195  2.0281
  784MOL0     H 5837   7.572   1.832  10.376 -1.7469 -0.1319 -1.7012
  784MOL0     H 5838   7.679   1.710   9.995 -1.2586 -3.5740 -0.9395
  784MOL0     H 5839   7.457   1.552  11.002  0.9789  1.2228 -0.3095
  784MOL0     H 5840   7.625   1.508  11.191  1.9624  3.5803  0.1608
  785MOL0     O 5841   4.646   9.941   0.811 -0.0981 -0.0498 -0.7107
  785MOL0     C 5842   4.749   9.932   0.881 -0.3308  1.0476  0.3140
  785MOL0     O 5843   4.832  10.033   0.931  0.6397 -0.5109  0.5798
  785MOL0     C 5844   4.827  10.146   0.858 -0.1740  0.2836  0.6523
  785MOL0     C 5845   4.895  10.165   0.734  0.8252 -0.9927  0.0343
  785MOL0     C 5846   4.891  10.284   0.662  0.0641  1.0483  0.3148
  785MOL0     C 5847   4.823  10.389   0.707  0.5669  0.1443  0.3162
  785MOL0     O 5848   4.814  10.511   0.638  0.4225  0.1606  0.1821
  785MOL0     C 5849   4.717  10.508   0.532  0.3053  0.2905 -0.6520
  785MOL0     C 5850   4.713  10.625   0.449 -0.7854 -1.3380  0.0712
  785MOL0     C 5851   4.855  10.622   0.377 -0.0885 -0.7308 -0.2183
  785MOL0     C 5852   4.873  10.729   0.273  0.5590  0.2036  0.0776
  785MOL0     C 5853   5.020  10.760   0.245  0.1277  0.6378  0.7353
  785MOL0     C 5854   5.091  10.668   0.149 -0.0228  0.2224 -0.6493
  785MOL0     C 5855   5.239  10.701   0.146 -0.6459  0.3728 -0.6646
  785MOL0     C 5856   5.319  10.610   0.055 -0.5018 -0.4597  0.0012
  785MOL0     N 5857   5.342  10.664  -0.081 -0.4829  0.6631 -0.8327
  785MOL0     C 5858   5.456  10.646  -0.156  0.0194  0.2157  0.4062
  785MOL0     C 5859   5.431  10.690  -0.288 -0.0846  0.0696  0.6631
  785MOL0     C 5860   5.531  10.698  -0.410 -0.1741  0.1574 -0.1138
  785MOL0     C 5861   5.647  10.796  -0.384  0.0082  0.0037  0.3637
  785MOL0     C 5862   5.748  10.788  -0.502  0.1585  0.0667  0.1229
  785MOL0     C 5863   5.828  10.913  -0.480 -0.7014  0.3149 -0.2506
  785MOL0     O 5864   5.926  10.894  -0.578 -0.4128 -0.2047  1.4694
  785MOL0     C 5865   6.023  10.989  -0.584 -0.4717  0.3854 -0.0725
  785MOL0     C 5866   6.038  11.108  -0.512  0.0186 -0.4195  0.1536
  785MOL0     C 5867   6.137  11.216  -0.531  1.5405  0.9723  0.6128
  785MOL0     C 5868   6.130  11.348  -0.457  0.0101  0.1067  0.0278
  785MOL0     C 5869   6.229  11.184  -0.632 -0.0794  0.1731 -0.7505
  785MOL0     C 5870   6.341  11.286  -0.661 -0.2793  1.5476  0.0690
  785MOL0     O 5871   6.377  11.288  -0.796 -0.6217  0.1264 -0.2765
  785MOL0     C 5872   6.482  11.363  -0.842 -0.8796  1.0273  0.2880
  785MOL0     C 5873   6.565  11.326  -0.955 -0.0484  0.2413  0.6027
  785MOL0     C 5874   6.682  11.390  -1.001 -0.5593  0.2583  0.5745
  785MOL0     C 5875   6.733  11.496  -0.925  1.0263  0.1096 -1.0464
  785MOL0     O 5876   6.856  11.543  -0.966  0.3538  0.1542 -0.3679
  785MOL0     C 5877   6.915  11.648  -0.893  0.3372 -0.4702 -0.4585
  785MOL0     C 5878   7.045  11.674  -0.969  0.0976  0.5422  0.1635
  785MOL0     C 5879   7.128  11.771  -0.892 -0.2222 -1.3061  0.2691
  785MOL0     C 5880   7.244  11.835  -0.978  0.7052  0.6719  0.0744
  785MOL0     C 5881   7.358  11.879  -0.884 -0.0158 -1.0490  0.4478
  785MOL0     C 5882   7.444  11.976  -0.957  0.2674 -0.0148  0.8404
  785MOL0     C 5883   7.566  12.034  -0.867 -0.1203  0.5854 -0.6732
  785MOL0     C 5884   7.683  12.096  -0.946 -0.4193  0.9398  1.7208
  785MOL0    Cl 5885   7.620  12.229  -1.051 -0.5316  0.1044  0.1902
  785MOL0     C 5886   6.653  11.540  -0.812  0.2893 -0.3673  0.0616
  785MOL0     C 5887   6.537  11.471  -0.776  0.2693  0.3389 -1.0995
  785MOL0     O 5888   6.380  11.354  -0.564  0.0451 -0.2256  0.5541
  785MOL0     C 5889   6.214  11.065  -0.709 -0.2798  0.1236  0.7000
  785MOL0     C 5890   6.107  10.970  -0.687  0.0584 -0.6612  0.6845
  785MOL0     N 5891   5.304  10.734  -0.274  0.3620 -0.0811  0.7133
  785MOL0     N 5892   5.252  10.722  -0.154 -0.4137  0.8306 -0.6046
  785MOL0     C 5893   4.745  10.368   0.825  0.0604 -0.1278 -0.1250
  785MOL0     C 5894   4.756  10.261   0.910  0.3691  0.0389 -0.4734
  785MOL0     C 5895   4.802   9.798   0.928 -0.2349  0.2098  0.0753
  785MOL0     C 5896   4.728   9.681   0.901 -1.0670 -0.0295 -0.3267
  785MOL0     C 5897   4.785   9.556   0.946  0.6437  0.1756  1.1284
  785MOL0     C 5898   4.903   9.549   1.028  0.4884 -0.3279 -0.2927
  785MOL0     O 5899   4.959   9.426   1.074 -0.0263 -0.6254 -0.1841
  785MOL0     C 5900   4.871   9.319   1.064  0.3886  0.1093 -0.4190
  785MOL0     C 5901   4.945   9.208   1.140 -0.4413  0.5237  0.2685
  785MOL0     C 5902   4.884   9.068   1.138  0.2781  0.5522 -0.0879
  785MOL0     C 5903   4.940   8.985   1.254  0.6326 -0.1592 -0.6620
  785MOL0     C 5904   5.089   8.994   1.261 -0.0428  0.3104 -0.1427
  785MOL0     C 5905   5.205   9.010   1.274 -0.0313  0.5849 -0.1336
  785MOL0     C 5906   4.971   9.670   1.055 -0.4834  0.0991  0.2918
  785MOL0     C 5907   4.908   9.790   1.017 -0.1481  0.3938 -0.3172
  785MOL0     H 5908   4.964  10.087   0.702  0.9843 -0.8313 -0.0203
  785MOL0     H 5909   4.950  10.307   0.573  1.0469 -1.1094  0.3494
  785MOL0     H 5910   4.703  10.412   0.481  0.4859  0.8910 -1.8479
  785MOL0     H 5911   4.616  10.514   0.574 -0.1856  0.5935 -1.8279
  785MOL0     H 5912   4.636  10.630   0.372  2.2171 -3.3242 -3.4026
  785MOL0     H 5913   4.707  10.705   0.523 -0.5593 -0.4160 -0.8835
  785MOL0     H 5914   4.932  10.639   0.453 -0.4164  3.1075 -0.5464
  785MOL0     H 5915   4.865  10.524   0.329  0.1745 -0.2644 -1.1379
  785MOL0     H 5916   4.819  10.701   0.182 -1.3839  1.0682  0.8979
  785MOL0     H 5917   4.829  10.826   0.300  0.4941  1.2358 -3.2395
  785MOL0     H 5918   5.040  10.862   0.213  0.2770  0.3322 -0.1833
  785MOL0     H 5919   5.060  10.751   0.346  0.0641 -1.2665  0.6331
  785MOL0     H 5920   5.058  10.565   0.165 -2.5311  1.2175  1.2676
  785MOL0     H 5921   5.070  10.699   0.046  1.4364 -0.1656 -1.0890
  785MOL0     H 5922   5.250  10.807   0.121 -0.8434 -0.3122 -4.2077
  785MOL0     H 5923   5.288  10.681   0.242 -1.7870  0.9388  0.0606
  785MOL0     H 5924   5.275  10.515   0.025  0.6536 -1.3947  1.1424
  785MOL0     H 5925   5.405  10.573   0.113 -0.4170 -0.6649 -0.2533
  785MOL0     H 5926   5.545  10.593  -0.123  0.5853 -0.1781 -1.6523
  785MOL0     H 5927   5.569  10.595  -0.419  2.2860  1.0476 -0.7169
  785MOL0     H 5928   5.478  10.722  -0.502 -3.1991 -1.7545  0.9611
  785MOL0     H 5929   5.704  10.777  -0.292  2.4817  0.3345 -0.9991
  785MOL0     H 5930   5.592  10.890  -0.379 -0.7023 -0.4343  1.0713
  785MOL0     H 5931   5.699  10.806  -0.598  2.4025  1.4365 -0.8512
  785MOL0     H 5932   5.794  10.689  -0.503  0.0206  0.0027 -0.0003
  785MOL0     H 5933   5.874  10.924  -0.381 -1.6984  2.4023  0.0269
  785MOL0     H 5934   5.778  11.005  -0.510 -0.0254  0.2590 -1.6366
  785MOL0     H 5935   5.974  11.130  -0.427 -0.1952 -1.6163  0.3200
  785MOL0     H 5936   6.158  11.427  -0.527 -1.1768  0.3010 -0.2478
  785MOL0     H 5937   6.025  11.377  -0.447 -0.3260 -0.8343 -0.6312
  785MOL0     H 5938   6.185  11.360  -0.363  1.9223  3.4302 -1.3576
  785MOL0     H 5939   6.546  11.235  -1.012 -0.6602  1.4449 -1.1713
  785MOL0     H 5940   6.735  11.355  -1.089 -0.6450 -0.4383  0.7931
  785MOL0     H 5941   6.852  11.736  -0.901 -1.9805 -1.7277  2.2414
  785MOL0     H 5942   6.928  11.615  -0.789 -3.1354 -0.6301  0.0445
  785MOL0     H 5943   7.091  11.578  -0.993 -1.0047  0.0617 -0.1064
  785MOL0     H 5944   7.024  11.718  -1.067 -0.5375 -1.2215 -0.5225
  785MOL0     H 5945   7.167  11.723  -0.801  2.3503 -1.2494 -0.7372
  785MOL0     H 5946   7.061  11.851  -0.859  1.8041 -0.2813  2.1835
  785MOL0     H 5947   7.271  11.748  -1.039 -0.5132 -1.2033  2.0693
  785MOL0     H 5948   7.193  11.906  -1.044  0.8574 -0.7452 -1.6552
  785MOL0     H 5949   7.428  11.797  -0.865  1.9251  0.8976  2.2356
  785MOL0     H 5950   7.334  11.918  -0.784  2.9007 -0.9124  1.1932
  785MOL0     H 5951   7.471  11.935  -1.054 -1.1863 -2.5723  1.4191
  785MOL0     H 5952   7.382  12.064  -0.978  3.1990  2.1253  0.5585
  785MOL0     H 5953   7.620  11.955  -0.812  0.3752  1.1692 -0.3100
  785MOL0     H 5954   7.522  12.106  -0.798 -0.0577  0.8078 -0.8643
  785MOL0     H 5955   7.732  12.021  -1.008  1.3936  0.6988  3.3791
  785MOL0     H 5956   7.761  12.141  -0.884  1.3172  1.2721 -0.5870
  785MOL0     H 5957   6.681  11.627  -0.752 -2.4872 -0.9069  2.3644
  785MOL0     H 5958   6.488  11.529  -0.698 -0.5568 -0.2089 -1.2002
  785MOL0     H 5959   6.274  11.055  -0.798 -1.9929 -2.5309 -0.3071
  785MOL0     H 5960   6.096  10.890  -0.760 -0.2358 -2.7443  2.8920
  785MOL0     H 5961   4.679  10.451   0.848 -0.3839 -0.2247 -0.9892
  785MOL0     H 5962   4.719  10.267   1.011  2.3301 -1.1902  0.3801
  785MOL0     H 5963   4.632   9.691   0.851 -0.8684 -0.3640 -0.7917
  785MOL0     H 5964   4.735   9.466   0.913  1.3016 -0.2856  1.3635
  785MOL0     H 5965   4.776   9.347   1.110  0.8078 -0.3936  0.8123
  785MOL0     H 5966   4.867   9.288   0.959  1.9686 -2.9667  0.3053
  785MOL0     H 5967   4.954   9.240   1.245 -0.8358  1.1264  0.1259
  785MOL0     H 5968   5.040   9.192   1.090 -2.2651 -4.4337 -2.2195
  785MOL0     H 5969   4.892   9.009   1.046  1.1097 -0.0647  0.3671
  785MOL0     H 5970   4.779   9.087   1.160  1.0546  2.0504  2.7895
  785MOL0     H 5971   4.914   8.880   1.241 -1.1900  0.0408  0.9121
  785MOL0     H 5972   4.900   9.020   1.350 -2.9427 -4.6992 -0.1509
  785MOL0     H 5973   5.311   9.026   1.280  0.5860 -3.1283  1.6687
  785MOL0     H 5974   5.063   9.664   1.112 -0.9145 -1.8486  0.8474
  785MOL0     H 5975   4.964   9.881   1.035 -1.1099  0.9291 -0.0078
  786MOL0     O 5976   2.762   8.593   5.345  0.4188 -0.6582  0.5600
  786MOL0     C 5977   2.812   8.496   5.288  1.2826 -0.1100  0.2740
  786MOL0     O 5978   2.923   8.505   5.204 -0.6175 -0.1649 -1.1238
  786MOL0     C 5979   2.955   8.616   5.134  0.0553 -0.3165 -0.0597
  786MOL0     C 5980   2.947   8.745   5.164 -0.3414  0.6300  0.4655
  786MOL0     C 5981   2.996   8.847   5.088 -0.5120 -0.0248 -0.2036
  786MOL0     C 5982   3.038   8.820   4.955 -0.1690  0.5802 -1.2501
  786MOL0     O 5983   3.072   8.912   4.866 -0.4397  0.7819 -0.3027
  786MOL0     C 5984   3.116   9.047   4.909  0.5925 -0.2562  0.7755
  786MOL0     C 5985   2.997   9.150   4.907 -0.5538  0.5725 -0.5982
  786MOL0     C 5986   2.964   9.193   4.755  0.2760 -0.0262 -0.3905
  786MOL0     C 5987   2.817   9.245   4.735 -0.1894  0.0857 -0.4345
  786MOL0     C 5988   2.712   9.148   4.691  0.1903 -0.0713  0.3999
  786MOL0     C 5989   2.756   9.078   4.559 -0.6551 -0.3393 -0.5758
  786MOL0     C 5990   2.633   9.023   4.498  0.1474  0.0128  0.6369
  786MOL0     C 5991   2.664   8.975   4.354 -0.3660 -0.0247  0.9077
  786MOL0     N 5992   2.553   8.900   4.309  0.3951 -0.5639 -0.1595
  786MOL0     C 5993   2.552   8.767   4.296  0.5158  0.8217 -0.5631
  786MOL0     C 5994   2.446   8.741   4.210 -0.3947 -1.2392 -1.0506
  786MOL0     C 5995   2.414   8.608   4.163 -0.1483  0.7459 -0.1047
  786MOL0     C 5996   2.374   8.519   4.289  0.5063 -0.5256 -0.5403
  786MOL0     C 5997   2.242   8.571   4.348  1.1176 -0.6216  1.7418
  786MOL0     C 5998   2.116   8.554   4.263  0.4250 -0.2901 -0.5380
  786MOL0     O 5999   2.121   8.412   4.223  0.6091  0.6739  0.1359
  786MOL0     C 6000   2.000   8.346   4.197  0.1932 -1.1503 -0.1963
  786MOL0     C 6001   2.007   8.207   4.187  0.6150  0.0205  0.7634
  786MOL0     C 6002   1.893   8.130   4.149  0.2147  0.4794 -0.1255
  786MOL0     C 6003   1.916   7.978   4.155  0.0881 -0.0986 -0.3276
  786MOL0     C 6004   1.773   8.196   4.101 -0.4136  0.5740  0.2530
  786MOL0     C 6005   1.660   8.123   4.051 -1.0473  0.4239  0.1269
  786MOL0     O 6006   1.536   8.181   4.060 -0.3574 -0.0070  1.0314
  786MOL0     C 6007   1.420   8.116   4.011 -0.4050  0.1372  0.0397
  786MOL0     C 6008   1.397   8.093   3.870  0.6884  0.3926 -0.5836
  786MOL0     C 6009   1.283   8.034   3.822  1.2702  0.5863 -0.8173
  786MOL0     C 6010   1.187   7.993   3.915  0.4519 -0.3537  0.6214
  786MOL0     O 6011   1.076   7.947   3.848 -0.2219 -0.3230 -0.0485
  786MOL0     C 6012   0.967   8.039   3.876 -1.4449 -0.3849 -0.2002
  786MOL0     C 6013   0.852   7.952   3.937 -0.4218 -1.2311  0.2513
  786MOL0     C 6014   0.732   8.024   3.995  0.6305 -0.1262  0.1571
  786MOL0     C 6015   0.679   7.982   4.140  0.3005 -0.2587 -0.1268
  786MOL0     C 6016   0.551   8.052   4.170 -0.8670  0.0176 -0.0031
  786MOL0     C 6017   0.529   8.067   4.324  0.6060  0.3829 -0.1249
  786MOL0     C 6018   0.421   8.163   4.363  0.5968  0.2304 -0.0138
  786MOL0     C 6019   0.412   8.170   4.504  0.9485 -0.6272  0.1340
  786MOL0    Cl 6020   0.252   8.267   4.526 -0.2590  0.4389  0.2915
  786MOL0     C 6021   1.208   8.013   4.058 -0.2260 -0.3067 -0.3807
  786MOL0     C 6022   1.323   8.073   4.107 -0.5796 -0.1893  0.9000
  786MOL0     O 6023   1.687   8.012   4.000  0.2368 -0.0238  0.7284
  786MOL0     C 6024   1.770   8.339   4.108 -1.4550 -0.3839  0.0380
  786MOL0     C 6025   1.879   8.411   4.151 -0.5250 -0.0586  0.0355
  786MOL0     N 6026   2.377   8.862   4.205  0.2195  0.3894  0.4568
  786MOL0     N 6027   2.435   8.953   4.263 -0.1945  0.5673 -1.3636
  786MOL0     C 6028   3.040   8.686   4.917  0.0692 -0.3739  0.3894
  786MOL0     C 6029   2.998   8.592   5.005  1.2278  0.3677  0.2968
  786MOL0     C 6030   2.774   8.365   5.347  0.0345 -0.6649 -0.1728
  786MOL0     C 6031   2.822   8.245   5.282  1.2471  0.1220  0.6405
  786MOL0     C 6032   2.786   8.117   5.325 -0.9954  0.1863  0.9466
  786MOL0     C 6033   2.694   8.100   5.426  0.2435 -1.0849  0.5478
  786MOL0     O 6034   2.644   7.984   5.478 -0.4677  0.7667  0.3268
  786MOL0     C 6035   2.699   7.855   5.434  0.9994  0.2553  0.2404
  786MOL0     C 6036   2.635   7.737   5.509 -0.4993 -0.6604 -0.4016
  786MOL0     C 6037   2.501   7.702   5.454  0.3681 -0.6288  0.1392
  786MOL0     C 6038   2.434   7.583   5.521 -0.1045 -0.5385  0.8348
  786MOL0     C 6039   2.475   7.454   5.472  0.8449 -0.3927  0.0884
  786MOL0     C 6040   2.513   7.357   5.420 -0.6591 -0.3238  0.3422
  786MOL0     C 6041   2.645   8.213   5.486  0.5890 -0.0907 -0.6010
  786MOL0     C 6042   2.692   8.346   5.458  1.0065  0.6271  1.1816
  786MOL0     H 6043   2.913   8.782   5.260  1.2836  2.3364  0.4405
  786MOL0     H 6044   3.001   8.947   5.130  0.5811 -0.8896  1.8822
  786MOL0     H 6045   3.152   9.049   5.012 -0.4539 -2.5100  1.2430
  786MOL0     H 6046   3.196   9.084   4.844  1.8642 -0.0793  2.3732
  786MOL0     H 6047   2.906   9.104   4.946  0.5115  0.1690  1.5856
  786MOL0     H 6048   3.021   9.235   4.971 -2.2138 -0.0134  0.8740
  786MOL0     H 6049   3.027   9.278   4.726 -1.2197  0.2941 -3.0307
  786MOL0     H 6050   2.982   9.114   4.681 -1.8141 -2.9770  2.0198
  786MOL0     H 6051   2.784   9.295   4.827 -1.8278 -1.5871 -0.0575
  786MOL0     H 6052   2.810   9.324   4.659  0.9368 -0.7725 -1.4678
  786MOL0     H 6053   2.712   9.064   4.761  3.2195 -0.5870 -0.0838
  786MOL0     H 6054   2.619   9.203   4.676  0.1885 -0.0999  0.3087
  786MOL0     H 6055   2.804   9.158   4.501  0.4259 -1.0875 -0.7341
  786MOL0     H 6056   2.835   9.006   4.581 -2.2876 -1.9266  0.3647
  786MOL0     H 6057   2.592   8.950   4.570  0.0620  0.9933  1.6121
  786MOL0     H 6058   2.565   9.108   4.488  0.3863  0.2087  0.6640
  786MOL0     H 6059   2.759   8.921   4.349  1.7285  3.4283 -0.8705
  786MOL0     H 6060   2.677   9.063   4.290  0.1038 -2.0138 -1.9066
  786MOL0     H 6061   2.627   8.693   4.321 -0.1297  0.5084  0.5483
  786MOL0     H 6062   2.334   8.603   4.089 -1.8313  1.8098  1.5426
  786MOL0     H 6063   2.503   8.562   4.119 -1.8903  0.2211 -3.3486
  786MOL0     H 6064   2.451   8.523   4.366 -0.5096 -0.4255  0.4956
  786MOL0     H 6065   2.351   8.414   4.267 -1.8427  0.0110 -0.9467
  786MOL0     H 6066   2.255   8.673   4.385  1.6049  1.8933 -4.2353
  786MOL0     H 6067   2.227   8.502   4.431  0.8532 -1.2806  1.1641
  786MOL0     H 6068   2.116   8.620   4.176  0.1105  0.1907 -0.1751
  786MOL0     H 6069   2.026   8.574   4.322 -0.4792  2.0325 -2.5510
  786MOL0     H 6070   2.100   8.150   4.189  0.4091 -0.2841  2.0214
  786MOL0     H 6071   1.938   7.943   4.053 -1.4078 -3.9687  0.5126
  786MOL0     H 6072   1.988   7.953   4.233 -0.9622  0.2052  0.7542
  786MOL0     H 6073   1.825   7.927   4.188  1.0938 -0.7026  1.6594
  786MOL0     H 6074   1.469   8.133   3.800 -0.1578  4.2925  0.5542
  786MOL0     H 6075   1.264   8.012   3.717 -0.1506 -0.5896 -0.3392
  786MOL0     H 6076   0.997   8.110   3.953  2.7095 -0.3780 -1.6208
  786MOL0     H 6077   0.945   8.090   3.782 -0.2560 -0.1073 -0.3421
  786MOL0     H 6078   0.807   7.906   3.849 -0.8941 -0.7608  0.2439
  786MOL0     H 6079   0.877   7.876   4.011 -1.5619  0.9832  3.1190
  786MOL0     H 6080   0.647   8.010   3.927  0.2794 -0.3526  0.6374
  786MOL0     H 6081   0.759   8.129   4.006 -2.3206  0.7467 -0.1050
  786MOL0     H 6082   0.677   7.873   4.145 -0.0204 -0.3720 -2.1467
  786MOL0     H 6083   0.752   8.016   4.215 -0.6575 -1.1385  1.2656
  786MOL0     H 6084   0.472   8.002   4.112  0.2139  0.1574 -1.6555
  786MOL0     H 6085   0.550   8.157   4.142  2.1110 -0.2606 -1.5275
  786MOL0     H 6086   0.495   7.967   4.350  2.4946 -0.3771 -0.4380
  786MOL0     H 6087   0.625   8.076   4.376 -0.1711 -2.6845  2.1613
  786MOL0     H 6088   0.329   8.119   4.323  0.7271 -0.7405  0.7239
  786MOL0     H 6089   0.442   8.264   4.325  0.0818 -0.0700 -1.1577
  786MOL0     H 6090   0.497   8.228   4.541  0.7955  1.6347 -2.7156
  786MOL0     H 6091   0.421   8.081   4.566 -0.4320 -0.5434  0.4884
  786MOL0     H 6092   1.127   7.982   4.122  0.3447 -1.1572 -0.0527
  786MOL0     H 6093   1.350   8.089   4.211 -0.9206 -0.4565  1.0312
  786MOL0     H 6094   1.674   8.381   4.080 -0.4863  0.5494 -2.1716
  786MOL0     H 6095   1.891   8.518   4.167  3.5028 -0.2919 -0.3544
  786MOL0     H 6096   3.087   8.656   4.824 -1.3959 -0.2856 -0.4171
  786MOL0     H 6097   3.026   8.488   4.987  0.2583 -0.3654  2.6458
  786MOL0     H 6098   2.895   8.249   5.202 -1.5230  2.4480 -2.0358
  786MOL0     H 6099   2.839   8.039   5.271 -5.7588 -1.1426 -2.4620
  786MOL0     H 6100   2.701   7.845   5.326  2.4568  1.5298  0.1018
  786MOL0     H 6101   2.805   7.850   5.460  1.2221 -1.2786 -0.8748
  786MOL0     H 6102   2.641   7.756   5.617  1.4112 -1.3285 -0.3411
  786MOL0     H 6103   2.705   7.652   5.508 -0.7867 -0.9265  0.8674
  786MOL0     H 6104   2.501   7.684   5.346 -2.6751 -0.0934 -0.0373
  786MOL0     H 6105   2.442   7.793   5.469  3.5164  1.2407  2.3595
  786MOL0     H 6106   2.327   7.597   5.506 -0.0893 -2.8006 -2.3000
  786MOL0     H 6107   2.467   7.583   5.626  0.6964 -1.6959  0.6002
  786MOL0     H 6108   2.563   7.269   5.384  3.9374  1.5168  1.5857
  786MOL0     H 6109   2.575   8.209   5.569  1.7603  0.7624  0.4579
  786MOL0     H 6110   2.667   8.436   5.512 -2.3394  1.1143 -0.8955
  787MOL0     O 6111   1.976   7.824   4.835 -0.2504  0.8264  0.5200
  787MOL0     C 6112   1.999   7.886   4.938 -0.3471  0.4182 -0.7039
  787MOL0     O 6113   2.061   7.840   5.050  0.4716  0.0681  0.0724
  787MOL0     C 6114   2.070   7.704   5.083 -0.4767 -0.3130 -0.8904
  787MOL0     C 6115   2.010   7.595   5.025  0.5060  0.2549  0.0743
  787MOL0     C 6116   2.028   7.470   5.080 -0.8236 -0.3188  0.3569
  787MOL0     C 6117   2.112   7.448   5.190  1.0734  0.4432  0.3458
  787MOL0     O 6118   2.135   7.306   5.213  1.0017 -0.7498 -0.8454
  787MOL0     C 6119   2.158   7.275   5.352  0.4638  0.2656  0.1398
  787MOL0     C 6120   2.233   7.148   5.365 -0.5511  0.1533  0.9493
  787MOL0     C 6121   2.261   7.106   5.510 -0.1185 -0.4705  0.3958
  787MOL0     C 6122   2.152   7.102   5.617  0.9262  0.5178 -0.6013
  787MOL0     C 6123   2.210   7.040   5.740 -0.7692 -0.2165  0.1579
  787MOL0     C 6124   2.094   6.985   5.833  0.4723  0.5210 -0.7876
  787MOL0     C 6125   2.161   6.928   5.965 -0.4234  0.3703  0.4586
  787MOL0     C 6126   2.212   6.785   5.964 -0.6906 -0.1407 -0.1675
  787MOL0     N 6127   2.228   6.727   6.100  0.4268  0.1622  0.2807
  787MOL0     C 6128   2.339   6.747   6.186  0.4573 -0.3836  0.2291
  787MOL0     C 6129   2.294   6.719   6.301  0.5577  1.1315  1.0136
  787MOL0     C 6130   2.370   6.726   6.426  0.0244  0.8165 -0.0153
  787MOL0     C 6131   2.355   6.873   6.472 -0.6926 -0.3869 -0.8156
  787MOL0     C 6132   2.427   6.985   6.397  0.4148 -0.5491  0.5220
  787MOL0     C 6133   2.329   7.082   6.335  0.5353 -0.5019  0.2384
  787MOL0     O 6134   2.407   7.179   6.271  0.1989  0.3695  0.8191
  787MOL0     C 6135   2.350   7.280   6.197 -0.1583 -0.3068 -0.0182
  787MOL0     C 6136   2.213   7.310   6.204  0.2319 -0.0902  0.1590
  787MOL0     C 6137   2.134   7.390   6.115 -0.3027  0.4873  0.8172
  787MOL0     C 6138   1.998   7.425   6.153  1.3720 -0.0355  0.3102
  787MOL0     C 6139   2.200   7.431   5.997  0.9747 -0.4796 -0.2273
  787MOL0     C 6140   2.124   7.518   5.905 -0.3425  0.8641 -0.7648
  787MOL0     O 6141   2.110   7.649   5.927  0.1191 -0.4810 -0.5210
  787MOL0     C 6142   1.998   7.710   5.865 -1.5200 -0.0312 -0.4174
  787MOL0     C 6143   1.996   7.725   5.723  0.1308  0.3808  0.0122
  787MOL0     C 6144   1.885   7.781   5.656 -0.7249  0.4519 -0.7197
  787MOL0     C 6145   1.778   7.832   5.734  0.2563  1.6379  0.4934
  787MOL0     O 6146   1.671   7.899   5.678 -0.1264  0.0206 -0.6142
  787MOL0     C 6147   1.573   7.798   5.624 -0.5252 -0.2335 -0.6065
  787MOL0     C 6148   1.447   7.857   5.547 -1.7428  0.0555  0.0395
  787MOL0     C 6149   1.352   7.943   5.631  0.3138 -0.3440 -0.3819
  787MOL0     C 6150   1.208   7.948   5.577 -0.2983 -0.4306  0.3014
  787MOL0     C 6151   1.090   7.916   5.667  0.4686 -0.0244  0.4530
  787MOL0     C 6152   0.947   7.899   5.604  0.6291 -0.2314 -0.4766
  787MOL0     C 6153   0.939   7.848   5.457  0.6579  0.4114  0.2980
  787MOL0     C 6154   0.794   7.822   5.418 -0.3176 -0.3282  0.6406
  787MOL0    Cl 6155   0.797   7.751   5.255  0.3377 -0.1772 -0.1923
  787MOL0     C 6156   1.778   7.821   5.877 -1.1958  0.5158  0.3344
  787MOL0     C 6157   1.883   7.755   5.941 -0.2139 -0.5603 -0.2293
  787MOL0     O 6158   2.091   7.461   5.802  1.0435 -0.1605 -0.0507
  787MOL0     C 6159   2.343   7.408   5.982  0.6247 -0.2488 -0.3760
  787MOL0     C 6160   2.412   7.328   6.081  0.2074 -1.0849 -0.2671
  787MOL0     N 6161   2.163   6.672   6.283 -0.3671  0.5445  0.2378
  787MOL0     N 6162   2.125   6.667   6.164  0.1994 -1.0559 -0.9397
  787MOL0     C 6163   2.180   7.559   5.233 -0.2124 -0.0128 -1.0391
  787MOL0     C 6164   2.155   7.693   5.193  0.6454 -0.6846 -0.1788
  787MOL0     C 6165   1.954   8.033   4.944  1.0852  1.1319  0.1806
  787MOL0     C 6166   1.861   8.086   4.851  0.1490  0.3951  0.4726
  787MOL0     C 6167   1.829   8.225   4.848 -0.1354  0.7364  0.4150
  787MOL0     C 6168   1.878   8.316   4.940  0.3477  0.1190 -0.2580
  787MOL0     O 6169   1.859   8.451   4.944  0.6076  0.2317 -0.0726
  787MOL0     C 6170   1.735   8.496   4.880  0.1783 -0.4176 -0.1481
  787MOL0     C 6171   1.712   8.647   4.886 -0.2264  0.6066  0.4425
  787MOL0     C 6172   1.720   8.693   5.027  0.5921  0.1992  1.3068
  787MOL0     C 6173   1.701   8.842   5.039  0.1487 -0.2382  0.0652
  787MOL0     C 6174   1.581   8.886   4.984 -0.0057  0.4825 -0.0841
  787MOL0     C 6175   1.463   8.910   4.954 -0.5726 -0.0744  0.6577
  787MOL0     C 6176   1.971   8.258   5.037  0.6461 -1.1418  0.7598
  787MOL0     C 6177   2.022   8.124   5.020  0.1360 -0.7266 -1.5789
  787MOL0     H 6178   1.939   7.601   4.944  0.2433 -1.0704  0.1841
  787MOL0     H 6179   1.969   7.390   5.037 -3.5468  1.8682 -0.2685
  787MOL0     H 6180   2.218   7.352   5.401  0.0572  0.7484 -0.1196
  787MOL0     H 6181   2.063   7.256   5.402  1.9562  0.4647  3.3250
  787MOL0     H 6182   2.175   7.061   5.332  3.2741 -2.1130 -0.3764
  787MOL0     H 6183   2.324   7.160   5.306 -0.2423 -0.8474  1.2025
  787MOL0     H 6184   2.286   7.000   5.499 -3.4423 -1.2525 -0.7271
  787MOL0     H 6185   2.338   7.164   5.562 -1.1799  0.4677  0.9883
  787MOL0     H 6186   2.095   7.194   5.635  0.4114  0.1365 -0.2737
  787MOL0     H 6187   2.084   7.028   5.573  1.8004  0.8013 -2.5595
  787MOL0     H 6188   2.267   6.950   5.713 -1.2228 -0.9252  1.4866
  787MOL0     H 6189   2.264   7.119   5.792  2.2973 -2.5359  0.7499
  787MOL0     H 6190   2.032   7.072   5.856  1.1455  0.4356  1.5803
  787MOL0     H 6191   2.037   6.903   5.788 -1.1406  0.2986  1.5002
  787MOL0     H 6192   2.248   6.987   5.994  2.2998 -2.3332 -1.5786
  787MOL0     H 6193   2.088   6.943   6.045 -2.2908  1.4514 -1.3412
  787MOL0     H 6194   2.306   6.796   5.911 -0.3981  0.0180  0.3772
  787MOL0     H 6195   2.142   6.713   5.920 -1.6622  0.7223 -0.0826
  787MOL0     H 6196   2.426   6.798   6.145 -1.2633  1.1763 -1.7109
  787MOL0     H 6197   2.323   6.662   6.501  0.1400  1.9963  1.0980
  787MOL0     H 6198   2.476   6.700   6.420 -0.5201 -1.3199 -3.2630
  787MOL0     H 6199   2.404   6.876   6.569 -1.8182 -1.7562 -0.1803
  787MOL0     H 6200   2.247   6.891   6.466 -0.3716  3.5027  1.7844
  787MOL0     H 6201   2.484   6.944   6.313  0.3312  1.6095 -0.6550
  787MOL0     H 6202   2.500   7.037   6.459  1.3135 -1.6130  0.3971
  787MOL0     H 6203   2.280   7.128   6.421  2.4432 -0.0326  1.1399
  787MOL0     H 6204   2.256   7.034   6.270  0.2258  1.9359 -1.3480
  787MOL0     H 6205   2.161   7.279   6.295 -0.7785 -0.1049 -0.4075
  787MOL0     H 6206   1.925   7.345   6.135 -0.8590  2.0750 -0.5226
  787MOL0     H 6207   2.009   7.451   6.259 -0.4729  1.2685  0.2281
  787MOL0     H 6208   1.965   7.524   6.120 -1.1388 -0.0841  2.3428
  787MOL0     H 6209   2.086   7.689   5.674  0.8911 -0.3233  1.8650
  787MOL0     H 6210   1.883   7.797   5.549  2.1533  0.7967 -0.7832
  787MOL0     H 6211   1.618   7.723   5.559 -1.4993 -1.2038 -0.1913
  787MOL0     H 6212   1.527   7.744   5.707  1.5415 -3.8436 -1.6338
  787MOL0     H 6213   1.484   7.895   5.452 -0.8252 -0.7230  0.0642
  787MOL0     H 6214   1.388   7.773   5.508 -2.5162  0.6147  0.0004
  787MOL0     H 6215   1.395   8.043   5.640  0.6230 -0.2127 -2.8077
  787MOL0     H 6216   1.333   7.895   5.728 -1.4321 -1.0338 -1.0255
  787MOL0     H 6217   1.194   8.050   5.541  1.4458 -0.6231 -1.0650
  787MOL0     H 6218   1.204   7.885   5.488  0.1011 -1.4095  0.9530
  787MOL0     H 6219   1.078   7.993   5.744 -1.3128  0.7795 -0.5666
  787MOL0     H 6220   1.112   7.817   5.709  1.1928  0.5845  1.5548
  787MOL0     H 6221   0.895   7.834   5.676  2.3099  0.0371  1.0619
  787MOL0     H 6222   0.913   8.003   5.614 -1.5732 -0.6689 -2.4896
  787MOL0     H 6223   0.985   7.749   5.444  1.4738  0.6193  1.3949
  787MOL0     H 6224   0.991   7.914   5.386 -0.6683  0.3720 -0.7461
  787MOL0     H 6225   0.740   7.917   5.424 -0.3811 -0.4566  2.6692
  787MOL0     H 6226   0.738   7.750   5.479 -2.0718  0.0766 -0.4249
  787MOL0     H 6227   1.709   7.875   5.940 -1.6223  0.5114 -0.1223
  787MOL0     H 6228   1.861   7.736   6.045 -0.8039 -2.0842 -0.6042
  787MOL0     H 6229   2.391   7.448   5.893 -0.9655  2.7936  0.0161
  787MOL0     H 6230   2.518   7.309   6.061  0.1324 -1.2925 -0.4741
  787MOL0     H 6231   2.268   7.530   5.290 -2.0131  0.2129  2.0776
  787MOL0     H 6232   2.205   7.786   5.218  2.5366 -1.8540  0.6181
  787MOL0     H 6233   1.809   8.016   4.786  0.0479  1.2253 -0.3612
  787MOL0     H 6234   1.764   8.254   4.766  0.2617 -2.1046 -1.0189
  787MOL0     H 6235   1.725   8.456   4.779  2.8466 -2.2051  0.1822
  787MOL0     H 6236   1.652   8.448   4.933  0.0655 -0.3311 -0.2450
  787MOL0     H 6237   1.617   8.669   4.837 -0.2484  1.7155  0.9499
  787MOL0     H 6238   1.798   8.699   4.841 -3.1429  2.5586 -3.4129
  787MOL0     H 6239   1.812   8.652   5.070  0.8697  2.3570  2.9201
  787MOL0     H 6240   1.640   8.646   5.087 -0.8759 -1.8258 -1.9507
  787MOL0     H 6241   1.777   8.888   4.976 -0.3191  5.4238  2.9775
  787MOL0     H 6242   1.729   8.878   5.138  1.6088 -0.2716 -0.3176
  787MOL0     H 6243   1.367   8.946   4.925  0.7101  0.3440 -3.8429
  787MOL0     H 6244   2.011   8.329   5.110  0.8401 -1.6681  1.1725
  787MOL0     H 6245   2.109   8.118   5.083 -1.6776  5.5817  2.4695
  788MOL0     O 6246   6.761   3.009   3.226  0.5289 -0.0534 -0.9791
  788MOL0     C 6247   6.813   3.084   3.143 -0.2283  0.0729 -1.2880
  788MOL0     O 6248   6.775   3.216   3.125  1.2355  0.6653 -0.4058
  788MOL0     C 6249   6.688   3.270   3.211  0.6371 -0.6170  1.2344
  788MOL0     C 6250   6.559   3.297   3.160 -0.8945  0.1112  0.3251
  788MOL0     C 6251   6.463   3.358   3.233  0.3614 -0.2372 -0.4110
  788MOL0     C 6252   6.498   3.408   3.363 -0.2162 -0.2865  0.7348
  788MOL0     O 6253   6.416   3.489   3.442 -0.3881 -1.1717 -0.1101
  788MOL0     C 6254   6.270   3.462   3.453 -0.8321  0.2531 -0.4919
  788MOL0     C 6255   6.197   3.588   3.495  0.6387 -1.0103 -0.3318
  788MOL0     C 6256   6.244   3.642   3.627 -0.5440 -0.0852 -0.7727
  788MOL0     C 6257   6.159   3.762   3.681 -0.1284 -0.1384 -0.5024
  788MOL0     C 6258   6.215   3.829   3.809  0.0769 -0.5253  0.5735
  788MOL0     C 6259   6.324   3.941   3.787  0.1387  0.1884 -0.5043
  788MOL0     C 6260   6.368   4.026   3.908  1.0609  0.2550  0.5472
  788MOL0     C 6261   6.249   4.108   3.969 -0.2822 -0.2378  0.7956
  788MOL0     N 6262   6.155   4.178   3.871 -0.3037 -0.0668 -0.7538
  788MOL0     C 6263   6.186   4.268   3.767  0.6972  0.0464 -0.7517
  788MOL0     C 6264   6.085   4.268   3.685  0.0010  0.3583  0.2474
  788MOL0     C 6265   6.084   4.366   3.567 -0.0945  0.0664  0.3152
  788MOL0     C 6266   6.021   4.505   3.596 -0.2362 -0.7531 -0.4621
  788MOL0     C 6267   6.138   4.603   3.622 -1.2698 -0.4594 -0.2106
  788MOL0     C 6268   6.071   4.732   3.687 -0.3691 -0.0263 -0.6925
  788MOL0     O 6269   6.048   4.724   3.829 -0.7319  0.4286 -0.1726
  788MOL0     C 6270   6.012   4.847   3.881 -0.4221  0.0577  0.5454
  788MOL0     C 6271   6.111   4.940   3.918 -0.3335 -0.3422 -0.3505
  788MOL0     C 6272   6.077   5.065   3.978 -0.9574  0.2245  0.8169
  788MOL0     C 6273   6.189   5.148   4.022 -0.0527  0.2608  1.0106
  788MOL0     C 6274   5.937   5.103   3.986 -0.3036  0.0176  0.0081
  788MOL0     C 6275   5.887   5.237   4.012  0.3054  0.6536  0.8068
  788MOL0     O 6276   5.749   5.258   4.008 -0.0568  0.2308 -0.4246
  788MOL0     C 6277   5.683   5.364   4.066  0.8572  0.9727 -0.3945
  788MOL0     C 6278   5.738   5.466   4.145 -0.8232  0.8064 -0.3032
  788MOL0     C 6279   5.662   5.576   4.184 -0.3209  0.2999  0.0821
  788MOL0     C 6280   5.525   5.571   4.159 -0.5166  0.0024 -1.0455
  788MOL0     O 6281   5.456   5.685   4.180  0.0937 -0.3043 -0.0742
  788MOL0     C 6282   5.359   5.673   4.292 -0.1813  0.1896  0.2904
  788MOL0     C 6283   5.302   5.814   4.305 -0.3834  0.8940 -0.1516
  788MOL0     C 6284   5.197   5.848   4.203 -0.7188 -0.2282  1.2396
  788MOL0     C 6285   5.105   5.951   4.274 -0.0421  0.7038 -0.0184
  788MOL0     C 6286   4.988   6.002   4.176  0.4976 -0.6102  0.0777
  788MOL0     C 6287   5.010   6.087   4.053  0.3112  0.6814 -0.5269
  788MOL0     C 6288   5.122   6.201   4.064 -0.1474  0.1213  0.2272
  788MOL0     C 6289   5.106   6.285   3.939  0.4336  1.0113 -0.8978
  788MOL0    Cl 6290   5.201   6.431   3.930 -0.1095 -0.1661  0.1623
  788MOL0     C 6291   5.469   5.464   4.100 -0.5195 -0.6911 -0.2165
  788MOL0     C 6292   5.552   5.367   4.050  0.4991  0.3791 -0.5497
  788MOL0     O 6293   5.966   5.333   4.017  0.1021  0.5747 -0.2155
  788MOL0     C 6294   5.843   5.001   3.963 -1.1427  0.6084 -0.1493
  788MOL0     C 6295   5.882   4.880   3.904  0.9878  0.7758 -0.6338
  788MOL0     N 6296   5.984   4.173   3.723 -0.1368  0.6868  0.1888
  788MOL0     N 6297   6.033   4.129   3.833 -0.0063  1.3695  0.3714
  788MOL0     C 6298   6.625   3.392   3.403  0.7341 -0.5246  0.0671
  788MOL0     C 6299   6.724   3.325   3.328  0.5498 -0.2846  0.1330
  788MOL0     C 6300   6.910   3.017   3.043  0.4061  0.5396  0.3132
  788MOL0     C 6301   7.017   3.078   2.985 -0.5655  0.5489 -0.2288
  788MOL0     C 6302   7.088   3.022   2.882  0.5511  1.6199  0.2030
  788MOL0     C 6303   7.052   2.898   2.829 -0.4057 -0.3626 -0.5175
  788MOL0     O 6304   7.134   2.854   2.731 -0.2913  0.1164 -0.1589
  788MOL0     C 6305   7.088   2.749   2.641 -0.0275  0.3621  0.9821
  788MOL0     C 6306   6.985   2.806   2.544 -0.3944 -0.4254  0.2703
  788MOL0     C 6307   6.941   2.704   2.433 -0.5200  0.0301  0.1741
  788MOL0     C 6308   6.863   2.574   2.486 -0.3252  0.6501  0.3136
  788MOL0     C 6309   6.851   2.474   2.373  0.2769  0.8167 -0.9378
  788MOL0     C 6310   6.869   2.385   2.288 -0.4095  0.0650  0.3979
  788MOL0     C 6311   6.941   2.832   2.890 -0.6834  0.1876  0.3128
  788MOL0     C 6312   6.867   2.897   2.986 -0.3228  0.9556 -0.6484
  788MOL0     H 6313   6.523   3.249   3.069 -1.9126  2.1232 -0.4094
  788MOL0     H 6314   6.365   3.378   3.191  0.1307 -2.5282 -1.1125
  788MOL0     H 6315   6.225   3.427   3.360  1.2207 -3.0960 -0.3926
  788MOL0     H 6316   6.258   3.379   3.524  2.5457  0.0664  0.0175
  788MOL0     H 6317   6.201   3.663   3.414 -0.2914  0.3655  0.8438
  788MOL0     H 6318   6.092   3.561   3.501 -0.4308  2.4778 -0.8988
  788MOL0     H 6319   6.242   3.570   3.709 -1.3641  0.0367 -0.6776
  788MOL0     H 6320   6.348   3.676   3.618 -0.8519  1.0576 -0.2829
  788MOL0     H 6321   6.139   3.838   3.605  0.4739 -0.0088 -0.5301
  788MOL0     H 6322   6.058   3.728   3.708  0.1180 -0.3281  0.1977
  788MOL0     H 6323   6.133   3.882   3.858  0.3051  2.8594 -2.3084
  788MOL0     H 6324   6.258   3.764   3.885  2.3347 -1.2730 -1.2239
  788MOL0     H 6325   6.414   3.884   3.761  0.0932 -0.3169  0.4044
  788MOL0     H 6326   6.295   4.002   3.701  1.0961 -1.2094 -1.8808
  788MOL0     H 6327   6.408   3.955   3.981  1.9431 -0.7179 -0.8410
  788MOL0     H 6328   6.454   4.088   3.880  2.1276 -1.5043 -0.1896
  788MOL0     H 6329   6.285   4.185   4.038  1.3688 -0.1492 -0.1219
  788MOL0     H 6330   6.199   4.031   4.030 -2.5155  1.3133  1.0671
  788MOL0     H 6331   6.269   4.333   3.742 -0.4556  1.0013 -2.2556
  788MOL0     H 6332   6.186   4.385   3.533 -0.7432 -0.5966 -2.1904
  788MOL0     H 6333   6.033   4.322   3.481 -0.8522 -1.4874  1.5029
  788MOL0     H 6334   5.958   4.500   3.685 -1.4190 -1.1596 -1.2911
  788MOL0     H 6335   5.965   4.530   3.506  1.7607  0.0176 -1.5633
  788MOL0     H 6336   6.176   4.634   3.524  1.1243 -1.0153  0.4666
  788MOL0     H 6337   6.225   4.561   3.673  1.7761  3.2891 -1.7330
  788MOL0     H 6338   5.970   4.756   3.652 -0.0081  0.9875 -1.0519
  788MOL0     H 6339   6.134   4.818   3.666 -0.2324  0.3363  1.0765
  788MOL0     H 6340   6.209   4.899   3.896 -0.2132 -0.1466 -0.1791
  788MOL0     H 6341   6.207   5.222   3.943 -3.5147  0.8237  0.5821
  788MOL0     H 6342   6.159   5.199   4.114 -0.3981 -1.1443  1.6881
  788MOL0     H 6343   6.276   5.086   4.044 -0.2123 -0.4805 -0.3017
  788MOL0     H 6344   5.842   5.476   4.173 -1.4528  0.3804  2.4622
  788MOL0     H 6345   5.712   5.664   4.223  2.1584 -0.4694 -1.1239
  788MOL0     H 6346   5.290   5.592   4.270  0.1586  0.4203 -1.8155
  788MOL0     H 6347   5.423   5.641   4.374  0.1777  1.3711  0.4942
  788MOL0     H 6348   5.269   5.809   4.409  0.9312  0.5950  0.2710
  788MOL0     H 6349   5.379   5.890   4.285  0.6802 -0.0024  0.4427
  788MOL0     H 6350   5.141   5.755   4.187  3.0448 -2.6181  0.5922
  788MOL0     H 6351   5.232   5.895   4.110  0.1915 -0.4728  1.4581
  788MOL0     H 6352   5.061   5.903   4.362  3.5337 -0.4082  1.3499
  788MOL0     H 6353   5.156   6.037   4.318 -2.8598  2.8653 -0.6749
  788MOL0     H 6354   4.929   6.065   4.243  0.3912  1.7553 -2.0732
  788MOL0     H 6355   4.935   5.913   4.141  0.7221 -0.5301 -0.4801
  788MOL0     H 6356   5.047   6.029   3.968  0.6539  1.7726 -1.1450
  788MOL0     H 6357   4.913   6.135   4.036  0.7225  1.3272 -1.1236
  788MOL0     H 6358   5.222   6.158   4.054 -0.1101  0.3052 -0.2059
  788MOL0     H 6359   5.125   6.258   4.158  1.9678  0.4406  0.0303
  788MOL0     H 6360   5.001   6.306   3.917  0.2953  0.8156 -0.4346
  788MOL0     H 6361   5.148   6.219   3.862 -0.8025  1.3537 -1.9069
  788MOL0     H 6362   5.363   5.468   4.078 -0.5102  1.1045 -0.1115
  788MOL0     H 6363   5.503   5.297   3.984  2.6459 -1.6787 -0.1058
  788MOL0     H 6364   5.737   5.018   3.976 -1.0623  0.5467  0.5746
  788MOL0     H 6365   5.812   4.800   3.883  0.6373  0.7937  0.4397
  788MOL0     H 6366   6.646   3.430   3.503  1.4001  0.4794 -0.4404
  788MOL0     H 6367   6.825   3.328   3.368 -0.4475 -0.7814  2.9054
  788MOL0     H 6368   7.031   3.179   3.022 -1.1012  0.4239  0.3425
  788MOL0     H 6369   7.174   3.069   2.835  3.9097 -5.1352 -1.6976
  788MOL0     H 6370   7.173   2.717   2.581  0.0585  2.3128 -0.0189
  788MOL0     H 6371   7.039   2.670   2.699 -0.9493 -0.0452 -0.3109
  788MOL0     H 6372   7.031   2.897   2.506  0.8587 -1.0224  0.3251
  788MOL0     H 6373   6.892   2.826   2.598 -1.0356 -1.4940 -0.4038
  788MOL0     H 6374   7.033   2.667   2.386 -1.8547  0.1218 -2.6886
  788MOL0     H 6375   6.874   2.751   2.361 -1.9680  0.8686  2.0043
  788MOL0     H 6376   6.759   2.583   2.518 -0.5229 -1.9390  0.6274
  788MOL0     H 6377   6.915   2.530   2.572  0.8436  3.5245  1.2009
  788MOL0     H 6378   6.894   2.317   2.210 -1.9465 -0.0041 -0.0678
  788MOL0     H 6379   6.914   2.730   2.862 -0.8890 -0.4550  2.6469
  788MOL0     H 6380   6.774   2.850   3.014 -0.2529  1.4252  0.3981
  789MOL0     O 6381   8.379   0.214   5.712  0.3398 -0.2082 -1.2748
  789MOL0     C 6382   8.461   0.129   5.671 -0.7566 -0.3006 -0.6536
  789MOL0     O 6383   8.437   0.027   5.594  0.2420  0.1473  0.7721
  789MOL0     C 6384   8.310  -0.015   5.593  0.3997  0.9441  0.1726
  789MOL0     C 6385   8.216   0.016   5.492  0.6848 -0.0185  0.5762
  789MOL0     C 6386   8.087  -0.043   5.494  0.1481  0.0042 -0.6097
  789MOL0     C 6387   8.052  -0.130   5.605 -0.4780 -0.3953 -0.1202
  789MOL0     O 6388   7.922  -0.186   5.625 -0.0919  0.1556 -0.7146
  789MOL0     C 6389   7.825  -0.140   5.533  0.8914 -0.1964  0.1962
  789MOL0     C 6390   7.684  -0.204   5.556  0.3394  0.7198 -0.1673
  789MOL0     C 6391   7.633  -0.193   5.695 -0.2177  0.2356  0.1613
  789MOL0     C 6392   7.490  -0.247   5.691  0.6835 -0.9898  0.4620
  789MOL0     C 6393   7.475  -0.401   5.691  0.4989  0.5361  0.6458
  789MOL0     C 6394   7.535  -0.461   5.818  0.7772 -0.5086  0.6305
  789MOL0     C 6395   7.499  -0.612   5.830 -0.0000 -0.2814 -0.3266
  789MOL0     C 6396   7.520  -0.661   5.972 -0.3711 -0.5048 -0.3029
  789MOL0     N 6397   7.407  -0.645   6.061 -0.6312  0.2010 -0.8236
  789MOL0     C 6398   7.319  -0.740   6.113  0.4405  0.9073  0.8000
  789MOL0     C 6399   7.218  -0.670   6.171  0.7504 -0.3171 -0.3624
  789MOL0     C 6400   7.088  -0.726   6.232 -0.9545 -0.2249 -0.1824
  789MOL0     C 6401   7.096  -0.766   6.378  0.3596 -0.7328 -0.1722
  789MOL0     C 6402   7.087  -0.638   6.459 -1.0381  0.7315 -0.1792
  789MOL0     C 6403   7.076  -0.669   6.606 -0.9227 -0.8771  0.8508
  789MOL0     O 6404   7.160  -0.793   6.650  0.6118 -0.5191  0.3275
  789MOL0     C 6405   7.112  -0.887   6.733 -0.7570 -0.0276 -0.6308
  789MOL0     C 6406   6.986  -0.912   6.754  1.1441  0.6034 -0.0447
  789MOL0     C 6407   6.941  -0.975   6.876 -0.4425 -0.8763  0.0864
  789MOL0     C 6408   6.798  -0.998   6.894 -0.4189 -0.3375 -0.0317
  789MOL0     C 6409   7.040  -1.011   6.972  0.6918 -0.4692  0.0637
  789MOL0     C 6410   6.998  -1.094   7.089 -0.9526  0.0374 -0.2941
  789MOL0     O 6411   7.101  -1.170   7.139 -0.8831  0.3978  0.0252
  789MOL0     C 6412   7.157  -1.135   7.261 -0.7837 -0.8662  0.6809
  789MOL0     C 6413   7.245  -1.231   7.308 -0.6813 -0.2848 -0.1610
  789MOL0     C 6414   7.328  -1.203   7.421  0.8461 -0.1725 -0.2232
  789MOL0     C 6415   7.316  -1.076   7.490 -0.6807  0.9666 -0.4458
  789MOL0     O 6416   7.382  -1.055   7.607 -0.7875 -0.2692  0.1321
  789MOL0     C 6417   7.485  -1.140   7.663 -1.5347  0.1374 -0.7929
  789MOL0     C 6418   7.595  -1.061   7.747 -0.2089  0.3188  0.9604
  789MOL0     C 6419   7.552  -1.009   7.878 -0.9761  0.1439 -0.5329
  789MOL0     C 6420   7.481  -1.119   7.955  0.2181  0.2902 -0.1702
  789MOL0     C 6421   7.472  -1.085   8.104 -0.4254  0.7852 -0.3779
  789MOL0     C 6422   7.428  -1.205   8.182  0.9101  0.1410  0.1479
  789MOL0     C 6423   7.543  -1.272   8.250 -1.1907  1.2109 -0.4642
  789MOL0     C 6424   7.522  -1.406   8.312  0.3541  0.7694  0.1154
  789MOL0    Cl 6425   7.485  -1.530   8.187  0.4358  0.2465  0.0021
  789MOL0     C 6426   7.234  -0.980   7.434  0.2345  0.0377 -1.3919
  789MOL0     C 6427   7.156  -1.009   7.324 -0.3010 -0.3134 -1.1300
  789MOL0     O 6428   6.896  -1.084   7.147  0.4145 -0.7276  0.0378
  789MOL0     C 6429   7.172  -0.989   6.939  0.7362  0.1757  1.5860
  789MOL0     C 6430   7.220  -0.921   6.823  0.0934 -0.0601 -0.6658
  789MOL0     N 6431   7.240  -0.537   6.148 -0.0245 -0.0495  0.4863
  789MOL0     N 6432   7.354  -0.529   6.084 -0.0536 -0.1425  0.4226
  789MOL0     C 6433   8.143  -0.157   5.701  0.0343 -0.6416 -1.1047
  789MOL0     C 6434   8.271  -0.102   5.691  0.1562 -0.3630  0.2845
  789MOL0     C 6435   8.610   0.156   5.695  0.4846  0.4775 -0.4561
  789MOL0     C 6436   8.697   0.044   5.684 -0.4069 -0.4539 -0.4858
  789MOL0     C 6437   8.837   0.051   5.717 -0.2918  0.1301  0.0924
  789MOL0     C 6438   8.891   0.176   5.736 -0.7414  0.2892 -0.1015
  789MOL0     O 6439   9.029   0.189   5.747 -0.1654 -0.1673  0.4265
  789MOL0     C 6440   9.103   0.220   5.627 -0.7684 -0.4330 -0.3769
  789MOL0     C 6441   9.056   0.342   5.552  0.0329  0.8474 -0.7370
  789MOL0     C 6442   9.156   0.401   5.458 -0.2108 -0.3194  0.0378
  789MOL0     C 6443   9.097   0.535   5.405 -0.0671  0.3253  0.3231
  789MOL0     C 6444   9.168   0.558   5.277  0.0888 -0.1595  0.5314
  789MOL0     C 6445   9.212   0.573   5.162  0.1050  0.4672  0.3680
  789MOL0     C 6446   8.804   0.288   5.759  0.4138  0.3557  0.4833
  789MOL0     C 6447   8.668   0.268   5.759 -0.0245 -0.4973 -0.1368
  789MOL0     H 6448   8.239   0.067   5.398  1.8453 -4.4361 -1.8282
  789MOL0     H 6449   8.027  -0.015   5.408 -1.8279 -0.6118  0.5213
  789MOL0     H 6450   7.804  -0.034   5.548  1.8212  0.8349 -4.3223
  789MOL0     H 6451   7.840  -0.160   5.427 -1.5691  0.9268 -0.4198
  789MOL0     H 6452   7.611  -0.153   5.493 -0.2375  0.4742  0.2944
  789MOL0     H 6453   7.694  -0.311   5.533  1.1589  0.5444  0.9064
  789MOL0     H 6454   7.701  -0.239   5.767  3.4142  2.7273 -1.3689
  789MOL0     H 6455   7.634  -0.086   5.720 -2.8860  0.5908 -0.9388
  789MOL0     H 6456   7.452  -0.206   5.785  1.9398  0.6420  0.2970
  789MOL0     H 6457   7.428  -0.197   5.617 -0.1913 -2.2097  0.3334
  789MOL0     H 6458   7.371  -0.435   5.680  0.7326  0.3806 -1.7008
  789MOL0     H 6459   7.521  -0.439   5.599 -1.1739  1.3821 -0.6106
  789MOL0     H 6460   7.640  -0.436   5.835 -0.1088  3.5471  1.0895
  789MOL0     H 6461   7.477  -0.405   5.891 -4.1801 -0.6214 -2.7079
  789MOL0     H 6462   7.404  -0.640   5.783 -0.9242  0.5605  0.9727
  789MOL0     H 6463   7.573  -0.661   5.766  0.4187  1.5121 -1.3120
  789MOL0     H 6464   7.603  -0.596   6.003 -1.1043  2.2347 -3.5430
  789MOL0     H 6465   7.563  -0.761   5.976  1.7494  0.3401 -0.6602
  789MOL0     H 6466   7.337  -0.847   6.113 -0.3640  0.7659  1.0205
  789MOL0     H 6467   7.004  -0.660   6.208  1.6700  3.2142 -0.6314
  789MOL0     H 6468   7.074  -0.815   6.169  2.0701  0.3462 -1.8337
  789MOL0     H 6469   7.189  -0.819   6.400  1.2989  1.2569  0.9334
  789MOL0     H 6470   7.017  -0.833   6.413  1.9086 -0.4196  4.7718
  789MOL0     H 6471   6.996  -0.579   6.443 -1.1513  0.4950 -0.4180
  789MOL0     H 6472   7.173  -0.573   6.439 -0.2659  0.4437  1.9501
  789MOL0     H 6473   6.968  -0.663   6.626 -0.4499  1.1860  3.1846
  789MOL0     H 6474   7.113  -0.582   6.661 -0.0312  0.5772 -1.8793
  789MOL0     H 6475   6.915  -0.870   6.684  1.6106  2.2641  0.4349
  789MOL0     H 6476   6.746  -0.961   6.805  0.0477  2.5316  0.7796
  789MOL0     H 6477   6.774  -1.102   6.916 -0.6821 -0.5238 -1.1062
  789MOL0     H 6478   6.769  -0.934   6.977 -2.6783 -2.4279  0.9042
  789MOL0     H 6479   7.270  -1.317   7.245  3.6488  1.5370 -1.3358
  789MOL0     H 6480   7.388  -1.278   7.470  0.1909  0.2669  1.3264
  789MOL0     H 6481   7.444  -1.223   7.720  2.6473 -0.7723  1.2896
  789MOL0     H 6482   7.546  -1.201   7.595 -0.2752  0.6484 -0.1463
  789MOL0     H 6483   7.682  -1.123   7.769 -0.4514 -0.1216  0.6976
  789MOL0     H 6484   7.620  -0.975   7.684 -2.9925  0.7744  0.3744
  789MOL0     H 6485   7.477  -0.930   7.887 -1.9540 -0.8640  0.5993
  789MOL0     H 6486   7.640  -0.964   7.926 -1.3806  0.9416 -0.5166
  789MOL0     H 6487   7.383  -1.149   7.916  0.7641  0.4733 -1.7585
  789MOL0     H 6488   7.549  -1.205   7.947 -0.8431 -0.5035 -0.9475
  789MOL0     H 6489   7.411  -0.997   8.127 -1.9134 -0.1869 -0.4686
  789MOL0     H 6490   7.567  -1.057   8.150  0.7777 -0.9301 -1.6916
  789MOL0     H 6491   7.356  -1.178   8.260  0.7196 -1.1581  0.4585
  789MOL0     H 6492   7.378  -1.270   8.109 -0.7335  0.2720  1.1054
  789MOL0     H 6493   7.584  -1.203   8.323  2.1439 -1.6902  0.6931
  789MOL0     H 6494   7.616  -1.291   8.170  0.2004 -2.0722  1.3709
  789MOL0     H 6495   7.437  -1.387   8.378 -0.6064  2.1237 -1.4401
  789MOL0     H 6496   7.601  -1.445   8.377 -1.2913 -0.6510  1.3428
  789MOL0     H 6497   7.242  -0.877   7.466 -2.2781  0.4893 -2.0133
  789MOL0     H 6498   7.081  -0.938   7.291 -1.1191  0.4388  2.0181
  789MOL0     H 6499   7.255  -1.021   7.001  1.3925  0.7489  1.0032
  789MOL0     H 6500   7.322  -0.897   6.794  0.0455 -2.6147 -3.5489
  789MOL0     H 6501   8.108  -0.219   5.782 -1.5408 -0.2269 -1.4320
  789MOL0     H 6502   8.335  -0.119   5.777 -0.3357 -0.9253  0.5456
  789MOL0     H 6503   8.665  -0.055   5.653 -0.7865 -0.1486 -1.0791
  789MOL0     H 6504   8.897  -0.039   5.709 -1.0533 -0.3993  0.2386
  789MOL0     H 6505   9.203   0.239   5.665 -0.3191 -1.5867 -0.9239
  789MOL0     H 6506   9.114   0.137   5.556  4.2185  0.8165 -1.4524
  789MOL0     H 6507   9.015   0.416   5.622  0.7077  0.6298 -0.0963
  789MOL0     H 6508   8.978   0.312   5.481  0.6692  0.7458 -1.4012
  789MOL0     H 6509   9.171   0.328   5.378 -0.1982 -1.4483  1.0413
  789MOL0     H 6510   9.243   0.426   5.518 -0.4829  1.3446 -0.2192
  789MOL0     H 6511   9.125   0.621   5.467 -0.3457  0.6011  0.0658
  789MOL0     H 6512   8.989   0.529   5.390 -0.3192 -1.9379  2.4221
  789MOL0     H 6513   9.244   0.585   5.060 -1.3945  1.8979  0.0164
  789MOL0     H 6514   8.855   0.382   5.776 -0.8840  1.0782  0.4665
  789MOL0     H 6515   8.611   0.353   5.794  0.4886  0.4364 -1.4520
  790MOL0     O 6516   2.576   5.682   8.432  0.6025 -0.8027 -1.0470
  790MOL0     C 6517   2.651   5.740   8.355 -1.1051  1.1026  1.0183
  790MOL0     O 6518   2.770   5.689   8.311  0.0779  0.2621  0.6089
  790MOL0     C 6519   2.782   5.554   8.339 -0.4463 -1.0199  0.2331
  790MOL0     C 6520   2.735   5.450   8.256  0.2747  0.1347  0.4983
  790MOL0     C 6521   2.764   5.315   8.287 -0.8365 -0.8050 -0.2762
  790MOL0     C 6522   2.838   5.278   8.390 -0.0457  0.2575 -0.9302
  790MOL0     O 6523   2.867   5.147   8.400  0.8960 -0.2650 -0.0801
  790MOL0     C 6524   2.985   5.104   8.464  0.2470  0.8132  0.4904
  790MOL0     C 6525   2.962   5.088   8.617 -0.1683  0.0737  0.0232
  790MOL0     C 6526   3.079   5.008   8.681  0.2491  0.2564 -0.2310
  790MOL0     C 6527   3.068   4.856   8.660  1.2206  0.7087  0.8282
  790MOL0     C 6528   3.167   4.779   8.736 -0.4227  0.1608 -0.6634
  790MOL0     C 6529   3.171   4.630   8.705  0.4146 -0.5378 -0.3002
  790MOL0     C 6530   3.293   4.555   8.757 -0.4235 -0.0280 -0.0659
  790MOL0     C 6531   3.325   4.599   8.893 -0.7815 -0.2439 -0.6262
  790MOL0     N 6532   3.214   4.554   8.984  0.4544 -0.7673  0.8863
  790MOL0     C 6533   3.136   4.625   9.064 -0.5812 -0.9975 -0.5131
  790MOL0     C 6534   3.051   4.553   9.129  0.0533  0.2507  0.3322
  790MOL0     C 6535   2.942   4.613   9.217 -0.0482  0.8881 -0.0870
  790MOL0     C 6536   2.855   4.711   9.142  0.3263  0.6964  0.1765
  790MOL0     C 6537   2.742   4.653   9.056  0.5274  0.7870  0.5653
  790MOL0     C 6538   2.785   4.585   8.931  0.4126 -0.3777  0.0615
  790MOL0     O 6539   2.685   4.503   8.872 -0.0257  0.2555 -0.0437
  790MOL0     C 6540   2.655   4.380   8.920 -0.3581 -0.0401 -0.2783
  790MOL0     C 6541   2.738   4.322   9.014  0.2090  0.6275 -0.0621
  790MOL0     C 6542   2.715   4.189   9.055  0.0730  0.2450  0.8482
  790MOL0     C 6543   2.829   4.129   9.144  0.7861 -0.6429  0.3396
  790MOL0     C 6544   2.608   4.121   9.004  0.2937  0.2455  1.0249
  790MOL0     C 6545   2.580   3.975   9.027 -0.8194  0.8147  0.2056
  790MOL0     O 6546   2.516   3.908   8.927 -0.2739 -1.2455  0.4679
  790MOL0     C 6547   2.418   3.832   8.952  0.2993  0.2452  0.4266
  790MOL0     C 6548   2.369   3.795   9.081  0.3752  0.4421 -0.3400
  790MOL0     C 6549   2.271   3.700   9.090 -1.4094 -0.3728  0.0763
  790MOL0     C 6550   2.200   3.660   8.974  0.7958 -0.7832  0.0283
  790MOL0     O 6551   2.075   3.598   8.993 -0.5881 -0.4330  0.3375
  790MOL0     C 6552   1.983   3.620   8.889 -0.7808 -0.8878  0.4243
  790MOL0     C 6553   1.838   3.590   8.934 -0.3539 -0.8147 -0.1500
  790MOL0     C 6554   1.734   3.560   8.820 -0.3939  1.0435  0.2227
  790MOL0     C 6555   1.714   3.684   8.734  0.3981 -0.0097  0.3148
  790MOL0     C 6556   1.605   3.675   8.620 -0.7400 -0.3492 -0.6686
  790MOL0     C 6557   1.617   3.783   8.506 -0.7759 -0.3741  0.5780
  790MOL0     C 6558   1.483   3.787   8.420  0.2247  1.1042  0.1737
  790MOL0     C 6559   1.493   3.708   8.281 -0.8045  0.3859  0.1819
  790MOL0    Cl 6560   1.639   3.768   8.191  0.2662  0.4353  0.1328
  790MOL0     C 6561   2.244   3.701   8.842  0.4650  0.4776 -0.7043
  790MOL0     C 6562   2.364   3.772   8.836  1.4422 -0.5671 -0.4960
  790MOL0     O 6563   2.634   3.918   9.124  0.0031  0.5553 -0.2886
  790MOL0     C 6564   2.501   4.186   8.928  0.6828 -0.1609  0.0073
  790MOL0     C 6565   2.532   4.321   8.892 -0.3321 -0.2817  1.6075
  790MOL0     N 6566   3.066   4.423   9.083 -0.1930 -0.4144  0.1345
  790MOL0     N 6567   3.162   4.428   8.992 -0.1173  0.0119  0.0161
  790MOL0     C 6568   2.899   5.386   8.464  1.2563  0.1813 -0.6247
  790MOL0     C 6569   2.872   5.518   8.444 -0.2045 -0.3666  0.7866
  790MOL0     C 6570   2.641   5.882   8.326  0.2574 -0.4154  0.9922
  790MOL0     C 6571   2.527   5.955   8.376  0.5292  0.2664  0.6960
  790MOL0     C 6572   2.512   6.092   8.356  0.9396 -0.4464 -0.1062
  790MOL0     C 6573   2.597   6.166   8.268 -0.2931  0.3606  0.1044
  790MOL0     O 6574   2.573   6.305   8.247  0.6688  0.9243  0.3887
  790MOL0     C 6575   2.637   6.365   8.135  0.6474  0.8495 -0.5559
  790MOL0     C 6576   2.569   6.496   8.102  0.0750 -0.5537 -0.9186
  790MOL0     C 6577   2.579   6.608   8.206 -0.0028 -0.1974  0.3379
  790MOL0     C 6578   2.486   6.724   8.173  0.0812  0.3592  0.2518
  790MOL0     C 6579   2.555   6.842   8.117 -0.3887 -0.3007 -0.1778
  790MOL0     C 6580   2.610   6.936   8.061  0.1533  0.2851  0.0692
  790MOL0     C 6581   2.701   6.091   8.214  0.5150 -0.0341  0.9999
  790MOL0     C 6582   2.723   5.956   8.234 -0.1889  0.5874 -0.5454
  790MOL0     H 6583   2.688   5.468   8.160  1.5814 -0.9976 -0.3883
  790MOL0     H 6584   2.725   5.229   8.234  0.1225 -0.3498 -1.7871
  790MOL0     H 6585   3.010   5.006   8.423 -0.6508  1.0981 -0.8076
  790MOL0     H 6586   3.069   5.174   8.453  1.4532 -0.5547  0.7573
  790MOL0     H 6587   2.952   5.189   8.657  2.7361  1.1720 -1.7525
  790MOL0     H 6588   2.867   5.034   8.628  0.3090 -0.3569  2.7947
  790MOL0     H 6589   3.180   5.051   8.675  0.6649 -0.4674  1.0792
  790MOL0     H 6590   3.066   5.020   8.789 -2.0710  0.7889 -0.5355
  790MOL0     H 6591   2.968   4.813   8.661  0.9493  1.2380 -0.5604
  790MOL0     H 6592   3.098   4.839   8.556 -2.4357 -3.6243  0.1728
  790MOL0     H 6593   3.267   4.817   8.711 -0.5480 -0.3431 -2.0641
  790MOL0     H 6594   3.141   4.790   8.841  0.0939 -0.1001 -0.5087
  790MOL0     H 6595   3.073   4.590   8.732 -0.7441  1.5428 -1.2245
  790MOL0     H 6596   3.177   4.606   8.598  0.4027 -1.7155 -0.0501
  790MOL0     H 6597   3.267   4.449   8.751 -1.0199  0.1265 -0.3311
  790MOL0     H 6598   3.376   4.570   8.688  0.6017 -0.8553  0.9660
  790MOL0     H 6599   3.347   4.705   8.909 -0.3297 -0.2699 -1.0592
  790MOL0     H 6600   3.417   4.546   8.921  0.4965  3.1526  2.3878
  790MOL0     H 6601   3.156   4.732   9.072  2.8071 -1.5793  0.2082
  790MOL0     H 6602   2.882   4.528   9.253 -1.4546  0.2560 -3.5668
  790MOL0     H 6603   2.985   4.670   9.300 -2.6781 -1.6683  3.3796
  790MOL0     H 6604   2.905   4.785   9.078 -1.0481 -1.1700 -3.3853
  790MOL0     H 6605   2.807   4.767   9.223 -1.2215  0.8623 -0.8126
  790MOL0     H 6606   2.668   4.727   9.023  0.3025 -0.9855 -3.3694
  790MOL0     H 6607   2.700   4.586   9.132 -0.4934  2.3821  1.4709
  790MOL0     H 6608   2.880   4.533   8.944  1.2017  0.5380 -1.7009
  790MOL0     H 6609   2.811   4.668   8.865  1.9124  1.0876  2.3730
  790MOL0     H 6610   2.825   4.378   9.046 -0.5417  3.0667 -2.0296
  790MOL0     H 6611   2.859   4.029   9.113  1.2306 -0.4707  0.2042
  790MOL0     H 6612   2.917   4.194   9.135  1.2718 -0.9863  2.0833
  790MOL0     H 6613   2.802   4.126   9.250 -1.5920  0.2484 -0.1871
  790MOL0     H 6614   2.415   3.833   9.171 -1.0503 -0.6159  0.8722
  790MOL0     H 6615   2.237   3.660   9.184  1.8458 -3.3834  0.1606
  790MOL0     H 6616   1.985   3.725   8.860  0.2450 -0.4995  1.8355
  790MOL0     H 6617   2.013   3.551   8.808 -0.0007  0.7817 -0.7780
  790MOL0     H 6618   1.851   3.510   9.007  1.1907  0.2072  0.7553
  790MOL0     H 6619   1.799   3.682   8.979 -2.4767 -0.7080 -2.0351
  790MOL0     H 6620   1.635   3.518   8.837  0.5812 -1.3473  0.4441
  790MOL0     H 6621   1.784   3.482   8.762 -1.0646  0.2104  0.7466
  790MOL0     H 6622   1.681   3.766   8.799 -0.4240 -1.1824  1.4281
  790MOL0     H 6623   1.807   3.722   8.691 -0.6475 -1.1637 -3.3022
  790MOL0     H 6624   1.511   3.695   8.672 -0.1220 -2.1131  1.2928
  790MOL0     H 6625   1.608   3.572   8.584  1.2357 -1.0351  1.1870
  790MOL0     H 6626   1.640   3.881   8.548  1.6590  0.1255 -1.6692
  790MOL0     H 6627   1.698   3.751   8.440 -2.0897  1.9575 -2.3996
  790MOL0     H 6628   1.460   3.894   8.417 -1.2919  0.8261 -3.6218
  790MOL0     H 6629   1.395   3.744   8.469  1.5076  1.6948  3.2551
  790MOL0     H 6630   1.410   3.732   8.214  0.8802  2.8221 -1.1675
  790MOL0     H 6631   1.501   3.601   8.302 -0.3555 -0.0214 -1.9023
  790MOL0     H 6632   2.189   3.686   8.750 -3.1007  1.5991  1.0314
  790MOL0     H 6633   2.412   3.797   8.742  0.9671  1.0682 -0.3292
  790MOL0     H 6634   2.411   4.134   8.899  0.1793  0.4765  0.3842
  790MOL0     H 6635   2.476   4.379   8.819  4.3792  2.0941 -0.5410
  790MOL0     H 6636   2.971   5.370   8.544  1.0170 -1.3018 -0.6639
  790MOL0     H 6637   2.927   5.592   8.502  0.0617 -2.4800  3.4796
  790MOL0     H 6638   2.460   5.910   8.449  1.0887 -1.0777  0.4177
  790MOL0     H 6639   2.424   6.140   8.398 -0.8292 -3.7973  0.3372
  790MOL0     H 6640   2.745   6.383   8.140  1.1406 -1.6073 -1.1193
  790MOL0     H 6641   2.630   6.304   8.044  2.3116 -0.0207 -0.1432
  790MOL0     H 6642   2.462   6.488   8.079 -0.2934  2.9625 -0.9549
  790MOL0     H 6643   2.626   6.544   8.022  0.8603 -0.9998 -0.6299
  790MOL0     H 6644   2.683   6.641   8.197 -0.4540  0.7123 -2.3467
  790MOL0     H 6645   2.554   6.571   8.306  1.9996  0.0742  0.9948
  790MOL0     H 6646   2.431   6.750   8.264 -2.6207 -0.8871 -0.9082
  790MOL0     H 6647   2.410   6.685   8.104 -1.7776 -0.7178  2.7503
  790MOL0     H 6648   2.651   7.027   8.023 -1.2972  0.5395 -0.9947
  790MOL0     H 6649   2.774   6.139   8.149 -0.8825 -2.8553 -3.0811
  790MOL0     H 6650   2.810   5.904   8.193 -0.8397 -2.1888  1.2775
  791MOL0     O 6651   7.114   8.116   6.815 -0.5696 -0.3878 -0.0196
  791MOL0     C 6652   7.112   8.172   6.706 -0.6117  0.5928  0.2633
  791MOL0     O 6653   7.189   8.145   6.599  0.1444 -0.2064 -0.0580
  791MOL0     C 6654   7.279   8.043   6.604 -0.1777  0.4224 -0.5785
  791MOL0     C 6655   7.368   8.027   6.488  0.2417  1.0611  0.0263
  791MOL0     C 6656   7.480   7.942   6.487 -0.6931 -0.3059 -1.2547
  791MOL0     C 6657   7.500   7.855   6.591 -0.5018 -0.1891  0.3894
  791MOL0     O 6658   7.591   7.758   6.588  0.0198 -0.2555  0.9075
  791MOL0     C 6659   7.712   7.791   6.509 -0.0256  0.5730 -0.1918
  791MOL0     C 6660   7.817   7.681   6.546 -0.0061 -0.2755  0.0567
  791MOL0     C 6661   7.945   7.738   6.471 -0.7849  0.0642 -0.0281
  791MOL0     C 6662   8.052   7.630   6.473  0.8972  0.1202  0.3466
  791MOL0     C 6663   8.119   7.598   6.611  0.4764 -0.8001 -0.5196
  791MOL0     C 6664   8.219   7.487   6.609  0.0851  0.3241  0.5057
  791MOL0     C 6665   8.347   7.512   6.687 -0.8449  0.4855 -0.2106
  791MOL0     C 6666   8.307   7.499   6.837 -0.1910  0.4928 -0.7530
  791MOL0     N 6667   8.260   7.365   6.885 -0.4632  0.1649  0.1105
  791MOL0     C 6668   8.325   7.249   6.853  0.6724  0.1276  0.7507
  791MOL0     C 6669   8.259   7.140   6.904  0.2099 -0.7417 -0.2524
  791MOL0     C 6670   8.294   6.996   6.874 -0.3564 -0.3483 -0.4075
  791MOL0     C 6671   8.174   6.900   6.858 -0.0170 -0.4684  0.4458
  791MOL0     C 6672   8.200   6.795   6.751  0.3815  0.0819  0.5799
  791MOL0     C 6673   8.079   6.704   6.722 -0.5756  0.6524 -0.6010
  791MOL0     O 6674   8.064   6.628   6.845  0.1966 -0.4852  0.5943
  791MOL0     C 6675   7.950   6.559   6.873  0.8244  0.3204  0.2492
  791MOL0     C 6676   7.936   6.485   6.987 -0.9484  0.0309  0.0159
  791MOL0     C 6677   7.825   6.411   7.015 -0.6746  0.0241  0.0599
  791MOL0     C 6678   7.839   6.338   7.138  0.5180  0.4167  1.0732
  791MOL0     C 6679   7.707   6.426   6.949  0.3009 -0.3882  0.0767
  791MOL0     C 6680   7.574   6.375   6.994  0.7711 -0.2026 -0.6057
  791MOL0     O 6681   7.544   6.381   7.128  0.3376  0.3113  0.1152
  791MOL0     C 6682   7.418   6.343   7.165  0.7264  0.0079  0.5506
  791MOL0     C 6683   7.303   6.430   7.159 -0.0596  0.4282  0.1335
  791MOL0     C 6684   7.176   6.404   7.215  0.9302  0.2959  0.5779
  791MOL0     C 6685   7.154   6.277   7.278 -0.5111 -1.5055  1.1235
  791MOL0     O 6686   7.030   6.249   7.312  0.9705 -0.0028  0.5977
  791MOL0     C 6687   6.987   6.306   7.439  0.4598 -0.1636 -0.3904
  791MOL0     C 6688   6.839   6.277   7.473 -0.4177  0.2293  0.3030
  791MOL0     C 6689   6.830   6.131   7.524 -0.2625  0.2795 -0.2105
  791MOL0     C 6690   6.698   6.108   7.587  0.0501  0.0795 -0.6624
  791MOL0     C 6691   6.678   5.957   7.581  0.3543  0.3182  0.0286
  791MOL0     C 6692   6.555   5.892   7.645 -0.8731 -0.2362  0.1413
  791MOL0     C 6693   6.436   5.931   7.559  0.8057  0.2951 -0.4433
  791MOL0     C 6694   6.302   5.864   7.608  1.3422 -0.6578  0.3060
  791MOL0    Cl 6695   6.277   5.690   7.587  0.1335  0.0849  0.2568
  791MOL0     C 6696   7.267   6.195   7.289 -0.9458  0.3371 -1.3893
  791MOL0     C 6697   7.397   6.221   7.236  0.2181  0.1794 -0.0556
  791MOL0     O 6698   7.497   6.337   6.900  0.4842 -0.3251  0.0574
  791MOL0     C 6699   7.710   6.506   6.829  0.1019 -0.0772 -0.2617
  791MOL0     C 6700   7.827   6.569   6.791 -0.6098 -0.2900  0.4176
  791MOL0     N 6701   8.149   7.199   6.967  0.1327 -0.2064 -0.0032
  791MOL0     N 6702   8.149   7.326   6.955 -0.5958 -0.5358  0.2120
  791MOL0     C 6703   7.404   7.853   6.693 -0.4144  0.6909  0.0730
  791MOL0     C 6704   7.294   7.946   6.706  0.2839 -0.9208 -0.1362
  791MOL0     C 6705   7.015   8.282   6.699 -0.0756 -0.7781  0.0929
  791MOL0     C 6706   6.883   8.258   6.745 -0.5746  0.5603  0.1874
  791MOL0     C 6707   6.788   8.368   6.736  0.5141  0.1743  0.3816
  791MOL0     C 6708   6.814   8.486   6.666  0.9435 -0.6735  0.2550
  791MOL0     O 6709   6.722   8.591   6.662  0.3368  0.2092 -0.5853
  791MOL0     C 6710   6.585   8.555   6.622 -0.5731 -0.0507  0.0365
  791MOL0     C 6711   6.507   8.688   6.613 -0.4350  0.2659 -0.4191
  791MOL0     C 6712   6.509   8.766   6.757  0.3374  0.3899 -0.5678
  791MOL0     C 6713   6.416   8.883   6.758  0.8914 -0.4584  0.1543
  791MOL0     C 6714   6.284   8.864   6.819 -0.2576  0.3090  0.0713
  791MOL0     C 6715   6.178   8.857   6.875 -0.8437 -0.5922  0.6027
  791MOL0     C 6716   6.938   8.491   6.598  0.3314  0.1449  0.5471
  791MOL0     C 6717   7.038   8.394   6.618  0.2644  0.1374 -0.3447
  791MOL0     H 6718   7.346   8.094   6.405 -0.5982 -0.8313 -1.3773
  791MOL0     H 6719   7.535   7.936   6.394  1.6550  0.2446  0.0149
  791MOL0     H 6720   7.698   7.786   6.401 -1.3118  1.9559 -0.1269
  791MOL0     H 6721   7.741   7.895   6.531 -0.1440  0.9971 -1.8518
  791MOL0     H 6722   7.827   7.678   6.655  1.8618 -0.5296 -0.0904
  791MOL0     H 6723   7.782   7.587   6.502 -0.9198  0.8008 -1.5917
  791MOL0     H 6724   7.912   7.768   6.371 -0.5482  2.4925  0.5601
  791MOL0     H 6725   7.974   7.824   6.532 -1.5545 -0.3309  0.9229
  791MOL0     H 6726   8.018   7.537   6.426  1.3577  0.1520 -0.0621
  791MOL0     H 6727   8.136   7.661   6.410 -0.3612  0.8145 -1.0451
  791MOL0     H 6728   8.160   7.693   6.648 -1.5485 -0.0823  0.0081
  791MOL0     H 6729   8.040   7.568   6.680  0.5967 -0.9344 -0.4402
  791MOL0     H 6730   8.158   7.398   6.626 -1.2493  0.4411 -2.7944
  791MOL0     H 6731   8.241   7.470   6.503 -2.0172  0.3363  0.0116
  791MOL0     H 6732   8.423   7.437   6.665  1.8993  3.3830 -1.5220
  791MOL0     H 6733   8.390   7.613   6.679  1.4571 -0.5809 -2.8191
  791MOL0     H 6734   8.229   7.572   6.860 -1.3207 -0.6756 -0.7650
  791MOL0     H 6735   8.389   7.517   6.908 -0.8164 -0.6989  0.3220
  791MOL0     H 6736   8.411   7.232   6.789 -0.2070 -2.8238  0.1928
  791MOL0     H 6737   8.350   6.985   6.781 -0.9768 -4.2397 -0.4694
  791MOL0     H 6738   8.353   6.955   6.955  3.6007  2.6391 -1.4625
  791MOL0     H 6739   8.086   6.961   6.837  0.2332 -0.7381 -1.6279
  791MOL0     H 6740   8.151   6.859   6.957 -0.4154  2.1259  1.4945
  791MOL0     H 6741   8.289   6.735   6.774  2.2245  1.7426 -1.7405
  791MOL0     H 6742   8.212   6.846   6.655 -3.1379  2.0461  1.0141
  791MOL0     H 6743   8.108   6.636   6.641 -1.7054  0.6469 -1.0328
  791MOL0     H 6744   7.992   6.759   6.683 -1.4949  0.0254  0.5021
  791MOL0     H 6745   8.020   6.492   7.056  0.0140  1.1205 -1.2206
  791MOL0     H 6746   7.776   6.249   7.139  1.1055 -0.0220  2.7924
  791MOL0     H 6747   7.941   6.298   7.142  1.4064  2.3699 -0.3993
  791MOL0     H 6748   7.826   6.389   7.235  1.3567 -1.2949  2.1380
  791MOL0     H 6749   7.319   6.528   7.115 -0.1623  0.6441  0.5752
  791MOL0     H 6750   7.102   6.483   7.203  2.0827  1.3334  0.0928
  791MOL0     H 6751   7.054   6.284   7.523 -0.6933 -0.7925  0.3928
  791MOL0     H 6752   6.993   6.414   7.421  1.8642 -0.4516 -1.9290
  791MOL0     H 6753   6.813   6.343   7.555  1.5807 -0.9327  1.9615
  791MOL0     H 6754   6.776   6.299   7.386  1.4657  2.2021 -0.6742
  791MOL0     H 6755   6.912   6.120   7.596  0.0939 -2.7469 -0.9456
  791MOL0     H 6756   6.857   6.076   7.434  0.3606  1.8878 -1.0420
  791MOL0     H 6757   6.691   6.136   7.692  1.2966 -0.2511 -0.4799
  791MOL0     H 6758   6.616   6.153   7.530  2.4411  0.2330 -4.3169
  791MOL0     H 6759   6.774   5.922   7.619  0.6311  0.9047 -0.1253
  791MOL0     H 6760   6.685   5.933   7.475 -2.7091 -0.3031 -0.1425
  791MOL0     H 6761   6.572   5.784   7.647 -0.8730 -0.2593 -0.7379
  791MOL0     H 6762   6.537   5.919   7.749 -0.1551 -0.4887  0.3362
  791MOL0     H 6763   6.448   5.912   7.452 -1.5644  0.1561 -0.7469
  791MOL0     H 6764   6.429   6.040   7.569  1.2438  0.3078 -0.2767
  791MOL0     H 6765   6.225   5.916   7.551  1.6028 -1.9387 -1.2635
  791MOL0     H 6766   6.285   5.886   7.714  0.6324 -0.0810  0.0770
  791MOL0     H 6767   7.266   6.102   7.346  1.5252  0.0886 -1.6460
  791MOL0     H 6768   7.484   6.159   7.257  0.1658 -0.2038 -0.9241
  791MOL0     H 6769   7.619   6.526   6.773  1.4821 -0.0241 -2.6138
  791MOL0     H 6770   7.833   6.638   6.707 -1.4883  0.6031  1.0653
  791MOL0     H 6771   7.403   7.780   6.773  0.5641 -1.7933 -2.0347
  791MOL0     H 6772   7.239   7.928   6.798  0.2617  0.6977  0.1868
  791MOL0     H 6773   6.864   8.170   6.805 -0.4005  0.2646 -0.1900
  791MOL0     H 6774   6.689   8.345   6.773  0.6868 -2.7954 -0.6860
  791MOL0     H 6775   6.585   8.525   6.517  0.7136  4.3660 -1.4929
  791MOL0     H 6776   6.539   8.482   6.688  2.2789  0.4723  2.9101
  791MOL0     H 6777   6.404   8.667   6.583 -1.2382  0.2004  2.1357
  791MOL0     H 6778   6.552   8.762   6.546 -0.6506 -0.7462 -1.7215
  791MOL0     H 6779   6.616   8.782   6.774  0.8920 -2.1906 -1.1882
  791MOL0     H 6780   6.484   8.696   6.837  2.8056  0.9537  0.7960
  791MOL0     H 6781   6.393   8.922   6.658 -0.5603  0.1398  0.7022
  791MOL0     H 6782   6.449   8.979   6.799  0.5747 -0.0000 -0.6470
  791MOL0     H 6783   6.089   8.853   6.935 -0.0867  1.2228  1.9526
  791MOL0     H 6784   6.950   8.584   6.543 -0.6873  0.0728  0.1765
  791MOL0     H 6785   7.137   8.398   6.573  1.1152  0.1987  1.4571
  792MOL0     O 6786   1.423  10.588   1.666 -0.3980 -0.1299 -0.2516
  792MOL0     C 6787   1.390  10.490   1.603  0.2933  0.7335  0.0431
  792MOL0     O 6788   1.328  10.389   1.656 -0.3842 -0.2130 -0.6305
  792MOL0     C 6789   1.266  10.404   1.777  0.1363  0.4878  0.1357
  792MOL0     C 6790   1.133  10.377   1.774 -0.2304  0.4272  0.2597
  792MOL0     C 6791   1.059  10.382   1.890 -0.5049  0.3432 -0.3345
  792MOL0     C 6792   1.123  10.399   2.017  0.4530 -0.1376  0.3914
  792MOL0     O 6793   1.033  10.413   2.120 -1.0138 -0.4815  0.1186
  792MOL0     C 6794   1.081  10.438   2.255 -0.3036 -0.0824  0.1397
  792MOL0     C 6795   1.143  10.301   2.325  0.8652  0.4861  0.0997
  792MOL0     C 6796   1.034  10.189   2.342 -0.1252  0.1725 -0.0545
  792MOL0     C 6797   1.091  10.076   2.432 -0.0637 -0.6402  0.3026
  792MOL0     C 6798   0.971   9.978   2.450 -0.2761  0.0247 -0.0358
  792MOL0     C 6799   1.015   9.856   2.529  0.5056  0.4703 -0.4564
  792MOL0     C 6800   0.906   9.755   2.587 -0.2665 -0.0751 -0.9915
  792MOL0     C 6801   0.973   9.686   2.704  1.0636  0.2518  0.1807
  792MOL0     N 6802   0.902   9.564   2.744 -0.2333 -0.1523 -0.4426
  792MOL0     C 6803   0.771   9.568   2.773 -0.1691  0.1049 -0.2338
  792MOL0     C 6804   0.726   9.439   2.787 -0.4270  0.1703 -0.2900
  792MOL0     C 6805   0.590   9.387   2.803  0.4273 -0.1288 -0.7572
  792MOL0     C 6806   0.492   9.417   2.693 -0.4524 -0.4079  0.5676
  792MOL0     C 6807   0.344   9.381   2.730 -0.1928  0.5498  0.8945
  792MOL0     C 6808   0.269   9.378   2.600 -0.4046  0.3229  0.2897
  792MOL0     O 6809   0.284   9.509   2.534  0.1971 -0.2079  0.4464
  792MOL0     C 6810   0.204   9.607   2.586  0.1212 -0.0537 -0.2049
  792MOL0     C 6811   0.104   9.592   2.685 -0.4372  0.2498 -0.3680
  792MOL0     C 6812   0.034   9.702   2.737  0.6239  0.0895  0.1217
  792MOL0     C 6813  -0.066   9.673   2.848 -0.2884 -0.1119  0.0470
  792MOL0     C 6814   0.041   9.826   2.676 -0.8553 -0.9915 -0.0341
  792MOL0     C 6815  -0.046   9.950   2.712 -0.3455  0.8856  0.4061
  792MOL0     O 6816   0.014  10.072   2.723  1.0762  0.1839  0.0057
  792MOL0     C 6817  -0.072  10.177   2.754  0.7586  0.3413 -0.0412
  792MOL0     C 6818  -0.087  10.231   2.882  0.3521 -0.0248 -0.2130
  792MOL0     C 6819  -0.167  10.346   2.910 -0.4089 -0.2205  0.5427
  792MOL0     C 6820  -0.245  10.390   2.799 -0.3447 -0.5776  0.0537
  792MOL0     O 6821  -0.350  10.485   2.821  0.1071  0.2023  0.4883
  792MOL0     C 6822  -0.353  10.598   2.731  0.2060  0.7898 -0.3039
  792MOL0     C 6823  -0.467  10.587   2.625  0.5686 -1.4235 -0.4762
  792MOL0     C 6824  -0.432  10.664   2.498  0.2590 -0.5824 -0.2311
  792MOL0     C 6825  -0.402  10.810   2.518 -0.8525 -0.6830  1.1022
  792MOL0     C 6826  -0.398  10.903   2.393 -0.5676 -0.1079 -0.9299
  792MOL0     C 6827  -0.306  11.025   2.407  0.3235  0.4868 -0.9446
  792MOL0     C 6828  -0.330  11.095   2.273 -0.1429 -0.1521 -1.2061
  792MOL0     C 6829  -0.250  11.222   2.266  0.4781 -0.4954  0.5149
  792MOL0    Cl 6830  -0.231  11.250   2.086 -0.1107  0.2903 -0.1623
  792MOL0     C 6831  -0.221  10.346   2.660  0.3010 -0.1385 -0.7629
  792MOL0     C 6832  -0.141  10.238   2.650 -0.1266  0.0928 -0.2055
  792MOL0     O 6833  -0.167   9.928   2.727 -1.4839 -0.1192  0.2170
  792MOL0     C 6834   0.134   9.840   2.571  0.2854  0.6521 -0.1466
  792MOL0     C 6835   0.217   9.733   2.532 -1.5034  0.2823  0.5152
  792MOL0     N 6836   0.838   9.367   2.742  0.6988 -0.0487  0.3338
  792MOL0     N 6837   0.947   9.439   2.727 -0.7322  0.3646  1.0332
  792MOL0     C 6838   1.257  10.426   2.014  0.5061  0.2489 -0.1958
  792MOL0     C 6839   1.332  10.413   1.908 -0.3605  0.1998 -0.1466
  792MOL0     C 6840   1.423  10.484   1.460  0.4449 -0.7356 -0.4057
  792MOL0     C 6841   1.534  10.544   1.405  0.3877  0.0948  0.2029
  792MOL0     C 6842   1.571  10.519   1.271 -0.4076 -0.2778  0.8217
  792MOL0     C 6843   1.484  10.451   1.186 -0.3501 -0.1726  1.2502
  792MOL0     O 6844   1.537  10.440   1.048 -0.0239 -0.6841  0.2935
  792MOL0     C 6845   1.443  10.409   0.951  1.2087 -0.3561  0.0385
  792MOL0     C 6846   1.485  10.433   0.805  0.0765  0.2677  0.3914
  792MOL0     C 6847   1.590  10.334   0.747 -0.5678 -0.2669 -0.1256
  792MOL0     C 6848   1.635  10.344   0.600  0.1694  0.6438  0.3769
  792MOL0     C 6849   1.532  10.303   0.506  0.0094  0.1675  0.0191
  792MOL0     C 6850   1.457  10.262   0.419  0.5295 -0.7465  0.8877
  792MOL0     C 6851   1.373  10.385   1.239  0.2695 -0.5986 -0.7233
  792MOL0     C 6852   1.342  10.397   1.378 -0.3658 -0.0986 -0.6837
  792MOL0     H 6853   1.082  10.350   1.682 -0.7142  0.0252  0.6428
  792MOL0     H 6854   0.951  10.382   1.893 -0.4940 -0.2797  0.5732
  792MOL0     H 6855   1.166  10.508   2.255 -0.0933 -0.3361 -0.2055
  792MOL0     H 6856   1.001  10.478   2.318 -0.6093  1.3727 -1.1049
  792MOL0     H 6857   1.231  10.264   2.271  1.5847  1.3704  0.6138
  792MOL0     H 6858   1.185  10.334   2.421 -0.6222  1.8401  0.3356
  792MOL0     H 6859   0.947  10.227   2.395  1.2734 -1.8379  4.1560
  792MOL0     H 6860   1.002  10.145   2.247  2.2275 -0.1712 -0.7643
  792MOL0     H 6861   1.174  10.027   2.381  0.4681 -0.4042  0.9185
  792MOL0     H 6862   1.128  10.115   2.528 -1.4813  1.5065  0.0446
  792MOL0     H 6863   0.887  10.013   2.510  1.0878  0.3944  1.7174
  792MOL0     H 6864   0.935   9.935   2.356 -3.9468  0.7959  0.8661
  792MOL0     H 6865   1.082   9.808   2.457 -0.5000 -0.6657 -0.6614
  792MOL0     H 6866   1.077   9.894   2.611  0.3391 -1.4105  0.5882
  792MOL0     H 6867   0.813   9.795   2.629 -0.3327 -1.6729  0.5046
  792MOL0     H 6868   0.883   9.677   2.513 -2.0049 -1.1582  0.5755
  792MOL0     H 6869   0.980   9.754   2.789 -0.0034  1.0433 -0.3389
  792MOL0     H 6870   1.069   9.658   2.659  2.0539  3.1104  0.3746
  792MOL0     H 6871   0.712   9.659   2.775 -1.6110 -0.8257  0.3808
  792MOL0     H 6872   0.601   9.279   2.816 -0.4917 -0.6385 -3.4706
  792MOL0     H 6873   0.544   9.436   2.889  1.5016  1.9940 -1.2996
  792MOL0     H 6874   0.526   9.350   2.614 -0.3148 -0.7964  0.9503
  792MOL0     H 6875   0.483   9.524   2.673 -1.8856 -0.5893  0.1416
  792MOL0     H 6876   0.301   9.454   2.800 -0.6970 -2.0840  3.5375
  792MOL0     H 6877   0.335   9.281   2.774  5.3989 -0.4149  0.6190
  792MOL0     H 6878   0.161   9.361   2.607 -1.4494  4.7485 -1.5369
  792MOL0     H 6879   0.313   9.301   2.536 -1.1555  0.3497 -0.2757
  792MOL0     H 6880   0.086   9.495   2.730 -0.8991  0.0370 -0.9928
  792MOL0     H 6881  -0.038   9.574   2.884  0.4625  0.2914  0.5932
  792MOL0     H 6882  -0.041   9.744   2.927 -0.6099  0.1347 -0.0683
  792MOL0     H 6883  -0.169   9.682   2.811  0.9895  1.0142 -3.6599
  792MOL0     H 6884  -0.024  10.192   2.962 -0.7683  3.3559  2.5814
  792MOL0     H 6885  -0.175  10.390   3.009  0.1223  0.6305  0.2211
  792MOL0     H 6886  -0.354  10.689   2.792  2.0785  0.0149  0.9912
  792MOL0     H 6887  -0.258  10.610   2.677  0.3280  1.2114 -0.0026
  792MOL0     H 6888  -0.490  10.483   2.602  1.5670 -1.8405  0.3655
  792MOL0     H 6889  -0.557  10.635   2.664 -0.7692 -3.3402 -1.0957
  792MOL0     H 6890  -0.523  10.656   2.439 -1.7734 -1.6687  2.8396
  792MOL0     H 6891  -0.350  10.616   2.443  0.4460  0.7755 -1.1639
  792MOL0     H 6892  -0.485  10.842   2.582 -0.3449 -0.8876  1.8682
  792MOL0     H 6893  -0.303  10.825   2.562  0.0561  2.9221 -1.6207
  792MOL0     H 6894  -0.498  10.945   2.378  0.2378  1.9163 -1.0226
  792MOL0     H 6895  -0.371  10.836   2.311  0.4559  0.4558 -1.0709
  792MOL0     H 6896  -0.323  11.093   2.491 -1.7520  0.1100 -1.0040
  792MOL0     H 6897  -0.202  10.994   2.419 -0.2985 -0.8458  1.7278
  792MOL0     H 6898  -0.435  11.108   2.245 -0.7433 -2.0582 -0.0174
  792MOL0     H 6899  -0.290  11.032   2.193  3.4995  1.1082 -0.5904
  792MOL0     H 6900  -0.149  11.196   2.297  0.5804  1.0958  1.6600
  792MOL0     H 6901  -0.288  11.304   2.328 -2.8938 -0.9822 -0.6856
  792MOL0     H 6902  -0.267  10.393   2.574 -1.2016  2.4229  1.2977
  792MOL0     H 6903  -0.131  10.200   2.549  0.3849  1.3170 -0.6310
  792MOL0     H 6904   0.145   9.933   2.515  0.6902 -0.1336 -1.4299
  792MOL0     H 6905   0.289   9.753   2.453 -1.3810  2.0111  1.0189
  792MOL0     H 6906   1.308  10.451   2.107 -2.3694 -1.7768  2.1464
  792MOL0     H 6907   1.436  10.439   1.894 -0.1176 -1.7673 -2.8859
  792MOL0     H 6908   1.603  10.598   1.469  1.1093  1.7802 -1.8990
  792MOL0     H 6909   1.658  10.545   1.211 -2.2177 -1.0160 -2.3321
  792MOL0     H 6910   1.414  10.305   0.970 -1.9158  0.2171 -0.9223
  792MOL0     H 6911   1.359  10.477   0.966  0.1557 -1.8691  1.2719
  792MOL0     H 6912   1.524  10.535   0.796  3.4751 -0.8569  1.1083
  792MOL0     H 6913   1.395  10.439   0.743  0.5549  0.2360 -0.3204
  792MOL0     H 6914   1.541  10.238   0.767 -3.4353  0.7301 -1.7469
  792MOL0     H 6915   1.676  10.347   0.814  0.7125 -2.9877 -1.0954
  792MOL0     H 6916   1.728  10.286   0.595  0.3193  0.9595 -0.6084
  792MOL0     H 6917   1.668  10.447   0.584  1.3260  0.5483  1.8831
  792MOL0     H 6918   1.420  10.257   0.319  2.1120  2.6123 -0.0194
  792MOL0     H 6919   1.310  10.319   1.180  1.9541 -4.2054  1.2130
  792MOL0     H 6920   1.260  10.341   1.422 -1.1536  1.4346 -0.1164
  793MOL0     O 6921   3.204   6.656   0.212  0.0760  0.5217  0.7517
  793MOL0     C 6922   3.231   6.754   0.281  0.4489 -0.4108 -0.1276
  793MOL0     O 6923   3.152   6.802   0.383  0.5094 -0.3911  0.4452
  793MOL0     C 6924   3.014   6.817   0.375 -0.8361 -0.5522 -0.1954
  793MOL0     C 6925   2.946   6.804   0.255  0.5855  0.0383  0.0164
  793MOL0     C 6926   2.802   6.803   0.244  0.4323 -0.6259  0.5176
  793MOL0     C 6927   2.729   6.794   0.358  0.0196  0.4267 -0.8628
  793MOL0     O 6928   2.593   6.792   0.328 -0.0852  0.7348 -0.8982
  793MOL0     C 6929   2.488   6.803   0.430 -0.4774 -0.2177  0.6967
  793MOL0     C 6930   2.351   6.787   0.367 -0.7234 -0.1117  0.3993
  793MOL0     C 6931   2.331   6.867   0.242  0.0414 -0.5563  0.6416
  793MOL0     C 6932   2.187   6.841   0.193  0.1694 -0.2055 -0.5053
  793MOL0     C 6933   2.144   6.948   0.091 -0.3941 -0.6444  0.3617
  793MOL0     C 6934   2.006   6.935   0.029  0.1521 -0.2838  0.5989
  793MOL0     C 6935   1.898   6.969   0.131 -0.3645  0.6256 -0.6424
  793MOL0     C 6936   1.748   6.929   0.089  0.1998  0.3395 -0.1031
  793MOL0     N 6937   1.712   6.988  -0.040 -0.5235  0.7333  0.3606
  793MOL0     C 6938   1.682   7.117  -0.062 -0.4310 -0.9500  0.1450
  793MOL0     C 6939   1.658   7.121  -0.194  0.2129 -0.3269 -0.8244
  793MOL0     C 6940   1.625   7.241  -0.275 -0.1240 -0.0909 -0.8600
  793MOL0     C 6941   1.654   7.230  -0.422  1.1746 -0.6322 -0.4747
  793MOL0     C 6942   1.793   7.248  -0.463  0.2464 -0.3447  0.0363
  793MOL0     C 6943   1.816   7.197  -0.603 -0.3898 -0.5159  0.1907
  793MOL0     O 6944   1.764   7.294  -0.692 -0.2868  0.0283 -0.2369
  793MOL0     C 6945   1.849   7.370  -0.771 -0.3703  0.1429  0.5890
  793MOL0     C 6946   1.961   7.444  -0.735  0.4070  0.7934 -0.3839
  793MOL0     C 6947   2.022   7.527  -0.825 -0.4790  0.4650 -0.2639
  793MOL0     C 6948   2.127   7.621  -0.772  0.0735  0.3871  0.6003
  793MOL0     C 6949   1.974   7.542  -0.960 -0.5094  0.3083 -0.1802
  793MOL0     C 6950   2.024   7.647  -1.052 -0.5572 -0.7935  0.4124
  793MOL0     O 6951   2.052   7.619  -1.176  0.5834 -0.1443  0.1736
  793MOL0     C 6952   2.083   7.482  -1.198  0.5532 -1.6334 -0.3193
  793MOL0     C 6953   2.183   7.417  -1.125 -0.7583  0.7269 -0.2378
  793MOL0     C 6954   2.218   7.276  -1.138  0.1586 -0.2089 -1.1764
  793MOL0     C 6955   2.137   7.203  -1.221 -0.4160 -0.2060  0.2306
  793MOL0     O 6956   2.157   7.073  -1.238  0.3642 -0.3644  0.2141
  793MOL0     C 6957   2.285   7.006  -1.222  0.8418 -1.3025 -0.2223
  793MOL0     C 6958   2.287   6.873  -1.312 -1.2942 -0.1739  0.6703
  793MOL0     C 6959   2.417   6.788  -1.283  0.1737  0.4590 -0.0355
  793MOL0     C 6960   2.536   6.840  -1.362  0.3393 -0.0463 -0.1141
  793MOL0     C 6961   2.661   6.781  -1.301 -0.6978  0.1664  0.0253
  793MOL0     C 6962   2.788   6.818  -1.402  0.8951 -0.1135  0.8722
  793MOL0     C 6963   2.783   6.972  -1.419  0.2398 -0.3879  0.1789
  793MOL0     C 6964   2.899   7.025  -1.513  0.5144  0.2287  1.0684
  793MOL0    Cl 6965   3.056   6.944  -1.455  0.3312 -0.3494  0.5600
  793MOL0     C 6966   2.035   7.266  -1.297 -0.4969  0.2196  0.3414
  793MOL0     C 6967   2.013   7.411  -1.288 -0.3875  0.9887 -0.5894
  793MOL0     O 6968   2.028   7.765  -1.006  1.5720  0.4843 -0.0845
  793MOL0     C 6969   1.853   7.482  -0.996 -0.1859 -0.2197 -1.2436
  793MOL0     C 6970   1.796   7.390  -0.901 -0.0936  0.1183 -0.9712
  793MOL0     N 6971   1.671   7.000  -0.250 -0.1104  0.7410 -0.5041
  793MOL0     N 6972   1.705   6.918  -0.156  0.5125 -0.0332  0.5053
  793MOL0     C 6973   2.801   6.805   0.484  1.0142 -0.5847 -0.5114
  793MOL0     C 6974   2.934   6.825   0.489  0.1952  0.4231  0.2055
  793MOL0     C 6975   3.372   6.786   0.292  0.8686  0.1903 -0.1573
  793MOL0     C 6976   3.481   6.707   0.255  0.4449 -0.0551 -0.4822
  793MOL0     C 6977   3.604   6.753   0.266  0.0515  0.6655  0.1842
  793MOL0     C 6978   3.637   6.867   0.328  0.9457 -0.4908  0.0822
  793MOL0     O 6979   3.762   6.908   0.349  0.1829 -0.6598  0.1744
  793MOL0     C 6980   3.802   6.913   0.480  0.3445  0.6647 -0.5895
  793MOL0     C 6981   3.950   6.908   0.484 -0.3326 -0.0156  0.9017
  793MOL0     C 6982   4.004   6.849   0.607  0.0802  0.1944 -0.5311
  793MOL0     C 6983   4.147   6.888   0.624 -0.4525 -0.2121 -0.0901
  793MOL0     C 6984   4.202   6.823   0.736 -0.3509  0.1467  0.2139
  793MOL0     C 6985   4.258   6.773   0.833  0.9090 -0.4953  0.0419
  793MOL0     C 6986   3.531   6.953   0.365 -1.1951  0.1462 -0.0792
  793MOL0     C 6987   3.399   6.919   0.342 -0.3236  0.6914 -0.1438
  793MOL0     H 6988   2.990   6.797   0.156 -2.7054 -4.3579 -1.4650
  793MOL0     H 6989   2.757   6.794   0.145 -1.8230  0.4785  1.3857
  793MOL0     H 6990   2.494   6.718   0.498 -1.9800  0.3395  1.5603
  793MOL0     H 6991   2.482   6.899   0.483  3.9001  1.0442 -0.6255
  793MOL0     H 6992   2.339   6.682   0.339 -1.4057  0.3674 -1.2672
  793MOL0     H 6993   2.268   6.825   0.427 -0.4440  1.0081  0.1089
  793MOL0     H 6994   2.332   6.974   0.264 -0.4943  0.0510 -1.8957
  793MOL0     H 6995   2.402   6.839   0.164 -1.9210 -1.2293 -0.9952
  793MOL0     H 6996   2.174   6.740   0.153 -2.8327 -0.0993 -0.0430
  793MOL0     H 6997   2.126   6.841   0.285 -0.1119  0.1189 -0.6899
  793MOL0     H 6998   2.151   7.048   0.136 -2.1007 -0.5821  0.5416
  793MOL0     H 6999   2.223   6.946   0.015 -1.1396 -0.0080 -0.4633
  793MOL0     H 7000   1.996   6.998  -0.060  2.0505 -1.3691 -0.4582
  793MOL0     H 7001   2.000   6.831  -0.006 -0.9193  0.1814 -0.7078
  793MOL0     H 7002   1.905   6.917   0.227  0.3146  0.2748 -0.8832
  793MOL0     H 7003   1.903   7.076   0.153  0.8846  0.7852 -1.6038
  793MOL0     H 7004   1.675   6.964   0.162 -1.6241 -3.6654  0.2459
  793MOL0     H 7005   1.735   6.821   0.079 -1.2418  0.1080  3.1687
  793MOL0     H 7006   1.666   7.203   0.002 -2.2571  1.0650 -2.7674
  793MOL0     H 7007   1.517   7.252  -0.264 -0.0087  1.5569 -1.1670
  793MOL0     H 7008   1.649   7.342  -0.239 -0.5384  0.6993 -2.7077
  793MOL0     H 7009   1.595   7.307  -0.472  1.5723 -1.0385 -1.6239
  793MOL0     H 7010   1.604   7.137  -0.451 -0.8322 -0.2870  1.6382
  793MOL0     H 7011   1.860   7.210  -0.385 -1.6940 -0.5685  1.7045
  793MOL0     H 7012   1.817   7.355  -0.457  0.1735 -0.3341  0.1499
  793MOL0     H 7013   1.777   7.095  -0.616  2.1331 -1.9248  2.6616
  793MOL0     H 7014   1.924   7.186  -0.614 -0.1429  0.5196  1.4047
  793MOL0     H 7015   1.993   7.455  -0.632  0.7581  0.5619 -0.4657
  793MOL0     H 7016   2.220   7.634  -0.828 -0.0266 -1.0452  0.0639
  793MOL0     H 7017   2.081   7.720  -0.762 -1.3538 -0.2211  0.1712
  793MOL0     H 7018   2.155   7.587  -0.672 -1.2554 -0.1173  0.8099
  793MOL0     H 7019   2.223   7.476  -1.043 -2.3112 -1.5063  2.2849
  793MOL0     H 7020   2.298   7.234  -1.078  0.8937  2.2486 -0.2867
  793MOL0     H 7021   2.366   7.071  -1.254 -2.3193  2.7375 -0.7964
  793MOL0     H 7022   2.291   6.992  -1.113  3.5982 -0.5155 -0.1895
  793MOL0     H 7023   2.210   6.800  -1.288 -1.8849 -1.1665 -3.4632
  793MOL0     H 7024   2.287   6.886  -1.421  2.0086  1.6820  0.7488
  793MOL0     H 7025   2.412   6.680  -1.298  2.0602  0.4687 -1.0282
  793MOL0     H 7026   2.443   6.800  -1.177 -1.3585 -0.6714  0.5109
  793MOL0     H 7027   2.529   6.819  -1.469 -0.0278 -3.1416  0.4099
  793MOL0     H 7028   2.548   6.947  -1.346  1.4743 -0.0767 -0.7070
  793MOL0     H 7029   2.653   6.672  -1.295 -0.6203  0.1884  0.5025
  793MOL0     H 7030   2.682   6.827  -1.205  3.6110 -1.3959  0.0753
  793MOL0     H 7031   2.885   6.774  -1.378  1.1451 -0.1733 -0.1762
  793MOL0     H 7032   2.755   6.778  -1.499 -1.3110  0.3118  1.3993
  793MOL0     H 7033   2.804   7.013  -1.320  2.8118 -0.8050 -0.1030
  793MOL0     H 7034   2.690   7.007  -1.464 -0.2726 -0.6902  0.9971
  793MOL0     H 7035   2.907   7.134  -1.517  0.9587  0.1626 -0.5126
  793MOL0     H 7036   2.881   6.989  -1.615 -0.5923  2.2770  0.4955
  793MOL0     H 7037   1.966   7.203  -1.353  2.3456 -1.9205 -0.9851
  793MOL0     H 7038   1.942   7.457  -1.355 -0.3618  0.9066 -0.6732
  793MOL0     H 7039   1.818   7.493  -1.098 -1.1084  0.3069 -0.8854
  793MOL0     H 7040   1.703   7.344  -0.931  1.0045 -2.9711 -0.0149
  793MOL0     H 7041   2.743   6.800   0.576  1.9236 -3.6455  0.0171
  793MOL0     H 7042   2.971   6.817   0.591  2.5476  3.3798 -0.2614
  793MOL0     H 7043   3.461   6.605   0.222  3.0505 -1.8647  2.9415
  793MOL0     H 7044   3.686   6.690   0.232 -2.2216 -2.3715 -0.0598
  793MOL0     H 7045   3.761   6.997   0.537 -1.7894 -1.0743  0.6146
  793MOL0     H 7046   3.759   6.821   0.522 -1.5548  1.0810 -1.5039
  793MOL0     H 7047   3.999   7.005   0.470 -0.7387  0.2391  1.2183
  793MOL0     H 7048   3.979   6.845   0.399 -3.3264 -0.9070  0.3858
  793MOL0     H 7049   3.999   6.740   0.596  0.7878 -0.0689  1.3039
  793MOL0     H 7050   3.960   6.882   0.702  2.1971 -0.2275  0.6709
  793MOL0     H 7051   4.163   6.996   0.628 -2.4380  0.3142 -2.9348
  793MOL0     H 7052   4.205   6.859   0.536 -0.9563  3.2517 -1.7207
  793MOL0     H 7053   4.310   6.724   0.913 -3.7751 -1.5675  2.7421
  793MOL0     H 7054   3.558   7.051   0.403  0.7914 -0.9589  1.5765
  793MOL0     H 7055   3.323   6.992   0.368 -0.5815  0.0462  0.9874
  794MOL0     O 7056   9.457   3.108   6.521  0.1565  0.1804  0.2429
  794MOL0     C 7057   9.499   2.993   6.528 -0.0996  0.7129 -0.5871
  794MOL0     O 7058   9.426   2.889   6.587  0.3157  0.4355  0.8646
  794MOL0     C 7059   9.295   2.916   6.598  0.1739  0.4938 -0.4741
  794MOL0     C 7060   9.192   2.840   6.530  0.0678 -0.0651 -0.1394
  794MOL0     C 7061   9.066   2.880   6.556  0.1662 -0.7044  1.0578
  794MOL0     C 7062   9.027   2.970   6.649  0.1600  0.0273 -0.1624
  794MOL0     O 7063   8.899   3.023   6.665  0.2536 -0.8768  0.1598
  794MOL0     C 7064   8.788   2.934   6.634  0.7852 -0.0439 -0.5694
  794MOL0     C 7065   8.656   3.004   6.666 -0.2302  0.8153  0.7844
  794MOL0     C 7066   8.530   2.921   6.667  0.5242  0.4335  0.0625
  794MOL0     C 7067   8.524   2.816   6.545 -1.1064  0.3703  0.5748
  794MOL0     C 7068   8.390   2.739   6.529  0.0390  0.0384  0.0854
  794MOL0     C 7069   8.270   2.819   6.464  0.5115  0.4056 -0.3702
  794MOL0     C 7070   8.139   2.747   6.496 -0.5956 -0.0640 -0.2400
  794MOL0     C 7071   8.012   2.801   6.439 -0.7915 -0.1313  0.2845
  794MOL0     N 7072   7.915   2.701   6.481 -0.0154  0.0978  0.3443
  794MOL0     C 7073   7.831   2.723   6.582  0.4432  0.4124 -0.0442
  794MOL0     C 7074   7.735   2.629   6.571  0.4325  0.3494 -0.8810
  794MOL0     C 7075   7.612   2.611   6.655  0.7030 -0.2302 -0.2891
  794MOL0     C 7076   7.503   2.716   6.624  0.3214  0.0483  0.6757
  794MOL0     C 7077   7.430   2.684   6.493  0.7836 -0.1426 -0.7503
  794MOL0     C 7078   7.493   2.747   6.371 -0.6105  0.9328 -0.6311
  794MOL0     O 7079   7.510   2.886   6.373  0.3712 -0.1696  0.5283
  794MOL0     C 7080   7.571   2.944   6.269 -0.3487  0.3034 -0.7579
  794MOL0     C 7081   7.523   3.070   6.232 -0.1194  0.2298 -0.0730
  794MOL0     C 7082   7.583   3.155   6.147 -0.5188  0.3287  0.4724
  794MOL0     C 7083   7.510   3.275   6.090  0.0515 -0.0389 -0.0249
  794MOL0     C 7084   7.725   3.124   6.112 -0.8066 -0.8407 -0.1505
  794MOL0     C 7085   7.812   3.215   6.034 -0.1124 -0.3032  1.4747
  794MOL0     O 7086   7.900   3.170   5.929 -0.0825  0.4142 -0.3068
  794MOL0     C 7087   7.987   3.249   5.867 -0.0844  0.1880 -0.1174
  794MOL0     C 7088   7.975   3.385   5.842 -0.2060 -0.3677 -0.3795
  794MOL0     C 7089   8.068   3.457   5.766 -0.2736 -0.2207  0.4966
  794MOL0     C 7090   8.171   3.389   5.708 -0.9463  0.3927  0.2763
  794MOL0     O 7091   8.270   3.449   5.627  0.2420 -0.1050  0.8395
  794MOL0     C 7092   8.223   3.495   5.498 -1.2289 -0.3122  0.3277
  794MOL0     C 7093   8.347   3.527   5.415  0.5308  0.2204  0.3192
  794MOL0     C 7094   8.427   3.647   5.485  0.7278 -0.0839  0.6499
  794MOL0     C 7095   8.557   3.675   5.403 -0.1960  0.9061  0.0944
  794MOL0     C 7096   8.655   3.755   5.490  0.0181  0.2642 -0.9453
  794MOL0     C 7097   8.602   3.890   5.540 -0.2915  0.4698  0.7183
  794MOL0     C 7098   8.720   3.983   5.567 -0.6546 -0.6218 -0.9241
  794MOL0     C 7099   8.674   4.126   5.605 -0.1427 -0.5710  0.1452
  794MOL0    Cl 7100   8.574   4.105   5.755  0.0607  0.1377  0.3407
  794MOL0     C 7101   8.193   3.255   5.736 -0.0899  0.9217  0.3028
  794MOL0     C 7102   8.096   3.188   5.811  0.4918  0.1362  0.1906
  794MOL0     O 7103   7.803   3.328   6.076  0.2482  0.3343 -0.2896
  794MOL0     C 7104   7.777   2.994   6.148  1.1235 -0.1440  0.9425
  794MOL0     C 7105   7.700   2.907   6.225  0.3855 -0.4393 -0.6791
  794MOL0     N 7106   7.758   2.544   6.466  0.4996  0.2534  0.4824
  794MOL0     N 7107   7.862   2.591   6.410 -0.2627  0.1762 -0.1438
  794MOL0     C 7108   9.125   3.033   6.728  0.0155 -0.6769 -0.2076
  794MOL0     C 7109   9.257   3.014   6.697  0.8061  0.5008  0.0221
  794MOL0     C 7110   9.633   2.967   6.476  1.0131  0.8433 -0.0460
  794MOL0     C 7111   9.677   2.834   6.440 -0.1513 -0.7106  0.7793
  794MOL0     C 7112   9.808   2.822   6.385  0.6557  0.0888  0.1154
  794MOL0     C 7113   9.891   2.935   6.352  0.0361 -0.4593 -1.0981
  794MOL0     O 7114  10.022   2.909   6.317 -0.5712 -0.7888 -0.2534
  794MOL0     C 7115  10.111   3.023   6.286  0.4823  0.3079 -0.5847
  794MOL0     C 7116  10.099   3.060   6.132  0.0667  0.2764 -0.1633
  794MOL0     C 7117  10.139   3.202   6.105 -0.2559  0.0713 -0.1271
  794MOL0     C 7118  10.300   3.207   6.128  0.3158  0.0040  0.2710
  794MOL0     C 7119  10.355   3.330   6.073 -0.3179  0.1772  0.1501
  794MOL0     C 7120  10.391   3.448   6.046  0.5153 -0.5777 -0.8493
  794MOL0     C 7121   9.844   3.062   6.379 -0.0362 -0.1415 -1.2549
  794MOL0     C 7122   9.720   3.076   6.449  0.6545  0.0405 -0.3025
  794MOL0     H 7123   9.230   2.754   6.474  0.9792 -1.5102  2.5251
  794MOL0     H 7124   8.989   2.823   6.504  0.1614  1.5362 -1.5684
  794MOL0     H 7125   8.795   2.918   6.526  3.5448  4.3179 -1.2790
  794MOL0     H 7126   8.791   2.841   6.691  1.6272 -0.5834 -1.4651
  794MOL0     H 7127   8.659   3.039   6.770  0.9579  1.7729  0.4547
  794MOL0     H 7128   8.654   3.092   6.602 -0.2427  0.0045 -0.3607
  794MOL0     H 7129   8.530   2.852   6.752 -2.2183  2.0479  1.5416
  794MOL0     H 7130   8.446   2.989   6.687  0.0667 -0.3644  0.9446
  794MOL0     H 7131   8.531   2.878   6.455 -3.2617 -0.1681 -0.0128
  794MOL0     H 7132   8.610   2.750   6.562 -0.1082  2.1407  2.8704
  794MOL0     H 7133   8.413   2.663   6.454 -1.3111 -0.7143  0.3937
  794MOL0     H 7134   8.358   2.704   6.627 -0.4368 -0.3385 -0.1947
  794MOL0     H 7135   8.273   2.920   6.506  1.5649  0.1479  0.2280
  794MOL0     H 7136   8.275   2.834   6.356 -2.4187  3.0780 -0.2778
  794MOL0     H 7137   8.145   2.641   6.469 -0.9469  0.5706 -3.0504
  794MOL0     H 7138   8.125   2.755   6.605  0.0197 -1.0946 -0.0724
  794MOL0     H 7139   8.013   2.811   6.330 -0.5258  2.6948  0.4694
  794MOL0     H 7140   7.981   2.897   6.480  0.3209 -0.5625  2.2904
  794MOL0     H 7141   7.827   2.803   6.654  1.5499 -0.2732  0.8150
  794MOL0     H 7142   7.553   2.522   6.629 -2.1636  0.7464  2.3085
  794MOL0     H 7143   7.622   2.610   6.764 -2.5070 -0.2006  0.1133
  794MOL0     H 7144   7.554   2.813   6.614  0.6186 -0.2525 -0.9815
  794MOL0     H 7145   7.434   2.720   6.709  2.5767 -1.2794  2.7071
  794MOL0     H 7146   7.327   2.715   6.509  0.4513 -1.2076 -0.7371
  794MOL0     H 7147   7.420   2.577   6.472 -5.4133  0.1650 -1.2951
  794MOL0     H 7148   7.428   2.727   6.285  0.1615 -0.7726 -0.8497
  794MOL0     H 7149   7.587   2.692   6.366 -0.7598  0.3752  1.4392
  794MOL0     H 7150   7.428   3.103   6.273 -0.2236 -0.9253  0.6763
  794MOL0     H 7151   7.410   3.257   6.049 -0.6923 -1.3795  2.1647
  794MOL0     H 7152   7.501   3.353   6.166 -0.3813 -1.3904  1.3817
  794MOL0     H 7153   7.568   3.321   6.010  1.3420  3.3063  2.5948
  794MOL0     H 7154   7.886   3.437   5.877 -0.5285  0.2511 -2.0379
  794MOL0     H 7155   8.044   3.557   5.732 -0.9504 -0.0753  1.3549
  794MOL0     H 7156   8.160   3.427   5.440  0.4246  0.5076 -2.6343
  794MOL0     H 7157   8.168   3.588   5.516  1.2935  2.1106 -3.0482
  794MOL0     H 7158   8.404   3.433   5.416  0.1511 -0.0123 -0.1316
  794MOL0     H 7159   8.320   3.547   5.311  3.2031 -0.5182 -0.6088
  794MOL0     H 7160   8.455   3.621   5.588  2.1611 -1.1181  0.0402
  794MOL0     H 7161   8.361   3.734   5.488 -3.7991 -3.1020 -0.9615
  794MOL0     H 7162   8.590   3.588   5.346 -3.5087  2.7905 -5.4875
  794MOL0     H 7163   8.517   3.736   5.322 -0.5713 -0.1003 -0.4968
  794MOL0     H 7164   8.743   3.778   5.429  0.2086  1.4111 -0.2624
  794MOL0     H 7165   8.694   3.701   5.577  3.7385  0.3657 -2.3400
  794MOL0     H 7166   8.538   3.938   5.466 -0.1383  2.0110  1.5530
  794MOL0     H 7167   8.550   3.871   5.634 -0.0617  2.1533  1.2287
  794MOL0     H 7168   8.798   3.982   5.491  1.7291  2.7473  1.1922
  794MOL0     H 7169   8.774   3.960   5.659 -0.0520  0.5174 -0.9744
  794MOL0     H 7170   8.618   4.169   5.521 -2.3802  4.0159  3.5291
  794MOL0     H 7171   8.762   4.190   5.616 -0.3807 -0.2897  0.4228
  794MOL0     H 7172   8.279   3.203   5.696 -1.7577 -0.1447 -2.1763
  794MOL0     H 7173   8.108   3.082   5.834 -1.6579  0.1900  1.9623
  794MOL0     H 7174   7.880   2.971   6.124  1.5726 -1.3714  3.6099
  794MOL0     H 7175   7.738   2.831   6.293 -2.1166  0.3798  1.8406
  794MOL0     H 7176   9.091   3.107   6.799  0.8196  0.3033 -0.8143
  794MOL0     H 7177   9.339   3.060   6.751  0.4801  1.1037  0.0168
  794MOL0     H 7178   9.601   2.758   6.437  0.2012 -1.0787 -2.3108
  794MOL0     H 7179   9.854   2.731   6.349 -1.6703 -1.4247  0.7933
  794MOL0     H 7180  10.099   3.103   6.359 -0.4320 -1.4876  1.3572
  794MOL0     H 7181  10.214   2.991   6.302 -0.4398 -2.3893  0.5583
  794MOL0     H 7182   9.993   3.037   6.114  0.0324  1.4996 -1.7730
  794MOL0     H 7183  10.149   2.988   6.067 -0.2231 -0.5156  0.4762
  794MOL0     H 7184  10.085   3.278   6.162  0.1947 -1.2356  2.1418
  794MOL0     H 7185  10.119   3.224   6.000 -1.2049  1.4918  0.3240
  794MOL0     H 7186  10.338   3.118   6.079 -1.2618 -0.4837 -0.1348
  794MOL0     H 7187  10.332   3.205   6.233  2.1927 -0.5581 -0.2898
  794MOL0     H 7188  10.399   3.555   6.043 -0.9677 -0.3356  1.3728
  794MOL0     H 7189   9.910   3.147   6.364  0.1324  0.7122  3.1430
  794MOL0     H 7190   9.677   3.174   6.471 -4.6626 -1.9280 -0.2905
  795MOL0     O 7191   6.656   5.477   3.211  0.1581  0.0214  0.3082
  795MOL0     C 7192   6.577   5.573   3.208  0.0397  1.4686 -0.0459
  795MOL0     O 7193   6.462   5.580   3.278  0.5417 -0.1427  0.4742
  795MOL0     C 7194   6.418   5.477   3.365 -1.1180  1.1428  0.6975
  795MOL0     C 7195   6.436   5.337   3.338 -0.6789  0.8055 -0.2127
  795MOL0     C 7196   6.391   5.248   3.432 -0.2952  1.2668 -0.7873
  795MOL0     C 7197   6.342   5.283   3.558  0.2907  0.4577 -0.9210
  795MOL0     O 7198   6.311   5.202   3.666 -0.3309  1.1073  0.0913
  795MOL0     C 7199   6.362   5.071   3.681  0.5141  0.7953 -0.1655
  795MOL0     C 7200   6.483   5.065   3.776 -0.0545  0.7079 -0.0819
  795MOL0     C 7201   6.613   5.040   3.691 -0.3999 -0.8013 -0.3673
  795MOL0     C 7202   6.740   5.073   3.770 -0.0027 -0.1985  1.1665
  795MOL0     C 7203   6.763   5.003   3.899  0.0065 -0.6919 -0.8113
  795MOL0     C 7204   6.783   4.859   3.891 -0.8999 -0.2528 -0.1876
  795MOL0     C 7205   6.765   4.791   4.022  0.1965 -0.3217  0.0001
  795MOL0     C 7206   6.877   4.824   4.121 -0.2320  0.5506  0.4042
  795MOL0     N 7207   6.858   4.735   4.240 -0.2354 -0.0628 -0.5110
  795MOL0     C 7208   6.740   4.702   4.305 -0.4999  0.6706  0.2584
  795MOL0     C 7209   6.769   4.593   4.378  0.1788 -0.6088 -0.6490
  795MOL0     C 7210   6.681   4.514   4.471  1.2618 -0.6881  0.4841
  795MOL0     C 7211   6.623   4.411   4.369 -0.8006  1.0903 -0.3048
  795MOL0     C 7212   6.719   4.317   4.295 -0.2906 -0.4013  0.4382
  795MOL0     C 7213   6.658   4.216   4.213 -0.1013  0.8239  0.3605
  795MOL0     O 7214   6.557   4.259   4.128  0.2395  0.1375  0.4419
  795MOL0     C 7215   6.580   4.343   4.016  1.7054  0.1301 -0.4606
  795MOL0     C 7216   6.504   4.462   4.032  0.4537  0.4964  0.2483
  795MOL0     C 7217   6.492   4.563   3.937  0.1724  0.2168  0.6327
  795MOL0     C 7218   6.401   4.680   3.946  0.9272  0.1042 -0.6443
  795MOL0     C 7219   6.579   4.546   3.821 -0.2833 -1.1217  0.5721
  795MOL0     C 7220   6.591   4.630   3.706  0.3595  0.2425 -0.2860
  795MOL0     O 7221   6.696   4.628   3.623 -0.3967 -1.0307 -0.4338
  795MOL0     C 7222   6.698   4.706   3.504 -0.0768 -0.9444  0.3114
  795MOL0     C 7223   6.605   4.689   3.399  0.7556 -0.6325  0.1732
  795MOL0     C 7224   6.618   4.753   3.276  0.8199 -1.0022  0.0708
  795MOL0     C 7225   6.732   4.824   3.253 -0.1335 -0.9027 -0.9133
  795MOL0     O 7226   6.742   4.864   3.119  0.1599 -0.2543  0.6427
  795MOL0     C 7227   6.867   4.890   3.062 -0.7063  0.6459  0.1169
  795MOL0     C 7228   6.906   5.039   3.080  1.0263 -0.8497  0.1763
  795MOL0     C 7229   6.794   5.124   3.019 -0.2239  0.1359  0.6029
  795MOL0     C 7230   6.835   5.271   2.997 -0.8475 -0.5359 -0.2398
  795MOL0     C 7231   6.722   5.334   2.904 -0.3304 -1.2603  0.3843
  795MOL0     C 7232   6.788   5.441   2.809 -0.1041 -0.3189 -0.3237
  795MOL0     C 7233   6.678   5.494   2.712 -0.9630 -0.4137 -0.2783
  795MOL0     C 7234   6.733   5.631   2.657 -0.1690  0.6127 -1.4675
  795MOL0    Cl 7235   6.713   5.652   2.482  0.1213 -0.1169 -0.0289
  795MOL0     C 7236   6.823   4.856   3.352  0.7699  0.4101 -0.2707
  795MOL0     C 7237   6.804   4.793   3.477  0.3116 -0.0841 -0.1080
  795MOL0     O 7238   6.492   4.700   3.685  0.2853 -0.5927  0.5917
  795MOL0     C 7239   6.657   4.430   3.803 -0.6579  0.9024  0.2297
  795MOL0     C 7240   6.649   4.322   3.893  0.4263  0.1084 -0.1774
  795MOL0     N 7241   6.907   4.570   4.368  0.3286 -0.4311  0.2960
  795MOL0     N 7242   6.963   4.657   4.291 -0.1380 -0.6272  0.2776
  795MOL0     C 7243   6.326   5.415   3.578 -0.1542 -0.2494 -0.8041
  795MOL0     C 7244   6.360   5.505   3.486 -0.1582 -0.2931 -0.1016
  795MOL0     C 7245   6.615   5.678   3.111  0.2983  0.7470  0.0943
  795MOL0     C 7246   6.509   5.759   3.064  0.0531 -0.0359 -0.5148
  795MOL0     C 7247   6.533   5.864   2.976  0.2971  0.8807  1.6116
  795MOL0     C 7248   6.657   5.891   2.927 -0.4629 -0.7082 -0.0105
  795MOL0     O 7249   6.653   5.977   2.824 -0.8812 -0.5713 -0.6061
  795MOL0     C 7250   6.766   6.048   2.775  0.2722  0.9447 -0.5493
  795MOL0     C 7251   6.792   6.182   2.846 -0.0771  0.5168  0.0393
  795MOL0     C 7252   6.665   6.270   2.819  0.6986  0.9800 -0.7301
  795MOL0     C 7253   6.687   6.416   2.853 -0.1715  0.0866  0.6333
  795MOL0     C 7254   6.569   6.493   2.828  0.6645 -0.0081 -0.1674
  795MOL0     C 7255   6.468   6.554   2.803  0.5848 -1.0915 -0.4556
  795MOL0     C 7256   6.767   5.821   2.986 -0.4764 -0.6667  0.6309
  795MOL0     C 7257   6.744   5.708   3.074 -0.9140 -0.1078 -0.1635
  795MOL0     H 7258   6.499   5.301   3.257 -3.6214  0.2521 -2.4630
  795MOL0     H 7259   6.400   5.143   3.405 -1.3378  1.2146 -0.9592
  795MOL0     H 7260   6.281   5.006   3.715  1.1561  0.5419  0.9071
  795MOL0     H 7261   6.390   5.018   3.589 -3.0541 -0.6815 -0.5688
  795MOL0     H 7262   6.486   5.156   3.837 -4.3754 -0.1660  1.8481
  795MOL0     H 7263   6.462   4.987   3.850  1.3695  0.7906  0.4267
  795MOL0     H 7264   6.604   4.940   3.648  2.2116 -2.1183  1.8647
  795MOL0     H 7265   6.610   5.115   3.611  0.5124 -0.2449  0.1069
  795MOL0     H 7266   6.823   5.057   3.700 -1.2994 -1.1900 -0.2249
  795MOL0     H 7267   6.722   5.180   3.780 -2.9056 -0.2770 -1.6364
  795MOL0     H 7268   6.838   5.058   3.956 -2.3733  3.1469 -1.0687
  795MOL0     H 7269   6.670   5.010   3.956  0.1442  1.0068 -0.7531
  795MOL0     H 7270   6.713   4.815   3.820 -1.6066  0.3415  0.1385
  795MOL0     H 7271   6.880   4.831   3.848 -1.2284 -1.0027 -0.4628
  795MOL0     H 7272   6.667   4.806   4.068  0.8950 -1.4136  1.9722
  795MOL0     H 7273   6.766   4.685   3.997  1.1976 -0.3150 -0.0258
  795MOL0     H 7274   6.869   4.929   4.149 -3.1489  0.3235  0.7420
  795MOL0     H 7275   6.976   4.808   4.078  0.4457 -1.2902  2.5241
  795MOL0     H 7276   6.644   4.752   4.305  0.0248  1.7141  0.8057
  795MOL0     H 7277   6.733   4.454   4.547 -1.0004 -2.1048  1.0150
  795MOL0     H 7278   6.614   4.588   4.517  0.4835 -0.5544 -0.8365
  795MOL0     H 7279   6.562   4.466   4.297 -1.3288  1.8720  0.6973
  795MOL0     H 7280   6.555   4.342   4.421  0.9694 -3.6189 -3.5514
  795MOL0     H 7281   6.777   4.273   4.377  1.8009  0.6841 -0.3978
  795MOL0     H 7282   6.776   4.372   4.220 -0.4639 -3.6659 -2.3335
  795MOL0     H 7283   6.627   4.142   4.288  0.4567 -0.7559 -0.8901
  795MOL0     H 7284   6.741   4.160   4.167  0.6180 -0.6754  3.1973
  795MOL0     H 7285   6.447   4.497   4.117 -0.2908  2.9210 -1.1361
  795MOL0     H 7286   6.451   4.777   3.954  1.3810 -0.0887 -1.0313
  795MOL0     H 7287   6.344   4.689   3.853  3.3736  1.5506 -2.1227
  795MOL0     H 7288   6.334   4.663   4.030 -0.0917 -2.9062 -1.9228
  795MOL0     H 7289   6.525   4.619   3.419  0.6981 -0.0437  2.2768
  795MOL0     H 7290   6.559   4.736   3.186 -1.1083 -0.7250  1.2217
  795MOL0     H 7291   6.934   4.832   3.127  0.6418  3.3093  1.3049
  795MOL0     H 7292   6.885   4.851   2.962  3.3499  0.1072  0.8768
  795MOL0     H 7293   6.907   5.074   3.184  1.0019 -0.1800 -0.0463
  795MOL0     H 7294   7.007   5.042   3.039 -1.0613 -1.4069 -6.1306
  795MOL0     H 7295   6.707   5.131   3.086 -1.7763 -1.4716 -1.1421
  795MOL0     H 7296   6.761   5.076   2.927 -3.2816 -0.1947  1.7309
  795MOL0     H 7297   6.829   5.325   3.091 -0.9665  2.6585 -1.9421
  795MOL0     H 7298   6.940   5.280   2.965 -0.0013 -2.3699  1.7621
  795MOL0     H 7299   6.648   5.380   2.970  2.6589 -0.4318  3.3975
  795MOL0     H 7300   6.684   5.254   2.839  1.3265 -2.8268  1.2663
  795MOL0     H 7301   6.841   5.517   2.869  2.7285 -1.8684 -0.6836
  795MOL0     H 7302   6.865   5.397   2.746  0.3315  1.3433 -0.9985
  795MOL0     H 7303   6.592   5.516   2.776  0.4811  3.4287  0.6444
  795MOL0     H 7304   6.654   5.432   2.626  0.2078  0.3871 -1.2214
  795MOL0     H 7305   6.839   5.649   2.677 -0.3764  0.7203 -0.3802
  795MOL0     H 7306   6.688   5.706   2.722 -0.8940 -1.4969  0.6170
  795MOL0     H 7307   6.915   4.911   3.336  0.8348  0.3554 -0.0870
  795MOL0     H 7308   6.882   4.811   3.550  0.2085  0.9473 -0.2395
  795MOL0     H 7309   6.724   4.414   3.719  0.5912  2.8572  0.7805
  795MOL0     H 7310   6.696   4.226   3.876  0.0651 -0.4470  1.7204
  795MOL0     H 7311   6.269   5.453   3.662  2.1482 -1.4344  1.4436
  795MOL0     H 7312   6.330   5.606   3.514  1.3490  0.1135  0.1402
  795MOL0     H 7313   6.409   5.726   3.091 -0.4049  0.5702 -1.4054
  795MOL0     H 7314   6.452   5.920   2.930  0.0043 -1.0795 -0.4577
  795MOL0     H 7315   6.854   5.984   2.789 -0.6170 -0.9198 -2.8030
  795MOL0     H 7316   6.758   6.069   2.668  0.0729 -3.0221 -1.4551
  795MOL0     H 7317   6.879   6.220   2.791 -0.3771  0.3868 -0.5334
  795MOL0     H 7318   6.821   6.186   2.951 -4.4964  3.7074  1.4401
  795MOL0     H 7319   6.589   6.234   2.889 -0.5670  0.6083 -2.2500
  795MOL0     H 7320   6.625   6.262   2.718 -3.9618  1.0447  0.8593
  795MOL0     H 7321   6.767   6.452   2.787 -0.7938 -0.0681 -0.2188
  795MOL0     H 7322   6.725   6.436   2.953  0.3709  0.8723  0.2819
  795MOL0     H 7323   6.377   6.609   2.790 -1.0480 -3.2451  1.1544
  795MOL0     H 7324   6.868   5.846   2.956 -0.6518 -0.9097 -0.1859
  795MOL0     H 7325   6.832   5.656   3.112  1.8345  1.4933 -3.7226
  796MOL0     O 7326   9.109  10.585   7.538 -0.0858 -0.3064 -0.2200
  796MOL0     C 7327   9.111  10.474   7.587 -0.6446  0.4351  1.0491
  796MOL0     O 7328   9.226  10.394   7.627 -0.1537  0.0755 -0.1756
  796MOL0     C 7329   9.347  10.438   7.595  0.0984  0.1099  0.8913
  796MOL0     C 7330   9.377  10.421   7.461 -0.7720  0.6773 -0.7191
  796MOL0     C 7331   9.508  10.467   7.429  0.8061 -0.0130 -0.3302
  796MOL0     C 7332   9.607  10.512   7.516 -0.2979 -0.3685 -0.3476
  796MOL0     O 7333   9.747  10.514   7.481  0.2996  0.3813  0.0404
  796MOL0     C 7334   9.793  10.636   7.426 -0.8072 -0.1920 -0.3158
  796MOL0     C 7335   9.887  10.705   7.517 -0.2116 -0.8985  0.9557
  796MOL0     C 7336   9.938  10.849   7.484 -0.7438  0.5382 -0.6168
  796MOL0     C 7337  10.054  10.841   7.385 -0.0755  0.3274 -0.2444
  796MOL0     C 7338  10.110  10.975   7.375 -0.4179 -0.0265  0.4247
  796MOL0     C 7339  10.234  10.992   7.286  0.5138 -0.7603 -0.0762
  796MOL0     C 7340  10.301  11.121   7.317 -0.2353 -0.1677  0.6862
  796MOL0     C 7341  10.398  11.146   7.193 -0.1366  0.0914 -0.5374
  796MOL0     N 7342  10.519  11.243   7.225  0.0262 -0.1387 -0.0835
  796MOL0     C 7343  10.626  11.207   7.310  0.5044  0.7146  0.5512
  796MOL0     C 7344  10.675  11.316   7.353  0.4475 -0.5442 -1.1574
  796MOL0     C 7345  10.788  11.335   7.447 -0.7676  0.3396  0.5416
  796MOL0     C 7346  10.751  11.426   7.564 -0.5811  0.1980  0.8385
  796MOL0     C 7347  10.868  11.510   7.614  0.5595 -0.1909  1.0509
  796MOL0     C 7348  10.977  11.430   7.685 -0.3473 -0.2507 -0.5107
  796MOL0     O 7349  10.951  11.377   7.820 -0.3616 -0.8221 -0.2700
  796MOL0     C 7350  10.888  11.465   7.901  0.6383 -0.1591 -0.2019
  796MOL0     C 7351  10.765  11.442   7.948 -0.4610  0.3405 -0.0648
  796MOL0     C 7352  10.691  11.538   8.024 -0.1483 -0.1743  0.8785
  796MOL0     C 7353  10.571  11.486   8.093 -0.4758  0.1551  0.2497
  796MOL0     C 7354  10.760  11.672   8.048 -0.4304 -0.2031  0.2931
  796MOL0     C 7355  10.705  11.773   8.133 -0.5482 -0.0691  0.0782
  796MOL0     O 7356  10.577  11.753   8.164  0.0489 -0.0669 -0.0420
  796MOL0     C 7357  10.496  11.850   8.216  0.4070 -0.2787 -0.0210
  796MOL0     C 7358  10.526  11.985   8.231  0.1018  0.5308  0.8321
  796MOL0     C 7359  10.440  12.076   8.294  0.1400 -0.0874  0.8053
  796MOL0     C 7360  10.316  12.031   8.350  0.9728 -0.1466  0.2488
  796MOL0     O 7361  10.231  12.112   8.408  0.1574 -0.4812 -0.3827
  796MOL0     C 7362  10.151  12.068   8.526  0.2372  0.5385 -0.2472
  796MOL0     C 7363  10.190  12.157   8.644  0.3761  0.2289 -0.5975
  796MOL0     C 7364  10.113  12.110   8.772 -0.3628  1.2168 -0.1720
  796MOL0     C 7365   9.959  12.082   8.744  0.5792  0.5983  0.3141
  796MOL0     C 7366   9.896  12.010   8.859  0.0230 -0.1420  0.0871
  796MOL0     C 7367   9.924  11.861   8.860 -0.3496  0.0356  0.2497
  796MOL0     C 7368   9.846  11.792   8.968 -0.9597 -0.1130  0.8894
  796MOL0     C 7369   9.834  11.642   8.945 -0.6884 -0.7360 -0.4099
  796MOL0    Cl 7370   9.733  11.555   9.067 -0.3519  0.3342  0.2279
  796MOL0     C 7371  10.287  11.888   8.342 -0.2799 -0.4825 -0.7635
  796MOL0     C 7372  10.379  11.806   8.276  0.7061 -0.3474 -0.0351
  796MOL0     O 7373  10.779  11.866   8.172  0.0852  0.4378 -0.1316
  796MOL0     C 7374  10.885  11.694   7.991 -0.0860  1.0490  0.3978
  796MOL0     C 7375  10.943  11.589   7.925  0.2012 -0.0751  0.5480
  796MOL0     N 7376  10.607  11.426   7.296 -0.0463 -0.1097  1.0231
  796MOL0     N 7377  10.521  11.377   7.215 -0.2540  0.1754  0.2493
  796MOL0     C 7378   9.560  10.509   7.649 -0.5934 -0.5821  0.5417
  796MOL0     C 7379   9.436  10.481   7.691 -1.4206 -0.0790 -0.2392
  796MOL0     C 7380   8.988  10.407   7.580 -0.4563  0.1240  0.5072
  796MOL0     C 7381   8.881  10.459   7.505 -0.6905 -0.1081  0.6719
  796MOL0     C 7382   8.752  10.397   7.502 -0.3394  0.7665  0.2395
  796MOL0     C 7383   8.721  10.289   7.591  0.3506 -0.6366 -0.9469
  796MOL0     O 7384   8.602  10.223   7.598 -0.8329  0.4954 -0.9513
  796MOL0     C 7385   8.506  10.238   7.493 -0.0199  0.2133  0.5041
  796MOL0     C 7386   8.377  10.171   7.546 -0.1501 -0.3591 -0.5045
  796MOL0     C 7387   8.266  10.166   7.439 -0.1965  0.5075 -0.1590
  796MOL0     C 7388   8.133  10.120   7.500 -0.1999 -0.6255 -0.9156
  796MOL0     C 7389   8.050  10.075   7.385  0.8120 -0.8609  0.6230
  796MOL0     C 7390   7.966  10.045   7.297 -0.3536  0.4947  0.1180
  796MOL0     C 7391   8.827  10.232   7.664 -0.2081  1.2224 -0.4581
  796MOL0     C 7392   8.956  10.288   7.653 -0.5019  1.0776  0.5743
  796MOL0     H 7393   9.308  10.396   7.381  2.0581 -2.5598 -2.4012
  796MOL0     H 7394   9.522  10.445   7.324 -0.8741 -1.0963 -0.3707
  796MOL0     H 7395   9.839  10.603   7.333  1.3019 -0.2749  0.6790
  796MOL0     H 7396   9.705  10.699   7.407  0.9011  2.5382  0.2175
  796MOL0     H 7397   9.843  10.706   7.617 -2.5602  0.4715 -0.0088
  796MOL0     H 7398   9.971  10.635   7.521  0.5667  0.0614  3.4959
  796MOL0     H 7399   9.856  10.919   7.467  0.2498  1.1027 -3.5856
  796MOL0     H 7400   9.983  10.881   7.579 -0.7560 -0.4936 -0.2457
  796MOL0     H 7401  10.126  10.766   7.418  0.5310  1.0930  0.2168
  796MOL0     H 7402  10.013  10.825   7.284  0.3857  0.4845 -0.4593
  796MOL0     H 7403  10.038  11.049   7.339  1.6460 -0.1518 -4.9844
  796MOL0     H 7404  10.142  11.004   7.475 -2.0244  1.0535  0.6569
  796MOL0     H 7405  10.306  10.914   7.311 -1.6928 -3.2573 -1.0475
  796MOL0     H 7406  10.203  10.987   7.182  1.1665  0.8162 -0.3887
  796MOL0     H 7407  10.245  11.212   7.342 -0.1960 -0.0926  0.5025
  796MOL0     H 7408  10.365  11.104   7.404 -0.2903  1.2406  1.0411
  796MOL0     H 7409  10.347  11.181   7.103 -0.0143  0.2904 -0.5306
  796MOL0     H 7410  10.437  11.050   7.160  0.6298 -0.0522  0.7148
  796MOL0     H 7411  10.661  11.113   7.351  0.3638  0.9806  1.3194
  796MOL0     H 7412  10.810  11.238   7.494  0.2127 -0.2885 -1.1176
  796MOL0     H 7413  10.876  11.372   7.393  1.2808 -1.6113  2.3152
  796MOL0     H 7414  10.718  11.362   7.646  1.7689 -2.0282  0.1926
  796MOL0     H 7415  10.669  11.491   7.533 -0.2810 -0.0160 -0.4523
  796MOL0     H 7416  10.838  11.591   7.681  1.8294 -1.2626  3.0129
  796MOL0     H 7417  10.905  11.563   7.525 -3.6072  3.1185  0.9778
  796MOL0     H 7418  11.066  11.492   7.698  0.1453 -0.9031 -0.7647
  796MOL0     H 7419  10.999  11.345   7.620  1.6044  1.2899 -1.9866
  796MOL0     H 7420  10.735  11.339   7.932 -0.4700  0.4232 -0.6042
  796MOL0     H 7421  10.483  11.544   8.066  1.7230  2.0212 -3.9065
  796MOL0     H 7422  10.543  11.392   8.045 -0.3860 -0.2869  1.0426
  796MOL0     H 7423  10.592  11.474   8.199 -3.0190 -1.2664  0.6646
  796MOL0     H 7424  10.610  12.037   8.186 -0.5416 -0.4536 -1.7253
  796MOL0     H 7425  10.459  12.182   8.293  0.9371 -0.2315  0.5895
  796MOL0     H 7426  10.048  12.082   8.493 -0.3967  0.8971  1.7739
  796MOL0     H 7427  10.179  11.964   8.548 -2.5853 -0.3645 -0.5138
  796MOL0     H 7428  10.298  12.159   8.655  0.3229  0.8020 -0.1398
  796MOL0     H 7429  10.152  12.257   8.623 -0.6947 -0.0326  0.0225
  796MOL0     H 7430  10.113  12.194   8.842 -1.2071  2.3343 -1.4719
  796MOL0     H 7431  10.164  12.018   8.803  0.5165  2.3306  1.8599
  796MOL0     H 7432   9.904  12.173   8.720 -2.4465 -1.2856 -0.4893
  796MOL0     H 7433   9.951  12.015   8.657  1.7729 -0.2570  0.8452
  796MOL0     H 7434   9.789  12.026   8.849 -0.1443 -0.8314  0.7191
  796MOL0     H 7435   9.930  12.065   8.948 -1.6377 -0.1878  0.7809
  796MOL0     H 7436   9.899  11.829   8.758  0.3450  3.8198 -1.2621
  796MOL0     H 7437  10.031  11.847   8.879  0.5675  1.3781 -3.0282
  796MOL0     H 7438   9.742  11.827   8.969 -0.9596 -0.0359 -0.3601
  796MOL0     H 7439   9.890  11.817   9.065 -0.0126  0.4267  0.3397
  796MOL0     H 7440   9.936  11.602   8.944 -0.2922  0.2607 -1.7608
  796MOL0     H 7441   9.789  11.626   8.847  1.5874  0.5969 -1.7658
  796MOL0     H 7442  10.189  11.853   8.374 -0.4877  1.1839  0.5780
  796MOL0     H 7443  10.355  11.700   8.271  2.8997 -0.8195 -3.0248
  796MOL0     H 7444  10.930  11.792   8.004  3.0157 -0.3945  1.6069
  796MOL0     H 7445  11.035  11.619   7.877 -0.2486  1.6572  0.6746
  796MOL0     H 7446   9.632  10.531   7.728  0.1869 -2.3046  0.3448
  796MOL0     H 7447   9.414  10.491   7.797 -3.8442 -1.8669 -0.4636
  796MOL0     H 7448   8.909  10.539   7.438  3.8062 -1.1394  0.9900
  796MOL0     H 7449   8.686  10.436   7.426  0.6794  0.6798 -0.7197
  796MOL0     H 7450   8.483  10.340   7.461  4.1238  1.6354  1.4311
  796MOL0     H 7451   8.546  10.179   7.411  2.0225  2.4904 -0.2542
  796MOL0     H 7452   8.348  10.231   7.633 -4.1427 -4.0098  1.0613
  796MOL0     H 7453   8.400  10.070   7.582  0.8087 -1.1745 -3.2021
  796MOL0     H 7454   8.304  10.105   7.357 -0.0559  1.7569 -1.0449
  796MOL0     H 7455   8.247  10.266   7.399 -0.2874  0.0400 -1.3018
  796MOL0     H 7456   8.079  10.201   7.550 -1.7110 -0.1459 -3.1644
  796MOL0     H 7457   8.151  10.038   7.569  2.3127  1.1330  0.6718
  796MOL0     H 7458   7.898  10.036   7.214 -1.3571  1.4167  0.8105
  796MOL0     H 7459   8.805  10.149   7.730  0.9132 -0.4259 -2.0475
  796MOL0     H 7460   9.029  10.242   7.719 -0.0512 -0.8624 -1.2189
  797MOL0     O 7461   0.593  10.264   6.302 -0.6697 -0.2543 -0.0540
  797MOL0     C 7462   0.582  10.143   6.285 -0.4720  0.0916 -0.4392
  797MOL0     O 7463   0.679  10.049   6.292 -0.3784 -0.0669  0.3214
  797MOL0     C 7464   0.814  10.068   6.314 -1.3842 -0.7041 -0.5001
  797MOL0     C 7465   0.880  10.194   6.336  0.8391 -0.4681 -0.0541
  797MOL0     C 7466   1.015  10.202   6.363  0.0214 -0.6250  0.0100
  797MOL0     C 7467   1.092  10.085   6.372  0.6101  0.0981 -0.0544
  797MOL0     O 7468   1.227  10.085   6.397  0.0071  0.9433 -0.3397
  797MOL0     C 7469   1.319  10.141   6.298  0.8268 -0.2815 -0.0620
  797MOL0     C 7470   1.437  10.231   6.356  0.0673  0.3603 -0.0762
  797MOL0     C 7471   1.549  10.261   6.258  0.8220  0.3089  0.5313
  797MOL0     C 7472   1.674  10.305   6.328 -0.0462 -0.5831  0.5567
  797MOL0     C 7473   1.777  10.347   6.227  0.3313 -0.0338  0.2885
  797MOL0     C 7474   1.912  10.374   6.277 -0.1760 -0.2165  0.2038
  797MOL0     C 7475   2.023  10.405   6.174  0.7800 -1.0818 -0.6682
  797MOL0     C 7476   2.042  10.296   6.068  0.0552  0.7002 -0.1488
  797MOL0     N 7477   2.109  10.178   6.129 -0.2216  0.5770  0.9659
  797MOL0     C 7478   2.036  10.081   6.195  0.2301 -0.6733  0.3552
  797MOL0     C 7479   2.123   9.999   6.252 -0.0364 -0.7550 -0.5165
  797MOL0     C 7480   2.094   9.875   6.336  0.2966 -0.1658 -0.0326
  797MOL0     C 7481   2.173   9.873   6.470 -0.5327  0.0033  0.0659
  797MOL0     C 7482   2.138   9.993   6.560  0.4080  0.1442  0.5031
  797MOL0     C 7483   1.985  10.011   6.597  0.9236  0.9720 -0.4017
  797MOL0     O 7484   1.973  10.134   6.684  0.5909 -0.0932 -0.1748
  797MOL0     C 7485   1.858  10.137   6.761  0.4902 -0.0896  0.0000
  797MOL0     C 7486   1.831  10.033   6.851 -0.8133 -0.5978 -0.2771
  797MOL0     C 7487   1.707  10.017   6.919 -0.1438 -0.6773  0.1526
  797MOL0     C 7488   1.689   9.911   7.022 -0.3337 -0.3816  0.1386
  797MOL0     C 7489   1.606  10.109   6.877 -0.6682 -0.7837  0.2160
  797MOL0     C 7490   1.464  10.097   6.918  0.1975 -0.0904 -0.3111
  797MOL0     O 7491   1.396  10.214   6.950 -0.2086  0.1575 -0.6249
  797MOL0     C 7492   1.267  10.242   6.909  0.5769 -0.3621  0.0698
  797MOL0     C 7493   1.192  10.181   6.799  0.5005  0.6115  0.3966
  797MOL0     C 7494   1.053  10.200   6.773  0.4906 -0.5529  0.1140
  797MOL0     C 7495   0.987  10.301   6.844  0.7513  0.6168 -0.4574
  797MOL0     O 7496   0.854  10.323   6.837  0.1539  0.5090  0.2648
  797MOL0     C 7497   0.771  10.237   6.762 -0.0353 -0.4592 -0.0272
  797MOL0     C 7498   0.632  10.285   6.802 -1.1308 -0.0362  0.6205
  797MOL0     C 7499   0.515  10.227   6.717  0.2864  0.5878  0.1785
  797MOL0     C 7500   0.371  10.283   6.747 -0.1310  0.0032 -0.6968
  797MOL0     C 7501   0.273  10.240   6.644 -0.3025  0.1116  0.4161
  797MOL0     C 7502   0.125  10.266   6.684  0.1087 -0.0043  0.1072
  797MOL0     C 7503   0.054  10.269   6.551 -0.7929  0.5801  0.3092
  797MOL0     C 7504   0.010  10.142   6.486  0.2693 -0.0380  0.2380
  797MOL0    Cl 7505  -0.087  10.179   6.345 -0.1702 -0.5598  0.1674
  797MOL0     C 7506   1.065  10.377   6.931  0.3264  0.2246 -0.6908
  797MOL0     C 7507   1.195  10.348   6.966  0.5509  0.2794  0.4416
  797MOL0     O 7508   1.408   9.988   6.917  0.3133  0.0731  0.5235
  797MOL0     C 7509   1.636  10.219   6.806  0.2918 -0.1250  0.9952
  797MOL0     C 7510   1.763  10.231   6.751  0.2097 -0.4968  1.1931
  797MOL0     N 7511   2.247  10.056   6.232 -0.2345 -0.5414 -0.0651
  797MOL0     N 7512   2.244  10.154   6.152  0.2541 -0.1902  0.2914
  797MOL0     C 7513   1.031   9.955   6.351 -1.0024 -0.3519  0.0433
  797MOL0     C 7514   0.895   9.950   6.323  0.0526 -0.3522 -0.2839
  797MOL0     C 7515   0.452  10.089   6.258  1.6866  0.0147  0.2138
  797MOL0     C 7516   0.341  10.174   6.236  0.4427 -0.3298 -0.4660
  797MOL0     C 7517   0.217  10.129   6.198  0.1228 -0.3909 -0.5123
  797MOL0     C 7518   0.182   9.998   6.194 -0.4875 -0.8890  1.4898
  797MOL0     O 7519   0.060   9.965   6.151 -0.6670 -0.8315 -0.0455
  797MOL0     C 7520   0.039   9.823   6.138 -0.2114 -0.4121 -0.0791
  797MOL0     C 7521  -0.098   9.789   6.075  0.2320  0.1978 -1.2357
  797MOL0     C 7522  -0.114   9.832   5.922  0.5439 -0.2633 -0.4955
  797MOL0     C 7523  -0.106   9.989   5.899 -0.8818  0.3169 -0.4224
  797MOL0     C 7524  -0.197  10.057   5.987 -0.9294 -0.4814 -0.8587
  797MOL0     C 7525  -0.275  10.129   6.047  0.0571  0.4290  0.2874
  797MOL0     C 7526   0.296   9.907   6.225  0.5066  0.0608 -0.1107
  797MOL0     C 7527   0.420   9.950   6.252 -0.3560 -0.1074 -0.7553
  797MOL0     H 7528   0.824  10.287   6.331  0.8823 -0.4807 -0.8515
  797MOL0     H 7529   1.053  10.301   6.385 -0.8509  0.1656 -1.8534
  797MOL0     H 7530   1.372  10.057   6.251 -1.3645 -2.2110  0.7385
  797MOL0     H 7531   1.258  10.196   6.226  1.8860  3.1498  1.4596
  797MOL0     H 7532   1.405  10.329   6.392  1.1720  0.2976  1.1621
  797MOL0     H 7533   1.479  10.183   6.446  1.7186  0.6132 -0.6754
  797MOL0     H 7534   1.575  10.180   6.190 -0.3946  1.6035 -1.5639
  797MOL0     H 7535   1.522  10.350   6.201  0.1048 -0.2407 -0.0023
  797MOL0     H 7536   1.652  10.401   6.377  0.8253 -0.1603  0.1424
  797MOL0     H 7537   1.706  10.236   6.406 -0.2852  0.4000  1.5468
  797MOL0     H 7538   1.782  10.269   6.151  0.0619 -2.9085  2.9942
  797MOL0     H 7539   1.737  10.437   6.179  3.0270 -0.1560 -2.4970
  797MOL0     H 7540   1.919  10.449   6.357 -0.1008 -0.4369  0.4048
  797MOL0     H 7541   1.938  10.285   6.336 -3.6880  0.6351  3.4501
  797MOL0     H 7542   1.994  10.492   6.114  0.9825 -2.6407 -3.1822
  797MOL0     H 7543   2.118  10.413   6.228 -1.0017  0.9122  2.5240
  797MOL0     H 7544   2.086  10.340   5.978 -2.0230  0.0832 -1.5544
  797MOL0     H 7545   1.940  10.288   6.030 -1.0893 -2.9224  3.1510
  797MOL0     H 7546   1.928  10.067   6.199  0.3510 -1.9158 -0.2940
  797MOL0     H 7547   1.986   9.864   6.341 -0.1134  2.0559 -1.8184
  797MOL0     H 7548   2.129   9.787   6.282  0.2735 -1.2231  1.6380
  797MOL0     H 7549   2.280   9.868   6.449  0.1575 -3.9208  3.2988
  797MOL0     H 7550   2.152   9.783   6.527 -0.0367  0.7220  1.4206
  797MOL0     H 7551   2.155  10.091   6.513 -0.4998 -0.5360 -1.3309
  797MOL0     H 7552   2.188   9.982   6.656 -0.9524  1.4012  1.4134
  797MOL0     H 7553   1.941   9.926   6.650 -2.4629  0.9605 -2.8665
  797MOL0     H 7554   1.928  10.010   6.503 -0.3287  0.6705  0.3317
  797MOL0     H 7555   1.904   9.952   6.858  0.5574  0.7629  2.7188
  797MOL0     H 7556   1.607   9.933   7.092 -0.2835  0.4116 -0.0451
  797MOL0     H 7557   1.680   9.822   6.958  1.0180  1.4950 -2.8653
  797MOL0     H 7558   1.780   9.886   7.077 -0.4724  1.0140  1.0423
  797MOL0     H 7559   1.244  10.107   6.737 -1.3645  0.4171 -1.0405
  797MOL0     H 7560   1.011  10.138   6.695  4.6839 -0.3854 -2.6072
  797MOL0     H 7561   0.785  10.262   6.656  0.0171 -2.4528 -0.5274
  797MOL0     H 7562   0.782  10.130   6.779 -1.5418 -1.7438 -5.3442
  797MOL0     H 7563   0.610  10.257   6.906 -1.3726  1.6817  1.0641
  797MOL0     H 7564   0.631  10.394   6.790 -0.9328 -0.0890  0.1336
  797MOL0     H 7565   0.522  10.118   6.721 -1.5866  0.3953 -0.8275
  797MOL0     H 7566   0.548  10.241   6.613 -2.1753 -0.3917 -0.8144
  797MOL0     H 7567   0.346  10.247   6.847 -0.6089  2.4538  0.1169
  797MOL0     H 7568   0.374  10.391   6.758 -0.3749  0.0279 -0.8629
  797MOL0     H 7569   0.283  10.134   6.623  0.3693  0.4224 -0.9482
  797MOL0     H 7570   0.286  10.293   6.549 -2.1483 -1.0389 -0.5332
  797MOL0     H 7571   0.079  10.199   6.757  0.6968 -3.8792 -2.7573
  797MOL0     H 7572   0.132  10.364   6.731  1.8730  0.5888 -1.2411
  797MOL0     H 7573   0.104  10.337   6.482 -0.1399 -1.1516 -0.9951
  797MOL0     H 7574  -0.046  10.308   6.577 -0.5511  1.0786  0.5129
  797MOL0     H 7575  -0.044  10.076   6.554 -0.2995  1.5474  1.4119
  797MOL0     H 7576   0.102  10.095   6.450  0.0459 -1.5390  1.5166
  797MOL0     H 7577   1.016  10.452   6.992  0.4689 -0.2586  0.0312
  797MOL0     H 7578   1.245  10.407   7.042 -0.8198  0.4902  1.1987
  797MOL0     H 7579   1.556  10.289   6.788 -0.4970 -1.2688 -0.1508
  797MOL0     H 7580   1.777  10.324   6.697 -3.4025 -0.4034  0.1667
  797MOL0     H 7581   1.092   9.866   6.357 -2.9691 -1.7469  0.2678
  797MOL0     H 7582   0.837   9.861   6.300 -2.4080  0.7717  1.1231
  797MOL0     H 7583   0.350  10.280   6.257  2.5045 -0.1261 -2.1214
  797MOL0     H 7584   0.142  10.205   6.182 -0.3982 -0.7877  0.0067
  797MOL0     H 7585   0.116   9.773   6.079 -1.4761 -3.5308  0.7005
  797MOL0     H 7586   0.050   9.785   6.240  0.7446 -1.1415 -0.4444
  797MOL0     H 7587  -0.170   9.830   6.146  1.0810 -1.2659  0.5506
  797MOL0     H 7588  -0.092   9.679   6.077  3.1733  0.2936  0.3971
  797MOL0     H 7589  -0.206   9.792   5.880  1.4777  0.5019 -3.4815
  797MOL0     H 7590  -0.036   9.794   5.855  0.9070 -0.6009  0.1085
  797MOL0     H 7591  -0.126  10.024   5.798 -1.5579  2.2485  0.3387
  797MOL0     H 7592   0.001  10.015   5.901 -0.9707  0.6755 -0.2467
  797MOL0     H 7593  -0.350  10.194   6.087  0.6350 -0.1868  2.5483
  797MOL0     H 7594   0.279   9.800   6.230 -5.0856  0.7274  2.3246
  797MOL0     H 7595   0.497   9.878   6.279 -1.5078 -1.6872 -1.5439
  798MOL0     O 7596   6.849  10.949   5.975 -1.1712 -0.2477 -0.0778
  798MOL0     C 7597   6.938  10.933   5.888 -0.7760 -0.6031 -1.1780
  798MOL0     O 7598   6.996  11.031   5.814  0.2519 -1.9165  0.5539
  798MOL0     C 7599   6.942  11.162   5.802 -0.2323 -0.0452  0.1741
  798MOL0     C 7600   7.025  11.268   5.780  0.0502  0.9346  0.0172
  798MOL0     C 7601   6.977  11.395   5.746  0.4856 -0.3451  0.6249
  798MOL0     C 7602   6.842  11.428   5.746  0.0444 -0.4331 -0.0333
  798MOL0     O 7603   6.788  11.547   5.702 -0.1930 -0.1663  1.5391
  798MOL0     C 7604   6.837  11.670   5.772 -0.5425  0.7263  0.1281
  798MOL0     C 7605   6.804  11.675   5.929 -0.1238  0.7625  0.0416
  798MOL0     C 7606   6.881  11.790   6.001 -0.2311  0.1697  0.5535
  798MOL0     C 7607   6.844  11.819   6.144  0.7441 -0.5002 -0.5110
  798MOL0     C 7608   6.697  11.869   6.162  0.7064 -0.4154  1.0396
  798MOL0     C 7609   6.664  12.002   6.090  0.3087  0.2939 -0.5407
  798MOL0     C 7610   6.513  12.009   6.056 -0.1811  0.6964  0.1102
  798MOL0     C 7611   6.474  12.160   6.041 -0.9653  0.1871 -0.6273
  798MOL0     N 7612   6.338  12.189   6.004  0.3952  1.0710  0.3881
  798MOL0     C 7613   6.292  12.213   5.878  0.5462  0.6865  0.3597
  798MOL0     C 7614   6.159  12.263   5.896  0.2675  1.1906  0.2488
  798MOL0     C 7615   6.061  12.313   5.793  0.3956 -0.2015 -1.3069
  798MOL0     C 7616   6.069  12.463   5.767 -0.6358  0.3604  1.5574
  798MOL0     C 7617   5.973  12.498   5.660 -0.5110  0.0253 -0.2904
  798MOL0     C 7618   6.006  12.633   5.591 -0.0732 -0.8306 -0.2265
  798MOL0     O 7619   6.119  12.639   5.499 -0.2778  0.0127 -0.2511
  798MOL0     C 7620   6.105  12.660   5.363 -0.4642  0.1273  0.0004
  798MOL0     C 7621   5.987  12.657   5.284  0.3166 -0.5412 -0.5323
  798MOL0     C 7622   5.992  12.672   5.137  0.1940 -0.7122 -0.6583
  798MOL0     C 7623   5.871  12.618   5.070  0.4742  0.3362  0.9183
  798MOL0     C 7624   6.112  12.715   5.073  1.0860  0.1246  0.5232
  798MOL0     C 7625   6.109  12.749   4.924  0.0739  0.1279  0.5116
  798MOL0     O 7626   6.234  12.753   4.859 -0.3202  0.2604 -0.0370
  798MOL0     C 7627   6.264  12.767   4.730  0.1003 -0.5709  0.1539
  798MOL0     C 7628   6.361  12.687   4.666 -0.5102 -0.4040 -0.4485
  798MOL0     C 7629   6.402  12.703   4.530 -0.3495  1.3107  0.2862
  798MOL0     C 7630   6.325  12.790   4.449  0.1616 -0.3757 -0.9842
  798MOL0     O 7631   6.355  12.791   4.317 -0.2881  0.7136 -0.4000
  798MOL0     C 7632   6.263  12.858   4.223 -0.4242 -0.0215 -0.1456
  798MOL0     C 7633   6.339  12.847   4.091  0.8371  0.1890 -0.1949
  798MOL0     C 7634   6.334  12.694   4.028  0.3690  0.3628  0.2969
  798MOL0     C 7635   6.302  12.686   3.880  0.6727 -0.1039  0.4467
  798MOL0     C 7636   6.282  12.539   3.831  0.7754  0.4096  0.8734
  798MOL0     C 7637   6.191  12.442   3.911  0.3337 -0.0770 -0.8087
  798MOL0     C 7638   6.189  12.303   3.850  0.1840 -0.7778 -0.3126
  798MOL0     C 7639   6.175  12.310   3.690 -0.0686 -0.0854 -0.4817
  798MOL0    Cl 7640   6.022  12.388   3.646 -0.5657  0.2056 -0.2923
  798MOL0     C 7641   6.223  12.871   4.511  0.2972  0.9131 -0.7473
  798MOL0     C 7642   6.194  12.856   4.648 -0.3051 -0.9920  0.3649
  798MOL0     O 7643   6.004  12.795   4.879  0.1843  0.5868  1.3640
  798MOL0     C 7644   6.230  12.725   5.153  0.0204  0.3536 -0.1638
  798MOL0     C 7645   6.222  12.686   5.288 -0.2224 -0.4751 -0.7502
  798MOL0     N 7646   6.133  12.263   6.034  0.4698  0.1426 -0.1970
  798MOL0     N 7647   6.243  12.219   6.091  1.0702 -0.1234 -0.0109
  798MOL0     C 7648   6.756  11.323   5.772  0.1640 -0.2378  0.7768
  798MOL0     C 7649   6.811  11.194   5.806  0.4100 -0.9840 -0.1821
  798MOL0     C 7650   6.990  10.794   5.865 -0.1277 -0.2420 -0.3174
  798MOL0     C 7651   6.922  10.687   5.925  0.5493  0.0210 -0.4489
  798MOL0     C 7652   6.970  10.558   5.902 -0.4038 -0.1879  0.1756
  798MOL0     C 7653   7.080  10.538   5.814  0.4504  0.1113 -0.1687
  798MOL0     O 7654   7.122  10.404   5.791 -1.0443  0.1408 -0.1060
  798MOL0     C 7655   7.031  10.316   5.720 -0.0849  0.0892  0.4164
  798MOL0     C 7656   6.952  10.394   5.603 -0.7934 -0.1229 -0.2570
  798MOL0     C 7657   6.904  10.294   5.496 -0.5350  0.5079  0.0425
  798MOL0     C 7658   6.798  10.342   5.412  0.3037  0.8615  0.4151
  798MOL0     C 7659   6.796  10.267   5.286 -0.1616  0.3377 -0.3681
  798MOL0     C 7660   6.818  10.195   5.185  0.2046 -0.0533 -0.2381
  798MOL0     C 7661   7.137  10.646   5.746  0.4253  0.7524  1.0500
  798MOL0     C 7662   7.099  10.771   5.777  0.1662  0.0208  1.1254
  798MOL0     H 7663   7.133  11.262   5.778  0.1393  2.3717 -0.5415
  798MOL0     H 7664   7.037  11.485   5.741  1.5468 -1.1051 -1.1440
  798MOL0     H 7665   6.944  11.684   5.758 -0.2326 -1.8803 -0.5955
  798MOL0     H 7666   6.800  11.763   5.727 -2.5308  0.4686  1.0871
  798MOL0     H 7667   6.695  11.678   5.941  0.0157  1.3284  1.2819
  798MOL0     H 7668   6.833  11.578   5.970 -0.9317  0.2882 -0.4871
  798MOL0     H 7669   6.984  11.756   5.995 -0.0884  0.2369  2.1524
  798MOL0     H 7670   6.870  11.883   5.945 -2.0938  0.0272  0.6149
  798MOL0     H 7671   6.853  11.731   6.209  0.0113  0.1256  0.4632
  798MOL0     H 7672   6.909  11.896   6.186  0.5295 -0.9215  0.6385
  798MOL0     H 7673   6.625  11.796   6.126 -1.2737  1.2594  1.3761
  798MOL0     H 7674   6.678  11.881   6.269  0.1216 -1.3417  1.0445
  798MOL0     H 7675   6.688  12.091   6.149 -0.7628  0.1185  0.1966
  798MOL0     H 7676   6.714  11.999   5.993  0.1817 -2.2806 -0.5806
  798MOL0     H 7677   6.491  11.963   5.960 -2.5906  0.4804  0.6965
  798MOL0     H 7678   6.446  11.962   6.129  1.0803 -0.3833  0.6031
  798MOL0     H 7679   6.538  12.212   5.969  0.0589 -0.7544 -0.4174
  798MOL0     H 7680   6.487  12.202   6.141 -0.7504 -2.2543  0.4304
  798MOL0     H 7681   6.352  12.191   5.790 -0.4035  2.5925 -0.8214
  798MOL0     H 7682   6.062  12.250   5.704 -0.2209 -2.0717 -0.0504
  798MOL0     H 7683   5.962  12.288   5.833  0.2216  1.8835 -0.2985
  798MOL0     H 7684   6.164  12.506   5.732 -1.1592  0.3968  0.1165
  798MOL0     H 7685   6.040  12.518   5.857 -2.6814  4.9877 -1.5122
  798MOL0     H 7686   5.871  12.514   5.698 -0.8042  0.4140 -1.2285
  798MOL0     H 7687   5.977  12.432   5.573  1.2810  1.9044 -1.7276
  798MOL0     H 7688   6.034  12.702   5.670  4.7046 -0.9514 -1.5037
  798MOL0     H 7689   5.914  12.664   5.541  0.6988  0.0655 -1.1396
  798MOL0     H 7690   5.898  12.620   5.335  0.6216  0.8324  1.0656
  798MOL0     H 7691   5.805  12.694   5.028 -0.9168 -1.5593 -0.5152
  798MOL0     H 7692   5.909  12.555   4.990 -0.4019  0.7422  0.1673
  798MOL0     H 7693   5.802  12.562   5.134  1.5870  0.9753  2.7914
  798MOL0     H 7694   6.410  12.606   4.719 -0.9845 -1.0593 -0.9924
  798MOL0     H 7695   6.483  12.653   4.477  2.7703  4.4361  1.7047
  798MOL0     H 7696   6.166  12.810   4.209 -0.6653 -1.1169  3.9729
  798MOL0     H 7697   6.253  12.966   4.242  4.0917  0.8218 -1.2995
  798MOL0     H 7698   6.285  12.911   4.020 -1.2353  1.8923  2.7334
  798MOL0     H 7699   6.440  12.878   4.123  1.0413  0.3087 -0.9308
  798MOL0     H 7700   6.263  12.632   4.083 -0.2050  2.5271  2.1558
  798MOL0     H 7701   6.434  12.650   4.036  0.0528 -0.0613  2.5493
  798MOL0     H 7702   6.210  12.740   3.856 -0.4562 -1.1004  2.2441
  798MOL0     H 7703   6.381  12.748   3.836  0.1374 -0.4358 -1.0317
  798MOL0     H 7704   6.374  12.480   3.832  0.0883 -0.8094 -1.5238
  798MOL0     H 7705   6.242  12.547   3.730 -3.4754 -0.1126  2.3078
  798MOL0     H 7706   6.225  12.440   4.014  3.7857  1.5335 -1.7620
  798MOL0     H 7707   6.089  12.483   3.906 -0.1033 -0.9373  0.6473
  798MOL0     H 7708   6.105  12.255   3.902 -0.0373  1.0942  1.1435
  798MOL0     H 7709   6.278  12.241   3.868 -0.3472 -1.8711 -1.2696
  798MOL0     H 7710   6.176  12.206   3.656  0.0261 -1.2502  2.7043
  798MOL0     H 7711   6.265  12.354   3.647 -0.1205 -1.8378 -2.5311
  798MOL0     H 7712   6.157  12.929   4.447 -2.0934 -2.9940 -2.1639
  798MOL0     H 7713   6.110  12.909   4.692  1.2598 -1.6981  4.7933
  798MOL0     H 7714   6.322  12.759   5.107  1.9051 -2.0106  1.6047
  798MOL0     H 7715   6.316  12.694   5.343  0.3304 -2.2746 -1.3794
  798MOL0     H 7716   6.648  11.329   5.774  0.1271 -0.8900  1.3542
  798MOL0     H 7717   6.754  11.101   5.814 -0.6298 -0.2310  2.0782
  798MOL0     H 7718   6.834  10.711   5.983  2.3301 -1.7212  3.3050
  798MOL0     H 7719   6.924  10.474   5.951  0.6088 -0.1456  1.2402
  798MOL0     H 7720   7.093  10.235   5.680  2.1200  2.6238 -1.7121
  798MOL0     H 7721   6.962  10.281   5.797 -0.6434  0.1280 -0.0587
  798MOL0     H 7722   7.023  10.466   5.559 -0.7329  1.7355  2.6541
  798MOL0     H 7723   6.869  10.451   5.644 -0.6576  2.0355 -2.6991
  798MOL0     H 7724   6.881  10.198   5.542  4.1398 -0.5029  0.6949
  798MOL0     H 7725   6.998  10.277   5.443 -0.4554  0.8227  0.0789
  798MOL0     H 7726   6.823  10.444   5.382  0.0671  0.2680 -1.9779
  798MOL0     H 7727   6.708  10.329   5.473 -0.0241 -3.0188 -0.6753
  798MOL0     H 7728   6.837  10.138   5.096  2.3345 -0.1352  0.1986
  798MOL0     H 7729   7.230  10.647   5.690 -0.9510  4.4765 -1.6005
  798MOL0     H 7730   7.143  10.853   5.720 -0.9626  1.3494  2.1067
  799MOL0     O 7731   8.839   2.099  10.487 -0.0395 -0.5554 -0.5330
  799MOL0     C 7732   8.903   2.096  10.387  0.6147 -1.0539 -0.0791
  799MOL0     O 7733   8.868   2.166  10.275 -0.5070  0.1108 -0.6884
  799MOL0     C 7734   8.755   2.243  10.290 -0.1356 -0.2123 -0.4381
  799MOL0     C 7735   8.649   2.183  10.222  0.3930 -0.7063  0.0630
  799MOL0     C 7736   8.531   2.251  10.194  0.1193  0.5192 -0.1382
  799MOL0     C 7737   8.511   2.379  10.254  0.1711 -0.1390  0.0416
  799MOL0     O 7738   8.393   2.448  10.243 -0.2450  0.0595 -0.1579
  799MOL0     C 7739   8.326   2.433  10.122 -0.3389 -0.0594 -0.1182
  799MOL0     C 7740   8.218   2.527  10.098 -0.6568 -0.8226 -0.2251
  799MOL0     C 7741   8.262   2.672  10.110 -0.5636  1.0367  0.2814
  799MOL0     C 7742   8.323   2.729   9.984  0.0575  0.6754  0.0650
  799MOL0     C 7743   8.369   2.873   9.991 -0.1635  0.3674  0.6217
  799MOL0     C 7744   8.243   2.962  10.015 -0.2071  0.2648 -0.4175
  799MOL0     C 7745   8.302   3.097  10.058 -0.3279  0.3877 -0.5595
  799MOL0     C 7746   8.187   3.176  10.142  0.4448  0.0204  0.1055
  799MOL0     N 7747   8.073   3.209  10.061  0.1528 -1.2039 -0.1283
  799MOL0     C 7748   7.948   3.152  10.079 -0.5604  1.0450 -0.6405
  799MOL0     C 7749   7.873   3.235  10.013  0.0595 -0.1841  0.4577
  799MOL0     C 7750   7.721   3.227   9.984 -0.0300 -0.2196  0.0820
  799MOL0     C 7751   7.674   3.106   9.896 -0.5538  0.0987  0.7675
  799MOL0     C 7752   7.751   3.079   9.761  0.3948  0.2923  0.4893
  799MOL0     C 7753   7.871   2.997   9.772  0.2161  0.3102  1.2164
  799MOL0     O 7754   7.849   2.869   9.833 -0.1938  0.9150 -0.0693
  799MOL0     C 7755   7.930   2.773   9.783  0.4195  0.2739  0.2529
  799MOL0     C 7756   7.904   2.643   9.824  0.1849 -0.4986  0.1615
  799MOL0     C 7757   7.972   2.522   9.784  0.4522  0.2011  0.6667
  799MOL0     C 7758   7.917   2.384   9.835 -0.1855  0.6536  0.2621
  799MOL0     C 7759   8.087   2.540   9.691  0.1600  0.0508  0.1270
  799MOL0     C 7760   8.171   2.436   9.640 -0.5846  0.9473  0.5937
  799MOL0     O 7761   8.122   2.319   9.649  0.2459 -0.8166 -0.1515
  799MOL0     C 7762   8.152   2.218   9.559  0.5339 -0.3086  0.6558
  799MOL0     C 7763   8.202   2.235   9.429 -0.2143 -0.7275  0.0981
  799MOL0     C 7764   8.222   2.133   9.337 -0.1043  0.3649 -0.0565
  799MOL0     C 7765   8.190   1.994   9.375 -0.1273  0.0266  0.2806
  799MOL0     O 7766   8.225   1.895   9.292  0.4058 -0.2197  0.8384
  799MOL0     C 7767   8.204   1.754   9.339 -0.5088 -0.7089 -0.9142
  799MOL0     C 7768   8.229   1.658   9.215  0.0214 -0.9379  0.8242
  799MOL0     C 7769   8.184   1.517   9.254  0.2277  0.7047  0.6930
  799MOL0     C 7770   8.279   1.417   9.180  1.1071 -0.7267  1.0241
  799MOL0     C 7771   8.252   1.272   9.206  0.2018  0.4277  0.3122
  799MOL0     C 7772   8.260   1.237   9.357  0.4151  0.3197  0.8762
  799MOL0     C 7773   8.275   1.082   9.366  0.0727 -0.4654  0.1262
  799MOL0     C 7774   8.286   1.048   9.517  0.2707 -0.4636 -0.4718
  799MOL0    Cl 7775   8.363   0.882   9.530  0.0801  0.2054 -0.1263
  799MOL0     C 7776   8.135   1.977   9.505  0.3271 -0.4056 -0.5772
  799MOL0     C 7777   8.113   2.082   9.590 -0.5635  0.2622 -1.1949
  799MOL0     O 7778   8.284   2.459   9.599  0.7418 -0.9932  0.9316
  799MOL0     C 7779   8.129   2.683   9.666 -0.5074  0.6048 -0.1239
  799MOL0     C 7780   8.055   2.794   9.709 -0.2230  0.4706 -0.5287
  799MOL0     N 7781   7.946   3.336   9.953 -0.2677  0.5725  0.1490
  799MOL0     N 7782   8.065   3.320   9.989 -0.9621  0.2911 -0.4850
  799MOL0     C 7783   8.620   2.438  10.327  0.1334  0.1365  0.3511
  799MOL0     C 7784   8.743   2.382  10.326 -1.5570  0.7848 -0.4745
  799MOL0     C 7785   9.022   2.010  10.394 -0.3940 -0.2531 -0.0260
  799MOL0     C 7786   9.102   2.001  10.274  1.0615 -0.0739 -0.0746
  799MOL0     C 7787   9.227   1.933  10.278  0.0247  0.8114 -0.0755
  799MOL0     C 7788   9.267   1.852  10.391 -0.2727  0.5980  0.2478
  799MOL0     O 7789   9.386   1.771  10.387 -0.5297 -0.5937  0.0885
  799MOL0     C 7790   9.391   1.655  10.460  0.4791  0.7813 -0.0480
  799MOL0     C 7791   9.506   1.583  10.401 -0.0645  0.0821  0.4686
  799MOL0     C 7792   9.476   1.434  10.401  0.1973 -0.2121 -0.2643
  799MOL0     C 7793   9.608   1.360  10.355  0.8092  0.2472 -0.7397
  799MOL0     C 7794   9.654   1.400  10.226  1.1023  0.1114 -0.1022
  799MOL0     C 7795   9.689   1.419  10.111  1.1925  0.6740  0.0467
  799MOL0     C 7796   9.183   1.858  10.507  0.4472  0.1848 -0.0353
  799MOL0     C 7797   9.063   1.935  10.510 -0.0883 -0.1561  0.7309
  799MOL0     H 7798   8.677   2.084  10.187  1.0364 -0.1713 -0.9624
  799MOL0     H 7799   8.451   2.194  10.148  0.0540  1.1112 -0.7739
  799MOL0     H 7800   8.391   2.437  10.034 -2.3958  1.5408 -1.6700
  799MOL0     H 7801   8.281   2.334  10.137 -2.4793  1.2989  4.2654
  799MOL0     H 7802   8.185   2.513   9.995  0.1949 -1.0715 -0.4740
  799MOL0     H 7803   8.129   2.526  10.161 -1.0231 -1.6196 -0.7416
  799MOL0     H 7804   8.180   2.735  10.145  0.2234  1.3829  1.5652
  799MOL0     H 7805   8.340   2.688  10.186  0.5027 -2.3892  0.1044
  799MOL0     H 7806   8.414   2.670   9.969 -0.8279 -1.0288  0.9946
  799MOL0     H 7807   8.258   2.712   9.898  0.3465  1.3927 -0.3024
  799MOL0     H 7808   8.451   2.885  10.063  2.7074 -0.6687 -2.2142
  799MOL0     H 7809   8.421   2.892   9.896 -0.2128 -0.8551  0.3434
  799MOL0     H 7810   8.201   2.972   9.914  3.8997  3.0384 -2.1160
  799MOL0     H 7811   8.173   2.927  10.091 -0.0279 -2.2003 -1.3023
  799MOL0     H 7812   8.382   3.071  10.129  1.4642 -0.6187 -2.7951
  799MOL0     H 7813   8.342   3.165   9.982 -1.3829  0.0866 -1.3981
  799MOL0     H 7814   8.232   3.261  10.194  3.1626 -3.1022  3.4549
  799MOL0     H 7815   8.154   3.110  10.223  2.0721 -3.4458 -1.8101
  799MOL0     H 7816   7.919   3.069  10.143  1.5249  0.7521  0.0135
  799MOL0     H 7817   7.659   3.236  10.074 -0.1973 -1.3461  0.1055
  799MOL0     H 7818   7.698   3.316   9.925 -3.4901 -1.7129 -1.1157
  799MOL0     H 7819   7.567   3.112   9.875 -0.1597  1.0691 -1.2333
  799MOL0     H 7820   7.680   3.018   9.960 -1.9261 -0.8277 -0.3231
  799MOL0     H 7821   7.767   3.173   9.708  1.1700  0.4145  0.9233
  799MOL0     H 7822   7.689   3.016   9.697 -1.6417  1.9025  0.7747
  799MOL0     H 7823   7.952   3.054   9.819 -0.1879  2.1351 -0.1691
  799MOL0     H 7824   7.897   2.971   9.669  1.2370 -1.0383  1.7917
  799MOL0     H 7825   7.813   2.650   9.883 -1.3515  1.8362 -2.2009
  799MOL0     H 7826   7.835   2.382   9.908  0.9159 -0.8039  1.5292
  799MOL0     H 7827   7.898   2.317   9.751 -1.3373  0.1743  0.8714
  799MOL0     H 7828   8.006   2.344   9.885 -0.8898 -0.3291  0.7749
  799MOL0     H 7829   8.223   2.333   9.389  0.6053 -0.8394  0.2378
  799MOL0     H 7830   8.257   2.155   9.237 -0.0248  0.7853  0.0616
  799MOL0     H 7831   8.287   1.740   9.408 -0.4612  0.0552 -0.8136
  799MOL0     H 7832   8.104   1.747   9.382 -0.0257  0.6100  0.4771
  799MOL0     H 7833   8.176   1.682   9.122  2.5821  0.0581 -0.4843
  799MOL0     H 7834   8.335   1.666   9.189 -0.3425  0.2082 -0.4365
  799MOL0     H 7835   8.080   1.488   9.234  1.0772 -1.5199 -0.9165
  799MOL0     H 7836   8.194   1.505   9.362  1.0988  2.3102  0.8206
  799MOL0     H 7837   8.267   1.433   9.072  1.5532  0.4774  1.1434
  799MOL0     H 7838   8.383   1.430   9.209  0.8857 -1.6983  2.3261
  799MOL0     H 7839   8.336   1.235   9.147 -1.1126  1.9421 -2.7209
  799MOL0     H 7840   8.156   1.242   9.162  0.2673 -0.6333  0.8628
  799MOL0     H 7841   8.346   1.289   9.401  1.8540  0.8085 -2.2760
  799MOL0     H 7842   8.170   1.272   9.409  1.2543  3.9782  0.1578
  799MOL0     H 7843   8.371   1.059   9.319  1.5739 -0.1745  2.8820
  799MOL0     H 7844   8.198   1.024   9.314 -0.7224  0.7707 -0.1029
  799MOL0     H 7845   8.193   1.047   9.575 -0.2045  3.2371 -0.9197
  799MOL0     H 7846   8.359   1.118   9.559  0.0499 -1.2651  1.3346
  799MOL0     H 7847   8.092   1.885   9.544 -0.2951 -0.0688 -0.4552
  799MOL0     H 7848   8.080   2.064   9.691  1.2436  0.0264 -0.6016
  799MOL0     H 7849   8.220   2.702   9.609  0.0761  2.3611  1.3188
  799MOL0     H 7850   8.105   2.890   9.706 -1.1272  0.9925  0.4814
  799MOL0     H 7851   8.596   2.522  10.390  1.6671 -1.2865  3.0250
  799MOL0     H 7852   8.838   2.425  10.359 -1.4229 -1.8576  3.1374
  799MOL0     H 7853   9.080   2.063  10.188  0.6103  0.5152  0.4690
  799MOL0     H 7854   9.282   1.939  10.185 -2.4086  1.5663 -1.5657
  799MOL0     H 7855   9.414   1.677  10.564 -0.8142  0.9906  0.2123
  799MOL0     H 7856   9.296   1.601  10.459 -0.9053  3.0737  0.4549
  799MOL0     H 7857   9.592   1.595  10.467 -1.3446 -0.4642  2.3112
  799MOL0     H 7858   9.529   1.617  10.300 -1.9627 -2.3917 -0.9049
  799MOL0     H 7859   9.398   1.400  10.332  1.2486 -1.9108 -0.6861
  799MOL0     H 7860   9.467   1.407  10.507  0.1610  2.0414  0.3552
  799MOL0     H 7861   9.589   1.252  10.349  0.2644  0.3389 -0.7137
  799MOL0     H 7862   9.689   1.375  10.427 -0.5717  1.7145  0.5705
  799MOL0     H 7863   9.722   1.420  10.009 -0.1900 -0.0179 -0.4360
  799MOL0     H 7864   9.210   1.800  10.595  0.9695 -0.2480 -0.4819
  799MOL0     H 7865   8.992   1.937  10.592  0.9312  1.8864  1.6329
  800MOL0     O 7866   5.526   3.580   8.746 -0.1110 -0.3434  0.1975
  800MOL0     C 7867   5.470   3.691   8.749 -0.1429  1.4013  0.2557
  800MOL0     O 7868   5.525   3.811   8.703  0.3750 -0.0071  0.1947
  800MOL0     C 7869   5.648   3.800   8.645  0.4316 -0.0700  0.5080
  800MOL0     C 7870   5.662   3.832   8.517 -0.4019  0.9841  0.0742
  800MOL0     C 7871   5.796   3.833   8.462  0.8014  0.2062  0.0099
  800MOL0     C 7872   5.906   3.796   8.538  0.3825 -0.4569  0.1336
  800MOL0     O 7873   6.024   3.793   8.466  0.3703 -0.1636  0.3802
  800MOL0     C 7874   6.112   3.689   8.499  0.0961  0.1381  0.1434
  800MOL0     C 7875   6.142   3.585   8.381 -0.1053  0.4937 -0.0721
  800MOL0     C 7876   6.250   3.642   8.275  0.6031 -0.3118  0.3970
  800MOL0     C 7877   6.382   3.671   8.324 -0.0583  0.8713 -0.2090
  800MOL0     C 7878   6.479   3.684   8.203 -0.8208 -1.5653  0.3423
  800MOL0     C 7879   6.625   3.692   8.262 -0.5028  0.1022  0.3185
  800MOL0     C 7880   6.731   3.719   8.152  0.2658  0.8717 -0.7968
  800MOL0     C 7881   6.864   3.734   8.220 -0.3980  0.1455 -0.7126
  800MOL0     N 7882   6.928   3.612   8.193 -0.1563  0.5753  0.6565
  800MOL0     C 7883   6.915   3.509   8.283 -0.2784 -1.1718 -1.4260
  800MOL0     C 7884   6.978   3.406   8.223 -0.0162 -0.5744  0.3532
  800MOL0     C 7885   6.989   3.272   8.280  0.4423  0.2300 -0.2334
  800MOL0     C 7886   6.907   3.156   8.219  0.4657  0.6560 -0.9443
  800MOL0     C 7887   6.766   3.195   8.193  0.2454  0.6041  0.3309
  800MOL0     C 7888   6.665   3.210   8.304  0.2034 -0.6786  0.2359
  800MOL0     O 7889   6.692   3.327   8.385 -0.1053  0.6887 -0.0238
  800MOL0     C 7890   6.599   3.360   8.482 -0.3212 -0.0661 -0.7162
  800MOL0     C 7891   6.627   3.476   8.559 -0.4345  0.6066 -0.3274
  800MOL0     C 7892   6.543   3.535   8.649  0.2108 -0.2573  0.0566
  800MOL0     C 7893   6.570   3.672   8.691  0.3176  0.2970  0.2595
  800MOL0     C 7894   6.427   3.462   8.688 -0.3748  0.1735  0.6028
  800MOL0     C 7895   6.323   3.510   8.786 -0.8067  0.3989  0.7622
  800MOL0     O 7896   6.222   3.419   8.809 -0.0342  0.1556 -0.5401
  800MOL0     C 7897   6.113   3.461   8.879  0.0173  0.0060  0.2522
  800MOL0     C 7898   6.132   3.511   9.011 -0.4512 -0.4581  0.2528
  800MOL0     C 7899   6.034   3.562   9.087 -0.5266  0.4446  0.4503
  800MOL0     C 7900   5.907   3.567   9.028  0.7158 -0.4771 -0.1995
  800MOL0     O 7901   5.818   3.638   9.101  0.1360 -0.6232  0.7026
  800MOL0     C 7902   5.678   3.629   9.082 -0.5690 -0.5655 -0.7513
  800MOL0     C 7903   5.640   3.700   9.213 -1.3016 -0.7700 -0.0140
  800MOL0     C 7904   5.486   3.691   9.237  0.6924 -0.6884  0.7582
  800MOL0     C 7905   5.426   3.557   9.281 -0.5014  0.9329 -0.2033
  800MOL0     C 7906   5.288   3.564   9.349 -0.8902  0.8098  1.0259
  800MOL0     C 7907   5.262   3.442   9.434 -0.8151  0.4214  0.3076
  800MOL0     C 7908   5.135   3.447   9.520 -0.1175 -0.0235 -0.0166
  800MOL0     C 7909   5.117   3.303   9.573  0.0807 -0.5915  0.5686
  800MOL0    Cl 7910   5.256   3.264   9.682 -0.6160  0.2017 -0.0188
  800MOL0     C 7911   5.878   3.500   8.905  0.4142 -0.2657 -0.0471
  800MOL0     C 7912   5.980   3.438   8.838 -0.9921 -0.5893  0.7083
  800MOL0     O 7913   6.321   3.624   8.817 -0.6592  0.3235 -0.6206
  800MOL0     C 7914   6.410   3.338   8.623 -0.8982  1.0895  0.0896
  800MOL0     C 7915   6.490   3.293   8.515  0.1495 -0.2217  0.8241
  800MOL0     N 7916   7.021   3.451   8.097  0.6988  0.5314  0.1880
  800MOL0     N 7917   6.988   3.577   8.075 -0.2208 -0.5681  0.2968
  800MOL0     C 7918   5.886   3.778   8.676 -0.1477 -0.1203  0.3127
  800MOL0     C 7919   5.756   3.778   8.728 -0.2745  0.6904  0.2613
  800MOL0     C 7920   5.351   3.700   8.826 -0.6300  0.0246 -0.5122
  800MOL0     C 7921   5.298   3.832   8.852  0.8010  0.0777  0.5272
  800MOL0     C 7922   5.185   3.845   8.937 -0.6100 -0.5801  0.6057
  800MOL0     C 7923   5.121   3.733   8.992  0.0681  0.1680 -0.5205
  800MOL0     O 7924   5.012   3.740   9.080  0.3111  0.3215 -0.0132
  800MOL0     C 7925   4.915   3.846   9.066 -0.4877  0.3890  0.2150
  800MOL0     C 7926   4.828   3.815   8.946  0.0844 -0.2891 -0.1486
  800MOL0     C 7927   4.776   3.675   8.944  0.5700  0.9770  0.5695
  800MOL0     C 7928   4.646   3.658   8.853  0.1576  0.3684 -1.1219
  800MOL0     C 7929   4.673   3.703   8.719 -0.2589 -0.6360 -0.9810
  800MOL0     C 7930   4.696   3.721   8.600 -0.4782 -0.4838  0.3399
  800MOL0     C 7931   5.194   3.606   8.978 -0.1573 -0.6837 -0.0671
  800MOL0     C 7932   5.303   3.593   8.904  0.0337  0.3680  0.4858
  800MOL0     H 7933   5.573   3.836   8.455 -0.2977  3.6705  0.0039
  800MOL0     H 7934   5.801   3.858   8.357 -0.9678  2.9822  0.4515
  800MOL0     H 7935   6.206   3.728   8.538 -0.1775 -2.1179  3.4169
  800MOL0     H 7936   6.074   3.631   8.584 -1.6985 -1.1054 -1.4057
  800MOL0     H 7937   6.174   3.490   8.425  1.1405  0.1447 -1.6176
  800MOL0     H 7938   6.057   3.560   8.317  2.1803 -0.7787 -2.8494
  800MOL0     H 7939   6.252   3.575   8.189 -0.7579 -1.3908  1.1809
  800MOL0     H 7940   6.208   3.733   8.230  2.3818 -1.2010 -3.4656
  800MOL0     H 7941   6.377   3.756   8.393 -2.0368  1.0282 -0.4893
  800MOL0     H 7942   6.410   3.581   8.380  0.8215  1.8927  1.0323
  800MOL0     H 7943   6.468   3.598   8.136  3.4475  0.5958 -3.7702
  800MOL0     H 7944   6.460   3.778   8.152 -0.1014  1.5829  5.2280
  800MOL0     H 7945   6.617   3.779   8.329  1.1029 -0.3383  1.1222
  800MOL0     H 7946   6.655   3.603   8.317  0.0683  0.9330  1.4142
  800MOL0     H 7947   6.727   3.649   8.068  2.0087 -1.1397  0.6580
  800MOL0     H 7948   6.711   3.815   8.103 -0.3642  0.8986 -0.4995
  800MOL0     H 7949   6.853   3.757   8.327 -0.5975  0.4982 -0.8049
  800MOL0     H 7950   6.924   3.818   8.183  0.0864 -0.5941 -1.6381
  800MOL0     H 7951   6.872   3.508   8.383  0.1370 -2.8236 -1.2249
  800MOL0     H 7952   7.092   3.236   8.280  0.1821 -0.5465  0.2683
  800MOL0     H 7953   6.968   3.283   8.387  1.5001  0.6980 -0.0560
  800MOL0     H 7954   6.900   3.070   8.285  0.9811  2.5953  1.8111
  800MOL0     H 7955   6.958   3.130   8.125  0.4591 -2.8857 -0.0945
  800MOL0     H 7956   6.732   3.119   8.122  0.3098  2.6177 -1.9647
  800MOL0     H 7957   6.772   3.287   8.135  1.0558  1.3375  1.5201
  800MOL0     H 7958   6.656   3.124   8.371  0.8304  0.5778  2.0077
  800MOL0     H 7959   6.568   3.221   8.254  0.1944  1.7106  0.6587
  800MOL0     H 7960   6.714   3.533   8.528  0.0880 -0.6773 -1.2963
  800MOL0     H 7961   6.662   3.706   8.641  1.4562 -2.7279  0.1141
  800MOL0     H 7962   6.485   3.727   8.648 -1.6817 -4.6966 -3.1458
  800MOL0     H 7963   6.581   3.686   8.799 -1.1578  0.0276  0.4669
  800MOL0     H 7964   6.235   3.518   9.041 -0.6276  3.2433  0.4962
  800MOL0     H 7965   6.071   3.611   9.176  0.3474  0.1670  0.2506
  800MOL0     H 7966   5.640   3.674   8.990 -0.0438 -1.0977 -1.2353
  800MOL0     H 7967   5.633   3.533   9.109 -1.6721  0.6832  2.2979
  800MOL0     H 7968   5.692   3.655   9.298  0.0599 -4.0236 -2.3298
  800MOL0     H 7969   5.663   3.807   9.204  1.2787 -1.1747  0.8579
  800MOL0     H 7970   5.431   3.733   9.152 -0.4296 -1.0109  1.3153
  800MOL0     H 7971   5.458   3.760   9.317  0.2880  0.4893 -0.3668
  800MOL0     H 7972   5.410   3.485   9.200 -0.2940 -0.2540  0.7828
  800MOL0     H 7973   5.502   3.506   9.341  0.0978 -0.3255 -1.9425
  800MOL0     H 7974   5.207   3.571   9.275 -0.4552  4.9639  0.6945
  800MOL0     H 7975   5.284   3.652   9.414 -2.2959 -0.2740  2.4932
  800MOL0     H 7976   5.257   3.357   9.365 -1.5734  1.3633 -0.8524
  800MOL0     H 7977   5.352   3.430   9.494 -3.2070 -2.6927  3.7425
  800MOL0     H 7978   5.044   3.462   9.461 -0.2113 -1.8092 -0.3850
  800MOL0     H 7979   5.150   3.518   9.602 -1.0921  0.9399 -0.6449
  800MOL0     H 7980   5.113   3.229   9.493 -0.7743 -1.2135  1.1684
  800MOL0     H 7981   5.019   3.287   9.619 -0.4904  0.2199 -0.3142
  800MOL0     H 7982   5.774   3.501   8.873  0.7970  1.7257 -1.4291
  800MOL0     H 7983   5.963   3.378   8.749 -0.1072  1.8209 -1.2108
  800MOL0     H 7984   6.317   3.283   8.628 -1.5062  1.8810 -1.5511
  800MOL0     H 7985   6.459   3.202   8.466  3.1646 -2.6062  2.9976
  800MOL0     H 7986   5.965   3.766   8.749 -0.6011 -3.0445  0.4733
  800MOL0     H 7987   5.748   3.761   8.835 -0.1304 -2.5021 -0.1512
  800MOL0     H 7988   5.341   3.922   8.809 -1.2741  0.5902 -0.6407
  800MOL0     H 7989   5.141   3.943   8.951 -3.9881 -1.3281 -2.9788
  800MOL0     H 7990   4.843   3.826   9.146  0.2106 -3.5745  0.0342
  800MOL0     H 7991   4.950   3.950   9.067 -2.3043  1.0449 -0.1719
  800MOL0     H 7992   4.895   3.831   8.861  1.2105 -0.5977  0.6540
  800MOL0     H 7993   4.741   3.881   8.957  0.6314  0.4567 -0.2125
  800MOL0     H 7994   4.743   3.644   9.044 -0.6161 -0.9713 -0.3646
  800MOL0     H 7995   4.861   3.623   8.900 -0.2750 -0.8573  0.9984
  800MOL0     H 7996   4.569   3.725   8.892  0.1130  0.0372 -0.6269
  800MOL0     H 7997   4.593   3.564   8.868  0.9163  0.1860  0.7367
  800MOL0     H 7998   4.712   3.753   8.499 -0.6654  2.5472  1.1864
  800MOL0     H 7999   5.157   3.519   9.032 -2.7515  0.8493  0.7547
  800MOL0     H 8000   5.362   3.503   8.897  1.4408  1.3679 -1.2835
  801MOL0     O 8001   4.003   4.459   7.931 -0.0087  0.2109 -0.0932
  801MOL0     C 8002   3.974   4.343   7.892 -1.0397 -0.3149  0.2320
  801MOL0     O 8003   4.042   4.276   7.802 -0.1827  0.3379 -0.1395
  801MOL0     C 8004   4.140   4.323   7.717  0.0387  0.4043  0.3935
  801MOL0     C 8005   4.209   4.225   7.648  0.2473  0.5790 -0.6601
  801MOL0     C 8006   4.290   4.263   7.548  0.4699  0.3350  0.2355
  801MOL0     C 8007   4.325   4.390   7.520 -0.3619  0.3548 -0.8125
  801MOL0     O 8008   4.419   4.408   7.433 -0.1070  0.0632 -0.0622
  801MOL0     C 8009   4.557   4.388   7.476  0.0889 -0.1125 -0.0572
  801MOL0     C 8010   4.643   4.444   7.356 -0.1290  0.2559  0.6080
  801MOL0     C 8011   4.765   4.530   7.386  0.2887  0.0528 -0.6778
  801MOL0     C 8012   4.831   4.480   7.510  1.3486 -0.2708 -0.3438
  801MOL0     C 8013   4.974   4.513   7.541  0.3264  0.3338  0.0619
  801MOL0     C 8014   4.987   4.661   7.570  0.0112  0.1088  1.0767
  801MOL0     C 8015   5.127   4.703   7.616  0.6303  0.3120 -0.3197
  801MOL0     C 8016   5.134   4.854   7.623  0.5781 -0.7078 -0.4699
  801MOL0     N 8017   5.033   4.909   7.711 -0.1733 -0.2003 -0.3403
  801MOL0     C 8018   5.051   4.961   7.837 -0.0511 -0.3039  0.0809
  801MOL0     C 8019   4.936   5.012   7.886  0.3939  0.0832 -0.0901
  801MOL0     C 8020   4.913   5.095   8.011  0.0175 -0.2578  0.2989
  801MOL0     C 8021   4.788   5.054   8.090 -0.0974  0.2592 -0.1322
  801MOL0     C 8022   4.764   5.124   8.225 -0.3552 -1.1603  0.6306
  801MOL0     C 8023   4.751   5.275   8.225 -0.6907 -0.0012 -0.3695
  801MOL0     O 8024   4.726   5.327   8.358  0.0942  0.3162 -0.0950
  801MOL0     C 8025   4.813   5.435   8.391 -0.5918  1.2404  0.2485
  801MOL0     C 8026   4.841   5.457   8.520 -0.1727 -0.2581  0.6390
  801MOL0     C 8027   4.910   5.575   8.561 -0.1576 -1.3034 -0.4063
  801MOL0     C 8028   4.963   5.588   8.707  0.5126 -0.0666  0.1979
  801MOL0     C 8029   4.932   5.678   8.476  0.5764 -0.2967  0.0664
  801MOL0     C 8030   4.981   5.804   8.531 -0.3639  0.2323 -0.1097
  801MOL0     O 8031   4.903   5.911   8.494  0.4221 -0.0330 -0.6429
  801MOL0     C 8032   4.907   6.035   8.542 -0.7165  0.4826 -1.0173
  801MOL0     C 8033   4.933   6.054   8.681  0.9732 -0.3436 -0.6633
  801MOL0     C 8034   4.954   6.190   8.723  0.1460 -0.0270  0.5866
  801MOL0     C 8035   4.944   6.300   8.633 -0.0092  0.0087  0.2461
  801MOL0     O 8036   4.960   6.426   8.680 -0.5971  0.0522  0.4776
  801MOL0     C 8037   4.944   6.544   8.611 -0.7648 -0.1277  0.3337
  801MOL0     C 8038   4.906   6.664   8.702  0.4054  0.1015  0.6374
  801MOL0     C 8039   5.010   6.690   8.802 -0.2648 -0.3357 -0.5396
  801MOL0     C 8040   4.962   6.750   8.927  0.2265 -0.6307  0.5544
  801MOL0     C 8041   5.028   6.699   9.050  0.1863  0.0119  0.1571
  801MOL0     C 8042   4.956   6.581   9.119 -0.5885 -1.0787 -0.5699
  801MOL0     C 8043   4.881   6.473   9.042 -0.1516 -0.8409 -0.4292
  801MOL0     C 8044   4.818   6.380   9.146  0.3820  0.1822  0.3017
  801MOL0    Cl 8045   4.758   6.232   9.076 -0.2666  0.1207 -0.5767
  801MOL0     C 8046   4.921   6.277   8.491 -0.3185 -0.1087 -0.2334
  801MOL0     C 8047   4.901   6.144   8.451 -0.5469  0.5067  0.1364
  801MOL0     O 8048   5.081   5.807   8.602 -0.1310 -0.0713  0.1224
  801MOL0     C 8049   4.894   5.662   8.341  0.7080 -0.1460 -0.2064
  801MOL0     C 8050   4.848   5.539   8.301 -0.1718  0.0372  0.5192
  801MOL0     N 8051   4.848   4.998   7.782  0.0085 -1.5242 -0.5363
  801MOL0     N 8052   4.905   4.927   7.683 -0.2863 -0.3812  0.0036
  801MOL0     C 8053   4.254   4.486   7.586 -0.3212 -0.7925  0.4709
  801MOL0     C 8054   4.157   4.461   7.689 -0.1496 -0.4999  0.2871
  801MOL0     C 8055   3.855   4.283   7.949 -0.5229 -0.1313 -0.0531
  801MOL0     C 8056   3.785   4.180   7.882 -0.6956  0.1985  0.3163
  801MOL0     C 8057   3.660   4.135   7.913  0.9381  0.7633  0.6948
  801MOL0     C 8058   3.592   4.184   8.025  0.7377 -0.0068 -0.1302
  801MOL0     O 8059   3.465   4.137   8.048 -0.4683  0.5812 -0.1295
  801MOL0     C 8060   3.419   4.130   8.184 -0.6094  0.0730  0.3283
  801MOL0     C 8061   3.313   4.023   8.207 -0.2047 -0.4265 -0.0551
  801MOL0     C 8062   3.168   4.060   8.187  0.3044  0.2685  0.3802
  801MOL0     C 8063   3.073   3.941   8.205  0.1497 -0.4646  0.0602
  801MOL0     C 8064   3.120   3.850   8.098 -0.1507  0.1850 -0.1577
  801MOL0     C 8065   3.171   3.762   8.031 -0.1588  0.1528 -0.5513
  801MOL0     C 8066   3.668   4.275   8.114  0.0310  0.1587 -0.4609
  801MOL0     C 8067   3.792   4.319   8.070  0.4695  0.5289 -0.3195
  801MOL0     H 8068   4.202   4.118   7.663  0.7912  0.4824 -1.1087
  801MOL0     H 8069   4.326   4.182   7.486  0.6282  1.0795 -0.6723
  801MOL0     H 8070   4.584   4.454   7.559  1.5814  2.0249 -2.1222
  801MOL0     H 8071   4.579   4.282   7.492  1.3786  0.1145 -0.2333
  801MOL0     H 8072   4.688   4.363   7.298  1.2350  2.2279 -1.2299
  801MOL0     H 8073   4.581   4.495   7.282  0.0662 -3.5667 -2.4753
  801MOL0     H 8074   4.841   4.515   7.309  0.9650 -1.8457  0.2773
  801MOL0     H 8075   4.744   4.637   7.392  2.6693  0.5229  0.4729
  801MOL0     H 8076   4.768   4.507   7.596  0.3570 -2.3234 -0.3518
  801MOL0     H 8077   4.820   4.372   7.501 -1.4940  0.0243 -1.6261
  801MOL0     H 8078   5.013   4.461   7.628  2.1553 -0.5263 -1.2139
  801MOL0     H 8079   5.041   4.490   7.458 -0.0641 -3.4908  0.6399
  801MOL0     H 8080   4.960   4.713   7.478  0.0481 -0.6951  0.6045
  801MOL0     H 8081   4.918   4.689   7.650 -1.8366 -0.5191 -0.2280
  801MOL0     H 8082   5.138   4.666   7.718 -0.0608  1.8605  0.3486
  801MOL0     H 8083   5.204   4.663   7.548  0.2772 -1.2041  0.1317
  801MOL0     H 8084   5.102   4.891   7.525 -1.9742  0.3127  0.6603
  801MOL0     H 8085   5.233   4.890   7.656 -0.3729  3.2862 -1.4036
  801MOL0     H 8086   5.141   4.958   7.898 -1.0362  1.2612  1.7428
  801MOL0     H 8087   5.007   5.076   8.063  0.1087  0.2181  0.3130
  801MOL0     H 8088   4.907   5.202   7.989  0.6500 -0.0610  1.0403
  801MOL0     H 8089   4.790   4.950   8.124  0.7668  0.4339  0.3957
  801MOL0     H 8090   4.702   5.081   8.027 -0.0404  3.2373  0.9079
  801MOL0     H 8091   4.842   5.096   8.297  0.3565  1.3320  0.8990
  801MOL0     H 8092   4.665   5.092   8.260 -3.2376  1.1232 -4.4558
  801MOL0     H 8093   4.673   5.308   8.155  1.4537  2.4997 -1.7623
  801MOL0     H 8094   4.845   5.320   8.192 -1.1306  1.4272  0.2028
  801MOL0     H 8095   4.797   5.380   8.583 -0.6695 -0.2957  0.2553
  801MOL0     H 8096   4.913   5.509   8.764 -2.4385  1.4136 -0.1472
  801MOL0     H 8097   5.069   5.560   8.713  0.7422  0.6565 -0.2536
  801MOL0     H 8098   4.934   5.679   8.760  0.9038  0.2208 -0.0683
  801MOL0     H 8099   4.956   5.966   8.739  2.9569  0.1689 -0.5866
  801MOL0     H 8100   4.980   6.216   8.825 -0.2654  1.1722  0.3964
  801MOL0     H 8101   5.041   6.561   8.564  0.5010  0.5484  2.9716
  801MOL0     H 8102   4.867   6.527   8.535 -0.4277 -0.2282  0.0132
  801MOL0     H 8103   4.885   6.738   8.624  0.7442 -2.2879 -1.8488
  801MOL0     H 8104   4.820   6.634   8.762  1.8407 -0.2487  2.6266
  801MOL0     H 8105   5.067   6.768   8.750 -2.0075  0.6207 -1.1347
  801MOL0     H 8106   5.084   6.612   8.821  0.5889  0.3536 -0.9881
  801MOL0     H 8107   4.977   6.859   8.930  1.7692 -0.8117  0.0468
  801MOL0     H 8108   4.854   6.751   8.947  0.0344  0.5820 -0.3970
  801MOL0     H 8109   5.028   6.776   9.128 -1.3874 -0.7544  0.9669
  801MOL0     H 8110   5.131   6.677   9.021  0.5261  1.5830  0.0887
  801MOL0     H 8111   5.041   6.530   9.166 -0.4521  0.4555  0.9515
  801MOL0     H 8112   4.892   6.623   9.198  0.8850  1.1464 -0.4724
  801MOL0     H 8113   4.962   6.419   8.992  0.0190 -0.9275 -0.0566
  801MOL0     H 8114   4.804   6.527   8.985 -3.7829 -1.7124  3.1843
  801MOL0     H 8115   4.737   6.427   9.202 -0.8355 -0.7857 -0.6185
  801MOL0     H 8116   4.886   6.358   9.229 -0.3859  3.1646  1.8738
  801MOL0     H 8117   4.931   6.360   8.422  1.0934 -0.3366 -0.3347
  801MOL0     H 8118   4.892   6.109   8.349  0.5441 -3.5804  1.2355
  801MOL0     H 8119   4.913   5.748   8.277  4.9412 -1.1483 -0.6422
  801MOL0     H 8120   4.827   5.529   8.195  2.3042 -1.6128  0.1015
  801MOL0     H 8121   4.286   4.586   7.560 -0.8676  0.0274  2.7151
  801MOL0     H 8122   4.102   4.542   7.736 -0.1334 -0.4082  0.1484
  801MOL0     H 8123   3.842   4.139   7.799 -0.2835  1.4453 -0.0297
  801MOL0     H 8124   3.611   4.050   7.866 -3.3213  1.3183  3.5285
  801MOL0     H 8125   3.507   4.104   8.243  3.2916  0.7442 -4.5027
  801MOL0     H 8126   3.389   4.227   8.224 -1.1109 -0.2061  0.6323
  801MOL0     H 8127   3.324   3.994   8.312  2.5614 -3.7852 -1.0683
  801MOL0     H 8128   3.349   3.939   8.146  1.1204 -0.1983  0.3839
  801MOL0     H 8129   3.167   4.088   8.081 -0.0773 -2.0262 -0.2803
  801MOL0     H 8130   3.140   4.140   8.257  1.6457  1.8446 -0.8099
  801MOL0     H 8131   2.972   3.973   8.177  1.0990  2.7138 -0.1137
  801MOL0     H 8132   3.083   3.897   8.305  0.7457  1.1246  0.7311
  801MOL0     H 8133   3.223   3.677   7.991  2.2240  1.3743 -0.2443
  801MOL0     H 8134   3.626   4.313   8.207  0.5274 -0.4019 -0.0066
  801MOL0     H 8135   3.837   4.381   8.147 -3.1869  1.0592  1.6275
  802MOL0     O 8136   1.481   7.796   1.824 -0.1192 -0.2454 -0.5687
  802MOL0     C 8137   1.510   7.785   1.708  0.4862  0.8349 -0.5171
  802MOL0     O 8138   1.605   7.699   1.664  0.7700 -0.4374 -0.2962
  802MOL0     C 8139   1.686   7.629   1.752 -0.3497  0.4679  1.9398
  802MOL0     C 8140   1.644   7.529   1.824  0.1217 -0.7345 -0.4779
  802MOL0     C 8141   1.736   7.452   1.903  0.3133 -0.2010 -0.5092
  802MOL0     C 8142   1.874   7.482   1.892 -0.3327 -0.7056 -0.1308
  802MOL0     O 8143   1.969   7.418   1.971 -0.2270  0.0619 -0.1632
  802MOL0     C 8144   2.032   7.505   2.066 -0.0273 -0.3477  0.1557
  802MOL0     C 8145   2.105   7.414   2.159  0.6571 -0.1627 -0.9396
  802MOL0     C 8146   2.017   7.329   2.251 -0.4736 -0.2568 -0.1148
  802MOL0     C 8147   1.874   7.392   2.295  0.1584  0.2399 -0.6722
  802MOL0     C 8148   1.802   7.296   2.382 -0.0727  0.2273 -0.5486
  802MOL0     C 8149   1.748   7.172   2.302  0.3619 -0.7623 -0.1996
  802MOL0     C 8150   1.610   7.192   2.246  0.6640  0.0179 -0.1787
  802MOL0     C 8151   1.561   7.069   2.170 -0.5369  0.9584 -0.5917
  802MOL0     N 8152   1.612   7.067   2.036 -0.7352 -0.5458  0.6153
  802MOL0     C 8153   1.548   7.125   1.929 -0.5595 -0.2997 -0.2347
  802MOL0     C 8154   1.629   7.104   1.823  0.4084  1.2825  0.4751
  802MOL0     C 8155   1.613   7.158   1.686 -0.0472  0.1085 -0.6239
  802MOL0     C 8156   1.503   7.094   1.605 -0.0532  0.9624  0.9032
  802MOL0     C 8157   1.502   6.940   1.581 -0.3511 -0.0216 -0.3178
  802MOL0     C 8158   1.624   6.887   1.505  0.7425  0.0464 -0.0306
  802MOL0     O 8159   1.653   6.968   1.390  0.2686 -0.6265  0.7440
  802MOL0     C 8160   1.582   6.965   1.274  1.0588  0.2691  0.0755
  802MOL0     C 8161   1.490   6.869   1.242  0.6442 -0.4294  1.2022
  802MOL0     C 8162   1.411   6.874   1.125 -0.5441  0.6992 -0.2471
  802MOL0     C 8163   1.306   6.765   1.098  0.1249 -0.2823  0.1734
  802MOL0     C 8164   1.428   6.982   1.033 -0.0613 -0.0656 -0.2703
  802MOL0     C 8165   1.359   6.999   0.905  0.4534  0.9684 -0.2508
  802MOL0     O 8166   1.232   6.933   0.877 -0.6570 -0.1887  0.7406
  802MOL0     C 8167   1.166   6.962   0.759 -0.5206 -0.3791  0.6097
  802MOL0     C 8168   1.061   7.052   0.754  0.1395 -1.0477 -0.1438
  802MOL0     C 8169   0.995   7.085   0.628 -0.9153 -0.2490  0.0969
  802MOL0     C 8170   1.021   7.002   0.517  0.1683  0.1575 -0.2616
  802MOL0     O 8171   0.956   7.021   0.399 -0.6403 -0.2897  0.5454
  802MOL0     C 8172   0.829   7.093   0.399 -0.7432  0.9113 -0.2273
  802MOL0     C 8173   0.840   7.245   0.363  0.0834 -0.0935  0.6274
  802MOL0     C 8174   0.927   7.270   0.235 -0.3962 -0.0368  0.2782
  802MOL0     C 8175   0.930   7.418   0.202  0.1603  0.9359 -0.2840
  802MOL0     C 8176   1.007   7.446   0.072 -0.8010 -0.0067  0.3894
  802MOL0     C 8177   0.932   7.530  -0.040 -0.2143 -0.7554 -0.3639
  802MOL0     C 8178   0.789   7.480  -0.073 -0.4224  0.2421 -0.4882
  802MOL0     C 8179   0.726   7.584  -0.173  0.3415  0.1175 -0.4535
  802MOL0    Cl 8180   0.805   7.573  -0.334 -0.2180 -0.1954 -0.2198
  802MOL0     C 8181   1.122   6.908   0.524  0.9856 -0.6359  0.3884
  802MOL0     C 8182   1.196   6.897   0.638 -1.3063 -0.9447  0.6465
  802MOL0     O 8183   1.412   7.067   0.814 -0.2367 -0.2944 -0.7719
  802MOL0     C 8184   1.524   7.080   1.078  0.9095 -0.0760 -0.3246
  802MOL0     C 8185   1.592   7.067   1.187 -1.0880 -0.0851 -0.5463
  802MOL0     N 8186   1.724   7.009   1.861  0.4455 -0.0203  0.6229
  802MOL0     N 8187   1.710   6.988   1.987  0.1855  0.1842  0.0379
  802MOL0     C 8188   1.911   7.580   1.800 -0.5939 -0.3627  0.2695
  802MOL0     C 8189   1.818   7.664   1.741  0.5405  0.1233  1.0121
  802MOL0     C 8190   1.450   7.867   1.611 -0.7585 -0.9250 -0.1807
  802MOL0     C 8191   1.319   7.913   1.635 -0.4074  1.2919 -0.0872
  802MOL0     C 8192   1.248   7.983   1.535 -0.2715 -0.3168 -0.3728
  802MOL0     C 8193   1.317   8.050   1.433 -0.8082 -1.0720  0.2817
  802MOL0     O 8194   1.262   8.134   1.339 -0.5709  0.9235  0.6516
  802MOL0     C 8195   1.121   8.161   1.339  0.4474  0.5990 -0.3119
  802MOL0     C 8196   1.083   8.266   1.231 -0.6076 -0.1701  0.8284
  802MOL0     C 8197   1.166   8.396   1.259  0.6608  0.0538  0.2797
  802MOL0     C 8198   1.148   8.508   1.147  0.1757 -0.3061 -0.8439
  802MOL0     C 8199   1.017   8.564   1.177 -0.0292 -0.9969 -0.0089
  802MOL0     C 8200   0.906   8.606   1.217 -0.0145 -0.3392  0.5723
  802MOL0     C 8201   1.452   8.020   1.417  0.7144 -0.5687  0.0797
  802MOL0     C 8202   1.516   7.922   1.501 -0.6643 -1.0526  0.3285
  802MOL0     H 8203   1.537   7.514   1.815  0.2928 -1.3853 -1.6789
  802MOL0     H 8204   1.703   7.376   1.973  1.8015  0.8700  1.4816
  802MOL0     H 8205   2.090   7.587   2.023 -1.9357  1.5843  1.0889
  802MOL0     H 8206   1.964   7.560   2.131  0.9182  2.1377 -0.8196
  802MOL0     H 8207   2.173   7.344   2.111  0.3549 -0.3779 -1.0583
  802MOL0     H 8208   2.168   7.474   2.226  0.7657  1.0036 -2.0454
  802MOL0     H 8209   2.005   7.230   2.206  0.3176  0.0502 -1.0262
  802MOL0     H 8210   2.079   7.308   2.339  1.6998  0.8685 -1.3126
  802MOL0     H 8211   1.883   7.480   2.359 -0.5159 -0.7879  0.8954
  802MOL0     H 8212   1.807   7.417   2.212 -1.3650 -0.3708  0.3131
  802MOL0     H 8213   1.871   7.263   2.460  0.8753 -0.3339 -1.5925
  802MOL0     H 8214   1.718   7.350   2.426  0.7710  0.4359  0.8533
  802MOL0     H 8215   1.816   7.146   2.220 -1.8811 -2.8775 -1.4917
  802MOL0     H 8216   1.727   7.089   2.370  0.1883  0.2691  1.0464
  802MOL0     H 8217   1.541   7.213   2.329 -0.5432  0.3094 -1.2305
  802MOL0     H 8218   1.611   7.283   2.185  3.5091  0.8042  0.8645
  802MOL0     H 8219   1.453   7.064   2.154 -0.5422  2.8751 -1.4839
  802MOL0     H 8220   1.583   6.977   2.225 -0.5589  1.0344 -0.4533
  802MOL0     H 8221   1.453   7.177   1.936 -0.4561 -0.2697  1.4172
  802MOL0     H 8222   1.612   7.268   1.685  0.3495  0.1206 -0.0382
  802MOL0     H 8223   1.696   7.130   1.621 -0.5905  0.6472 -1.5797
  802MOL0     H 8224   1.497   7.144   1.508 -0.1415 -1.1358 -0.2214
  802MOL0     H 8225   1.398   7.108   1.635 -0.7168 -0.5289 -0.6003
  802MOL0     H 8226   1.413   6.938   1.517 -0.6807  0.5555  0.1189
  802MOL0     H 8227   1.489   6.889   1.677  0.0332  1.5852  0.6199
  802MOL0     H 8228   1.602   6.782   1.480 -0.7157  0.5188 -0.8518
  802MOL0     H 8229   1.710   6.882   1.572 -0.8960 -3.6972  2.1207
  802MOL0     H 8230   1.465   6.788   1.310  0.5544 -3.8596 -2.5272
  802MOL0     H 8231   1.328   6.711   1.005  2.5925 -0.6632  0.9103
  802MOL0     H 8232   1.296   6.699   1.184 -2.3104  1.2543  1.1789
  802MOL0     H 8233   1.205   6.805   1.090  0.5981  0.8595 -0.4915
  802MOL0     H 8234   1.033   7.104   0.845  3.3507  0.3189  0.1995
  802MOL0     H 8235   0.935   7.175   0.622 -0.0386  0.5616  2.4725
  802MOL0     H 8236   0.767   7.047   0.322 -1.4823 -0.1905  0.9744
  802MOL0     H 8237   0.769   7.081   0.490  0.9416 -1.6812  0.6753
  802MOL0     H 8238   0.740   7.283   0.346  0.6005  1.2085  0.3948
  802MOL0     H 8239   0.888   7.297   0.446 -1.6710 -0.8546  2.1804
  802MOL0     H 8240   0.887   7.206   0.156 -1.5627 -0.0161  0.8354
  802MOL0     H 8241   1.023   7.230   0.268 -1.3464 -3.0178 -0.2199
  802MOL0     H 8242   0.824   7.439   0.187  0.2247  0.0378 -2.2420
  802MOL0     H 8243   0.967   7.469   0.291  1.3296  0.6561 -0.5941
  802MOL0     H 8244   1.029   7.345   0.037 -0.2065  0.1659  0.2555
  802MOL0     H 8245   1.098   7.503   0.093  0.7783 -1.8596 -0.9948
  802MOL0     H 8246   0.915   7.628   0.004  0.5128 -1.6197  1.9684
  802MOL0     H 8247   1.001   7.528  -0.124  2.1181  1.7380  1.3471
  802MOL0     H 8248   0.734   7.475   0.021 -1.3728 -0.2248 -1.0570
  802MOL0     H 8249   0.785   7.385  -0.128 -0.4519  2.1773 -4.1897
  802MOL0     H 8250   0.730   7.685  -0.133 -0.0860 -1.2259  3.3759
  802MOL0     H 8251   0.622   7.556  -0.192  0.0307  1.8178 -1.3937
  802MOL0     H 8252   1.136   6.831   0.449 -0.6447 -0.3900 -0.1958
  802MOL0     H 8253   1.253   6.805   0.644  0.6790 -0.0771 -2.5809
  802MOL0     H 8254   1.537   7.172   1.021 -1.0469  1.0402  0.9545
  802MOL0     H 8255   1.643   7.155   1.226 -0.7137 -0.8634  0.7849
  802MOL0     H 8256   2.017   7.597   1.785 -0.7750  0.8647  0.3204
  802MOL0     H 8257   1.861   7.751   1.693 -1.3373  0.6961  0.2665
  802MOL0     H 8258   1.263   7.885   1.724 -1.7276 -0.2701 -1.3555
  802MOL0     H 8259   1.140   7.996   1.541 -0.1314  0.2500  1.6733
  802MOL0     H 8260   1.069   8.071   1.306  3.1618 -1.0510 -0.4737
  802MOL0     H 8261   1.088   8.189   1.439 -0.7012 -0.6645 -0.3022
  802MOL0     H 8262   0.975   8.281   1.239 -0.7557 -1.0877  0.7060
  802MOL0     H 8263   1.095   8.233   1.128 -1.4683  1.2528  0.2519
  802MOL0     H 8264   1.273   8.373   1.265 -0.2285 -5.2991  1.3751
  802MOL0     H 8265   1.140   8.444   1.354  1.3107 -1.5651  1.3329
  802MOL0     H 8266   1.157   8.473   1.044  1.3369 -2.2521 -0.1217
  802MOL0     H 8267   1.223   8.586   1.162  0.8311 -1.2691  1.2073
  802MOL0     H 8268   0.809   8.637   1.251 -1.7965 -1.7210 -2.6725
  802MOL0     H 8269   1.511   8.057   1.334  1.0699 -2.3217 -0.4891
  802MOL0     H 8270   1.619   7.892   1.482 -0.0396  0.8769  0.4498
  803MOL0     O 8271   3.053   1.222   3.834 -0.2223  0.3545 -0.4691
  803MOL0     C 8272   3.097   1.246   3.952  0.2461 -0.3616 -0.4840
  803MOL0     O 8273   3.139   1.152   4.041  0.3119 -0.6142  0.1474
  803MOL0     C 8274   3.184   1.032   3.995  0.5132  1.1669  0.1154
  803MOL0     C 8275   3.291   0.989   4.070 -0.8988 -0.0406 -0.2218
  803MOL0     C 8276   3.358   0.874   4.035 -0.1125 -0.5005 -0.2036
  803MOL0     C 8277   3.322   0.801   3.921  0.1862 -0.2613  0.7845
  803MOL0     O 8278   3.396   0.691   3.885 -0.1329  0.7077  0.5926
  803MOL0     C 8279   3.404   0.588   3.978 -0.0754  0.2395 -0.6279
  803MOL0     C 8280   3.515   0.496   3.930  0.2087 -0.4852 -0.2865
  803MOL0     C 8281   3.502   0.445   3.787  0.7328  0.7187  0.1168
  803MOL0     C 8282   3.369   0.408   3.749  0.4161  0.1987 -0.1174
  803MOL0     C 8283   3.368   0.290   3.654  0.4587  1.2356  0.9841
  803MOL0     C 8284   3.225   0.229   3.632 -0.0337 -0.1115  0.6251
  803MOL0     C 8285   3.172   0.129   3.721  0.0331 -0.3551  0.5067
  803MOL0     C 8286   3.028   0.139   3.754 -1.1601  0.6445 -0.7855
  803MOL0     N 8287   2.998   0.249   3.844  0.6532 -0.5558  0.0491
  803MOL0     C 8288   3.042   0.269   3.968 -0.2326  0.5018 -0.2732
  803MOL0     C 8289   2.974   0.370   4.028  1.1051  0.6783 -0.1300
  803MOL0     C 8290   2.982   0.422   4.165 -0.5172  0.1685 -0.5293
  803MOL0     C 8291   3.060   0.559   4.163  0.0592  0.0602  0.3590
  803MOL0     C 8292   2.999   0.671   4.068 -0.2855 -0.4528 -0.6934
  803MOL0     C 8293   2.867   0.716   4.127  0.2893 -0.5927 -0.7329
  803MOL0     O 8294   2.814   0.818   4.041  0.1262  1.0127 -0.0853
  803MOL0     C 8295   2.752   0.934   4.082 -0.7816 -1.3163 -1.1000
  803MOL0     C 8296   2.764   1.057   4.006 -0.4530 -0.7723  0.0733
  803MOL0     C 8297   2.718   1.176   4.053  0.3246  0.5768 -0.3299
  803MOL0     C 8298   2.746   1.299   3.967  0.5392  1.1097  0.0882
  803MOL0     C 8299   2.639   1.173   4.176  0.3379  0.8273 -0.1370
  803MOL0     C 8300   2.580   1.295   4.232  1.3881  0.4627  0.1240
  803MOL0     O 8301   2.479   1.268   4.309 -0.5351 -0.5662 -0.5365
  803MOL0     C 8302   2.372   1.356   4.301  0.3813  0.2919  0.4915
  803MOL0     C 8303   2.293   1.384   4.180 -0.1022 -0.1904 -0.9612
  803MOL0     C 8304   2.166   1.446   4.192  0.2686  0.8637  0.0377
  803MOL0     C 8305   2.109   1.475   4.318 -0.8400  0.0784  0.0152
  803MOL0     O 8306   1.979   1.524   4.335 -0.1384 -0.0917 -0.4492
  803MOL0     C 8307   1.938   1.622   4.424 -0.3615  0.5202 -0.4509
  803MOL0     C 8308   1.812   1.584   4.507 -0.4119  0.5612  0.1894
  803MOL0     C 8309   1.864   1.492   4.614 -0.4181  0.1407  0.1211
  803MOL0     C 8310   1.764   1.430   4.715  0.3418  0.2529 -0.3400
  803MOL0     C 8311   1.827   1.340   4.816 -0.1299  0.4596 -0.0592
  803MOL0     C 8312   1.896   1.425   4.925  0.6182  0.1903  0.3703
  803MOL0     C 8313   1.999   1.346   5.004  0.2658 -0.5770 -1.0221
  803MOL0     C 8314   2.068   1.443   5.095 -0.0798  0.8787 -0.7817
  803MOL0    Cl 8315   1.968   1.519   5.220 -0.1792  0.3920 -0.1272
  803MOL0     C 8316   2.192   1.458   4.425  0.3210 -0.0761 -0.3679
  803MOL0     C 8317   2.317   1.392   4.424 -0.3654 -0.3068 -0.2290
  803MOL0     O 8318   2.610   1.406   4.193 -0.8678  0.3291  0.0569
  803MOL0     C 8319   2.634   1.057   4.246 -0.5397 -0.6970 -0.1745
  803MOL0     C 8320   2.690   0.937   4.206 -0.3588  0.0362 -0.2609
  803MOL0     N 8321   2.875   0.404   3.933  0.9691 -0.3455 -0.4453
  803MOL0     N 8322   2.894   0.334   3.827 -0.6843  0.3438 -0.1653
  803MOL0     C 8323   3.211   0.845   3.844  0.5495 -0.0230 -1.1962
  803MOL0     C 8324   3.136   0.957   3.880 -0.1041 -0.1242 -0.2315
  803MOL0     C 8325   3.077   1.392   3.996 -0.7983 -0.2023 -0.0398
  803MOL0     C 8326   3.117   1.436   4.122  0.5803 -0.0838 -0.0907
  803MOL0     C 8327   3.086   1.567   4.165 -0.5131 -0.3827  0.4121
  803MOL0     C 8328   3.019   1.657   4.078 -0.0130  0.9997 -0.3657
  803MOL0     O 8329   2.987   1.770   4.145  0.0425  0.5346 -0.3097
  803MOL0     C 8330   2.945   1.887   4.086  1.0005  0.5093  0.4407
  803MOL0     C 8331   3.044   1.940   3.968 -0.0828  0.0075 -1.0333
  803MOL0     C 8332   2.976   2.048   3.887 -0.0274  0.1282 -0.0673
  803MOL0     C 8333   2.870   1.992   3.794 -0.1089 -0.0371  0.0854
  803MOL0     C 8334   2.817   2.118   3.730  0.8464 -0.0970 -0.5396
  803MOL0     C 8335   2.758   2.214   3.694 -0.1328 -1.0319  0.8983
  803MOL0     C 8336   2.981   1.608   3.950  0.2730 -0.7274 -0.3116
  803MOL0     C 8337   3.015   1.481   3.904 -0.4132  0.4931  0.8837
  803MOL0     H 8338   3.338   1.046   4.149 -0.0460 -1.5990  0.4309
  803MOL0     H 8339   3.454   0.849   4.080 -0.8669 -2.6803  0.3123
  803MOL0     H 8340   3.425   0.631   4.076 -1.3496 -1.9398  0.6747
  803MOL0     H 8341   3.304   0.546   3.987 -1.6286  3.5433 -0.9905
  803MOL0     H 8342   3.601   0.564   3.932 -1.6813  2.0408  0.5194
  803MOL0     H 8343   3.535   0.411   3.996  0.4567 -0.4123 -0.2648
  803MOL0     H 8344   3.537   0.533   3.733 -1.9447  2.2273  0.6667
  803MOL0     H 8345   3.584   0.372   3.788  0.3707  0.2706  1.9373
  803MOL0     H 8346   3.313   0.375   3.837 -2.6737  0.6310 -1.7744
  803MOL0     H 8347   3.320   0.500   3.716  2.1006  0.3052 -2.5520
  803MOL0     H 8348   3.419   0.308   3.559  2.9340 -2.4655  1.3940
  803MOL0     H 8349   3.417   0.207   3.707 -0.0340  0.0076 -0.4245
  803MOL0     H 8350   3.157   0.315   3.637  0.4506  0.3152 -0.0448
  803MOL0     H 8351   3.216   0.199   3.527 -0.0534  2.4007 -0.1419
  803MOL0     H 8352   3.194   0.031   3.679  2.1134 -0.4381  1.6300
  803MOL0     H 8353   3.227   0.126   3.816 -0.4018  0.2422  0.7869
  803MOL0     H 8354   3.002   0.045   3.804 -0.6635  1.0217  0.2046
  803MOL0     H 8355   2.960   0.135   3.668 -0.0973 -1.4171 -1.6054
  803MOL0     H 8356   3.126   0.213   4.010 -0.7029  0.4702  0.6461
  803MOL0     H 8357   2.884   0.436   4.210  0.0487  1.2436  0.4008
  803MOL0     H 8358   3.046   0.346   4.212  0.6548 -0.4046 -2.8475
  803MOL0     H 8359   3.164   0.536   4.141  0.0551 -0.3016  0.7173
  803MOL0     H 8360   3.060   0.599   4.265  2.6136  1.4698 -0.1039
  803MOL0     H 8361   2.981   0.633   3.967 -1.8208 -0.3485 -0.4832
  803MOL0     H 8362   3.071   0.752   4.058 -2.1706  1.1335 -2.1375
  803MOL0     H 8363   2.884   0.756   4.228  1.6835 -0.0163 -1.1670
  803MOL0     H 8364   2.803   0.628   4.138  1.5840 -1.2428  3.6130
  803MOL0     H 8365   2.810   1.052   3.908  1.7244  2.5599  0.7395
  803MOL0     H 8366   2.654   1.327   3.916 -0.4575 -0.0390  1.1622
  803MOL0     H 8367   2.766   1.376   4.043  0.5394 -2.1141  3.7022
  803MOL0     H 8368   2.827   1.285   3.895 -2.9019  2.5283 -4.5544
  803MOL0     H 8369   2.327   1.353   4.082 -1.2414 -2.9355 -0.5852
  803MOL0     H 8370   2.096   1.450   4.109 -1.8506  1.3463  1.7517
  803MOL0     H 8371   2.020   1.651   4.490 -0.9923  2.1997 -0.3601
  803MOL0     H 8372   1.911   1.712   4.369  2.1480  0.8771 -1.2036
  803MOL0     H 8373   1.758   1.671   4.546 -1.8916  0.8248 -2.2144
  803MOL0     H 8374   1.746   1.531   4.438  0.0390  2.7230 -2.0816
  803MOL0     H 8375   1.933   1.556   4.670 -1.7973  0.4247  1.5860
  803MOL0     H 8376   1.924   1.413   4.569 -0.2135  1.5348 -2.2045
  803MOL0     H 8377   1.713   1.518   4.754  1.4569  0.6234  0.3255
  803MOL0     H 8378   1.704   1.361   4.655 -0.3182  0.1212  0.4583
  803MOL0     H 8379   1.903   1.277   4.770 -0.7332 -0.5017  0.2089
  803MOL0     H 8380   1.749   1.272   4.854 -0.1740  0.6802  0.2468
  803MOL0     H 8381   1.956   1.490   4.861  3.2030 -4.2981 -2.2205
  803MOL0     H 8382   1.826   1.479   4.990 -2.5031 -0.9449 -1.8316
  803MOL0     H 8383   2.081   1.305   4.944 -0.5196 -4.9198  0.5126
  803MOL0     H 8384   1.950   1.275   5.072  0.8592  1.2272  1.4140
  803MOL0     H 8385   2.117   1.522   5.037 -2.3607  0.4047 -3.5998
  803MOL0     H 8386   2.143   1.382   5.146 -0.6226  1.4147  0.7126
  803MOL0     H 8387   2.154   1.494   4.520 -2.9635  1.1868 -2.0024
  803MOL0     H 8388   2.377   1.380   4.513 -1.2934  0.1461  0.4807
  803MOL0     H 8389   2.584   1.051   4.342 -1.9724 -1.3026 -0.9384
  803MOL0     H 8390   2.697   0.848   4.267  0.4073  0.2619 -0.0128
  803MOL0     H 8391   3.181   0.798   3.750 -4.4575 -1.4578  0.7846
  803MOL0     H 8392   3.041   0.985   3.836  0.1290  0.9060 -0.0912
  803MOL0     H 8393   3.166   1.372   4.194 -0.0990 -0.4565  0.0475
  803MOL0     H 8394   3.083   1.586   4.271  1.3689 -1.9458  0.7908
  803MOL0     H 8395   2.846   1.866   4.045  1.2598 -1.6630  0.7754
  803MOL0     H 8396   2.938   1.965   4.162  1.6360 -1.3610  2.5257
  803MOL0     H 8397   3.083   1.863   3.902  1.1734  0.9680 -1.4438
  803MOL0     H 8398   3.130   1.988   4.016 -2.2303  0.5806  2.6218
  803MOL0     H 8399   3.045   2.120   3.841 -1.2348  0.7684 -0.9399
  803MOL0     H 8400   2.918   2.101   3.962  0.6237 -0.9812  1.2767
  803MOL0     H 8401   2.803   1.916   3.835 -0.0424  0.1368  0.5197
  803MOL0     H 8402   2.917   1.932   3.715  1.3760  0.2804  0.7033
  803MOL0     H 8403   2.714   2.307   3.664  3.9012 -0.1555 -3.7359
  803MOL0     H 8404   2.926   1.674   3.884 -1.0151 -0.4615  0.9572
  803MOL0     H 8405   2.986   1.467   3.800  0.6339  0.5354  0.5765
  804MOL0     O 8406  10.848   1.762   0.649 -0.7475  0.4466 -0.0605
  804MOL0     C 8407  10.778   1.778   0.555  0.8008  0.0886  0.1219
  804MOL0     O 8408  10.823   1.834   0.440  0.0243 -0.0321 -0.2863
  804MOL0     C 8409  10.963   1.808   0.409  0.3867 -0.3633 -0.8857
  804MOL0     C 8410  11.032   1.689   0.443  1.2353 -0.0543 -0.4687
  804MOL0     C 8411  11.167   1.677   0.416 -0.1380 -0.5666 -0.1506
  804MOL0     C 8412  11.228   1.781   0.340  0.3793 -0.2358 -0.2255
  804MOL0     O 8413  11.355   1.755   0.300  0.3254 -0.0338  0.0907
  804MOL0     C 8414  11.357   1.646   0.207 -0.1793  0.0790  0.3947
  804MOL0     C 8415  11.447   1.672   0.091  0.5897 -0.0572  0.1017
  804MOL0     C 8416  11.594   1.683   0.131  0.5033  1.4222 -0.9217
  804MOL0     C 8417  11.691   1.577   0.076  0.2140 -0.3317 -0.0385
  804MOL0     C 8418  11.711   1.587  -0.076  0.4065 -0.2533  0.1447
  804MOL0     C 8419  11.749   1.458  -0.151 -0.4646 -0.3944 -0.6023
  804MOL0     C 8420  11.898   1.436  -0.140  0.3146 -0.3158 -0.5586
  804MOL0     C 8421  11.943   1.299  -0.192  0.9397  0.6468 -0.1971
  804MOL0     N 8422  12.061   1.248  -0.120 -0.3452  0.2526 -0.0942
  804MOL0     C 8423  12.175   1.220  -0.175 -0.9582 -0.8150 -0.9781
  804MOL0     C 8424  12.252   1.163  -0.073 -0.9113  0.4926  0.3427
  804MOL0     C 8425  12.386   1.102  -0.097  0.7661 -0.0633 -1.0528
  804MOL0     C 8426  12.486   1.187  -0.011  0.1386 -0.0490 -0.4213
  804MOL0     C 8427  12.594   1.098   0.052  0.3315 -0.1757 -0.4820
  804MOL0     C 8428  12.694   1.179   0.140  0.6482 -0.1305 -0.6641
  804MOL0     O 8429  12.635   1.293   0.212 -0.6970  0.0371 -0.8507
  804MOL0     C 8430  12.593   1.279   0.350  1.6313  0.7865  1.2369
  804MOL0     C 8431  12.523   1.386   0.393 -0.2526  0.0783 -0.6575
  804MOL0     C 8432  12.475   1.390   0.526  0.4712 -0.3745  0.2828
  804MOL0     C 8433  12.392   1.514   0.554  0.0557  0.7416  0.0752
  804MOL0     C 8434  12.485   1.277   0.609 -0.0855 -0.9121 -0.6189
  804MOL0     C 8435  12.440   1.270   0.751  0.7164 -0.6309 -0.7343
  804MOL0     O 8436  12.527   1.218   0.847  0.6208  0.2554 -0.3616
  804MOL0     C 8437  12.481   1.202   0.977 -0.5395  0.3158 -0.2568
  804MOL0     C 8438  12.371   1.263   1.044 -0.1394 -0.4656 -0.9519
  804MOL0     C 8439  12.318   1.214   1.170 -0.7640 -0.5993  0.2103
  804MOL0     C 8440  12.391   1.120   1.238  0.1056 -0.4645 -0.2853
  804MOL0     O 8441  12.335   1.083   1.361  0.2814 -0.5543 -0.8263
  804MOL0     C 8442  12.422   1.061   1.466  0.0355  0.4680 -0.7637
  804MOL0     C 8443  12.538   1.161   1.486 -0.4736  0.1523 -0.3543
  804MOL0     C 8444  12.479   1.296   1.528 -0.2235 -0.7479 -0.3563
  804MOL0     C 8445  12.583   1.404   1.534  0.1252 -0.0056 -1.0323
  804MOL0     C 8446  12.538   1.531   1.594  0.2112  0.1152  0.7503
  804MOL0     C 8447  12.616   1.659   1.543 -0.4256 -1.5740 -0.5276
  804MOL0     C 8448  12.559   1.796   1.590  0.2207 -0.9218 -0.3298
  804MOL0     C 8449  12.480   1.882   1.496  0.9788  0.0742  0.4498
  804MOL0    Cl 8450  12.349   1.803   1.422  0.0866 -0.1448  0.0289
  804MOL0     C 8451  12.514   1.062   1.183 -0.0541 -0.0195 -0.0765
  804MOL0     C 8452  12.551   1.102   1.053 -1.1761 -0.2247  0.4932
  804MOL0     O 8453  12.323   1.304   0.772 -0.0169  0.2583  0.1049
  804MOL0     C 8454  12.565   1.172   0.561  0.4951  0.3537 -0.5049
  804MOL0     C 8455  12.628   1.176   0.437  0.0132 -0.4487  0.0670
  804MOL0     N 8456  12.180   1.173   0.043  0.1435  1.0141 -0.0273
  804MOL0     N 8457  12.066   1.221   0.012 -1.1876  0.3783  0.4734
  804MOL0     C 8458  11.161   1.888   0.303  0.8649  0.2875 -0.0142
  804MOL0     C 8459  11.029   1.909   0.337 -0.4235  0.6970  0.9692
  804MOL0     C 8460  10.634   1.759   0.574 -0.7194  0.9592  1.1677
  804MOL0     C 8461  10.583   1.733   0.698 -0.4260 -0.0335 -0.7341
  804MOL0     C 8462  10.451   1.711   0.713  0.9581  0.0444  1.0372
  804MOL0     C 8463  10.369   1.707   0.601 -0.1835 -0.7152  0.0046
  804MOL0     O 8464  10.240   1.660   0.606  0.3859 -0.7853 -0.7629
  804MOL0     C 8465  10.185   1.639   0.735  0.2618  1.2125  0.0494
  804MOL0     C 8466  10.042   1.587   0.724 -0.0179 -0.5522  0.0616
  804MOL0     C 8467   9.944   1.705   0.761  0.2572 -0.0555  0.1225
  804MOL0     C 8468   9.801   1.654   0.785  0.1543  0.3448  0.9007
  804MOL0     C 8469   9.750   1.567   0.676 -1.0650 -0.0922 -0.3733
  804MOL0     C 8470   9.748   1.487   0.582  0.1339 -0.3621  0.4799
  804MOL0     C 8471  10.414   1.741   0.479 -0.5621  0.0031 -0.0570
  804MOL0     C 8472  10.551   1.777   0.468  0.2080  0.3102 -0.8495
  804MOL0     H 8473  10.987   1.613   0.506  1.0281  1.0198  0.7107
  804MOL0     H 8474  11.238   1.600   0.444  2.4736  0.5810 -3.0138
  804MOL0     H 8475  11.395   1.557   0.257 -1.4987 -2.4238 -2.7235
  804MOL0     H 8476  11.257   1.621   0.169 -0.2205  0.2551  0.3855
  804MOL0     H 8477  11.432   1.598   0.012 -1.4656  2.4404 -2.0755
  804MOL0     H 8478  11.425   1.769   0.044  2.4243  1.1348  1.5495
  804MOL0     H 8479  11.624   1.775   0.081  1.3469 -0.0770 -3.3301
  804MOL0     H 8480  11.615   1.693   0.238  0.1790 -0.9958 -0.5654
  804MOL0     H 8481  11.787   1.611   0.115 -0.1517  3.7956 -2.1358
  804MOL0     H 8482  11.658   1.479   0.111  1.6052 -0.1978  1.7927
  804MOL0     H 8483  11.621   1.631  -0.119  0.6163  0.3157  0.2888
  804MOL0     H 8484  11.781   1.667  -0.102 -2.1671  1.9059 -0.5843
  804MOL0     H 8485  11.694   1.380  -0.099 -3.7851  2.9616  1.4249
  804MOL0     H 8486  11.721   1.464  -0.257 -3.0475  2.7008  0.1181
  804MOL0     H 8487  11.949   1.512  -0.200 -0.1022 -0.0218 -0.5510
  804MOL0     H 8488  11.947   1.446  -0.043 -0.0149 -2.1387 -0.1647
  804MOL0     H 8489  11.965   1.299  -0.299  2.6883 -1.2115  0.1141
  804MOL0     H 8490  11.859   1.229  -0.188 -0.4392  2.2265 -0.2630
  804MOL0     H 8491  12.196   1.227  -0.281 -0.4633 -3.0461 -1.0669
  804MOL0     H 8492  12.395   0.998  -0.065 -2.1194  0.5424  2.2929
  804MOL0     H 8493  12.404   1.106  -0.205  0.0410 -0.0560 -1.1792
  804MOL0     H 8494  12.441   1.250   0.066  1.1294 -0.7788  0.7918
  804MOL0     H 8495  12.541   1.257  -0.074 -2.4190  2.5252 -0.0116
  804MOL0     H 8496  12.643   1.041  -0.027 -3.9085 -1.6934 -2.3393
  804MOL0     H 8497  12.547   1.028   0.121  0.8750  0.8254  0.9467
  804MOL0     H 8498  12.777   1.212   0.076 -0.0948 -1.6619 -2.5138
  804MOL0     H 8499  12.742   1.108   0.209 -0.5611 -0.0061  0.3496
  804MOL0     H 8500  12.542   1.479   0.341 -0.3803  0.7079  0.3881
  804MOL0     H 8501  12.437   1.566   0.639  0.2247  2.0911 -0.8108
  804MOL0     H 8502  12.388   1.582   0.469  2.9473  2.4967  1.1961
  804MOL0     H 8503  12.286   1.487   0.566 -0.9761  4.1822 -0.2118
  804MOL0     H 8504  12.311   1.346   1.006  0.0258 -1.0438 -2.5443
  804MOL0     H 8505  12.227   1.249   1.218 -2.2034 -3.1835 -0.4582
  804MOL0     H 8506  12.367   1.056   1.560  0.5247  1.4317 -0.4113
  804MOL0     H 8507  12.451   0.955   1.457 -3.6473 -0.8741  1.1334
  804MOL0     H 8508  12.605   1.135   1.569 -0.4848 -0.9745 -0.6816
  804MOL0     H 8509  12.600   1.169   1.396 -0.2508 -1.2090 -0.3393
  804MOL0     H 8510  12.430   1.281   1.624  1.7688 -0.3412  0.7752
  804MOL0     H 8511  12.407   1.328   1.452 -0.5646  2.0476  1.0170
  804MOL0     H 8512  12.674   1.383   1.590  0.8995  1.2450 -1.7646
  804MOL0     H 8513  12.620   1.410   1.431  1.4811  0.4383 -0.5381
  804MOL0     H 8514  12.560   1.512   1.699 -0.2820 -2.9994  0.3687
  804MOL0     H 8515  12.430   1.548   1.584  0.2796  0.2545  0.1979
  804MOL0     H 8516  12.720   1.655   1.574 -0.9426  3.0625  2.6624
  804MOL0     H 8517  12.613   1.647   1.434  1.9765 -1.0246 -0.7011
  804MOL0     H 8518  12.637   1.867   1.617 -2.6361  1.6453  1.9722
  804MOL0     H 8519  12.509   1.782   1.687  4.0415 -0.0180  2.0009
  804MOL0     H 8520  12.549   1.930   1.425  2.8044 -3.1162 -0.1254
  804MOL0     H 8521  12.430   1.957   1.558  0.8251  0.6282 -0.3353
  804MOL0     H 8522  12.575   0.992   1.238  2.5423  1.5322 -0.7982
  804MOL0     H 8523  12.631   1.054   0.997 -0.5560 -0.1764  1.3214
  804MOL0     H 8524  12.578   1.081   0.618 -1.2699  0.1899 -0.2985
  804MOL0     H 8525  12.693   1.091   0.416  2.3093 -0.0692  4.5337
  804MOL0     H 8526  11.210   1.964   0.243 -0.2657  1.3938  0.4273
  804MOL0     H 8527  10.984   2.001   0.302  2.3724  0.8291 -2.9332
  804MOL0     H 8528  10.644   1.714   0.785 -0.3249 -0.2240 -0.8465
  804MOL0     H 8529  10.419   1.677   0.811 -3.2267  0.9674  0.1882
  804MOL0     H 8530  10.230   1.551   0.781  0.3214  1.0778 -0.2600
  804MOL0     H 8531  10.198   1.720   0.807 -0.3790 -0.1253  1.7083
  804MOL0     H 8532  10.034   1.504   0.795 -0.5600 -2.1582 -1.7930
  804MOL0     H 8533  10.023   1.553   0.622  3.2107  1.1959 -1.2648
  804MOL0     H 8534   9.944   1.775   0.677 -1.2960 -1.0758 -0.7623
  804MOL0     H 8535   9.969   1.768   0.846 -1.1161  1.3251 -0.4535
  804MOL0     H 8536   9.730   1.736   0.794 -0.3521 -0.1921  2.0650
  804MOL0     H 8537   9.815   1.604   0.882  2.4748 -0.6486  0.1241
  804MOL0     H 8538   9.722   1.407   0.516 -1.0828  1.5313 -1.4894
  804MOL0     H 8539  10.347   1.747   0.394  0.9334  1.5269 -1.2154
  804MOL0     H 8540  10.591   1.814   0.375 -1.8703  4.1994 -0.3953
  805MOL0     O 8541   3.687   8.103   1.560 -0.2101  0.1122  0.4063
  805MOL0     C 8542   3.574   8.149   1.577 -0.2794  0.1862  0.7820
  805MOL0     O 8543   3.519   8.257   1.524  0.6371 -0.8168  0.3619
  805MOL0     C 8544   3.570   8.327   1.411  0.6044  0.2553 -0.4898
  805MOL0     C 8545   3.585   8.475   1.420  0.2910  0.0587  0.0708
  805MOL0     C 8546   3.622   8.544   1.305 -0.1649  0.2215  0.4332
  805MOL0     C 8547   3.644   8.477   1.185 -0.1207  0.7531  1.0577
  805MOL0     O 8548   3.668   8.551   1.065 -0.7035 -0.3165 -0.4952
  805MOL0     C 8549   3.718   8.488   0.949 -0.7196 -0.0261 -0.6655
  805MOL0     C 8550   3.789   8.604   0.874 -1.5525 -0.2543 -0.1305
  805MOL0     C 8551   3.879   8.709   0.955  0.7970 -0.4710 -0.6628
  805MOL0     C 8552   3.979   8.646   1.051  0.4310 -0.0858 -0.9864
  805MOL0     C 8553   4.073   8.745   1.116  0.3828  0.6081 -0.2804
  805MOL0     C 8554   4.035   8.870   1.193 -0.6376  0.1158 -0.5179
  805MOL0     C 8555   3.927   8.858   1.298 -0.5587  0.3678 -0.1638
  805MOL0     C 8556   3.959   8.745   1.403 -0.0788  0.2996  0.5268
  805MOL0     N 8557   3.897   8.756   1.534  0.7585  0.1254  0.2910
  805MOL0     C 8558   3.775   8.818   1.568 -0.6209  0.8423  0.1293
  805MOL0     C 8559   3.769   8.795   1.708  0.3254  0.5720  0.9214
  805MOL0     C 8560   3.653   8.830   1.801  0.3418 -1.2744  0.4514
  805MOL0     C 8561   3.584   8.947   1.741  0.0547 -0.8724 -0.1545
  805MOL0     C 8562   3.485   9.022   1.838 -0.0249  0.1487  0.4851
  805MOL0     C 8563   3.396   8.935   1.926  1.2320  0.2189 -0.7514
  805MOL0     O 8564   3.345   9.002   2.045  0.1404 -0.4717 -0.0873
  805MOL0     C 8565   3.223   9.061   2.042  0.6435 -0.0606  0.1557
  805MOL0     C 8566   3.163   9.097   1.921 -0.8127 -0.1936  0.3526
  805MOL0     C 8567   3.036   9.158   1.908 -0.1861 -0.2200  0.7218
  805MOL0     C 8568   2.966   9.177   1.771 -0.4324 -0.4827 -0.6104
  805MOL0     C 8569   2.966   9.181   2.024 -0.5433 -0.5638 -0.4901
  805MOL0     C 8570   2.830   9.246   2.028  0.5841 -0.2142 -0.2119
  805MOL0     O 8571   2.750   9.242   1.922  1.0243  0.2902 -0.4021
  805MOL0     C 8572   2.655   9.337   1.900  0.1211 -0.4845  0.4325
  805MOL0     C 8573   2.585   9.418   1.991 -1.4472 -0.5252 -0.1019
  805MOL0     C 8574   2.487   9.504   1.950 -0.6969  0.3320  1.5674
  805MOL0     C 8575   2.466   9.532   1.808 -0.1899 -0.9652 -0.4576
  805MOL0     O 8576   2.383   9.620   1.749  0.2113 -0.0581  0.0834
  805MOL0     C 8577   2.338   9.736   1.821  0.0808  0.2123 -0.1291
  805MOL0     C 8578   2.295   9.844   1.731  0.5861  0.3759  0.2860
  805MOL0     C 8579   2.181   9.800   1.632 -0.7692  0.4159 -1.2246
  805MOL0     C 8580   2.157   9.915   1.529  1.2508 -1.1057  0.4253
  805MOL0     C 8581   2.051   9.897   1.420  0.2180 -0.6470 -0.8769
  805MOL0     C 8582   2.091   9.779   1.327  0.6777  0.3986 -0.0978
  805MOL0     C 8583   2.003   9.779   1.203 -0.4340 -0.2538 -0.4636
  805MOL0     C 8584   2.041   9.663   1.099 -0.5362  1.3174  0.0380
  805MOL0    Cl 8585   1.884   9.656   0.994 -0.3463 -0.6003  0.3212
  805MOL0     C 8586   2.535   9.443   1.716 -0.2260 -0.1492 -0.1055
  805MOL0     C 8587   2.628   9.345   1.762 -0.4417 -0.4478  0.3051
  805MOL0     O 8588   2.800   9.302   2.133 -0.2453  0.1121 -0.0083
  805MOL0     C 8589   3.024   9.150   2.147 -0.0525 -0.3925 -0.6628
  805MOL0     C 8590   3.158   9.091   2.158 -0.0773  0.7806  0.4097
  805MOL0     N 8591   3.883   8.730   1.753 -0.0477  0.6523 -0.0501
  805MOL0     N 8592   3.949   8.708   1.652 -0.2192 -0.2132  0.9499
  805MOL0     C 8593   3.619   8.334   1.185 -0.6583 -0.4110 -0.2433
  805MOL0     C 8594   3.587   8.260   1.294  0.8197 -0.0693 -0.1442
  805MOL0     C 8595   3.482   8.064   1.645 -0.1090  0.7721  0.0932
  805MOL0     C 8596   3.344   8.064   1.627 -0.2317 -1.3168  1.4510
  805MOL0     C 8597   3.260   7.985   1.696 -1.0379  0.9028  0.8515
  805MOL0     C 8598   3.309   7.888   1.785  0.7339 -0.2138 -0.7105
  805MOL0     O 8599   3.237   7.796   1.860 -0.0435 -0.6749 -0.0169
  805MOL0     C 8600   3.097   7.802   1.873  0.8243  0.5373  0.3077
  805MOL0     C 8601   3.037   7.689   1.950  0.6347 -0.4136 -0.2796
  805MOL0     C 8602   3.113   7.556   1.937  0.8012 -0.3653  0.4754
  805MOL0     C 8603   3.054   7.455   2.035  1.3243 -0.4420  0.1872
  805MOL0     C 8604   3.106   7.316   2.037  0.4901 -0.6483  0.3744
  805MOL0     C 8605   3.153   7.203   2.033  0.2220  0.2052 -0.3638
  805MOL0     C 8606   3.449   7.885   1.809 -0.4208  0.4294  0.2129
  805MOL0     C 8607   3.532   7.980   1.745 -0.5101 -0.2168 -0.2069
  805MOL0     H 8608   3.552   8.527   1.509  0.5839 -1.2724  0.9962
  805MOL0     H 8609   3.640   8.651   1.306  1.2368  0.0298 -0.8467
  805MOL0     H 8610   3.786   8.404   0.965 -0.1498  0.6376  0.5264
  805MOL0     H 8611   3.638   8.446   0.887  0.0006 -1.6701 -0.5560
  805MOL0     H 8612   3.846   8.570   0.787  0.7541  2.5735  0.1077
  805MOL0     H 8613   3.711   8.667   0.829  1.3974  3.3249 -0.7315
  805MOL0     H 8614   3.936   8.784   0.900 -0.4282  1.0683  0.0856
  805MOL0     H 8615   3.810   8.762   1.020 -0.1426 -1.3494 -0.9193
  805MOL0     H 8616   3.917   8.594   1.125  0.6592  1.5561  0.4323
  805MOL0     H 8617   4.050   8.579   1.001  1.4994  1.2686 -1.3440
  805MOL0     H 8618   4.133   8.687   1.187  0.9297  1.4445 -0.0395
  805MOL0     H 8619   4.149   8.779   1.045  1.4752 -0.7143  0.2088
  805MOL0     H 8620   4.129   8.895   1.242 -0.0272 -3.0572  0.1454
  805MOL0     H 8621   3.998   8.941   1.118 -0.5541  1.4816  0.6952
  805MOL0     H 8622   3.933   8.953   1.352  1.9656 -0.1626  0.6375
  805MOL0     H 8623   3.832   8.836   1.249  0.2783  1.7979 -2.6117
  805MOL0     H 8624   4.066   8.754   1.421  0.1001  0.0917 -0.3550
  805MOL0     H 8625   3.939   8.646   1.361  2.2220 -0.7087  1.6588
  805MOL0     H 8626   3.696   8.851   1.501  0.1164  1.5804 -0.4032
  805MOL0     H 8627   3.584   8.748   1.823 -0.8500  0.4515  3.8508
  805MOL0     H 8628   3.682   8.857   1.903 -0.3743 -1.2609  0.6590
  805MOL0     H 8629   3.521   8.922   1.655 -0.3217  0.4103 -0.2810
  805MOL0     H 8630   3.665   9.018   1.724 -1.1439  0.9425  1.2338
  805MOL0     H 8631   3.424   9.090   1.777 -1.8510 -2.6933 -1.0524
  805MOL0     H 8632   3.540   9.086   1.908  0.7824  0.2762 -0.2476
  805MOL0     H 8633   3.451   8.849   1.965  0.1298  0.0718  0.5588
  805MOL0     H 8634   3.312   8.885   1.877  2.0606 -2.0878  0.0611
  805MOL0     H 8635   3.217   9.073   1.830  0.0583 -0.6900  0.9837
  805MOL0     H 8636   2.896   9.095   1.755 -0.5027 -0.9366  1.6388
  805MOL0     H 8637   2.914   9.274   1.764 -0.1149 -0.1312  1.2122
  805MOL0     H 8638   3.034   9.187   1.687 -2.3152 -0.3147 -2.1929
  805MOL0     H 8639   2.586   9.386   2.095 -0.2338  0.6814  0.2782
  805MOL0     H 8640   2.421   9.556   2.019 -1.3699 -0.3496  1.4587
  805MOL0     H 8641   2.250   9.719   1.884 -0.8024  1.4644 -0.9740
  805MOL0     H 8642   2.419   9.784   1.876  0.1365  1.5054 -1.2908
  805MOL0     H 8643   2.263   9.932   1.787  0.3549  0.1562  0.5061
  805MOL0     H 8644   2.383   9.877   1.674  1.8763 -0.6119  1.6240
  805MOL0     H 8645   2.090   9.801   1.691  1.1644  1.0454  1.9903
  805MOL0     H 8646   2.200   9.705   1.580  1.0449  1.4268 -2.5157
  805MOL0     H 8647   2.135  10.004   1.589 -0.6099 -0.1086 -1.6027
  805MOL0     H 8648   2.254   9.921   1.478  0.6276 -2.8185 -1.0511
  805MOL0     H 8649   2.058   9.998   1.379 -1.3949 -0.0513  0.2146
  805MOL0     H 8650   1.944   9.893   1.442  0.3723 -2.8695 -0.3293
  805MOL0     H 8651   2.196   9.792   1.303  2.0130  2.7208  5.3976
  805MOL0     H 8652   2.058   9.682   1.367 -0.2469 -0.5082 -2.8422
  805MOL0     H 8653   2.007   9.877   1.155 -0.9023 -1.2395 -2.6120
  805MOL0     H 8654   1.903   9.752   1.238 -0.9091  1.5275 -0.3512
  805MOL0     H 8655   2.051   9.566   1.150 -1.9801  0.7020 -0.7912
  805MOL0     H 8656   2.128   9.688   1.037 -1.9837  0.6791 -2.3594
  805MOL0     H 8657   2.520   9.446   1.608 -0.4534  2.6230 -0.0501
  805MOL0     H 8658   2.679   9.278   1.694 -0.3584 -1.6539  1.5133
  805MOL0     H 8659   2.967   9.170   2.237 -2.6387  2.5152 -2.7343
  805MOL0     H 8660   3.203   9.052   2.249  1.7511 -1.3541 -1.2815
  805MOL0     H 8661   3.613   8.279   1.091 -4.5557 -0.8974  0.1022
  805MOL0     H 8662   3.576   8.154   1.278  4.9724 -0.3401 -2.6985
  805MOL0     H 8663   3.318   8.124   1.541  1.2431  0.5527  2.2567
  805MOL0     H 8664   3.155   7.988   1.668 -1.1852 -1.9998  0.7939
  805MOL0     H 8665   3.066   7.897   1.918  0.0526 -0.0467  1.0428
  805MOL0     H 8666   3.048   7.810   1.775  0.3714  1.9226  0.6161
  805MOL0     H 8667   2.937   7.667   1.913  0.8858 -1.9000 -0.1646
  805MOL0     H 8668   3.023   7.717   2.055 -2.1803  3.1064 -1.4240
  805MOL0     H 8669   3.222   7.567   1.943  0.9648 -0.1067 -2.0666
  805MOL0     H 8670   3.096   7.524   1.834  0.8181 -4.0973  1.5098
  805MOL0     H 8671   2.945   7.448   2.040  1.3872 -0.7696  1.6804
  805MOL0     H 8672   3.072   7.504   2.131  3.7582  1.3753 -1.0874
  805MOL0     H 8673   3.203   7.109   2.026  0.9574  0.7130 -2.8812
  805MOL0     H 8674   3.483   7.818   1.888  1.2772  0.0353 -0.7972
  805MOL0     H 8675   3.639   7.986   1.763 -0.1666 -0.9944 -1.7884
  806MOL0     O 8676   3.811   5.136   2.831 -0.0471 -0.5910 -0.4449
  806MOL0     C 8677   3.813   5.052   2.922 -0.1489 -0.6797  0.7589
  806MOL0     O 8678   3.860   5.063   3.042  0.1597  0.4518 -0.2620
  806MOL0     C 8679   3.926   5.171   3.091 -1.5198  0.3703 -0.3088
  806MOL0     C 8680   3.909   5.216   3.221 -0.0337  0.4041  0.6585
  806MOL0     C 8681   3.989   5.327   3.271 -0.2730 -0.1086  0.2497
  806MOL0     C 8682   4.098   5.376   3.191 -0.1311 -0.2716  1.1968
  806MOL0     O 8683   4.169   5.476   3.247 -0.4105  0.1759  0.2143
  806MOL0     C 8684   4.302   5.510   3.206 -0.1232  0.0623 -0.5146
  806MOL0     C 8685   4.362   5.619   3.282 -0.6603  0.2426  1.4302
  806MOL0     C 8686   4.423   5.587   3.416  0.2775 -0.1387  0.4213
  806MOL0     C 8687   4.502   5.697   3.484 -0.8321 -0.1298  0.3993
  806MOL0     C 8688   4.654   5.670   3.510 -0.3139  0.2964  0.7224
  806MOL0     C 8689   4.682   5.537   3.585 -0.0246  0.5198 -0.7928
  806MOL0     C 8690   4.831   5.524   3.613 -0.5248  0.0331 -0.0128
  806MOL0     C 8691   4.855   5.416   3.712 -0.2749  0.0381  0.0945
  806MOL0     N 8692   4.979   5.450   3.785 -0.4137 -1.0805  0.9541
  806MOL0     C 8693   5.092   5.510   3.726  1.4059 -0.3420  0.5742
  806MOL0     C 8694   5.165   5.543   3.833 -0.1878  0.5381  0.0131
  806MOL0     C 8695   5.300   5.622   3.831 -0.2676 -0.0646 -0.7934
  806MOL0     C 8696   5.260   5.769   3.828  1.0054  0.0310 -0.3165
  806MOL0     C 8697   5.372   5.867   3.790 -0.3984  0.0789  0.3116
  806MOL0     C 8698   5.458   5.897   3.911  0.2345 -0.1148  0.2819
  806MOL0     O 8699   5.552   6.007   3.899  0.2348 -0.4729  0.2060
  806MOL0     C 8700   5.644   6.020   3.996 -0.5841  0.6834  0.5625
  806MOL0     C 8701   5.632   6.028   4.136  0.3260  1.4922  0.2105
  806MOL0     C 8702   5.745   6.041   4.225  0.0747 -0.6191  0.2252
  806MOL0     C 8703   5.699   6.058   4.368  0.5040  0.1039 -1.4898
  806MOL0     C 8704   5.873   6.040   4.169 -0.2417 -0.7529 -1.0262
  806MOL0     C 8705   6.000   6.060   4.240  0.7439 -0.8972 -0.6036
  806MOL0     O 8706   6.117   6.089   4.173 -0.4818 -0.1991  0.0173
  806MOL0     C 8707   6.238   6.075   4.239 -0.5074  0.3082 -0.1167
  806MOL0     C 8708   6.312   6.183   4.297 -0.8220 -0.7964 -0.3248
  806MOL0     C 8709   6.413   6.154   4.381 -1.1083 -0.1028 -0.6574
  806MOL0     C 8710   6.464   6.025   4.409  0.6879  0.0693  0.3812
  806MOL0     O 8711   6.572   5.989   4.487  0.3689 -0.3745 -0.3332
  806MOL0     C 8712   6.633   6.087   4.579  0.1737  0.8438  0.6449
  806MOL0     C 8713   6.621   6.042   4.723  0.2580  0.9445  0.0398
  806MOL0     C 8714   6.729   5.944   4.764 -0.5464 -0.0236  1.3851
  806MOL0     C 8715   6.869   6.010   4.811  0.0020  0.7976  0.2383
  806MOL0     C 8716   6.965   5.889   4.845 -0.2691  0.7242 -0.0982
  806MOL0     C 8717   7.101   5.944   4.896  1.2381 -0.1010  0.4403
  806MOL0     C 8718   7.197   5.827   4.946  0.0231  0.3632  0.0430
  806MOL0     C 8719   7.230   5.859   5.087  0.2493 -0.1828 -1.6858
  806MOL0    Cl 8720   7.378   5.777   5.147  0.1445  0.0548  0.2094
  806MOL0     C 8721   6.397   5.920   4.339  0.2566  0.2272 -0.0931
  806MOL0     C 8722   6.296   5.947   4.246 -0.8067 -0.4391  0.3498
  806MOL0     O 8723   6.003   6.041   4.361 -0.0248 -0.0627 -0.2347
  806MOL0     C 8724   5.882   6.033   4.031 -0.3127  0.1816 -0.5477
  806MOL0     C 8725   5.773   6.023   3.944 -0.1357 -0.2813  0.2872
  806MOL0     N 8726   5.086   5.544   3.939  0.2444 -0.4253  0.6531
  806MOL0     N 8727   4.973   5.483   3.918  0.3441  0.0199 -0.5797
  806MOL0     C 8728   4.119   5.319   3.056 -0.2250 -1.1374 -0.5987
  806MOL0     C 8729   4.041   5.216   3.014 -0.4009  0.5644  0.1673
  806MOL0     C 8730   3.749   4.919   2.885 -0.5344  0.6210  0.6832
  806MOL0     C 8731   3.738   4.893   2.751  0.9688 -0.2363 -0.0731
  806MOL0     C 8732   3.664   4.794   2.692 -0.2696  0.8495  1.1020
  806MOL0     C 8733   3.605   4.705   2.788  0.1166  0.5424 -0.3532
  806MOL0     O 8734   3.527   4.602   2.735  0.1829  0.0601  0.4857
  806MOL0     C 8735   3.423   4.547   2.811 -0.9262 -0.4612 -0.3365
  806MOL0     C 8736   3.304   4.519   2.714  1.3770  0.0578  0.7156
  806MOL0     C 8737   3.338   4.406   2.615 -0.3338 -0.0527 -0.3226
  806MOL0     C 8738   3.208   4.378   2.529  1.0252  0.1502  0.2455
  806MOL0     C 8739   3.111   4.316   2.615 -0.0437  0.2577 -0.2346
  806MOL0     C 8740   3.038   4.236   2.679  0.0313 -0.1052  0.1159
  806MOL0     C 8741   3.623   4.719   2.928  0.2957 -0.6309 -0.0608
  806MOL0     C 8742   3.692   4.833   2.975  0.7850  0.9992  0.3145
  806MOL0     H 8743   3.839   5.154   3.275  1.3540 -0.8543  1.0831
  806MOL0     H 8744   3.948   5.350   3.369 -4.2320 -1.3169 -0.9158
  806MOL0     H 8745   4.372   5.429   3.185  1.5875  1.9778 -2.6804
  806MOL0     H 8746   4.288   5.545   3.103  3.5311 -0.3919 -1.3015
  806MOL0     H 8747   4.439   5.662   3.217  2.3484 -1.7570  3.3561
  806MOL0     H 8748   4.280   5.689   3.300 -3.2205 -1.4009 -2.5665
  806MOL0     H 8749   4.339   5.546   3.472 -0.1744  0.8685  0.4925
  806MOL0     H 8750   4.496   5.507   3.398  2.1109  1.1506  1.7230
  806MOL0     H 8751   4.470   5.790   3.437 -1.2063  2.2610  4.8426
  806MOL0     H 8752   4.463   5.701   3.586 -0.4703 -1.0706  0.5878
  806MOL0     H 8753   4.717   5.667   3.420 -0.8376  0.1321  0.3517
  806MOL0     H 8754   4.684   5.758   3.567  2.6282  0.4169 -0.7819
  806MOL0     H 8755   4.614   5.522   3.669 -4.1146  3.8579 -3.0921
  806MOL0     H 8756   4.670   5.457   3.511 -1.3385  1.0839 -1.2184
  806MOL0     H 8757   4.886   5.500   3.522  2.3577  0.8327  1.4009
  806MOL0     H 8758   4.850   5.625   3.650 -2.7416  0.2542  0.6893
  806MOL0     H 8759   4.877   5.317   3.671  3.2510  0.1360  1.3987
  806MOL0     H 8760   4.769   5.397   3.778 -0.4537  4.1369  1.3371
  806MOL0     H 8761   5.129   5.523   3.625  2.2012 -3.2374  0.4096
  806MOL0     H 8762   5.362   5.604   3.919 -2.6665  0.1151  1.0084
  806MOL0     H 8763   5.351   5.593   3.738 -0.5009 -1.6554 -0.4446
  806MOL0     H 8764   5.213   5.801   3.921 -0.7321  2.6740 -1.9917
  806MOL0     H 8765   5.180   5.777   3.755  0.2453 -0.3088  0.4637
  806MOL0     H 8766   5.329   5.963   3.757  1.7706  2.0253  2.7423
  806MOL0     H 8767   5.425   5.834   3.700 -0.4045  2.3618 -0.6001
  806MOL0     H 8768   5.510   5.806   3.942 -3.1503 -1.9741  0.9008
  806MOL0     H 8769   5.395   5.916   3.998  3.6172 -0.7204  3.0920
  806MOL0     H 8770   5.534   6.033   4.183  0.9876  1.5321  1.6519
  806MOL0     H 8771   5.695   6.161   4.404 -0.1922 -0.6470  0.7291
  806MOL0     H 8772   5.596   6.025   4.383  1.2838 -1.6759  0.3910
  806MOL0     H 8773   5.765   6.006   4.438  0.2275  3.0338  1.1831
  806MOL0     H 8774   6.264   6.280   4.295  0.2325 -0.2870 -1.5361
  806MOL0     H 8775   6.456   6.239   4.432 -3.1679 -1.2561  3.3574
  806MOL0     H 8776   6.738   6.095   4.550  0.2690  0.1166  0.7778
  806MOL0     H 8777   6.590   6.188   4.578  1.7024  1.5720  2.5130
  806MOL0     H 8778   6.630   6.131   4.786  0.3455  0.5702  0.5602
  806MOL0     H 8779   6.519   6.008   4.747  1.1225 -1.4237  0.5706
  806MOL0     H 8780   6.736   5.855   4.700 -2.0786 -0.9142  2.4057
  806MOL0     H 8781   6.686   5.889   4.848 -0.6199  0.0058  1.3670
  806MOL0     H 8782   6.900   6.086   4.738 -3.7725  0.7978 -1.5542
  806MOL0     H 8783   6.864   6.058   4.909  1.5651  1.0577  0.2195
  806MOL0     H 8784   6.988   5.829   4.757 -0.5126  1.6841 -0.8309
  806MOL0     H 8785   6.923   5.829   4.927 -3.5889  1.0418 -1.4353
  806MOL0     H 8786   7.152   5.996   4.815  2.7501 -2.4657 -0.2616
  806MOL0     H 8787   7.079   6.013   4.978 -0.1608 -3.7015  3.3785
  806MOL0     H 8788   7.292   5.826   4.893 -0.6253 -0.5898 -1.1707
  806MOL0     H 8789   7.162   5.724   4.930  0.7763  0.5447 -3.7197
  806MOL0     H 8790   7.143   5.854   5.154  0.9265 -4.1176 -0.8382
  806MOL0     H 8791   7.260   5.964   5.098 -0.8657  0.0085  0.0438
  806MOL0     H 8792   6.431   5.823   4.371 -0.1350 -0.4292 -1.5632
  806MOL0     H 8793   6.237   5.873   4.193 -0.2928  0.0903 -1.0053
  806MOL0     H 8794   5.981   6.042   3.987  1.6351  3.1961  3.7170
  806MOL0     H 8795   5.793   6.025   3.837 -2.1284  3.0247 -0.1659
  806MOL0     H 8796   4.209   5.345   3.001  0.6964 -0.3953  1.1596
  806MOL0     H 8797   4.073   5.177   2.918 -0.2128  0.2074  0.3743
  806MOL0     H 8798   3.802   4.941   2.678  2.3424 -3.0971 -0.9202
  806MOL0     H 8799   3.656   4.779   2.585  1.2715  1.0038  0.9370
  806MOL0     H 8800   3.457   4.456   2.861  0.0952  1.7353  3.4065
  806MOL0     H 8801   3.391   4.616   2.890 -3.1586 -0.5706 -1.0887
  806MOL0     H 8802   3.270   4.605   2.656  1.3151 -1.7821 -2.2335
  806MOL0     H 8803   3.225   4.494   2.785  3.1113 -0.8886  2.4155
  806MOL0     H 8804   3.367   4.319   2.675 -0.4886 -1.2770 -1.9262
  806MOL0     H 8805   3.427   4.438   2.558  2.3990  0.4761  3.8147
  806MOL0     H 8806   3.231   4.305   2.451 -4.4196 -1.4504 -0.2647
  806MOL0     H 8807   3.187   4.470   2.472  0.6996  0.1764  0.4009
  806MOL0     H 8808   2.972   4.167   2.728 -1.4217 -0.5179 -2.2567
  806MOL0     H 8809   3.573   4.653   2.998  1.2544  2.2558  3.6572
  806MOL0     H 8810   3.680   4.862   3.079  0.2800 -0.4877  0.6992
  807MOL0     O 8811   4.553   2.389   0.938  0.2023  0.3601 -0.1219
  807MOL0     C 8812   4.599   2.505   0.921 -0.0841  0.6943  0.5194
  807MOL0     O 8813   4.576   2.575   0.811  0.4000  0.4563  0.0886
  807MOL0     C 8814   4.514   2.515   0.698 -0.9190  0.0338 -0.5535
  807MOL0     C 8815   4.417   2.591   0.635  0.3934 -0.9464 -0.0572
  807MOL0     C 8816   4.378   2.570   0.502  0.3233 -0.1330  0.4649
  807MOL0     C 8817   4.445   2.473   0.428  0.5177 -0.4305 -0.4106
  807MOL0     O 8818   4.433   2.456   0.288  0.3818  1.4460  0.0004
  807MOL0     C 8819   4.335   2.524   0.219 -0.2806 -0.7552 -0.2073
  807MOL0     C 8820   4.335   2.484   0.076  0.9812 -0.2673  0.3174
  807MOL0     C 8821   4.207   2.508  -0.004  0.2242  0.3631 -0.2268
  807MOL0     C 8822   4.224   2.466  -0.155  0.1559 -0.5100  0.5520
  807MOL0     C 8823   4.229   2.320  -0.186  0.5455 -0.2053  0.6236
  807MOL0     C 8824   4.252   2.297  -0.334 -0.3517 -0.3725 -0.0240
  807MOL0     C 8825   4.171   2.372  -0.437 -0.0794 -0.6231  0.3926
  807MOL0     C 8826   4.020   2.338  -0.433 -0.2208 -0.4678 -0.3178
  807MOL0     N 8827   3.929   2.421  -0.508 -0.4271 -0.3115 -0.2514
  807MOL0     C 8828   3.805   2.468  -0.463  0.3493  0.3083 -0.4839
  807MOL0     C 8829   3.768   2.564  -0.555 -0.3909 -0.0743 -0.9808
  807MOL0     C 8830   3.640   2.640  -0.533  0.5032 -0.2603  0.6016
  807MOL0     C 8831   3.567   2.645  -0.665  0.1102 -0.0982 -0.5926
  807MOL0     C 8832   3.434   2.723  -0.661  0.6493  0.2527 -0.4293
  807MOL0     C 8833   3.461   2.881  -0.702 -0.3511 -0.0759  0.0105
  807MOL0     O 8834   3.329   2.941  -0.708  0.1520  0.1352 -0.1800
  807MOL0     C 8835   3.261   2.948  -0.828 -0.0137  0.6180 -0.4541
  807MOL0     C 8836   3.291   2.858  -0.934 -0.3813 -0.2974 -0.0358
  807MOL0     C 8837   3.203   2.862  -1.048 -0.0814 -0.8317 -0.5103
  807MOL0     C 8838   3.233   2.759  -1.146 -0.2870  0.2048  0.5184
  807MOL0     C 8839   3.103   2.967  -1.060 -0.0401  0.2164  0.0952
  807MOL0     C 8840   3.020   2.994  -1.183  0.4276 -0.3106 -0.3543
  807MOL0     O 8841   2.913   3.082  -1.187 -0.4615 -0.3662  1.0025
  807MOL0     C 8842   2.835   3.083  -1.301  0.2979  0.3126  0.5988
  807MOL0     C 8843   2.724   2.993  -1.316 -0.6949 -1.0439 -0.4449
  807MOL0     C 8844   2.643   2.994  -1.430 -0.0488 -0.2162  0.0707
  807MOL0     C 8845   2.649   3.086  -1.525 -0.7803 -0.0675 -0.3422
  807MOL0     O 8846   2.561   3.078  -1.635 -0.9099 -0.2108 -0.5942
  807MOL0     C 8847   2.506   3.200  -1.683  0.2809 -0.5858  0.2313
  807MOL0     C 8848   2.361   3.163  -1.727 -0.4598  0.0829  0.1580
  807MOL0     C 8849   2.279   3.061  -1.633 -0.3839  0.2381  0.5368
  807MOL0     C 8850   2.191   2.962  -1.723 -0.3647  0.1191 -1.4392
  807MOL0     C 8851   2.084   3.033  -1.810 -0.6016  0.2941  0.3308
  807MOL0     C 8852   2.001   2.929  -1.899  0.4593 -0.3395  0.2046
  807MOL0     C 8853   1.888   2.986  -1.979  0.6745 -0.6592  0.1295
  807MOL0     C 8854   1.771   2.887  -1.995 -0.5690  0.0337 -0.1444
  807MOL0    Cl 8855   1.639   2.943  -2.108  0.3119 -0.4760 -0.0051
  807MOL0     C 8856   2.766   3.174  -1.509 -0.6416  0.5472  0.4585
  807MOL0     C 8857   2.869   3.158  -1.411  0.5707 -1.5430  0.6673
  807MOL0     O 8858   3.056   2.933  -1.285 -0.0924 -0.2250  0.9817
  807MOL0     C 8859   3.076   3.044  -0.946 -0.0577 -0.2202  0.0757
  807MOL0     C 8860   3.160   3.034  -0.834  0.3778 -0.2211  0.3416
  807MOL0     N 8861   3.862   2.583  -0.650  0.1819 -0.5509  0.1989
  807MOL0     N 8862   3.950   2.491  -0.620 -0.6751  0.7329  1.2675
  807MOL0     C 8863   4.540   2.388   0.486 -1.0606  0.3594  0.6939
  807MOL0     C 8864   4.581   2.420   0.619  0.1363 -0.5577 -0.4320
  807MOL0     C 8865   4.708   2.554   1.009  0.6539  0.9794 -0.2337
  807MOL0     C 8866   4.733   2.498   1.134  0.0228  0.9013  0.1373
  807MOL0     C 8867   4.836   2.538   1.211  0.6309  0.3185  0.9715
  807MOL0     C 8868   4.915   2.648   1.169 -0.0628 -0.7229  0.1242
  807MOL0     O 8869   5.018   2.696   1.252 -0.6454  0.5011 -0.2390
  807MOL0     C 8870   5.028   2.660   1.387 -0.7544  0.3427  0.5841
  807MOL0     C 8871   5.114   2.529   1.397 -0.5181 -0.0579  1.0075
  807MOL0     C 8872   5.076   2.452   1.533 -0.7093  0.7198 -1.0111
  807MOL0     C 8873   5.132   2.509   1.662  0.0715 -0.5395  0.2937
  807MOL0     C 8874   5.049   2.479   1.772 -0.0405 -0.0604  0.2000
  807MOL0     C 8875   4.975   2.446   1.862  0.6847 -0.0060  1.0378
  807MOL0     C 8876   4.899   2.695   1.037 -0.2568 -1.2014 -0.3900
  807MOL0     C 8877   4.790   2.657   0.963  0.2885  1.4267  0.2314
  807MOL0     H 8878   4.364   2.654   0.706  0.7722 -2.3654  1.5559
  807MOL0     H 8879   4.315   2.651   0.466  2.5689  1.2601 -0.6450
  807MOL0     H 8880   4.233   2.514   0.259 -0.1241  0.6691  0.6139
  807MOL0     H 8881   4.353   2.631   0.230 -0.0026 -1.0307  3.0224
  807MOL0     H 8882   4.428   2.529   0.039  0.7799  0.5268  0.7626
  807MOL0     H 8883   4.360   2.378   0.071  2.4934  0.1099 -1.3492
  807MOL0     H 8884   4.127   2.448   0.040 -1.4723  1.6048 -1.4323
  807MOL0     H 8885   4.164   2.609  -0.001 -0.9616 -0.1620  1.4028
  807MOL0     H 8886   4.139   2.511  -0.206  0.0664  0.1732  1.2859
  807MOL0     H 8887   4.314   2.513  -0.197 -0.6993 -0.3010 -1.1538
  807MOL0     H 8888   4.300   2.264  -0.125 -1.4990 -1.8526  1.6384
  807MOL0     H 8889   4.129   2.283  -0.159 -0.3766  3.2618  2.6828
  807MOL0     H 8890   4.356   2.330  -0.334 -0.3110 -0.4987  0.2772
  807MOL0     H 8891   4.235   2.193  -0.365  0.6013 -0.3245 -0.7697
  807MOL0     H 8892   4.177   2.481  -0.436  5.5003 -0.6282 -1.2966
  807MOL0     H 8893   4.208   2.336  -0.533  1.7509  0.9050  0.4730
  807MOL0     H 8894   3.997   2.333  -0.326  0.0314 -1.0696 -0.2887
  807MOL0     H 8895   4.013   2.235  -0.471  0.4140 -0.2537 -1.0527
  807MOL0     H 8896   3.756   2.443  -0.370  0.5191  0.5397 -0.3284
  807MOL0     H 8897   3.570   2.598  -0.461 -1.8558  1.1312 -0.7492
  807MOL0     H 8898   3.654   2.743  -0.496  1.7775  0.7492 -2.4177
  807MOL0     H 8899   3.564   2.545  -0.710  1.1855 -0.6767  0.5942
  807MOL0     H 8900   3.631   2.705  -0.730 -2.1860 -0.1752 -3.1425
  807MOL0     H 8901   3.392   2.716  -0.560  2.3548  0.6386  0.3478
  807MOL0     H 8902   3.357   2.695  -0.732  2.1718 -1.4996 -1.4944
  807MOL0     H 8903   3.517   2.881  -0.796  0.4954 -3.1207  0.4041
  807MOL0     H 8904   3.514   2.934  -0.623 -0.1478  1.5057 -1.1433
  807MOL0     H 8905   3.381   2.799  -0.921 -0.4458  0.0118  2.2342
  807MOL0     H 8906   3.141   2.711  -1.182 -0.0308 -0.6245  0.9313
  807MOL0     H 8907   3.294   2.793  -1.230 -1.9535 -1.0285 -1.2954
  807MOL0     H 8908   3.302   2.682  -1.110  1.3177  0.2161 -2.2832
  807MOL0     H 8909   2.705   2.926  -1.233 -1.3285 -1.9765 -1.3185
  807MOL0     H 8910   2.557   2.928  -1.434 -2.3569  1.8995  5.2477
  807MOL0     H 8911   2.505   3.274  -1.602  0.6379 -0.3723  0.0425
  807MOL0     H 8912   2.564   3.248  -1.762  0.7614  0.7127  1.3358
  807MOL0     H 8913   2.310   3.259  -1.743 -0.9102  0.1435  1.7248
  807MOL0     H 8914   2.380   3.122  -1.826 -0.0850  0.7351 -0.0445
  807MOL0     H 8915   2.221   3.125  -1.566 -0.2855 -0.7102  1.5674
  807MOL0     H 8916   2.352   3.000  -1.579 -0.7699 -0.3436  0.4138
  807MOL0     H 8917   2.266   2.913  -1.785  2.9885  0.9184  1.6583
  807MOL0     H 8918   2.144   2.883  -1.663  2.4445 -1.8090 -1.5677
  807MOL0     H 8919   2.128   3.106  -1.879  1.7012 -0.0324  1.3380
  807MOL0     H 8920   2.024   3.082  -1.732 -2.4730  0.1718 -0.9734
  807MOL0     H 8921   2.077   2.883  -1.962  2.9846  2.3107  1.1027
  807MOL0     H 8922   1.958   2.852  -1.834  1.2737 -0.4994  0.5690
  807MOL0     H 8923   1.918   3.011  -2.081  0.0690 -2.2494 -0.4556
  807MOL0     H 8924   1.848   3.076  -1.930 -1.9748 -1.3713 -0.5511
  807MOL0     H 8925   1.730   2.881  -1.894  2.3091 -0.6519  1.0689
  807MOL0     H 8926   1.811   2.788  -2.017  1.2119  0.4587  0.9639
  807MOL0     H 8927   2.784   3.240  -1.593  2.2495  1.0124  1.3202
  807MOL0     H 8928   2.954   3.223  -1.389  0.1095 -0.2590 -1.1335
  807MOL0     H 8929   3.014   3.133  -0.951  3.5422  2.7793  2.8360
  807MOL0     H 8930   3.133   3.103  -0.755 -0.7473 -0.3983  0.1246
  807MOL0     H 8931   4.593   2.310   0.432  1.6570  0.5910  2.7681
  807MOL0     H 8932   4.661   2.368   0.672  0.9464  2.2887  1.3610
  807MOL0     H 8933   4.683   2.410   1.174  1.4612 -1.0433 -2.1055
  807MOL0     H 8934   4.842   2.486   1.305 -1.7134 -0.1217  0.9533
  807MOL0     H 8935   5.090   2.738   1.432  2.0165 -0.4668 -1.5318
  807MOL0     H 8936   4.941   2.648   1.452  1.3487 -1.0272  3.3858
  807MOL0     H 8937   5.219   2.560   1.390 -0.2584 -1.1183 -0.0675
  807MOL0     H 8938   5.080   2.475   1.309 -2.0134 -0.0808  1.5713
  807MOL0     H 8939   5.128   2.357   1.523  1.5915  1.7000  0.6487
  807MOL0     H 8940   4.969   2.436   1.553 -0.2708  1.8612  3.2368
  807MOL0     H 8941   5.148   2.616   1.651 -2.1073 -0.3134 -1.6203
  807MOL0     H 8942   5.231   2.464   1.676  0.4594  0.4345  0.7225
  807MOL0     H 8943   4.907   2.422   1.941  2.5938 -0.9561  2.4939
  807MOL0     H 8944   4.954   2.774   0.987  0.9043 -2.1038 -0.5797
  807MOL0     H 8945   4.774   2.703   0.866 -1.0359  1.0226  0.2487
  808MOL0     O 8946   0.332   0.580  11.242  0.1388  0.7775  0.4588
  808MOL0     C 8947   0.259   0.597  11.340  0.1701  1.3711  0.2076
  808MOL0     O 8948   0.305   0.660  11.455 -0.1452  0.7137 -0.0811
  808MOL0     C 8949   0.438   0.682  11.467  0.1218 -0.6024 -1.1973
  808MOL0     C 8950   0.528   0.570  11.454  0.4415 -1.0194  0.0364
  808MOL0     C 8951   0.662   0.578  11.489  0.4206  0.6215  1.3416
  808MOL0     C 8952   0.719   0.707  11.501 -0.4958  0.5272 -0.2981
  808MOL0     O 8953   0.846   0.732  11.532 -0.1947  0.2682  0.3377
  808MOL0     C 8954   0.944   0.631  11.522 -1.0703 -0.3443  0.2530
  808MOL0     C 8955   1.090   0.673  11.539  1.5005 -0.4517 -1.0223
  808MOL0     C 8956   1.150   0.765  11.431 -0.0524 -0.0437  0.4437
  808MOL0     C 8957   1.145   0.701  11.292 -1.1341 -0.2354  0.0459
  808MOL0     C 8958   1.246   0.754  11.201  1.0269 -1.0707  0.4574
  808MOL0     C 8959   1.237   0.706  11.055 -0.4385  0.3671  0.3024
  808MOL0     C 8960   1.349   0.603  11.031 -0.2827  0.7255 -0.0827
  808MOL0     C 8961   1.343   0.534  10.892 -0.7514 -0.0802 -0.1961
  808MOL0     N 8962   1.257   0.418  10.889 -1.0999  0.0762  1.2681
  808MOL0     C 8963   1.278   0.294  10.938 -0.8072 -0.0215  0.1039
  808MOL0     C 8964   1.187   0.210  10.873  0.4522 -0.7653 -0.3473
  808MOL0     C 8965   1.156   0.064  10.899  0.2995 -0.3226 -0.3158
  808MOL0     C 8966   1.095   0.002  10.786 -0.4824 -1.0541  0.6448
  808MOL0     C 8967   1.192   0.006  10.665 -0.1807  0.1303  0.3280
  808MOL0     C 8968   1.115  -0.041  10.545  0.5734  0.4168 -0.0725
  808MOL0     O 8969   1.214  -0.035  10.445 -0.5131  0.9848  0.5754
  808MOL0     C 8970   1.173  -0.034  10.307  0.1217  1.0399  0.3110
  808MOL0     C 8971   1.276  -0.024  10.211  0.4297 -0.5846  0.3850
  808MOL0     C 8972   1.254  -0.035  10.075  0.8074  0.2826  0.3075
  808MOL0     C 8973   1.374  -0.022   9.987  0.1341  0.1097 -0.0002
  808MOL0     C 8974   1.123  -0.060  10.032 -0.3236 -0.0309  1.1175
  808MOL0     C 8975   1.082  -0.083   9.887 -1.2007 -0.8237  0.9124
  808MOL0     O 8976   0.950  -0.080   9.862  0.8231  0.7624  0.9536
  808MOL0     C 8977   0.888  -0.134   9.761  0.6191 -0.8401 -0.3981
  808MOL0     C 8978   0.897  -0.267   9.732  0.4751  0.8181 -0.3019
  808MOL0     C 8979   0.811  -0.327   9.631  0.9713  0.5641 -1.4867
  808MOL0     C 8980   0.710  -0.248   9.572  0.4532 -1.0008 -0.2672
  808MOL0     O 8981   0.622  -0.288   9.476 -0.1041 -0.0914 -0.1806
  808MOL0     C 8982   0.638  -0.415   9.409 -1.2635  0.2035  0.1058
  808MOL0     C 8983   0.527  -0.500   9.461  0.7210  0.6370 -0.5752
  808MOL0     C 8984   0.569  -0.563   9.592 -0.4996  0.3102 -0.1392
  808MOL0     C 8985   0.493  -0.688   9.634  0.3272  0.5228 -0.2124
  808MOL0     C 8986   0.540  -0.727   9.771 -0.2133  0.9764 -0.3859
  808MOL0     C 8987   0.687  -0.783   9.773 -0.0017 -0.1424 -1.0101
  808MOL0     C 8988   0.711  -0.882   9.885  0.5644  0.5935 -0.5191
  808MOL0     C 8989   0.859  -0.882   9.933 -0.8053  0.3063 -0.9346
  808MOL0    Cl 8990   0.976  -0.896   9.800 -0.1187  0.6509 -0.1307
  808MOL0     C 8991   0.718  -0.101   9.591  0.1263  0.5796 -0.9863
  808MOL0     C 8992   0.807  -0.050   9.685 -0.1291  0.2524 -0.9237
  808MOL0     O 8993   1.164  -0.123   9.803  0.6261  0.2996  0.0949
  808MOL0     C 8994   1.020  -0.071  10.125  0.3349 -0.0346 -0.9085
  808MOL0     C 8995   1.045  -0.062  10.263 -0.8007  0.2647 -0.2240
  808MOL0     N 8996   1.107   0.293  10.792 -0.3641  1.0005 -0.3533
  808MOL0     N 8997   1.148   0.419  10.810  0.1947  0.7382  0.0937
  808MOL0     C 8998   0.633   0.823  11.512  0.1412  0.6945  0.1183
  808MOL0     C 8999   0.490   0.808  11.496  0.0426 -0.6891  0.7523
  808MOL0     C 9000   0.108   0.589  11.322 -0.6029 -0.8800 -0.3876
  808MOL0     C 9001   0.050   0.565  11.196 -0.0606 -0.1329 -0.4075
  808MOL0     C 9002  -0.089   0.552  11.188 -0.0145  0.1016  0.0731
  808MOL0     C 9003  -0.179   0.578  11.296 -0.5451 -0.5447 -0.2465
  808MOL0     O 9004  -0.317   0.560  11.293 -0.7707 -0.1221  0.2265
  808MOL0     C 9005  -0.377   0.508  11.179  0.1201 -1.0489  0.2546
  808MOL0     C 9006  -0.527   0.492  11.190 -0.7213  0.3022 -0.1177
  808MOL0     C 9007  -0.578   0.407  11.070 -0.3415 -1.2760 -0.0249
  808MOL0     C 9008  -0.736   0.414  11.056  0.0277 -0.3234 -0.6248
  808MOL0     C 9009  -0.784   0.548  11.028 -0.8150 -0.1374 -0.0359
  808MOL0     C 9010  -0.820   0.657  11.002 -0.8095  0.2903  0.3092
  808MOL0     C 9011  -0.116   0.622  11.409  0.1036 -0.0301  0.7197
  808MOL0     C 9012   0.027   0.627  11.428  0.5571  0.5226 -0.2859
  808MOL0     H 9013   0.482   0.475  11.427 -3.6963  0.8062 -0.2348
  808MOL0     H 9014   0.724   0.489  11.489 -0.2904  0.1069  2.2843
  808MOL0     H 9015   0.922   0.564  11.605  0.1445  1.7187  2.3870
  808MOL0     H 9016   0.929   0.575  11.430 -1.9990 -0.8431  0.7019
  808MOL0     H 9017   1.094   0.734  11.630  2.8515  0.0104 -1.3727
  808MOL0     H 9018   1.158   0.591  11.565  0.1890 -1.1795  0.2515
  808MOL0     H 9019   1.089   0.856  11.424 -1.2605 -0.9610 -4.2139
  808MOL0     H 9020   1.251   0.800  11.452 -1.3339  2.9912  2.3567
  808MOL0     H 9021   1.178   0.599  11.315  0.8015  1.0145  3.4824
  808MOL0     H 9022   1.049   0.703  11.239 -0.5735 -0.6256 -1.0341
  808MOL0     H 9023   1.215   0.856  11.222 -2.7810 -2.3646  1.9523
  808MOL0     H 9024   1.345   0.736  11.243  2.0863  0.1959 -1.3475
  808MOL0     H 9025   1.139   0.666  11.026  0.0269 -0.2670 -0.4579
  808MOL0     H 9026   1.254   0.797  10.996 -1.5551 -0.4366 -1.3462
  808MOL0     H 9027   1.450   0.642  11.048  0.4727 -1.5235  0.9565
  808MOL0     H 9028   1.342   0.531  11.113 -1.3323  3.7927  2.7177
  808MOL0     H 9029   1.445   0.501  10.869 -1.1213 -0.8100 -0.8229
  808MOL0     H 9030   1.311   0.611  10.821 -2.4724 -0.1665  0.4498
  808MOL0     H 9031   1.369   0.265  10.991  0.5171 -0.8790 -2.4824
  808MOL0     H 9032   1.251   0.015  10.925 -0.1917 -0.3064  1.6899
  808MOL0     H 9033   1.111   0.067  10.998  0.1490  1.5712 -0.4062
  808MOL0     H 9034   1.002   0.058  10.776  1.8672  3.5380  1.2778
  808MOL0     H 9035   1.068  -0.103  10.800 -2.2903 -0.7838 -0.4709
  808MOL0     H 9036   1.283  -0.052  10.683 -0.3037 -0.2892 -0.3728
  808MOL0     H 9037   1.230   0.106  10.643  0.2270  0.1021  0.8733
  808MOL0     H 9038   1.039   0.038  10.537  2.6319  2.8124  2.1331
  808MOL0     H 9039   1.073  -0.138  10.573  1.4696  0.3272  1.0636
  808MOL0     H 9040   1.375  -0.002  10.251 -0.3003 -0.2391  2.0649
  808MOL0     H 9041   1.450   0.028  10.048 -2.2439 -0.0977  3.4570
  808MOL0     H 9042   1.405  -0.123   9.957 -2.9650 -1.3593  1.2554
  808MOL0     H 9043   1.342   0.046   9.908 -2.7889 -0.7262  0.3252
  808MOL0     H 9044   0.959  -0.329   9.796  1.3039  0.6148 -1.2811
  808MOL0     H 9045   0.824  -0.432   9.606  3.7149  0.2949  0.6419
  808MOL0     H 9046   0.635  -0.399   9.301  1.9941  0.5556 -0.0291
  808MOL0     H 9047   0.730  -0.469   9.429 -1.8410 -1.1697 -0.8016
  808MOL0     H 9048   0.429  -0.452   9.471 -1.5052 -3.3538 -1.2429
  808MOL0     H 9049   0.507  -0.568   9.378  1.7035 -1.8160  1.0825
  808MOL0     H 9050   0.552  -0.480   9.662 -3.7012  1.1869 -1.7954
  808MOL0     H 9051   0.675  -0.589   9.588 -0.7435 -0.5168 -3.2431
  808MOL0     H 9052   0.384  -0.681   9.630  0.0671 -1.9308  0.7598
  808MOL0     H 9053   0.513  -0.765   9.560  1.0460  1.5481 -1.1249
  808MOL0     H 9054   0.480  -0.816   9.792  0.3598  1.1042  2.0437
  808MOL0     H 9055   0.513  -0.650   9.844 -2.1794 -1.3592  1.4846
  808MOL0     H 9056   0.716  -0.832   9.679  1.6539 -1.2595  0.0245
  808MOL0     H 9057   0.758  -0.700   9.779  2.1621 -1.8051 -1.8565
  808MOL0     H 9058   0.686  -0.981   9.844 -0.6995  1.2309 -1.3468
  808MOL0     H 9059   0.642  -0.855   9.965 -2.3796 -0.0566 -2.6907
  808MOL0     H 9060   0.871  -0.967  10.000 -0.9399  1.1005  0.1328
  808MOL0     H 9061   0.886  -0.800  10.001  3.0876 -1.5865  0.0665
  808MOL0     H 9062   0.640  -0.040   9.547  0.0288 -0.7212 -2.7108
  808MOL0     H 9063   0.811   0.055   9.711  2.4670  0.4002 -1.6709
  808MOL0     H 9064   0.920  -0.105  10.103 -0.6002  0.5080  2.1263
  808MOL0     H 9065   0.961  -0.090  10.327  0.1145 -0.8170  0.5485
  808MOL0     H 9066   0.676   0.920  11.535  0.3965  0.9526 -1.3588
  808MOL0     H 9067   0.427   0.897  11.499 -0.6180 -1.1757  1.8363
  808MOL0     H 9068   0.109   0.513  11.120 -2.1606 -3.4111 -0.0015
  808MOL0     H 9069  -0.119   0.504  11.096 -0.0854  0.9349 -0.3498
  808MOL0     H 9070  -0.363   0.570  11.090 -0.6633  2.7638  2.5722
  808MOL0     H 9071  -0.347   0.403  11.168 -0.9954 -1.5074  1.3243
  808MOL0     H 9072  -0.567   0.594  11.191 -1.0122  0.2027  1.4787
  808MOL0     H 9073  -0.547   0.445  11.287  0.6922 -1.2517 -0.5376
  808MOL0     H 9074  -0.542   0.304  11.083  1.5632 -0.6588 -0.1327
  808MOL0     H 9075  -0.530   0.450  10.982  2.3099 -2.0120  0.9556
  808MOL0     H 9076  -0.780   0.378  11.149  3.2815  0.1016  1.2472
  808MOL0     H 9077  -0.760   0.341  10.978  3.7409 -3.1367  0.5847
  808MOL0     H 9078  -0.865   0.752  10.984 -0.8043  0.0639 -1.0343
  808MOL0     H 9079  -0.174   0.655  11.494 -0.9781  0.6934 -0.2674
  808MOL0     H 9080   0.071   0.656  11.523  0.3208 -0.6156  0.1901
  809MOL0     O 9081   6.036   0.934   8.710 -0.1783 -0.1258 -0.0706
  809MOL0     C 9082   6.051   0.809   8.703 -0.6078 -0.8319  0.2301
  809MOL0     O 9083   6.148   0.739   8.768  0.6129 -0.0411  0.0356
  809MOL0     C 9084   6.247   0.815   8.823  0.1073  0.0384 -0.3110
  809MOL0     C 9085   6.231   0.888   8.948  0.0633 -0.8483 -0.6942
  809MOL0     C 9086   6.323   0.973   9.010 -0.1606 -1.7914  0.0969
  809MOL0     C 9087   6.450   0.993   8.948  0.3003 -0.2746  0.7020
  809MOL0     O 9088   6.542   1.058   9.021 -0.1330  0.4471 -0.1419
  809MOL0     C 9089   6.504   1.193   9.056 -0.2053 -0.6977 -0.2111
  809MOL0     C 9090   6.644   1.256   9.089 -0.4852 -1.0982 -0.0362
  809MOL0     C 9091   6.726   1.274   8.961  0.1833  0.4768 -0.5196
  809MOL0     C 9092   6.792   1.409   8.965  0.3057 -0.9384  0.1445
  809MOL0     C 9093   6.918   1.419   9.055  1.1678  0.2167 -1.0908
  809MOL0     C 9094   6.913   1.530   9.163  0.8265  0.2420  1.2316
  809MOL0     C 9095   7.055   1.551   9.222 -0.0076  0.0479  0.0489
  809MOL0     C 9096   7.103   1.431   9.313 -0.2395  0.5352 -1.0348
  809MOL0     N 9097   7.020   1.405   9.430 -0.3665  0.1467  0.2327
  809MOL0     C 9098   7.015   1.490   9.536  0.1473 -0.0992 -0.3639
  809MOL0     C 9099   6.918   1.440   9.610 -0.8444 -0.0774  0.5395
  809MOL0     C 9100   6.861   1.507   9.739 -0.3140  0.5755 -0.2957
  809MOL0     C 9101   6.960   1.513   9.853 -0.2523 -0.7060 -0.0404
  809MOL0     C 9102   7.043   1.392   9.870  0.4470  0.9426 -1.0559
  809MOL0     C 9103   7.097   1.372  10.015  0.4282 -0.3651  0.0497
  809MOL0     O 9104   7.196   1.470  10.038  0.0035 -0.5381 -0.2362
  809MOL0     C 9105   7.160   1.589  10.110  0.6972  0.5543  1.1691
  809MOL0     C 9106   7.076   1.581  10.219 -0.4817 -1.0750 -0.7424
  809MOL0     C 9107   7.053   1.698  10.293  0.6627  0.2412  0.1502
  809MOL0     C 9108   6.952   1.697  10.400  0.5556 -0.1140  0.6456
  809MOL0     C 9109   7.133   1.811  10.271 -0.0306 -0.2639  0.2638
  809MOL0     C 9110   7.143   1.925  10.366  0.1346  0.0241  0.3830
  809MOL0     O 9111   7.119   1.900  10.502  0.5223  0.0095 -0.2355
  809MOL0     C 9112   7.126   2.017  10.575 -0.5226  0.3588 -0.0354
  809MOL0     C 9113   7.248   2.073  10.617  0.0552  0.5647 -0.7780
  809MOL0     C 9114   7.244   2.167  10.716  0.7106 -0.5343 -0.2141
  809MOL0     C 9115   7.123   2.228  10.759  0.8237 -0.0416 -1.0962
  809MOL0     O 9116   7.139   2.332  10.857  0.4849 -0.7366 -0.4174
  809MOL0     C 9117   7.020   2.367  10.935 -0.4099  0.2898 -1.4921
  809MOL0     C 9118   7.031   2.497  11.022 -0.0644  0.0226  0.0991
  809MOL0     C 9119   6.910   2.501  11.119 -0.0497  0.0142 -0.2289
  809MOL0     C 9120   6.891   2.641  11.169  0.4119  0.5448  0.0801
  809MOL0     C 9121   6.761   2.655  11.264 -0.5072  0.2859  0.2421
  809MOL0     C 9122   6.769   2.784  11.348 -0.1232 -0.4402  0.3539
  809MOL0     C 9123   6.656   2.800  11.453 -0.3127  1.1608  0.1412
  809MOL0     C 9124   6.545   2.886  11.398  0.9532  0.4856 -0.3680
  809MOL0    Cl 9125   6.409   2.879  11.510  0.2352  0.1578  0.1374
  809MOL0     C 9126   7.002   2.179  10.706  0.4736 -0.3943  0.0403
  809MOL0     C 9127   7.007   2.074  10.611  0.5516 -1.4611 -0.0081
  809MOL0     O 9128   7.196   2.033  10.326 -0.1004 -0.2854 -0.8903
  809MOL0     C 9129   7.216   1.820  10.151  0.3822  0.4719  0.6339
  809MOL0     C 9130   7.223   1.705  10.072  0.8472  1.0261  0.8726
  809MOL0     N 9131   6.875   1.326   9.542  0.7054 -0.1820  0.1986
  809MOL0     N 9132   6.935   1.300   9.438 -0.4062  0.2830  0.1784
  809MOL0     C 9133   6.481   0.928   8.823 -0.1869  0.0475 -0.2235
  809MOL0     C 9134   6.378   0.852   8.767  0.4745  1.6600 -0.2559
  809MOL0     C 9135   5.951   0.736   8.624  0.1041  0.1022  0.0745
  809MOL0     C 9136   5.966   0.596   8.595  1.1296  0.7391  0.6328
  809MOL0     C 9137   5.871   0.519   8.525 -0.1256  0.3987 -0.5365
  809MOL0     C 9138   5.748   0.579   8.484  0.0514  1.4319  0.6852
  809MOL0     O 9139   5.654   0.503   8.414  0.5268 -0.5119 -0.3274
  809MOL0     C 9140   5.620   0.545   8.284  0.8413 -0.1816  0.1985
  809MOL0     C 9141   5.737   0.508   8.194  0.0295  0.4844 -0.0960
  809MOL0     C 9142   5.853   0.615   8.186  0.2590  0.3108  0.0353
  809MOL0     C 9143   5.822   0.764   8.133 -0.6914 -0.2861  0.1093
  809MOL0     C 9144   5.897   0.863   8.216  0.7007  1.1675 -0.2038
  809MOL0     C 9145   5.978   0.946   8.258  1.1370 -0.6233  0.2544
  809MOL0     C 9146   5.735   0.716   8.521 -0.1057 -0.2497  0.5330
  809MOL0     C 9147   5.834   0.796   8.577  0.2675  0.6706  0.7305
  809MOL0     H 9148   6.136   0.871   8.998 -0.7150 -3.5910 -2.8509
  809MOL0     H 9149   6.315   1.006   9.113  1.6848  0.9682 -0.5355
  809MOL0     H 9150   6.460   1.241   8.968 -0.7546 -3.4194 -1.5417
  809MOL0     H 9151   6.441   1.215   9.142  1.2974  1.7086  0.3713
  809MOL0     H 9152   6.623   1.355   9.131 -1.4456 -2.2510  2.3652
  809MOL0     H 9153   6.710   1.211   9.163  3.4862  1.3218 -1.7692
  809MOL0     H 9154   6.801   1.195   8.950 -0.9883 -0.6267 -0.8559
  809MOL0     H 9155   6.669   1.275   8.868  0.4098  0.3226 -0.6595
  809MOL0     H 9156   6.827   1.426   8.863  2.3706 -0.9593  0.7940
  809MOL0     H 9157   6.721   1.489   8.990  0.2496 -0.3381 -1.8187
  809MOL0     H 9158   6.929   1.318   9.096 -1.6058  0.5948  0.9169
  809MOL0     H 9159   6.998   1.449   8.987  1.1471 -0.5086 -1.4401
  809MOL0     H 9160   6.882   1.623   9.113  0.8981 -0.1342  0.4678
  809MOL0     H 9161   6.842   1.509   9.243 -0.9246  1.7994  0.1972
  809MOL0     H 9162   7.125   1.565   9.139  2.1056 -1.1912  1.5326
  809MOL0     H 9163   7.057   1.640   9.286  0.4187  2.1372 -2.6844
  809MOL0     H 9164   7.203   1.459   9.349 -0.2800  2.2581 -2.1340
  809MOL0     H 9165   7.107   1.338   9.256 -0.4006  0.2110 -0.5228
  809MOL0     H 9166   7.082   1.572   9.558  0.8809 -1.4554  3.2051
  809MOL0     H 9167   6.809   1.600   9.718 -0.9672 -0.3144 -3.1319
  809MOL0     H 9168   6.779   1.437   9.760  0.0363 -0.5683 -2.4076
  809MOL0     H 9169   6.900   1.524   9.944 -0.3255  0.9085 -0.2532
  809MOL0     H 9170   7.022   1.603   9.842 -1.2448  0.0930  0.7308
  809MOL0     H 9171   7.133   1.403   9.809  1.4700  3.1798  0.7137
  809MOL0     H 9172   6.982   1.305   9.843  1.6496  0.1265 -1.2446
  809MOL0     H 9173   7.139   1.271  10.014 -1.3632 -1.1456 -0.7062
  809MOL0     H 9174   7.005   1.381  10.072 -0.8548  0.9784 -2.0929
  809MOL0     H 9175   7.042   1.482  10.247  0.1128 -1.3622 -0.9930
  809MOL0     H 9176   7.004   1.652  10.486  2.2366  4.0676  2.0820
  809MOL0     H 9177   6.893   1.783  10.432 -0.5816  1.3115 -4.4221
  809MOL0     H 9178   6.873   1.626  10.372  0.8800 -0.4521  0.5749
  809MOL0     H 9179   7.346   2.031  10.596  0.0482 -0.9324  1.7428
  809MOL0     H 9180   7.338   2.213  10.744  0.0340 -0.5710  2.3627
  809MOL0     H 9181   6.931   2.386  10.873 -1.2300 -0.7846 -0.6915
  809MOL0     H 9182   6.985   2.287  11.001  0.9609 -0.2803 -1.4379
  809MOL0     H 9183   7.119   2.493  11.087 -1.0543 -2.9959  1.4322
  809MOL0     H 9184   7.033   2.575  10.945  4.9573 -0.6841 -0.8650
  809MOL0     H 9185   6.934   2.441  11.208  2.7860 -0.2420 -1.0631
  809MOL0     H 9186   6.827   2.448  11.073  1.1112 -2.4039  0.2779
  809MOL0     H 9187   6.984   2.655  11.224 -0.3252  1.1776  1.2164
  809MOL0     H 9188   6.884   2.704  11.080 -0.5271  0.9920  0.4580
  809MOL0     H 9189   6.754   2.566  11.328 -3.0108 -3.9368 -5.0509
  809MOL0     H 9190   6.680   2.651  11.191  0.4538 -1.2488 -0.8117
  809MOL0     H 9191   6.864   2.786  11.401 -1.5125  0.0451  2.9643
  809MOL0     H 9192   6.750   2.870  11.282 -5.7856 -0.2361  1.7377
  809MOL0     H 9193   6.698   2.850  11.540  0.4225 -0.1907  0.5953
  809MOL0     H 9194   6.617   2.701  11.478  1.5830  0.0952 -0.9168
  809MOL0     H 9195   6.523   2.872  11.291 -1.0868  2.4461 -0.2955
  809MOL0     H 9196   6.596   2.982  11.408  1.8334 -0.1370  1.4332
  809MOL0     H 9197   6.900   2.210  10.727  0.1777 -0.2292 -1.5098
  809MOL0     H 9198   6.913   2.040  10.569 -0.1843  1.6984 -1.2428
  809MOL0     H 9199   7.279   1.896  10.105 -0.8259  0.8741 -0.4386
  809MOL0     H 9200   7.295   1.693   9.992  2.2339  0.9893  2.0835
  809MOL0     H 9201   6.579   0.951   8.781  0.9635  0.0131  2.2465
  809MOL0     H 9202   6.405   0.810   8.671  2.8543 -1.8238  1.7207
  809MOL0     H 9203   6.049   0.530   8.618 -0.4319 -1.3528  0.6125
  809MOL0     H 9204   5.880   0.413   8.504  1.9684  0.3817  0.2769
  809MOL0     H 9205   5.530   0.494   8.248 -0.5897  1.8689  0.6635
  809MOL0     H 9206   5.601   0.651   8.265  0.4819  0.1543  2.2091
  809MOL0     H 9207   5.702   0.481   8.094  3.6789 -1.7380 -0.9909
  809MOL0     H 9208   5.783   0.419   8.239  1.8356  1.3589 -0.1115
  809MOL0     H 9209   5.928   0.571   8.120 -0.3999 -0.8704  0.0425
  809MOL0     H 9210   5.902   0.630   8.283 -1.0115 -0.1642  0.7767
  809MOL0     H 9211   5.715   0.783   8.121 -0.5050 -0.1415 -1.5548
  809MOL0     H 9212   5.853   0.768   8.028 -1.0517 -1.3350 -0.0451
  809MOL0     H 9213   6.053   1.004   8.307  2.5512 -2.0216 -0.1542
  809MOL0     H 9214   5.645   0.768   8.491 -0.3860 -0.1538  1.5113
  809MOL0     H 9215   5.812   0.900   8.595 -0.3599  0.5255  0.8091
  810MOL0     O 9216   5.049   2.237   9.500  0.5508 -0.0746  0.6582
  810MOL0     C 9217   5.018   2.120   9.477  0.0699 -0.1819  0.2095
  810MOL0     O 9218   5.044   2.013   9.551 -0.0577 -0.3011 -0.2939
  810MOL0     C 9219   5.124   2.025   9.668  0.0107  0.1377  0.9872
  810MOL0     C 9220   5.092   1.945   9.783  0.9688 -0.0652  0.6589
  810MOL0     C 9221   5.167   1.951   9.892  0.4676 -0.4106 -0.1668
  810MOL0     C 9222   5.275   2.042   9.893 -0.4151 -0.6212  0.2981
  810MOL0     O 9223   5.348   2.076  10.004 -0.6231 -0.1177  0.1473
  810MOL0     C 9224   5.313   2.002  10.128 -0.4824 -0.0035  1.4549
  810MOL0     C 9225   5.374   2.064  10.249 -0.0223  0.4625 -0.1918
  810MOL0     C 9226   5.530   2.034  10.255 -0.0527 -0.4733 -0.4026
  810MOL0     C 9227   5.579   2.138  10.358 -0.3123  0.8011 -0.4800
  810MOL0     C 9228   5.731   2.127  10.383 -0.9085  0.4860  0.3921
  810MOL0     C 9229   5.814   2.090  10.269  0.6787 -0.3054  0.3268
  810MOL0     C 9230   5.965   2.115  10.311  1.0441 -0.2808  0.7883
  810MOL0     C 9231   6.050   1.997  10.349 -0.4876 -0.3405  0.7023
  810MOL0     N 9232   5.989   1.926  10.463 -0.0688  0.1576 -0.9650
  810MOL0     C 9233   5.964   1.968  10.594 -0.6159 -1.1014 -0.0136
  810MOL0     C 9234   5.899   1.861  10.644  0.1248  0.4406 -0.2755
  810MOL0     C 9235   5.875   1.851  10.796 -0.8428 -0.5394  0.1348
  810MOL0     C 9236   5.813   1.729  10.844 -0.5656  0.2570  0.3370
  810MOL0     C 9237   5.785   1.735  10.989 -0.8425 -0.2656 -0.0669
  810MOL0     C 9238   5.731   1.594  11.036 -0.1325 -0.0603  0.1683
  810MOL0     O 9239   5.752   1.604  11.176 -0.0260 -0.3126 -0.4048
  810MOL0     C 9240   5.702   1.484  11.237  0.9424 -0.1354 -0.9792
  810MOL0     C 9241   5.700   1.357  11.181 -0.8404 -0.4751  0.5203
  810MOL0     C 9242   5.625   1.256  11.243  0.8020  1.2213 -0.7512
  810MOL0     C 9243   5.639   1.113  11.187  0.1273  0.5398  0.2274
  810MOL0     C 9244   5.529   1.280  11.349 -0.1692  0.7254 -0.7826
  810MOL0     C 9245   5.435   1.182  11.422 -0.3818  0.1324 -0.4463
  810MOL0     O 9246   5.394   1.221  11.543  0.4046 -0.1906 -0.5628
  810MOL0     C 9247   5.326   1.131  11.624 -1.0072 -0.5824  1.2842
  810MOL0     C 9248   5.190   1.155  11.664 -0.3149  0.0317 -0.3316
  810MOL0     C 9249   5.130   1.092  11.773  0.4922  0.5400  1.5961
  810MOL0     C 9250   5.204   0.992  11.833 -0.1122 -0.0768 -1.2308
  810MOL0     O 9251   5.163   0.914  11.942 -0.4111 -0.4119  0.3354
  810MOL0     C 9252   5.031   0.942  11.999 -0.8289  0.3265 -0.0742
  810MOL0     C 9253   4.940   0.834  11.952 -0.5767 -0.4785 -0.7796
  810MOL0     C 9254   4.818   0.798  12.041  0.0315  0.5888  0.3120
  810MOL0     C 9255   4.828   0.760  12.190  0.9395  0.8126 -0.1806
  810MOL0     C 9256   4.692   0.721  12.257  0.4405 -0.6423 -0.0812
  810MOL0     C 9257   4.637   0.575  12.237 -0.0298  0.3995  0.9666
  810MOL0     C 9258   4.565   0.552  12.097  0.2541 -0.3191  0.0693
  810MOL0     C 9259   4.497   0.410  12.088  0.3983 -0.1289  0.3000
  810MOL0    Cl 9260   4.636   0.294  12.073 -0.0080 -0.4372  0.2351
  810MOL0     C 9261   5.334   0.966  11.791 -0.5710 -1.0156 -0.1678
  810MOL0     C 9262   5.400   1.043  11.696  0.3625  0.3091 -0.6849
  810MOL0     O 9263   5.414   1.071  11.372  0.4052  0.4538  0.1032
  810MOL0     C 9264   5.551   1.406  11.404 -0.2447 -0.6997 -0.5036
  810MOL0     C 9265   5.624   1.512  11.351 -0.6429  0.4267  1.1185
  810MOL0     N 9266   5.885   1.761  10.553  0.1892  0.1009  0.4603
  810MOL0     N 9267   5.956   1.797  10.448  0.0640 -0.7817  0.0095
  810MOL0     C 9268   5.302   2.123   9.786  0.2499  1.1525 -0.6852
  810MOL0     C 9269   5.229   2.114   9.661  0.0120  0.5011 -0.2029
  810MOL0     C 9270   4.938   2.097   9.354  0.2826  1.0207  0.1444
  810MOL0     C 9271   4.917   1.963   9.293  0.3041 -0.0744  0.2646
  810MOL0     C 9272   4.839   1.950   9.176 -0.0854  0.2543 -0.1988
  810MOL0     C 9273   4.769   2.058   9.126 -0.3044 -0.0235 -0.3531
  810MOL0     O 9274   4.692   2.048   9.015  0.3177 -0.1128  0.5959
  810MOL0     C 9275   4.667   1.917   8.962  0.0230  0.1955 -0.3499
  810MOL0     C 9276   4.546   1.897   8.876 -0.1326  0.4167 -0.2018
  810MOL0     C 9277   4.527   1.987   8.749  0.0389 -0.1854  0.5582
  810MOL0     C 9278   4.397   1.956   8.669 -0.2872 -0.0542  0.1494
  810MOL0     C 9279   4.343   2.082   8.606 -0.2930 -0.0297 -0.0179
  810MOL0     C 9280   4.295   2.180   8.559 -0.4553 -0.4104 -0.8797
  810MOL0     C 9281   4.781   2.176   9.185  0.0190  0.3879 -0.1670
  810MOL0     C 9282   4.868   2.202   9.294  0.2312 -0.1378  1.1842
  810MOL0     H 9283   5.004   1.882   9.792 -1.7421  3.4663  0.9407
  810MOL0     H 9284   5.142   1.897   9.983  1.0884  1.3367  1.0996
  810MOL0     H 9285   5.205   2.013  10.140 -0.9436 -2.4045 -0.0832
  810MOL0     H 9286   5.337   1.896  10.117 -0.3092  0.1216  0.6013
  810MOL0     H 9287   5.350   2.171  10.253 -3.5080 -0.1850 -0.5522
  810MOL0     H 9288   5.330   2.030  10.343  0.7273  1.8885  0.7099
  810MOL0     H 9289   5.546   1.933  10.295 -1.8986 -0.2957  0.9134
  810MOL0     H 9290   5.569   2.040  10.153  1.3628  0.3884  0.1698
  810MOL0     H 9291   5.562   2.235  10.310 -2.1660  0.3672 -0.7650
  810MOL0     H 9292   5.531   2.129  10.456  0.8442 -0.2415  0.0054
  810MOL0     H 9293   5.770   2.214  10.436 -0.8016 -0.7362  2.4134
  810MOL0     H 9294   5.750   2.047  10.455  0.2553 -0.2167 -0.6605
  810MOL0     H 9295   5.801   1.984  10.245  3.0243 -0.1096 -2.2575
  810MOL0     H 9296   5.787   2.160  10.189  2.4760  2.4233  1.9260
  810MOL0     H 9297   6.019   2.169  10.233 -0.5617  0.8481  0.4074
  810MOL0     H 9298   5.968   2.183  10.397 -0.8203  1.4323 -0.4131
  810MOL0     H 9299   6.155   2.024  10.362  0.9035 -1.6718 -4.9485
  810MOL0     H 9300   6.068   1.922  10.272 -0.8653 -1.3183  1.5420
  810MOL0     H 9301   5.986   2.068  10.632 -1.9156  0.4758 -3.0989
  810MOL0     H 9302   5.969   1.872  10.848  0.8356 -1.9347 -2.1070
  810MOL0     H 9303   5.803   1.930  10.820 -1.2462 -0.2846 -1.7160
  810MOL0     H 9304   5.886   1.647  10.843 -0.8555  0.0037 -0.3107
  810MOL0     H 9305   5.731   1.706  10.775  1.4643 -2.5422 -1.3195
  810MOL0     H 9306   5.705   1.808  11.003 -2.3798 -1.8540 -0.2666
  810MOL0     H 9307   5.868   1.773  11.048 -1.3792  0.2750  0.3534
  810MOL0     H 9308   5.783   1.507  10.994 -1.1165 -1.8921  2.5334
  810MOL0     H 9309   5.624   1.593  11.015  0.3987  3.4606 -4.2947
  810MOL0     H 9310   5.769   1.330  11.102 -0.1154 -0.1195  1.0337
  810MOL0     H 9311   5.545   1.070  11.153  0.7329  1.1517 -2.4551
  810MOL0     H 9312   5.715   1.102  11.108 -1.4388 -2.6885 -1.0178
  810MOL0     H 9313   5.671   1.060  11.277  1.5658  0.1387 -0.4773
  810MOL0     H 9314   5.140   1.238  11.616  0.7312  0.9402  0.1243
  810MOL0     H 9315   5.021   1.094  11.779 -0.1288 -0.4356 -3.9223
  810MOL0     H 9316   5.042   0.931  12.107  0.9172  1.9317 -0.0356
  810MOL0     H 9317   5.003   1.047  11.985  1.9090  1.4378  1.8871
  810MOL0     H 9318   4.912   0.852  11.848  0.0067 -1.7395 -1.1773
  810MOL0     H 9319   5.009   0.749  11.956  0.3572  0.3216  1.2340
  810MOL0     H 9320   4.755   0.716  12.005  0.3728 -0.5953  2.2424
  810MOL0     H 9321   4.751   0.884  12.033 -1.0055 -0.0116  2.0860
  810MOL0     H 9322   4.882   0.665  12.193 -0.3380  0.0874  1.7096
  810MOL0     H 9323   4.889   0.829  12.247  2.0964  1.7724 -2.4770
  810MOL0     H 9324   4.634   0.809  12.228  2.1832  0.6257  0.1077
  810MOL0     H 9325   4.710   0.730  12.365  0.8442  2.3169 -0.3280
  810MOL0     H 9326   4.712   0.498  12.259  2.2670  1.5356 -2.1746
  810MOL0     H 9327   4.557   0.564  12.311 -2.4214 -0.8666 -1.6617
  810MOL0     H 9328   4.632   0.540  12.012 -1.2802 -3.2897 -0.8903
  810MOL0     H 9329   4.503   0.638  12.071 -0.1124 -0.0112  1.8556
  810MOL0     H 9330   4.434   0.399  11.999 -2.5245  1.4000  2.0237
  810MOL0     H 9331   4.442   0.396  12.182  0.8988 -1.4615  0.4208
  810MOL0     H 9332   5.384   0.878  11.831 -1.1425 -0.8918  0.8546
  810MOL0     H 9333   5.502   1.024  11.666  0.5588 -2.0352  1.1463
  810MOL0     H 9334   5.495   1.431  11.493  1.3149  0.1465  0.2770
  810MOL0     H 9335   5.621   1.612  11.393  1.3660  1.5373 -1.1616
  810MOL0     H 9336   5.388   2.186   9.803  1.2324  0.4538 -2.8128
  810MOL0     H 9337   5.257   2.158   9.566  1.1840 -0.3919 -0.2955
  810MOL0     H 9338   4.961   1.867   9.320  1.3769 -0.8854 -3.7569
  810MOL0     H 9339   4.846   1.849   9.137  1.1959  0.4554 -0.5144
  810MOL0     H 9340   4.754   1.876   8.910 -0.9267  0.2191 -2.0265
  810MOL0     H 9341   4.638   1.855   9.047 -3.7284  1.0742 -0.8107
  810MOL0     H 9342   4.465   1.912   8.948 -0.1016 -0.2484 -0.0282
  810MOL0     H 9343   4.534   1.792   8.848 -0.3314  0.5184 -0.5089
  810MOL0     H 9344   4.609   1.973   8.678 -0.6242  1.4306 -0.5877
  810MOL0     H 9345   4.525   2.092   8.780  1.9076 -0.1124  0.5299
  810MOL0     H 9346   4.317   1.915   8.732 -0.0220  1.4921  1.5926
  810MOL0     H 9347   4.413   1.881   8.592 -2.0548 -0.5669  0.2530
  810MOL0     H 9348   4.265   2.272   8.514  2.3808  0.4461 -1.2218
  810MOL0     H 9349   4.716   2.254   9.147  0.2715 -0.6542 -3.0110
  810MOL0     H 9350   4.878   2.309   9.314 -1.4137  0.0233  1.2130
  811MOL0     O 9351   8.246  11.213   9.675 -0.1671 -0.0523  0.4329
  811MOL0     C 9352   8.277  11.330   9.654  1.2374 -0.2267 -0.5571
  811MOL0     O 9353   8.395  11.383   9.690 -0.3256 -0.4755  0.6472
  811MOL0     C 9354   8.435  11.336   9.815 -0.8064  0.6318 -0.1404
  811MOL0     C 9355   8.495  11.201   9.824  0.0736  0.1456 -0.4037
  811MOL0     C 9356   8.523  11.148   9.943 -0.0243 -0.5338  0.6656
  811MOL0     C 9357   8.499  11.219  10.058 -0.2936 -0.0910  0.4410
  811MOL0     O 9358   8.538  11.185  10.188 -0.1499 -0.5364 -0.1294
  811MOL0     C 9359   8.568  11.049  10.207 -0.5924 -0.8363 -0.3732
  811MOL0     C 9360   8.595  11.017  10.349  0.4619  0.4994 -0.1760
  811MOL0     C 9361   8.518  11.101  10.445 -0.3634  0.2337 -0.2441
  811MOL0     C 9362   8.526  11.045  10.587 -0.4102 -0.2645  0.7703
  811MOL0     C 9363   8.436  10.920  10.604 -0.6678  0.2697 -0.1280
  811MOL0     C 9364   8.453  10.831  10.734 -0.2738 -0.5683 -0.3651
  811MOL0     C 9365   8.593  10.813  10.765  0.5727  0.1257 -0.1372
  811MOL0     C 9366   8.644  10.907  10.873 -0.2026 -0.4287  0.1719
  811MOL0     N 9367   8.788  10.900  10.873  0.2046  0.9852 -0.5874
  811MOL0     C 9368   8.868  10.972  10.785 -0.1077 -0.3791  0.3934
  811MOL0     C 9369   8.995  10.931  10.818 -0.8319 -0.1727  0.2185
  811MOL0     C 9370   9.126  10.966  10.751 -0.7904 -0.9914 -0.0424
  811MOL0     C 9371   9.179  11.114  10.759 -0.7242  0.1935 -0.7814
  811MOL0     C 9372   9.181  11.168  10.907  0.3052 -0.0400  0.3018
  811MOL0     C 9373   9.252  11.307  10.913  0.6556 -0.1372  0.1010
  811MOL0     O 9374   9.236  11.355  11.045  0.2328  0.2719 -0.2618
  811MOL0     C 9375   9.330  11.455  11.087  1.6706  0.5414 -0.4790
  811MOL0     C 9376   9.345  11.475  11.233 -0.6527  0.7760  0.4793
  811MOL0     C 9377   9.421  11.577  11.288 -0.2305  0.8626 -0.0346
  811MOL0     C 9378   9.438  11.577  11.437  0.3308  0.6237  0.0691
  811MOL0     C 9379   9.484  11.669  11.207  0.7806 -0.5870 -0.5091
  811MOL0     C 9380   9.574  11.778  11.261 -0.5093 -0.8975  0.6120
  811MOL0     O 9381   9.592  11.887  11.182  0.6207 -1.2880 -0.5353
  811MOL0     C 9382   9.718  11.935  11.158  0.5066 -0.1582 -0.6366
  811MOL0     C 9383   9.779  11.907  11.034 -1.2028  0.1562 -0.0922
  811MOL0     C 9384   9.904  11.958  10.998  0.2986 -0.3385  0.1047
  811MOL0     C 9385   9.978  12.024  11.092 -0.3657 -0.5834 -0.2939
  811MOL0     O 9386  10.103  12.074  11.050 -0.4316 -0.0669 -0.0324
  811MOL0     C 9387  10.197  12.115  11.145 -0.1901  0.1529 -0.1611
  811MOL0     C 9388  10.316  12.187  11.093 -0.4874 -0.6166 -0.6380
  811MOL0     C 9389  10.400  12.247  11.212 -0.7748  0.3091  0.1986
  811MOL0     C 9390  10.333  12.374  11.253 -0.2975 -0.2122  0.1320
  811MOL0     C 9391  10.411  12.441  11.369  0.0750 -0.0309  0.2686
  811MOL0     C 9392  10.419  12.356  11.488  0.2456  0.1496  0.7592
  811MOL0     C 9393  10.473  12.442  11.603 -0.1229  0.1823 -0.5857
  811MOL0     C 9394  10.498  12.378  11.741 -0.2657 -0.2465  1.2536
  811MOL0    Cl 9395  10.347  12.294  11.787 -0.0422 -0.5185  0.3139
  811MOL0     C 9396   9.912  12.057  11.216 -0.3673  0.0365 -0.3040
  811MOL0     C 9397   9.781  12.009  11.253 -0.2373  0.1323 -0.6496
  811MOL0     O 9398   9.636  11.758  11.362  0.3961 -0.3049  0.0576
  811MOL0     C 9399   9.473  11.641  11.061  1.1722 -1.2230 -0.4293
  811MOL0     C 9400   9.399  11.532  11.000 -0.0320 -0.1855 -0.7626
  811MOL0     N 9401   8.986  10.830  10.919  0.2695 -0.2829  0.7009
  811MOL0     N 9402   8.864  10.818  10.955  0.9284 -0.3112  0.1135
  811MOL0     C 9403   8.433  11.352  10.054 -0.1295 -0.6020 -1.0015
  811MOL0     C 9404   8.407  11.412   9.931  0.0708  0.2203  0.0823
  811MOL0     C 9405   8.185  11.413   9.562 -0.4805  0.4949 -1.0262
  811MOL0     C 9406   8.245  11.504   9.472  0.8524 -1.4588  0.1391
  811MOL0     C 9407   8.158  11.568   9.378 -0.3233  0.3533  0.2350
  811MOL0     C 9408   8.026  11.552   9.364  0.1590  0.7407 -0.9902
  811MOL0     O 9409   7.951  11.609   9.259  0.6435  0.7845 -0.2675
  811MOL0     C 9410   7.832  11.547   9.205  0.7443 -0.1737 -0.1787
  811MOL0     C 9411   7.871  11.422   9.118  0.1842 -0.6155  0.3982
  811MOL0     C 9412   7.742  11.328   9.087 -0.3415 -0.6078  0.8483
  811MOL0     C 9413   7.769  11.191   9.018  0.4774  0.4246  0.1823
  811MOL0     C 9414   7.850  11.118   9.114 -0.7632  0.4617 -1.1240
  811MOL0     C 9415   7.899  11.062   9.210 -0.9062 -0.4295  0.4983
  811MOL0     C 9416   7.965  11.464   9.459 -0.6197  0.2374  0.4406
  811MOL0     C 9417   8.049  11.384   9.543  0.8804  0.0046 -0.2821
  811MOL0     H 9418   8.502  11.140   9.734  4.5449  2.4478 -1.9275
  811MOL0     H 9419   8.576  11.053   9.944 -2.1655 -1.8475 -1.6244
  811MOL0     H 9420   8.477  11.001  10.169 -0.7316  0.1094 -1.3073
  811MOL0     H 9421   8.658  11.017  10.154 -0.0331 -2.6764  1.5515
  811MOL0     H 9422   8.569  10.912  10.362  1.1731  0.1830 -1.2590
  811MOL0     H 9423   8.699  11.033  10.377  1.6672 -1.7622 -2.9143
  811MOL0     H 9424   8.565  11.200  10.446  1.6878 -0.6816 -1.0388
  811MOL0     H 9425   8.418  11.101  10.403 -0.0309 -1.4489 -1.0986
  811MOL0     H 9426   8.629  11.023  10.617  0.0739  1.8707  0.8448
  811MOL0     H 9427   8.497  11.120  10.662 -4.0901 -1.0274  0.2840
  811MOL0     H 9428   8.331  10.952  10.613 -0.4369  1.1849 -0.5863
  811MOL0     H 9429   8.446  10.851  10.519 -0.4189  0.6283 -0.3922
  811MOL0     H 9430   8.414  10.886  10.820  2.5832 -1.0700  1.3840
  811MOL0     H 9431   8.387  10.745  10.722 -1.2050 -0.5216  3.2868
  811MOL0     H 9432   8.612  10.714  10.808 -1.8313 -0.8188 -1.0651
  811MOL0     H 9433   8.652  10.810  10.673  0.5184 -2.4402 -0.1681
  811MOL0     H 9434   8.606  10.891  10.974  0.6691  2.3821  1.0274
  811MOL0     H 9435   8.619  11.007  10.835 -0.8789 -0.9987 -0.9407
  811MOL0     H 9436   8.853  11.041  10.703  3.0289 -1.6309 -1.4080
  811MOL0     H 9437   9.200  10.899  10.796 -1.9146 -0.3790  2.9656
  811MOL0     H 9438   9.113  10.943  10.645 -1.3523  1.4642 -0.5644
  811MOL0     H 9439   9.121  11.189  10.704 -1.3551  0.8625  0.7643
  811MOL0     H 9440   9.281  11.118  10.717 -0.0855  1.5889  0.8224
  811MOL0     H 9441   9.250  11.106  10.966  1.1235  0.3725 -0.2075
  811MOL0     H 9442   9.080  11.152  10.945 -1.4597 -1.7530 -4.3437
  811MOL0     H 9443   9.218  11.373  10.832  3.4258 -2.1568 -2.9511
  811MOL0     H 9444   9.356  11.281  10.895  1.4779  1.9653  1.4473
  811MOL0     H 9445   9.292  11.406  11.298 -0.2671 -0.3141 -0.3359
  811MOL0     H 9446   9.454  11.678  11.474  2.7845  0.1875  0.3793
  811MOL0     H 9447   9.344  11.549  11.486  1.2517 -0.6884  1.1494
  811MOL0     H 9448   9.513  11.508  11.476 -1.9363 -1.5692  0.8159
  811MOL0     H 9449   9.737  11.840  10.959 -0.0998 -2.0786  1.1701
  811MOL0     H 9450   9.957  11.945  10.905  2.6809 -0.4726  1.4036
  811MOL0     H 9451  10.147  12.181  11.216  0.6296 -0.5680  1.1402
  811MOL0     H 9452  10.229  12.031  11.209  1.0350 -1.0914 -2.3038
  811MOL0     H 9453  10.381  12.121  11.035  2.7883  0.7273  1.2709
  811MOL0     H 9454  10.294  12.261  11.015 -1.5418 -2.1778 -1.8806
  811MOL0     H 9455  10.498  12.262  11.166 -0.8667  4.5115  0.9292
  811MOL0     H 9456  10.405  12.177  11.295  0.9458  1.8306  1.4603
  811MOL0     H 9457  10.329  12.443  11.168  2.1201 -0.6930 -0.4332
  811MOL0     H 9458  10.231  12.359  11.290 -1.0779  0.6140 -1.5525
  811MOL0     H 9459  10.360  12.533  11.400 -0.9365 -0.1556 -0.9374
  811MOL0     H 9460  10.511  12.468  11.333 -1.1656  1.9639 -1.9624
  811MOL0     H 9461  10.326  12.302  11.507 -0.3255  1.2566  1.2166
  811MOL0     H 9462  10.489  12.278  11.459  2.3341  2.2312 -0.1505
  811MOL0     H 9463  10.401  12.523  11.617  1.2887  1.7658 -1.9780
  811MOL0     H 9464  10.563  12.491  11.562  0.8414  0.3683  1.5910
  811MOL0     H 9465  10.530  12.449  11.817  3.8909  1.0005 -1.3345
  811MOL0     H 9466  10.576  12.301  11.736  2.0902  1.9414  2.1833
  811MOL0     H 9467   9.955  12.127  11.287  1.1321  1.0517 -2.0938
  811MOL0     H 9468   9.741  12.038  11.350  1.7952 -0.5710  0.4692
  811MOL0     H 9469   9.520  11.715  10.997  0.8417  0.6939  1.4303
  811MOL0     H 9470   9.376  11.526  10.895 -4.2421  0.2290 -0.0544
  811MOL0     H 9471   8.397  11.406  10.141  0.1595 -0.7420 -0.7936
  811MOL0     H 9472   8.360  11.507   9.912  0.6592  0.6471  0.6914
  811MOL0     H 9473   8.351  11.523   9.479  0.4626  0.2383  4.0394
  811MOL0     H 9474   8.199  11.625   9.295 -0.5764 -1.5904 -1.2955
  811MOL0     H 9475   7.769  11.510   9.286  0.7450 -1.1525 -0.6089
  811MOL0     H 9476   7.777  11.620   9.144  0.6916 -1.0412 -1.2067
  811MOL0     H 9477   7.947  11.371   9.178 -0.5832 -3.9502 -1.2347
  811MOL0     H 9478   7.918  11.455   9.024 -2.4917  1.0202 -0.5064
  811MOL0     H 9479   7.664  11.370   9.023  1.9458 -1.8923 -3.1526
  811MOL0     H 9480   7.687  11.302   9.178 -3.9643  2.6337 -0.1455
  811MOL0     H 9481   7.821  11.196   8.922  0.0407 -0.0835 -0.0883
  811MOL0     H 9482   7.674  11.138   9.003  2.1611 -2.4648 -1.0604
  811MOL0     H 9483   7.941  11.004   9.290  0.8767  0.3640  0.2008
  811MOL0     H 9484   7.857  11.457   9.468 -0.5621  1.7581  4.9417
  811MOL0     H 9485   8.003  11.314   9.612 -0.4274 -1.8842 -2.9200
  812MOL0     O 9486   2.291   2.646   2.227  0.3676  0.1127  0.3686
  812MOL0     C 9487   2.221   2.706   2.144  0.4665  0.1823 -0.6634
  812MOL0     O 9488   2.223   2.843   2.135  0.7165  0.0179  0.6346
  812MOL0     C 9489   2.334   2.923   2.179  0.8496  0.0522 -0.4953
  812MOL0     C 9490   2.456   2.884   2.226 -0.1741  0.0887 -0.5518
  812MOL0     C 9491   2.553   2.979   2.246 -0.2042 -0.1737  0.0956
  812MOL0     C 9492   2.523   3.110   2.230  0.0369 -0.6951 -0.3748
  812MOL0     O 9493   2.611   3.208   2.252 -0.4919  0.2403 -0.7424
  812MOL0     C 9494   2.737   3.180   2.322 -1.0848  0.1596  0.2173
  812MOL0     C 9495   2.841   3.294   2.312 -0.6266 -1.1559  0.2877
  812MOL0     C 9496   2.774   3.430   2.273 -0.3647 -0.4316  0.3754
  812MOL0     C 9497   2.878   3.532   2.291 -0.2905  1.6526  0.0952
  812MOL0     C 9498   2.820   3.670   2.255 -0.5311  0.2687  0.7047
  812MOL0     C 9499   2.924   3.778   2.232  0.3811 -0.1891 -0.1443
  812MOL0     C 9500   2.866   3.917   2.191  0.0824  0.6392  0.3342
  812MOL0     C 9501   2.992   4.015   2.200 -0.0618  0.1016 -0.2812
  812MOL0     N 9502   2.952   4.149   2.178  0.5752 -0.1341  0.1875
  812MOL0     C 9503   2.955   4.222   2.058 -0.1707  0.4133  0.1470
  812MOL0     C 9504   2.905   4.338   2.093  0.1371 -0.6033  0.0161
  812MOL0     C 9505   2.933   4.477   2.039  1.8379  0.3669  0.5271
  812MOL0     C 9506   2.856   4.520   1.910 -0.1306  1.1433 -0.2531
  812MOL0     C 9507   2.714   4.495   1.927 -0.1303 -0.3752 -0.6956
  812MOL0     C 9508   2.639   4.532   1.804 -0.2730  0.1397  0.2088
  812MOL0     O 9509   2.498   4.516   1.798  0.0407  0.0625  0.1772
  812MOL0     C 9510   2.439   4.394   1.794 -0.4601  0.7273  0.1238
  812MOL0     C 9511   2.496   4.265   1.783 -0.4226 -0.6425 -0.1356
  812MOL0     C 9512   2.424   4.148   1.795  0.3582 -0.4932  0.5606
  812MOL0     C 9513   2.498   4.020   1.785 -0.3913 -0.2841 -1.5740
  812MOL0     C 9514   2.284   4.163   1.806 -0.0772 -0.1701 -0.1507
  812MOL0     C 9515   2.199   4.048   1.813  0.5304  0.3099  0.7814
  812MOL0     O 9516   2.149   4.005   1.934  0.1502 -0.4821 -0.0454
  812MOL0     C 9517   2.053   3.909   1.943  1.1828  0.5538  0.0927
  812MOL0     C 9518   2.036   3.857   2.076  0.2364 -0.1312  0.4536
  812MOL0     C 9519   1.930   3.768   2.103  0.7590 -0.3729 -0.4927
  812MOL0     C 9520   1.845   3.734   1.999 -0.6456  0.8712 -0.2420
  812MOL0     O 9521   1.721   3.668   2.028 -0.3434 -0.2834 -0.5069
  812MOL0     C 9522   1.702   3.543   1.960 -0.7601 -0.6157  0.8365
  812MOL0     C 9523   1.577   3.552   1.870 -0.6787 -0.5902  0.9437
  812MOL0     C 9524   1.572   3.427   1.788  0.4661 -0.1815 -0.1889
  812MOL0     C 9525   1.426   3.396   1.736  0.6855  0.6239  0.1241
  812MOL0     C 9526   1.378   3.467   1.602 -0.5918 -0.2812 -1.2186
  812MOL0     C 9527   1.413   3.616   1.577 -0.2136  0.5440 -0.0704
  812MOL0     C 9528   1.326   3.710   1.654 -0.0077 -0.3818 -0.3897
  812MOL0     C 9529   1.390   3.842   1.674  0.4939 -0.1913  1.0016
  812MOL0    Cl 9530   1.273   3.919   1.785  0.6034  0.4306 -0.1803
  812MOL0     C 9531   1.871   3.782   1.871  0.1788  0.6244 -0.7325
  812MOL0     C 9532   1.971   3.865   1.841 -0.8441 -0.9836 -0.6141
  812MOL0     O 9533   2.186   3.991   1.706  0.3570 -0.4655  0.2177
  812MOL0     C 9534   2.220   4.289   1.790 -0.1054 -0.6389 -0.1585
  812MOL0     C 9535   2.302   4.404   1.796 -0.0325  0.0459  0.1336
  812MOL0     N 9536   2.853   4.327   2.225  0.4400  0.4019  0.3693
  812MOL0     N 9537   2.902   4.222   2.277 -0.1221 -0.2995 -0.0702
  812MOL0     C 9538   2.398   3.152   2.194  0.2788  0.2696  0.5001
  812MOL0     C 9539   2.304   3.056   2.175  0.8426 -0.5380  0.1625
  812MOL0     C 9540   2.147   2.634   2.040  0.6595  0.5521  0.3535
  812MOL0     C 9541   2.139   2.494   2.036 -0.9119  0.9671  0.1347
  812MOL0     C 9542   2.086   2.423   1.918 -0.0709  0.1342 -1.0274
  812MOL0     C 9543   2.023   2.499   1.820  0.5398 -0.7821  0.8292
  812MOL0     O 9544   1.956   2.424   1.727  0.3350  0.3979  0.1830
  812MOL0     C 9545   1.847   2.473   1.664  0.4993 -0.7714 -0.2862
  812MOL0     C 9546   1.789   2.366   1.580  0.5763 -1.1286  0.8296
  812MOL0     C 9547   1.891   2.308   1.475 -0.0459 -0.9062  0.6318
  812MOL0     C 9548   1.836   2.202   1.376  0.1358  1.1338  0.2082
  812MOL0     C 9549   1.830   2.068   1.452 -1.2326 -0.7318 -0.3097
  812MOL0     C 9550   1.827   1.972   1.520  1.1521  0.1401  0.0043
  812MOL0     C 9551   2.036   2.642   1.826 -0.6548  0.2552  0.8261
  812MOL0     C 9552   2.083   2.708   1.939  0.2591  0.3499 -0.0209
  812MOL0     H 9553   2.470   2.783   2.264  0.5142 -0.3558 -1.9143
  812MOL0     H 9554   2.645   2.936   2.283 -0.5738 -1.2241 -0.1732
  812MOL0     H 9555   2.713   3.153   2.425 -1.3389 -1.3521 -0.2090
  812MOL0     H 9556   2.777   3.092   2.271 -2.2503  0.7452 -1.8341
  812MOL0     H 9557   2.878   3.316   2.413  0.1011  3.8289 -0.7797
  812MOL0     H 9558   2.926   3.275   2.246 -1.1696 -0.9765 -0.4792
  812MOL0     H 9559   2.747   3.428   2.168  0.6234  2.1820 -0.0003
  812MOL0     H 9560   2.692   3.456   2.340  0.2519  1.7814  0.3494
  812MOL0     H 9561   2.905   3.523   2.397 -0.3602 -2.1687 -0.0515
  812MOL0     H 9562   2.956   3.519   2.215  1.7313  2.1601  1.9740
  812MOL0     H 9563   2.765   3.656   2.162 -3.0571  0.6083  2.0678
  812MOL0     H 9564   2.744   3.687   2.332 -0.7718 -1.4169  0.8625
  812MOL0     H 9565   2.976   3.793   2.327 -1.4929 -2.5311  1.3602
  812MOL0     H 9566   2.992   3.739   2.155  1.1339  0.9761 -0.0905
  812MOL0     H 9567   2.826   3.913   2.090  1.1497  6.3916 -0.6448
  812MOL0     H 9568   2.791   3.949   2.263 -1.0590  0.4520 -0.7455
  812MOL0     H 9569   3.072   3.992   2.129  0.2138  0.8210 -0.2086
  812MOL0     H 9570   3.022   4.005   2.304 -2.9070 -2.1117  0.4649
  812MOL0     H 9571   3.020   4.204   1.972  0.9127  2.4929  0.4597
  812MOL0     H 9572   2.906   4.548   2.117 -3.3707 -0.9183  0.2650
  812MOL0     H 9573   3.039   4.481   2.010  1.5252  1.6920 -0.5434
  812MOL0     H 9574   2.902   4.457   1.834 -1.3681  1.3197 -1.1869
  812MOL0     H 9575   2.875   4.622   1.876  2.0049  0.4941 -1.1284
  812MOL0     H 9576   2.696   4.548   2.022  0.7829 -1.2888  0.0061
  812MOL0     H 9577   2.677   4.393   1.941 -1.9760 -0.3559 -4.2504
  812MOL0     H 9578   2.681   4.482   1.716  1.8832  0.1068  1.1922
  812MOL0     H 9579   2.659   4.639   1.800 -1.7222  0.5756  2.7685
  812MOL0     H 9580   2.601   4.254   1.757 -0.3709 -0.0232 -0.2129
  812MOL0     H 9581   2.583   4.026   1.717 -2.1724  0.5463 -3.8568
  812MOL0     H 9582   2.538   3.993   1.883 -1.3512  2.7854 -0.2110
  812MOL0     H 9583   2.429   3.938   1.763  2.2077 -2.5876 -1.5552
  812MOL0     H 9584   2.098   3.919   2.140  1.6551 -0.0574 -0.9457
  812MOL0     H 9585   1.899   3.738   2.203 -0.2385 -0.3064 -0.7739
  812MOL0     H 9586   1.785   3.547   1.889 -2.8018  3.4920 -1.7554
  812MOL0     H 9587   1.689   3.456   2.024 -0.4750 -1.0629  0.2863
  812MOL0     H 9588   1.500   3.578   1.943 -0.4948 -1.3691  1.4198
  812MOL0     H 9589   1.601   3.639   1.808  0.4044 -2.0337 -0.7504
  812MOL0     H 9590   1.604   3.338   1.842  0.0824  0.1698  0.6557
  812MOL0     H 9591   1.645   3.441   1.708 -1.6286  3.6792 -1.7011
  812MOL0     H 9592   1.417   3.288   1.717  1.3321  0.6963 -0.6553
  812MOL0     H 9593   1.363   3.421   1.822 -2.1500  0.1797 -1.6757
  812MOL0     H 9594   1.270   3.454   1.596 -0.7477  0.7540 -0.9112
  812MOL0     H 9595   1.418   3.424   1.510 -0.0806  1.3329 -1.7894
  812MOL0     H 9596   1.517   3.634   1.608 -0.7005  1.4754  1.0816
  812MOL0     H 9597   1.409   3.630   1.469 -2.1869 -0.7099 -0.2099
  812MOL0     H 9598   1.303   3.674   1.754  0.0638  1.2727  0.2478
  812MOL0     H 9599   1.239   3.722   1.588 -2.1443  1.1313  2.4994
  812MOL0     H 9600   1.416   3.896   1.583  0.9457 -1.0006  0.6467
  812MOL0     H 9601   1.481   3.836   1.734  0.6876 -0.8203  0.6488
  812MOL0     H 9602   1.802   3.754   1.792 -0.1125 -4.9183  1.0469
  812MOL0     H 9603   1.978   3.898   1.737  3.3762 -0.8758 -0.4748
  812MOL0     H 9604   2.111   4.289   1.792 -0.1763 -3.2665 -0.8327
  812MOL0     H 9605   2.263   4.505   1.787 -0.8703 -0.2060  0.7937
  812MOL0     H 9606   2.369   3.256   2.180  2.2480  0.9006  0.7699
  812MOL0     H 9607   2.199   3.083   2.177  0.8968 -0.2906 -0.3343
  812MOL0     H 9608   2.194   2.427   2.102 -1.0839  0.3649 -0.3242
  812MOL0     H 9609   2.064   2.317   1.915 -0.2898  0.1997 -1.7882
  812MOL0     H 9610   1.769   2.498   1.737  0.2242  2.8838 -1.6309
  812MOL0     H 9611   1.858   2.565   1.606 -2.0027 -2.5223 -3.9039
  812MOL0     H 9612   1.697   2.404   1.535  0.8325  0.0762  1.2873
  812MOL0     H 9613   1.751   2.277   1.633  0.5707 -2.5541 -1.4411
  812MOL0     H 9614   1.970   2.265   1.537  1.4458  2.3579  1.1844
  812MOL0     H 9615   1.938   2.391   1.422  0.3499 -2.0294 -0.8168
  812MOL0     H 9616   1.917   2.185   1.305 -1.5593  2.1695 -2.0911
  812MOL0     H 9617   1.741   2.229   1.329 -0.3183  1.8781  1.4926
  812MOL0     H 9618   1.830   1.899   1.598  0.8111 -1.3236 -1.2892
  812MOL0     H 9619   2.001   2.712   1.750 -3.4025  1.0534  2.6968
  812MOL0     H 9620   2.078   2.817   1.942  2.4491  0.4717  1.6004
  813MOL0     O 9621   5.955   3.036   6.706  0.4753  0.1382  0.1589
  813MOL0     C 9622   6.005   3.006   6.815  0.9990  0.7205 -0.7360
  813MOL0     O 9623   5.944   3.043   6.935 -0.2876 -0.1333  0.4902
  813MOL0     C 9624   5.835   3.122   6.945  0.4730  0.8687  0.6930
  813MOL0     C 9625   5.726   3.073   7.012  0.1072  0.0187 -0.1761
  813MOL0     C 9626   5.609   3.136   7.014  0.7014  0.3660  0.3489
  813MOL0     C 9627   5.603   3.269   6.970 -0.2698 -0.9249  0.0152
  813MOL0     O 9628   5.481   3.330   6.974 -0.5722 -0.2090  0.0874
  813MOL0     C 9629   5.382   3.280   6.884 -0.5780  0.6530 -0.1971
  813MOL0     C 9630   5.394   3.340   6.738  0.6654  0.1348 -0.2238
  813MOL0     C 9631   5.305   3.257   6.642  0.3776 -0.4527  0.5182
  813MOL0     C 9632   5.340   3.290   6.491 -0.0723 -0.0467  1.0910
  813MOL0     C 9633   5.248   3.204   6.401 -0.0899 -0.4281  0.3146
  813MOL0     C 9634   5.238   3.248   6.253  1.1262  0.3163 -0.3885
  813MOL0     C 9635   5.368   3.244   6.179 -0.3041 -0.1179  0.9741
  813MOL0     C 9636   5.355   3.307   6.033 -0.6820  0.9755  0.0534
  813MOL0     N 9637   5.355   3.452   6.014  0.0277  0.3372  0.0474
  813MOL0     C 9638   5.241   3.517   5.967 -0.8459  0.5799 -0.1080
  813MOL0     C 9639   5.280   3.641   5.947  0.6818 -0.8891  0.7212
  813MOL0     C 9640   5.192   3.754   5.906  0.4327 -0.5924  1.2631
  813MOL0     C 9641   5.048   3.732   5.948  0.3132 -0.3624 -0.7895
  813MOL0     C 9642   4.955   3.831   5.877  0.1040  0.1893 -0.0735
  813MOL0     C 9643   4.817   3.864   5.942  0.4392  0.5165 -0.0904
  813MOL0     O 9644   4.830   3.921   6.072  0.7545 -0.8327 -0.1875
  813MOL0     C 9645   4.707   3.978   6.111 -0.2959 -0.4120 -0.4819
  813MOL0     C 9646   4.621   3.909   6.188 -0.1472 -0.9697 -0.1387
  813MOL0     C 9647   4.511   3.968   6.255  0.3942 -1.1242 -0.1955
  813MOL0     C 9648   4.421   3.877   6.339 -0.0127  0.7345  0.3185
  813MOL0     C 9649   4.484   4.107   6.228 -0.2765  0.2716  0.2760
  813MOL0     C 9650   4.359   4.160   6.275 -0.2620 -0.1833 -0.2445
  813MOL0     O 9651   4.290   4.219   6.173 -0.1461 -0.3628  0.0667
  813MOL0     C 9652   4.183   4.294   6.218 -0.4644 -0.6510 -0.1314
  813MOL0     C 9653   4.072   4.241   6.286 -0.4545  0.0116  0.8653
  813MOL0     C 9654   3.967   4.341   6.314 -0.3421  0.7578  0.0314
  813MOL0     C 9655   3.975   4.473   6.266  0.5479 -0.7066  0.9286
  813MOL0     O 9656   3.863   4.549   6.263 -0.5254 -1.0109 -0.7024
  813MOL0     C 9657   3.872   4.675   6.327  0.1446  0.0440 -0.2693
  813MOL0     C 9658   3.729   4.742   6.344  0.3139  0.1609  0.1666
  813MOL0     C 9659   3.717   4.885   6.419 -1.2000  0.1614 -0.0735
  813MOL0     C 9660   3.624   4.881   6.545 -0.6215 -0.4367  0.4157
  813MOL0     C 9661   3.580   5.016   6.601 -0.1606  0.0861 -0.2620
  813MOL0     C 9662   3.704   5.083   6.663 -0.5877  0.7530  0.8331
  813MOL0     C 9663   3.660   5.207   6.732  0.1770  0.0762  0.4883
  813MOL0     C 9664   3.689   5.197   6.880  0.5961 -0.4667 -0.5510
  813MOL0    Cl 9665   3.862   5.219   6.913 -0.3675  0.0580  0.8862
  813MOL0     C 9666   4.098   4.510   6.204  0.2815 -0.1829 -0.3520
  813MOL0     C 9667   4.191   4.420   6.181 -0.4979  1.0078 -0.6214
  813MOL0     O 9668   4.318   4.148   6.391  0.2088  0.0551  1.3131
  813MOL0     C 9669   4.575   4.180   6.148  0.4206 -0.9346 -0.6888
  813MOL0     C 9670   4.685   4.115   6.095  0.7463  0.3875 -1.2669
  813MOL0     N 9671   5.414   3.639   5.948 -0.1510 -0.2243 -0.0835
  813MOL0     N 9672   5.462   3.528   5.987 -1.0990  0.8352 -0.3893
  813MOL0     C 9673   5.718   3.329   6.913  0.4846  0.4040 -0.6476
  813MOL0     C 9674   5.831   3.249   6.895 -0.4580  0.9204 -0.1872
  813MOL0     C 9675   6.120   2.925   6.812 -0.1646  0.3161 -0.5048
  813MOL0     C 9676   6.155   2.843   6.917 -0.8191 -0.0876  0.1413
  813MOL0     C 9677   6.257   2.740   6.903 -0.0696  0.2458 -0.1520
  813MOL0     C 9678   6.320   2.714   6.779  0.7659 -0.1358  0.2545
  813MOL0     O 9679   6.410   2.611   6.748 -0.5991  0.2169  0.4862
  813MOL0     C 9680   6.364   2.475   6.785 -0.2251  0.1851 -0.5660
  813MOL0     C 9681   6.459   2.381   6.711 -0.0126 -0.4117  0.4353
  813MOL0     C 9682   6.390   2.239   6.700 -0.0675  0.3287  0.2353
  813MOL0     C 9683   6.460   2.133   6.609 -0.8375 -0.2932  0.6534
  813MOL0     C 9684   6.397   2.132   6.476  0.1167 -0.1888 -0.1735
  813MOL0     C 9685   6.343   2.113   6.373  0.3561 -0.2122 -0.8289
  813MOL0     C 9686   6.285   2.800   6.675  0.5171 -0.0120  0.7368
  813MOL0     C 9687   6.178   2.894   6.687  0.2877  0.4447 -0.0985
  813MOL0     H 9688   5.736   2.979   7.065  2.5471  0.8890  1.0758
  813MOL0     H 9689   5.523   3.098   7.069 -0.2716 -0.5250 -1.6791
  813MOL0     H 9690   5.389   3.171   6.886  2.1292  0.7637  1.8628
  813MOL0     H 9691   5.287   3.311   6.929  0.1410  0.2649  1.7206
  813MOL0     H 9692   5.366   3.446   6.737 -0.4775 -0.1518 -0.6511
  813MOL0     H 9693   5.497   3.339   6.702  1.2670 -0.6968  1.4654
  813MOL0     H 9694   5.308   3.151   6.668  1.5537  0.3084  4.0453
  813MOL0     H 9695   5.200   3.282   6.660  0.3209  0.7864 -1.2529
  813MOL0     H 9696   5.327   3.393   6.458 -2.0732  0.2055  2.4889
  813MOL0     H 9697   5.442   3.262   6.463 -0.2414  0.2436  0.1375
  813MOL0     H 9698   5.292   3.104   6.413 -4.9134 -2.7845  0.9932
  813MOL0     H 9699   5.145   3.211   6.437 -0.9052  4.8364 -2.1879
  813MOL0     H 9700   5.175   3.174   6.204 -0.8849  1.5191  0.2865
  813MOL0     H 9701   5.191   3.347   6.255 -1.5796 -0.8943  0.8062
  813MOL0     H 9702   5.449   3.288   6.238  0.1184  1.4736 -0.6999
  813MOL0     H 9703   5.376   3.135   6.173 -1.6670 -0.2629  1.3247
  813MOL0     H 9704   5.270   3.259   5.983 -0.7342  1.2625 -0.1337
  813MOL0     H 9705   5.445   3.276   5.979  0.6388 -1.2959  3.2016
  813MOL0     H 9706   5.151   3.456   5.961  0.4874 -1.4074 -0.7466
  813MOL0     H 9707   5.224   3.852   5.941  2.0350  0.3449 -2.4049
  813MOL0     H 9708   5.207   3.745   5.798  0.3272  1.7427  1.0085
  813MOL0     H 9709   5.049   3.755   6.055 -1.0489 -2.7442 -0.2014
  813MOL0     H 9710   5.015   3.630   5.928  0.1661 -0.0156 -2.4443
  813MOL0     H 9711   4.929   3.805   5.774  1.3750 -1.4297 -0.0327
  813MOL0     H 9712   5.009   3.924   5.858 -0.9870  0.8166 -0.2068
  813MOL0     H 9713   4.753   3.776   5.947  1.6019 -0.4904 -1.6858
  813MOL0     H 9714   4.770   3.940   5.878 -1.8146 -0.7307  0.0260
  813MOL0     H 9715   4.627   3.801   6.200 -0.2014 -0.6353  5.5132
  813MOL0     H 9716   4.317   3.886   6.305  0.0177  1.8319  0.4813
  813MOL0     H 9717   4.451   3.772   6.332 -1.0601  0.5078 -1.6369
  813MOL0     H 9718   4.439   3.906   6.442 -0.2937 -2.4364  1.3672
  813MOL0     H 9719   4.062   4.137   6.315  1.0411 -0.1093  1.0191
  813MOL0     H 9720   3.883   4.298   6.368  0.4403 -1.8922 -0.6905
  813MOL0     H 9721   3.901   4.666   6.432 -2.2205  2.2332  0.6602
  813MOL0     H 9722   3.946   4.731   6.269 -0.1190 -0.2721 -0.9160
  813MOL0     H 9723   3.703   4.767   6.241 -2.0776 -0.7710  0.4762
  813MOL0     H 9724   3.660   4.665   6.378  0.6317 -0.7758 -1.2279
  813MOL0     H 9725   3.671   4.952   6.346 -2.2587 -1.1380 -0.6388
  813MOL0     H 9726   3.810   4.938   6.440 -0.7743 -0.3050 -0.7624
  813MOL0     H 9727   3.540   4.812   6.531  1.3345 -3.0252  0.6165
  813MOL0     H 9728   3.684   4.830   6.621  0.5255  0.2889  0.0194
  813MOL0     H 9729   3.503   4.995   6.676 -0.9054 -3.5942 -1.8427
  813MOL0     H 9730   3.542   5.072   6.514  0.2977 -1.1007 -1.2572
  813MOL0     H 9731   3.766   5.024   6.732 -0.0752 -0.2544 -0.4438
  813MOL0     H 9732   3.780   5.106   6.588 -0.1107 -0.6465  0.8480
  813MOL0     H 9733   3.552   5.217   6.721  0.0706  0.0814  1.4275
  813MOL0     H 9734   3.697   5.297   6.683 -3.5920  1.7270  0.3324
  813MOL0     H 9735   3.646   5.106   6.921  1.0353 -0.9741 -1.2023
  813MOL0     H 9736   3.625   5.274   6.923  0.0417 -0.7946 -0.7862
  813MOL0     H 9737   4.101   4.613   6.170 -0.6514  0.3920  1.2096
  813MOL0     H 9738   4.285   4.451   6.136 -0.3982  0.3136 -0.8949
  813MOL0     H 9739   4.554   4.286   6.140 -1.9492 -1.1090  1.7991
  813MOL0     H 9740   4.761   4.166   6.037 -0.0415  2.5383 -0.4995
  813MOL0     H 9741   5.723   3.428   6.869  0.2911  1.2119  1.0895
  813MOL0     H 9742   5.928   3.275   6.853  1.3454 -4.0719  0.2657
  813MOL0     H 9743   6.126   2.870   7.018  0.1987 -1.5956  0.8733
  813MOL0     H 9744   6.280   2.688   6.996 -1.0472  2.0917  1.2026
  813MOL0     H 9745   6.361   2.459   6.893 -0.6896  1.0675 -0.4402
  813MOL0     H 9746   6.265   2.454   6.743 -0.0152 -0.0597 -0.9382
  813MOL0     H 9747   6.560   2.371   6.751  0.9724 -1.4935 -2.0683
  813MOL0     H 9748   6.473   2.418   6.609 -1.0987 -0.2979  0.3200
  813MOL0     H 9749   6.282   2.247   6.684 -0.8771 -3.1341  2.7903
  813MOL0     H 9750   6.392   2.205   6.804 -1.1564  2.4435  1.0093
  813MOL0     H 9751   6.439   2.039   6.661  0.3960  1.0080  3.7670
  813MOL0     H 9752   6.569   2.144   6.612 -0.8361 -0.4496  1.7570
  813MOL0     H 9753   6.294   2.076   6.286  1.4068 -4.5674  0.1851
  813MOL0     H 9754   6.314   2.783   6.572  0.6471  2.9658  0.1928
  813MOL0     H 9755   6.131   2.946   6.604 -4.5991 -0.3050  1.8605
  814MOL0     O 9756   9.547   2.401   6.873  0.5051 -0.5083 -0.3967
  814MOL0     C 9757   9.642   2.358   6.814  0.3558 -0.0669  0.7678
  814MOL0     O 9758   9.665   2.215   6.786  0.0337 -0.6067  0.4859
  814MOL0     C 9759   9.588   2.116   6.839  1.0920  0.7513 -0.7923
  814MOL0     C 9760   9.533   2.116   6.972 -0.6859 -0.4774  0.9667
  814MOL0     C 9761   9.445   2.014   7.010  0.2696 -0.6370 -0.6361
  814MOL0     C 9762   9.424   1.900   6.928  0.1833 -0.0095  0.0789
  814MOL0     O 9763   9.349   1.801   6.976  0.2754  0.0926  0.1623
  814MOL0     C 9764   9.264   1.716   6.897  0.0350  0.2586  0.6065
  814MOL0     C 9765   9.332   1.575   6.907  0.1263 -0.1161 -0.6280
  814MOL0     C 9766   9.302   1.494   6.783 -0.4233  0.7923  0.1738
  814MOL0     C 9767   9.377   1.367   6.801 -0.2413 -0.5606 -0.5148
  814MOL0     C 9768   9.319   1.254   6.713 -0.6196 -0.5690  0.4180
  814MOL0     C 9769   9.405   1.126   6.714  0.3378 -0.0652  0.2154
  814MOL0     C 9770   9.412   1.053   6.852  0.2796 -0.3325 -0.7419
  814MOL0     C 9771   9.489   1.117   6.977  0.9241 -0.1061  0.9236
  814MOL0     N 9772   9.517   1.019   7.077 -0.1198  0.7586 -0.1072
  814MOL0     C 9773   9.595   0.903   7.061  0.8172 -0.0422 -1.0218
  814MOL0     C 9774   9.589   0.847   7.182  0.7945 -0.1468  0.1646
  814MOL0     C 9775   9.645   0.715   7.213 -0.7229  0.2914  0.5645
  814MOL0     C 9776   9.546   0.601   7.259  0.1068 -0.0359  0.2334
  814MOL0     C 9777   9.492   0.616   7.400 -1.5284  0.0893  0.7723
  814MOL0     C 9778   9.362   0.542   7.433  0.3058  0.4138  0.1455
  814MOL0     O 9779   9.322   0.428   7.356  0.0969 -0.0777  0.5149
  814MOL0     C 9780   9.234   0.342   7.406  0.8478  0.9136 -0.3199
  814MOL0     C 9781   9.166   0.361   7.523  1.1385  0.7141 -0.0641
  814MOL0     C 9782   9.069   0.276   7.578 -0.3628  0.6139 -0.0542
  814MOL0     C 9783   8.991   0.319   7.703  0.7252 -0.1867 -0.1106
  814MOL0     C 9784   9.048   0.157   7.500  0.7232 -0.6128  0.9760
  814MOL0     C 9785   8.961   0.041   7.552  0.0136  0.1358  0.2892
  814MOL0     O 9786   8.910  -0.050   7.468 -0.3197  0.1238  0.4122
  814MOL0     C 9787   8.779  -0.040   7.461  0.4680  0.2300  0.3803
  814MOL0     C 9788   8.710   0.059   7.389  0.3739  0.5606  0.7833
  814MOL0     C 9789   8.572   0.066   7.377 -0.5401  0.7045  0.0777
  814MOL0     C 9790   8.497  -0.021   7.454  0.7224  1.2213 -0.9552
  814MOL0     O 9791   8.362  -0.026   7.460  0.0314  0.0351 -0.7623
  814MOL0     C 9792   8.291   0.088   7.437  0.1303 -0.5966 -0.8520
  814MOL0     C 9793   8.133   0.064   7.451 -0.2509 -0.3632  0.2698
  814MOL0     C 9794   8.057   0.198   7.427 -0.0883  0.6600  1.0207
  814MOL0     C 9795   8.099   0.305   7.532 -0.7314  0.2638  0.4387
  814MOL0     C 9796   8.207   0.408   7.476  0.0128 -0.0361  0.1123
  814MOL0     C 9797   8.171   0.546   7.550  0.0986  0.2905 -0.5755
  814MOL0     C 9798   8.248   0.672   7.498 -0.6323 -0.7052 -0.0384
  814MOL0     C 9799   8.189   0.801   7.554  0.7174  0.6978 -0.5312
  814MOL0    Cl 9800   8.032   0.831   7.486 -0.0764  0.0039  0.5068
  814MOL0     C 9801   8.563  -0.117   7.532 -0.7790 -0.0136 -0.3626
  814MOL0     C 9802   8.703  -0.134   7.534 -0.0217  0.5128 -0.2445
  814MOL0     O 9803   8.927   0.036   7.675 -0.5294  0.1644  0.2110
  814MOL0     C 9804   9.110   0.139   7.375 -0.0653  0.7547 -0.1967
  814MOL0     C 9805   9.202   0.232   7.329  0.2104  0.0517  0.4205
  814MOL0     N 9806   9.500   0.920   7.263 -0.4166 -0.0358  1.1337
  814MOL0     N 9807   9.470   1.030   7.204 -0.5796 -0.1841 -0.5988
  814MOL0     C 9808   9.482   1.890   6.808 -1.0092  0.1051  0.5977
  814MOL0     C 9809   9.553   2.002   6.752 -0.0985  0.0792  0.1868
  814MOL0     C 9810   9.752   2.443   6.772  1.3013 -0.5470  0.2956
  814MOL0     C 9811   9.855   2.394   6.688 -0.5680 -0.1140  0.5956
  814MOL0     C 9812   9.968   2.480   6.647 -0.2224  0.2075  1.1758
  814MOL0     C 9813   9.961   2.614   6.691 -0.2921  0.3625  0.5828
  814MOL0     O 9814  10.037   2.729   6.665  0.2467  0.2594  0.6082
  814MOL0     C 9815  10.141   2.719   6.563 -0.1964 -0.3620  0.2773
  814MOL0     C 9816  10.238   2.828   6.544 -0.6028 -0.2004 -0.5367
  814MOL0     C 9817  10.350   2.817   6.659 -0.1381  0.1895 -0.5275
  814MOL0     C 9818  10.442   2.935   6.655  0.5736 -0.7646  0.3161
  814MOL0     C 9819  10.544   2.917   6.765 -1.0721 -0.0575  0.5883
  814MOL0     C 9820  10.632   2.917   6.840 -0.6766 -0.4294 -0.1813
  814MOL0     C 9821   9.852   2.660   6.768  0.6057 -0.3543  0.1180
  814MOL0     C 9822   9.759   2.575   6.818 -0.1578  0.3682  0.5793
  814MOL0     H 9823   9.548   2.201   7.038  1.0955 -0.8242  1.0360
  814MOL0     H 9824   9.384   2.033   7.098 -0.2112 -0.0716 -1.0773
  814MOL0     H 9825   9.161   1.714   6.934  0.1576 -0.1139  0.9388
  814MOL0     H 9826   9.250   1.754   6.795 -1.4916  4.9807  2.3492
  814MOL0     H 9827   9.440   1.591   6.907  0.2730 -1.0341  0.2834
  814MOL0     H 9828   9.301   1.521   6.997  0.5277  0.3880 -0.1750
  814MOL0     H 9829   9.195   1.497   6.762 -0.3157 -1.2033 -0.8628
  814MOL0     H 9830   9.349   1.556   6.706 -0.6072 -0.1417 -0.7004
  814MOL0     H 9831   9.483   1.397   6.799 -0.3315 -0.1396  0.3076
  814MOL0     H 9832   9.355   1.324   6.899 -1.8289  1.2799  0.0032
  814MOL0     H 9833   9.221   1.224   6.753 -0.2732  0.1574  1.8840
  814MOL0     H 9834   9.308   1.285   6.609  0.6790  1.2349  0.7647
  814MOL0     H 9835   9.349   1.060   6.646 -2.2904  0.1995  1.9444
  814MOL0     H 9836   9.501   1.139   6.664 -0.1637 -0.5702 -0.9088
  814MOL0     H 9837   9.306   1.049   6.875 -0.1994  1.4481 -2.3929
  814MOL0     H 9838   9.460   0.955   6.839  1.1276 -0.0123 -0.1419
  814MOL0     H 9839   9.441   1.205   7.021  1.6534  0.9251 -0.2520
  814MOL0     H 9840   9.586   1.154   6.942 -0.3308  0.4225 -2.4201
  814MOL0     H 9841   9.627   0.851   6.971  0.7717  0.8201 -1.5412
  814MOL0     H 9842   9.696   0.682   7.121  1.4240  0.2007  1.7160
  814MOL0     H 9843   9.715   0.736   7.294 -1.0496 -0.9287  1.1752
  814MOL0     H 9844   9.598   0.505   7.248  2.2371  0.6710  2.9668
  814MOL0     H 9845   9.464   0.617   7.188 -0.5261  2.0242  1.3355
  814MOL0     H 9846   9.477   0.723   7.420  1.5755  0.6884  0.4717
  814MOL0     H 9847   9.569   0.581   7.469 -2.6491 -1.9210  1.0783
  814MOL0     H 9848   9.297   0.629   7.434  0.4302  0.5532  2.8758
  814MOL0     H 9849   9.362   0.523   7.541  1.9346  1.7017  0.4052
  814MOL0     H 9850   9.181   0.443   7.593  0.1191  1.4878 -0.7347
  814MOL0     H 9851   9.023   0.263   7.792  1.8454  1.3460  0.4810
  814MOL0     H 9852   8.995   0.425   7.728 -2.8466 -0.0989  0.6429
  814MOL0     H 9853   8.886   0.290   7.691  1.0443 -2.0057  1.0186
  814MOL0     H 9854   8.757   0.130   7.323  1.6172  0.2556  1.3217
  814MOL0     H 9855   8.513   0.142   7.327 -1.0771  1.0004  1.1308
  814MOL0     H 9856   8.318   0.165   7.509 -2.2445 -1.2443  0.8491
  814MOL0     H 9857   8.309   0.133   7.339  0.2331  2.2034  0.3552
  814MOL0     H 9858   8.117   0.004   7.361 -2.5914  0.7097 -0.0876
  814MOL0     H 9859   8.116   0.007   7.543  1.0296  0.3530  0.9786
  814MOL0     H 9860   7.949   0.184   7.433  0.1279 -0.6482  2.5821
  814MOL0     H 9861   8.083   0.236   7.328  4.4375 -2.6761  0.5704
  814MOL0     H 9862   8.007   0.354   7.564 -1.0894 -0.6208  0.8015
  814MOL0     H 9863   8.144   0.261   7.621 -0.0656  1.2886  0.6235
  814MOL0     H 9864   8.204   0.424   7.368  0.5072  4.9368  0.6059
  814MOL0     H 9865   8.312   0.381   7.497  0.6723 -1.2513 -3.9651
  814MOL0     H 9866   8.068   0.577   7.532  0.0942  1.9675  1.8497
  814MOL0     H 9867   8.185   0.526   7.657  1.1463 -2.3093 -1.1147
  814MOL0     H 9868   8.239   0.685   7.390 -3.0306 -0.1405  0.1717
  814MOL0     H 9869   8.353   0.664   7.528 -0.3722  2.0188  0.0146
  814MOL0     H 9870   8.244   0.895   7.536  0.7693  1.0141  1.1175
  814MOL0     H 9871   8.187   0.789   7.663 -0.3797  0.8168 -0.5265
  814MOL0     H 9872   8.495  -0.176   7.594 -0.0801 -0.0920  0.3437
  814MOL0     H 9873   8.754  -0.207   7.596 -1.7472  2.2531  3.5404
  814MOL0     H 9874   9.098   0.044   7.323 -0.5350  0.3182  0.6759
  814MOL0     H 9875   9.249   0.210   7.234 -2.0228 -1.3796 -0.4274
  814MOL0     H 9876   9.467   1.804   6.744  1.8120 -0.6610  0.8447
  814MOL0     H 9877   9.607   2.004   6.658  1.5320 -3.3027  0.8873
  814MOL0     H 9878   9.873   2.292   6.655  0.4366  0.6520 -1.4478
  814MOL0     H 9879  10.046   2.436   6.586 -1.5533 -2.3925  1.1853
  814MOL0     H 9880  10.196   2.628   6.588  1.1713  0.0640 -1.0686
  814MOL0     H 9881  10.082   2.688   6.476  0.8928 -2.7528  0.3141
  814MOL0     H 9882  10.181   2.920   6.558  0.2523  0.1718  0.7025
  814MOL0     H 9883  10.277   2.821   6.442  0.1933 -1.7712 -0.1664
  814MOL0     H 9884  10.430   2.742   6.660  0.8332  1.0453 -3.0559
  814MOL0     H 9885  10.300   2.797   6.754  1.2974 -4.3853 -0.4881
  814MOL0     H 9886  10.385   3.027   6.672  0.1117 -0.7082 -1.3962
  814MOL0     H 9887  10.486   2.940   6.555  0.9598 -1.1521  0.4585
  814MOL0     H 9888  10.713   2.920   6.909 -0.0800 -4.3363 -0.4757
  814MOL0     H 9889   9.848   2.765   6.793 -1.4658 -0.8897  2.3615
  814MOL0     H 9890   9.682   2.604   6.890 -1.5554 -1.1357 -0.2328
  815MOL0     O 9891  11.311   1.411   3.248  0.3537  0.7488  0.0085
  815MOL0     C 9892  11.282   1.503   3.174  0.0108 -0.0536 -0.0557
  815MOL0     O 9893  11.203   1.603   3.205  0.0366  0.1749  0.2052
  815MOL0     C 9894  11.118   1.568   3.307 -1.1503  0.3269  1.0182
  815MOL0     C 9895  11.162   1.535   3.439 -0.1721 -0.3911 -0.2309
  815MOL0     C 9896  11.067   1.496   3.534  0.3182  0.2893 -0.0718
  815MOL0     C 9897  10.935   1.479   3.507 -0.6158  0.7178  0.0736
  815MOL0     O 9898  10.856   1.429   3.610  0.6858  0.7980 -0.4442
  815MOL0     C 9899  10.734   1.502   3.634  0.1560  0.8413  0.0494
  815MOL0     C 9900  10.629   1.417   3.586  1.3320 -0.3641 -0.7321
  815MOL0     C 9901  10.491   1.475   3.577  0.7350  0.6568 -0.3651
  815MOL0     C 9902  10.469   1.543   3.446 -0.2487 -0.3860  0.1147
  815MOL0     C 9903  10.323   1.597   3.418 -0.0088 -0.3032  0.5396
  815MOL0     C 9904  10.264   1.686   3.540 -0.8720  0.1907  0.1919
  815MOL0     C 9905  10.334   1.817   3.556 -0.0649  0.0498 -0.1883
  815MOL0     C 9906  10.232   1.938   3.615 -0.3848  0.4289 -0.5729
  815MOL0     N 9907  10.132   1.966   3.494 -0.5323  0.0565 -0.3710
  815MOL0     C 9908  10.163   2.041   3.383 -0.5416 -0.0890  0.0525
  815MOL0     C 9909  10.043   2.049   3.310  0.6035  0.0380  0.5838
  815MOL0     C 9910  10.004   2.122   3.178  0.1233  0.1185  0.1272
  815MOL0     C 9911   9.925   2.026   3.080  0.2502  1.0300  1.0319
  815MOL0     C 9912   9.996   1.966   2.959 -0.3694 -0.1061 -0.4751
  815MOL0     C 9913  10.119   1.886   3.003 -0.2292 -0.0461  0.6237
  815MOL0     O 9914  10.201   1.856   2.893 -0.2913 -0.5949  0.3927
  815MOL0     C 9915  10.335   1.825   2.910  0.1556 -0.7266  0.5798
  815MOL0     C 9916  10.382   1.773   3.029  0.2149 -0.0134  0.9697
  815MOL0     C 9917  10.515   1.738   3.039  0.3444  0.2949  0.5110
  815MOL0     C 9918  10.548   1.690   3.169 -0.9986  0.6050  0.8909
  815MOL0     C 9919  10.608   1.746   2.927 -0.5613  0.6974  0.5110
  815MOL0     C 9920  10.750   1.690   2.918  1.0530 -0.3298  0.7110
  815MOL0     O 9921  10.823   1.724   2.810  0.4432  0.7522  0.3240
  815MOL0     C 9922  10.899   1.634   2.746 -0.0876  0.4009  0.7423
  815MOL0     C 9923  10.921   1.495   2.772  0.9195  0.1060 -0.1177
  815MOL0     C 9924  11.003   1.424   2.688 -0.6592 -0.1478  0.2927
  815MOL0     C 9925  11.068   1.481   2.574  0.0362  0.8993 -1.3426
  815MOL0     O 9926  11.146   1.410   2.488  0.1490  0.3336 -0.2638
  815MOL0     C 9927  11.241   1.322   2.542 -0.2377  1.2174 -0.1519
  815MOL0     C 9928  11.319   1.249   2.427  0.4300 -0.3919 -0.6062
  815MOL0     C 9929  11.437   1.176   2.490  0.5465 -0.3209  0.3806
  815MOL0     C 9930  11.446   1.038   2.423  0.3425 -0.2934  0.0728
  815MOL0     C 9931  11.346   0.921   2.462 -0.1915 -0.7522 -0.1091
  815MOL0     C 9932  11.415   0.794   2.407  0.6782  0.8652  0.7264
  815MOL0     C 9933  11.364   0.660   2.462  0.2019 -0.3669  0.2102
  815MOL0     C 9934  11.474   0.559   2.445 -0.3763 -0.3720 -0.2297
  815MOL0    Cl 9935  11.619   0.576   2.553  0.2410 -0.2040 -0.1785
  815MOL0     C 9936  11.065   1.620   2.568  0.9462  0.3557  0.8013
  815MOL0     C 9937  10.980   1.696   2.648 -0.2945  0.0803  0.3296
  815MOL0     O 9938  10.772   1.601   3.000 -1.1134  0.7452  0.4040
  815MOL0     C 9939  10.551   1.798   2.799 -0.3274  0.5033 -1.8875
  815MOL0     C 9940  10.416   1.832   2.792 -0.4728 -1.0292  0.5985
  815MOL0     N 9941   9.946   1.992   3.386  0.0920 -0.0974 -0.1454
  815MOL0     N 9942   9.998   1.943   3.496 -0.2751 -0.1378  0.4814
  815MOL0     C 9943  10.888   1.513   3.380  0.6122  0.5123  0.2941
  815MOL0     C 9944  10.984   1.554   3.278  0.9838  0.2502  0.0902
  815MOL0     C 9945  11.348   1.520   3.052 -0.8352  0.2088 -0.0360
  815MOL0     C 9946  11.485   1.476   3.032  0.6763  0.0248 -0.0590
  815MOL0     C 9947  11.552   1.493   2.907  0.3487 -0.7109 -0.0979
  815MOL0     C 9948  11.474   1.531   2.795  0.1313 -0.9935  0.0169
  815MOL0     O 9949  11.541   1.553   2.679 -0.0928  0.4178 -0.0958
  815MOL0     C 9950  11.493   1.643   2.579  0.1800  0.5596  0.0162
  815MOL0     C 9951  11.482   1.792   2.608 -0.0410  0.4702 -0.7003
  815MOL0     C 9952  11.441   1.887   2.484 -0.8010  0.5376  0.2762
  815MOL0     C 9953  11.365   2.015   2.521 -1.0516  0.2716 -0.1097
  815MOL0     C 9954  11.435   2.091   2.624 -0.1060 -0.0669 -0.7541
  815MOL0     C 9955  11.482   2.163   2.719 -0.8175  0.3987  0.2014
  815MOL0     C 9956  11.339   1.566   2.808  0.2864 -0.1429  0.2920
  815MOL0     C 9957  11.279   1.566   2.942 -0.0917  0.5288  0.6432
  815MOL0     H 9958  11.267   1.517   3.458 -0.4737 -1.9492  0.1760
  815MOL0     H 9959  11.103   1.463   3.631  0.0716 -0.6001 -0.2746
  815MOL0     H 9960  10.721   1.511   3.742  0.3052 -2.1470  0.4230
  815MOL0     H 9961  10.733   1.600   3.586 -1.2993  1.7308  1.7831
  815MOL0     H 9962  10.655   1.380   3.486 -0.7804 -0.0542 -1.4456
  815MOL0     H 9963  10.626   1.325   3.645 -1.4291 -0.3651 -0.7566
  815MOL0     H 9964  10.423   1.390   3.581  2.3194 -0.6418  3.3560
  815MOL0     H 9965  10.476   1.540   3.663  0.8490  1.4364 -0.9227
  815MOL0     H 9966  10.538   1.628   3.437 -1.8501  1.2032  1.7793
  815MOL0     H 9967  10.492   1.476   3.363  0.2216 -0.9219  0.6609
  815MOL0     H 9968  10.308   1.652   3.325  2.0086  2.5718  1.7785
  815MOL0     H 9969  10.269   1.502   3.408  0.8282 -0.7541  0.2262
  815MOL0     H 9970  10.158   1.702   3.520 -0.4387  2.4771 -0.6262
  815MOL0     H 9971  10.279   1.628   3.631 -1.6389  0.8130  0.7277
  815MOL0     H 9972  10.423   1.806   3.618  0.0506 -2.5444 -0.7252
  815MOL0     H 9973  10.361   1.857   3.458 -1.5753 -1.5974 -1.3425
  815MOL0     H 9974  10.292   2.024   3.643  3.5491 -1.8398 -1.3253
  815MOL0     H 9975  10.173   1.914   3.705  1.4427 -0.6607  0.4017
  815MOL0     H 9976  10.257   2.078   3.342  0.3598 -0.4366  1.7364
  815MOL0     H 9977   9.940   2.208   3.202  0.9187  0.3540  1.5017
  815MOL0     H 9978  10.095   2.166   3.138  0.0542  0.2799  0.1465
  815MOL0     H 9979   9.858   2.092   3.024 -1.4542 -1.8072 -0.5046
  815MOL0     H 9980   9.864   1.950   3.130 -0.9196 -1.6887 -3.9034
  815MOL0     H 9981  10.023   2.042   2.885 -1.0874  1.9705  1.3037
  815MOL0     H 9982   9.934   1.887   2.915  0.4145 -2.2904  2.0499
  815MOL0     H 9983  10.086   1.794   3.052 -2.8321  0.2189 -0.5071
  815MOL0     H 9984  10.178   1.942   3.076  1.5402 -2.4936  1.2147
  815MOL0     H 9985  10.311   1.762   3.110  1.5940  0.2647  2.2692
  815MOL0     H 9986  10.647   1.648   3.188 -0.5813  0.6993 -0.9231
  815MOL0     H 9987  10.515   1.766   3.240 -1.0896 -0.6781  2.2707
  815MOL0     H 9988  10.481   1.604   3.179  2.2102 -2.2168 -0.1168
  815MOL0     H 9989  10.865   1.439   2.846  0.6599  0.8190  0.2285
  815MOL0     H 9990  11.005   1.316   2.695 -1.6199 -0.2118 -0.3854
  815MOL0     H 9991  11.303   1.371   2.618 -2.4419  1.1207  1.8380
  815MOL0     H 9992  11.195   1.235   2.589  1.8258 -0.3273 -0.8556
  815MOL0     H 9993  11.253   1.174   2.384  3.0065 -3.3543  0.2868
  815MOL0     H 9994  11.354   1.311   2.343  0.7868 -0.6991 -0.6853
  815MOL0     H 9995  11.416   1.158   2.596 -1.7914 -1.3381 -0.1867
  815MOL0     H 9996  11.528   1.235   2.481 -0.4434  1.8261  3.0614
  815MOL0     H 9997  11.439   1.055   2.315  1.0131  1.7551  0.3087
  815MOL0     H 9998  11.546   1.003   2.451  1.2818  0.3125 -2.2793
  815MOL0     H 9999  11.240   0.923   2.433 -0.7473 -1.1769  1.7262
  815MOL0     H10000  11.337   0.913   2.571 -0.6545  1.1119  0.0366
  815MOL0     H10001  11.401   0.786   2.299 -2.0600  0.4010  1.0385
  815MOL0     H10002  11.523   0.794   2.427  1.1090  1.8797 -1.2765
  815MOL0     H10003  11.275   0.627   2.407  2.8382 -2.0849 -3.4895
  815MOL0     H10004  11.344   0.679   2.568  1.6129 -0.0905  0.4434
  815MOL0     H10005  11.515   0.562   2.343  2.3859 -0.8008  0.8049
  815MOL0     H10006  11.443   0.459   2.478  1.8485 -1.0683 -0.0797
  815MOL0     H10007  11.103   1.671   2.480 -0.4741 -1.6822 -1.0814
  815MOL0     H10008  10.971   1.800   2.620  0.3159 -0.1751 -0.8803
  815MOL0     H10009  10.610   1.824   2.712 -1.1726 -0.8194 -2.8755
  815MOL0     H10010  10.387   1.861   2.691 -0.1120  1.9150  1.2669
  815MOL0     H10011  10.785   1.494   3.351  0.5359 -1.6585  1.7856
  815MOL0     H10012  10.960   1.566   3.173  0.8542 -1.0017 -0.0468
  815MOL0     H10013  11.541   1.457   3.123  1.4543  1.0045 -0.3172
  815MOL0     H10014  11.655   1.462   2.893  1.2344  0.8796  2.3296
  815MOL0     H10015  11.551   1.637   2.486 -1.2628  0.1401 -0.8854
  815MOL0     H10016  11.399   1.596   2.547 -0.6273  1.0329  1.5848
  815MOL0     H10017  11.585   1.823   2.627  0.4843  0.1679 -2.8028
  815MOL0     H10018  11.404   1.803   2.683  0.9101  1.3376  0.1762
  815MOL0     H10019  11.398   1.836   2.398  2.1564  2.5767 -2.6603
  815MOL0     H10020  11.537   1.923   2.448 -0.5810  3.0037  2.9634
  815MOL0     H10021  11.270   1.993   2.571 -1.1518 -0.1899 -0.4942
  815MOL0     H10022  11.346   2.070   2.429  0.4701  1.7598  0.4051
  815MOL0     H10023  11.539   2.217   2.792  0.9068 -0.7663 -0.2067
  815MOL0     H10024  11.274   1.603   2.729 -0.9960 -1.0248  0.8968
  815MOL0     H10025  11.175   1.593   2.945  0.1334  1.4296  0.4322
  816MOL0     O10026   2.891   3.936   5.104 -0.1903 -0.9177  0.1283
  816MOL0     C10027   2.883   3.949   4.975  1.0306 -0.0144 -0.1822
  816MOL0     O10028   2.986   3.977   4.893  0.0480 -1.4334  0.3478
  816MOL0     C10029   3.103   4.001   4.960  0.2082  0.3288  1.1810
  816MOL0     C10030   3.140   4.123   5.000 -0.7426 -0.5534  1.0701
  816MOL0     C10031   3.270   4.141   5.055  0.0119 -0.5366  0.1576
  816MOL0     C10032   3.351   4.034   5.082  0.1496 -0.2617 -0.2949
  816MOL0     O10033   3.468   4.028   5.151  0.9997  0.1362 -0.3555
  816MOL0     C10034   3.552   4.139   5.174 -1.0810 -0.1246  0.2937
  816MOL0     C10035   3.514   4.222   5.291  0.0558 -0.1870  0.6681
  816MOL0     C10036   3.616   4.224   5.406 -0.3110  0.5496  0.9496
  816MOL0     C10037   3.742   4.302   5.359 -0.0375  0.3189  0.1142
  816MOL0     C10038   3.858   4.283   5.455  1.8894  0.2149  0.0782
  816MOL0     C10039   3.969   4.381   5.404 -0.0881  0.7747 -0.4837
  816MOL0     C10040   4.088   4.395   5.513 -0.6243 -0.8706  0.3703
  816MOL0     C10041   4.222   4.458   5.453 -0.0476 -0.4664  0.4766
  816MOL0     N10042   4.316   4.451   5.568 -0.0536 -0.3457  0.0160
  816MOL0     C10043   4.386   4.347   5.613 -0.1472  0.9147  0.5406
  816MOL0     C10044   4.447   4.374   5.727  0.2026  0.8581 -0.4228
  816MOL0     C10045   4.524   4.277   5.809 -0.6725  0.3976  0.1640
  816MOL0     C10046   4.644   4.206   5.729  0.3816 -0.0349  0.1514
  816MOL0     C10047   4.755   4.299   5.682  0.2028  0.0696  0.1381
  816MOL0     C10048   4.839   4.354   5.794 -0.2403 -0.5895  0.5015
  816MOL0     O10049   4.904   4.245   5.861  0.4278  0.5485 -0.2629
  816MOL0     C10050   5.033   4.231   5.872  0.3931  0.3093  0.5360
  816MOL0     C10051   5.098   4.217   5.992 -1.0398  1.5497 -0.1482
  816MOL0     C10052   5.229   4.175   6.005 -0.5748  0.0070 -0.5089
  816MOL0     C10053   5.290   4.152   6.136  0.1167  0.5391  1.0272
  816MOL0     C10054   5.303   4.136   5.886 -0.2297 -0.4775  0.4540
  816MOL0     C10055   5.437   4.090   5.881 -1.2181  0.0027 -0.1097
  816MOL0     O10056   5.473   3.993   5.971  0.0260 -0.2374 -0.9563
  816MOL0     C10057   5.606   3.953   5.992 -0.6594  0.1315 -0.2393
  816MOL0     C10058   5.721   4.026   5.968  0.1963  0.8397  0.4193
  816MOL0     C10059   5.847   3.985   6.004 -0.9933  0.7266 -0.5228
  816MOL0     C10060   5.868   3.874   6.089 -0.3914 -0.5475 -0.3025
  816MOL0     O10061   6.002   3.828   6.114  0.0427  0.1249 -0.1239
  816MOL0     C10062   6.027   3.708   6.182 -0.6316  0.1528 -0.4143
  816MOL0     C10063   6.168   3.666   6.192 -0.6911  0.9153  0.2671
  816MOL0     C10064   6.182   3.507   6.215  0.1284  0.9205 -0.2936
  816MOL0     C10065   6.316   3.451   6.256  0.4985 -0.7743  0.6945
  816MOL0     C10066   6.309   3.325   6.335  0.9871 -0.0186 -0.4122
  816MOL0     C10067   6.249   3.207   6.242  0.6576 -0.5929 -0.8900
  816MOL0     C10068   6.226   3.082   6.330 -0.1999  0.2632 -0.7949
  816MOL0     C10069   6.163   2.971   6.246  0.2671 -0.6855  0.2905
  816MOL0    Cl10070   6.124   2.836   6.343  0.0658  0.1226 -0.2440
  816MOL0     C10071   5.754   3.800   6.124 -0.1556  0.2433 -0.5506
  816MOL0     C10072   5.629   3.832   6.072  0.7069 -0.0759 -0.4633
  816MOL0     O10073   5.504   4.132   5.792 -0.2200 -0.5484  0.4459
  816MOL0     C10074   5.237   4.152   5.761  0.3726  0.4644 -0.3117
  816MOL0     C10075   5.105   4.194   5.755 -0.0091 -0.0459 -0.1430
  816MOL0     N10076   4.399   4.497   5.774  0.1482  0.4113  0.4644
  816MOL0     N10077   4.314   4.535   5.678 -0.5567 -0.1430 -0.1416
  816MOL0     C10078   3.308   3.910   5.039  0.0072  0.6904  0.2511
  816MOL0     C10079   3.189   3.892   4.978  1.3312 -0.0531 -0.4561
  816MOL0     C10080   2.751   3.933   4.922  0.3040  0.7514  0.0301
  816MOL0     C10081   2.636   3.922   5.011 -0.6020 -0.2541 -0.0283
  816MOL0     C10082   2.506   3.916   4.955  0.3097  0.7175  1.0780
  816MOL0     C10083   2.486   3.922   4.815 -0.6257 -1.7594  1.5377
  816MOL0     O10084   2.373   3.913   4.743 -0.0350  0.2487  1.1282
  816MOL0     C10085   2.275   4.009   4.775 -0.0439 -0.4148  0.2326
  816MOL0     C10086   2.133   3.968   4.715 -0.1404 -0.1733  0.0628
  816MOL0     C10087   2.117   4.033   4.579 -0.9311  0.8533 -0.2439
  816MOL0     C10088   2.184   3.949   4.465 -0.3663  0.4509  0.1917
  816MOL0     C10089   2.210   4.049   4.358 -0.2743  0.5507 -0.2982
  816MOL0     C10090   2.244   4.127   4.274 -0.2874 -0.2495  0.5805
  816MOL0     C10091   2.601   3.920   4.732  0.1771 -0.0554 -1.2669
  816MOL0     C10092   2.730   3.935   4.786  0.3406  0.5890 -0.1538
  816MOL0     H10093   3.079   4.204   4.963  0.8291 -1.2758 -3.6954
  816MOL0     H10094   3.294   4.244   5.075  3.0187 -1.0499 -0.3055
  816MOL0     H10095   3.646   4.084   5.182 -0.2022  1.0029 -1.4783
  816MOL0     H10096   3.562   4.200   5.083  0.2255  0.0311  0.5295
  816MOL0     H10097   3.502   4.325   5.257  2.4771 -1.1746 -3.9690
  816MOL0     H10098   3.425   4.174   5.334  1.2405 -0.5440  2.8909
  816MOL0     H10099   3.591   4.271   5.502  1.0025 -0.2673  1.7153
  816MOL0     H10100   3.652   4.122   5.423  1.6591  1.0370 -0.0790
  816MOL0     H10101   3.779   4.255   5.268  1.5692  2.4728 -0.4196
  816MOL0     H10102   3.714   4.407   5.341 -4.9359 -0.3782  2.1429
  816MOL0     H10103   3.841   4.319   5.557  2.2634  1.2021 -0.2013
  816MOL0     H10104   3.883   4.177   5.443 -1.8699 -0.6611 -1.6098
  816MOL0     H10105   4.011   4.344   5.310  1.3054 -2.9026  1.4102
  816MOL0     H10106   3.928   4.482   5.389  0.4804  1.5016  2.1664
  816MOL0     H10107   4.045   4.473   5.576 -1.0751 -0.3305 -0.5804
  816MOL0     H10108   4.114   4.298   5.557  3.6622 -0.3231 -0.5265
  816MOL0     H10109   4.221   4.561   5.419 -1.3470 -0.8490 -0.7285
  816MOL0     H10110   4.263   4.407   5.365  2.6358  3.1740 -0.6056
  816MOL0     H10111   4.381   4.251   5.563  3.5551  0.5972  0.4805
  816MOL0     H10112   4.563   4.327   5.898  0.0364 -1.4197  0.9057
  816MOL0     H10113   4.463   4.194   5.846  0.6557 -0.1635  1.1585
  816MOL0     H10114   4.602   4.162   5.638  1.6426 -1.6953  0.3387
  816MOL0     H10115   4.689   4.126   5.788  1.7394 -1.9384 -3.2412
  816MOL0     H10116   4.716   4.388   5.632  1.0431 -0.6911 -1.9775
  816MOL0     H10117   4.816   4.250   5.607  0.2628 -1.8942  1.4083
  816MOL0     H10118   4.783   4.413   5.868  1.3589  1.7068  0.0045
  816MOL0     H10119   4.918   4.420   5.757 -1.6736  1.4931  0.9539
  816MOL0     H10120   5.035   4.248   6.075  1.8544  0.5515  2.6645
  816MOL0     H10121   5.241   4.223   6.204 -3.3508  0.4544 -1.1597
  816MOL0     H10122   5.275   4.049   6.170 -0.3976  0.3882  0.3605
  816MOL0     H10123   5.394   4.185   6.125 -0.6155  2.4039 -0.9759
  816MOL0     H10124   5.709   4.114   5.904  2.2337  2.0819  1.6377
  816MOL0     H10125   5.939   4.035   5.974  1.2250 -0.8097  3.0377
  816MOL0     H10126   5.997   3.719   6.287  1.4027 -0.6175  0.2893
  816MOL0     H10127   5.967   3.628   6.137  0.3937 -0.1885 -1.2166
  816MOL0     H10128   6.206   3.695   6.093 -1.6889  0.4072 -0.2808
  816MOL0     H10129   6.219   3.716   6.275  3.2027  2.6846 -2.8491
  816MOL0     H10130   6.145   3.457   6.125 -2.2502  1.5418  0.2698
  816MOL0     H10131   6.117   3.485   6.300  0.7704  0.1796  0.0123
  816MOL0     H10132   6.375   3.439   6.165 -0.3735  0.1027  0.0016
  816MOL0     H10133   6.365   3.527   6.317  0.7150  1.6501 -2.3046
  816MOL0     H10134   6.242   3.344   6.420  0.6868 -2.0136 -0.1426
  816MOL0     H10135   6.411   3.293   6.360  2.8010  2.9926 -3.2018
  816MOL0     H10136   6.159   3.226   6.183 -0.0751  0.1172  0.4203
  816MOL0     H10137   6.317   3.176   6.162  2.7799  1.9024 -0.2104
  816MOL0     H10138   6.159   3.103   6.414  1.1345  2.3800 -0.1654
  816MOL0     H10139   6.315   3.039   6.377 -0.8096  0.9303  1.0978
  816MOL0     H10140   6.233   2.947   6.166  1.9339  0.9062  1.1932
  816MOL0     H10141   6.072   3.004   6.195  2.1497  1.9153 -1.5883
  816MOL0     H10142   5.770   3.705   6.175  2.1320  0.2035 -1.2397
  816MOL0     H10143   5.539   3.784   6.110  0.4108  0.9348  0.1580
  816MOL0     H10144   5.283   4.129   5.665  1.8200 -2.1619  0.9310
  816MOL0     H10145   5.049   4.193   5.662  0.0705  1.2653 -0.2361
  816MOL0     H10146   3.368   3.819   5.045  1.2370  1.5177  1.1384
  816MOL0     H10147   3.169   3.791   4.942 -2.8591  1.1107 -2.0247
  816MOL0     H10148   2.642   3.921   5.119 -1.0477  2.2243  0.0678
  816MOL0     H10149   2.430   3.908   5.033  2.9010  0.0033  3.7362
  816MOL0     H10150   2.247   4.013   4.881 -4.0054  0.5833 -0.6679
  816MOL0     H10151   2.319   4.107   4.751  1.8605 -0.5267  2.8659
  816MOL0     H10152   2.046   3.987   4.778 -0.2085 -0.4685  0.0617
  816MOL0     H10153   2.135   3.859   4.701  2.0319 -0.1244 -0.3505
  816MOL0     H10154   2.168   4.129   4.594  0.5042 -0.2761  3.1949
  816MOL0     H10155   2.011   4.032   4.552 -1.1444 -0.4343  0.5566
  816MOL0     H10156   2.128   3.857   4.442 -0.0741  0.1576  0.6349
  816MOL0     H10157   2.277   3.909   4.506 -1.2397  0.0400  1.8420
  816MOL0     H10158   2.275   4.193   4.195 -0.0947 -3.3232 -2.1159
  816MOL0     H10159   2.579   3.910   4.627 -0.6171  2.5715 -1.4134
  816MOL0     H10160   2.816   3.930   4.720  0.7648  0.8264  0.3729
  817MOL0     O10161   7.882  10.280   0.296  0.1343 -0.4614  0.2057
  817MOL0     C10162   7.826  10.294   0.404 -0.2679 -0.2566 -0.1913
  817MOL0     O10163   7.730  10.216   0.454 -0.7998 -1.2488 -0.3994
  817MOL0     C10164   7.706  10.103   0.388 -0.6610  0.2102  0.6185
  817MOL0     C10165   7.751   9.991   0.453  0.4510 -0.3918  0.9943
  817MOL0     C10166   7.741   9.862   0.386 -0.5388  0.1702 -0.3757
  817MOL0     C10167   7.677   9.857   0.264  0.1290  1.3810 -0.7767
  817MOL0     O10168   7.675   9.738   0.192 -0.8663 -0.2649  0.6872
  817MOL0     C10169   7.700   9.616   0.257 -0.6416 -0.5839 -0.5704
  817MOL0     C10170   7.620   9.506   0.185 -0.3852 -0.7908 -0.3825
  817MOL0     C10171   7.662   9.370   0.237  1.1671  0.5718  0.3083
  817MOL0     C10172   7.797   9.325   0.184  0.0262  0.8059  0.1492
  817MOL0     C10173   7.831   9.189   0.247  0.1725  0.0212  0.0735
  817MOL0     C10174   7.969   9.143   0.210 -0.3362  0.1244  0.6838
  817MOL0     C10175   8.018   9.007   0.262 -0.1310 -0.0072 -0.1594
  817MOL0     C10176   8.137   8.947   0.175 -0.4876  0.3671 -0.4521
  817MOL0     N10177   8.188   8.805   0.205 -0.0476 -0.4294 -0.8317
  817MOL0     C10178   8.126   8.717   0.286  0.4087  0.0810 -0.1021
  817MOL0     C10179   8.203   8.607   0.275 -0.9137 -0.0465 -0.4483
  817MOL0     C10180   8.180   8.478   0.351 -0.0376  0.3263  0.6485
  817MOL0     C10181   8.290   8.423   0.452  0.1701  0.6127 -0.4460
  817MOL0     C10182   8.270   8.269   0.472  0.1634 -0.4735 -0.1456
  817MOL0     C10183   8.350   8.223   0.600 -0.1248 -0.1677  0.3773
  817MOL0     O10184   8.346   8.084   0.614  0.0436  1.2072 -0.5842
  817MOL0     C10185   8.419   7.987   0.546 -1.0646 -0.4841  0.2773
  817MOL0     C10186   8.512   8.012   0.440 -0.3850 -0.2031  0.5732
  817MOL0     C10187   8.583   7.905   0.381 -0.2356 -0.2287 -0.7040
  817MOL0     C10188   8.694   7.951   0.288 -0.1518  0.8322  0.2545
  817MOL0     C10189   8.550   7.770   0.429 -1.2925  0.5996  0.4990
  817MOL0     C10190   8.613   7.655   0.356  0.7594 -0.3233 -1.1793
  817MOL0     O10191   8.690   7.572   0.417  0.6297  0.0481  0.6341
  817MOL0     C10192   8.710   7.574   0.553 -0.5468  0.4764 -0.6105
  817MOL0     C10193   8.785   7.673   0.605  1.8678 -0.3231 -0.6644
  817MOL0     C10194   8.809   7.668   0.744  0.4766 -0.0068 -0.1374
  817MOL0     C10195   8.764   7.559   0.822  0.0313  0.1675  0.2024
  817MOL0     O10196   8.794   7.546   0.954 -0.1544 -0.5629 -0.9227
  817MOL0     C10197   8.894   7.631   1.020 -0.5642  0.2503 -0.0572
  817MOL0     C10198   8.932   7.568   1.164 -0.3800  0.5702  0.6474
  817MOL0     C10199   9.005   7.430   1.156  0.7813 -0.5349  0.4289
  817MOL0     C10200   9.148   7.441   1.108  0.0621  0.8040 -0.8270
  817MOL0     C10201   9.199   7.294   1.082  0.1786 -0.3281  0.0599
  817MOL0     C10202   9.113   7.231   0.973  0.0664  0.7219  1.0726
  817MOL0     C10203   9.096   7.314   0.846 -0.5339  0.0452 -0.2520
  817MOL0     C10204   9.018   7.245   0.741  0.4719 -0.7517 -0.0192
  817MOL0    Cl10205   9.083   7.091   0.668  0.0679  0.4470  0.0929
  817MOL0     C10206   8.704   7.451   0.758  0.1372  0.1585 -0.6084
  817MOL0     C10207   8.677   7.465   0.625  0.1920  1.0681 -0.9664
  817MOL0     O10208   8.596   7.653   0.239  0.4223 -0.4806  0.6493
  817MOL0     C10209   8.471   7.749   0.540  0.2422 -0.9498  0.2773
  817MOL0     C10210   8.407   7.856   0.594 -0.1759  0.0743 -1.2550
  817MOL0     N10211   8.309   8.635   0.184 -0.3077 -0.8070 -0.6241
  817MOL0     N10212   8.296   8.756   0.138  0.6867  0.5219  0.2807
  817MOL0     C10213   7.620   9.972   0.205 -1.2478 -0.0405  0.1337
  817MOL0     C10214   7.629  10.096   0.270  0.4616  0.6000 -0.3046
  817MOL0     C10215   7.875  10.405   0.499 -0.0715  1.2955 -0.4161
  817MOL0     C10216   7.980  10.496   0.475  0.2050 -0.2623 -0.0491
  817MOL0     C10217   8.009  10.600   0.570 -0.0202  0.2273  0.3356
  817MOL0     C10218   7.940  10.621   0.688 -0.4053 -0.3715  0.3947
  817MOL0     O10219   7.963  10.705   0.790  0.2433 -0.2294 -0.0989
  817MOL0     C10220   8.098  10.756   0.791  0.2239 -0.3355  0.3648
  817MOL0     C10221   8.204  10.648   0.819 -0.1796  0.1571  0.0406
  817MOL0     C10222   8.337  10.697   0.878  0.0070 -1.2042 -1.0278
  817MOL0     C10223   8.340  10.687   1.030  0.5520  0.0199 -0.3727
  817MOL0     C10224   8.228  10.758   1.093  0.1415 -0.0077 -0.1129
  817MOL0     C10225   8.142  10.815   1.159 -1.1689  0.0548 -0.4911
  817MOL0     C10226   7.840  10.520   0.711 -0.0743 -0.7900 -0.2700
  817MOL0     C10227   7.812  10.419   0.626  0.8480  0.0226  0.3765
  817MOL0     H10228   7.796   9.994   0.551  1.1963  4.2637  0.7452
  817MOL0     H10229   7.777   9.771   0.434  0.6419  1.3190  1.0180
  817MOL0     H10230   7.807   9.602   0.244  0.4789  1.5994  4.3660
  817MOL0     H10231   7.660   9.622   0.358 -2.8005  1.8222 -1.4354
  817MOL0     H10232   7.514   9.515   0.211 -0.6224 -1.4384 -1.0802
  817MOL0     H10233   7.627   9.532   0.079  3.1436  1.2417  0.1811
  817MOL0     H10234   7.651   9.360   0.345 -1.0960 -1.3762 -0.0287
  817MOL0     H10235   7.598   9.288   0.204 -1.4607  1.5510  2.6005
  817MOL0     H10236   7.798   9.320   0.075  0.5297  0.4284  0.1639
  817MOL0     H10237   7.868   9.401   0.220  0.7970 -0.3450  1.1531
  817MOL0     H10238   7.827   9.202   0.355  1.4284 -0.7008  0.2291
  817MOL0     H10239   7.751   9.122   0.213 -0.5727  1.5035 -1.2470
  817MOL0     H10240   7.969   9.149   0.101 -0.4237 -1.5858  0.5537
  817MOL0     H10241   8.035   9.217   0.256 -0.7144  0.7274  0.2651
  817MOL0     H10242   8.059   9.003   0.363  2.0852  0.6579 -0.9881
  817MOL0     H10243   7.935   8.936   0.254 -0.7928  0.7023  0.2292
  817MOL0     H10244   8.226   9.011   0.174 -0.0716 -0.1734  0.9755
  817MOL0     H10245   8.098   8.936   0.073 -1.7943  1.9657 -0.1735
  817MOL0     H10246   8.045   8.743   0.354  0.9279  3.3641 -0.6092
  817MOL0     H10247   8.088   8.492   0.409  0.9045 -1.5824  2.7703
  817MOL0     H10248   8.169   8.402   0.274  1.7532  0.6440  0.0282
  817MOL0     H10249   8.278   8.478   0.546 -1.0609  0.7136 -0.6520
  817MOL0     H10250   8.392   8.432   0.412  0.9545 -1.2097  0.9753
  817MOL0     H10251   8.287   8.219   0.376 -1.7855  2.4365 -2.1623
  817MOL0     H10252   8.168   8.239   0.498 -0.2566 -2.8042 -3.6581
  817MOL0     H10253   8.306   8.274   0.686  1.7432  1.0153  0.6964
  817MOL0     H10254   8.454   8.255   0.593 -0.3819  1.0943  1.6855
  817MOL0     H10255   8.511   8.116   0.412 -0.3584 -0.0850  1.0061
  817MOL0     H10256   8.672   7.927   0.184  1.9064  0.3900 -0.1328
  817MOL0     H10257   8.722   8.056   0.299  0.3544  0.7418 -0.1306
  817MOL0     H10258   8.778   7.886   0.313 -2.4871 -1.7176  2.1476
  817MOL0     H10259   8.808   7.765   0.552 -0.7945 -0.2467 -1.8350
  817MOL0     H10260   8.862   7.750   0.791  1.9362  1.1582 -3.4532
  817MOL0     H10261   8.989   7.639   0.966  0.5409  2.9712  2.0307
  817MOL0     H10262   8.856   7.731   1.042  0.0593  0.1470  1.6968
  817MOL0     H10263   9.002   7.636   1.213 -2.1561  2.4874  0.6496
  817MOL0     H10264   8.850   7.566   1.237 -0.6239  2.0477  0.4290
  817MOL0     H10265   8.934   7.376   1.093  1.5401 -0.0088 -0.9359
  817MOL0     H10266   9.020   7.399   1.260 -0.7764 -0.0731  0.8105
  817MOL0     H10267   9.157   7.509   1.022  0.9997  0.0174 -1.3678
  817MOL0     H10268   9.213   7.484   1.185 -0.3026 -0.7551  0.3844
  817MOL0     H10269   9.195   7.234   1.173  0.5262  1.5504  1.3688
  817MOL0     H10270   9.299   7.296   1.037  0.4029 -2.7851  0.3236
  817MOL0     H10271   9.162   7.141   0.935  1.3424  1.8203  0.0311
  817MOL0     H10272   9.016   7.192   1.007 -0.1293 -0.5534 -0.8064
  817MOL0     H10273   9.192   7.332   0.796  0.3555  0.7215  1.6114
  817MOL0     H10274   9.057   7.415   0.863  1.7687  1.2444 -1.4958
  817MOL0     H10275   9.005   7.318   0.661 -1.0341 -0.9887 -0.0164
  817MOL0     H10276   8.921   7.211   0.779 -0.2558  0.7618 -0.4779
  817MOL0     H10277   8.682   7.361   0.815 -0.2637 -1.1436 -2.6849
  817MOL0     H10278   8.634   7.379   0.575  1.4724 -1.6291  2.1739
  817MOL0     H10279   8.457   7.653   0.590 -1.6355 -0.7021  0.2632
  817MOL0     H10280   8.339   7.837   0.677 -0.4686  2.7505 -0.7863
  817MOL0     H10281   7.579   9.974   0.104  1.4133 -1.3483 -1.0595
  817MOL0     H10282   7.580  10.180   0.222  1.3802 -0.1422 -2.7475
  817MOL0     H10283   8.041  10.485   0.385  1.4306  1.5191  0.5051
  817MOL0     H10284   8.096  10.658   0.541  3.2965 -4.9106 -1.4035
  817MOL0     H10285   8.126  10.802   0.695  0.4989 -2.6111 -0.6983
  817MOL0     H10286   8.109  10.837   0.864 -2.2991 -0.1009  0.5589
  817MOL0     H10287   8.225  10.600   0.723 -1.8818 -0.1950 -0.1931
  817MOL0     H10288   8.162  10.571   0.884  1.4160 -0.5349  0.2866
  817MOL0     H10289   8.346  10.801   0.847 -0.8210  0.4961  3.6268
  817MOL0     H10290   8.423  10.642   0.839  1.2835  0.3344 -0.4363
  817MOL0     H10291   8.429  10.738   1.069 -0.9810  3.9567 -1.4605
  817MOL0     H10292   8.335  10.584   1.064  0.9391  0.1974  0.2372
  817MOL0     H10293   8.073  10.882   1.206  0.5367  2.4304 -1.2027
  817MOL0     H10294   7.782  10.537   0.801  1.4143  0.8537  0.4459
  817MOL0     H10295   7.722  10.363   0.653  0.3095  1.2031  1.1136
  818MOL0     O10296   3.412   0.437   5.221  0.1088 -0.5059 -0.3386
  818MOL0     C10297   3.453   0.340   5.161  0.4204 -0.4564 -0.2680
  818MOL0     O10298   3.583   0.294   5.158 -0.3169 -0.4085 -0.8984
  818MOL0     C10299   3.679   0.384   5.211  0.7437  0.2178 -0.4008
  818MOL0     C10300   3.769   0.337   5.303  0.0835  0.7276 -0.3101
  818MOL0     C10301   3.873   0.414   5.358 -1.0447 -0.4575  0.8004
  818MOL0     C10302   3.881   0.547   5.316 -0.1215 -0.4144  0.4800
  818MOL0     O10303   3.993   0.618   5.363 -0.1308 -0.8122  0.4064
  818MOL0     C10304   3.986   0.762   5.359 -0.2534 -0.7618 -0.8826
  818MOL0     C10305   4.115   0.810   5.435  0.5403  0.0001  0.1137
  818MOL0     C10306   4.148   0.963   5.430  0.4189  0.3084 -0.7635
  818MOL0     C10307   4.195   0.987   5.279  0.4374 -0.3650 -1.0676
  818MOL0     C10308   4.220   1.141   5.248  0.2433  0.3512  0.0008
  818MOL0     C10309   4.282   1.156   5.113 -0.3763  0.1357 -0.0141
  818MOL0     C10310   4.302   1.303   5.084 -0.0327 -1.2743  0.6760
  818MOL0     C10311   4.300   1.342   4.932  0.0879  0.3590  0.2440
  818MOL0     N10312   4.271   1.479   4.901  0.6285  0.1217  1.2510
  818MOL0     C10313   4.172   1.530   4.820  0.0899  0.2469  0.6464
  818MOL0     C10314   4.169   1.660   4.830  0.0836 -0.5941  0.5520
  818MOL0     C10315   4.086   1.765   4.760  0.2497  0.2423 -0.0098
  818MOL0     C10316   4.013   1.723   4.627 -0.5250  0.2069 -1.3356
  818MOL0     C10317   4.095   1.655   4.521  0.1848 -0.0392  0.8443
  818MOL0     C10318   4.057   1.708   4.381  1.0125  0.3859  0.2226
  818MOL0     O10319   3.926   1.666   4.330 -0.2458  0.1463  0.4160
  818MOL0     C10320   3.899   1.698   4.193 -0.4199  0.5112 -0.4819
  818MOL0     C10321   3.985   1.650   4.094 -0.0697 -0.0462 -0.6091
  818MOL0     C10322   3.966   1.678   3.956 -0.0053  1.2501  1.4750
  818MOL0     C10323   4.076   1.636   3.858  0.3948 -0.1843 -0.2307
  818MOL0     C10324   3.855   1.748   3.911 -0.8083  0.9102 -0.4982
  818MOL0     C10325   3.819   1.784   3.768  0.6610 -0.8321 -0.6588
  818MOL0     O10326   3.733   1.887   3.757 -0.1595 -0.8948 -0.0210
  818MOL0     C10327   3.705   1.948   3.640  0.3903 -0.0530 -0.5381
  818MOL0     C10328   3.692   2.085   3.643 -0.6983  0.0969 -0.3090
  818MOL0     C10329   3.669   2.159   3.532  0.2334  0.2380  0.2398
  818MOL0     C10330   3.639   2.098   3.405 -0.2606  0.2703  0.3472
  818MOL0     O10331   3.598   2.164   3.289 -0.1119 -0.4455 -0.1121
  818MOL0     C10332   3.548   2.295   3.302  0.4763 -0.2583 -0.1397
  818MOL0     C10333   3.478   2.343   3.180  0.4070 -0.2367 -0.2090
  818MOL0     C10334   3.406   2.472   3.212  0.1337 -0.7301  0.4768
  818MOL0     C10335   3.389   2.549   3.084  0.7269 -0.3634 -1.0410
  818MOL0     C10336   3.316   2.689   3.115 -0.1942  0.8824 -0.1321
  818MOL0     C10337   3.307   2.773   2.985  1.1490 -0.5016 -0.0096
  818MOL0     C10338   3.422   2.882   2.970  0.5514 -0.0932 -0.2575
  818MOL0     C10339   3.385   2.980   2.862 -0.3548 -0.5649 -0.2460
  818MOL0    Cl10340   3.355   2.906   2.698  0.2166  0.0729  0.1922
  818MOL0     C10341   3.648   1.959   3.399  0.4077 -0.3314 -1.0297
  818MOL0     C10342   3.687   1.888   3.516  0.0173 -0.8870 -0.3735
  818MOL0     O10343   3.870   1.725   3.675  0.1330 -0.3865  0.0363
  818MOL0     C10344   3.769   1.791   4.011 -0.0752 -0.0847 -0.2990
  818MOL0     C10345   3.793   1.770   4.147 -0.5134  0.2881  0.2411
  818MOL0     N10346   4.263   1.693   4.928 -0.2712 -0.1801 -0.6168
  818MOL0     N10347   4.319   1.583   4.967  0.4478 -0.0953 -0.5597
  818MOL0     C10348   3.780   0.601   5.234  0.3261  0.4450 -0.5412
  818MOL0     C10349   3.685   0.517   5.177  0.1774 -1.2769 -0.2679
  818MOL0     C10350   3.355   0.259   5.093 -0.6402 -0.5305  0.6083
  818MOL0     C10351   3.389   0.143   5.023 -0.6738 -0.1825  0.3673
  818MOL0     C10352   3.300   0.084   4.936 -0.9011  0.0008 -0.2997
  818MOL0     C10353   3.165   0.128   4.930 -0.3933 -0.8077 -0.3531
  818MOL0     O10354   3.077   0.057   4.864  0.3413 -0.4070  0.0013
  818MOL0     C10355   2.937   0.084   4.876 -0.1967  0.1520 -0.1671
  818MOL0     C10356   2.865  -0.008   4.775 -0.0026  0.2124  0.1689
  818MOL0     C10357   2.863  -0.157   4.825 -0.7066 -0.6766 -0.0646
  818MOL0     C10358   2.789  -0.242   4.717  0.2977  0.2585  0.6792
  818MOL0     C10359   2.650  -0.208   4.713 -0.1267 -0.0019  0.2577
  818MOL0     C10360   2.536  -0.172   4.721  1.4189  0.4867  0.8472
  818MOL0     C10361   3.128   0.241   5.008 -0.3873 -0.5690  0.4258
  818MOL0     C10362   3.228   0.303   5.077  0.6741 -0.4953 -0.2598
  818MOL0     H10363   3.775   0.230   5.319  0.4776  0.7706 -0.1727
  818MOL0     H10364   3.952   0.382   5.425 -0.0392  0.0002 -0.1319
  818MOL0     H10365   3.978   0.798   5.256 -2.3919  2.1979  0.1467
  818MOL0     H10366   3.900   0.807   5.411  1.9323  1.8341  0.7135
  818MOL0     H10367   4.113   0.788   5.542 -3.0554  0.1122  0.1879
  818MOL0     H10368   4.199   0.759   5.386  0.6899  1.1989 -0.9212
  818MOL0     H10369   4.058   1.012   5.467  0.8151 -0.8886  2.1051
  818MOL0     H10370   4.225   0.988   5.504  0.7237  2.7204 -1.8084
  818MOL0     H10371   4.291   0.934   5.279  0.0212 -1.3772  2.1242
  818MOL0     H10372   4.131   0.950   5.199 -3.1707  2.2229  0.3340
  818MOL0     H10373   4.121   1.187   5.257 -0.8822 -1.5301 -1.8569
  818MOL0     H10374   4.283   1.195   5.319  1.2270  0.0342 -0.5943
  818MOL0     H10375   4.371   1.093   5.126 -0.8463 -0.3952  0.6789
  818MOL0     H10376   4.207   1.126   5.040 -0.9221  0.5040  0.3889
  818MOL0     H10377   4.217   1.361   5.120 -1.8327 -3.3913  0.0785
  818MOL0     H10378   4.395   1.343   5.127 -1.0464  0.0908  1.6627
  818MOL0     H10379   4.223   1.284   4.880 -0.5487  1.7953 -0.4685
  818MOL0     H10380   4.398   1.317   4.890 -0.7766 -2.2983 -0.3857
  818MOL0     H10381   4.098   1.472   4.765 -0.4565 -0.0247  1.6357
  818MOL0     H10382   3.997   1.771   4.824 -1.1942 -0.6379 -1.8573
  818MOL0     H10383   4.145   1.857   4.753 -0.1741  0.7723  2.3235
  818MOL0     H10384   3.974   1.814   4.582  0.4336  0.4731 -1.6516
  818MOL0     H10385   3.934   1.660   4.669 -0.5041  2.3947  2.3996
  818MOL0     H10386   4.085   1.547   4.525  1.6411 -0.1926  0.8006
  818MOL0     H10387   4.203   1.663   4.539  0.9027 -6.8788  2.1517
  818MOL0     H10388   4.130   1.676   4.306  0.2376 -1.4694  0.2036
  818MOL0     H10389   4.063   1.816   4.393  1.2681  0.4096 -0.0889
  818MOL0     H10390   4.061   1.586   4.138 -2.5307 -0.2973  3.8805
  818MOL0     H10391   4.137   1.723   3.834  0.3888 -0.2472 -0.4714
  818MOL0     H10392   4.139   1.561   3.906 -0.9195 -1.3848 -0.3116
  818MOL0     H10393   4.037   1.577   3.774  1.5870 -1.2078 -0.0860
  818MOL0     H10394   3.705   2.125   3.744  0.1196  1.4486 -0.9262
  818MOL0     H10395   3.668   2.266   3.551  0.0739  0.5960 -1.6657
  818MOL0     H10396   3.477   2.295   3.385 -0.8265 -3.6761 -1.0766
  818MOL0     H10397   3.634   2.359   3.325  0.0142 -0.1243  1.3028
  818MOL0     H10398   3.549   2.362   3.098 -1.2664  1.6807 -1.3037
  818MOL0     H10399   3.407   2.270   3.140  0.0221 -1.4311  2.4765
  818MOL0     H10400   3.478   2.533   3.268 -1.2931  2.0394 -0.5211
  818MOL0     H10401   3.311   2.470   3.266 -0.7851  0.8480 -0.9580
  818MOL0     H10402   3.487   2.562   3.039  0.1595  2.1574 -1.6547
  818MOL0     H10403   3.334   2.492   3.008  1.4390 -2.0067 -0.3639
  818MOL0     H10404   3.355   2.757   3.192  0.5060 -0.7002  0.9711
  818MOL0     H10405   3.220   2.653   3.151 -1.4701  1.6930 -2.5365
  818MOL0     H10406   3.295   2.697   2.908  0.7285 -1.9549  1.4412
  818MOL0     H10407   3.209   2.821   2.975  1.3254 -0.6047 -4.0617
  818MOL0     H10408   3.514   2.827   2.950 -0.7778 -2.3186 -0.6091
  818MOL0     H10409   3.429   2.942   3.061 -1.9393 -2.3821  1.6027
  818MOL0     H10410   3.464   3.057   2.862  0.0504 -0.9759 -0.2185
  818MOL0     H10411   3.302   3.033   2.910  0.8033  0.0531  1.1620
  818MOL0     H10412   3.641   1.908   3.304  1.6277  0.1703 -1.4117
  818MOL0     H10413   3.682   1.781   3.500 -1.2720 -1.1947  1.7479
  818MOL0     H10414   3.696   1.868   3.989 -0.1611  0.3429  1.3929
  818MOL0     H10415   3.723   1.811   4.219  0.2466  0.8295  0.6865
  818MOL0     H10416   3.780   0.708   5.221  0.6066  0.4445 -0.5600
  818MOL0     H10417   3.603   0.568   5.127 -0.0588  0.7126  1.9466
  818MOL0     H10418   3.490   0.111   4.999 -1.1401 -0.0653 -1.9619
  818MOL0     H10419   3.331  -0.002   4.877  0.3696  1.0327 -1.1890
  818MOL0     H10420   2.903   0.074   4.980 -0.0300  0.7030 -0.0574
  818MOL0     H10421   2.926   0.189   4.847  0.5696  0.4518  0.5708
  818MOL0     H10422   2.911  -0.012   4.676 -3.2058  1.3348 -1.4911
  818MOL0     H10423   2.761   0.018   4.759 -1.6205 -4.2842  1.7284
  818MOL0     H10424   2.821  -0.159   4.926  0.7463 -1.7377  0.5595
  818MOL0     H10425   2.964  -0.198   4.835  0.0401  1.2206  0.6114
  818MOL0     H10426   2.792  -0.348   4.743  1.9934 -0.2011 -1.1555
  818MOL0     H10427   2.834  -0.224   4.619 -3.2365  4.1661 -0.5102
  818MOL0     H10428   2.443  -0.119   4.727  1.0661 -0.2004  1.7310
  818MOL0     H10429   3.037   0.300   5.002  1.7446  2.8600 -1.4571
  818MOL0     H10430   3.205   0.398   5.124  3.4845 -0.8643  2.1960
  819MOL0     O10431   1.604   3.857   0.008  0.6658 -0.2500 -0.1833
  819MOL0     C10432   1.561   3.763   0.077  0.5553 -0.6345  0.3095
  819MOL0     O10433   1.493   3.779   0.195  0.5889 -0.0676  0.0037
  819MOL0     C10434   1.512   3.897   0.261  1.3715  0.2534 -1.0251
  819MOL0     C10435   1.631   3.958   0.284  0.7762  0.1789 -0.5910
  819MOL0     C10436   1.640   4.064   0.375 -0.2011  0.4997  0.7010
  819MOL0     C10437   1.522   4.121   0.431  0.1818  0.3750 -0.7399
  819MOL0     O10438   1.531   4.230   0.519 -0.1479  0.4646  0.5721
  819MOL0     C10439   1.652   4.271   0.577 -1.2166  0.3659  0.7089
  819MOL0     C10440   1.616   4.376   0.688  0.0258  0.8948  0.0200
  819MOL0     C10441   1.586   4.515   0.637  0.3300 -0.3184  0.3611
  819MOL0     C10442   1.502   4.600   0.743 -0.9003  0.1020  0.9994
  819MOL0     C10443   1.477   4.744   0.694  0.0700  0.1794  0.4652
  819MOL0     C10444   1.401   4.821   0.803  0.2436  0.4908  0.4989
  819MOL0     C10445   1.462   4.807   0.946  0.3209  0.1405  0.0802
  819MOL0     C10446   1.411   4.908   1.047  0.3526 -0.0603 -0.6822
  819MOL0     N10447   1.456   5.050   1.012  0.5622 -0.5900  1.1484
  819MOL0     C10448   1.385   5.165   1.028 -0.1221 -0.5516  0.4899
  819MOL0     C10449   1.451   5.259   0.961 -0.3381 -1.1759 -0.8257
  819MOL0     C10450   1.411   5.399   0.939 -0.4993 -1.4379 -0.9339
  819MOL0     C10451   1.402   5.438   0.794  0.5028 -0.1716  0.1395
  819MOL0     C10452   1.539   5.459   0.725  0.3415 -0.2978  0.3778
  819MOL0     C10453   1.545   5.383   0.590 -1.3480 -0.4788 -0.0470
  819MOL0     O10454   1.427   5.407   0.517  0.0957  0.1849  0.3920
  819MOL0     C10455   1.423   5.502   0.419  0.2789  0.6823  0.2458
  819MOL0     C10456   1.300   5.497   0.347  0.3475  0.2051 -0.7920
  819MOL0     C10457   1.273   5.590   0.241  0.0915  0.8114 -0.0846
  819MOL0     C10458   1.133   5.586   0.181  0.2889  0.1995 -0.3752
  819MOL0     C10459   1.369   5.687   0.213 -1.0550  0.3790 -0.3445
  819MOL0     C10460   1.348   5.788   0.109 -0.6030  0.0618 -0.7421
  819MOL0     O10461   1.231   5.866   0.114  0.5096 -0.3674 -0.4936
  819MOL0     C10462   1.209   5.935  -0.003 -0.5285 -0.4371 -0.6784
  819MOL0     C10463   1.198   5.888  -0.143 -0.3536  0.5238 -0.3030
  819MOL0     C10464   1.202   5.977  -0.254 -0.0197 -0.9049 -0.5079
  819MOL0     C10465   1.219   6.115  -0.230 -0.6492 -0.1211  0.5306
  819MOL0     O10466   1.225   6.184  -0.347  0.6612 -0.1279 -0.1150
  819MOL0     C10467   1.364   6.212  -0.379  0.6925 -0.4454 -0.6269
  819MOL0     C10468   1.360   6.327  -0.470  1.4523 -0.4379  0.1695
  819MOL0     C10469   1.278   6.292  -0.600 -0.2476  0.4203  0.4085
  819MOL0     C10470   1.234   6.419  -0.669  0.4153  0.1737 -0.6055
  819MOL0     C10471   1.134   6.391  -0.788  0.1280  0.5550  0.8153
  819MOL0     C10472   1.011   6.299  -0.759  0.4585 -0.4830 -0.3455
  819MOL0     C10473   0.893   6.306  -0.850  0.4278  0.6186 -0.2336
  819MOL0     C10474   0.784   6.203  -0.799  0.0999  0.4667  0.0215
  819MOL0    Cl10475   0.626   6.235  -0.876  0.1307  0.6266  0.3022
  819MOL0     C10476   1.221   6.167  -0.093 -0.3637  0.2548 -0.0762
  819MOL0     C10477   1.205   6.078   0.013 -0.0837  0.2706  0.0235
  819MOL0     O10478   1.441   5.813   0.029 -0.1556 -0.1187 -0.0038
  819MOL0     C10479   1.495   5.673   0.276 -0.4730  1.2418  0.1557
  819MOL0     C10480   1.526   5.587   0.374 -0.3353  0.2157 -0.1789
  819MOL0     N10481   1.567   5.206   0.905  0.6224 -0.6972 -0.5633
  819MOL0     N10482   1.563   5.077   0.931  0.1518  0.1398  0.9028
  819MOL0     C10483   1.402   4.056   0.417 -0.0296 -0.3911  1.0836
  819MOL0     C10484   1.401   3.941   0.337 -0.2515 -1.0564  0.0836
  819MOL0     C10485   1.559   3.634   0.009 -0.0516 -0.3853  0.9970
  819MOL0     C10486   1.650   3.600  -0.098  0.0204  0.6236 -0.2994
  819MOL0     C10487   1.655   3.468  -0.137  0.6957 -0.3457  1.2200
  819MOL0     C10488   1.555   3.375  -0.111 -0.1494  0.6117  0.1430
  819MOL0     O10489   1.551   3.255  -0.173  0.8804  0.7064 -0.1545
  819MOL0     C10490   1.531   3.244  -0.313  0.7202  0.2850  0.0968
  819MOL0     C10491   1.434   3.122  -0.337  0.5471 -0.9835  1.1429
  819MOL0     C10492   1.478   2.998  -0.257  0.4484 -0.1711 -0.4490
  819MOL0     C10493   1.632   2.955  -0.246  0.0215  0.4681 -0.3207
  819MOL0     C10494   1.662   2.906  -0.372 -1.1467 -0.0534  0.7498
  819MOL0     C10495   1.701   2.878  -0.484 -0.0354  0.1795  0.5640
  819MOL0     C10496   1.480   3.403  -0.001  0.2485 -0.1816 -0.0791
  819MOL0     C10497   1.479   3.530   0.059 -0.0149  0.3941  0.0996
  819MOL0     H10498   1.718   3.914   0.236  1.0569 -1.0142  0.9290
  819MOL0     H10499   1.729   4.125   0.388 -0.6368  1.7135 -1.5445
  819MOL0     H10500   1.703   4.186   0.623 -2.1109 -0.4334  0.2567
  819MOL0     H10501   1.720   4.312   0.502 -2.4783 -1.0389 -1.2817
  819MOL0     H10502   1.529   4.338   0.742 -0.1879  1.6945  0.2590
  819MOL0     H10503   1.692   4.378   0.767 -0.0939 -0.4174  0.1968
  819MOL0     H10504   1.679   4.572   0.625 -0.1105  0.8602  2.1017
  819MOL0     H10505   1.538   4.515   0.539  1.6847 -3.1325 -0.4209
  819MOL0     H10506   1.406   4.552   0.763 -1.5341  1.5868  1.6641
  819MOL0     H10507   1.565   4.597   0.832  0.4311 -1.4621  0.0514
  819MOL0     H10508   1.562   4.793   0.645 -0.6989 -0.7571 -1.9824
  819MOL0     H10509   1.417   4.725   0.604  0.8567 -0.6305  0.0887
  819MOL0     H10510   1.405   4.923   0.765  0.1697  1.2077  2.3114
  819MOL0     H10511   1.295   4.794   0.798 -0.1235  2.1588 -3.1101
  819MOL0     H10512   1.433   4.710   0.988 -0.5031  0.3776  0.0731
  819MOL0     H10513   1.570   4.821   0.947  0.3530  0.2791 -1.8614
  819MOL0     H10514   1.460   4.891   1.143  1.6179  1.3319 -1.0311
  819MOL0     H10515   1.302   4.913   1.050  0.2662 -0.2572 -2.4849
  819MOL0     H10516   1.291   5.184   1.079  0.5534  1.7704  1.0045
  819MOL0     H10517   1.309   5.418   0.975  0.2840 -1.5981  1.5124
  819MOL0     H10518   1.466   5.466   1.005 -3.7217 -1.0052  1.5662
  819MOL0     H10519   1.338   5.522   0.766  2.2460  0.4191 -2.3903
  819MOL0     H10520   1.350   5.361   0.737  3.0435 -1.3500 -0.7218
  819MOL0     H10521   1.622   5.446   0.796 -1.1025  2.9261  2.9331
  819MOL0     H10522   1.535   5.567   0.704 -0.1997  0.0627  2.1383
  819MOL0     H10523   1.568   5.277   0.596 -0.4792 -0.2341  1.2643
  819MOL0     H10524   1.635   5.421   0.539  0.7177 -1.5021  2.6295
  819MOL0     H10525   1.224   5.431   0.389  0.3134  1.5534  1.3763
  819MOL0     H10526   1.111   5.479   0.170  0.2676  0.4797 -4.3240
  819MOL0     H10527   1.048   5.626   0.237  1.1368  0.3337  0.8685
  819MOL0     H10528   1.135   5.634   0.083 -1.9950  3.1651  0.8814
  819MOL0     H10529   1.204   5.782  -0.162 -1.6779  0.5467 -0.9423
  819MOL0     H10530   1.202   5.937  -0.354 -0.0900 -2.3618  0.0489
  819MOL0     H10531   1.415   6.249  -0.290 -0.3998  0.5785 -0.4067
  819MOL0     H10532   1.413   6.129  -0.432  1.0849 -3.2297  3.6285
  819MOL0     H10533   1.313   6.412  -0.419  1.4596  1.4743 -2.7395
  819MOL0     H10534   1.461   6.360  -0.497  0.3092  0.8493 -3.0529
  819MOL0     H10535   1.198   6.217  -0.592  1.3099 -1.2566  0.9680
  819MOL0     H10536   1.347   6.252  -0.675 -0.2642  2.8794 -1.0149
  819MOL0     H10537   1.188   6.488  -0.598 -4.1904 -2.2507 -0.8462
  819MOL0     H10538   1.322   6.464  -0.716 -1.0225  2.3255 -1.3786
  819MOL0     H10539   1.187   6.342  -0.870  2.4001  0.9937  1.9543
  819MOL0     H10540   1.104   6.486  -0.833  1.7183  0.3164 -0.8632
  819MOL0     H10541   1.049   6.197  -0.752  4.6372  0.7765 -1.9381
  819MOL0     H10542   0.979   6.324  -0.657  5.2351  2.4986  0.7299
  819MOL0     H10543   0.932   6.280  -0.949  1.7616  0.7147  0.2338
  819MOL0     H10544   0.848   6.405  -0.846  0.6150  0.6596  2.4541
  819MOL0     H10545   0.766   6.201  -0.691  0.7081  2.2694  0.1954
  819MOL0     H10546   0.818   6.103  -0.829  1.5126  0.4763  1.4624
  819MOL0     H10547   1.237   6.273  -0.074  0.0995 -0.3760  4.0276
  819MOL0     H10548   1.227   6.122   0.110 -2.6639  3.4196 -0.6421
  819MOL0     H10549   1.580   5.735   0.249  1.6047  0.0693  3.2766
  819MOL0     H10550   1.619   5.614   0.422  1.4874 -0.4175 -3.1252
  819MOL0     H10551   1.304   4.083   0.457 -1.1342 -2.3240 -0.1698
  819MOL0     H10552   1.308   3.885   0.332 -1.6395  0.9092  2.0864
  819MOL0     H10553   1.718   3.677  -0.133 -0.4728  0.6201 -1.3245
  819MOL0     H10554   1.722   3.428  -0.212  0.2483  0.5644  0.3168
  819MOL0     H10555   1.489   3.336  -0.355 -2.0283 -1.1411 -0.5299
  819MOL0     H10556   1.623   3.222  -0.368  0.7132  2.0514 -0.6817
  819MOL0     H10557   1.433   3.111  -0.445  3.1152  3.1555  0.4509
  819MOL0     H10558   1.338   3.161  -0.301  0.0229 -0.4469 -0.7595
  819MOL0     H10559   1.413   2.916  -0.291  0.2304 -0.0962 -0.2144
  819MOL0     H10560   1.443   3.023  -0.156 -0.2364  2.3927 -1.2400
  819MOL0     H10561   1.637   2.872  -0.175 -4.2136 -0.9807 -1.4911
  819MOL0     H10562   1.702   3.034  -0.214 -1.2058  2.5711 -2.5058
  819MOL0     H10563   1.728   2.843  -0.582 -1.9683 -2.1928  0.8115
  819MOL0     H10564   1.412   3.324   0.027 -0.6679  0.7395  0.3762
  819MOL0     H10565   1.420   3.543   0.150 -1.1914  1.2223 -0.7557
  820MOL0     O10566   5.277   8.290  10.982  0.2742  0.2886 -0.5247
  820MOL0     C10567   5.390   8.235  11.010 -0.1838 -0.2397 -0.4410
  820MOL0     O10568   5.425   8.168  11.124  0.5713  0.8663  0.5652
  820MOL0     C10569   5.328   8.155  11.226 -0.5539  0.5608  0.3594
  820MOL0     C10570   5.292   8.267  11.297 -0.1104 -0.2345  0.7992
  820MOL0     C10571   5.207   8.254  11.405  0.1292 -0.6448  0.6936
  820MOL0     C10572   5.153   8.135  11.432  0.0395  0.5462  1.2468
  820MOL0     O10573   5.047   8.137  11.515 -0.1741 -0.8704 -0.0825
  820MOL0     C10574   5.036   8.238  11.622 -0.1398 -0.1396 -0.5072
  820MOL0     C10575   5.150   8.239  11.724  0.1023 -0.1415  1.1320
  820MOL0     C10576   5.196   8.099  11.763  0.5778 -0.6835  0.4099
  820MOL0     C10577   5.302   8.106  11.877  0.0450  0.9482 -0.4929
  820MOL0     C10578   5.233   8.132  12.009  1.2236 -0.3018 -0.1888
  820MOL0     C10579   5.316   8.168  12.132 -0.4480 -0.2086  0.8483
  820MOL0     C10580   5.441   8.267  12.102  0.8665  0.4122  0.1945
  820MOL0     C10581   5.505   8.307  12.233 -0.0400 -0.7441 -0.1306
  820MOL0     N10582   5.600   8.205  12.293  0.8274  0.1286  0.0247
  820MOL0     C10583   5.722   8.155  12.242 -0.7965  0.4837 -0.6134
  820MOL0     C10584   5.757   8.050  12.308 -0.0504 -0.2733 -0.2460
  820MOL0     C10585   5.872   7.960  12.261 -0.2310  0.3100 -0.2510
  820MOL0     C10586   6.018   8.007  12.297 -0.4216  0.0854  1.3162
  820MOL0     C10587   6.098   7.916  12.404  0.3609 -0.6417 -0.0817
  820MOL0     C10588   6.246   7.951  12.389 -0.7043  0.2768 -0.5816
  820MOL0     O10589   6.263   8.085  12.429 -0.2902 -0.5151 -0.4487
  820MOL0     C10590   6.286   8.121  12.554 -0.5149  0.6673 -0.8153
  820MOL0     C10591   6.310   8.251  12.579 -0.0599  0.1662  0.2434
  820MOL0     C10592   6.337   8.304  12.704 -0.7483 -0.5783 -1.1531
  820MOL0     C10593   6.380   8.450  12.723  0.1932  0.9745 -0.1547
  820MOL0     C10594   6.343   8.211  12.813  0.0918  0.1218 -0.1440
  820MOL0     C10595   6.397   8.226  12.954  0.8124 -0.4681 -0.2383
  820MOL0     O10596   6.366   8.121  13.041  0.2925 -0.1100 -0.2682
  820MOL0     C10597   6.399   8.120  13.173 -0.8125 -0.0427 -1.7120
  820MOL0     C10598   6.289   8.093  13.257  0.6857 -0.4903 -0.7811
  820MOL0     C10599   6.310   8.082  13.396  0.5858  0.2316  1.0365
  820MOL0     C10600   6.423   8.121  13.458 -0.8013 -0.0060  0.7843
  820MOL0     O10601   6.443   8.111  13.592  0.3331  0.1324  1.4526
  820MOL0     C10602   6.516   8.003  13.646  0.6504 -0.2187  0.2580
  820MOL0     C10603   6.486   8.008  13.794 -0.1777 -0.3314  0.2915
  820MOL0     C10604   6.358   7.928  13.839 -0.3672  0.6818 -0.5165
  820MOL0     C10605   6.226   7.978  13.781  0.1975 -0.0641 -0.6024
  820MOL0     C10606   6.109   7.882  13.811 -1.3141  0.3273  0.4869
  820MOL0     C10607   6.088   7.865  13.958  0.2211 -0.0765  0.0575
  820MOL0     C10608   5.961   7.790  13.997 -1.2217 -0.5015  0.4819
  820MOL0     C10609   5.922   7.794  14.141 -1.1576  0.0338 -0.5838
  820MOL0    Cl10610   5.877   7.970  14.182  0.2875  0.0571 -0.0077
  820MOL0     C10611   6.530   8.152  13.374  0.3648  0.0145  0.3991
  820MOL0     C10612   6.524   8.149  13.237  0.4325  0.4214  0.4169
  820MOL0     O10613   6.468   8.332  12.980 -0.2273  0.1380 -0.1507
  820MOL0     C10614   6.308   8.070  12.785 -0.0610 -0.0972 -0.2681
  820MOL0     C10615   6.283   8.032  12.658  0.5679  1.0178  0.2650
  820MOL0     N10616   5.656   8.014  12.394 -0.1068  0.2408  0.1423
  820MOL0     N10617   5.570   8.115  12.392 -0.9883 -0.7569 -0.9235
  820MOL0     C10618   5.185   8.019  11.359 -0.5347 -0.5139  0.2840
  820MOL0     C10619   5.280   8.029  11.261  0.1873  1.3728  0.0579
  820MOL0     C10620   5.506   8.257  10.909  1.1039  0.2937  0.8802
  820MOL0     C10621   5.471   8.303  10.776  0.2694  0.5614 -0.4590
  820MOL0     C10622   5.567   8.320  10.680  0.3416 -0.2707 -0.2575
  820MOL0     C10623   5.698   8.281  10.700  0.4353  0.8245 -0.2238
  820MOL0     O10624   5.780   8.296  10.593 -1.0682 -1.0056 -0.5503
  820MOL0     C10625   5.921   8.278  10.617 -0.9386 -0.8058  0.0757
  820MOL0     C10626   5.983   8.406  10.695 -0.0728  0.5734 -0.7461
  820MOL0     C10627   5.948   8.532  10.622  0.0935 -0.1096  0.1276
  820MOL0     C10628   5.822   8.596  10.680  0.0910 -0.0217  0.1346
  820MOL0     C10629   5.781   8.718  10.603 -0.3216 -0.2016 -0.2365
  820MOL0     C10630   5.735   8.797  10.523 -1.2585 -0.6745 -0.4104
  820MOL0     C10631   5.739   8.234  10.830  0.9894  0.6999 -0.5814
  820MOL0     C10632   5.639   8.210  10.924 -0.1211 -1.0984  0.6088
  820MOL0     H10633   5.330   8.365  11.272 -0.6313 -0.1359  0.3639
  820MOL0     H10634   5.163   8.346  11.441  0.3616 -1.2541  2.6606
  820MOL0     H10635   5.004   8.336  11.584  0.9729 -0.8488 -3.5540
  820MOL0     H10636   4.948   8.199  11.674 -1.3272  1.9562 -0.8177
  820MOL0     H10637   5.233   8.296  11.681 -1.3132  2.2412  1.3857
  820MOL0     H10638   5.119   8.303  11.807  2.4253  1.3990  0.9273
  820MOL0     H10639   5.103   8.054  11.801  0.2370 -0.1573  0.2131
  820MOL0     H10640   5.227   8.028  11.686  3.4684 -2.2884  2.8190
  820MOL0     H10641   5.347   8.006  11.870 -1.1828  0.4584 -2.2562
  820MOL0     H10642   5.377   8.182  11.856 -1.0251  2.6214  1.3904
  820MOL0     H10643   5.154   8.207  11.996 -0.1589 -1.6814 -0.0045
  820MOL0     H10644   5.182   8.037  12.027 -2.6709  0.6058 -4.5017
  820MOL0     H10645   5.250   8.220  12.202 -2.4048  0.1096 -1.1178
  820MOL0     H10646   5.353   8.078  12.181 -2.8920 -0.0557  3.1855
  820MOL0     H10647   5.518   8.210  12.048 -0.3017  0.6144 -1.7725
  820MOL0     H10648   5.398   8.352  12.049  0.0991 -1.0875 -1.7129
  820MOL0     H10649   5.423   8.338  12.298 -0.0859 -3.8279  1.4543
  820MOL0     H10650   5.571   8.393  12.215  1.3104 -1.5419  0.7642
  820MOL0     H10651   5.775   8.199  12.157  0.8019  1.1185  0.6517
  820MOL0     H10652   5.853   7.868  12.317 -0.6188 -0.3114 -1.3750
  820MOL0     H10653   5.867   7.935  12.155  1.3800 -1.2293 -0.0124
  820MOL0     H10654   6.006   8.104  12.347  0.5266  0.0767  1.5820
  820MOL0     H10655   6.071   8.005  12.202 -0.9476  4.9626  0.6232
  820MOL0     H10656   6.085   7.811  12.375  1.8200 -0.9823  0.4015
  820MOL0     H10657   6.054   7.944  12.500 -1.9381 -1.0602 -0.9525
  820MOL0     H10658   6.266   7.924  12.285 -2.3738  0.6377 -1.0348
  820MOL0     H10659   6.312   7.898  12.458  1.1714  3.1351 -0.0171
  820MOL0     H10660   6.330   8.313  12.493 -0.9534 -2.6718 -2.1802
  820MOL0     H10661   6.320   8.511  12.791  4.1287  3.4232  1.5033
  820MOL0     H10662   6.483   8.460  12.761 -0.2772  0.5639  1.3096
  820MOL0     H10663   6.376   8.503  12.628 -1.0906  0.0996 -0.6055
  820MOL0     H10664   6.194   8.084  13.205 -0.4803  0.4530  1.0610
  820MOL0     H10665   6.219   8.064  13.453 -1.1776  2.2433 -0.9652
  820MOL0     H10666   6.483   7.912  13.595  3.2071 -0.1413 -1.7526
  820MOL0     H10667   6.623   8.015  13.626  0.5820 -0.5354 -0.3282
  820MOL0     H10668   6.575   7.968  13.844 -0.5283 -2.1758 -0.4990
  820MOL0     H10669   6.465   8.109  13.831 -3.3479 -1.8774  3.3499
  820MOL0     H10670   6.358   7.931  13.949  0.2481  3.0372 -0.5219
  820MOL0     H10671   6.371   7.822  13.817  1.1706  0.6328  0.4137
  820MOL0     H10672   6.201   8.083  13.800  1.0736  0.0882 -0.2570
  820MOL0     H10673   6.249   7.961  13.676  2.5663 -0.5474 -0.0656
  820MOL0     H10674   6.128   7.776  13.791  0.5341  0.4431  1.4432
  820MOL0     H10675   6.018   7.916  13.760 -2.3350 -0.5640  1.6587
  820MOL0     H10676   6.180   7.829  14.005  1.2824  0.7137 -1.3228
  820MOL0     H10677   6.074   7.967  13.995 -2.5873  0.1891 -1.4933
  820MOL0     H10678   5.976   7.685  13.971 -0.4627  0.1815 -2.1353
  820MOL0     H10679   5.881   7.832  13.936 -0.3892  1.4634  0.6853
  820MOL0     H10680   6.011   7.780  14.203 -1.9625 -0.3192  0.5283
  820MOL0     H10681   5.850   7.715  14.164  0.1681 -2.7985 -4.8990
  820MOL0     H10682   6.619   8.190  13.423  1.3471 -3.2461  1.3881
  820MOL0     H10683   6.605   8.173  13.169 -1.1802 -1.3484 -2.2847
  820MOL0     H10684   6.311   7.985  12.852  3.3416  0.2228  0.1728
  820MOL0     H10685   6.259   7.928  12.638 -0.4377  1.2949  0.0282
  820MOL0     H10686   5.129   7.926  11.365  0.4601 -1.2818 -1.5181
  820MOL0     H10687   5.311   7.945  11.200 -1.5863 -1.1132  2.3265
  820MOL0     H10688   5.365   8.323  10.762 -0.0304 -1.4224 -1.3058
  820MOL0     H10689   5.543   8.371  10.587 -0.3211 -3.0331 -1.7064
  820MOL0     H10690   5.951   8.187  10.670  0.3023 -1.3839 -1.5134
  820MOL0     H10691   5.967   8.280  10.518 -0.8742  1.9096  0.1074
  820MOL0     H10692   6.093   8.403  10.695  0.0261  2.2311  1.0022
  820MOL0     H10693   5.948   8.412  10.798  2.7811  2.4321  0.2286
  820MOL0     H10694   5.934   8.514  10.515 -3.7387  1.2518  0.2353
  820MOL0     H10695   6.028   8.606  10.629  0.7931 -0.5991 -1.9117
  820MOL0     H10696   5.860   8.611  10.781 -1.9158  2.0999  0.6621
  820MOL0     H10697   5.729   8.540  10.689 -0.0772 -0.4979 -3.0987
  820MOL0     H10698   5.687   8.875  10.466  1.3636  1.6031  0.2580
  820MOL0     H10699   5.837   8.189  10.840  0.5174 -1.2682 -3.5251
  820MOL0     H10700   5.672   8.160  11.014  1.3040 -0.8289  0.2602
  821MOL0     O10701   7.076   5.479   4.718 -0.2380  0.4201  0.2162
  821MOL0     C10702   7.007   5.383   4.723  0.3387  0.4840  0.2939
  821MOL0     O10703   7.045   5.257   4.772 -0.1259  0.4321  0.2780
  821MOL0     C10704   7.172   5.233   4.827 -0.0064 -0.7557 -0.0808
  821MOL0     C10705   7.238   5.316   4.929 -0.1852 -0.4299  0.7589
  821MOL0     C10706   7.357   5.279   4.992  0.3699  0.2952  0.1892
  821MOL0     C10707   7.415   5.154   4.970  0.5234 -0.7557  0.2073
  821MOL0     O10708   7.532   5.117   5.029 -0.5316  0.6253  0.2918
  821MOL0     C10709   7.616   5.213   5.091 -0.9816  0.4596  0.0942
  821MOL0     C10710   7.746   5.140   5.117  0.3776 -1.8673 -0.2717
  821MOL0     C10711   7.822   5.110   4.978  0.2758 -0.2914  0.2082
  821MOL0     C10712   7.968   5.153   4.993 -0.3221  0.6545 -0.6228
  821MOL0     C10713   8.051   5.089   4.872  0.0104 -0.1712 -1.5284
  821MOL0     C10714   8.196   5.143   4.886 -0.1753  0.4026  0.3362
  821MOL0     C10715   8.304   5.063   4.796  1.0184 -0.4283  0.5464
  821MOL0     C10716   8.451   5.104   4.827 -0.7075 -0.3398 -0.0427
  821MOL0     N10717   8.508   5.193   4.722 -0.3862  0.8234  0.0261
  821MOL0     C10718   8.536   5.142   4.602 -0.7638 -0.3649  0.7045
  821MOL0     C10719   8.579   5.256   4.531  0.3646  0.5820  0.3709
  821MOL0     C10720   8.613   5.276   4.378 -0.2023  0.1680  0.1918
  821MOL0     C10721   8.702   5.171   4.317  0.1741  0.9287 -0.2777
  821MOL0     C10722   8.805   5.216   4.215 -0.4963 -0.9956 -0.9107
  821MOL0     C10723   8.877   5.095   4.160  0.2183  0.0221  0.3855
  821MOL0     O10724   8.986   5.146   4.076 -0.6272  0.1579 -0.7082
  821MOL0     C10725   9.047   5.057   3.996 -0.0057  0.1697  0.2651
  821MOL0     C10726   9.113   5.113   3.890 -0.7907  0.4875 -0.4863
  821MOL0     C10727   9.193   5.033   3.798 -0.6674 -1.1421  0.2573
  821MOL0     C10728   9.273   5.114   3.696  0.0025  0.0082  0.2691
  821MOL0     C10729   9.227   4.900   3.833  0.4995  0.8363  0.1960
  821MOL0     C10730   9.328   4.803   3.759 -0.2260 -0.7303  0.0132
  821MOL0     O10731   9.332   4.666   3.791  0.2698 -0.0072 -0.3225
  821MOL0     C10732   9.403   4.600   3.692 -0.2264 -0.4148 -1.0942
  821MOL0     C10733   9.337   4.547   3.580  0.5073  0.1514  0.7533
  821MOL0     C10734   9.412   4.498   3.477 -1.0358  0.2534 -0.0091
  821MOL0     C10735   9.556   4.498   3.470 -0.7870  0.8907 -0.6787
  821MOL0     O10736   9.632   4.435   3.376 -0.2776 -0.9454 -0.0333
  821MOL0     C10737   9.579   4.421   3.244 -0.4850 -0.0166  0.3216
  821MOL0     C10738   9.697   4.381   3.155  0.7510  0.1142  1.0070
  821MOL0     C10739   9.644   4.360   3.009  0.0215  0.1732 -0.1565
  821MOL0     C10740   9.771   4.371   2.908  0.1178  0.1758 -0.0483
  821MOL0     C10741   9.739   4.383   2.755  1.4028  0.2185  0.3977
  821MOL0     C10742   9.667   4.251   2.697 -0.0375 -0.4773 -0.4936
  821MOL0     C10743   9.762   4.131   2.685 -0.4443 -0.3431  0.4130
  821MOL0     C10744   9.779   4.103   2.534  0.2428  0.8404  0.1213
  821MOL0    Cl10745   9.622   4.046   2.472 -0.2209  0.5210  0.5385
  821MOL0     C10746   9.615   4.538   3.594 -0.1291 -0.2280 -0.0778
  821MOL0     C10747   9.542   4.595   3.701 -0.0933  0.2286  0.3021
  821MOL0     O10748   9.407   4.865   3.694 -0.1875 -1.0703  0.2125
  821MOL0     C10749   9.134   4.843   3.933 -0.0823 -0.4127 -0.5280
  821MOL0     C10750   9.054   4.917   4.016 -0.3160 -0.3023 -0.9674
  821MOL0     N10751   8.579   5.359   4.615 -0.2168  0.3488 -0.1720
  821MOL0     N10752   8.519   5.327   4.721 -0.1267 -0.6670  0.1254
  821MOL0     C10753   7.345   5.065   4.882 -0.6580  0.2382 -0.0760
  821MOL0     C10754   7.243   5.114   4.807  0.0467  0.9205 -0.2821
  821MOL0     C10755   6.879   5.394   4.663 -0.2462 -0.3220  0.0078
  821MOL0     C10756   6.787   5.289   4.668  0.1104 -0.0136 -0.1951
  821MOL0     C10757   6.663   5.299   4.608  0.0231  0.0859  0.1185
  821MOL0     C10758   6.619   5.425   4.551  0.8268  0.5818  0.4512
  821MOL0     O10759   6.502   5.442   4.491  0.3583  0.2816  0.4779
  821MOL0     C10760   6.429   5.321   4.459 -0.7848 -0.3196 -0.0199
  821MOL0     C10761   6.357   5.334   4.322 -0.2351 -2.1433  0.1309
  821MOL0     C10762   6.264   5.456   4.328 -0.0055 -1.1094  0.6668
  821MOL0     C10763   6.216   5.505   4.181  0.4841  0.8559 -0.0139
  821MOL0     C10764   6.101   5.601   4.199  0.2612 -0.6439  0.7554
  821MOL0     C10765   6.013   5.679   4.224  0.7173 -0.6289  0.3050
  821MOL0     C10766   6.702   5.536   4.553 -0.0677 -0.6910 -0.1120
  821MOL0     C10767   6.829   5.517   4.610  0.4073  0.5209 -1.1548
  821MOL0     H10768   7.212   5.420   4.947  1.8479  0.1876  0.3725
  821MOL0     H10769   7.403   5.346   5.064 -0.3207 -2.5240  3.5151
  821MOL0     H10770   7.636   5.297   5.024 -0.5948  0.4090  0.1453
  821MOL0     H10771   7.575   5.257   5.183  3.0512  1.6234  1.5339
  821MOL0     H10772   7.806   5.201   5.185  1.8915 -2.4374 -1.0505
  821MOL0     H10773   7.725   5.049   5.174 -1.0807 -1.7322 -0.5663
  821MOL0     H10774   7.829   5.001   4.963 -1.8895 -0.5245  0.4840
  821MOL0     H10775   7.788   5.150   4.882  2.7125 -1.3025 -1.1712
  821MOL0     H10776   7.971   5.262   4.994 -0.3662  0.6682  0.8384
  821MOL0     H10777   8.011   5.114   5.086 -1.6013 -0.4320 -0.4442
  821MOL0     H10778   8.054   4.980   4.884  0.3638 -0.0937 -0.8806
  821MOL0     H10779   8.011   5.099   4.770  1.1574 -3.6623 -2.4734
  821MOL0     H10780   8.193   5.249   4.858  0.4627  0.4578  0.4596
  821MOL0     H10781   8.240   5.138   4.987  0.8383 -0.2918 -0.1217
  821MOL0     H10782   8.288   4.956   4.816  4.2400 -1.0319  0.4163
  821MOL0     H10783   8.279   5.074   4.690 -2.7079 -0.4724  1.2705
  821MOL0     H10784   8.511   5.015   4.807 -1.4635 -0.3544 -2.4926
  821MOL0     H10785   8.460   5.145   4.928 -0.9414 -3.9263  1.5902
  821MOL0     H10786   8.528   5.039   4.568 -0.5814  0.4126 -1.8381
  821MOL0     H10787   8.511   5.287   4.341 -0.8679  1.2144  2.1862
  821MOL0     H10788   8.656   5.375   4.366 -2.4818  1.7324  3.4578
  821MOL0     H10789   8.648   5.092   4.264 -1.0514 -0.3389  2.6335
  821MOL0     H10790   8.754   5.115   4.395  2.8699  3.6703  0.0758
  821MOL0     H10791   8.885   5.271   4.267 -2.0014  0.6231 -0.2129
  821MOL0     H10792   8.756   5.276   4.138  0.7068  0.3283 -0.6942
  821MOL0     H10793   8.814   5.038   4.091 -0.2224  4.0552 -2.9928
  821MOL0     H10794   8.900   5.031   4.245 -0.9703 -0.1929  0.5699
  821MOL0     H10795   9.108   5.220   3.868  0.0996  0.3713 -1.3470
  821MOL0     H10796   9.239   5.218   3.688  1.1307  0.2246 -4.1790
  821MOL0     H10797   9.378   5.124   3.725  0.4701 -0.2809 -1.2503
  821MOL0     H10798   9.272   5.077   3.593  1.7767 -0.9456  0.5657
  821MOL0     H10799   9.230   4.556   3.564  0.4066  0.2701  1.4750
  821MOL0     H10800   9.360   4.468   3.387 -0.8066 -2.2314  0.6025
  821MOL0     H10801   9.493   4.352   3.244  0.5629 -1.4036  1.7530
  821MOL0     H10802   9.538   4.517   3.211 -0.5693 -0.4464 -0.8437
  821MOL0     H10803   9.772   4.458   3.173 -0.8805  1.2296  3.4842
  821MOL0     H10804   9.733   4.287   3.197  0.4411 -1.0761 -1.2266
  821MOL0     H10805   9.573   4.433   2.970 -1.7627 -0.6982  1.3228
  821MOL0     H10806   9.597   4.261   3.005 -2.5659  1.3167  0.4553
  821MOL0     H10807   9.830   4.457   2.940  0.1041 -1.0286  3.7867
  821MOL0     H10808   9.828   4.279   2.925 -0.7042 -0.3435 -0.0312
  821MOL0     H10809   9.831   4.397   2.696  1.0552 -2.8501 -1.0823
  821MOL0     H10810   9.676   4.470   2.737  2.7973  0.7221 -2.7527
  821MOL0     H10811   9.582   4.218   2.757  1.4707 -0.2209  1.8832
  821MOL0     H10812   9.637   4.286   2.598  0.2381  2.4618  0.3730
  821MOL0     H10813   9.728   4.041   2.736  1.5661 -2.9639 -2.4643
  821MOL0     H10814   9.856   4.143   2.740  1.5482 -0.8996 -2.5780
  821MOL0     H10815   9.852   4.023   2.522 -2.3420 -1.3735 -2.2230
  821MOL0     H10816   9.818   4.188   2.477  3.3087 -0.2721  0.4238
  821MOL0     H10817   9.720   4.517   3.612 -0.3183 -0.9275  0.2499
  821MOL0     H10818   9.595   4.611   3.794 -0.7024  1.5793  0.4379
  821MOL0     H10819   9.141   4.738   3.963  0.0193  0.0153  1.0683
  821MOL0     H10820   8.995   4.868   4.094 -1.2768 -0.1897 -1.6050
  821MOL0     H10821   7.379   4.963   4.864  0.0910  0.4043  0.3453
  821MOL0     H10822   7.203   5.034   4.745  0.6956 -0.4184  0.9798
  821MOL0     H10823   6.824   5.193   4.705 -0.2418  0.1670  0.6542
  821MOL0     H10824   6.599   5.212   4.611 -0.0823  0.2008  1.7270
  821MOL0     H10825   6.500   5.239   4.450 -0.8602 -0.4349  0.3992
  821MOL0     H10826   6.359   5.311   4.543 -1.8734 -0.1095 -0.8737
  821MOL0     H10827   6.297   5.244   4.306 -1.3378 -2.0562  3.2271
  821MOL0     H10828   6.422   5.354   4.236 -2.0163  1.9648 -0.4477
  821MOL0     H10829   6.321   5.540   4.368  0.1655 -2.2201  2.8731
  821MOL0     H10830   6.176   5.439   4.391 -1.4016  1.9047 -0.2488
  821MOL0     H10831   6.179   5.414   4.132 -1.7142  0.6656  1.8274
  821MOL0     H10832   6.300   5.549   4.127  1.4194 -3.4135 -2.5406
  821MOL0     H10833   5.950   5.756   4.264 -0.5486 -2.7524  2.6574
  821MOL0     H10834   6.665   5.630   4.512  0.7500 -1.3440 -2.5211
  821MOL0     H10835   6.884   5.611   4.620  1.6617 -0.3315  0.5371
  822MOL0     O10836   8.041   0.722   8.382 -0.5097 -0.0788  0.8474
  822MOL0     C10837   8.016   0.646   8.290  0.0439 -0.0816 -0.2575
  822MOL0     O10838   7.952   0.683   8.173  0.0227 -0.6450 -1.0434
  822MOL0     C10839   7.923   0.819   8.154 -0.5206  1.1889 -0.1235
  822MOL0     C10840   7.839   0.891   8.242  0.4380  1.2734  0.5339
  822MOL0     C10841   7.790   1.015   8.203 -0.9367  0.1426  0.3487
  822MOL0     C10842   7.836   1.075   8.086  0.0611  0.0965  0.2129
  822MOL0     O10843   7.811   1.208   8.054  0.5469  0.5018 -0.2107
  822MOL0     C10844   7.720   1.292   8.124 -0.1973  0.5583 -0.0885
  822MOL0     C10845   7.722   1.430   8.047 -0.7533 -0.3110 -0.7427
  822MOL0     C10846   7.862   1.498   8.072  0.6529  0.7142 -0.1218
  822MOL0     C10847   7.970   1.465   7.956  0.8379 -1.5031 -0.9711
  822MOL0     C10848   8.102   1.550   7.975 -0.2791  0.2529  1.4199
  822MOL0     C10849   8.196   1.501   7.862 -1.2498  0.5609 -0.1911
  822MOL0     C10850   8.229   1.345   7.859  0.0126  0.1790  0.1817
  822MOL0     C10851   8.299   1.294   7.988  0.0062  0.7529  0.6831
  822MOL0     N10852   8.345   1.154   7.969 -0.2770  0.7582  0.0888
  822MOL0     C10853   8.462   1.114   7.907 -0.5142  0.2147 -0.3249
  822MOL0     C10854   8.462   0.975   7.893  0.5408  1.1096  1.1232
  822MOL0     C10855   8.555   0.894   7.815 -0.1342 -0.2471  0.2080
  822MOL0     C10856   8.562   0.759   7.884  0.6027  0.4804  0.3152
  822MOL0     C10857   8.650   0.671   7.800  0.1093  0.9371  0.6490
  822MOL0     C10858   8.718   0.558   7.865  0.1539 -0.0093  0.6716
  822MOL0     O10859   8.700   0.428   7.795 -0.2480  0.2136  0.0982
  822MOL0     C10860   8.577   0.362   7.805 -0.2324  0.0938  0.2370
  822MOL0     C10861   8.464   0.393   7.874  0.0883  0.2898 -0.0973
  822MOL0     C10862   8.354   0.302   7.885  0.2972 -0.5020  0.6270
  822MOL0     C10863   8.234   0.362   7.944 -0.1641  0.6889  0.6035
  822MOL0     C10864   8.366   0.171   7.831 -0.1438 -0.4554 -1.2397
  822MOL0     C10865   8.267   0.062   7.852 -0.7568 -0.5143 -0.6235
  822MOL0     O10866   8.288  -0.044   7.773 -0.9211 -0.1681 -0.3192
  822MOL0     C10867   8.249  -0.164   7.832  0.1703  0.5261 -0.0204
  822MOL0     C10868   8.253  -0.203   7.967 -0.1275  0.3886  0.1825
  822MOL0     C10869   8.231  -0.336   8.010  0.1284 -0.2265  0.5021
  822MOL0     C10870   8.191  -0.438   7.925 -0.1451 -0.3702 -0.3679
  822MOL0     O10871   8.158  -0.565   7.973  0.2579 -0.3612 -0.2843
  822MOL0     C10872   8.010  -0.575   7.970 -0.6837 -1.0681  0.0589
  822MOL0     C10873   7.963  -0.721   7.957 -0.0296  0.3891  0.6202
  822MOL0     C10874   8.000  -0.794   7.829  0.5764  1.1443 -0.4437
  822MOL0     C10875   7.935  -0.928   7.810  0.2517  1.1820 -0.4934
  822MOL0     C10876   8.024  -1.030   7.734 -0.0110 -0.6472  0.1180
  822MOL0     C10877   8.060  -0.999   7.590  0.3373 -0.5769  0.0356
  822MOL0     C10878   7.948  -0.991   7.495 -0.1202  0.0632  0.9243
  822MOL0     C10879   7.858  -1.110   7.461 -0.4774 -0.1852 -0.8348
  822MOL0    Cl10880   7.751  -1.068   7.325 -0.1527 -0.4758  0.0387
  822MOL0     C10881   8.201  -0.408   7.786  0.5110  0.2609 -0.4290
  822MOL0     C10882   8.233  -0.276   7.746  0.0837 -0.2848  0.2661
  822MOL0     O10883   8.176   0.073   7.932 -0.3094  0.7245  0.1426
  822MOL0     C10884   8.483   0.136   7.768 -0.1882 -0.1042  0.3721
  822MOL0     C10885   8.586   0.234   7.753 -0.3811 -0.2038 -0.1829
  822MOL0     N10886   8.332   0.933   7.939 -0.7074  0.4168 -1.5963
  822MOL0     N10887   8.268   1.039   7.987 -0.9947  0.3468  1.1135
  822MOL0     C10888   7.923   1.008   8.004  0.1249  1.2711 -0.8470
  822MOL0     C10889   7.969   0.879   8.036 -0.2389 -0.2042  0.2881
  822MOL0     C10890   8.050   0.506   8.315  0.8191  0.4441  0.1127
  822MOL0     C10891   8.136   0.460   8.411  0.1121 -0.6754 -0.3844
  822MOL0     C10892   8.166   0.328   8.419 -0.0888  0.6366  0.2003
  822MOL0     C10893   8.104   0.232   8.333  0.1211  0.5005  1.0837
  822MOL0     O10894   8.146   0.103   8.350 -0.3492  0.4806  0.2260
  822MOL0     C10895   8.067   0.004   8.294 -0.1794 -0.2341 -0.2930
  822MOL0     C10896   8.102  -0.142   8.352  0.3248 -0.5530 -0.5131
  822MOL0     C10897   8.012  -0.250   8.298  0.0269 -0.6928  0.5048
  822MOL0     C10898   8.027  -0.391   8.361 -0.1106  0.0445 -0.3231
  822MOL0     C10899   8.012  -0.385   8.508  0.6557 -0.0894 -0.3257
  822MOL0     C10900   8.002  -0.355   8.629  0.3223 -1.2710 -0.2537
  822MOL0     C10901   8.018   0.272   8.236  0.2272  0.0097  1.1546
  822MOL0     C10902   7.990   0.411   8.237 -0.1697  1.1341 -0.5539
  822MOL0     H10903   7.793   0.847   8.330 -0.4613  1.2828  0.0793
  822MOL0     H10904   7.721   1.072   8.264 -1.4671  0.3103 -0.3846
  822MOL0     H10905   7.616   1.260   8.113 -0.3850  1.3227 -0.6673
  822MOL0     H10906   7.751   1.297   8.229  2.6069  2.0042 -0.8724
  822MOL0     H10907   7.709   1.410   7.940  1.7815 -1.9316 -0.8318
  822MOL0     H10908   7.647   1.495   8.092  0.7302  2.4359 -2.0102
  822MOL0     H10909   7.842   1.606   8.068  0.2654  1.0206  4.4485
  822MOL0     H10910   7.897   1.467   8.171 -0.7598 -1.6722 -0.2974
  822MOL0     H10911   8.008   1.370   7.993 -0.4347 -1.4553  0.5934
  822MOL0     H10912   7.930   1.468   7.854 -2.7618  0.4605  0.3015
  822MOL0     H10913   8.084   1.658   7.970 -0.1199  0.5364  4.6657
  822MOL0     H10914   8.144   1.526   8.073 -1.5618  2.0088  2.4668
  822MOL0     H10915   8.155   1.532   7.765 -1.0189  0.4175 -0.3369
  822MOL0     H10916   8.292   1.550   7.883  0.2960 -2.7922  1.2256
  822MOL0     H10917   8.146   1.278   7.837 -0.7393  0.7127  1.2758
  822MOL0     H10918   8.288   1.322   7.770  0.3140  2.6262 -0.3369
  822MOL0     H10919   8.234   1.293   8.076 -3.0809 -0.4336 -1.4316
  822MOL0     H10920   8.386   1.354   8.016  2.4307 -2.0536 -0.3552
  822MOL0     H10921   8.535   1.169   7.847 -1.2572 -0.0299 -1.4680
  822MOL0     H10922   8.504   0.883   7.718 -0.9689  4.0731 -0.0338
  822MOL0     H10923   8.651   0.945   7.819  1.2448 -2.8053  2.9680
  822MOL0     H10924   8.469   0.702   7.887 -1.1454  3.1844  0.6513
  822MOL0     H10925   8.625   0.766   7.973 -0.9640 -1.6833  1.6946
  822MOL0     H10926   8.720   0.735   7.745 -1.6696  2.4963  0.0934
  822MOL0     H10927   8.594   0.635   7.713  0.0393 -0.7500  1.3440
  822MOL0     H10928   8.661   0.550   7.958 -2.1533 -0.4330 -0.6847
  822MOL0     H10929   8.824   0.568   7.889 -0.5316  4.9589  2.6289
  822MOL0     H10930   8.457   0.487   7.928 -1.6909  2.0601 -3.1552
  822MOL0     H10931   8.144   0.349   7.883 -0.8493  3.1699  0.9792
  822MOL0     H10932   8.206   0.317   8.040  4.4604 -0.3561  1.7117
  822MOL0     H10933   8.251   0.470   7.944  1.1880  0.5521 -2.3223
  822MOL0     H10934   8.280  -0.124   8.037 -0.2030  3.8572 -3.3419
  822MOL0     H10935   8.236  -0.368   8.113  0.0159  0.2355  0.6519
  822MOL0     H10936   7.956  -0.532   8.055 -1.4554  1.7319 -1.6763
  822MOL0     H10937   7.976  -0.521   7.880 -0.0858 -0.2627  0.3058
  822MOL0     H10938   7.996  -0.764   8.052  4.5470  0.2150 -0.8174
  822MOL0     H10939   7.854  -0.712   7.954 -0.0943 -0.2557  0.9289
  822MOL0     H10940   8.104  -0.827   7.833 -0.1387 -1.5690 -1.6280
  822MOL0     H10941   7.986  -0.733   7.740 -0.1867  1.5469 -0.0560
  822MOL0     H10942   7.930  -0.978   7.907 -1.7592 -1.3261 -1.7617
  822MOL0     H10943   7.834  -0.920   7.767 -0.2505 -0.9732  0.1296
  822MOL0     H10944   7.968  -1.124   7.731 -0.2129 -0.6861  2.6005
  822MOL0     H10945   8.118  -1.040   7.789 -1.3080  1.0266  2.8293
  822MOL0     H10946   8.096  -0.896   7.588 -2.6724  0.6023  0.7284
  822MOL0     H10947   8.136  -1.066   7.550 -2.6338 -3.2030 -1.6767
  822MOL0     H10948   7.990  -0.972   7.396  2.9289 -0.6474  1.9772
  822MOL0     H10949   7.899  -0.898   7.526  3.7105  2.4967  0.2837
  822MOL0     H10950   7.801  -1.143   7.548 -0.6846 -3.3250 -2.0115
  822MOL0     H10951   7.912  -1.202   7.433 -0.2111 -0.2183 -0.2233
  822MOL0     H10952   8.180  -0.491   7.720 -1.8308  1.4411 -1.2760
  822MOL0     H10953   8.230  -0.257   7.639  0.1880 -0.8694  0.1578
  822MOL0     H10954   8.493   0.034   7.733  1.9759 -0.7327  2.5251
  822MOL0     H10955   8.678   0.204   7.704  1.7315  0.0946  3.2891
  822MOL0     H10956   7.967   1.064   7.921 -0.5138  1.8308 -0.8153
  822MOL0     H10957   8.041   0.829   7.972  1.4852  0.6169  1.5109
  822MOL0     H10958   8.181   0.530   8.481  2.1170  0.1247 -2.3752
  822MOL0     H10959   8.221   0.285   8.503  2.3206  3.9506  0.5062
  822MOL0     H10960   7.960   0.020   8.309  0.2148 -0.1619  3.3589
  822MOL0     H10961   8.098   0.006   8.189  0.7051  1.0017 -0.0315
  822MOL0     H10962   8.094  -0.128   8.460 -1.5670 -1.9894 -0.4144
  822MOL0     H10963   8.207  -0.157   8.324  0.7872  1.0485  0.1985
  822MOL0     H10964   8.023  -0.259   8.190  0.0321 -0.4400  0.4835
  822MOL0     H10965   7.912  -0.219   8.327  1.5739  1.3710  4.3672
  822MOL0     H10966   8.130  -0.425   8.351  0.4159  0.6545  2.3176
  822MOL0     H10967   7.961  -0.461   8.309 -0.0693 -0.6612  0.5485
  822MOL0     H10968   8.012  -0.318   8.729 -0.7542 -1.2715 -0.1356
  822MOL0     H10969   7.979   0.205   8.160 -1.2032  1.1830  0.8126
  822MOL0     H10970   7.931   0.461   8.161 -0.1259  0.2957 -1.1496
  823MOL0     O10971   6.376   2.035   3.908  0.9031 -0.2761 -0.2025
  823MOL0     C10972   6.319   2.040   4.018 -0.2407  0.0793 -0.2222
  823MOL0     O10973   6.202   2.100   4.046 -0.1924  0.6895 -0.3975
  823MOL0     C10974   6.137   2.178   3.954 -0.0139 -0.1776 -0.1644
  823MOL0     C10975   6.206   2.273   3.881 -0.4814  0.4979  0.6842
  823MOL0     C10976   6.143   2.347   3.779  0.1898  0.3191  0.8092
  823MOL0     C10977   6.000   2.334   3.758 -0.6201  0.1564  0.0880
  823MOL0     O10978   5.938   2.384   3.650  0.1360 -0.0092  0.1957
  823MOL0     C10979   5.937   2.524   3.666  0.2976 -0.2940 -0.5787
  823MOL0     C10980   5.926   2.595   3.533 -0.0082 -0.8759 -0.5131
  823MOL0     C10981   5.796   2.558   3.460 -0.6898  0.1521  1.2217
  823MOL0     C10982   5.767   2.658   3.348 -0.4879  0.0792  0.6031
  823MOL0     C10983   5.655   2.609   3.260  0.0151  0.1707  0.0486
  823MOL0     C10984   5.613   2.711   3.153 -0.1180 -0.1785  1.0167
  823MOL0     C10985   5.493   2.791   3.197  0.4900  1.3639 -0.3098
  823MOL0     C10986   5.467   2.910   3.117 -0.4630 -1.3655 -0.4928
  823MOL0     N10987   5.538   3.023   3.185 -0.4367  0.3817 -1.2047
  823MOL0     C10988   5.474   3.104   3.279  0.2216  1.4176 -0.0295
  823MOL0     C10989   5.564   3.191   3.323 -0.0176  0.4015 -0.3637
  823MOL0     C10990   5.535   3.301   3.423  0.3651  0.0916 -0.1063
  823MOL0     C10991   5.387   3.345   3.419 -0.3778 -0.5110 -0.1694
  823MOL0     C10992   5.345   3.399   3.287 -0.0649 -0.6758 -0.1957
  823MOL0     C10993   5.198   3.451   3.310  0.2543 -0.4986  0.5155
  823MOL0     O10994   5.118   3.347   3.352  0.1045  0.6221 -0.1041
  823MOL0     C10995   5.092   3.239   3.268  0.0229  0.5565  0.0012
  823MOL0     C10996   5.096   3.224   3.129  0.4623 -0.8046 -0.2735
  823MOL0     C10997   5.072   3.104   3.058 -0.0103  0.4455  0.0526
  823MOL0     C10998   5.066   3.101   2.911  0.7315 -0.5375  0.4087
  823MOL0     C10999   5.036   2.988   3.138 -0.5374 -0.3213 -0.0834
  823MOL0     C11000   5.008   2.854   3.082 -0.5242  0.1085  0.0001
  823MOL0     O11001   4.914   2.845   2.979  0.5595  0.6808  0.3295
  823MOL0     C11002   4.885   2.715   2.933  0.4976 -0.5701  0.1908
  823MOL0     C11003   4.794   2.632   2.995 -0.2660  0.2610 -0.0076
  823MOL0     C11004   4.771   2.500   2.943  0.7230  0.4957 -0.3907
  823MOL0     C11005   4.845   2.451   2.833 -0.1583  0.7610  0.1350
  823MOL0     O11006   4.839   2.323   2.797 -0.1294  0.2801  0.8754
  823MOL0     C11007   4.898   2.277   2.670  0.4274  0.0946  0.3835
  823MOL0     C11008   4.886   2.121   2.661 -0.3727 -0.2314 -0.0657
  823MOL0     C11009   4.743   2.066   2.672 -0.6399 -0.3238  0.2595
  823MOL0     C11010   4.744   1.916   2.695 -0.4138 -0.2309 -0.5792
  823MOL0     C11011   4.603   1.851   2.667  0.2775  0.5826 -1.2357
  823MOL0     C11012   4.539   1.876   2.537  0.2778  0.0391  0.5206
  823MOL0     C11013   4.383   1.831   2.531  0.1954  0.1656 -0.2562
  823MOL0     C11014   4.378   1.709   2.444 -0.6823  0.2346  0.0805
  823MOL0    Cl11015   4.218   1.642   2.418  0.7025 -0.4406 -0.3826
  823MOL0     C11016   4.921   2.541   2.764 -0.5622 -0.2602  0.0748
  823MOL0     C11017   4.947   2.665   2.816 -0.0331  0.3337  0.2153
  823MOL0     O11018   5.058   2.753   3.137  0.3880  0.3465  0.9584
  823MOL0     C11019   5.022   2.998   3.273  0.3745  0.5356 -0.3559
  823MOL0     C11020   5.052   3.126   3.332 -0.3221 -1.2397 -0.2629
  823MOL0     N11021   5.686   3.153   3.265 -0.1464  0.4709 -0.1283
  823MOL0     N11022   5.664   3.057   3.181 -0.3418 -0.3826 -1.0429
  823MOL0     C11023   5.929   2.243   3.845 -0.1743  0.2572 -0.5692
  823MOL0     C11024   5.998   2.163   3.940  0.3406  0.1994  1.3391
  823MOL0     C11025   6.387   1.965   4.125 -0.1271  0.2422 -0.2313
  823MOL0     C11026   6.498   1.881   4.082  0.2099  0.3517  0.7045
  823MOL0     C11027   6.561   1.795   4.171  0.7786 -0.6811  0.2802
  823MOL0     C11028   6.541   1.810   4.314 -0.7337  0.7187  0.8072
  823MOL0     O11029   6.608   1.735   4.407  0.0515 -0.0193  0.5038
  823MOL0     C11030   6.715   1.638   4.371 -0.2506 -0.0367 -0.7436
  823MOL0     C11031   6.663   1.505   4.316  0.0131  0.6652 -0.9745
  823MOL0     C11032   6.772   1.398   4.294 -0.5100 -0.6342 -0.6121
  823MOL0     C11033   6.892   1.455   4.211  0.4085 -0.2431 -0.2631
  823MOL0     C11034   6.849   1.473   4.073  0.0418  0.1073  0.1400
  823MOL0     C11035   6.792   1.468   3.967 -0.5020  0.3947  0.1515
  823MOL0     C11036   6.437   1.897   4.353 -0.2606 -0.4905 -0.8743
  823MOL0     C11037   6.360   1.969   4.263 -0.4144  0.2201 -0.2273
  823MOL0     H11038   6.313   2.290   3.896  0.2219 -1.8128 -1.2001
  823MOL0     H11039   6.195   2.414   3.711  1.0878 -3.4423 -2.6059
  823MOL0     H11040   5.849   2.555   3.723 -0.7334  0.8973 -2.6962
  823MOL0     H11041   6.026   2.563   3.716  0.2412 -1.9281  0.9187
  823MOL0     H11042   5.926   2.699   3.568  0.7670 -0.9525 -0.2567
  823MOL0     H11043   6.012   2.578   3.467  0.6770  0.3142  0.0356
  823MOL0     H11044   5.797   2.455   3.423  2.4496  0.3018  0.5959
  823MOL0     H11045   5.713   2.565   3.531 -0.3683  1.1861  1.5112
  823MOL0     H11046   5.747   2.756   3.392  1.7378  2.1278 -2.4826
  823MOL0     H11047   5.849   2.678   3.278 -2.3277 -0.8533 -1.9878
  823MOL0     H11048   5.687   2.519   3.207 -0.7506 -0.0896  0.0164
  823MOL0     H11049   5.578   2.594   3.337  1.1381 -0.8532  1.0158
  823MOL0     H11050   5.688   2.787   3.131 -1.3794  1.0635  0.9011
  823MOL0     H11051   5.584   2.651   3.066  1.7862  0.0005  0.2125
  823MOL0     H11052   5.424   2.708   3.187  3.3250 -1.4476  1.5344
  823MOL0     H11053   5.486   2.812   3.304 -1.2094 -3.0021  0.6435
  823MOL0     H11054   5.360   2.929   3.106 -0.3834  1.3997  2.1756
  823MOL0     H11055   5.507   2.901   3.016 -0.8103  2.2339 -1.0726
  823MOL0     H11056   5.367   3.113   3.294 -0.3464 -1.5822 -1.4322
  823MOL0     H11057   5.555   3.271   3.526 -0.0518  3.2994  1.0225
  823MOL0     H11058   5.600   3.388   3.406  1.8222  0.1723  4.5840
  823MOL0     H11059   5.369   3.424   3.493  1.9121 -2.7287  2.9851
  823MOL0     H11060   5.329   3.261   3.456  1.5953 -0.2106  4.1769
  823MOL0     H11061   5.352   3.323   3.208 -1.8670 -1.2484  0.1582
  823MOL0     H11062   5.410   3.482   3.259  0.8094  0.5686  4.6696
  823MOL0     H11063   5.154   3.491   3.219  0.6829 -1.6641 -0.2281
  823MOL0     H11064   5.206   3.537   3.377 -0.6141 -0.5598  0.7135
  823MOL0     H11065   5.117   3.314   3.072 -2.3915  1.1494  1.5184
  823MOL0     H11066   5.084   2.996   2.884 -0.6117 -2.1335  4.7959
  823MOL0     H11067   4.965   3.138   2.893  1.6194  2.0414  0.3376
  823MOL0     H11068   5.145   3.170   2.880  2.0308 -1.3826  1.7389
  823MOL0     H11069   4.747   2.669   3.086  0.7818  2.1210 -0.1840
  823MOL0     H11070   4.707   2.421   2.980  1.5071 -0.2929 -0.6764
  823MOL0     H11071   4.829   2.315   2.595  1.5650 -1.5652 -1.6056
  823MOL0     H11072   5.001   2.307   2.652 -0.4890  1.5065 -3.4510
  823MOL0     H11073   4.917   2.083   2.563  2.6325 -2.4790  1.5679
  823MOL0     H11074   4.949   2.075   2.738 -0.7269  0.7846  0.8544
  823MOL0     H11075   4.702   2.074   2.571  2.1172 -0.5433 -0.9785
  823MOL0     H11076   4.685   2.123   2.744  1.2268 -0.5283  2.0356
  823MOL0     H11077   4.815   1.868   2.627 -2.5841 -1.6183 -1.9944
  823MOL0     H11078   4.791   1.898   2.792  3.0135 -2.1539 -2.3819
  823MOL0     H11079   4.546   1.888   2.753  2.0478 -4.4371  2.6086
  823MOL0     H11080   4.618   1.744   2.683 -0.4696  0.4957 -1.0891
  823MOL0     H11081   4.534   1.979   2.503  0.7504 -0.7561 -2.1584
  823MOL0     H11082   4.589   1.824   2.455 -0.1667  1.5792 -0.7593
  823MOL0     H11083   4.320   1.913   2.495  0.8265  0.1821 -1.3611
  823MOL0     H11084   4.334   1.817   2.628 -0.0314  2.8287  0.0864
  823MOL0     H11085   4.440   1.632   2.489 -1.9879 -0.2016  1.2144
  823MOL0     H11086   4.417   1.720   2.342 -1.3407 -2.9438 -0.6211
  823MOL0     H11087   4.982   2.504   2.683 -0.2729  4.1919 -2.0094
  823MOL0     H11088   5.021   2.738   2.787  1.1144  0.2622  2.6998
  823MOL0     H11089   4.989   2.912   3.330  1.0012  1.5705  1.6922
  823MOL0     H11090   5.034   3.133   3.439 -0.1845  0.0559 -0.3169
  823MOL0     H11091   5.821   2.233   3.842 -0.2726  0.0699  1.5995
  823MOL0     H11092   5.949   2.096   4.009 -0.9912 -0.7779 -0.4849
  823MOL0     H11093   6.525   1.863   3.978 -1.4806 -0.9958  0.4481
  823MOL0     H11094   6.644   1.737   4.132  1.3822  1.0383 -1.1502
  823MOL0     H11095   6.763   1.683   4.284 -3.4898  1.2898 -1.9907
  823MOL0     H11096   6.779   1.617   4.457 -2.3917 -5.2796 -0.0344
  823MOL0     H11097   6.614   1.532   4.222 -0.0300 -1.2658 -1.5430
  823MOL0     H11098   6.587   1.457   4.378 -0.0279  0.9267 -0.8218
  823MOL0     H11099   6.724   1.309   4.251 -2.7177 -0.2857  1.0048
  823MOL0     H11100   6.802   1.368   4.395  1.1652 -2.8029 -1.6480
  823MOL0     H11101   6.977   1.386   4.215  1.7873  1.0371 -3.9951
  823MOL0     H11102   6.928   1.548   4.256  2.8074 -0.1474 -2.1596
  823MOL0     H11103   6.742   1.430   3.880 -1.4613 -0.3300  0.9884
  823MOL0     H11104   6.418   1.914   4.458  2.8913  2.9167 -0.6356
  823MOL0     H11105   6.279   2.034   4.294  1.2310 -0.0785  5.7760
  824MOL0     O11106   6.976   6.938   8.072  0.1040 -0.1537  0.3633
  824MOL0     C11107   6.860   6.899   8.058 -0.5831 -0.6626  0.3705
  824MOL0     O11108   6.820   6.801   7.983  0.3224 -0.4565  0.7937
  824MOL0     C11109   6.900   6.741   7.891 -0.3593 -0.1436  0.2273
  824MOL0     C11110   6.993   6.816   7.811  0.8092  0.3222 -0.9103
  824MOL0     C11111   7.094   6.740   7.741  0.0190  0.9688 -0.7141
  824MOL0     C11112   7.075   6.601   7.718 -0.0944 -0.4459  0.8103
  824MOL0     O11113   7.147   6.522   7.627  0.0738  1.3861  0.8384
  824MOL0     C11114   7.277   6.563   7.589  0.1301 -0.9761 -0.2579
  824MOL0     C11115   7.269   6.665   7.475  0.6563 -0.0603 -0.0730
  824MOL0     C11116   7.399   6.670   7.395  0.0466  0.4258 -0.6786
  824MOL0     C11117   7.403   6.784   7.290  0.2853 -0.3867  0.1566
  824MOL0     C11118   7.528   6.769   7.203  0.6603 -0.5463  0.4553
  824MOL0     C11119   7.536   6.882   7.092  0.1790  0.0850 -0.5698
  824MOL0     C11120   7.636   6.856   6.978 -0.0272 -0.6397  0.6754
  824MOL0     C11121   7.773   6.903   7.013 -0.2046  0.0255  0.7701
  824MOL0     N11122   7.841   6.856   7.135 -0.8700  0.0788 -0.4449
  824MOL0     C11123   7.921   6.933   7.217  0.4275 -0.2692  0.5353
  824MOL0     C11124   7.978   6.836   7.294 -0.3555  0.5208  0.6364
  824MOL0     C11125   8.080   6.838   7.402 -0.4901 -0.0811 -0.7246
  824MOL0     C11126   8.217   6.782   7.361 -0.1741 -0.1294 -0.5200
  824MOL0     C11127   8.215   6.639   7.300 -0.0906  0.6477 -0.9895
  824MOL0     C11128   8.165   6.540   7.386  0.1567  0.4981 -0.3075
  824MOL0     O11129   8.241   6.550   7.504 -0.2833 -0.4395 -0.7117
  824MOL0     C11130   8.171   6.511   7.620 -1.3736  0.1739  0.4247
  824MOL0     C11131   8.116   6.377   7.615 -0.0819  0.6620  0.1919
  824MOL0     C11132   8.053   6.332   7.732  0.1817  0.1604 -0.1260
  824MOL0     C11133   8.028   6.184   7.731  0.2192  1.0125  0.3761
  824MOL0     C11134   8.033   6.413   7.842 -0.3980 -0.1048 -0.7494
  824MOL0     C11135   7.950   6.374   7.961 -0.3192  0.7756 -0.3394
  824MOL0     O11136   7.880   6.255   7.955 -0.3613 -0.0433  0.2783
  824MOL0     C11137   7.785   6.227   8.048  0.2617 -0.7227 -0.0001
  824MOL0     C11138   7.653   6.274   8.031 -0.4012 -1.5414 -0.8326
  824MOL0     C11139   7.547   6.230   8.117  0.5492 -0.0401  0.6390
  824MOL0     C11140   7.570   6.132   8.222  0.1418 -0.6663  0.0537
  824MOL0     O11141   7.467   6.088   8.305 -0.9093  0.4958 -0.1162
  824MOL0     C11142   7.503   6.014   8.424 -0.2573  0.2026  0.3850
  824MOL0     C11143   7.552   6.112   8.547  0.0041  1.1267 -0.0358
  824MOL0     C11144   7.654   6.035   8.639 -0.5502 -0.9903  0.4691
  824MOL0     C11145   7.736   6.133   8.730  1.0350 -0.4836  0.2238
  824MOL0     C11146   7.796   6.064   8.847 -0.4016 -0.1423 -0.0045
  824MOL0     C11147   7.846   6.159   8.955  0.5959  0.0653  1.0411
  824MOL0     C11148   7.930   6.096   9.065  0.1342 -0.2334 -0.1310
  824MOL0     C11149   7.972   6.206   9.165  0.1569  0.2434 -0.0450
  824MOL0    Cl11150   8.054   6.341   9.098 -0.4056 -0.4940  0.5384
  824MOL0     C11151   7.710   6.108   8.248 -0.2061  0.6055  0.8957
  824MOL0     C11152   7.812   6.144   8.149  0.4132  1.0701  0.4309
  824MOL0     O11153   7.943   6.456   8.055  0.3637 -0.0161 -0.1624
  824MOL0     C11154   8.076   6.545   7.835 -0.9192 -0.8316 -0.5879
  824MOL0     C11155   8.154   6.598   7.730 -0.2370 -0.1962  0.4725
  824MOL0     N11156   7.919   6.714   7.266  0.2050  0.9603 -0.2132
  824MOL0     N11157   7.837   6.726   7.166  0.4015 -0.2769 -0.2638
  824MOL0     C11158   6.964   6.538   7.785  0.4113  0.5864 -0.3078
  824MOL0     C11159   6.877   6.607   7.868 -1.0302  0.0319  0.8207
  824MOL0     C11160   6.764   6.950   8.152  0.4001  0.5362 -0.3109
  824MOL0     C11161   6.793   7.000   8.274  0.0582 -0.2750 -1.1071
  824MOL0     C11162   6.690   7.049   8.358 -0.6037  0.3498 -0.3123
  824MOL0     C11163   6.562   7.064   8.315  0.4822 -0.3487  0.5922
  824MOL0     O11164   6.468   7.124   8.398 -0.1882 -0.0936 -0.4568
  824MOL0     C11165   6.340   7.059   8.391  0.4531  0.0649  0.0080
  824MOL0     C11166   6.255   7.081   8.512 -0.3107  0.0284  0.3341
  824MOL0     C11167   6.182   7.218   8.509 -1.1305 -0.3716  0.5429
  824MOL0     C11168   6.094   7.242   8.628  0.3115 -0.4524  0.6212
  824MOL0     C11169   6.047   7.387   8.643  0.4875  0.9798  1.0116
  824MOL0     C11170   6.033   7.504   8.666 -0.0803  1.1130  0.4916
  824MOL0     C11171   6.536   7.033   8.183 -0.1300 -0.0150 -0.1291
  824MOL0     C11172   6.631   6.965   8.104  0.0358 -0.9206  0.1177
  824MOL0     H11173   7.021   6.920   7.826 -1.0800  0.8410 -0.6841
  824MOL0     H11174   7.169   6.798   7.688  1.0094  1.7359  1.4173
  824MOL0     H11175   7.337   6.600   7.673  1.7895 -0.9053 -1.4276
  824MOL0     H11176   7.326   6.475   7.546  0.5830 -0.9622  0.2194
  824MOL0     H11177   7.181   6.636   7.418 -1.1773  1.9342  1.5396
  824MOL0     H11178   7.260   6.771   7.503  1.2262 -0.8316  3.5754
  824MOL0     H11179   7.480   6.691   7.466  1.6200 -0.9819 -1.9630
  824MOL0     H11180   7.426   6.577   7.345 -0.4554  0.1253 -0.3927
  824MOL0     H11181   7.316   6.758   7.229  0.4607 -0.7347  0.0509
  824MOL0     H11182   7.384   6.878   7.342  0.8405 -1.3987  2.3107
  824MOL0     H11183   7.619   6.776   7.262  2.9145  4.0948 -2.9544
  824MOL0     H11184   7.524   6.674   7.149 -4.8762 -0.6291  0.4348
  824MOL0     H11185   7.438   6.884   7.044  1.8529 -1.8295 -4.4977
  824MOL0     H11186   7.553   6.980   7.139 -2.0368 -1.3206  3.6514
  824MOL0     H11187   7.645   6.749   6.954  4.8392 -1.2833  3.9188
  824MOL0     H11188   7.602   6.904   6.886  0.6118 -1.3516  0.0465
  824MOL0     H11189   7.761   7.012   7.009 -0.8031 -0.0856 -1.0086
  824MOL0     H11190   7.838   6.872   6.930 -2.7698 -1.2491 -0.8734
  824MOL0     H11191   7.922   7.041   7.210  1.5349 -0.3692 -1.6727
  824MOL0     H11192   8.102   6.940   7.435 -1.1511  0.3074 -1.4500
  824MOL0     H11193   8.048   6.769   7.481  2.3711 -1.2029 -0.4351
  824MOL0     H11194   8.286   6.791   7.446 -0.2714  1.2162 -0.5564
  824MOL0     H11195   8.251   6.854   7.286 -1.8457  0.5507 -0.6749
  824MOL0     H11196   8.322   6.619   7.286  0.0521  0.1917  0.5911
  824MOL0     H11197   8.168   6.654   7.202 -4.2841  0.6336  0.8360
  824MOL0     H11198   8.200   6.445   7.344  2.3898  0.7448  0.8338
  824MOL0     H11199   8.057   6.545   7.404 -0.4979 -1.8857 -2.7953
  824MOL0     H11200   8.139   6.310   7.532  0.9874  2.6350 -1.1874
  824MOL0     H11201   7.921   6.159   7.721 -0.1004  1.5499  2.1355
  824MOL0     H11202   8.078   6.121   7.657 -3.8631 -1.3677 -0.7401
  824MOL0     H11203   8.066   6.141   7.824  0.3611 -0.9069 -0.5104
  824MOL0     H11204   7.630   6.341   7.949 -2.4542 -2.4173 -1.0424
  824MOL0     H11205   7.445   6.265   8.100  0.6310 -1.3087 -3.6525
  824MOL0     H11206   7.412   5.969   8.464  0.0236  0.3118  1.1712
  824MOL0     H11207   7.581   5.937   8.423 -0.4905 -0.1455  2.9952
  824MOL0     H11208   7.592   6.207   8.511 -0.0815 -0.4300 -4.9262
  824MOL0     H11209   7.467   6.134   8.612 -0.4798  0.1577 -0.3105
  824MOL0     H11210   7.721   5.967   8.586  0.3083  0.6529 -0.6468
  824MOL0     H11211   7.589   5.978   8.705  1.8375 -1.1696  2.8362
  824MOL0     H11212   7.795   6.199   8.665 -0.8207  0.0872 -0.9675
  824MOL0     H11213   7.658   6.197   8.774  0.9204 -1.2598  1.1892
  824MOL0     H11214   7.878   6.002   8.810 -0.4974  0.5438 -1.4518
  824MOL0     H11215   7.718   5.997   8.885 -3.4599  1.7783 -2.3021
  824MOL0     H11216   7.918   6.231   8.913  0.7816 -0.8904 -0.3283
  824MOL0     H11217   7.761   6.219   8.989  0.9216  1.8113 -0.9846
  824MOL0     H11218   8.016   6.051   9.014  0.4356  1.4761 -1.1983
  824MOL0     H11219   7.876   6.012   9.110  0.9200 -0.7871 -0.1999
  824MOL0     H11220   8.036   6.159   9.240 -0.1425 -0.0184  0.0471
  824MOL0     H11221   7.890   6.257   9.215 -0.0168  0.8036 -0.8843
  824MOL0     H11222   7.740   6.036   8.324  5.0876  1.8556  0.3236
  824MOL0     H11223   7.913   6.111   8.170 -0.3362 -1.3425  0.5531
  824MOL0     H11224   8.079   6.610   7.922  0.4979 -1.7664  0.1120
  824MOL0     H11225   8.203   6.694   7.748  2.2276 -1.3802  0.4765
  824MOL0     H11226   6.947   6.433   7.765  3.4655  0.1353 -1.0780
  824MOL0     H11227   6.790   6.570   7.921 -0.6726  1.0824  2.1826
  824MOL0     H11228   6.896   7.010   8.306 -0.4316 -0.3673  0.6244
  824MOL0     H11229   6.723   7.059   8.461  0.5909 -0.0264 -0.6406
  824MOL0     H11230   6.280   7.091   8.305 -3.4284 -2.0071  1.6935
  824MOL0     H11231   6.355   6.951   8.385  1.1107  0.2333 -2.4376
  824MOL0     H11232   6.315   7.086   8.603 -2.3605 -0.1786  1.7645
  824MOL0     H11233   6.187   6.995   8.512 -0.9249  0.3459 -3.3447
  824MOL0     H11234   6.124   7.247   8.421  1.8664 -0.5025 -1.6363
  824MOL0     H11235   6.259   7.294   8.500 -2.9188  1.2500 -2.8515
  824MOL0     H11236   6.149   7.204   8.715 -1.7367 -1.2341  1.6556
  824MOL0     H11237   6.007   7.175   8.619  0.5557 -0.4435 -3.5819
  824MOL0     H11238   6.019   7.610   8.675  2.0761  1.5357 -0.5843
  824MOL0     H11239   6.441   7.058   8.135  0.6190  1.9634 -0.6807
  824MOL0     H11240   6.604   6.941   8.001 -0.3263 -2.1080  0.4783
  825MOL0     O11241   4.692   1.551   6.956  0.4947  0.0912 -0.4672
  825MOL0     C11242   4.662   1.636   6.869  0.1445  0.6453 -0.8061
  825MOL0     O11243   4.743   1.687   6.780 -0.2202 -0.0164 -1.0325
  825MOL0     C11244   4.885   1.653   6.775  0.1102 -0.1995  0.1914
  825MOL0     C11245   4.937   1.590   6.665 -0.2658  0.2406 -0.1625
  825MOL0     C11246   5.072   1.586   6.625 -0.0019 -0.4408  1.0100
  825MOL0     C11247   5.159   1.635   6.722  0.3746  0.4073 -0.0969
  825MOL0     O11248   5.291   1.619   6.694 -0.7598  0.5662  0.6557
  825MOL0     C11249   5.394   1.704   6.751 -0.1204 -0.7228 -0.5109
  825MOL0     C11250   5.426   1.836   6.676  0.2572  0.9171 -0.2070
  825MOL0     C11251   5.550   1.823   6.582  0.2487 -0.2714  0.5850
  825MOL0     C11252   5.684   1.822   6.665  0.6799 -0.3565  1.1036
  825MOL0     C11253   5.803   1.853   6.574  0.9537  0.7369  0.0317
  825MOL0     C11254   5.921   1.928   6.640  0.5322  0.0306 -0.3974
  825MOL0     C11255   5.998   1.829   6.729  0.1490  0.4494 -1.3055
  825MOL0     C11256   6.130   1.893   6.787 -0.4237 -0.1509 -0.3319
  825MOL0     N11257   6.099   1.986   6.895 -0.6249 -0.3980 -0.0982
  825MOL0     C11258   6.135   1.956   7.023  0.2106 -0.5392  1.0770
  825MOL0     C11259   6.109   2.071   7.086 -1.1844 -0.7080 -0.4564
  825MOL0     C11260   6.125   2.095   7.237 -0.4860 -0.2240  0.2018
  825MOL0     C11261   6.213   2.216   7.276 -0.3762  0.2627 -0.0056
  825MOL0     C11262   6.151   2.346   7.240 -0.5667  0.4989  0.5122
  825MOL0     C11263   6.222   2.455   7.321 -0.0854 -0.9690  0.3636
  825MOL0     O11264   6.191   2.588   7.289 -0.5874 -0.0449  0.2132
  825MOL0     C11265   6.062   2.623   7.294  0.0147  0.1479 -0.9135
  825MOL0     C11266   5.985   2.630   7.179 -0.2620 -0.5402  0.1680
  825MOL0     C11267   5.846   2.642   7.170  0.0883 -0.0836 -0.5743
  825MOL0     C11268   5.778   2.616   7.046  0.4141 -0.3726 -0.4174
  825MOL0     C11269   5.782   2.685   7.293  0.7391 -0.1608  0.6790
  825MOL0     C11270   5.642   2.724   7.302  0.1626 -0.0230 -0.8227
  825MOL0     O11271   5.568   2.694   7.414  0.2362 -0.2869  0.1518
  825MOL0     C11272   5.432   2.709   7.411 -0.0764 -0.1293  0.0053
  825MOL0     C11273   5.356   2.821   7.366 -0.7509  0.2418  0.5559
  825MOL0     C11274   5.219   2.825   7.381  0.0591 -0.4645 -0.8858
  825MOL0     C11275   5.152   2.722   7.445 -0.3606  0.7213  0.9588
  825MOL0     O11276   5.015   2.718   7.450 -0.7479  0.0047  0.8059
  825MOL0     C11277   4.949   2.759   7.325  0.2131 -0.1706 -1.1531
  825MOL0     C11278   4.910   2.632   7.247  0.2547 -0.2124  0.1621
  825MOL0     C11279   4.772   2.582   7.286  0.0351  0.4791  0.6037
  825MOL0     C11280   4.673   2.599   7.173  0.6170 -0.1430  0.0357
  825MOL0     C11281   4.538   2.586   7.230  0.0402  0.0145 -0.5859
  825MOL0     C11282   4.432   2.626   7.129  0.2223 -1.3269  0.0258
  825MOL0     C11283   4.292   2.643   7.205 -0.4359 -1.0244  0.2663
  825MOL0     C11284   4.270   2.778   7.277  0.1102  0.2421 -0.4185
  825MOL0    Cl11285   4.112   2.764   7.370 -0.3961  0.0890  0.1189
  825MOL0     C11286   5.225   2.627   7.512 -0.3468  0.8428  0.2811
  825MOL0     C11287   5.359   2.615   7.479 -1.0115 -0.3995 -0.9970
  825MOL0     O11288   5.590   2.783   7.202  0.0702 -0.4997 -0.3212
  825MOL0     C11289   5.856   2.689   7.416  0.0313  0.5210  0.0601
  825MOL0     C11290   5.993   2.645   7.420  0.8065  0.5280  0.3635
  825MOL0     N11291   6.071   2.161   6.994  0.3143 -0.4129  0.4400
  825MOL0     N11292   6.063   2.109   6.886 -0.1987  0.2806  0.2397
  825MOL0     C11293   5.111   1.693   6.839 -0.9986  0.1714 -0.1381
  825MOL0     C11294   4.975   1.715   6.862 -0.1034 -1.0962 -0.6791
  825MOL0     C11295   4.518   1.667   6.850 -0.6073  0.7085  1.4268
  825MOL0     C11296   4.480   1.789   6.796  0.8955 -0.1215 -0.6022
  825MOL0     C11297   4.340   1.814   6.776  0.0958 -0.6651  0.4924
  825MOL0     C11298   4.244   1.715   6.787 -0.2146  0.0571 -0.3440
  825MOL0     O11299   4.113   1.730   6.762 -0.0653  0.5041  0.8728
  825MOL0     C11300   4.046   1.826   6.839 -0.6186  0.0113  0.4638
  825MOL0     C11301   4.037   1.787   6.989  0.0663 -0.1165  0.9227
  825MOL0     C11302   3.959   1.650   6.992 -0.1051 -0.9274 -0.1741
  825MOL0     C11303   3.966   1.600   7.138  0.0069 -0.0135  0.4953
  825MOL0     C11304   3.868   1.496   7.170  0.5688 -0.1263 -0.5519
  825MOL0     C11305   3.783   1.413   7.203  0.1228  0.2482 -0.5691
  825MOL0     C11306   4.295   1.590   6.840  1.3811 -0.6636  0.3162
  825MOL0     C11307   4.430   1.568   6.866  0.8051 -0.5296 -0.1258
  825MOL0     H11308   4.867   1.551   6.592  0.8351  0.1837 -1.2211
  825MOL0     H11309   5.123   1.531   6.547  0.3663 -0.7755  1.4783
  825MOL0     H11310   5.378   1.729   6.857  1.4362  1.4358 -0.7068
  825MOL0     H11311   5.483   1.641   6.748  1.7120  1.4499  2.4863
  825MOL0     H11312   5.346   1.855   6.604 -0.0500 -2.9177 -1.0860
  825MOL0     H11313   5.448   1.917   6.745  0.5355 -0.3293  1.2326
  825MOL0     H11314   5.557   1.740   6.510 -0.4087 -0.5739  0.8670
  825MOL0     H11315   5.540   1.916   6.525 -0.7804 -0.1419  0.9768
  825MOL0     H11316   5.697   1.895   6.745  4.7744  0.2056  0.1245
  825MOL0     H11317   5.693   1.723   6.710  0.0623 -0.6785  0.5405
  825MOL0     H11318   5.842   1.762   6.526 -2.3912 -0.2070 -1.1702
  825MOL0     H11319   5.759   1.917   6.497  0.7834  1.8098  0.9964
  825MOL0     H11320   5.981   1.963   6.555  3.1669 -1.3027  0.8120
  825MOL0     H11321   5.902   2.012   6.708 -2.8120  0.3744 -1.5372
  825MOL0     H11322   5.940   1.786   6.812 -1.5634  3.4236 -0.8299
  825MOL0     H11323   6.036   1.749   6.664 -2.0512 -0.3379 -1.6938
  825MOL0     H11324   6.182   1.945   6.705 -2.4724 -0.4356 -1.8845
  825MOL0     H11325   6.193   1.808   6.816  3.4220  1.6654 -2.5073
  825MOL0     H11326   6.162   1.857   7.060  1.1938 -1.1478 -1.0802
  825MOL0     H11327   6.026   2.117   7.278  0.4816  3.4110  0.8878
  825MOL0     H11328   6.169   2.003   7.277  2.4774  0.8299 -0.3592
  825MOL0     H11329   6.306   2.210   7.219 -1.4084  0.7204 -1.8457
  825MOL0     H11330   6.228   2.209   7.384  0.1898  0.2594 -0.0826
  825MOL0     H11331   6.045   2.356   7.267 -0.1301  2.2326  1.8146
  825MOL0     H11332   6.167   2.359   7.133 -0.6579  0.5664  0.5064
  825MOL0     H11333   6.326   2.438   7.294  0.5184  1.6075  0.8563
  825MOL0     H11334   6.216   2.429   7.428  4.8161  1.1097  1.3910
  825MOL0     H11335   6.053   2.613   7.096  2.6282 -0.3649  2.3424
  825MOL0     H11336   5.825   2.524   7.010  1.1756  0.0685 -0.5870
  825MOL0     H11337   5.669   2.607   7.042  0.0966  2.3926 -0.1529
  825MOL0     H11338   5.810   2.688   6.970  1.0137 -0.8911 -0.6658
  825MOL0     H11339   5.401   2.899   7.305 -1.9514  0.1215 -0.5057
  825MOL0     H11340   5.168   2.906   7.331 -0.2549 -1.4149 -2.1531
  825MOL0     H11341   4.856   2.813   7.346  0.5981  2.3712 -4.9539
  825MOL0     H11342   5.003   2.822   7.253 -1.8677  2.1072 -0.8752
  825MOL0     H11343   4.909   2.650   7.139 -0.9594 -1.9228 -0.1479
  825MOL0     H11344   4.981   2.554   7.275 -0.3114 -1.3094 -1.2895
  825MOL0     H11345   4.738   2.625   7.380 -0.0671 -1.3226  1.4324
  825MOL0     H11346   4.788   2.475   7.297  1.2494  0.3567 -1.6168
  825MOL0     H11347   4.683   2.702   7.138 -1.0554  0.0060 -0.1109
  825MOL0     H11348   4.697   2.529   7.092 -0.8149 -1.4931  0.7278
  825MOL0     H11349   4.536   2.654   7.316 -2.7671  0.6894 -1.0853
  825MOL0     H11350   4.507   2.496   7.284  1.0253  2.0999  3.8848
  825MOL0     H11351   4.457   2.717   7.075  2.8687 -3.9391 -3.6487
  825MOL0     H11352   4.437   2.550   7.051 -3.9224 -0.2666 -1.5200
  825MOL0     H11353   4.272   2.558   7.271 -4.2983  1.3075  2.5030
  825MOL0     H11354   4.220   2.627   7.125  3.3739 -5.3219 -2.7558
  825MOL0     H11355   4.251   2.859   7.205  1.1786  1.8649  1.0264
  825MOL0     H11356   4.348   2.806   7.349 -0.2558 -1.4043  0.6653
  825MOL0     H11357   5.172   2.554   7.572 -2.6959  0.4324 -2.1008
  825MOL0     H11358   5.406   2.520   7.502 -1.7106 -0.3868  0.6336
  825MOL0     H11359   5.804   2.705   7.510  0.0791 -4.0400  1.0710
  825MOL0     H11360   6.033   2.637   7.521 -0.4760  3.0489  1.1475
  825MOL0     H11361   5.173   1.738   6.917 -2.8883 -0.1805  1.6611
  825MOL0     H11362   4.942   1.765   6.952  0.5682 -0.2018 -0.9189
  825MOL0     H11363   4.557   1.861   6.771  2.0541 -1.1870 -0.2123
  825MOL0     H11364   4.305   1.906   6.730  1.5217 -1.2249 -1.8743
  825MOL0     H11365   4.097   1.923   6.834  0.9204 -0.5419  3.1960
  825MOL0     H11366   3.947   1.840   6.797 -0.3701  0.8093  0.1188
  825MOL0     H11367   3.988   1.872   7.038 -1.1807  0.5821 -1.4108
  825MOL0     H11368   4.142   1.782   7.022  1.1200 -0.2911 -2.1439
  825MOL0     H11369   4.004   1.574   6.927 -0.9294 -2.2424  0.7480
  825MOL0     H11370   3.857   1.664   6.955 -0.1427 -1.1630 -0.1632
  825MOL0     H11371   3.952   1.682   7.209 -2.4032 -0.3919  0.5353
  825MOL0     H11372   4.068   1.562   7.149  0.0798 -0.1040 -0.4024
  825MOL0     H11373   3.712   1.344   7.244 -0.2298  1.9320  1.8074
  825MOL0     H11374   4.231   1.505   6.860 -0.2268  1.2712  4.6124
  825MOL0     H11375   4.456   1.475   6.916  0.3067 -2.1960 -2.7626
  826MOL0     O11376  10.981   0.847   2.203 -0.5046  0.3001 -0.6085
  826MOL0     C11377  10.895   0.820   2.123  0.7667 -0.8018  0.0194
  826MOL0     O11378  10.799   0.904   2.080 -0.0031  0.1820  0.5605
  826MOL0     C11379  10.780   1.032   2.129  0.1436  0.3660  0.8400
  826MOL0     C11380  10.808   1.065   2.258  0.0256  0.2756  0.2631
  826MOL0     C11381  10.824   1.194   2.303 -0.2741 -0.3180  0.6211
  826MOL0     C11382  10.797   1.298   2.217 -0.4340 -0.3201  0.2735
  826MOL0     O11383  10.807   1.430   2.248 -0.1640 -0.4138  0.6204
  826MOL0     C11384  10.681   1.476   2.299 -0.7805  0.1697  0.3230
  826MOL0     C11385  10.673   1.629   2.269 -0.0972  0.8112 -0.5361
  826MOL0     C11386  10.667   1.647   2.119  0.4216 -0.1401  0.0048
  826MOL0     C11387  10.612   1.797   2.091 -0.1314 -1.1640  0.2907
  826MOL0     C11388  10.603   1.814   1.936 -0.1919 -0.0282  0.6565
  826MOL0     C11389  10.612   1.955   1.894  0.7241  0.6216 -0.7353
  826MOL0     C11390  10.759   1.996   1.882 -0.0386 -0.5025 -0.0442
  826MOL0     C11391  10.781   2.134   1.826  0.6218 -0.4732 -0.4661
  826MOL0     N11392  10.745   2.220   1.934  0.8155 -0.1982 -0.8905
  826MOL0     C11393  10.831   2.261   2.034 -0.4658 -0.3122  0.1666
  826MOL0     C11394  10.780   2.367   2.102 -0.0462 -0.5470 -0.2523
  826MOL0     C11395  10.864   2.461   2.197  0.0344  1.2640  0.3284
  826MOL0     C11396  10.816   2.610   2.177  0.1842 -0.4325 -0.5450
  826MOL0     C11397  10.860   2.673   2.050  0.1942  0.0595 -1.3439
  826MOL0     C11398  10.841   2.824   2.052 -0.0009 -0.5208  0.1580
  826MOL0     O11399  10.722   2.870   2.120 -0.7655  0.5209  0.2924
  826MOL0     C11400  10.647   2.973   2.071  0.3778  0.5555  0.2801
  826MOL0     C11401  10.687   3.066   1.971  0.3005  0.2989 -0.1216
  826MOL0     C11402  10.595   3.159   1.926 -0.6771 -0.0334  0.1843
  826MOL0     C11403  10.638   3.249   1.818  0.6054 -0.1763  0.1045
  826MOL0     C11404  10.469   3.174   1.982 -0.8260 -0.7470  0.1648
  826MOL0     C11405  10.366   3.283   1.949  0.8052  0.9541 -0.5261
  826MOL0     O11406  10.305   3.351   2.058 -0.8386 -0.0207 -0.1171
  826MOL0     C11407  10.205   3.446   2.032 -0.4639 -0.8574 -0.2647
  826MOL0     C11408  10.133   3.477   1.918 -0.2188  0.0635  0.0399
  826MOL0     C11409  10.048   3.593   1.910  1.0465 -0.3838 -0.5648
  826MOL0     C11410  10.019   3.672   2.022  0.0772 -0.6147 -0.9181
  826MOL0     O11411   9.939   3.786   2.000 -0.5488 -0.1997  0.1069
  826MOL0     C11412   9.928   3.883   2.100  0.4215 -0.2672 -0.2674
  826MOL0     C11413   9.879   4.007   2.020  0.2081 -0.4240 -0.5546
  826MOL0     C11414   9.841   4.132   2.110  0.0782  0.3093 -0.7634
  826MOL0     C11415   9.856   4.251   2.021  0.8257  0.3908  0.6115
  826MOL0     C11416   9.819   4.380   2.089  0.5333  0.0151 -0.4619
  826MOL0     C11417   9.824   4.503   1.995  0.0232  0.0429 -0.7595
  826MOL0     C11418   9.945   4.527   1.896 -0.4241  0.6453  0.5112
  826MOL0     C11419   9.929   4.662   1.818 -0.3249 -0.0467 -1.0787
  826MOL0    Cl11420  10.055   4.675   1.687 -0.5042  0.0064  0.1103
  826MOL0     C11421  10.088   3.640   2.142  0.2867  0.0554 -0.3311
  826MOL0     C11422  10.176   3.531   2.141 -0.2145  0.3278 -0.0401
  826MOL0     O11423  10.335   3.297   1.832 -0.0621 -0.0396  0.1691
  826MOL0     C11424  10.428   3.092   2.093  0.4320 -0.8985  0.3822
  826MOL0     C11425  10.519   2.988   2.129  1.7709  0.0812  0.2102
  826MOL0     N11426  10.654   2.383   2.033  0.4070 -0.5830  0.1478
  826MOL0     N11427  10.635   2.296   1.945 -0.4155 -0.4989  0.6654
  826MOL0     C11428  10.759   1.267   2.083 -0.2568 -0.5931 -0.2237
  826MOL0     C11429  10.747   1.139   2.037 -1.1535 -0.7544  0.4042
  826MOL0     C11430  10.886   0.679   2.085 -0.2720 -0.5071  0.7070
  826MOL0     C11431  10.779   0.634   2.014  0.4384 -0.0534  0.4103
  826MOL0     C11432  10.771   0.503   1.975 -0.9045 -0.3867  0.0791
  826MOL0     C11433  10.867   0.404   1.991 -0.7394 -0.4596  0.0405
  826MOL0     O11434  10.841   0.271   1.962 -0.2993  0.6143 -0.0589
  826MOL0     C11435  10.787   0.199   2.076  0.1896 -0.1141  0.0268
  826MOL0     C11436  10.631   0.206   2.078 -0.3856 -1.0101 -0.4381
  826MOL0     C11437  10.543   0.122   1.976  1.4668 -0.6099 -1.0721
  826MOL0     C11438  10.390   0.173   1.976  1.0340  0.7117 -0.5332
  826MOL0     C11439  10.390   0.313   1.952  0.2639  0.5531 -0.0019
  826MOL0     C11440  10.402   0.430   1.924 -0.1467 -0.0255 -0.1574
  826MOL0     C11441  10.976   0.460   2.060 -0.0393  1.5188 -0.2176
  826MOL0     C11442  10.992   0.588   2.103  0.0135  0.4364  0.4385
  826MOL0     H11443  10.818   0.988   2.333 -0.4137 -0.4117 -0.3677
  826MOL0     H11444  10.863   1.205   2.403  0.6714  1.5780  0.0988
  826MOL0     H11445  10.606   1.409   2.256  1.1964 -1.8926 -0.0774
  826MOL0     H11446  10.678   1.466   2.408  0.1414 -2.9329  0.1649
  826MOL0     H11447  10.586   1.659   2.329  0.7874  2.0275  0.1642
  826MOL0     H11448  10.760   1.683   2.306  0.6002  0.7690 -2.0614
  826MOL0     H11449  10.767   1.639   2.076  1.6578  2.7092  2.0284
  826MOL0     H11450  10.597   1.573   2.079  1.0375 -2.2272  2.5123
  826MOL0     H11451  10.518   1.810   2.146  1.3700  4.0493  2.2245
  826MOL0     H11452  10.682   1.868   2.137  2.3682 -2.0448 -1.9233
  826MOL0     H11453  10.685   1.760   1.887  0.1535 -0.6221  1.8613
  826MOL0     H11454  10.509   1.767   1.907  0.4077 -1.3644  0.8098
  826MOL0     H11455  10.567   1.948   1.794  0.2224 -3.5616 -0.4020
  826MOL0     H11456  10.556   2.010   1.969 -0.5543 -2.4937  0.7577
  826MOL0     H11457  10.804   1.975   1.980 -0.4729 -0.3960  0.1844
  826MOL0     H11458  10.813   1.935   1.809  0.0353  0.6292 -0.9430
  826MOL0     H11459  10.713   2.159   1.744 -0.6844  1.5191  1.1332
  826MOL0     H11460  10.885   2.157   1.799  0.5571 -1.3018 -1.4697
  826MOL0     H11461  10.934   2.231   2.044 -0.6478 -1.5287 -1.3525
  826MOL0     H11462  10.830   2.434   2.297  2.0465  0.6348  0.8756
  826MOL0     H11463  10.973   2.459   2.183 -0.1667  0.6551 -1.5114
  826MOL0     H11464  10.857   2.672   2.257 -0.7280 -1.7937  1.0373
  826MOL0     H11465  10.709   2.629   2.182  0.4423  1.5071 -1.6119
  826MOL0     H11466  10.814   2.618   1.968 -0.7922 -1.2662  0.0258
  826MOL0     H11467  10.968   2.660   2.035  1.2869  0.9942  3.7143
  826MOL0     H11468  10.840   2.851   1.946 -0.6911 -1.0528  0.0225
  826MOL0     H11469  10.924   2.876   2.102  0.7851  1.2696 -2.7592
  826MOL0     H11470  10.789   3.053   1.937  0.1586  1.5153 -1.0950
  826MOL0     H11471  10.563   3.285   1.747  2.5910  0.6355 -1.6882
  826MOL0     H11472  10.677   3.338   1.869 -1.0227 -0.8505  2.7334
  826MOL0     H11473  10.717   3.198   1.763  1.0572  1.3753 -0.7599
  826MOL0     H11474  10.150   3.422   1.826  3.6414  2.7187 -1.0980
  826MOL0     H11475   9.996   3.637   1.825 -2.1071  0.8226  1.7735
  826MOL0     H11476   9.855   3.870   2.181 -0.3140 -1.2124 -1.0552
  826MOL0     H11477  10.027   3.893   2.146  0.1444 -2.6579  1.0164
  826MOL0     H11478   9.954   4.031   1.944  2.9837 -1.5338  1.6277
  826MOL0     H11479   9.795   3.977   1.958  0.5919 -1.0460 -0.7773
  826MOL0     H11480   9.916   4.139   2.189 -0.6005 -0.8994  0.0229
  826MOL0     H11481   9.741   4.120   2.152 -0.9060  0.1093 -3.0259
  826MOL0     H11482   9.950   4.258   1.966 -0.3881  1.6842 -1.4751
  826MOL0     H11483   9.788   4.244   1.935 -0.4166  0.6106  1.5406
  826MOL0     H11484   9.882   4.398   2.177  3.5261  0.1501 -2.4716
  826MOL0     H11485   9.717   4.375   2.128  0.4735 -3.2068 -0.7865
  826MOL0     H11486   9.725   4.505   1.947 -1.1696  1.4647  1.5708
  826MOL0     H11487   9.819   4.586   2.067 -2.8530 -1.1043  0.5417
  826MOL0     H11488   9.950   4.438   1.832 -0.2210 -1.7603  3.6238
  826MOL0     H11489  10.033   4.519   1.960 -2.1694  0.0852  3.0074
  826MOL0     H11490   9.929   4.740   1.894  2.9782 -0.1104 -0.8828
  826MOL0     H11491   9.833   4.650   1.766 -1.4832 -1.2686  1.1635
  826MOL0     H11492  10.069   3.697   2.233  2.4298 -0.7616  0.7140
  826MOL0     H11493  10.237   3.511   2.229  0.8456  0.1170 -0.8033
  826MOL0     H11494  10.333   3.106   2.143  0.4086  2.8695 -0.3484
  826MOL0     H11495  10.484   2.938   2.219  0.9829  3.0806  1.7097
  826MOL0     H11496  10.732   1.342   2.010 -0.6079 -2.1547 -1.7608
  826MOL0     H11497  10.710   1.127   1.936 -0.5184  3.1989 -0.4333
  826MOL0     H11498  10.702   0.708   1.994  2.0392  1.9032  1.0034
  826MOL0     H11499  10.697   0.465   1.906 -0.8424  0.9265 -0.7658
  826MOL0     H11500  10.814   0.093   2.081 -1.7594 -0.6221  0.7924
  826MOL0     H11501  10.830   0.227   2.172  2.4428 -1.7170 -0.4264
  826MOL0     H11502  10.606   0.311   2.061  1.2579  0.0858  2.9970
  826MOL0     H11503  10.596   0.176   2.178 -1.5160 -2.2446 -1.1726
  826MOL0     H11504  10.555   0.016   2.000  2.4666  0.3896  4.0016
  826MOL0     H11505  10.577   0.139   1.873 -0.1722 -0.0871 -1.5590
  826MOL0     H11506  10.338   0.149   2.070 -1.4624  1.2290 -1.7176
  826MOL0     H11507  10.340   0.117   1.897  1.6509  1.1773 -1.2656
  826MOL0     H11508  10.423   0.533   1.903  2.8638 -0.4188  0.4061
  826MOL0     H11509  11.048   0.380   2.074  0.4843  1.4739 -2.6914
  826MOL0     H11510  11.084   0.610   2.155  0.7116 -3.0571  0.9181
  827MOL0     O11511   9.911   2.491   2.622 -0.2650 -0.1673 -0.0733
  827MOL0     C11512   9.993   2.398   2.601  0.2246 -0.2611 -0.0486
  827MOL0     O11513   9.996   2.331   2.481 -0.3832  0.7464 -0.0180
  827MOL0     C11514   9.946   2.376   2.364 -0.6064 -1.4873 -0.4543
  827MOL0     C11515   9.915   2.513   2.340  0.0407 -0.6996 -0.5241
  827MOL0     C11516   9.870   2.557   2.211  0.7885  0.2936 -0.4584
  827MOL0     C11517   9.856   2.458   2.102  0.1763 -0.2757 -0.8209
  827MOL0     O11518   9.812   2.497   1.974 -0.2518 -0.4666 -0.0836
  827MOL0     C11519   9.863   2.609   1.904 -0.5830  0.1791  0.9089
  827MOL0     C11520   9.756   2.662   1.810  0.0705 -1.2271 -0.2252
  827MOL0     C11521   9.799   2.795   1.736  0.1484  0.2588  0.5301
  827MOL0     C11522   9.933   2.772   1.666  0.0039 -0.0383 -0.0640
  827MOL0     C11523   9.960   2.873   1.549  0.4813  0.1432 -0.3215
  827MOL0     C11524  10.096   2.855   1.491  0.6211  0.2846  0.5205
  827MOL0     C11525  10.125   2.712   1.436  0.5305  0.2059  1.3582
  827MOL0     C11526  10.035   2.664   1.331 -0.6703  0.5193 -0.4560
  827MOL0     N11527  10.072   2.713   1.199 -0.2245  0.0628 -0.6611
  827MOL0     C11528  10.179   2.688   1.126  0.2969  0.8278  0.2014
  827MOL0     C11529  10.191   2.792   1.042  0.3172  0.4358  0.0970
  827MOL0     C11530  10.297   2.799   0.937  0.0318 -0.0011  0.3104
  827MOL0     C11531  10.276   2.919   0.840 -0.0703 -0.0457  0.1826
  827MOL0     C11532  10.399   2.928   0.738  0.6819 -0.0004  0.1935
  827MOL0     C11533  10.393   2.802   0.658 -0.2744 -0.1689  0.2423
  827MOL0     O11534  10.519   2.793   0.587 -0.4260  0.1173  0.4095
  827MOL0     C11535  10.528   2.721   0.468  0.1313 -0.8537  0.2458
  827MOL0     C11536  10.639   2.755   0.389 -0.0362  0.1223 -0.5032
  827MOL0     C11537  10.652   2.703   0.261  0.0776  0.4045  0.4336
  827MOL0     C11538  10.774   2.739   0.186  0.9729 -0.2556 -0.1309
  827MOL0     C11539  10.566   2.593   0.216  0.0606  0.4750 -1.2090
  827MOL0     C11540  10.585   2.526   0.084  0.5240  0.4317  0.1367
  827MOL0     O11541  10.711   2.500   0.040 -0.1458 -0.3068 -0.0890
  827MOL0     C11542  10.721   2.433  -0.079  0.1655  0.6970  0.0011
  827MOL0     C11543  10.810   2.480  -0.172  0.7130 -0.6405 -0.1478
  827MOL0     C11544  10.828   2.421  -0.294 -0.5298 -0.4189  0.6674
  827MOL0     C11545  10.757   2.308  -0.335 -0.1129  0.1145  0.0965
  827MOL0     O11546  10.770   2.259  -0.469 -0.0904 -0.1469  0.9521
  827MOL0     C11547  10.676   2.162  -0.514  0.8211  0.3567  0.9167
  827MOL0     C11548  10.637   2.165  -0.666  0.5148  0.0517 -0.0762
  827MOL0     C11549  10.766   2.140  -0.763  0.7826 -0.3553  0.0639
  827MOL0     C11550  10.835   2.006  -0.745 -0.5254 -0.4825  0.5604
  827MOL0     C11551  10.969   2.004  -0.834 -0.4667 -0.0705  0.9903
  827MOL0     C11552  10.931   1.961  -0.978  0.5797 -0.4431  0.2565
  827MOL0     C11553  11.056   1.945  -1.061 -0.0339  0.3835  0.5905
  827MOL0     C11554  11.024   1.890  -1.201  0.7028  0.3169 -0.4512
  827MOL0    Cl11555  10.940   2.026  -1.296  0.0553  0.0421 -0.2929
  827MOL0     C11556  10.687   2.239  -0.229 -0.7186 -0.5274  0.2410
  827MOL0     C11557  10.665   2.303  -0.107 -0.7393 -0.4931 -0.8960
  827MOL0     O11558  10.484   2.486   0.034 -0.6590  0.1829 -0.1142
  827MOL0     C11559  10.464   2.547   0.307 -0.2243  0.0139 -1.2901
  827MOL0     C11560  10.433   2.626   0.425 -0.7052  1.0100  0.4315
  827MOL0     N11561  10.104   2.892   1.073  0.9386 -0.8486 -0.6192
  827MOL0     N11562  10.031   2.840   1.170 -0.3693 -0.9791  0.3016
  827MOL0     C11563   9.876   2.323   2.129 -0.1120  0.3995  0.1975
  827MOL0     C11564   9.921   2.286   2.260 -0.3051  0.7287  0.6775
  827MOL0     C11565  10.094   2.372   2.702 -0.2597  0.8688  0.2719
  827MOL0     C11566  10.132   2.457   2.807  0.5095  0.2531 -0.0199
  827MOL0     C11567  10.242   2.426   2.889  0.4026  0.2896 -0.3959
  827MOL0     C11568  10.334   2.329   2.854 -0.4270 -0.3393  1.0286
  827MOL0     O11569  10.449   2.325   2.931  1.2946 -0.0278 -0.1186
  827MOL0     C11570  10.438   2.204   3.011 -0.3438 -0.9266 -0.4287
  827MOL0     C11571  10.575   2.141   2.992  0.2344  0.3286 -0.3936
  827MOL0     C11572  10.691   2.239   3.026  0.0977 -1.0514  0.2719
  827MOL0     C11573  10.685   2.317   3.150 -0.3812  0.7578  0.4696
  827MOL0     C11574  10.798   2.406   3.168 -0.7219  0.3947  0.6177
  827MOL0     C11575  10.887   2.484   3.168 -0.3523  0.0552  0.0166
  827MOL0     C11576  10.304   2.252   2.742 -0.1780 -0.1648  0.2274
  827MOL0     C11577  10.180   2.264   2.673  0.8250 -0.0505  0.4479
  827MOL0     H11578   9.930   2.592   2.413 -2.1720 -2.1876  1.6492
  827MOL0     H11579   9.836   2.660   2.203 -0.6854 -0.0654  0.7320
  827MOL0     H11580   9.878   2.697   1.968  0.5948  2.2296 -1.9616
  827MOL0     H11581   9.952   2.584   1.845 -3.3826  1.1846 -4.2978
  827MOL0     H11582   9.721   2.602   1.726 -2.6590  0.0221 -0.1015
  827MOL0     H11583   9.675   2.678   1.882 -0.2199  0.9034 -0.9516
  827MOL0     H11584   9.728   2.807   1.653  2.6506  2.1406 -1.5316
  827MOL0     H11585   9.796   2.884   1.800  1.5884  1.9867 -1.6359
  827MOL0     H11586  10.011   2.799   1.738  1.8653  3.0050 -2.9475
  827MOL0     H11587   9.935   2.670   1.627 -1.3374 -0.8300  1.7713
  827MOL0     H11588   9.878   2.872   1.477 -0.2865  0.5863  0.5200
  827MOL0     H11589   9.967   2.975   1.587 -0.4513 -1.0718  3.6541
  827MOL0     H11590  10.099   2.927   1.409  0.8284 -2.6706 -2.2522
  827MOL0     H11591  10.173   2.873   1.566 -0.5647 -0.1663  1.8985
  827MOL0     H11592  10.219   2.732   1.384 -0.5248 -0.1297 -0.7803
  827MOL0     H11593  10.134   2.644   1.522 -1.8224 -1.2457  0.5403
  827MOL0     H11594   9.931   2.696   1.341  0.4508  4.1672  1.4453
  827MOL0     H11595  10.034   2.555   1.320  1.8282  0.5353 -1.6161
  827MOL0     H11596  10.244   2.604   1.148  1.1348  1.7837  1.5444
  827MOL0     H11597  10.396   2.810   0.982  0.3129 -3.5822  0.8983
  827MOL0     H11598  10.296   2.700   0.890 -2.5430  0.2104 -0.2582
  827MOL0     H11599  10.275   3.013   0.896 -0.2598  0.7059 -1.0453
  827MOL0     H11600  10.182   2.913   0.784  1.1369  0.0783 -1.9595
  827MOL0     H11601  10.490   2.932   0.799  1.1801  0.3778 -0.5683
  827MOL0     H11602  10.395   3.014   0.671 -4.4653 -1.6365 -2.1082
  827MOL0     H11603  10.309   2.810   0.588 -1.4959 -1.5742  1.4799
  827MOL0     H11604  10.386   2.704   0.707  0.7626 -1.6425 -2.3566
  827MOL0     H11605  10.717   2.817   0.434  1.7692 -2.2022 -0.2323
  827MOL0     H11606  10.763   2.722   0.078  4.8223  2.4161 -1.1332
  827MOL0     H11607  10.787   2.847   0.201 -3.7468  1.1067 -3.3996
  827MOL0     H11608  10.862   2.684   0.219  1.3743  1.6214  2.2228
  827MOL0     H11609  10.851   2.574  -0.138 -1.7023  0.6193 -0.5480
  827MOL0     H11610  10.903   2.462  -0.361  1.1301 -0.5268  2.3678
  827MOL0     H11611  10.713   2.064  -0.483 -0.7147 -0.7352 -0.5425
  827MOL0     H11612  10.582   2.180  -0.461  0.1679 -3.8636  1.5094
  827MOL0     H11613  10.553   2.097  -0.682 -0.8430  0.9095  2.7771
  827MOL0     H11614  10.592   2.260  -0.697 -1.2885 -0.5058  0.7200
  827MOL0     H11615  10.840   2.220  -0.761 -1.3275  1.7264 -0.8562
  827MOL0     H11616  10.716   2.141  -0.860 -3.6468 -1.2403  2.0886
  827MOL0     H11617  10.869   1.988  -0.642  3.7637  0.3255 -0.5159
  827MOL0     H11618  10.776   1.922  -0.781 -0.7489  1.2175 -3.5800
  827MOL0     H11619  11.012   1.911  -0.796  0.4524 -0.3442 -0.6212
  827MOL0     H11620  11.034   2.092  -0.831 -0.3688 -0.0073 -1.1536
  827MOL0     H11621  10.867   1.873  -0.972  1.3787 -1.1630 -1.2320
  827MOL0     H11622  10.867   2.041  -1.017 -2.1287 -1.5675  2.0863
  827MOL0     H11623  11.136   1.882  -1.022 -0.8927 -0.6346  0.7645
  827MOL0     H11624  11.105   2.042  -1.072  0.7150 -0.1201 -0.6943
  827MOL0     H11625  10.951   1.809  -1.210  0.8624  0.1913 -0.6038
  827MOL0     H11626  11.120   1.861  -1.243  2.3776  1.7121  2.1251
  827MOL0     H11627  10.640   2.143  -0.247  1.1705 -1.2869 -1.0997
  827MOL0     H11628  10.609   2.257  -0.026  2.4364 -2.7886  0.1953
  827MOL0     H11629  10.400   2.465   0.276  0.7153 -1.0904 -0.4072
  827MOL0     H11630  10.339   2.597   0.470  1.2724 -2.4103  2.7782
  827MOL0     H11631   9.848   2.252   2.051  0.7598 -2.8198  2.6060
  827MOL0     H11632   9.923   2.180   2.285 -5.5995  0.7702  2.4155
  827MOL0     H11633  10.077   2.545   2.839  0.5281  1.7331 -3.5328
  827MOL0     H11634  10.258   2.487   2.977  1.1950 -1.0354  0.4218
  827MOL0     H11635  10.415   2.234   3.114  3.4108 -0.5813  0.4595
  827MOL0     H11636  10.362   2.134   2.975 -1.5926  0.2604 -0.1920
  827MOL0     H11637  10.581   2.124   2.884  0.9506  3.3576 -0.9251
  827MOL0     H11638  10.573   2.045   3.045 -0.7219 -0.3128 -1.5588
  827MOL0     H11639  10.699   2.305   2.940 -2.1428 -2.4375 -1.0730
  827MOL0     H11640  10.774   2.168   3.031  1.0213  0.0303  0.8907
  827MOL0     H11641  10.685   2.247   3.235  2.4135 -2.6622 -2.0370
  827MOL0     H11642  10.594   2.377   3.160 -1.7499 -1.4139  2.0039
  827MOL0     H11643  10.976   2.542   3.157 -1.6446  2.1940  0.2379
  827MOL0     H11644  10.369   2.173   2.707 -2.2168 -0.3736 -3.5975
  827MOL0     H11645  10.160   2.197   2.591  2.2623 -1.6725  1.3562
  828MOL0     O11646   4.490   0.150   9.551  0.1617  0.0998  0.3412
  828MOL0     C11647   4.464   0.272   9.530 -0.0785  0.7151 -0.3308
  828MOL0     O11648   4.521   0.341   9.430 -0.1503 -0.2058 -0.3356
  828MOL0     C11649   4.535   0.270   9.314 -0.1974 -0.6941  0.4249
  828MOL0     C11650   4.441   0.270   9.208  1.0690  1.0280  0.1765
  828MOL0     C11651   4.458   0.178   9.103  0.4854  0.2711  0.2726
  828MOL0     C11652   4.575   0.103   9.088  0.7615  0.0258  0.1307
  828MOL0     O11653   4.612   0.026   8.984  0.0241 -0.4502  0.3504
  828MOL0     C11654   4.538   0.055   8.862 -0.7241  0.4658 -0.3436
  828MOL0     C11655   4.596  -0.041   8.755  0.3108 -0.1733  0.6287
  828MOL0     C11656   4.751  -0.030   8.725  0.2886 -0.0318  0.4933
  828MOL0     C11657   4.806  -0.143   8.633 -0.1693  0.3885 -0.8061
  828MOL0     C11658   4.963  -0.162   8.644  0.2237  0.7527 -0.3983
  828MOL0     C11659   4.991  -0.276   8.558  0.0842  0.5637  0.4501
  828MOL0     C11660   5.145  -0.295   8.536  0.6031 -0.2552  0.1885
  828MOL0     C11661   5.164  -0.409   8.429  0.7727 -0.1321  0.3122
  828MOL0     N11662   5.298  -0.462   8.442  0.5802  0.5584  0.5689
  828MOL0     C11663   5.402  -0.415   8.364  0.0111 -0.5741 -0.3481
  828MOL0     C11664   5.502  -0.506   8.382 -0.9951  0.7796 -0.2410
  828MOL0     C11665   5.640  -0.489   8.334  0.4948 -0.3575 -0.4524
  828MOL0     C11666   5.748  -0.484   8.446 -0.2989 -1.0403 -0.1493
  828MOL0     C11667   5.886  -0.526   8.401  0.0580 -0.1104  0.5861
  828MOL0     C11668   5.989  -0.535   8.517 -0.2440  0.5162 -0.9972
  828MOL0     O11669   5.979  -0.412   8.589 -0.2949  0.1233  0.4569
  828MOL0     C11670   6.087  -0.390   8.675  0.0541  0.4599  0.2601
  828MOL0     C11671   6.150  -0.487   8.752  0.4078 -0.5440 -0.4973
  828MOL0     C11672   6.261  -0.450   8.842  0.3797  0.8801 -0.5323
  828MOL0     C11673   6.308  -0.562   8.937 -0.3440 -0.0469 -0.6146
  828MOL0     C11674   6.292  -0.307   8.859  0.2121  0.1051  0.1349
  828MOL0     C11675   6.396  -0.262   8.955  0.0938 -0.3220  0.5923
  828MOL0     O11676   6.422  -0.128   8.968  0.3448 -0.5976  0.6592
  828MOL0     C11677   6.509  -0.081   9.065 -0.3384  0.4242  0.3091
  828MOL0     C11678   6.474  -0.095   9.196 -0.7759  0.5223  0.7380
  828MOL0     C11679   6.561  -0.049   9.297  1.2252  0.1781 -0.2116
  828MOL0     C11680   6.681   0.019   9.262 -0.8733  0.1526 -0.7015
  828MOL0     O11681   6.760   0.085   9.359  0.2158 -0.3604 -0.0527
  828MOL0     C11682   6.704   0.111   9.488  0.0414 -0.1848 -0.3557
  828MOL0     C11683   6.788   0.199   9.579 -0.1502  0.3005  0.9095
  828MOL0     C11684   6.711   0.257   9.699  0.0369 -0.0244 -0.3460
  828MOL0     C11685   6.681   0.145   9.800 -0.2749 -0.1930  0.1327
  828MOL0     C11686   6.580   0.191   9.906 -0.0862  0.1504  0.5447
  828MOL0     C11687   6.426   0.192   9.872 -0.4796 -0.2234  0.0327
  828MOL0     C11688   6.372   0.052   9.823 -0.3271  0.8687  0.5074
  828MOL0     C11689   6.235   0.028   9.905  0.3298  0.0629 -0.8452
  828MOL0    Cl11690   6.163  -0.138   9.856  0.8460 -0.4352  0.1634
  828MOL0     C11691   6.709   0.029   9.123 -0.1306 -0.3731  0.0388
  828MOL0     C11692   6.622  -0.015   9.029  1.3096 -1.0303 -0.1351
  828MOL0     O11693   6.460  -0.344   9.014 -0.1054 -0.0123 -0.2284
  828MOL0     C11694   6.225  -0.215   8.775  0.0088  0.9776  0.0538
  828MOL0     C11695   6.132  -0.259   8.685 -0.6060  0.6750  0.4454
  828MOL0     N11696   5.446  -0.620   8.444 -0.5339  0.5215 -0.1311
  828MOL0     N11697   5.326  -0.593   8.475  0.4676  0.4164  0.4322
  828MOL0     C11698   4.664   0.111   9.192  1.0951  0.3580 -0.2616
  828MOL0     C11699   4.649   0.197   9.296  0.4163  0.5068  0.1280
  828MOL0     C11700   4.369   0.339   9.630 -0.7774 -0.2386 -0.3784
  828MOL0     C11701   4.313   0.280   9.747  0.0091  0.0433  0.6863
  828MOL0     C11702   4.213   0.344   9.815 -0.1845 -0.4635 -0.6090
  828MOL0     C11703   4.167   0.470   9.779  0.8574 -0.1491  0.6369
  828MOL0     O11704   4.090   0.556   9.850  0.7922 -0.5293 -0.3818
  828MOL0     C11705   4.065   0.526   9.991  0.4751 -0.5352  0.1760
  828MOL0     C11706   4.199   0.537  10.071 -0.2121  0.5699  0.4844
  828MOL0     C11707   4.288   0.663  10.066  0.1555  0.4064 -0.2368
  828MOL0     C11708   4.382   0.672  10.185  0.2531  0.3064 -0.6483
  828MOL0     C11709   4.440   0.544  10.239 -1.2532  0.1464  0.5299
  828MOL0     C11710   4.499   0.446  10.267  0.9141  0.3260 -0.3945
  828MOL0     C11711   4.223   0.524   9.664  1.4360 -0.7347 -1.0842
  828MOL0     C11712   4.315   0.459   9.586  0.0320 -0.0550 -0.0527
  828MOL0     H11713   4.348   0.323   9.227  1.4336  0.7178  3.4175
  828MOL0     H11714   4.381   0.182   9.027  0.3292  5.5033  0.3491
  828MOL0     H11715   4.431   0.037   8.870 -1.5538  3.7356 -2.1956
  828MOL0     H11716   4.551   0.157   8.824 -1.5352  0.0501 -1.7788
  828MOL0     H11717   4.582  -0.145   8.789 -2.1733  0.4357  1.7242
  828MOL0     H11718   4.537  -0.032   8.663 -1.7788  0.6855  1.9604
  828MOL0     H11719   4.768   0.067   8.678 -0.6922  0.4747  1.1507
  828MOL0     H11720   4.812  -0.016   8.814  1.2223  2.8532 -0.4971
  828MOL0     H11721   4.763  -0.239   8.662  1.1772  0.0030 -0.0141
  828MOL0     H11722   4.770  -0.131   8.530 -2.9670 -0.1820  0.0331
  828MOL0     H11723   5.004  -0.075   8.591  1.2464  1.5763  1.6709
  828MOL0     H11724   5.013  -0.163   8.741  0.1690  0.6543 -0.3701
  828MOL0     H11725   4.938  -0.369   8.583  2.0663 -1.2397 -1.5862
  828MOL0     H11726   4.953  -0.244   8.461 -0.1754 -0.2439  0.2804
  828MOL0     H11727   5.197  -0.201   8.515 -1.6545  0.5789 -2.0313
  828MOL0     H11728   5.187  -0.330   8.631  0.4848  0.1338  0.3859
  828MOL0     H11729   5.143  -0.369   8.330 -1.9997 -1.1030  0.4091
  828MOL0     H11730   5.095  -0.490   8.454  0.3090  0.9528  2.8454
  828MOL0     H11731   5.411  -0.318   8.315  3.4904 -1.0004 -0.8415
  828MOL0     H11732   5.663  -0.576   8.271  0.5874 -2.0248  1.7660
  828MOL0     H11733   5.636  -0.396   8.277  1.5700 -0.0412 -0.0304
  828MOL0     H11734   5.712  -0.534   8.536  2.7621  1.8738  3.0140
  828MOL0     H11735   5.748  -0.377   8.472  2.1597 -1.0722  0.2465
  828MOL0     H11736   5.906  -0.443   8.333 -3.0112  1.6213  1.5911
  828MOL0     H11737   5.882  -0.627   8.357 -2.1381  0.8815 -1.7450
  828MOL0     H11738   6.096  -0.551   8.495  0.8101 -0.0410  3.5227
  828MOL0     H11739   5.964  -0.621   8.580 -0.9105  0.0585 -1.8677
  828MOL0     H11740   6.110  -0.587   8.745  0.9203 -0.6669 -2.1162
  828MOL0     H11741   6.296  -0.537   9.043 -0.8738  1.0537 -0.9135
  828MOL0     H11742   6.249  -0.652   8.920 -0.5194 -0.1506  0.5085
  828MOL0     H11743   6.413  -0.587   8.918 -0.6614 -0.8749 -1.3088
  828MOL0     H11744   6.387  -0.156   9.216 -1.5861  0.4932 -2.3641
  828MOL0     H11745   6.529  -0.067   9.399  2.6242 -0.0541  0.2109
  828MOL0     H11746   6.613   0.170   9.475 -0.3455 -0.6083  0.3943
  828MOL0     H11747   6.676   0.014   9.530 -2.2545 -0.3925 -2.1909
  828MOL0     H11748   6.874   0.140   9.614  3.8305  4.8986 -0.0440
  828MOL0     H11749   6.851   0.270   9.525  3.7699 -3.3845  0.0337
  828MOL0     H11750   6.628   0.315   9.658 -1.3127 -0.8626  1.0766
  828MOL0     H11751   6.769   0.333   9.752 -1.6044 -0.1106  1.7238
  828MOL0     H11752   6.660   0.048   9.753  1.1914  0.6709 -2.4980
  828MOL0     H11753   6.770   0.134   9.862 -3.0950 -4.4316  4.1141
  828MOL0     H11754   6.606   0.288   9.950 -0.9854  1.0922 -0.8908
  828MOL0     H11755   6.579   0.113   9.983 -2.5504 -2.9740 -2.3766
  828MOL0     H11756   6.371   0.228   9.959 -2.8913  2.7896 -2.4847
  828MOL0     H11757   6.403   0.266   9.794  2.5378  0.6317 -0.1638
  828MOL0     H11758   6.448  -0.026   9.837 -0.7307  0.5096  0.7224
  828MOL0     H11759   6.349   0.051   9.716  0.1445 -0.0347  0.4031
  828MOL0     H11760   6.167   0.114   9.898 -0.0815  0.0174  1.7296
  828MOL0     H11761   6.270   0.031  10.008  1.8158  1.3354 -1.3425
  828MOL0     H11762   6.795   0.081   9.081  1.3530 -2.4198  0.4411
  828MOL0     H11763   6.649  -0.009   8.924 -2.6173  3.0936 -1.2458
  828MOL0     H11764   6.251  -0.111   8.762 -0.1375  1.0465  0.3004
  828MOL0     H11765   6.081  -0.182   8.627 -1.5019 -0.4716 -0.3219
  828MOL0     H11766   4.748   0.043   9.196  1.2816  0.6503  1.6221
  828MOL0     H11767   4.720   0.197   9.378 -0.2137 -0.1374  0.6901
  828MOL0     H11768   4.349   0.185   9.785 -0.5298 -2.7558 -4.8490
  828MOL0     H11769   4.185   0.299   9.910  2.8854  1.4060  1.3623
  828MOL0     H11770   3.997   0.599  10.035  1.7069  0.4249  0.5563
  828MOL0     H11771   4.020   0.427  10.004 -0.9026 -0.5142 -3.3684
  828MOL0     H11772   4.239   0.436  10.060 -0.0131  0.7512 -0.6372
  828MOL0     H11773   4.172   0.535  10.177 -1.1452 -2.4697  0.2906
  828MOL0     H11774   4.219   0.747  10.060  1.7216  2.0008  1.9989
  828MOL0     H11775   4.345   0.657   9.973 -0.1861  0.1344 -0.4288
  828MOL0     H11776   4.330   0.727  10.264 -0.9086 -1.1288 -0.3764
  828MOL0     H11777   4.475   0.726  10.161  0.6004 -0.7314 -1.7809
  828MOL0     H11778   4.546   0.356  10.303 -0.8412 -0.6927 -0.5234
  828MOL0     H11779   4.182   0.619   9.631 -1.3395 -1.6026 -0.3482
  828MOL0     H11780   4.329   0.494   9.484 -2.5112 -1.0029 -0.8066
  829MOL0     O11781   2.551   5.138   3.639  0.0372 -0.2350 -0.2045
  829MOL0     C11782   2.575   5.021   3.601  0.7385  0.0280 -0.3956
  829MOL0     O11783   2.524   4.958   3.492 -0.7439  0.6326 -0.2851
  829MOL0     C11784   2.450   5.019   3.393 -0.3350 -0.0804  0.0621
  829MOL0     C11785   2.326   4.953   3.346  0.6417  1.0296  0.5518
  829MOL0     C11786   2.252   5.008   3.236 -1.0988 -0.3053 -0.5173
  829MOL0     C11787   2.304   5.118   3.162  0.3280  0.7360 -0.3773
  829MOL0     O11788   2.232   5.163   3.057 -0.2893  0.0567  0.5819
  829MOL0     C11789   2.300   5.227   2.946  0.5043  1.0892 -0.3433
  829MOL0     C11790   2.271   5.372   2.930 -0.5442 -0.3808 -0.2347
  829MOL0     C11791   2.343   5.416   2.806  0.9871 -0.3157  0.1867
  829MOL0     C11792   2.323   5.571   2.803 -0.2797 -0.1529 -0.1851
  829MOL0     C11793   2.409   5.635   2.683  0.0523  0.4485 -0.5457
  829MOL0     C11794   2.563   5.623   2.695 -0.3780 -0.8310 -0.7520
  829MOL0     C11795   2.625   5.658   2.554 -0.2738 -0.4013 -0.5661
  829MOL0     C11796   2.732   5.557   2.522  0.0730  1.0659 -0.6593
  829MOL0     N11797   2.863   5.585   2.597  0.1501 -0.3479 -0.0424
  829MOL0     C11798   2.880   5.614   2.731  0.1826 -0.0460  0.0229
  829MOL0     C11799   3.017   5.615   2.740  0.0049  0.2980  0.2471
  829MOL0     C11800   3.098   5.618   2.870  0.1225 -0.1926  0.9186
  829MOL0     C11801   3.021   5.677   2.986  0.4292  0.1959 -0.6032
  829MOL0     C11802   3.114   5.674   3.109  0.5963  0.4359 -0.2946
  829MOL0     C11803   3.038   5.734   3.226 -0.3285 -0.5936 -1.2095
  829MOL0     O11804   2.941   5.640   3.282  0.1321 -0.2525 -0.2221
  829MOL0     C11805   2.828   5.711   3.321 -0.3131 -0.3456  0.6613
  829MOL0     C11806   2.708   5.684   3.261  0.5257  0.5300  0.6413
  829MOL0     C11807   2.591   5.751   3.289  0.9489 -0.4025 -0.6691
  829MOL0     C11808   2.462   5.692   3.229  0.3010 -0.1240  0.0443
  829MOL0     C11809   2.591   5.855   3.379  0.7878 -0.2188 -0.2809
  829MOL0     C11810   2.470   5.941   3.408 -0.1471  0.8481  0.4252
  829MOL0     O11811   2.507   6.060   3.447 -0.1523 -0.3867 -0.4944
  829MOL0     C11812   2.407   6.145   3.478  0.3647 -0.3519 -0.2906
  829MOL0     C11813   2.387   6.247   3.386  0.2004 -0.3182 -0.1204
  829MOL0     C11814   2.296   6.348   3.414 -0.2755  0.2911 -0.4943
  829MOL0     C11815   2.211   6.349   3.527  0.9600 -0.2741  0.9687
  829MOL0     O11816   2.139   6.467   3.540 -0.1637  0.9605 -0.2367
  829MOL0     C11817   2.002   6.450   3.582 -1.0188  0.2297  0.4972
  829MOL0     C11818   1.984   6.478   3.737  0.4087 -0.2651 -0.2191
  829MOL0     C11819   1.834   6.509   3.780 -0.2471  0.4015  0.7521
  829MOL0     C11820   1.828   6.528   3.924 -0.0715  0.1216  0.7467
  829MOL0     C11821   1.849   6.408   4.014 -0.2526  0.1221  0.1222
  829MOL0     C11822   1.755   6.292   3.987  0.0952 -0.2105  0.8379
  829MOL0     C11823   1.760   6.187   4.091  1.0124  0.1706 -0.7705
  829MOL0     C11824   1.708   6.063   4.020  0.8479  1.4502 -0.3835
  829MOL0    Cl11825   1.552   6.090   3.948  0.2270 -0.2648  0.1306
  829MOL0     C11826   2.226   6.240   3.620 -0.0834  0.3923 -0.5122
  829MOL0     C11827   2.323   6.141   3.598 -0.1602  0.4599  0.0406
  829MOL0     O11828   2.351   5.901   3.391 -0.8455 -1.1161 -0.6549
  829MOL0     C11829   2.715   5.890   3.436 -0.0532 -0.4976  0.2745
  829MOL0     C11830   2.831   5.816   3.408 -0.6092  0.1477  0.0010
  829MOL0     N11831   3.075   5.598   2.607  0.4728 -0.1077  0.1994
  829MOL0     N11832   2.978   5.574   2.520  1.1058  0.4006  0.0490
  829MOL0     C11833   2.416   5.189   3.212  0.1003  0.9400  0.9805
  829MOL0     C11834   2.487   5.139   3.330 -0.3001 -0.1151 -0.1256
  829MOL0     C11835   2.688   4.955   3.685 -0.0144  0.2776 -0.2160
  829MOL0     C11836   2.720   4.823   3.649 -0.4420 -0.4665 -0.9075
  829MOL0     C11837   2.833   4.760   3.709 -0.5417 -0.5306 -1.1625
  829MOL0     C11838   2.889   4.820   3.825  0.0681  0.0495  0.4914
  829MOL0     O11839   2.982   4.763   3.902  0.3893  0.0463 -0.5436
  829MOL0     C11840   3.049   4.641   3.859 -0.7756  0.1529 -0.5123
  829MOL0     C11841   2.969   4.524   3.911  1.0431 -0.1150 -0.4612
  829MOL0     C11842   3.060   4.392   3.923  0.3362  0.2943  1.3048
  829MOL0     C11843   3.158   4.409   4.045 -1.1978 -0.8209  0.6679
  829MOL0     C11844   3.196   4.287   4.111  0.0750  0.7977  0.1018
  829MOL0     C11845   3.242   4.192   4.168  0.1499  0.1271  0.6020
  829MOL0     C11846   2.841   4.957   3.857  0.4072  0.6279  0.7301
  829MOL0     C11847   2.747   5.028   3.790  0.2855 -0.5270  0.2806
  829MOL0     H11848   2.297   4.870   3.409 -0.5688 -0.3154 -1.6354
  829MOL0     H11849   2.156   4.969   3.201 -0.5424 -1.2190 -1.0597
  829MOL0     H11850   2.408   5.214   2.946  0.4941  0.7152  1.5066
  829MOL0     H11851   2.249   5.186   2.858  0.3467 -0.2125  0.3397
  829MOL0     H11852   2.164   5.386   2.910 -0.8203  0.9374  1.8904
  829MOL0     H11853   2.306   5.429   3.016 -2.2668  2.0133 -1.0244
  829MOL0     H11854   2.448   5.386   2.801  1.1398 -0.2195 -6.1904
  829MOL0     H11855   2.300   5.370   2.716 -1.7093  4.6563 -1.4139
  829MOL0     H11856   2.219   5.596   2.782  0.6113  1.0678 -3.9569
  829MOL0     H11857   2.347   5.623   2.896  1.3500 -1.3047  0.0879
  829MOL0     H11858   2.373   5.576   2.598  0.5015 -0.1890 -0.2946
  829MOL0     H11859   2.388   5.742   2.667  0.1181  0.1240 -3.4243
  829MOL0     H11860   2.593   5.700   2.766  2.0267 -2.8430  0.6165
  829MOL0     H11861   2.588   5.525   2.738 -1.3872  0.1571  2.3949
  829MOL0     H11862   2.552   5.653   2.472 -0.0930  0.4065 -0.7833
  829MOL0     H11863   2.667   5.758   2.568 -1.0748 -0.2847  1.3802
  829MOL0     H11864   2.763   5.554   2.417  3.6846  0.1422  0.2909
  829MOL0     H11865   2.691   5.456   2.535 -0.6556  1.6711  2.5765
  829MOL0     H11866   2.806   5.631   2.808 -2.3126  0.3222 -2.2767
  829MOL0     H11867   3.127   5.514   2.885  2.9457  0.1114 -1.5354
  829MOL0     H11868   3.192   5.669   2.847 -0.8534  0.1264 -3.2126
  829MOL0     H11869   2.930   5.619   3.002  0.2978  0.6557  0.4649
  829MOL0     H11870   2.997   5.782   2.964 -0.0730  0.0263 -0.8837
  829MOL0     H11871   3.203   5.735   3.091  0.2866  0.0567 -3.9115
  829MOL0     H11872   3.154   5.576   3.134  1.5907  1.2196  1.3521
  829MOL0     H11873   2.998   5.828   3.188 -0.1739  0.4999  1.1303
  829MOL0     H11874   3.099   5.761   3.313  0.8376  1.5392 -2.6147
  829MOL0     H11875   2.702   5.597   3.196 -1.4905 -0.7031  2.3508
  829MOL0     H11876   2.423   5.613   3.294  1.0301 -0.6184 -0.1048
  829MOL0     H11877   2.379   5.760   3.208 -0.7922 -1.4586 -0.0322
  829MOL0     H11878   2.485   5.634   3.140  1.9805 -1.5755  1.3430
  829MOL0     H11879   2.464   6.257   3.309 -0.8478 -1.5229 -1.3816
  829MOL0     H11880   2.298   6.431   3.343 -0.5792 -0.1550 -1.0303
  829MOL0     H11881   1.945   6.525   3.526  0.9178  2.3847  1.2332
  829MOL0     H11882   1.950   6.364   3.539 -1.5753 -0.1666  1.9170
  829MOL0     H11883   2.027   6.393   3.791 -0.6336 -1.1622 -0.7539
  829MOL0     H11884   2.043   6.562   3.774  1.6480 -0.1485 -2.2979
  829MOL0     H11885   1.767   6.425   3.760 -0.0219  0.1200  1.1663
  829MOL0     H11886   1.806   6.599   3.725  0.8469  1.5268  1.9571
  829MOL0     H11887   1.889   6.613   3.954 -1.5417  1.7280 -0.6200
  829MOL0     H11888   1.724   6.558   3.944  0.0808  1.0610  0.1713
  829MOL0     H11889   1.832   6.442   4.116 -1.5521 -1.2352  0.3998
  829MOL0     H11890   1.950   6.369   3.999 -0.4437  0.1056 -1.3422
  829MOL0     H11891   1.653   6.332   3.987  0.6317  1.2384  0.4938
  829MOL0     H11892   1.786   6.250   3.890  1.1454 -0.5455  1.3021
  829MOL0     H11893   1.707   6.216   4.182  2.0502  1.9583 -0.6907
  829MOL0     H11894   1.863   6.166   4.121  0.8125  0.3425  0.0548
  829MOL0     H11895   1.693   5.989   4.100  3.0907 -1.6470 -2.5988
  829MOL0     H11896   1.771   6.022   3.941 -1.6236  0.0035 -1.7156
  829MOL0     H11897   2.174   6.239   3.716  0.7873  0.4832 -0.0277
  829MOL0     H11898   2.339   6.064   3.673 -2.1237 -1.9454 -1.8387
  829MOL0     H11899   2.714   5.971   3.509  0.0736  1.6679 -1.9856
  829MOL0     H11900   2.929   5.845   3.445 -0.0769 -0.4149 -0.9004
  829MOL0     H11901   2.448   5.286   3.173  0.5430 -0.7227 -3.3014
  829MOL0     H11902   2.571   5.194   3.371  0.7174 -1.5878 -0.1443
  829MOL0     H11903   2.667   4.775   3.568  1.7401  0.1043 -2.7822
  829MOL0     H11904   2.857   4.657   3.682 -1.3530 -0.6982 -1.2598
  829MOL0     H11905   3.055   4.639   3.750 -1.8855 -1.7924 -0.5663
  829MOL0     H11906   3.152   4.637   3.896 -0.3183  1.0795 -1.6327
  829MOL0     H11907   2.881   4.497   3.852  1.8541 -4.3508 -0.1132
  829MOL0     H11908   2.941   4.563   4.009 -3.0251 -2.2214 -0.5903
  829MOL0     H11909   3.118   4.385   3.830 -0.0869  3.8715  0.6359
  829MOL0     H11910   3.006   4.297   3.927  0.4832 -0.0196 -1.6672
  829MOL0     H11911   3.119   4.485   4.113 -0.5553 -1.9045  2.3193
  829MOL0     H11912   3.250   4.462   4.018 -2.6319  2.1070  1.1666
  829MOL0     H11913   3.290   4.109   4.215  2.2984 -0.2759 -2.0922
  829MOL0     H11914   2.887   5.001   3.944  0.1209  2.0491  0.1909
  829MOL0     H11915   2.710   5.121   3.833 -2.7053 -3.1225  4.0908
  830MOL0     O11916   8.755   7.600   8.344 -0.6133 -0.4242  0.8736
  830MOL0     C11917   8.693   7.499   8.341  0.1937  0.3136 -0.4811
  830MOL0     O11918   8.703   7.400   8.436  0.4830 -0.9108  1.3548
  830MOL0     C11919   8.788   7.433   8.540 -0.5778  0.1269  0.8631
  830MOL0     C11920   8.768   7.540   8.630  1.1421  1.1560  1.0422
  830MOL0     C11921   8.858   7.556   8.722 -0.2721 -0.5175 -0.4150
  830MOL0     C11922   8.984   7.489   8.723  0.4131  0.8592 -0.3686
  830MOL0     O11923   9.058   7.514   8.833 -0.3144 -0.0206  0.1538
  830MOL0     C11924   9.199   7.473   8.838 -0.8101  1.0244 -0.4347
  830MOL0     C11925   9.262   7.502   8.976  0.3033  0.9591  0.1795
  830MOL0     C11926   9.224   7.634   9.025  0.5444  0.2921  0.0531
  830MOL0     C11927   9.322   7.675   9.145 -0.4941 -0.8123  0.5990
  830MOL0     C11928   9.312   7.602   9.286 -0.0103 -0.5715  1.0114
  830MOL0     C11929   9.184   7.622   9.358  1.2104  0.1051  0.6692
  830MOL0     C11930   9.151   7.516   9.465 -0.1956  0.3758  0.7193
  830MOL0     C11931   9.234   7.516   9.588 -0.4141 -0.1941  0.1840
  830MOL0     N11932   9.190   7.626   9.675  0.7566  0.7055  0.6144
  830MOL0     C11933   9.093   7.613   9.764 -1.0924 -0.1401  0.1453
  830MOL0     C11934   9.064   7.735   9.810  0.0118 -0.6539  0.0826
  830MOL0     C11935   8.987   7.756   9.933 -0.0338  0.2378 -0.2967
  830MOL0     C11936   8.881   7.878   9.934 -0.1715 -0.3767  0.9615
  830MOL0     C11937   8.913   7.994  10.029 -0.5908 -1.0377 -0.1115
  830MOL0     C11938   9.043   8.067   9.994  0.3382  0.2432 -0.0236
  830MOL0     O11939   9.041   8.191  10.068 -0.2758 -0.2353  0.9020
  830MOL0     C11940   9.006   8.307   9.998 -0.6790 -0.7983 -0.4618
  830MOL0     C11941   9.055   8.421  10.043  0.1029  0.1378  0.3599
  830MOL0     C11942   9.028   8.540   9.977 -0.0139  0.1471  0.0942
  830MOL0     C11943   9.085   8.668  10.040  0.7219 -0.5657  0.1348
  830MOL0     C11944   8.964   8.533   9.852  0.7581  0.2621  0.2217
  830MOL0     C11945   8.934   8.651   9.776  0.4342  0.2399  1.1001
  830MOL0     O11946   8.958   8.636   9.639  0.2831  0.8356 -0.1540
  830MOL0     C11947   8.910   8.705   9.530  0.5471  0.2273  0.5115
  830MOL0     C11948   8.957   8.670   9.403 -0.3080  1.3130  0.3176
  830MOL0     C11949   8.906   8.742   9.290 -0.4659  0.6725  0.3373
  830MOL0     C11950   8.823   8.857   9.309 -0.7281  0.3382  0.0553
  830MOL0     O11951   8.792   8.938   9.204  0.7116  0.5576 -0.6148
  830MOL0     C11952   8.764   9.079   9.226  0.0293  0.5816 -0.5601
  830MOL0     C11953   8.801   9.156   9.103  0.1710  0.9269  0.7270
  830MOL0     C11954   8.892   9.090   8.996  0.1653 -0.6297 -0.0098
  830MOL0     C11955   8.958   9.189   8.902 -0.0568  0.4421  0.7319
  830MOL0     C11956   8.860   9.268   8.816  0.0613  0.5840 -0.6434
  830MOL0     C11957   8.780   9.183   8.721  0.4451 -0.5202 -0.5058
  830MOL0     C11958   8.670   9.268   8.654 -0.8263 -0.0681 -0.9411
  830MOL0     C11959   8.684   9.258   8.498 -0.3737 -0.1681 -0.9091
  830MOL0    Cl11960   8.652   9.096   8.441  0.4984 -0.4384 -0.1064
  830MOL0     C11961   8.783   8.893   9.436 -0.0814 -0.0573  0.5928
  830MOL0     C11962   8.836   8.819   9.540  0.6223 -0.6815 -0.9675
  830MOL0     O11963   8.880   8.748   9.831  0.0467  0.3626  0.4829
  830MOL0     C11964   8.910   8.407   9.806  0.3043  0.1491 -0.4759
  830MOL0     C11965   8.929   8.302   9.887  0.0456  0.4658 -0.0167
  830MOL0     N11966   9.147   7.827   9.747  0.4126 -0.4146  1.5806
  830MOL0     N11967   9.220   7.758   9.672  0.7033  0.0291  0.3566
  830MOL0     C11968   9.019   7.399   8.619  0.3291 -0.4899  0.4258
  830MOL0     C11969   8.911   7.373   8.530  0.1789 -0.0888 -0.4352
  830MOL0     C11970   8.603   7.478   8.224  0.2187 -0.1625  0.6452
  830MOL0     C11971   8.569   7.576   8.130  0.1711 -0.2228 -0.1457
  830MOL0     C11972   8.490   7.539   8.014 -0.0429  0.3220 -0.1569
  830MOL0     C11973   8.430   7.418   8.007 -0.5829  1.1723  0.5189
  830MOL0     O11974   8.345   7.399   7.900  0.2969 -0.4784  0.6428
  830MOL0     C11975   8.248   7.295   7.897  0.0607  0.7644 -0.0012
  830MOL0     C11976   8.311   7.190   7.794 -0.4949 -0.5123 -0.4497
  830MOL0     C11977   8.322   7.268   7.670  0.4224  1.3284 -0.5629
  830MOL0     C11978   8.314   7.166   7.552  0.4692 -0.4654  0.2914
  830MOL0     C11979   8.337   7.236   7.422  0.3555 -0.9156 -0.3269
  830MOL0     C11980   8.359   7.269   7.311 -0.3667  0.6068 -0.7777
  830MOL0     C11981   8.461   7.318   8.095  1.0920  1.3671 -0.5385
  830MOL0     C11982   8.543   7.351   8.206  0.0331  0.3213 -0.3042
  830MOL0     H11983   8.672   7.591   8.627  1.4991  1.9466  2.4593
  830MOL0     H11984   8.847   7.647   8.780  0.4971  2.1233 -4.0011
  830MOL0     H11985   9.203   7.366   8.814  3.4527  1.4290 -2.3285
  830MOL0     H11986   9.254   7.534   8.767  0.9411  0.5471  0.4583
  830MOL0     H11987   9.237   7.420   9.044 -1.1436  2.1130  1.1009
  830MOL0     H11988   9.366   7.486   8.945 -0.5978 -1.2982 -2.0375
  830MOL0     H11989   9.224   7.706   8.943 -1.9702 -0.3429 -0.5827
  830MOL0     H11990   9.120   7.635   9.061 -0.7072 -0.7114 -3.1703
  830MOL0     H11991   9.424   7.686   9.107  0.0330 -2.0267  1.5916
  830MOL0     H11992   9.299   7.779   9.170  0.3492 -0.3017 -0.6402
  830MOL0     H11993   9.326   7.496   9.264  0.1966 -0.2001 -0.8516
  830MOL0     H11994   9.392   7.631   9.354  0.1550  1.5770 -0.0335
  830MOL0     H11995   9.188   7.717   9.410 -3.3855  0.2957  1.1000
  830MOL0     H11996   9.100   7.638   9.289  3.2729  3.3388 -1.3573
  830MOL0     H11997   9.046   7.521   9.494 -1.1715  0.3196 -2.4001
  830MOL0     H11998   9.160   7.415   9.423 -1.0028  0.0691  1.2637
  830MOL0     H11999   9.339   7.539   9.565  0.4057 -0.1570  3.4019
  830MOL0     H12000   9.233   7.422   9.644 -3.2852  0.6917  1.8206
  830MOL0     H12001   9.055   7.513   9.781  0.0097 -0.3657  1.3969
  830MOL0     H12002   8.925   7.671   9.961  2.4147 -1.6827 -0.2915
  830MOL0     H12003   9.061   7.770  10.012  1.9592  1.0045 -2.1861
  830MOL0     H12004   8.782   7.842   9.961 -0.2538 -0.0942  1.0332
  830MOL0     H12005   8.879   7.904   9.827 -3.0561 -4.3492 -0.1940
  830MOL0     H12006   8.911   7.956  10.131 -1.5196 -1.8930 -0.4364
  830MOL0     H12007   8.831   8.066  10.026 -0.3985 -0.8416 -1.6551
  830MOL0     H12008   9.058   8.089   9.888 -0.3561  0.9802  0.0221
  830MOL0     H12009   9.127   8.000  10.017 -0.9657 -1.3236  0.3470
  830MOL0     H12010   9.119   8.426  10.131  2.9336  3.5675 -1.6014
  830MOL0     H12011   9.124   8.653  10.141 -0.1264 -2.2594  0.2488
  830MOL0     H12012   9.157   8.725   9.982  0.1626 -1.4720 -1.5162
  830MOL0     H12013   8.990   8.720  10.056 -0.4006 -1.9707 -1.5670
  830MOL0     H12014   9.030   8.589   9.400 -1.4930  0.1826  0.7605
  830MOL0     H12015   8.936   8.718   9.188  3.0716 -1.2949  1.6351
  830MOL0     H12016   8.660   9.090   9.259  0.6467 -2.2574  2.9831
  830MOL0     H12017   8.831   9.115   9.305  2.7417 -1.9781 -1.5000
  830MOL0     H12018   8.708   9.191   9.057  0.2302 -1.5529 -1.5101
  830MOL0     H12019   8.854   9.249   9.128  0.6735  1.4692 -2.0532
  830MOL0     H12020   8.841   9.018   8.932 -1.7000 -1.3932  2.1985
  830MOL0     H12021   8.975   9.042   9.050 -0.9841 -1.1532  1.3618
  830MOL0     H12022   9.018   9.261   8.958  1.8554 -0.6635  0.1763
  830MOL0     H12023   9.032   9.133   8.845  0.5050  0.2670  1.6226
  830MOL0     H12024   8.914   9.345   8.761  0.5388 -0.1632 -1.2426
  830MOL0     H12025   8.780   9.305   8.881  0.0631 -1.3270  0.5215
  830MOL0     H12026   8.840   9.133   8.644 -0.4390 -0.0575 -1.5144
  830MOL0     H12027   8.725   9.101   8.769 -0.6796  0.1149 -0.6778
  830MOL0     H12028   8.670   9.370   8.691  0.8859 -0.0751 -0.8282
  830MOL0     H12029   8.576   9.221   8.686  1.4326 -3.1177  1.9753
  830MOL0     H12030   8.786   9.285   8.469 -0.4345 -0.8014 -1.7535
  830MOL0     H12031   8.623   9.327   8.439  1.9322  2.5087 -0.3635
  830MOL0     H12032   8.721   8.979   9.455  1.1766  1.7189 -2.6232
  830MOL0     H12033   8.801   8.844   9.640 -0.4990 -1.8438 -1.0330
  830MOL0     H12034   8.844   8.376   9.725  0.1613 -0.7224 -0.0313
  830MOL0     H12035   8.872   8.214   9.857 -3.4227  1.7673  2.1681
  830MOL0     H12036   9.120   7.363   8.605  0.4321 -0.3264  0.7241
  830MOL0     H12037   8.921   7.290   8.461 -0.7544  0.2475 -0.9946
  830MOL0     H12038   8.605   7.678   8.141 -0.7111  0.2010 -1.0085
  830MOL0     H12039   8.466   7.612   7.938  1.2064 -0.7374 -1.6322
  830MOL0     H12040   8.227   7.254   7.996 -0.9618  2.2601  0.4454
  830MOL0     H12041   8.152   7.337   7.867  0.5220  1.9471  0.0774
  830MOL0     H12042   8.242   7.105   7.796  0.3182 -1.2006 -0.8849
  830MOL0     H12043   8.410   7.172   7.837 -0.3370  0.1911 -0.5064
  830MOL0     H12044   8.422   7.309   7.656  1.2202 -0.7809 -1.4554
  830MOL0     H12045   8.244   7.344   7.660  1.9342  3.3233  1.6651
  830MOL0     H12046   8.211   7.130   7.551 -0.3095  1.6007 -0.9157
  830MOL0     H12047   8.388   7.086   7.563  1.3161  0.4707  1.8676
  830MOL0     H12048   8.383   7.287   7.208 -0.9809 -1.4854 -1.3512
  830MOL0     H12049   8.422   7.217   8.090  0.7779  1.2540  2.4614
  830MOL0     H12050   8.562   7.274   8.280  1.4586  0.8234 -0.1149
  831MOL0     O12051   7.535   8.684   0.167 -0.6180 -1.1227 -0.6251
  831MOL0     C12052   7.585   8.590   0.229  0.4360  0.1193  1.2954
  831MOL0     O12053   7.567   8.463   0.200 -0.0104 -0.0563  0.2784
  831MOL0     C12054   7.492   8.417   0.099  0.9171 -0.1882  0.9560
  831MOL0     C12055   7.507   8.284   0.050 -1.2852  0.1007 -0.9620
  831MOL0     C12056   7.427   8.219  -0.041 -0.1148 -0.1735  1.1014
  831MOL0     C12057   7.320   8.293  -0.097  0.5278  0.0538  0.0426
  831MOL0     O12058   7.256   8.238  -0.209 -0.7645  0.2278 -0.4584
  831MOL0     C12059   7.206   8.328  -0.306  0.0335  0.8531 -0.0461
  831MOL0     C12060   7.157   8.252  -0.438 -0.1165 -0.3313 -0.2681
  831MOL0     C12061   7.055   8.140  -0.413  0.2363 -0.3398 -0.6081
  831MOL0     C12062   7.007   8.060  -0.541  0.5299 -1.1854 -1.0457
  831MOL0     C12063   6.891   7.966  -0.510 -0.0696 -0.2375  0.1081
  831MOL0     C12064   6.810   7.932  -0.633 -0.0654  0.2846 -0.7244
  831MOL0     C12065   6.717   7.805  -0.604 -0.7210  0.3710 -0.0796
  831MOL0     C12066   6.657   7.743  -0.727 -0.0433  0.5416  0.1285
  831MOL0     N12067   6.587   7.845  -0.796  1.1363 -0.7397 -0.1180
  831MOL0     C12068   6.455   7.887  -0.763 -0.7141  1.1152  0.0232
  831MOL0     C12069   6.435   7.988  -0.843  0.3888 -1.0419  0.1799
  831MOL0     C12070   6.310   8.068  -0.855 -0.4475  0.3293  0.8100
  831MOL0     C12071   6.312   8.203  -0.931  0.2570  0.5635 -0.0587
  831MOL0     C12072   6.376   8.311  -0.838 -0.6341  0.3983 -0.7239
  831MOL0     C12073   6.367   8.454  -0.901 -1.0876  0.6968 -1.1269
  831MOL0     O12074   6.416   8.565  -0.823 -0.3204 -0.3039 -0.8522
  831MOL0     C12075   6.544   8.550  -0.777 -0.9063  0.3636  0.1442
  831MOL0     C12076   6.570   8.493  -0.651 -0.2256  0.3832 -1.1238
  831MOL0     C12077   6.704   8.490  -0.602 -0.2984 -0.3944 -0.2054
  831MOL0     C12078   6.741   8.432  -0.470 -0.1790 -0.3190 -0.3900
  831MOL0     C12079   6.814   8.538  -0.674  0.4120 -0.4658 -0.1777
  831MOL0     C12080   6.958   8.542  -0.619 -0.7794 -0.2384  0.1287
  831MOL0     O12081   7.059   8.512  -0.702  0.1726 -0.6933  0.6168
  831MOL0     C12082   7.190   8.556  -0.673 -0.4550 -0.0812  0.2127
  831MOL0     C12083   7.220   8.679  -0.610  0.4086  0.4510  0.3494
  831MOL0     C12084   7.356   8.708  -0.583  0.3323  0.1677 -0.1133
  831MOL0     C12085   7.465   8.632  -0.624  0.3069  0.6523  1.0534
  831MOL0     O12086   7.596   8.671  -0.593 -0.1827  0.1939  0.6830
  831MOL0     C12087   7.701   8.596  -0.663 -1.4624  0.4133 -0.6404
  831MOL0     C12088   7.847   8.652  -0.650 -0.8726 -0.3063  0.6390
  831MOL0     C12089   7.876   8.786  -0.711  0.0478  0.0919  0.4150
  831MOL0     C12090   8.011   8.849  -0.680 -0.1679  0.1139  0.3255
  831MOL0     C12091   8.047   8.970  -0.762 -0.0653  0.2323 -0.3449
  831MOL0     C12092   7.955   9.095  -0.747  0.6253 -0.6551  0.6517
  831MOL0     C12093   8.024   9.205  -0.833  0.2701  0.7352  1.1606
  831MOL0     C12094   7.950   9.341  -0.820  0.2790  1.2360 -0.1501
  831MOL0    Cl12095   8.022   9.461  -0.924  0.2855 -0.7636  0.1541
  831MOL0     C12096   7.432   8.507  -0.677 -0.0626  0.3154 -0.7406
  831MOL0     C12097   7.300   8.474  -0.701  1.6873  0.2238 -0.7397
  831MOL0     O12098   6.978   8.578  -0.506 -1.0019 -0.1301 -0.3951
  831MOL0     C12099   6.788   8.586  -0.805  0.6636  0.0597 -0.2211
  831MOL0     C12100   6.655   8.590  -0.848  0.4437 -0.1522 -0.3343
  831MOL0     N12101   6.540   8.009  -0.923 -0.1954  0.8507  0.4713
  831MOL0     N12102   6.631   7.925  -0.892  0.2728 -0.7627  0.8739
  831MOL0     C12103   7.306   8.423  -0.051 -0.3240  0.0263 -0.9055
  831MOL0     C12104   7.385   8.486   0.047  1.0887  0.4999  0.8883
  831MOL0     C12105   7.672   8.625   0.337 -0.3727  0.2002 -0.4623
  831MOL0     C12106   7.706   8.760   0.356  0.4252  0.3098 -0.4867
  831MOL0     C12107   7.799   8.804   0.452 -0.3445 -0.0703  0.0111
  831MOL0     C12108   7.881   8.712   0.520 -0.7022 -1.7312  0.0321
  831MOL0     O12109   7.970   8.772   0.614 -0.0103  0.2998  0.3172
  831MOL0     C12110   8.039   8.676   0.696  0.0165  0.0474 -0.3445
  831MOL0     C12111   8.163   8.752   0.739 -0.1021  1.3998 -0.4307
  831MOL0     C12112   8.214   8.687   0.873 -0.5028  0.2368  0.0360
  831MOL0     C12113   8.248   8.541   0.873 -0.4887 -0.0293  0.0556
  831MOL0     C12114   8.150   8.445   0.858  0.8244 -0.5069  1.0425
  831MOL0     C12115   8.062   8.367   0.838  0.2084 -0.8063  0.2869
  831MOL0     C12116   7.835   8.579   0.516 -0.3560  0.9928 -0.8422
  831MOL0     C12117   7.734   8.532   0.423  0.1169  0.2016 -0.2405
  831MOL0     H12118   7.593   8.232   0.092 -1.3914 -0.7771 -1.7854
  831MOL0     H12119   7.448   8.119  -0.079 -1.7202 -0.6739  1.4468
  831MOL0     H12120   7.136   8.400  -0.265 -0.9020  0.5170 -1.0093
  831MOL0     H12121   7.281   8.397  -0.345  2.3562 -0.3808  1.9451
  831MOL0     H12122   7.124   8.332  -0.504 -0.5101  0.0085  0.3252
  831MOL0     H12123   7.248   8.211  -0.481  2.1345  1.2637  2.5669
  831MOL0     H12124   7.104   8.064  -0.353  0.7679  0.0189 -0.5757
  831MOL0     H12125   6.970   8.170  -0.352 -0.1499 -0.1132 -1.2498
  831MOL0     H12126   6.975   8.139  -0.610  1.9520  3.1418  2.7011
  831MOL0     H12127   7.099   8.016  -0.582  1.4087 -1.2340  0.8374
  831MOL0     H12128   6.930   7.876  -0.462  1.1550  1.3319  2.2446
  831MOL0     H12129   6.824   8.016  -0.439 -0.4236  1.1783 -1.1680
  831MOL0     H12130   6.740   8.015  -0.648 -0.2458  0.1917 -0.4028
  831MOL0     H12131   6.882   7.925  -0.715  0.6899 -4.1050  0.0720
  831MOL0     H12132   6.771   7.724  -0.554  0.1046  0.2720 -1.1060
  831MOL0     H12133   6.648   7.824  -0.521 -1.7079 -0.2976 -0.7258
  831MOL0     H12134   6.592   7.658  -0.709 -1.1898  1.0540 -1.3908
  831MOL0     H12135   6.737   7.702  -0.789 -0.2737  0.1669  0.0806
  831MOL0     H12136   6.381   7.845  -0.696  1.8159 -2.0692  1.0602
  831MOL0     H12137   6.253   8.002  -0.920  2.1905 -0.5144 -0.8145
  831MOL0     H12138   6.257   8.071  -0.759  1.0700 -0.2405  1.7047
  831MOL0     H12139   6.210   8.240  -0.951  1.3450  3.2983 -1.0558
  831MOL0     H12140   6.373   8.192  -1.021  2.2072  1.1301  1.1268
  831MOL0     H12141   6.474   8.273  -0.811 -1.1997  0.5603  1.7927
  831MOL0     H12142   6.318   8.312  -0.745 -0.0008  2.7029 -0.3076
  831MOL0     H12143   6.265   8.465  -0.937 -1.5958 -0.4794 -0.1059
  831MOL0     H12144   6.431   8.438  -0.989 -1.4555 -0.9834 -1.1315
  831MOL0     H12145   6.490   8.445  -0.595  2.5157 -1.6586  1.3323
  831MOL0     H12146   6.756   8.507  -0.392  0.8815 -1.7044  0.8040
  831MOL0     H12147   6.664   8.367  -0.426 -2.2685  2.9788  1.2585
  831MOL0     H12148   6.821   8.360  -0.490 -0.0284  0.4095 -2.7350
  831MOL0     H12149   7.151   8.758  -0.581  0.0420  0.0878  0.4767
  831MOL0     H12150   7.381   8.807  -0.543  2.2964 -0.6967  0.9597
  831MOL0     H12151   7.716   8.498  -0.617 -0.9330 -0.3469 -2.3431
  831MOL0     H12152   7.682   8.587  -0.770 -2.2489 -0.4860 -0.4401
  831MOL0     H12153   7.877   8.665  -0.546  1.3221  0.5661 -0.0460
  831MOL0     H12154   7.910   8.571  -0.687 -2.7418 -0.9736 -1.3202
  831MOL0     H12155   7.799   8.856  -0.677 -0.0694  2.0442 -3.3374
  831MOL0     H12156   7.859   8.765  -0.817 -1.6751 -1.2465  0.9049
  831MOL0     H12157   8.017   8.883  -0.576 -0.5431  2.0600 -0.2506
  831MOL0     H12158   8.081   8.766  -0.690 -1.0916 -0.5265 -1.1964
  831MOL0     H12159   8.059   8.940  -0.866  0.0090  0.1884 -0.3236
  831MOL0     H12160   8.150   9.000  -0.740  0.5110 -2.3056  0.8403
  831MOL0     H12161   7.852   9.068  -0.773  0.7343 -0.5544  0.1122
  831MOL0     H12162   7.961   9.118  -0.640  2.6675 -0.6702  0.5696
  831MOL0     H12163   8.007   9.178  -0.938  1.3724 -0.0247  1.1610
  831MOL0     H12164   8.131   9.221  -0.818 -0.2584  3.7449  2.2873
  831MOL0     H12165   7.931   9.373  -0.717 -1.8889  1.6427 -0.6178
  831MOL0     H12166   7.857   9.312  -0.870  1.4374 -1.1221 -1.0670
  831MOL0     H12167   7.511   8.433  -0.686 -0.8764 -1.1139  2.5566
  831MOL0     H12168   7.267   8.386  -0.754 -0.5969  1.3351 -1.3461
  831MOL0     H12169   6.852   8.610  -0.889 -0.8832 -0.3668 -1.5660
  831MOL0     H12170   6.631   8.607  -0.953  0.3550 -2.9976 -0.8489
  831MOL0     H12171   7.222   8.480  -0.090 -0.8527  0.6553  1.0326
  831MOL0     H12172   7.360   8.588   0.073  2.4547  0.9395  0.5972
  831MOL0     H12173   7.662   8.833   0.288 -0.5760 -1.1608 -1.4859
  831MOL0     H12174   7.826   8.907   0.472 -0.1577 -0.0142 -0.5277
  831MOL0     H12175   7.980   8.651   0.784  2.0040  1.2584  1.4323
  831MOL0     H12176   8.053   8.580   0.646 -0.4856 -0.1185 -0.1736
  831MOL0     H12177   8.146   8.858   0.758 -1.5149  1.2695 -0.8642
  831MOL0     H12178   8.233   8.741   0.655  0.9899 -1.2505  0.7156
  831MOL0     H12179   8.137   8.716   0.945  0.8275  1.8766  0.8775
  831MOL0     H12180   8.313   8.723   0.903 -0.5654 -0.9914  1.8773
  831MOL0     H12181   8.281   8.540   0.977  1.6136 -0.3932 -0.5753
  831MOL0     H12182   8.322   8.519   0.796 -1.9987  2.1965 -2.2107
  831MOL0     H12183   7.981   8.298   0.824 -0.2394  0.0332 -1.5853
  831MOL0     H12184   7.874   8.501   0.579 -0.3834  3.8772  3.1425
  831MOL0     H12185   7.708   8.427   0.422  1.1515 -0.0883  0.9485
  832MOL0     O12186   2.420   6.104   3.913  0.6438  0.1949  0.0931
  832MOL0     C12187   2.523   6.178   3.901  1.1108  0.4264  1.1891
  832MOL0     O12188   2.532   6.314   3.919  0.2213  0.0144 -0.1526
  832MOL0     C12189   2.449   6.394   3.992 -0.0382 -0.0596 -0.8134
  832MOL0     C12190   2.478   6.530   3.991  0.0497 -0.5565 -0.0437
  832MOL0     C12191   2.399   6.616   4.077  0.8331 -0.7700  0.1701
  832MOL0     C12192   2.294   6.577   4.162  0.5606 -0.4178  0.5954
  832MOL0     O12193   2.228   6.665   4.243  0.7267  0.6119  0.0223
  832MOL0     C12194   2.087   6.667   4.222  0.2116  0.3570 -0.0545
  832MOL0     C12195   2.018   6.603   4.337  0.0261  0.2369 -0.4384
  832MOL0     C12196   2.027   6.688   4.468 -0.0574  0.2119 -0.5927
  832MOL0     C12197   1.894   6.657   4.553  0.0172  0.6073 -0.5655
  832MOL0     C12198   1.897   6.707   4.702  0.2217 -0.0851  0.4140
  832MOL0     C12199   1.877   6.860   4.708  0.6095  0.0675  0.7163
  832MOL0     C12200   1.891   6.881   4.865  0.1816 -0.3555 -0.1412
  832MOL0     C12201   1.834   7.021   4.892 -0.7625 -0.2377  0.7686
  832MOL0     N12202   1.922   7.137   4.871 -0.3841 -0.5826  0.2621
  832MOL0     C12203   2.042   7.146   4.930 -1.0939  0.2525 -0.2721
  832MOL0     C12204   2.122   7.200   4.842 -0.6168 -0.2384  0.3664
  832MOL0     C12205   2.263   7.224   4.863  0.3886 -1.0470  1.3620
  832MOL0     C12206   2.328   7.083   4.886 -0.1672  0.5381  0.4026
  832MOL0     C12207   2.469   7.096   4.909 -0.2227 -0.3280  0.7302
  832MOL0     C12208   2.524   6.952   4.913 -0.5225  0.7776  0.0539
  832MOL0     O12209   2.475   6.856   5.016  0.9222  0.5992  0.8475
  832MOL0     C12210   2.526   6.885   5.142 -0.6526  0.5771  0.0346
  832MOL0     C12211   2.632   6.970   5.181  0.3199  0.4115 -0.4067
  832MOL0     C12212   2.686   6.982   5.310  1.1085  0.5680 -0.5803
  832MOL0     C12213   2.816   7.049   5.335 -1.2558 -0.3717 -0.3438
  832MOL0     C12214   2.615   6.916   5.425 -0.1717 -0.6004 -0.6889
  832MOL0     C12215   2.639   6.953   5.577 -0.4415 -0.2450 -0.4389
  832MOL0     O12216   2.555   6.897   5.666 -0.4414  0.5747 -0.4936
  832MOL0     C12217   2.579   6.910   5.801 -0.3711 -0.6003  0.3583
  832MOL0     C12218   2.629   6.792   5.863  0.6074 -1.0719  0.4055
  832MOL0     C12219   2.668   6.795   5.998 -0.5590 -0.8393  0.1942
  832MOL0     C12220   2.664   6.915   6.063  0.0873  0.5064 -0.5095
  832MOL0     O12221   2.714   6.925   6.189  0.5420 -0.0328  0.0737
  832MOL0     C12222   2.821   6.836   6.219  0.1845  0.3057 -0.3310
  832MOL0     C12223   2.914   6.879   6.337  0.2122  0.1153  0.3785
  832MOL0     C12224   3.029   6.783   6.361 -1.0896  0.7819 -0.7624
  832MOL0     C12225   2.989   6.635   6.399 -0.7323 -0.1672  1.0549
  832MOL0     C12226   3.111   6.560   6.453 -0.2423 -0.9512 -0.0668
  832MOL0     C12227   3.123   6.543   6.603 -0.7761  0.3263 -0.0946
  832MOL0     C12228   3.266   6.474   6.647 -0.3882 -0.7235  0.2978
  832MOL0     C12229   3.284   6.337   6.594 -0.9839  0.5823 -0.2634
  832MOL0    Cl12230   3.448   6.261   6.639 -0.0416 -0.7371 -0.0015
  832MOL0     C12231   2.607   7.028   5.999 -0.3675  0.8367 -0.5484
  832MOL0     C12232   2.559   7.028   5.871 -0.1939  0.6015  0.6645
  832MOL0     O12233   2.729   7.027   5.618  0.7400  0.0999  0.1960
  832MOL0     C12234   2.520   6.822   5.383  0.8910 -1.1225  0.4197
  832MOL0     C12235   2.478   6.806   5.248  0.4887 -0.9421  0.6463
  832MOL0     N12236   2.051   7.222   4.725  1.0551  0.0370 -0.2877
  832MOL0     N12237   1.931   7.182   4.744  0.0626 -0.4986  0.6704
  832MOL0     C12238   2.271   6.434   4.167 -0.5514 -0.3744 -0.1189
  832MOL0     C12239   2.344   6.346   4.078 -0.4953 -0.3354  0.2828
  832MOL0     C12240   2.651   6.121   3.845 -0.6414  0.4825  0.2833
  832MOL0     C12241   2.770   6.198   3.837  0.8395  0.1034  0.3396
  832MOL0     C12242   2.892   6.154   3.785 -0.1890  0.0299 -0.5817
  832MOL0     C12243   2.904   6.022   3.736 -0.0149  0.2458 -0.2378
  832MOL0     O12244   3.008   5.970   3.674  0.4048  0.6671 -0.3503
  832MOL0     C12245   3.143   6.021   3.689  1.1212 -1.4035 -0.4554
  832MOL0     C12246   3.249   5.928   3.627  0.0960  0.2388  0.6613
  832MOL0     C12247   3.390   5.974   3.647 -0.3406  1.0863  0.2108
  832MOL0     C12248   3.480   5.899   3.542 -0.5180  1.1734  0.7027
  832MOL0     C12249   3.619   5.917   3.593 -0.1155  0.1565 -0.5220
  832MOL0     C12250   3.730   5.923   3.648 -0.3253  0.2107  0.0017
  832MOL0     C12251   2.789   5.944   3.739 -0.4893  0.2242  0.0194
  832MOL0     C12252   2.670   5.989   3.801  0.4126  0.5823  0.9834
  832MOL0     H12253   2.558   6.568   3.928 -1.7745  0.9072 -1.5774
  832MOL0     H12254   2.418   6.723   4.075  1.9987 -0.9794 -1.2745
  832MOL0     H12255   2.048   6.769   4.220  0.5825  0.5284 -2.6330
  832MOL0     H12256   2.054   6.622   4.127 -2.3050 -0.2014  0.9880
  832MOL0     H12257   1.912   6.599   4.311  0.2600 -2.2007 -1.2986
  832MOL0     H12258   2.056   6.505   4.367  0.0676  0.5501  0.5824
  832MOL0     H12259   2.116   6.656   4.523 -0.7323  0.8545  0.9446
  832MOL0     H12260   2.034   6.797   4.456 -1.2183  0.5013  1.0057
  832MOL0     H12261   1.819   6.711   4.495 -0.8953 -1.4362 -1.3817
  832MOL0     H12262   1.866   6.551   4.543  1.8364  0.1565 -1.4164
  832MOL0     H12263   1.820   6.652   4.756  0.3323 -0.6148  0.0414
  832MOL0     H12264   1.993   6.673   4.742  0.6371 -2.5500 -2.3538
  832MOL0     H12265   1.963   6.906   4.658  0.1221  0.6956  0.4415
  832MOL0     H12266   1.790   6.899   4.653  1.4800  0.6248 -0.2999
  832MOL0     H12267   1.829   6.814   4.925  0.2229 -1.7517 -1.6095
  832MOL0     H12268   1.997   6.878   4.892  0.6788 -0.1830 -1.9550
  832MOL0     H12269   1.811   7.023   4.999  0.1567 -0.4231  0.9803
  832MOL0     H12270   1.745   7.036   4.830  0.8267 -1.8382 -2.0961
  832MOL0     H12271   2.078   7.142   5.033 -1.1471  1.0541 -0.2126
  832MOL0     H12272   2.303   7.275   4.775 -1.9438  1.4197  1.5983
  832MOL0     H12273   2.290   7.295   4.941  2.6328  2.8178 -2.4946
  832MOL0     H12274   2.309   7.030   4.792 -0.9234  0.9714  0.2957
  832MOL0     H12275   2.275   7.015   4.954 -0.2355 -1.0988 -1.2034
  832MOL0     H12276   2.489   7.155   4.999 -1.9148 -0.3021  1.1252
  832MOL0     H12277   2.501   7.148   4.818  0.2730  2.7473  2.5270
  832MOL0     H12278   2.633   6.964   4.918 -0.4021 -0.0796 -0.3738
  832MOL0     H12279   2.506   6.900   4.819 -2.2092 -0.7609  1.1411
  832MOL0     H12280   2.697   7.013   5.106  0.3379 -0.9838 -1.2251
  832MOL0     H12281   2.858   7.081   5.239 -0.0926  3.6469  1.3072
  832MOL0     H12282   2.808   7.132   5.405  0.9497  2.1751 -2.8942
  832MOL0     H12283   2.874   6.969   5.384  1.0891  1.1321 -0.5332
  832MOL0     H12284   2.633   6.695   5.816  1.9748 -0.1120 -1.6202
  832MOL0     H12285   2.691   6.701   6.048 -0.0601 -1.3653 -1.0071
  832MOL0     H12286   2.778   6.741   6.252  0.1689  1.1333  2.2237
  832MOL0     H12287   2.893   6.827   6.137  0.0850  1.5922 -0.5702
  832MOL0     H12288   2.963   6.977   6.334 -1.7650  1.1831  0.9374
  832MOL0     H12289   2.849   6.888   6.424  1.7967 -1.0283  1.7380
  832MOL0     H12290   3.093   6.819   6.442 -1.5012  1.8514 -0.9051
  832MOL0     H12291   3.102   6.779   6.280  1.4510 -0.0235  1.4087
  832MOL0     H12292   2.902   6.624   6.464 -1.1292 -0.1775  0.5285
  832MOL0     H12293   2.967   6.595   6.300  1.6829  0.2323  0.2737
  832MOL0     H12294   3.205   6.605   6.419 -0.9594  1.5476  1.0796
  832MOL0     H12295   3.107   6.457   6.416  0.2880 -1.0195  0.0550
  832MOL0     H12296   3.123   6.642   6.649  2.4701  0.9598 -1.1434
  832MOL0     H12297   3.046   6.494   6.662 -2.3799  0.1001 -2.2702
  832MOL0     H12298   3.272   6.479   6.756  1.0608 -3.8299  0.4577
  832MOL0     H12299   3.344   6.544   6.617 -3.1289  4.4199  3.5006
  832MOL0     H12300   3.288   6.338   6.484  0.0019  2.4383 -0.2556
  832MOL0     H12301   3.197   6.279   6.626 -0.2065  2.3621  6.7624
  832MOL0     H12302   2.623   7.126   6.043  0.9206  0.6215 -0.5084
  832MOL0     H12303   2.511   7.113   5.824  0.0719  3.6148  5.1731
  832MOL0     H12304   2.462   6.768   5.457 -0.2514 -0.6871 -0.1255
  832MOL0     H12305   2.398   6.738   5.224  2.9310 -3.8365  0.1772
  832MOL0     H12306   2.199   6.375   4.223 -1.5778  0.6865 -0.2853
  832MOL0     H12307   2.338   6.238   4.084 -2.9481 -0.1768  2.7101
  832MOL0     H12308   2.748   6.298   3.873  1.6191 -0.6777  3.1988
  832MOL0     H12309   2.977   6.217   3.760  0.4330 -0.7163 -0.3788
  832MOL0     H12310   3.143   6.120   3.641 -0.3247  0.2191  2.6072
  832MOL0     H12311   3.163   6.040   3.795 -1.3506  1.6391 -0.3963
  832MOL0     H12312   3.240   5.925   3.518  2.2314  0.8028  0.4289
  832MOL0     H12313   3.232   5.829   3.670 -1.6877 -0.6930 -1.9030
  832MOL0     H12314   3.424   5.943   3.747 -0.0983 -0.0358 -0.2030
  832MOL0     H12315   3.398   6.082   3.637  1.5599  0.8962 -0.6587
  832MOL0     H12316   3.473   5.943   3.442 -1.1881  1.1882  0.7506
  832MOL0     H12317   3.455   5.795   3.520 -3.0495  2.2494 -2.2992
  832MOL0     H12318   3.819   5.932   3.707 -0.8362  1.6104  0.6218
  832MOL0     H12319   2.813   5.842   3.710  0.7141  0.6085 -0.3977
  832MOL0     H12320   2.592   5.916   3.819  0.8189  0.0968  0.8089
  833MOL0     O12321   5.393   8.120   8.828 -0.1573 -0.1886  1.4943
  833MOL0     C12322   5.455   8.221   8.794  0.2253  0.4312  0.0162
  833MOL0     O12323   5.566   8.225   8.711  0.1750 -0.8146  0.6431
  833MOL0     C12324   5.622   8.103   8.689  0.3310 -0.0360  0.1810
  833MOL0     C12325   5.720   8.073   8.782 -0.1650  0.4444 -0.2777
  833MOL0     C12326   5.770   7.940   8.783  0.0602  1.3758 -1.3326
  833MOL0     C12327   5.731   7.842   8.679  0.1020 -0.6711 -0.2609
  833MOL0     O12328   5.799   7.726   8.690 -0.4875  0.9015 -0.4366
  833MOL0     C12329   5.721   7.612   8.658 -0.0504  0.7290  0.3332
  833MOL0     C12330   5.714   7.517   8.778 -0.1796 -0.0280 -0.1493
  833MOL0     C12331   5.663   7.379   8.719 -0.5209 -1.0900  0.3215
  833MOL0     C12332   5.676   7.287   8.838 -0.0661 -0.3677 -0.1504
  833MOL0     C12333   5.599   7.163   8.820  0.1737  0.9311 -0.2422
  833MOL0     C12334   5.666   7.060   8.733  0.1419  0.4392  0.5389
  833MOL0     C12335   5.649   7.088   8.582  0.5502 -0.0437 -0.2504
  833MOL0     C12336   5.567   6.978   8.512  0.1263 -0.0952 -0.5199
  833MOL0     N12337   5.619   6.841   8.540  0.4166  0.3316 -0.3265
  833MOL0     C12338   5.559   6.744   8.616 -0.6368  1.0114  0.1382
  833MOL0     C12339   5.643   6.642   8.621 -0.5528 -0.6870 -0.7727
  833MOL0     C12340   5.632   6.512   8.693  0.7064 -0.1034  1.1021
  833MOL0     C12341   5.756   6.412   8.676  0.1422 -0.7056  0.1285
  833MOL0     C12342   5.751   6.301   8.769  0.1978 -0.3509  0.0294
  833MOL0     C12343   5.889   6.236   8.797 -0.3900 -0.1904  0.0399
  833MOL0     O12344   5.945   6.193   8.675  0.2923 -0.4011  0.2573
  833MOL0     C12345   6.053   6.106   8.669 -0.6277 -0.2544 -0.8182
  833MOL0     C12346   6.129   6.104   8.550 -0.9827  0.4498  0.2827
  833MOL0     C12347   6.252   6.041   8.546 -0.2385 -0.6790  0.9647
  833MOL0     C12348   6.330   6.051   8.421  0.0702  0.5045  0.3871
  833MOL0     C12349   6.300   5.973   8.660 -0.4923  0.7304  0.0713
  833MOL0     C12350   6.431   5.899   8.672 -0.5537 -0.8118 -0.1243
  833MOL0     O12351   6.430   5.781   8.751  0.3880  0.0128 -0.3481
  833MOL0     C12352   6.550   5.722   8.782 -0.0575  1.0712 -0.0678
  833MOL0     C12353   6.604   5.622   8.691  0.4357 -0.6151 -0.2064
  833MOL0     C12354   6.724   5.575   8.708 -0.1214 -0.3607  0.0392
  833MOL0     C12355   6.807   5.599   8.820 -0.1640 -0.3781  0.4408
  833MOL0     O12356   6.928   5.530   8.850  0.1870  0.0829  0.0186
  833MOL0     C12357   6.942   5.401   8.787 -0.1545  0.3494 -0.5041
  833MOL0     C12358   7.025   5.308   8.879  0.3149 -0.0714  0.6147
  833MOL0     C12359   7.079   5.176   8.821  1.0257  0.3157 -0.0889
  833MOL0     C12360   7.152   5.099   8.933 -0.9725 -0.1830 -0.0371
  833MOL0     C12361   7.176   4.950   8.881 -0.3831 -0.1222  0.3456
  833MOL0     C12362   7.043   4.866   8.861 -0.5229  0.2290 -0.4756
  833MOL0     C12363   6.962   4.858   8.983  0.0406  0.3706  0.9080
  833MOL0     C12364   6.866   4.734   8.977 -0.3434 -0.4757  0.8026
  833MOL0    Cl12365   6.968   4.596   8.989  0.2245  0.2169 -0.5892
  833MOL0     C12366   6.747   5.688   8.916 -1.2622  0.5044 -0.2209
  833MOL0     C12367   6.622   5.748   8.901 -0.1969 -0.1035 -0.0120
  833MOL0     O12368   6.535   5.955   8.637  0.4312 -1.2569  0.1084
  833MOL0     C12369   6.222   5.966   8.779 -0.5867 -0.2043  0.6715
  833MOL0     C12370   6.104   6.044   8.783 -0.3512  0.4957 -0.6917
  833MOL0     N12371   5.760   6.680   8.552  0.1141  0.7003 -0.4458
  833MOL0     N12372   5.741   6.792   8.490 -0.1861  0.1453 -0.2005
  833MOL0     C12373   5.642   7.891   8.582 -0.3724  0.2265 -0.0172
  833MOL0     C12374   5.578   8.011   8.592 -0.1920 -0.6931 -0.4028
  833MOL0     C12375   5.409   8.340   8.857  0.7833 -0.0207  0.0934
  833MOL0     C12376   5.494   8.452   8.872  0.8716  0.3715  0.1433
  833MOL0     C12377   5.455   8.571   8.927  1.2878 -0.6287  0.6146
  833MOL0     C12378   5.333   8.569   8.994  0.4648  0.2861  0.0150
  833MOL0     O12379   5.289   8.686   9.058 -0.5646  0.4659 -0.0429
  833MOL0     C12380   5.277   8.675   9.200 -0.3589  0.9847  0.4413
  833MOL0     C12381   5.303   8.813   9.251 -0.5027  0.2459 -0.1526
  833MOL0     C12382   5.201   8.920   9.203 -1.1845 -0.1981  0.2735
  833MOL0     C12383   5.252   9.065   9.240  0.9855 -0.0679 -0.5694
  833MOL0     C12384   5.204   9.157   9.135  0.7169 -0.3044  0.1020
  833MOL0     C12385   5.158   9.228   9.047  0.4584 -0.4769 -0.5912
  833MOL0     C12386   5.252   8.454   8.996 -0.8914 -0.5042  0.0010
  833MOL0     C12387   5.276   8.343   8.926 -0.7518 -0.2502 -0.2429
  833MOL0     H12388   5.745   8.153   8.850  3.7748 -0.3342 -0.6030
  833MOL0     H12389   5.843   7.907   8.856 -0.0607  0.5516 -1.5796
  833MOL0     H12390   5.617   7.632   8.633  0.8523  1.2485 -3.6037
  833MOL0     H12391   5.765   7.572   8.566  1.8622  2.6509  0.3200
  833MOL0     H12392   5.814   7.494   8.817 -0.7713  1.9821  2.9258
  833MOL0     H12393   5.648   7.558   8.855  0.5525  0.4267  0.2475
  833MOL0     H12394   5.557   7.383   8.694 -0.4527 -1.3322 -0.0114
  833MOL0     H12395   5.726   7.347   8.636  1.6726  2.6450  0.3379
  833MOL0     H12396   5.783   7.271   8.853  0.0594 -0.7390 -1.3204
  833MOL0     H12397   5.633   7.341   8.923  0.2733 -1.2412  0.5901
  833MOL0     H12398   5.587   7.122   8.920 -0.3805 -2.3741 -1.5283
  833MOL0     H12399   5.495   7.174   8.787  0.0181 -0.7756 -0.3944
  833MOL0     H12400   5.772   7.072   8.757  0.1380  1.3402  0.1341
  833MOL0     H12401   5.621   6.963   8.755 -1.0755  0.4950 -1.4993
  833MOL0     H12402   5.588   7.177   8.567  1.3282  0.3805 -1.0163
  833MOL0     H12403   5.749   7.105   8.540  0.6629 -2.4107 -1.0850
  833MOL0     H12404   5.587   6.999   8.407  2.7979 -3.5448 -0.8864
  833MOL0     H12405   5.461   6.986   8.539  0.8023  2.0187  1.9287
  833MOL0     H12406   5.457   6.753   8.653 -1.4718  2.5889 -2.2919
  833MOL0     H12407   5.606   6.536   8.797 -1.3795  1.1996  0.3298
  833MOL0     H12408   5.545   6.461   8.652  2.1058 -1.9784  0.3632
  833MOL0     H12409   5.842   6.478   8.689 -1.9111  2.3353 -0.6070
  833MOL0     H12410   5.773   6.374   8.575  3.3621 -0.5307  0.4972
  833MOL0     H12411   5.676   6.223   8.755 -2.6223  1.8724  1.7721
  833MOL0     H12412   5.725   6.338   8.869  1.1167 -1.0216  0.5338
  833MOL0     H12413   5.874   6.156   8.870  0.8556 -2.8464 -2.4021
  833MOL0     H12414   5.953   6.316   8.835 -2.0729  2.0673 -1.5895
  833MOL0     H12415   6.101   6.156   8.460  0.5258  0.1895 -0.3741
  833MOL0     H12416   6.367   5.953   8.388 -1.0003  0.1420  0.2192
  833MOL0     H12417   6.266   6.077   8.337 -1.2174  1.1738  1.5332
  833MOL0     H12418   6.414   6.118   8.441  0.4858  0.0924  0.0613
  833MOL0     H12419   6.546   5.608   8.599 -1.3933  0.1625  0.7661
  833MOL0     H12420   6.757   5.500   8.638  2.6131 -2.0703  2.8650
  833MOL0     H12421   6.849   5.346   8.772 -2.0172  3.1007  0.1379
  833MOL0     H12422   6.994   5.405   8.691 -0.3967  0.0000 -0.6519
  833MOL0     H12423   7.111   5.370   8.905  0.3506 -0.2216  0.8551
  833MOL0     H12424   6.962   5.290   8.966 -2.0593 -0.3642 -1.0591
  833MOL0     H12425   7.148   5.199   8.740 -2.3453 -1.5641 -3.8005
  833MOL0     H12426   6.995   5.117   8.784  1.3848  1.4233 -2.8565
  833MOL0     H12427   7.234   5.163   8.966 -1.2220  0.4714 -0.6562
  833MOL0     H12428   7.086   5.089   9.020 -1.7912 -0.2662 -0.6534
  833MOL0     H12429   7.243   4.897   8.950  1.7681 -0.6553 -1.9747
  833MOL0     H12430   7.233   4.960   8.787  0.4199 -0.8183  0.7408
  833MOL0     H12431   6.985   4.909   8.779 -0.5009  0.7725 -0.2081
  833MOL0     H12432   7.070   4.764   8.831 -0.0791  0.1236  0.2609
  833MOL0     H12433   6.896   4.944   8.996 -0.0040  0.0291  3.2487
  833MOL0     H12434   7.029   4.857   9.069 -0.5206 -1.3006  1.3678
  833MOL0     H12435   6.809   4.732   8.884  1.9391  1.2375 -0.7400
  833MOL0     H12436   6.805   4.739   9.068  1.0999  2.8688  1.7570
  833MOL0     H12437   6.805   5.704   9.007 -2.4365 -1.1665  0.8654
  833MOL0     H12438   6.583   5.806   8.984  1.1030 -0.2325  0.7177
  833MOL0     H12439   6.252   5.916   8.870 -0.5415 -4.0752 -1.2428
  833MOL0     H12440   6.044   6.035   8.873  1.6881 -0.3335  0.6623
  833MOL0     H12441   5.610   7.822   8.505  0.0824 -0.5529  0.4861
  833MOL0     H12442   5.497   8.036   8.523 -3.5842 -3.3184  2.2340
  833MOL0     H12443   5.591   8.447   8.823 -0.1948 -2.2715 -1.9409
  833MOL0     H12444   5.522   8.655   8.914  2.4532 -1.7878 -1.3965
  833MOL0     H12445   5.181   8.637   9.237  0.4405 -1.5190  0.1859
  833MOL0     H12446   5.348   8.600   9.238 -1.7952 -2.2244 -2.5880
  833MOL0     H12447   5.405   8.838   9.219  1.2318  0.0822  4.4175
  833MOL0     H12448   5.305   8.798   9.360 -2.4949 -3.8453 -0.5124
  833MOL0     H12449   5.106   8.892   9.250 -0.8388  2.1043  2.6215
  833MOL0     H12450   5.193   8.907   9.095  3.0483  0.4421 -0.2834
  833MOL0     H12451   5.360   9.080   9.248  0.6976  1.5520  0.7418
  833MOL0     H12452   5.205   9.088   9.336 -3.1934 -2.1328 -1.8689
  833MOL0     H12453   5.109   9.291   8.975 -0.7283  1.6214  1.8963
  833MOL0     H12454   5.157   8.465   9.048 -0.8850 -0.8248  0.0847
  833MOL0     H12455   5.215   8.254   8.919  0.9745 -1.6862  1.7448
  834MOL0     O12456   1.608   5.849   4.563  0.4876  0.7389 -0.8593
  834MOL0     C12457   1.631   5.749   4.496  0.2031  0.7892  0.0750
  834MOL0     O12458   1.541   5.694   4.398  0.4180  0.5740  0.4321
  834MOL0     C12459   1.432   5.771   4.345 -0.1038  0.0484  0.2695
  834MOL0     C12460   1.321   5.692   4.303  0.2342 -0.2326  0.3912
  834MOL0     C12461   1.204   5.763   4.263 -1.1091  0.5100  0.5998
  834MOL0     C12462   1.200   5.901   4.251 -0.5918 -0.1160 -0.0518
  834MOL0     O12463   1.079   5.961   4.242 -0.1481 -0.5117 -0.4412
  834MOL0     C12464   1.069   6.092   4.181 -0.5706 -0.2362  0.0416
  834MOL0     C12465   1.109   6.117   4.035  0.2824 -0.0118 -1.2785
  834MOL0     C12466   0.997   6.063   3.946 -0.1182  0.3978 -0.2435
  834MOL0     C12467   1.018   6.101   3.791  0.4070  0.8595  0.2702
  834MOL0     C12468   1.102   5.985   3.731 -0.2000 -0.9706  0.7338
  834MOL0     C12469   1.245   5.955   3.774  0.1648  0.2126 -0.5154
  834MOL0     C12470   1.325   5.842   3.692  0.1169  0.1972 -0.4465
  834MOL0     C12471   1.475   5.853   3.740  0.9842 -0.1263 -0.6054
  834MOL0     N12472   1.556   5.754   3.662 -0.1697 -0.7787  0.4163
  834MOL0     C12473   1.520   5.624   3.637 -0.1554  0.5792 -0.6366
  834MOL0     C12474   1.632   5.581   3.568  0.1769 -0.0606 -0.0812
  834MOL0     C12475   1.676   5.448   3.539 -0.0512 -0.3935  0.2088
  834MOL0     C12476   1.732   5.395   3.664  0.3530  0.4156  0.2287
  834MOL0     C12477   1.782   5.246   3.658 -0.0134 -0.0789 -0.1451
  834MOL0     C12478   1.738   5.171   3.782 -1.2942  0.1443 -0.8921
  834MOL0     O12479   1.599   5.165   3.786 -0.5393  0.1828  0.3985
  834MOL0     C12480   1.536   5.050   3.826 -0.0327  0.1358  1.0385
  834MOL0     C12481   1.584   4.962   3.926  0.3291  0.4614  0.1346
  834MOL0     C12482   1.521   4.841   3.950 -0.0200  0.2787  0.0069
  834MOL0     C12483   1.581   4.777   4.068  0.2597  0.3887 -0.4525
  834MOL0     C12484   1.406   4.803   3.878  1.0888 -0.4510  0.1293
  834MOL0     C12485   1.335   4.675   3.899 -0.1359  0.8891  0.3986
  834MOL0     O12486   1.222   4.662   3.828  0.2110  0.5908 -0.4406
  834MOL0     C12487   1.138   4.560   3.860 -0.3515  0.2873  0.0377
  834MOL0     C12488   1.132   4.461   3.768  0.2793  1.1687  0.1535
  834MOL0     C12489   1.064   4.341   3.790 -0.7777 -0.3906  0.0986
  834MOL0     C12490   0.992   4.319   3.906  0.2200 -0.1300  0.2428
  834MOL0     O12491   0.944   4.194   3.928 -0.1535  0.1508 -0.0217
  834MOL0     C12492   0.860   4.178   4.039  0.5991 -0.6507 -0.3243
  834MOL0     C12493   0.821   4.033   4.053  0.0378  0.2097  0.2964
  834MOL0     C12494   0.934   3.933   4.087  0.4675  0.7859  0.6587
  834MOL0     C12495   0.896   3.778   4.097  0.9721  0.1262 -0.5364
  834MOL0     C12496   1.015   3.704   4.155 -0.6637 -0.3811  0.5654
  834MOL0     C12497   1.138   3.712   4.069 -0.4055 -0.7968  0.6575
  834MOL0     C12498   1.242   3.614   4.115 -0.7538  0.3675 -0.5031
  834MOL0     C12499   1.314   3.656   4.242 -1.2782  0.3278 -0.2916
  834MOL0    Cl12500   1.419   3.807   4.229 -0.4889 -0.1689 -0.2238
  834MOL0     C12501   0.988   4.424   4.005  0.3161  0.1051  0.8135
  834MOL0     C12502   1.072   4.532   3.985 -0.2168  0.9981  1.2156
  834MOL0     O12503   1.376   4.585   3.973  0.1583 -0.3589 -0.2968
  834MOL0     C12504   1.349   4.910   3.795 -0.2085  0.1905  0.6481
  834MOL0     C12505   1.412   5.032   3.771  0.2116 -0.3788  0.7305
  834MOL0     N12506   1.725   5.679   3.558  0.0579  0.5736 -0.5875
  834MOL0     N12507   1.678   5.783   3.606  0.5299 -0.5813 -0.6093
  834MOL0     C12508   1.322   5.972   4.286  1.0038  0.7912 -0.0030
  834MOL0     C12509   1.428   5.910   4.348  0.8307 -0.5543 -0.3715
  834MOL0     C12510   1.764   5.692   4.514 -0.7192 -0.5496 -0.3480
  834MOL0     C12511   1.874   5.777   4.530  0.1666  0.0190  0.3888
  834MOL0     C12512   1.995   5.723   4.566  0.2996  0.0040 -0.2122
  834MOL0     C12513   2.019   5.587   4.561  0.6498  1.0980  0.6206
  834MOL0     O12514   2.145   5.528   4.583  0.0766 -0.3235 -0.0324
  834MOL0     C12515   2.256   5.623   4.608  0.5251 -0.1843  0.6058
  834MOL0     C12516   2.391   5.570   4.607 -0.0772  0.1817 -0.0152
  834MOL0     C12517   2.438   5.551   4.455 -0.1203 -0.0442 -0.9822
  834MOL0     C12518   2.575   5.493   4.429 -0.6311  0.0245  0.3903
  834MOL0     C12519   2.547   5.348   4.451 -0.2548 -0.0381  0.5900
  834MOL0     C12520   2.522   5.231   4.472  0.8643 -0.7087  0.3264
  834MOL0     C12521   1.913   5.498   4.535 -0.4746 -0.6766  0.0581
  834MOL0     C12522   1.784   5.554   4.511 -0.3815  0.4944 -0.6661
  834MOL0     H12523   1.309   5.584   4.298 -2.1065  0.0203 -2.8518
  834MOL0     H12524   1.127   5.690   4.243  1.8500 -1.8965 -3.3738
  834MOL0     H12525   0.963   6.109   4.202 -0.9552 -1.6349 -0.5930
  834MOL0     H12526   1.115   6.171   4.241 -0.4790 -2.4725  3.1539
  834MOL0     H12527   1.119   6.224   4.014 -0.3576  0.2302 -0.3867
  834MOL0     H12528   1.207   6.068   4.031  0.5020  0.3935 -0.9582
  834MOL0     H12529   0.992   5.954   3.958 -2.5273  0.4934  0.1227
  834MOL0     H12530   0.903   6.108   3.981  0.2148  0.7131  0.2518
  834MOL0     H12531   0.921   6.108   3.742  1.8311 -1.6078 -3.4438
  834MOL0     H12532   1.079   6.192   3.785  2.2059 -0.0104  3.1791
  834MOL0     H12533   1.049   5.890   3.741  0.2711 -1.3545 -0.2820
  834MOL0     H12534   1.113   6.009   3.625  0.0032 -0.2974  0.9043
  834MOL0     H12535   1.294   6.053   3.777 -2.2537  1.5450 -1.2925
  834MOL0     H12536   1.246   5.926   3.880 -3.1256 -0.9261 -0.6737
  834MOL0     H12537   1.281   5.745   3.717  1.3184 -0.1571  0.3526
  834MOL0     H12538   1.320   5.842   3.582 -1.3435  0.5125 -0.3985
  834MOL0     H12539   1.487   5.833   3.847 -0.7160 -2.0982 -0.7152
  834MOL0     H12540   1.508   5.954   3.714 -1.0722  0.4610 -1.0961
  834MOL0     H12541   1.446   5.559   3.681 -1.1892  3.9782  3.2733
  834MOL0     H12542   1.587   5.394   3.507 -1.8146  2.1980  0.5385
  834MOL0     H12543   1.755   5.440   3.464  0.4440 -0.8737  0.7626
  834MOL0     H12544   1.662   5.405   3.747  1.5614 -2.2208  1.6959
  834MOL0     H12545   1.813   5.458   3.702  0.9529  0.9794 -1.8055
  834MOL0     H12546   1.890   5.235   3.643  0.4522  0.3890  2.3755
  834MOL0     H12547   1.742   5.192   3.572  4.1647 -3.8973 -0.0787
  834MOL0     H12548   1.778   5.217   3.872 -1.5747 -0.7431 -0.2970
  834MOL0     H12549   1.767   5.066   3.769  2.1076  0.8215  0.1741
  834MOL0     H12550   1.681   4.981   3.970  1.1355 -2.4460 -0.1808
  834MOL0     H12551   1.644   4.691   4.042 -0.5616  0.2369 -2.1156
  834MOL0     H12552   1.636   4.853   4.125 -2.1197  2.1382 -0.3700
  834MOL0     H12553   1.503   4.740   4.134  1.8324  0.2648  1.4427
  834MOL0     H12554   1.200   4.469   3.684  3.9889  0.3447  2.7894
  834MOL0     H12555   1.077   4.256   3.724 -0.6491  2.6396 -4.1722
  834MOL0     H12556   0.921   4.207   4.125 -1.8212  0.4468  1.1017
  834MOL0     H12557   0.770   4.239   4.038 -0.8171 -2.6296 -0.3330
  834MOL0     H12558   0.743   4.031   4.130 -1.7065 -1.1060 -1.4174
  834MOL0     H12559   0.786   3.990   3.959  2.8155 -0.1199 -0.6845
  834MOL0     H12560   0.986   3.973   4.174  1.7216 -0.2913  0.4414
  834MOL0     H12561   1.010   3.938   4.009  0.0391  0.5396  0.2217
  834MOL0     H12562   0.807   3.767   4.159 -0.4813 -0.0737 -2.5657
  834MOL0     H12563   0.875   3.736   3.998  2.3529 -1.5051 -0.1721
  834MOL0     H12564   0.984   3.600   4.166  4.8867 -2.8686 -2.6992
  834MOL0     H12565   1.053   3.738   4.253 -2.8279  1.4842  0.8408
  834MOL0     H12566   1.109   3.694   3.965  1.4021  1.2343 -0.2861
  834MOL0     H12567   1.184   3.812   4.070  0.5108 -1.1892 -0.1068
  834MOL0     H12568   1.320   3.612   4.039 -0.2977 -1.4820 -0.0290
  834MOL0     H12569   1.200   3.514   4.132  1.1838 -0.3560  0.3413
  834MOL0     H12570   1.384   3.580   4.279  1.1006  1.5830 -1.8947
  834MOL0     H12571   1.243   3.678   4.322 -1.6760 -2.1532  0.1037
  834MOL0     H12572   0.958   4.419   4.109  3.5896 -2.4893  1.8229
  834MOL0     H12573   1.069   4.604   4.067  1.5535  2.7227 -0.1179
  834MOL0     H12574   1.262   4.892   3.733 -2.6572  1.2585  3.5560
  834MOL0     H12575   1.377   5.088   3.685  0.6669 -3.3851 -1.6083
  834MOL0     H12576   1.309   6.080   4.282 -2.8299  0.4362 -2.1181
  834MOL0     H12577   1.512   5.974   4.370  0.2521 -0.6644  2.5695
  834MOL0     H12578   1.887   5.885   4.535  1.2762 -0.1189  0.9329
  834MOL0     H12579   2.067   5.798   4.597  0.4984  0.5807 -1.9432
  834MOL0     H12580   2.246   5.706   4.538 -1.5814 -0.8816 -0.0180
  834MOL0     H12581   2.240   5.658   4.710  2.3120 -0.2918  0.9526
  834MOL0     H12582   2.405   5.474   4.658  3.2618  1.1118  1.0829
  834MOL0     H12583   2.455   5.638   4.665  0.0189 -2.0856  2.7685
  834MOL0     H12584   2.448   5.657   4.430 -0.1461  0.4513  0.9060
  834MOL0     H12585   2.352   5.514   4.398 -1.1001 -0.7605  0.8752
  834MOL0     H12586   2.657   5.524   4.494 -0.8556  2.0115 -0.2020
  834MOL0     H12587   2.617   5.509   4.329  2.4979  1.9903  1.8476
  834MOL0     H12588   2.499   5.129   4.497 -0.6534 -0.4333  0.1632
  834MOL0     H12589   1.937   5.393   4.526 -0.0283 -0.6456  0.8245
  834MOL0     H12590   1.707   5.479   4.493 -1.3570  1.7403 -1.9351
  835MOL0     O12591   7.697   0.268   7.605  1.1523 -0.4895 -0.2039
  835MOL0     C12592   7.769   0.223   7.689 -0.2881  0.2529  0.5263
  835MOL0     O12593   7.839   0.297   7.782  0.0162  0.8042 -0.4251
  835MOL0     C12594   7.808   0.430   7.791 -0.0006  0.0493  0.8741
  835MOL0     C12595   7.674   0.476   7.805  0.4977 -0.2002 -0.0258
  835MOL0     C12596   7.651   0.617   7.796 -0.0011 -0.2829 -1.0179
  835MOL0     C12597   7.748   0.713   7.789 -0.5649 -0.0729  0.1986
  835MOL0     O12598   7.712   0.846   7.806 -0.2600  0.7617  0.0193
  835MOL0     C12599   7.624   0.906   7.712  0.3362 -0.1355 -0.0674
  835MOL0     C12600   7.670   1.055   7.682 -0.6764  1.1313 -0.8678
  835MOL0     C12601   7.797   1.062   7.597  1.0650  0.2886 -0.8563
  835MOL0     C12602   7.832   1.211   7.589  1.2255 -0.8668 -0.0318
  835MOL0     C12603   7.984   1.232   7.596  0.0526 -0.5331 -1.5235
  835MOL0     C12604   8.068   1.227   7.471 -0.0910  0.3037 -0.7307
  835MOL0     C12605   8.043   1.351   7.385  0.5363 -0.5042 -0.5555
  835MOL0     C12606   8.114   1.341   7.248  0.0581  1.1624 -0.5739
  835MOL0     N12607   8.148   1.467   7.191  0.2522 -0.6654  0.4044
  835MOL0     C12608   8.205   1.570   7.264  0.0787 -0.3509 -0.6928
  835MOL0     C12609   8.210   1.679   7.178 -0.7892 -0.1056  0.0426
  835MOL0     C12610   8.264   1.820   7.227 -0.3685 -0.3895  0.3105
  835MOL0     C12611   8.137   1.907   7.251 -0.4235  1.5371  0.5817
  835MOL0     C12612   8.088   1.962   7.116 -0.0707  0.0894  0.7259
  835MOL0     C12613   7.977   2.065   7.138  0.5920  0.5358  0.3917
  835MOL0     O12614   7.859   2.000   7.196 -0.5195  0.4639  0.7389
  835MOL0     C12615   7.799   1.914   7.108  1.0970  0.4083  0.0877
  835MOL0     C12616   7.821   1.775   7.104  0.1826 -0.6729  0.1982
  835MOL0     C12617   7.742   1.692   7.028  1.0752 -0.3223  0.2692
  835MOL0     C12618   7.779   1.545   7.042 -0.7657  1.0468  0.6808
  835MOL0     C12619   7.650   1.737   6.932 -0.3647 -0.0530  0.1699
  835MOL0     C12620   7.583   1.655   6.829  0.5043 -0.1871  0.9854
  835MOL0     O12621   7.511   1.721   6.732  0.0375  0.3052 -0.1005
  835MOL0     C12622   7.475   1.660   6.612  0.0652  0.5327 -0.0027
  835MOL0     C12623   7.561   1.675   6.507  0.0365  0.6100  0.8005
  835MOL0     C12624   7.508   1.638   6.381 -0.4130 -0.0865  0.4767
  835MOL0     C12625   7.383   1.589   6.366 -0.1484  0.3437 -1.5447
  835MOL0     O12626   7.335   1.547   6.239 -0.8746  0.5577  0.0903
  835MOL0     C12627   7.385   1.619   6.129 -0.7533 -0.4476 -0.3616
  835MOL0     C12628   7.333   1.557   6.001 -0.9702  0.6300  0.2788
  835MOL0     C12629   7.393   1.629   5.885 -0.5834 -0.4738  0.1501
  835MOL0     C12630   7.322   1.588   5.753  0.4732 -0.2042  0.6306
  835MOL0     C12631   7.379   1.658   5.630  1.0518 -0.4018  0.9342
  835MOL0     C12632   7.295   1.643   5.507  0.0845 -0.9175  0.6990
  835MOL0     C12633   7.374   1.680   5.383 -0.4405  0.2736  0.6761
  835MOL0     C12634   7.330   1.607   5.251  0.2072 -0.3174 -0.4646
  835MOL0    Cl12635   7.202   1.698   5.182 -0.1408 -0.3009  0.3452
  835MOL0     C12636   7.297   1.571   6.479  0.1308 -0.7121 -1.1316
  835MOL0     C12637   7.350   1.606   6.605  0.0015  0.7526 -0.1633
  835MOL0     O12638   7.586   1.531   6.833  0.2201  0.0471 -0.2674
  835MOL0     C12639   7.633   1.877   6.932  0.6191  0.4202 -0.2363
  835MOL0     C12640   7.704   1.965   7.016 -0.4194  0.2354  0.2568
  835MOL0     N12641   8.160   1.638   7.049 -0.0086 -0.3941  0.1924
  835MOL0     N12642   8.113   1.517   7.062  0.0747  0.2720  0.3371
  835MOL0     C12643   7.880   0.668   7.785 -1.0711  0.1856 -0.1884
  835MOL0     C12644   7.912   0.529   7.792  0.1300  0.5358  0.0365
  835MOL0     C12645   7.784   0.074   7.695 -0.5665  0.1839 -0.0118
  835MOL0     C12646   7.906   0.016   7.726 -0.8104 -0.3559 -0.1037
  835MOL0     C12647   7.917  -0.120   7.739 -0.0189  0.0453 -0.0117
  835MOL0     C12648   7.811  -0.201   7.712 -0.5274 -0.4791 -0.1095
  835MOL0     O12649   7.836  -0.338   7.734 -0.5912 -0.0299  0.9209
  835MOL0     C12650   7.752  -0.440   7.679  0.4441  0.4608  0.2853
  835MOL0     C12651   7.789  -0.476   7.529 -0.3021 -0.3842 -0.2411
  835MOL0     C12652   7.934  -0.498   7.512 -0.7936  0.8812 -0.1919
  835MOL0     C12653   7.975  -0.481   7.366 -0.2101 -0.1820 -0.1883
  835MOL0     C12654   8.090  -0.569   7.342 -0.7893  0.4509 -0.3111
  835MOL0     C12655   8.196  -0.624   7.315  0.1863 -0.1828  0.4227
  835MOL0     C12656   7.688  -0.150   7.677  0.4389  0.1112 -0.7785
  835MOL0     C12657   7.673  -0.010   7.671 -0.8246 -0.7078  0.6735
  835MOL0     H12658   7.587   0.412   7.818 -0.6345  1.4125  0.6922
  835MOL0     H12659   7.551   0.657   7.806 -0.0725 -0.9105  1.7490
  835MOL0     H12660   7.631   0.855   7.615  1.7230  1.8144 -1.0627
  835MOL0     H12661   7.522   0.922   7.747  0.5607  2.0447 -0.2938
  835MOL0     H12662   7.577   1.106   7.654 -1.4106 -0.3142 -1.2210
  835MOL0     H12663   7.682   1.095   7.782 -3.3499 -2.5624  1.2032
  835MOL0     H12664   7.873   0.996   7.638  0.7990 -0.8282 -2.0792
  835MOL0     H12665   7.772   1.007   7.505  0.4566 -1.6405  0.4036
  835MOL0     H12666   7.783   1.259   7.504  0.5224  0.1586  0.9261
  835MOL0     H12667   7.788   1.262   7.676  0.9938 -1.8644  0.4531
  835MOL0     H12668   8.013   1.324   7.647  1.9804 -1.7865 -0.1921
  835MOL0     H12669   8.033   1.157   7.659  0.6694  1.9834  1.1863
  835MOL0     H12670   8.175   1.220   7.494 -0.6134  1.2470  2.5472
  835MOL0     H12671   8.038   1.139   7.415 -1.0940  0.9323 -1.2172
  835MOL0     H12672   7.938   1.378   7.368  0.7341  0.1588 -0.7634
  835MOL0     H12673   8.085   1.442   7.427  2.3259  0.9649 -4.9604
  835MOL0     H12674   8.054   1.283   7.176  1.2579 -0.8493 -0.0421
  835MOL0     H12675   8.207   1.285   7.264 -1.7697 -1.2491  3.1352
  835MOL0     H12676   8.247   1.587   7.363  1.9586 -3.4011 -0.8107
  835MOL0     H12677   8.321   1.818   7.320  0.5265 -1.3483 -0.2390
  835MOL0     H12678   8.326   1.855   7.144  0.1386  1.0270  1.2498
  835MOL0     H12679   8.160   1.992   7.316 -0.3998  1.4696  0.6619
  835MOL0     H12680   8.069   1.845   7.311  3.7008 -2.0908  2.0881
  835MOL0     H12681   8.067   1.874   7.053  2.8446 -0.6710  0.6905
  835MOL0     H12682   8.171   2.004   7.058 -0.5006  1.1822  0.8867
  835MOL0     H12683   7.947   2.107   7.041  0.0407 -1.2593 -0.2724
  835MOL0     H12684   8.007   2.147   7.203  1.9038 -1.4208  2.3802
  835MOL0     H12685   7.902   1.741   7.168 -1.5800 -2.6025  1.5353
  835MOL0     H12686   7.844   1.522   6.958  0.1419 -1.2414  1.9120
  835MOL0     H12687   7.845   1.525   7.127  0.3183 -1.3262 -0.6333
  835MOL0     H12688   7.699   1.472   7.028  0.9180 -0.6976 -0.2504
  835MOL0     H12689   7.655   1.729   6.520 -1.7873  3.9819  1.2935
  835MOL0     H12690   7.578   1.664   6.302 -1.7948  4.3548  0.4188
  835MOL0     H12691   7.363   1.725   6.145  3.3516  0.3457  1.3112
  835MOL0     H12692   7.493   1.617   6.116 -0.8693  0.2996 -1.5837
  835MOL0     H12693   7.366   1.452   5.994 -1.0366  0.5597  0.9962
  835MOL0     H12694   7.224   1.566   6.006 -1.3486  0.7527 -4.0308
  835MOL0     H12695   7.501   1.620   5.876 -0.6601 -1.0126 -0.2858
  835MOL0     H12696   7.388   1.737   5.901 -1.3332 -0.0599 -2.3838
  835MOL0     H12697   7.315   1.480   5.733 -5.0144  0.3383 -1.9887
  835MOL0     H12698   7.220   1.627   5.757  0.5093 -0.2187  2.5472
  835MOL0     H12699   7.486   1.635   5.616  1.5208  0.5547  2.6678
  835MOL0     H12700   7.382   1.766   5.644  4.0954 -0.5507  2.3559
  835MOL0     H12701   7.270   1.537   5.500 -0.2241 -0.9026  1.4025
  835MOL0     H12702   7.213   1.716   5.498 -0.1362 -1.4692 -3.0159
  835MOL0     H12703   7.481   1.660   5.388 -0.3900 -0.9346 -2.8928
  835MOL0     H12704   7.365   1.788   5.365  0.9012  0.3086  0.1403
  835MOL0     H12705   7.284   1.514   5.286 -1.0534  1.5721  3.5184
  835MOL0     H12706   7.410   1.598   5.177 -0.2828 -0.7301 -0.9511
  835MOL0     H12707   7.199   1.526   6.466 -0.1847 -1.3210  2.3814
  835MOL0     H12708   7.288   1.594   6.693  4.1718 -0.4284  2.9496
  835MOL0     H12709   7.556   1.917   6.867  0.3002 -0.3633 -0.3433
  835MOL0     H12710   7.690   2.073   7.013 -0.7105  0.1809 -0.3282
  835MOL0     H12711   7.960   0.741   7.771  1.0346 -1.7798  0.9421
  835MOL0     H12712   8.020   0.516   7.796 -0.0728 -0.9126  1.7797
  835MOL0     H12713   7.993   0.079   7.741 -1.2505  0.4907 -0.9120
  835MOL0     H12714   8.009  -0.171   7.769 -1.1523 -1.2354  1.5014
  835MOL0     H12715   7.768  -0.529   7.740 -0.9879  1.4866  2.2535
  835MOL0     H12716   7.647  -0.412   7.685  0.2821 -0.1544  0.4513
  835MOL0     H12717   7.761  -0.392   7.465  0.2577  0.2985  0.4020
  835MOL0     H12718   7.725  -0.556   7.488 -0.0949 -0.1397 -1.0524
  835MOL0     H12719   7.959  -0.601   7.540 -0.1397  0.3338 -2.5476
  835MOL0     H12720   7.999  -0.439   7.577  1.9009  1.2103 -2.9524
  835MOL0     H12721   8.006  -0.378   7.346  0.8912 -0.5345 -0.3673
  835MOL0     H12722   7.894  -0.498   7.295 -1.1421 -0.2854  0.8771
  835MOL0     H12723   8.286  -0.678   7.293  0.9775  1.0886  0.4480
  835MOL0     H12724   7.593  -0.195   7.649 -0.7608  1.5739  0.7048
  835MOL0     H12725   7.593   0.048   7.626  0.3993 -0.1610 -0.8970
  836MOL0     O12726   1.432  10.506   0.001  0.6925  0.2591  0.0891
  836MOL0     C12727   1.403  10.443  -0.099  0.7806  0.1486 -0.6043
  836MOL0     O12728   1.447  10.318  -0.133 -0.4581  0.2986  0.0285
  836MOL0     C12729   1.529  10.239  -0.055 -0.4925  0.0314 -0.1277
  836MOL0     C12730   1.522  10.106  -0.096  0.7297 -0.0902 -0.7424
  836MOL0     C12731   1.570  10.003  -0.018 -0.5408 -0.2406 -0.8423
  836MOL0     C12732   1.640  10.020   0.102  0.0755 -0.5651  0.0577
  836MOL0     O12733   1.678   9.908   0.181  0.0777 -0.4478  0.8001
  836MOL0     C12734   1.805   9.911   0.244 -0.8285  0.4885  0.7653
  836MOL0     C12735   1.815   9.795   0.344 -1.4531 -0.5521  0.3226
  836MOL0     C12736   1.689   9.802   0.436  0.2509  0.2627 -0.1311
  836MOL0     C12737   1.693   9.693   0.545 -1.1938  0.1897  0.2380
  836MOL0     C12738   1.586   9.594   0.520 -0.1188  0.1525  0.2860
  836MOL0     C12739   1.613   9.498   0.404  0.2924 -0.3123 -0.0654
  836MOL0     C12740   1.724   9.403   0.437 -0.6550 -0.6512 -0.3291
  836MOL0     C12741   1.714   9.293   0.334 -0.7124  1.3118 -0.2582
  836MOL0     N12742   1.784   9.172   0.377  0.9810 -0.5472 -0.1497
  836MOL0     C12743   1.831   9.074   0.295  0.0762  0.6332  0.4156
  836MOL0     C12744   1.894   8.980   0.372 -0.7412  0.5635  0.4774
  836MOL0     C12745   1.962   8.844   0.351 -0.1593 -0.4723  0.5617
  836MOL0     C12746   1.875   8.737   0.291  0.9499  0.2780  0.0957
  836MOL0     C12747   1.726   8.736   0.340  0.2582  0.3109  0.4245
  836MOL0     C12748   1.712   8.709   0.489  0.7570  0.1151 -0.1142
  836MOL0     O12749   1.767   8.577   0.510 -0.5407  0.4354  0.2675
  836MOL0     C12750   1.685   8.470   0.495  0.0348 -0.2758 -0.1509
  836MOL0     C12751   1.597   8.448   0.594 -0.7342 -1.0661 -0.2161
  836MOL0     C12752   1.517   8.335   0.602 -0.2574  1.0560 -0.1234
  836MOL0     C12753   1.428   8.313   0.719  0.2049 -0.0282 -0.2866
  836MOL0     C12754   1.532   8.237   0.503 -0.6528  0.3330 -0.2703
  836MOL0     C12755   1.475   8.099   0.503  0.5421 -0.0503 -0.2384
  836MOL0     O12756   1.429   8.056   0.625  0.4311  0.7415 -0.3374
  836MOL0     C12757   1.383   7.918   0.620  0.7011 -0.1131 -0.0563
  836MOL0     C12758   1.251   7.882   0.575 -0.4442  0.4494 -0.4336
  836MOL0     C12759   1.212   7.750   0.568 -0.7691  0.1637  0.1732
  836MOL0     C12760   1.301   7.652   0.604  1.0429  0.8046 -1.3007
  836MOL0     O12761   1.274   7.513   0.620  0.5040  0.8595  0.7805
  836MOL0     C12762   1.144   7.456   0.612 -1.5083  0.4212 -0.6097
  836MOL0     C12763   1.087   7.461   0.753 -0.3200  0.2243  1.4999
  836MOL0     C12764   1.162   7.385   0.858 -0.4758  0.2947 -0.5282
  836MOL0     C12765   1.095   7.400   0.991  0.1420  1.0355 -0.3335
  836MOL0     C12766   1.164   7.315   1.093 -0.0357 -1.0274  1.0885
  836MOL0     C12767   1.114   7.341   1.241  0.4085 -0.3114 -0.8358
  836MOL0     C12768   1.206   7.284   1.342  0.3987 -0.2200  0.2907
  836MOL0     C12769   1.344   7.344   1.353  0.6520 -0.5151  0.2516
  836MOL0    Cl12770   1.370   7.404   1.520 -0.0101  0.1598  0.5442
  836MOL0     C12771   1.425   7.684   0.654 -0.8574 -0.0238  0.4383
  836MOL0     C12772   1.464   7.814   0.661 -1.1422 -0.3845  0.3930
  836MOL0     O12773   1.483   8.025   0.411 -0.3617  0.4593  0.6044
  836MOL0     C12774   1.630   8.258   0.400 -0.9522 -0.0794  0.0251
  836MOL0     C12775   1.706   8.373   0.398 -0.3691  0.3627 -0.1719
  836MOL0     N12776   1.889   9.025   0.502  0.0842 -0.0744 -0.1232
  836MOL0     N12777   1.818   9.135   0.505 -0.1176 -0.2286 -0.0645
  836MOL0     C12778   1.657  10.158   0.138 -0.8299  0.3132 -0.4293
  836MOL0     C12779   1.602  10.259   0.066  0.1096 -0.0447  0.4524
  836MOL0     C12780   1.340  10.519  -0.207  0.1857  0.6482 -0.6530
  836MOL0     C12781   1.312  10.464  -0.334  1.4097 -0.1114 -0.7182
  836MOL0     C12782   1.252  10.538  -0.435 -0.4327  0.7682  0.2160
  836MOL0     C12783   1.196  10.665  -0.411  0.4153  0.9882  0.2874
  836MOL0     O12784   1.119  10.722  -0.509 -0.8127  0.4173 -0.3349
  836MOL0     C12785   1.102  10.860  -0.503  0.2426  0.0255 -0.1160
  836MOL0     C12786   0.951  10.882  -0.467 -0.1402 -0.4108  0.5314
  836MOL0     C12787   0.921  10.851  -0.319  0.6634 -0.8695  0.3993
  836MOL0     C12788   0.767  10.852  -0.301  0.2072  0.1370  0.2526
  836MOL0     C12789   0.728  10.831  -0.163  0.5781 -0.6120  0.1555
  836MOL0     C12790   0.678  10.834  -0.051  0.9279  0.9399  0.5335
  836MOL0     C12791   1.242  10.724  -0.291  0.0191 -1.4890  0.0527
  836MOL0     C12792   1.314  10.653  -0.197  0.5168 -1.3336  0.1862
  836MOL0     H12793   1.464  10.079  -0.183 -2.1257 -0.2468  1.0649
  836MOL0     H12794   1.562   9.897  -0.043  4.3490 -0.5296 -2.2430
  836MOL0     H12795   1.882   9.896   0.167 -0.1565  1.8375  1.1371
  836MOL0     H12796   1.833  10.009   0.283  0.2375  2.4202 -4.0788
  836MOL0     H12797   1.812   9.692   0.306 -1.0062 -1.3140  2.2247
  836MOL0     H12798   1.906   9.805   0.404 -0.0215 -0.4014 -1.7572
  836MOL0     H12799   1.683   9.901   0.483  2.3150  0.5824 -0.4365
  836MOL0     H12800   1.603   9.793   0.369 -0.6161  0.7342  0.9013
  836MOL0     H12801   1.788   9.640   0.529  0.0670  2.5162 -0.4676
  836MOL0     H12802   1.690   9.740   0.644  2.2889  2.4650 -0.5437
  836MOL0     H12803   1.573   9.535   0.611  4.9208 -0.5448  0.8132
  836MOL0     H12804   1.489   9.644   0.515 -0.0035  0.3728  0.2408
  836MOL0     H12805   1.523   9.436   0.397 -0.8182  0.9819  1.8274
  836MOL0     H12806   1.626   9.544   0.306  0.7890  0.4716  0.3594
  836MOL0     H12807   1.821   9.452   0.442 -1.5425  1.0463  2.2680
  836MOL0     H12808   1.687   9.364   0.532 -4.2710 -0.3253 -1.4421
  836MOL0     H12809   1.752   9.325   0.237 -0.8353 -0.5436 -0.9576
  836MOL0     H12810   1.611   9.259   0.323 -0.4323 -0.6441  2.2879
  836MOL0     H12811   1.818   9.062   0.187  1.7939 -1.5455  0.3787
  836MOL0     H12812   2.045   8.862   0.283 -2.2466  0.4649 -1.9291
  836MOL0     H12813   1.998   8.803   0.445  0.6954 -1.7875 -0.3032
  836MOL0     H12814   1.921   8.640   0.309  3.4474  1.4086  0.2464
  836MOL0     H12815   1.861   8.741   0.182 -2.1642 -2.0789  0.2699
  836MOL0     H12816   1.672   8.656   0.290 -0.5854  1.3008 -0.2934
  836MOL0     H12817   1.678   8.832   0.320 -1.8998 -1.4508 -4.4623
  836MOL0     H12818   1.604   8.695   0.494  1.0086 -3.2515 -1.2157
  836MOL0     H12819   1.759   8.782   0.556  0.3212 -0.4155  0.7892
  836MOL0     H12820   1.574   8.529   0.662  2.2478  1.7210 -2.2051
  836MOL0     H12821   1.487   8.262   0.796  0.0316  2.0453  1.2916
  836MOL0     H12822   1.409   8.415   0.752 -4.2493 -1.0766  1.1197
  836MOL0     H12823   1.334   8.263   0.696 -0.3351  1.9553 -2.8363
  836MOL0     H12824   1.178   7.959   0.551 -0.6262  0.5846  0.4850
  836MOL0     H12825   1.109   7.728   0.543 -1.2401  1.3597  0.9602
  836MOL0     H12826   1.070   7.508   0.551  0.1210  1.4591 -1.7756
  836MOL0     H12827   1.150   7.352   0.577  2.2321 -0.6602  2.5808
  836MOL0     H12828   1.089   7.567   0.782 -0.5215  1.5194 -2.5793
  836MOL0     H12829   0.981   7.435   0.746  0.0446 -0.8894 -0.9500
  836MOL0     H12830   1.259   7.432   0.876 -0.0515 -1.2308  1.4462
  836MOL0     H12831   1.187   7.284   0.827 -1.3812 -0.5105  1.2240
  836MOL0     H12832   1.074   7.504   1.016 -1.8983  0.6808 -0.4479
  836MOL0     H12833   1.000   7.348   0.975  0.2167 -0.3472  2.9613
  836MOL0     H12834   1.272   7.332   1.092  0.2861 -2.6236  2.6729
  836MOL0     H12835   1.148   7.211   1.065  0.1355 -0.8914  0.4671
  836MOL0     H12836   1.104   7.449   1.256  1.4623 -0.4257  0.9861
  836MOL0     H12837   1.012   7.304   1.256 -0.5456  2.4744  0.3271
  836MOL0     H12838   1.232   7.179   1.328 -0.9628 -0.3851 -1.4131
  836MOL0     H12839   1.153   7.287   1.437 -2.4956  1.5724 -1.2109
  836MOL0     H12840   1.354   7.428   1.284  1.7579 -0.2412  0.7276
  836MOL0     H12841   1.407   7.258   1.330 -1.0034 -1.7290  0.0711
  836MOL0     H12842   1.494   7.604   0.679 -0.3308  0.1750 -0.3486
  836MOL0     H12843   1.564   7.843   0.690 -0.2412 -0.0858 -2.6412
  836MOL0     H12844   1.639   8.192   0.314 -1.0672 -1.3970  0.9967
  836MOL0     H12845   1.778   8.384   0.318 -1.9010 -1.6833 -1.9552
  836MOL0     H12846   1.712  10.184   0.228 -1.4416 -0.1059  0.0744
  836MOL0     H12847   1.609  10.363   0.097 -1.6061 -0.3916  2.1568
  836MOL0     H12848   1.340  10.361  -0.354  1.1926  0.2182 -3.0697
  836MOL0     H12849   1.224  10.490  -0.529  1.2750 -2.1972  1.0975
  836MOL0     H12850   1.164  10.913  -0.430  1.8532  0.1362 -1.4952
  836MOL0     H12851   1.127  10.905  -0.600  0.2516  0.7335  0.2070
  836MOL0     H12852   0.889  10.822  -0.533  0.8986 -0.2558 -0.6303
  836MOL0     H12853   0.922  10.983  -0.497 -2.4790 -1.1171  0.2482
  836MOL0     H12854   0.965  10.936  -0.266 -1.4257  0.4240  0.1682
  836MOL0     H12855   0.967  10.765  -0.270 -0.2918 -1.0870  0.9268
  836MOL0     H12856   0.728  10.771  -0.363 -1.0034 -1.8927  3.4058
  836MOL0     H12857   0.716  10.942  -0.337 -1.6665 -0.9138  0.1177
  836MOL0     H12858   0.646  10.814   0.049  0.2480 -0.1731  0.1116
  836MOL0     H12859   1.233  10.828  -0.264  0.8626 -0.0154 -4.5272
  836MOL0     H12860   1.353  10.699  -0.107 -1.1016  0.1187  0.1948
  837MOL0     O12861   0.531   0.658   8.490 -0.3503 -0.2429  0.4888
  837MOL0     C12862   0.496   0.705   8.596  0.4694 -0.5118  0.5506
  837MOL0     O12863   0.580   0.779   8.677  0.3790 -0.1406 -0.0924
  837MOL0     C12864   0.698   0.803   8.622 -0.4064  0.1446 -0.7439
  837MOL0     C12865   0.725   0.896   8.517  1.6855 -0.0918 -0.5203
  837MOL0     C12866   0.860   0.910   8.481 -0.1922  1.2179 -0.0963
  837MOL0     C12867   0.965   0.830   8.542  0.3356  0.3072  0.3709
  837MOL0     O12868   1.092   0.859   8.507 -0.1053  0.2386 -0.2982
  837MOL0     C12869   1.200   0.782   8.559 -0.1338  0.0200  0.0586
  837MOL0     C12870   1.246   0.848   8.693 -0.3065 -0.4751 -0.3283
  837MOL0     C12871   1.341   0.965   8.663  0.2514 -0.5730 -0.1105
  837MOL0     C12872   1.421   1.004   8.787 -0.0988 -0.1163 -0.3309
  837MOL0     C12873   1.553   1.089   8.768  0.5049  1.0532 -0.1679
  837MOL0     C12874   1.591   1.152   8.901 -0.1820 -0.2623 -0.0879
  837MOL0     C12875   1.707   1.247   8.902  0.7642 -0.9323 -0.3812
  837MOL0     C12876   1.715   1.358   8.789 -0.4544  0.1805 -1.2041
  837MOL0     N12877   1.846   1.423   8.796  0.4560  0.4043 -0.7444
  837MOL0     C12878   1.937   1.429   8.696 -0.9780 -0.3966 -0.1591
  837MOL0     C12879   2.040   1.498   8.749 -0.4288  0.1992 -0.6855
  837MOL0     C12880   2.176   1.506   8.692 -0.7696 -0.5177  0.2459
  837MOL0     C12881   2.263   1.378   8.689 -0.3438 -0.0445  0.0340
  837MOL0     C12882   2.296   1.328   8.833 -0.0130 -0.5407  0.3800
  837MOL0     C12883   2.371   1.197   8.835  0.2494  0.5809  0.6483
  837MOL0     O12884   2.492   1.205   8.763 -0.9321 -0.0549  1.1200
  837MOL0     C12885   2.536   1.081   8.716  0.1795 -0.7417  0.2989
  837MOL0     C12886   2.599   0.987   8.800 -0.1987 -0.3879  0.4914
  837MOL0     C12887   2.648   0.873   8.743 -0.2478  1.1986  0.2612
  837MOL0     C12888   2.731   0.799   8.850 -0.6146  0.2963  1.0209
  837MOL0     C12889   2.632   0.830   8.604  0.6709 -0.3578  0.1733
  837MOL0     C12890   2.683   0.707   8.547 -0.1810  0.7652 -0.4811
  837MOL0     O12891   2.726   0.709   8.416 -0.1059 -0.4258  0.2384
  837MOL0     C12892   2.776   0.601   8.363  0.8135  0.6799  0.1121
  837MOL0     C12893   2.914   0.580   8.367 -0.6838 -1.1845 -0.5293
  837MOL0     C12894   2.972   0.462   8.325 -0.1205  0.8178  0.4153
  837MOL0     C12895   2.895   0.383   8.243 -0.0296 -0.2078 -0.7798
  837MOL0     O12896   2.941   0.289   8.159  0.1834 -0.7246 -0.0104
  837MOL0     C12897   3.080   0.242   8.161 -0.3967  0.3764 -0.0823
  837MOL0     C12898   3.109   0.170   8.029 -0.0514 -1.0382 -0.0132
  837MOL0     C12899   3.258   0.155   8.001 -0.2266  0.6279  0.3898
  837MOL0     C12900   3.343   0.284   7.976  0.1233  1.0476 -0.0056
  837MOL0     C12901   3.493   0.259   7.939  0.5127 -1.0487 -0.2740
  837MOL0     C12902   3.515   0.129   7.857  0.3230 -0.7124 -0.3458
  837MOL0     C12903   3.646   0.111   7.795 -0.2583  0.1570 -0.5417
  837MOL0     C12904   3.675   0.202   7.674 -0.7858 -1.1959  0.7488
  837MOL0    Cl12905   3.783   0.130   7.550 -0.0776 -0.0674 -0.2600
  837MOL0     C12906   2.756   0.411   8.229 -0.9325  0.4668 -1.0092
  837MOL0     C12907   2.691   0.519   8.290 -0.2937  0.1641  0.3328
  837MOL0     O12908   2.663   0.603   8.621 -0.5241 -0.3151  0.0518
  837MOL0     C12909   2.566   0.926   8.526 -0.3880 -0.5779 -0.7150
  837MOL0     C12910   2.523   1.049   8.580  0.1315  0.0762  0.9892
  837MOL0     N12911   2.014   1.526   8.886  0.7657 -0.4670 -0.5942
  837MOL0     N12912   1.892   1.487   8.907  0.0523  0.6598 -0.4953
  837MOL0     C12913   0.930   0.742   8.638  0.6556  0.7390 -0.5641
  837MOL0     C12914   0.802   0.728   8.683 -0.2632  0.2535 -0.3256
  837MOL0     C12915   0.353   0.692   8.627 -0.0954  0.5745 -1.3610
  837MOL0     C12916   0.249   0.680   8.540  0.4726 -0.0122 -1.0623
  837MOL0     C12917   0.118   0.679   8.564 -0.4844  0.3138  0.0883
  837MOL0     C12918   0.076   0.688   8.700  0.6389  0.5540 -0.3502
  837MOL0     O12919  -0.061   0.670   8.715  0.1243 -0.5804 -0.8398
  837MOL0     C12920  -0.099   0.629   8.846  0.1563 -0.9058  1.3492
  837MOL0     C12921  -0.257   0.607   8.865 -0.7385  0.4339 -0.0633
  837MOL0     C12922  -0.330   0.680   8.745 -1.1850 -0.6040 -0.3809
  837MOL0     C12923  -0.480   0.713   8.755 -0.8417 -0.1525  0.5849
  837MOL0     C12924  -0.553   0.598   8.806 -0.0408 -0.5820  0.0206
  837MOL0     C12925  -0.618   0.502   8.836  0.7397  0.8640  0.0634
  837MOL0     C12926   0.176   0.702   8.797  1.1410  0.9167  0.5371
  837MOL0     C12927   0.311   0.699   8.764 -0.0621 -0.8085 -0.5035
  837MOL0     H12928   0.642   0.944   8.467 -0.0528 -0.9320  1.3769
  837MOL0     H12929   0.883   0.980   8.401 -1.5776  2.2311  0.3568
  837MOL0     H12930   1.173   0.677   8.574 -0.1855 -0.3222 -2.1345
  837MOL0     H12931   1.290   0.783   8.496  0.1941 -0.6523  0.5104
  837MOL0     H12932   1.157   0.880   8.749  1.0538  1.2958  0.9486
  837MOL0     H12933   1.302   0.773   8.750 -0.4400  1.4601  2.5742
  837MOL0     H12934   1.410   0.940   8.583  2.2310 -0.9939  1.6410
  837MOL0     H12935   1.289   1.049   8.615  0.7380 -0.1918  0.0182
  837MOL0     H12936   1.353   1.068   8.844  1.7512  2.3079 -0.6628
  837MOL0     H12937   1.461   0.921   8.845  1.6660 -0.7705 -2.3449
  837MOL0     H12938   1.633   1.022   8.736 -0.0410  1.7225 -3.2960
  837MOL0     H12939   1.526   1.160   8.689 -3.9130 -1.9850 -1.8156
  837MOL0     H12940   1.501   1.204   8.935  0.0221 -0.0494  0.1262
  837MOL0     H12941   1.616   1.079   8.979 -2.6463  2.5585  3.6945
  837MOL0     H12942   1.705   1.296   9.000 -1.2960 -1.3185 -0.1707
  837MOL0     H12943   1.793   1.180   8.903  1.1949 -0.6374  4.2520
  837MOL0     H12944   1.646   1.435   8.824  1.6064  0.9729  1.4765
  837MOL0     H12945   1.691   1.330   8.686 -3.6648  0.4561 -0.6355
  837MOL0     H12946   1.924   1.389   8.596 -1.1459 -1.3884  0.2514
  837MOL0     H12947   2.168   1.527   8.585  0.0696  0.0574  0.2868
  837MOL0     H12948   2.230   1.586   8.742  0.3527 -1.0863 -0.0133
  837MOL0     H12949   2.357   1.400   8.638  1.7293 -2.8908  2.2722
  837MOL0     H12950   2.208   1.303   8.631 -1.5032  0.6338  0.2248
  837MOL0     H12951   2.206   1.323   8.895  0.1778 -0.8517  0.6388
  837MOL0     H12952   2.365   1.402   8.875 -2.4308  2.4122 -0.4618
  837MOL0     H12953   2.312   1.119   8.786  0.9263  0.8325 -0.6039
  837MOL0     H12954   2.386   1.165   8.938 -1.7933  1.4753  1.2658
  837MOL0     H12955   2.618   1.019   8.902 -1.2750 -1.8721  1.1979
  837MOL0     H12956   2.671   0.762   8.933 -0.9755  0.3664  0.7960
  837MOL0     H12957   2.778   0.707   8.812  2.5983  1.6792  1.3168
  837MOL0     H12958   2.812   0.857   8.894  1.6248 -2.5523  0.9776
  837MOL0     H12959   2.980   0.656   8.408 -2.0881 -0.2115  0.0491
  837MOL0     H12960   3.078   0.440   8.322 -0.5512 -2.0163  2.5067
  837MOL0     H12961   3.146   0.328   8.170 -0.8392  0.6242  0.8903
  837MOL0     H12962   3.109   0.185   8.250 -0.4161 -1.5589 -1.2448
  837MOL0     H12963   3.058   0.074   8.019 -0.6451 -0.6080 -1.4235
  837MOL0     H12964   3.074   0.231   7.945  1.4679 -0.5659 -0.3321
  837MOL0     H12965   3.271   0.091   7.914  0.3890 -2.7547  2.7903
  837MOL0     H12966   3.317   0.106   8.079 -3.0611 -2.1291  0.9866
  837MOL0     H12967   3.308   0.331   7.884  0.4242  3.1836  0.9057
  837MOL0     H12968   3.335   0.348   8.064  1.5681  1.9099 -0.4778
  837MOL0     H12969   3.546   0.254   8.035  1.7146  0.0099 -0.8702
  837MOL0     H12970   3.535   0.341   7.881 -0.8003 -0.4388 -0.3986
  837MOL0     H12971   3.512   0.053   7.935  1.1612 -0.3330  0.0724
  837MOL0     H12972   3.439   0.105   7.782  1.9571  0.7452 -2.6058
  837MOL0     H12973   3.652   0.006   7.767  2.2844 -0.2499  1.2364
  837MOL0     H12974   3.719   0.129   7.874 -3.8342 -1.1440  3.4395
  837MOL0     H12975   3.711   0.296   7.716  0.2503 -0.7940 -0.9628
  837MOL0     H12976   3.580   0.229   7.627 -1.2044  1.3525  2.8516
  837MOL0     H12977   2.697   0.342   8.171  0.2367  0.3881 -2.1489
  837MOL0     H12978   2.585   0.546   8.288 -0.2930  0.4929  2.3331
  837MOL0     H12979   2.573   0.915   8.418  0.9525  0.3745 -0.7518
  837MOL0     H12980   2.462   1.107   8.511 -2.2796 -1.0043  2.0793
  837MOL0     H12981   0.991   0.667   8.686  0.0961  0.5230 -0.1775
  837MOL0     H12982   0.781   0.655   8.761 -1.3149  1.2430  0.3662
  837MOL0     H12983   0.273   0.684   8.435 -0.5972  2.1506 -1.2765
  837MOL0     H12984   0.040   0.674   8.489 -0.4902  0.9505  0.0412
  837MOL0     H12985  -0.057   0.529   8.859  3.1069 -0.5623 -3.1305
  837MOL0     H12986  -0.057   0.693   8.924  0.2907  0.2179  0.3916
  837MOL0     H12987  -0.298   0.655   8.955 -1.3019  3.5418 -1.8153
  837MOL0     H12988  -0.272   0.499   8.858 -0.2737  0.4758 -2.5362
  837MOL0     H12989  -0.306   0.630   8.650  2.4694 -2.8213  1.4619
  837MOL0     H12990  -0.272   0.771   8.725  0.4467 -1.7778 -1.3145
  837MOL0     H12991  -0.521   0.738   8.657  3.5834  0.5002 -1.3402
  837MOL0     H12992  -0.488   0.797   8.825 -1.2581 -2.1093  3.0295
  837MOL0     H12993  -0.682   0.430   8.883 -2.0456  3.6383  0.8611
  837MOL0     H12994   0.151   0.715   8.902 -1.0537 -2.2866  0.5395
  837MOL0     H12995   0.385   0.709   8.842  0.5685 -2.5058 -0.8364
  838MOL0     O12996   6.870   8.136   2.074 -0.1746 -0.0959  0.0280
  838MOL0     C12997   6.930   8.032   2.098 -0.1882 -0.3083  1.1449
  838MOL0     O12998   6.978   7.947   2.000  0.4693  0.6982  0.4796
  838MOL0     C12999   6.942   7.967   1.868 -0.8128  0.2720  0.7569
  838MOL0     C13000   6.812   7.953   1.826 -0.4745 -0.1492 -0.4981
  838MOL0     C13001   6.777   7.952   1.685 -0.4611  0.7145  0.1201
  838MOL0     C13002   6.871   7.978   1.596 -1.4941 -0.8627  0.2376
  838MOL0     O13003   6.825   7.986   1.465 -0.7406 -0.1846 -0.1107
  838MOL0     C13004   6.882   8.087   1.382  0.3922 -0.0490  0.4700
  838MOL0     C13005   6.820   8.233   1.404 -0.3961 -0.3843  0.2099
  838MOL0     C13006   6.910   8.350   1.367  0.8145  0.2803  0.1190
  838MOL0     C13007   6.810   8.465   1.330 -0.3803 -0.8107 -0.2974
  838MOL0     C13008   6.871   8.609   1.299  0.1186 -0.5064 -0.5013
  838MOL0     C13009   6.976   8.611   1.190  0.4396  0.0016  0.0728
  838MOL0     C13010   6.931   8.590   1.048  0.8441  0.3553  0.3008
  838MOL0     C13011   7.043   8.618   0.952 -0.3540  0.6077  0.7589
  838MOL0     N13012   6.986   8.624   0.819 -1.0322  0.6243  0.2393
  838MOL0     C13013   6.930   8.738   0.772 -0.8727 -0.1302 -0.1221
  838MOL0     C13014   6.895   8.706   0.643  0.0489  0.1017 -0.4105
  838MOL0     C13015   6.812   8.778   0.542  0.5441  1.1008  0.4740
  838MOL0     C13016   6.668   8.801   0.586 -0.1398 -1.2588  1.2672
  838MOL0     C13017   6.590   8.677   0.554  0.5923  1.4337 -0.1120
  838MOL0     C13018   6.441   8.674   0.596  0.5129  0.1920 -0.6194
  838MOL0     O13019   6.383   8.543   0.612 -0.7349  0.4198  0.3378
  838MOL0     C13020   6.367   8.471   0.498  0.2559  0.0838  0.1645
  838MOL0     C13021   6.339   8.335   0.521 -0.1988 -0.5628  0.0003
  838MOL0     C13022   6.306   8.248   0.420  0.4586 -0.0634 -0.1977
  838MOL0     C13023   6.293   8.100   0.457 -0.4734  0.3057  0.8184
  838MOL0     C13024   6.278   8.299   0.293  0.0096 -0.7671  0.2177
  838MOL0     C13025   6.227   8.213   0.177  0.3924  0.0852 -0.4663
  838MOL0     O13026   6.161   8.090   0.199 -0.0131 -0.8625 -0.2038
  838MOL0     C13027   6.145   8.008   0.098 -0.6431 -0.3022  0.1522
  838MOL0     C13028   6.027   7.992   0.023  0.2142 -0.8715  0.9355
  838MOL0     C13029   6.010   7.883  -0.058  0.6146 -0.5165  0.1866
  838MOL0     C13030   6.109   7.785  -0.070 -0.0401 -0.2264 -0.5705
  838MOL0     O13031   6.080   7.672  -0.137  0.5473 -0.5442 -0.2598
  838MOL0     C13032   6.172   7.578  -0.191 -0.4160 -0.1437 -0.5218
  838MOL0     C13033   6.113   7.523  -0.312  0.3500  0.0614 -0.3007
  838MOL0     C13034   6.209   7.425  -0.378  0.1840  0.0215 -0.3647
  838MOL0     C13035   6.149   7.360  -0.491 -0.7458 -0.5068 -0.1437
  838MOL0     C13036   6.220   7.256  -0.570 -0.0334  0.0450  1.4432
  838MOL0     C13037   6.376   7.239  -0.581  0.9322  0.5955  0.1282
  838MOL0     C13038   6.424   7.211  -0.721 -0.1288 -0.0550  0.6525
  838MOL0     C13039   6.578   7.215  -0.745 -0.4465  0.2986  1.0150
  838MOL0    Cl13040   6.673   7.127  -0.628  0.0161  0.1800  0.0153
  838MOL0     C13041   6.233   7.805   0.000  0.3577 -0.1508  0.6461
  838MOL0     C13042   6.248   7.909   0.083  0.5723 -0.0044  0.2768
  838MOL0     O13043   6.240   8.257   0.063 -0.2577 -0.9783 -0.9398
  838MOL0     C13044   6.279   8.442   0.274 -0.2465 -1.2969  0.2090
  838MOL0     C13045   6.334   8.530   0.373  0.2306 -0.6933 -0.3529
  838MOL0     N13046   6.930   8.570   0.619  0.6870 -1.1914 -0.2438
  838MOL0     N13047   6.972   8.520   0.731 -0.1853 -0.0729  0.4158
  838MOL0     C13048   7.009   7.988   1.627  0.7910  1.3284  0.0161
  838MOL0     C13049   7.042   7.978   1.758 -0.8866 -0.5103 -0.5890
  838MOL0     C13050   6.907   7.971   2.225  0.6258  0.9759 -0.3724
  838MOL0     C13051   6.901   8.040   2.354  0.4991 -0.0666 -0.0341
  838MOL0     C13052   6.881   7.976   2.473 -1.1473  0.5404  0.7739
  838MOL0     C13053   6.848   7.835   2.479 -0.1391  0.2773  0.8158
  838MOL0     O13054   6.823   7.761   2.591 -0.5700  0.3353 -0.5988
  838MOL0     C13055   6.847   7.825   2.723 -0.3462 -1.0076 -0.4726
  838MOL0     C13056   6.729   7.802   2.803 -0.6037  1.1869  0.6407
  838MOL0     C13057   6.742   7.844   2.947  0.3538  0.2743  0.2837
  838MOL0     C13058   6.734   7.994   2.949  0.1733 -0.6851 -0.0064
  838MOL0     C13059   6.784   8.064   3.066  0.2108 -0.7418  0.4315
  838MOL0     C13060   6.808   8.095   3.181  0.1882 -0.3756 -0.7215
  838MOL0     C13061   6.852   7.766   2.362 -0.0454  0.7947  0.5670
  838MOL0     C13062   6.876   7.831   2.234 -0.9880 -0.3909 -0.2191
  838MOL0     H13063   6.737   7.945   1.905  2.0136 -4.1760  1.8005
  838MOL0     H13064   6.679   7.932   1.644  0.4241 -1.7078 -1.0407
  838MOL0     H13065   6.990   8.095   1.397  0.1676 -0.5215  2.6409
  838MOL0     H13066   6.851   8.056   1.282 -2.1720 -0.9204  1.4583
  838MOL0     H13067   6.729   8.239   1.343 -0.6385 -1.1391  0.4932
  838MOL0     H13068   6.800   8.238   1.511 -0.8823 -1.1846  0.1676
  838MOL0     H13069   6.974   8.375   1.452  0.8939  0.4144  0.0211
  838MOL0     H13070   6.975   8.310   1.288  0.2682 -2.3727  0.9026
  838MOL0     H13071   6.742   8.438   1.249  0.4125 -0.5322 -1.0698
  838MOL0     H13072   6.745   8.480   1.417 -1.6663  2.0010 -1.6076
  838MOL0     H13073   6.796   8.666   1.244  0.5250 -1.1387 -1.7586
  838MOL0     H13074   6.904   8.670   1.383  0.6152 -0.5562 -0.6562
  838MOL0     H13075   7.021   8.710   1.202 -1.7729  0.7670  3.6335
  838MOL0     H13076   7.049   8.530   1.204  1.3337  0.7886  0.0891
  838MOL0     H13077   6.906   8.484   1.043  1.6086  0.1893 -0.3078
  838MOL0     H13078   6.841   8.651   1.037 -0.9200 -2.4084 -1.9438
  838MOL0     H13079   7.115   8.536   0.965 -1.0157  0.3096  2.7592
  838MOL0     H13080   7.088   8.713   0.981  0.9010  0.7719 -1.5186
  838MOL0     H13081   6.920   8.839   0.812 -0.2611 -1.0848  2.6077
  838MOL0     H13082   6.855   8.874   0.512  0.2862  0.6011 -1.6471
  838MOL0     H13083   6.820   8.731   0.444 -0.2009 -0.0402  0.9298
  838MOL0     H13084   6.624   8.897   0.557  0.4249 -0.6373  2.4020
  838MOL0     H13085   6.685   8.805   0.694  0.9725  2.2760  1.0737
  838MOL0     H13086   6.644   8.586   0.578 -1.9244 -1.6730 -4.5928
  838MOL0     H13087   6.576   8.670   0.445 -0.1864 -0.3594  0.0655
  838MOL0     H13088   6.381   8.742   0.535  0.3295  0.4388 -0.1700
  838MOL0     H13089   6.451   8.720   0.695  0.4066 -0.2508 -0.3949
  838MOL0     H13090   6.353   8.306   0.625  0.8685  0.6147  0.2135
  838MOL0     H13091   6.356   8.068   0.540  0.2734 -1.1197 -0.2438
  838MOL0     H13092   6.193   8.072   0.494 -1.3068  0.8290 -0.9223
  838MOL0     H13093   6.313   8.037   0.370 -2.8377  2.9102 -1.8230
  838MOL0     H13094   5.942   8.059   0.010  1.6918  1.0480  0.8448
  838MOL0     H13095   5.925   7.883  -0.127  1.6217 -1.4583 -1.1192
  838MOL0     H13096   6.269   7.623  -0.216  0.1185  1.2394  3.3586
  838MOL0     H13097   6.192   7.502  -0.115  0.3665  0.3355 -0.2346
  838MOL0     H13098   6.024   7.465  -0.291 -1.8378  2.2867 -2.6930
  838MOL0     H13099   6.084   7.598  -0.386 -1.1931 -1.0847 -0.8856
  838MOL0     H13100   6.254   7.354  -0.308 -0.6444  0.4511  0.6310
  838MOL0     H13101   6.290   7.486  -0.420 -1.9902  1.1716 -3.1362
  838MOL0     H13102   6.054   7.309  -0.469 -0.0243 -1.5506  0.6588
  838MOL0     H13103   6.113   7.442  -0.554 -1.4192 -2.1321 -1.9602
  838MOL0     H13104   6.195   7.282  -0.674  0.1876 -1.8583  0.8873
  838MOL0     H13105   6.175   7.159  -0.551 -2.3618  1.0188  1.2007
  838MOL0     H13106   6.420   7.332  -0.543 -2.4879  1.7074  1.7941
  838MOL0     H13107   6.400   7.161  -0.508 -1.5814 -0.5892 -0.2373
  838MOL0     H13108   6.375   7.277  -0.794  1.3225  0.6081  0.2425
  838MOL0     H13109   6.396   7.110  -0.751  1.2952 -0.7217  1.4809
  838MOL0     H13110   6.608   7.320  -0.742 -1.8373  0.7062  2.2615
  838MOL0     H13111   6.597   7.172  -0.843 -2.3254  3.1734 -0.7757
  838MOL0     H13112   6.310   7.728  -0.008  1.0972  0.7429 -1.3095
  838MOL0     H13113   6.340   7.914   0.142  1.1358  2.2385 -0.6763
  838MOL0     H13114   6.237   8.479   0.182  2.5892  0.5438 -0.4652
  838MOL0     H13115   6.342   8.632   0.336 -1.5802 -1.1224 -2.1164
  838MOL0     H13116   7.074   8.002   1.541  1.5218 -0.6621  0.2001
  838MOL0     H13117   7.143   7.976   1.796 -1.5769 -0.2354  1.4134
  838MOL0     H13118   6.911   8.148   2.365  1.2590 -0.1259 -0.0907
  838MOL0     H13119   6.879   8.050   2.553  1.8398  1.1326  0.4243
  838MOL0     H13120   6.936   7.776   2.765 -0.3334  1.3275  2.6234
  838MOL0     H13121   6.883   7.928   2.709  1.5025 -1.6177 -0.4969
  838MOL0     H13122   6.695   7.697   2.803  0.2803  0.8215 -2.4886
  838MOL0     H13123   6.642   7.846   2.754 -0.9260  0.4715  0.5435
  838MOL0     H13124   6.824   7.807   3.009  0.0987  1.3631  1.3119
  838MOL0     H13125   6.656   7.808   3.004  0.4187 -3.1986 -1.5597
  838MOL0     H13126   6.631   8.023   2.926  0.6553  3.4523  2.0911
  838MOL0     H13127   6.789   8.032   2.862 -4.0390  0.4377 -2.4327
  838MOL0     H13128   6.844   8.133   3.275 -2.9236  0.0607  0.3971
  838MOL0     H13129   6.858   7.658   2.361  0.2886  0.8123  0.5746
  838MOL0     H13130   6.895   7.765   2.150  0.8501  3.2525 -2.9632
  839MOL0     O13131   5.286   3.664   7.270 -0.1948  0.5080 -0.6268
  839MOL0     C13132   5.354   3.634   7.176 -0.3948 -0.6794 -0.0976
  839MOL0     O13133   5.311   3.620   7.046 -0.1943 -0.2532  0.0178
  839MOL0     C13134   5.176   3.627   7.024  1.1523 -0.0748  0.1056
  839MOL0     C13135   5.111   3.743   6.971 -0.3616 -0.7765  0.1811
  839MOL0     C13136   4.970   3.740   6.956 -0.2810  0.1204 -0.0398
  839MOL0     C13137   4.901   3.624   6.964 -0.1826  0.0078 -0.3685
  839MOL0     O13138   4.774   3.595   6.925  0.9551 -0.2366 -0.2469
  839MOL0     C13139   4.692   3.710   6.888  0.3066  0.2813  0.6947
  839MOL0     C13140   4.691   3.730   6.736  0.4338 -0.2561  0.7429
  839MOL0     C13141   4.598   3.838   6.688 -0.0447 -0.4856  0.0527
  839MOL0     C13142   4.655   3.978   6.700 -0.0593 -0.5807  0.3356
  839MOL0     C13143   4.551   4.094   6.674 -0.1146 -1.2980  0.0250
  839MOL0     C13144   4.586   4.216   6.761  0.8769  0.1114  0.1000
  839MOL0     C13145   4.491   4.331   6.754 -0.7781  0.5658  0.1250
  839MOL0     C13146   4.480   4.413   6.624  0.2940  0.7302 -0.0150
  839MOL0     N13147   4.360   4.508   6.631  0.2623  0.9737  0.9819
  839MOL0     C13148   4.350   4.620   6.706  0.6652 -0.4345 -1.1999
  839MOL0     C13149   4.228   4.671   6.669  0.3275  0.4832 -0.2828
  839MOL0     C13150   4.143   4.779   6.734 -0.0211  0.1771 -0.2604
  839MOL0     C13151   4.176   4.916   6.665  0.1098 -0.0371 -0.4648
  839MOL0     C13152   4.145   4.924   6.514  0.0246  0.1536  0.2708
  839MOL0     C13153   4.204   5.047   6.440  0.1934 -0.2832 -0.3246
  839MOL0     O13154   4.124   5.154   6.497  0.9653 -0.2534  0.5127
  839MOL0     C13155   4.180   5.261   6.560 -0.0396  0.1854 -0.9380
  839MOL0     C13156   4.300   5.321   6.518 -0.7506  0.9195 -0.3854
  839MOL0     C13157   4.354   5.434   6.586 -0.3844 -0.5569 -0.5053
  839MOL0     C13158   4.486   5.489   6.528  0.9074  0.3421  0.1850
  839MOL0     C13159   4.287   5.485   6.706  0.1023 -0.8725  0.0096
  839MOL0     C13160   4.336   5.600   6.780 -0.9093  0.1359  0.6705
  839MOL0     O13161   4.305   5.590   6.914 -0.5557 -0.2284  1.3149
  839MOL0     C13162   4.350   5.693   7.001  0.9210  0.6650  0.0506
  839MOL0     C13163   4.456   5.779   6.996  0.0666 -0.9478 -0.3099
  839MOL0     C13164   4.475   5.877   7.094  0.9913 -0.3770 -0.5601
  839MOL0     C13165   4.380   5.897   7.192  0.3540 -0.9188  0.2984
  839MOL0     O13166   4.374   6.002   7.278  0.1130 -0.0694  0.1494
  839MOL0     C13167   4.475   6.101   7.286  0.1131  0.1989  0.8549
  839MOL0     C13168   4.425   6.229   7.346 -0.1781 -0.6126  0.9206
  839MOL0     C13169   4.526   6.352   7.355  0.3767 -0.0029  0.6333
  839MOL0     C13170   4.560   6.412   7.220 -0.5448 -0.3101  0.2922
  839MOL0     C13171   4.452   6.478   7.134  0.3456  0.2773  0.1165
  839MOL0     C13172   4.514   6.592   7.038  0.5686  0.3210  0.0853
  839MOL0     C13173   4.400   6.691   7.018  0.0059 -0.5293  0.3436
  839MOL0     C13174   4.428   6.789   6.903 -1.2404  0.0791  0.2763
  839MOL0    Cl13175   4.292   6.892   6.869  0.1376 -0.5028  0.1869
  839MOL0     C13176   4.278   5.802   7.206 -0.7289 -0.7598 -0.8833
  839MOL0     C13177   4.262   5.702   7.115 -0.6493  0.3202  0.4259
  839MOL0     O13178   4.409   5.693   6.732  0.5760 -0.6245  1.0719
  839MOL0     C13179   4.176   5.411   6.752  1.2484 -0.4695  0.0157
  839MOL0     C13180   4.124   5.304   6.677 -0.0685 -0.7440 -0.5363
  839MOL0     N13181   4.167   4.584   6.581 -0.1779  0.1694 -0.3957
  839MOL0     N13182   4.245   4.482   6.557  0.8688 -0.6130  0.5707
  839MOL0     C13183   4.973   3.502   6.998 -0.9342 -1.0110  0.7714
  839MOL0     C13184   5.108   3.508   7.036  0.2878  0.6148  0.2832
  839MOL0     C13185   5.497   3.609   7.193  0.1157  0.2244 -0.2568
  839MOL0     C13186   5.546   3.618   7.323 -0.8123 -0.7526  0.6684
  839MOL0     C13187   5.683   3.608   7.349  0.4588 -0.0471 -0.0169
  839MOL0     C13188   5.781   3.591   7.245  0.2509 -0.0617  0.1743
  839MOL0     O13189   5.911   3.572   7.277 -0.0177  0.0429 -0.7475
  839MOL0     C13190   6.008   3.576   7.168  0.1963  0.1617  0.5129
  839MOL0     C13191   6.147   3.554   7.236 -1.1865 -0.7624 -0.8296
  839MOL0     C13192   6.250   3.496   7.129 -1.7409 -0.2934 -0.1423
  839MOL0     C13193   6.395   3.524   7.156  0.3760 -0.4192 -0.7447
  839MOL0     C13194   6.491   3.437   7.086 -0.3269  0.0734 -0.4667
  839MOL0     C13195   6.584   3.368   7.064 -0.2788  0.8880  0.2287
  839MOL0     C13196   5.728   3.586   7.116 -0.8845  0.3435  0.4575
  839MOL0     C13197   5.590   3.584   7.095 -0.0615  1.0863 -0.3109
  839MOL0     H13198   5.168   3.834   6.953 -0.9874 -0.5501 -0.7358
  839MOL0     H13199   4.925   3.834   6.926 -1.1798 -0.2676  0.0810
  839MOL0     H13200   4.587   3.695   6.918 -0.1255 -0.3403 -1.0019
  839MOL0     H13201   4.721   3.802   6.938  0.6658  1.0823 -0.9272
  839MOL0     H13202   4.794   3.750   6.706  0.4275  1.8699  1.9026
  839MOL0     H13203   4.667   3.636   6.685 -0.5025 -0.5423  1.6577
  839MOL0     H13204   4.580   3.814   6.583 -0.4599 -0.4457  0.1128
  839MOL0     H13205   4.504   3.830   6.743 -0.1808 -2.6641 -0.4323
  839MOL0     H13206   4.695   3.991   6.801  1.0505  2.9660 -0.4238
  839MOL0     H13207   4.743   3.991   6.636  0.8857 -1.6849  1.3608
  839MOL0     H13208   4.536   4.131   6.572 -2.3222  1.3599  1.1799
  839MOL0     H13209   4.451   4.059   6.698  0.3476 -2.1467  0.7689
  839MOL0     H13210   4.603   4.194   6.867 -0.2746 -0.2297  0.2261
  839MOL0     H13211   4.687   4.249   6.735  0.7754 -1.5336 -2.8041
  839MOL0     H13212   4.391   4.290   6.770 -1.4713  2.1091 -0.0742
  839MOL0     H13213   4.507   4.403   6.835 -1.6873  2.1993 -1.0868
  839MOL0     H13214   4.455   4.340   6.546  1.0859 -1.5881  1.7944
  839MOL0     H13215   4.572   4.467   6.600  0.6692  0.1944  0.2158
  839MOL0     H13216   4.418   4.660   6.781  0.6597 -1.3274 -0.7029
  839MOL0     H13217   4.036   4.757   6.722 -0.0485  0.0867  0.1188
  839MOL0     H13218   4.157   4.792   6.842 -3.0002 -1.0448  0.3961
  839MOL0     H13219   4.280   4.937   6.695  0.3602 -2.2353  0.4528
  839MOL0     H13220   4.127   4.999   6.716  1.2930  1.3667 -1.5253
  839MOL0     H13221   4.039   4.902   6.500  0.4346 -0.7362 -1.9279
  839MOL0     H13222   4.197   4.840   6.467 -2.2637 -0.8791 -0.5679
  839MOL0     H13223   4.190   5.036   6.332 -1.6271  2.9737 -0.5297
  839MOL0     H13224   4.311   5.058   6.460  0.6068 -1.9395 -1.3836
  839MOL0     H13225   4.346   5.279   6.429 -4.0052  0.9765 -2.2676
  839MOL0     H13226   4.571   5.473   6.596  0.3156 -0.3140  0.7903
  839MOL0     H13227   4.503   5.447   6.429  2.0917  1.4830 -0.1227
  839MOL0     H13228   4.476   5.598   6.530 -0.0474  0.2714 -0.3677
  839MOL0     H13229   4.547   5.751   6.942  1.7539  0.9284  1.3777
  839MOL0     H13230   4.557   5.947   7.081 -0.6110  1.4236 -1.5661
  839MOL0     H13231   4.557   6.069   7.352  0.7916  1.8686  0.8887
  839MOL0     H13232   4.513   6.124   7.186 -1.0054 -3.5021 -0.5564
  839MOL0     H13233   4.347   6.258   7.275  1.1881 -2.9479 -1.7689
  839MOL0     H13234   4.396   6.202   7.448  0.8378  1.6702  1.8640
  839MOL0     H13235   4.615   6.329   7.414  1.2939 -3.6609 -1.8188
  839MOL0     H13236   4.476   6.436   7.403  1.5052  0.9996  0.0883
  839MOL0     H13237   4.638   6.488   7.230  0.4004 -1.3546  1.2055
  839MOL0     H13238   4.606   6.331   7.163 -1.9256 -1.7160  1.1115
  839MOL0     H13239   4.374   6.524   7.194  0.0317  0.7083 -0.6043
  839MOL0     H13240   4.396   6.411   7.068 -1.2025  2.5681 -1.0173
  839MOL0     H13241   4.592   6.645   7.095  0.9366  1.1843 -1.1646
  839MOL0     H13242   4.558   6.557   6.944  0.1452 -0.1874  0.0712
  839MOL0     H13243   4.374   6.742   7.111 -3.1863 -2.6283  0.7582
  839MOL0     H13244   4.314   6.649   6.966 -0.3535  1.3598 -0.6673
  839MOL0     H13245   4.445   6.742   6.805 -1.4991  1.5373 -0.5060
  839MOL0     H13246   4.509   6.858   6.928  0.4557 -0.3575 -3.3158
  839MOL0     H13247   4.202   5.802   7.283  2.1890 -1.2481  2.1795
  839MOL0     H13248   4.180   5.631   7.122 -0.3144  0.0065  1.4528
  839MOL0     H13249   4.126   5.444   6.842 -0.6128  0.8946 -1.4320
  839MOL0     H13250   4.035   5.251   6.708 -1.9850  0.9921 -2.7055
  839MOL0     H13251   4.912   3.412   6.999 -1.8359 -0.4108  1.2913
  839MOL0     H13252   5.163   3.420   7.071  0.7516  0.8556  0.1703
  839MOL0     H13253   5.485   3.630   7.412  0.7128  0.3295  1.6202
  839MOL0     H13254   5.718   3.614   7.451 -3.2795  2.3716  1.3217
  839MOL0     H13255   5.990   3.497   7.094  2.1171  0.1796 -0.0128
  839MOL0     H13256   6.014   3.672   7.116  1.4601 -1.7824 -3.3682
  839MOL0     H13257   6.150   3.483   7.320  2.5335  0.5254  0.3275
  839MOL0     H13258   6.182   3.644   7.287  0.2557 -2.2115  0.8596
  839MOL0     H13259   6.227   3.536   7.030 -1.8428  0.4766  0.1820
  839MOL0     H13260   6.235   3.387   7.125 -3.2136 -0.0761 -2.1084
  839MOL0     H13261   6.415   3.509   7.262  0.7045 -1.3001 -0.9241
  839MOL0     H13262   6.415   3.630   7.136 -1.6534  1.0037  3.5555
  839MOL0     H13263   6.662   3.295   7.056 -1.1130  0.0438 -0.4516
  839MOL0     H13264   5.795   3.576   7.030 -0.8623 -0.9246  0.6060
  839MOL0     H13265   5.565   3.582   6.989 -1.1326 -1.5236 -0.0813
  840MOL0     O13266  11.167   7.785   1.294  0.3816 -0.6021 -0.2771
  840MOL0     C13267  11.242   7.854   1.229 -0.3916  0.2893 -0.1358
  840MOL0     O13268  11.220   7.974   1.177 -0.3990 -0.5369 -0.9378
  840MOL0     C13269  11.101   8.031   1.196 -0.1897  0.4877  0.4158
  840MOL0     C13270  11.045   8.089   1.083  0.0414 -0.8896  0.7167
  840MOL0     C13271  10.946   8.184   1.087 -0.4558 -0.6656 -1.1516
  840MOL0     C13272  10.891   8.215   1.212  0.1604  0.0905  0.2963
  840MOL0     O13273  10.790   8.291   1.235  0.5308 -0.7531 -0.1419
  840MOL0     C13274  10.739   8.397   1.145 -0.5905  0.2366  0.2976
  840MOL0     C13275  10.817   8.528   1.169 -0.8883  0.3568 -0.5019
  840MOL0     C13276  10.796   8.580   1.314 -0.1238  0.6704 -0.3927
  840MOL0     C13277  10.889   8.698   1.356 -0.5770  0.1909  0.0746
  840MOL0     C13278  10.862   8.823   1.256 -0.1521  1.2195 -0.0760
  840MOL0     C13279  10.920   8.946   1.318  0.8372  0.2607  0.1301
  840MOL0     C13280  10.907   9.059   1.215 -0.4309  0.2072  0.4052
  840MOL0     C13281  10.955   9.195   1.274 -0.0383  0.1206 -0.3464
  840MOL0     N13282  10.886   9.300   1.201 -0.5522  0.2087  0.0932
  840MOL0     C13283  10.885   9.334   1.068  0.6729 -0.2349  0.3088
  840MOL0     C13284  10.779   9.422   1.042  1.0567  0.1358  0.6121
  840MOL0     C13285  10.719   9.475   0.907 -0.2129 -0.0991  0.0885
  840MOL0     C13286  10.683   9.632   0.923  0.4422  1.1687  1.0692
  840MOL0     C13287  10.808   9.716   0.951 -0.0442 -0.6630 -0.5678
  840MOL0     C13288  10.760   9.849   1.027 -0.5050  0.2110 -0.6056
  840MOL0     O13289  10.864   9.947   0.992 -0.5564 -0.2036  0.6826
  840MOL0     C13290  10.875   9.999   0.867 -0.3572  0.6054  0.0517
  840MOL0     C13291  10.788   9.980   0.755  0.1812  0.4448  0.3768
  840MOL0     C13292  10.810  10.053   0.634  0.1538  0.4251 -0.0643
  840MOL0     C13293  10.724  10.011   0.524  0.1629  0.0414  0.5240
  840MOL0     C13294  10.902  10.154   0.628  0.1815 -0.4341  0.0090
  840MOL0     C13295  10.898  10.240   0.514 -0.7575 -0.0536  0.1363
  840MOL0     O13296  11.006  10.255   0.422  1.2177 -0.3054  0.0790
  840MOL0     C13297  10.986  10.307   0.299 -0.1082 -0.1586  0.4012
  840MOL0     C13298  11.013  10.449   0.283 -0.3544  0.5221  0.4795
  840MOL0     C13299  11.024  10.498   0.151  0.7968  0.2360  0.1638
  840MOL0     C13300  11.004  10.410   0.039  0.1507 -0.3008  0.4240
  840MOL0     O13301  10.998  10.459  -0.089  0.3405  0.3944  1.1668
  840MOL0     C13302  10.918  10.577  -0.116  0.2945 -0.6527 -0.9755
  840MOL0     C13303  10.926  10.608  -0.268  0.3811  1.0006  0.3916
  840MOL0     C13304  10.804  10.536  -0.341 -0.1319 -0.2742  0.6634
  840MOL0     C13305  10.680  10.631  -0.321 -0.2027 -0.0015 -0.4263
  840MOL0     C13306  10.562  10.620  -0.421  0.3010  0.3488  0.3623
  840MOL0     C13307  10.585  10.707  -0.550 -0.0744  0.4005 -0.1511
  840MOL0     C13308  10.457  10.697  -0.648 -0.5597  0.6669  0.3819
  840MOL0     C13309  10.408  10.554  -0.688  0.3603 -0.0595 -0.1834
  840MOL0    Cl13310  10.246  10.574  -0.775 -0.1709 -0.0265 -0.0833
  840MOL0     C13311  10.976  10.280   0.061  0.3991 -0.3640  0.4851
  840MOL0     C13312  10.971  10.222   0.190 -0.7273  0.5309 -0.2531
  840MOL0     O13313  10.787  10.284   0.501 -0.3252  1.3325  0.3506
  840MOL0     C13314  10.994  10.166   0.736 -0.0657  0.5128 -1.7254
  840MOL0     C13315  10.983  10.084   0.852  0.4008  0.3056 -0.0675
  840MOL0     N13316  10.727   9.440   1.167 -0.7107 -0.1507 -0.2114
  840MOL0     N13317  10.786   9.367   1.259  0.1958  0.4958  0.4707
  840MOL0     C13318  10.941   8.150   1.331  0.8125 -0.2819  0.2209
  840MOL0     C13319  11.045   8.058   1.317 -0.1874 -0.4673  0.8549
  840MOL0     C13320  11.370   7.792   1.185 -0.1318 -0.4857  0.7478
  840MOL0     C13321  11.470   7.879   1.159 -0.8840 -0.1741  0.3961
  840MOL0     C13322  11.595   7.837   1.100 -0.7962 -0.0689  0.2622
  840MOL0     C13323  11.608   7.699   1.077 -0.0952  0.0290 -1.0573
  840MOL0     O13324  11.713   7.663   1.002 -0.4708 -0.0240  0.0170
  840MOL0     C13325  11.738   7.527   0.954  0.6314 -0.5406 -0.6099
  840MOL0     C13326  11.655   7.471   0.842  0.3586  0.9611 -0.4860
  840MOL0     C13327  11.630   7.554   0.722 -0.0953 -0.0914  0.3067
  840MOL0     C13328  11.529   7.663   0.740  0.8177 -0.2665  0.2454
  840MOL0     C13329  11.462   7.694   0.606  0.0478  0.4988  0.0288
  840MOL0     C13330  11.413   7.714   0.497 -0.0664 -0.6010  0.0270
  840MOL0     C13331  11.506   7.619   1.109 -0.1023 -0.0659 -0.7899
  840MOL0     C13332  11.389   7.661   1.163  0.4369  0.1293  0.2559
  840MOL0     H13333  11.085   8.065   0.985 -0.9833  0.4468 -0.0602
  840MOL0     H13334  10.906   8.226   0.995  1.7658  0.5697 -1.6313
  840MOL0     H13335  10.756   8.354   1.046 -0.7864 -1.3963  0.9392
  840MOL0     H13336  10.635   8.418   1.170 -0.7560 -0.4840  0.2225
  840MOL0     H13337  10.923   8.509   1.153 -0.9011  0.5294 -0.8206
  840MOL0     H13338  10.781   8.600   1.094  0.2213  1.8654  0.3658
  840MOL0     H13339  10.691   8.607   1.327 -0.2958 -0.8466  1.8804
  840MOL0     H13340  10.820   8.500   1.385  1.1858  1.0180 -0.4108
  840MOL0     H13341  10.863   8.730   1.458 -3.9574 -2.6521  0.2909
  840MOL0     H13342  10.994   8.670   1.357 -0.5283  0.3791  0.6866
  840MOL0     H13343  10.906   8.811   1.156  1.1547  1.1536  0.4804
  840MOL0     H13344  10.753   8.834   1.255 -0.0190  2.8638 -1.1062
  840MOL0     H13345  10.868   8.967   1.412 -0.8143 -3.0374  0.1063
  840MOL0     H13346  11.028   8.935   1.335  1.5301  1.7327 -2.6561
  840MOL0     H13347  10.961   9.039   1.123  3.8830  3.6471  1.8509
  840MOL0     H13348  10.801   9.073   1.191  0.1316 -0.2495 -2.6480
  840MOL0     H13349  11.062   9.212   1.262 -0.3251  0.1520 -4.0395
  840MOL0     H13350  10.934   9.201   1.381 -0.5137 -4.1002 -0.0012
  840MOL0     H13351  10.939   9.284   0.989 -0.2780 -0.0789 -0.4656
  840MOL0     H13352  10.779   9.459   0.818  0.3019 -0.1744  0.4428
  840MOL0     H13353  10.624   9.423   0.896  1.0637 -2.4284 -0.4072
  840MOL0     H13354  10.616   9.639   1.009 -0.6478  0.4836  0.2938
  840MOL0     H13355  10.631   9.677   0.837  3.6705  0.8521 -1.2381
  840MOL0     H13356  10.850   9.735   0.851  0.2409  0.3961 -0.2625
  840MOL0     H13357  10.893   9.666   0.997 -0.4575  0.1701  1.1748
  840MOL0     H13358  10.756   9.843   1.136  0.1523  1.4544 -0.4971
  840MOL0     H13359  10.658   9.877   0.996 -1.9591 -0.5350  3.0216
  840MOL0     H13360  10.703   9.912   0.762 -0.4351  0.8349 -2.3381
  840MOL0     H13361  10.625  10.058   0.520 -0.0201 -0.3973 -0.6437
  840MOL0     H13362  10.767  10.042   0.428  4.6267  0.5820  2.4233
  840MOL0     H13363  10.715   9.903   0.535  1.8497 -0.5344 -2.5357
  840MOL0     H13364  11.024  10.511   0.371  0.0855  0.7827  0.2468
  840MOL0     H13365  11.058  10.599   0.132  0.3869  0.1070 -1.4154
  840MOL0     H13366  10.813  10.567  -0.090  0.4679  2.5143  1.5004
  840MOL0     H13367  10.945  10.666  -0.059  0.2760  0.8419 -3.1888
  840MOL0     H13368  10.922  10.717  -0.278  2.5913  1.2901  1.8539
  840MOL0     H13369  11.016  10.568  -0.316  0.5130 -1.0839  2.2005
  840MOL0     H13370  10.797  10.434  -0.303  1.1030 -0.0407  1.5397
  840MOL0     H13371  10.839  10.531  -0.445 -1.1905  0.7837  0.2227
  840MOL0     H13372  10.649  10.608  -0.219 -2.3272 -0.7314 -1.1719
  840MOL0     H13373  10.713  10.735  -0.324  0.3511 -0.0992  1.3632
  840MOL0     H13374  10.475  10.659  -0.367 -0.0010 -1.5293  1.2919
  840MOL0     H13375  10.535  10.516  -0.442  1.3051 -0.4477  2.6878
  840MOL0     H13376  10.598  10.813  -0.530 -1.2061 -0.1087  4.2801
  840MOL0     H13377  10.675  10.674  -0.603  1.1786 -0.7735  2.5179
  840MOL0     H13378  10.475  10.762  -0.734 -0.2604 -0.5848 -0.5374
  840MOL0     H13379  10.374  10.748  -0.597  1.0475  3.1200  0.7127
  840MOL0     H13380  10.382  10.491  -0.602 -1.1889 -0.1797 -0.7076
  840MOL0     H13381  10.481  10.503  -0.752 -0.8340  1.4194 -2.8592
  840MOL0     H13382  10.970  10.207  -0.019  4.9964 -0.1390 -0.3678
  840MOL0     H13383  10.937  10.122   0.213 -1.9089  1.2495  1.4067
  840MOL0     H13384  11.079  10.233   0.734  0.8297 -0.5197 -0.1800
  840MOL0     H13385  11.057  10.112   0.925 -0.9105  0.0215  1.4149
  840MOL0     H13386  10.891   8.175   1.423  1.5097  0.1834  0.4755
  840MOL0     H13387  11.090   8.021   1.409 -0.3736 -3.2813 -0.1086
  840MOL0     H13388  11.461   7.984   1.185  0.6570  0.1467 -0.2458
  840MOL0     H13389  11.665   7.912   1.064  0.3201 -1.5211 -0.6821
  840MOL0     H13390  11.844   7.516   0.932  1.3980 -0.4164  2.6110
  840MOL0     H13391  11.721   7.454   1.034  1.0470 -0.3662 -0.3625
  840MOL0     H13392  11.560   7.443   0.888  2.3195  0.0061  3.5405
  840MOL0     H13393  11.698   7.372   0.821  0.2109  0.8496 -0.2777
  840MOL0     H13394  11.602   7.484   0.643 -0.2983  0.4410 -0.0984
  840MOL0     H13395  11.727   7.585   0.681 -1.2899 -1.9603 -4.6436
  840MOL0     H13396  11.585   7.753   0.767  0.5994  0.7817 -2.4654
  840MOL0     H13397  11.444   7.650   0.808  1.6116 -1.5426  1.0257
  840MOL0     H13398  11.380   7.741   0.399  1.6861  1.3915 -0.0672
  840MOL0     H13399  11.527   7.513   1.106 -2.7193 -0.7498  0.8840
  840MOL0     H13400  11.313   7.590   1.196  0.4513 -1.0152 -2.0049
  841MOL0     O13401   1.605   1.925   1.848 -0.0861  0.1607 -0.4179
  841MOL0     C13402   1.682   1.993   1.917 -0.7719 -0.5096 -0.0913
  841MOL0     O13403   1.797   1.964   1.975 -0.9158 -0.0441 -0.0251
  841MOL0     C13404   1.859   1.843   1.963 -0.3215  0.5492 -1.8676
  841MOL0     C13405   1.976   1.821   2.046  0.3224  0.2224 -0.5302
  841MOL0     C13406   2.063   1.708   2.030  0.9537 -0.2030 -0.4458
  841MOL0     C13407   2.038   1.607   1.933 -1.0344 -0.3056  0.3473
  841MOL0     O13408   2.129   1.499   1.920 -0.3295 -0.3940 -0.2742
  841MOL0     C13409   2.086   1.372   1.875 -0.1550 -0.5658 -0.4104
  841MOL0     C13410   2.208   1.280   1.885 -0.3890 -0.1317 -0.1743
  841MOL0     C13411   2.336   1.341   1.813  0.0319 -0.2806 -0.1045
  841MOL0     C13412   2.430   1.228   1.765 -0.3675  0.1277 -0.4284
  841MOL0     C13413   2.561   1.290   1.719  0.0240  0.2267 -0.0547
  841MOL0     C13414   2.653   1.174   1.669 -0.1296  0.0012 -0.3022
  841MOL0     C13415   2.599   1.107   1.539  0.0530 -0.8790 -0.3999
  841MOL0     C13416   2.704   1.003   1.497  0.5441  0.2126 -0.2140
  841MOL0     N13417   2.780   1.031   1.373  0.3829  0.0214  0.2256
  841MOL0     C13418   2.829   1.151   1.320  0.4662  0.2836  0.3403
  841MOL0     C13419   2.909   1.119   1.215 -0.4695 -0.1240  0.5223
  841MOL0     C13420   2.989   1.228   1.140  0.4240 -0.1483  1.1903
  841MOL0     C13421   2.929   1.257   1.002 -0.9217  0.4487 -0.1937
  841MOL0     C13422   2.985   1.383   0.943 -0.9690 -0.0018 -0.1426
  841MOL0     C13423   2.916   1.514   0.967 -0.0717  0.4910 -0.5061
  841MOL0     O13424   2.975   1.608   0.880 -0.0871 -0.6503  0.2137
  841MOL0     C13425   3.039   1.718   0.937  0.0958 -0.2331  0.1153
  841MOL0     C13426   3.136   1.703   1.035  0.4660  0.3793  0.5496
  841MOL0     C13427   3.203   1.810   1.086 -0.2583  0.3730  0.2905
  841MOL0     C13428   3.304   1.775   1.189 -0.0960  0.0850  1.2069
  841MOL0     C13429   3.145   1.936   1.058 -0.8580 -0.4956  0.2876
  841MOL0     C13430   3.215   2.053   1.104  0.3297 -0.7341  0.8529
  841MOL0     O13431   3.135   2.147   1.168 -0.2344  0.2185  0.7555
  841MOL0     C13432   3.186   2.277   1.204 -0.1948 -0.1032  0.6212
  841MOL0     C13433   3.266   2.350   1.123 -0.4579  0.1479 -1.8119
  841MOL0     C13434   3.291   2.486   1.157 -0.6378  0.1717  0.0339
  841MOL0     C13435   3.225   2.550   1.263 -1.0823  0.7736  0.7915
  841MOL0     O13436   3.241   2.677   1.303 -0.4627 -0.2478 -0.4286
  841MOL0     C13437   3.350   2.745   1.254  0.5854  0.4918  0.3319
  841MOL0     C13438   3.372   2.867   1.345 -0.3624 -0.2849 -0.2183
  841MOL0     C13439   3.436   2.807   1.469  0.2109 -0.3167 -0.0345
  841MOL0     C13440   3.472   2.903   1.571 -1.1342 -0.3168 -0.6728
  841MOL0     C13441   3.448   2.871   1.724 -0.1504  0.8895 -0.7112
  841MOL0     C13442   3.547   2.763   1.767 -0.3717 -0.1879 -0.1524
  841MOL0     C13443   3.696   2.805   1.763  0.2377 -0.4055  1.0045
  841MOL0     C13444   3.790   2.703   1.841  0.6175 -0.8154  1.1482
  841MOL0    Cl13445   3.790   2.707   2.016 -0.0381  0.2477 -0.5575
  841MOL0     C13446   3.146   2.474   1.349 -0.0390 -0.2884  0.3740
  841MOL0     C13447   3.123   2.341   1.316 -0.7123 -0.0285 -1.1533
  841MOL0     O13448   3.326   2.062   1.068  0.5450 -0.1461 -0.7396
  841MOL0     C13449   3.049   1.957   0.957  0.1666  0.7005  0.1728
  841MOL0     C13450   2.991   1.844   0.900 -0.3735 -0.2828  0.1173
  841MOL0     N13451   2.887   0.982   1.189  0.5291  0.1980  0.2131
  841MOL0     N13452   2.813   0.935   1.289 -0.0300  0.0196  0.9824
  841MOL0     C13453   1.922   1.628   1.856 -0.1262  0.1711  1.0588
  841MOL0     C13454   1.834   1.739   1.868  0.2924 -0.7583  0.5514
  841MOL0     C13455   1.640   2.125   1.957  0.7356 -0.7940  0.0557
  841MOL0     C13456   1.539   2.185   1.882  0.7018 -0.9120  0.1998
  841MOL0     C13457   1.488   2.316   1.908  0.8042  0.2073  0.5308
  841MOL0     C13458   1.556   2.397   1.998  0.0865 -1.1522 -0.4863
  841MOL0     O13459   1.524   2.526   2.031  0.0700 -0.1404 -0.1084
  841MOL0     C13460   1.553   2.624   1.935  0.4764 -0.2651  0.7788
  841MOL0     C13461   1.420   2.645   1.850  0.0186  0.1310  0.0228
  841MOL0     C13462   1.286   2.666   1.929  0.7513 -0.1846  0.0660
  841MOL0     C13463   1.160   2.669   1.840 -0.1992 -0.0573 -0.1160
  841MOL0     C13464   1.164   2.783   1.740  0.2817  1.7452 -0.7368
  841MOL0     C13465   1.152   2.864   1.649 -0.4915 -0.0548  0.2992
  841MOL0     C13466   1.655   2.341   2.074 -0.2846  0.3805  0.9282
  841MOL0     C13467   1.699   2.209   2.057  0.4341 -0.1933  0.5346
  841MOL0     H13468   1.991   1.899   2.120  0.3200 -0.6797  0.4647
  841MOL0     H13469   2.141   1.695   2.105  1.4901  3.1687 -0.2867
  841MOL0     H13470   2.000   1.331   1.929  0.5339  1.4883  2.5086
  841MOL0     H13471   2.055   1.390   1.772 -1.2816 -0.1125 -0.0045
  841MOL0     H13472   2.242   1.274   1.989  3.4887  0.5488 -1.2300
  841MOL0     H13473   2.178   1.180   1.853 -1.8191  0.0374  0.5641
  841MOL0     H13474   2.302   1.403   1.730 -1.9300  0.7800  1.4146
  841MOL0     H13475   2.389   1.412   1.876  0.3227  1.5974 -2.3148
  841MOL0     H13476   2.455   1.157   1.845 -1.8857 -0.8208 -0.7514
  841MOL0     H13477   2.395   1.156   1.691  3.7685 -0.3391 -2.1718
  841MOL0     H13478   2.540   1.364   1.642  1.7214  0.8626  0.0421
  841MOL0     H13479   2.616   1.337   1.802  1.6954  0.8591 -1.4575
  841MOL0     H13480   2.755   1.205   1.645  0.7017 -3.9130 -2.5449
  841MOL0     H13481   2.666   1.090   1.738  2.9898  0.2456 -0.4301
  841MOL0     H13482   2.500   1.062   1.548 -1.0797  1.6283  0.5942
  841MOL0     H13483   2.591   1.173   1.453  1.5718 -0.4586 -0.2508
  841MOL0     H13484   2.654   0.907   1.481  2.7156 -0.5730 -3.4055
  841MOL0     H13485   2.778   0.981   1.573 -0.4433  0.3228  0.8068
  841MOL0     H13486   2.825   1.252   1.357 -0.5040 -0.7773  3.3653
  841MOL0     H13487   2.983   1.309   1.213  0.3471  1.2184 -0.2796
  841MOL0     H13488   3.091   1.192   1.129  0.7996  0.8110  1.4365
  841MOL0     H13489   2.820   1.269   1.009 -0.8140  0.5790  1.7486
  841MOL0     H13490   2.958   1.169   0.944 -0.5165  0.0523  0.6052
  841MOL0     H13491   2.980   1.359   0.837 -3.1236 -2.7529  0.4655
  841MOL0     H13492   3.087   1.385   0.984 -1.2532 -1.9959  0.8136
  841MOL0     H13493   2.937   1.548   1.069  1.5987  0.5310 -0.8325
  841MOL0     H13494   2.807   1.505   0.967  0.0005 -3.2360  2.5194
  841MOL0     H13495   3.157   1.601   1.066 -2.1852 -1.0556 -1.9582
  841MOL0     H13496   3.306   1.669   1.217 -2.0717 -0.0167  1.0986
  841MOL0     H13497   3.405   1.810   1.167 -1.2050  2.3526 -0.8041
  841MOL0     H13498   3.262   1.827   1.275 -0.2458 -0.1224  1.2589
  841MOL0     H13499   3.293   2.306   1.027  0.7917  1.5772 -2.1539
  841MOL0     H13500   3.362   2.537   1.093 -0.6929  0.3847  0.1390
  841MOL0     H13501   3.440   2.683   1.258  0.5977  0.5629  1.9056
  841MOL0     H13502   3.327   2.780   1.154  0.6626 -1.3624 -0.3713
  841MOL0     H13503   3.446   2.929   1.293 -1.4964  1.2214 -0.1254
  841MOL0     H13504   3.278   2.919   1.366 -0.3324 -0.6871  1.0074
  841MOL0     H13505   3.527   2.756   1.438  0.8979  1.5055 -1.2195
  841MOL0     H13506   3.362   2.747   1.522 -0.5769  1.0990  0.5388
  841MOL0     H13507   3.579   2.918   1.557 -1.2191 -0.2551 -1.2892
  841MOL0     H13508   3.421   2.998   1.554  3.3297  2.1912 -1.4796
  841MOL0     H13509   3.345   2.839   1.738  0.1811  0.7159  1.7147
  841MOL0     H13510   3.478   2.956   1.786  2.0271 -0.1516 -0.2062
  841MOL0     H13511   3.515   2.739   1.869 -0.4095  2.1548  0.4554
  841MOL0     H13512   3.528   2.668   1.716 -0.3109 -2.4775  3.7283
  841MOL0     H13513   3.709   2.898   1.819 -0.9169 -0.0801  0.7608
  841MOL0     H13514   3.741   2.807   1.664 -1.0704 -3.7352  0.2356
  841MOL0     H13515   3.893   2.728   1.811 -0.0927  1.6128  0.4927
  841MOL0     H13516   3.774   2.601   1.805 -1.0258 -0.4938  0.9178
  841MOL0     H13517   3.097   2.528   1.429 -0.5839 -2.1191  1.3391
  841MOL0     H13518   3.050   2.291   1.378  0.0850 -0.4335 -0.5255
  841MOL0     H13519   3.013   2.055   0.928  0.4841  0.9534  0.6251
  841MOL0     H13520   2.905   1.858   0.836 -0.8552 -1.8797  0.3581
  841MOL0     H13521   1.902   1.546   1.788  0.0390 -0.3004  1.5744
  841MOL0     H13522   1.747   1.736   1.803  0.9016 -0.2828 -0.3082
  841MOL0     H13523   1.469   2.136   1.815 -2.3730  1.3745  1.4936
  841MOL0     H13524   1.396   2.343   1.857  1.8130  1.5320 -0.6268
  841MOL0     H13525   1.578   2.724   1.970  1.1825  1.3305 -3.5866
  841MOL0     H13526   1.645   2.600   1.882  1.7849  0.8160  2.4822
  841MOL0     H13527   1.417   2.569   1.771  1.1390 -1.7752  1.6949
  841MOL0     H13528   1.443   2.742   1.806  0.2351 -0.8328 -2.1326
  841MOL0     H13529   1.299   2.754   1.993  0.2194 -1.9731  2.7869
  841MOL0     H13530   1.280   2.580   1.995  1.5485  1.3766  2.3068
  841MOL0     H13531   1.078   2.671   1.912  1.6800  1.4316  2.1373
  841MOL0     H13532   1.166   2.574   1.787  0.6918 -2.4255  3.7797
  841MOL0     H13533   1.156   2.914   1.554  4.8812 -1.0067 -0.3129
  841MOL0     H13534   1.707   2.412   2.137  0.2461 -0.5274  1.5302
  841MOL0     H13535   1.791   2.180   2.107  0.3254 -0.6607  0.4715
  842MOL0     O13536  11.150   5.205  11.447  0.2028 -0.5024 -0.4854
  842MOL0     C13537  11.221   5.175  11.544 -0.1813  0.4091 -0.2224
  842MOL0     O13538  11.190   5.159  11.678  0.2450 -0.4152  0.8735
  842MOL0     C13539  11.064   5.174  11.723 -0.2511 -0.4089  0.0367
  842MOL0     C13540  10.946   5.188  11.650 -0.4539  0.1214 -0.1146
  842MOL0     C13541  10.818   5.220  11.712 -0.5554 -0.3994  1.2610
  842MOL0     C13542  10.818   5.242  11.846  0.2955  0.3889 -0.3960
  842MOL0     O13543  10.713   5.280  11.922  0.3003  0.0516 -0.1061
  842MOL0     C13544  10.594   5.317  11.848 -0.6074  0.3597  0.4478
  842MOL0     C13545  10.498   5.386  11.947 -0.9408 -0.6090  0.3583
  842MOL0     C13546  10.408   5.287  12.029  0.3694 -0.2042 -0.1086
  842MOL0     C13547  10.347   5.363  12.152  0.1475  0.2203 -0.3270
  842MOL0     C13548  10.325   5.265  12.280  0.0486  0.6236 -0.2590
  842MOL0     C13549  10.237   5.135  12.245 -0.5487  0.0750 -0.2004
  842MOL0     C13550  10.182   5.055  12.359  0.2183  0.3022 -0.4296
  842MOL0     C13551  10.286   4.986  12.440 -0.3677  0.6289 -0.9413
  842MOL0     N13552  10.285   4.848  12.412  0.1329 -0.0272 -0.7623
  842MOL0     C13553  10.317   4.789  12.296 -0.4917 -0.0033 -0.4491
  842MOL0     C13554  10.298   4.654  12.319 -0.0827 -0.4573 -0.6133
  842MOL0     C13555  10.316   4.546  12.217  0.5724 -0.2882 -0.6130
  842MOL0     C13556  10.421   4.432  12.228 -0.5397 -1.0471 -0.4584
  842MOL0     C13557  10.566   4.473  12.211 -0.4841 -0.4458  0.9014
  842MOL0     C13558  10.668   4.353  12.199 -0.5444 -0.9741 -0.7073
  842MOL0     O13559  10.789   4.412  12.149  0.5282 -0.3802  0.3426
  842MOL0     C13560  10.872   4.341  12.061  0.7430  0.2075 -0.3940
  842MOL0     C13561  10.905   4.204  12.086  0.2151 -0.5843  0.5496
  842MOL0     C13562  11.004   4.133  12.021 -0.9415 -0.1364 -0.1385
  842MOL0     C13563  11.044   4.002  12.078 -0.7542 -0.0996  0.7761
  842MOL0     C13564  11.070   4.200  11.916 -0.8526 -0.8786 -0.3103
  842MOL0     C13565  11.160   4.136  11.818 -0.1747  0.1953 -0.2582
  842MOL0     O13566  11.092   4.061  11.715  0.3316  0.3669  0.7889
  842MOL0     C13567  11.170   4.000  11.627  0.0610 -0.4136  0.2207
  842MOL0     C13568  11.193   3.860  11.636  0.2983  0.2134  0.3653
  842MOL0     C13569  11.278   3.791  11.549 -0.2316  0.1269 -1.1853
  842MOL0     C13570  11.352   3.873  11.450 -0.2088  0.1944  0.2672
  842MOL0     O13571  11.438   3.801  11.374  0.0936 -0.1219  0.2901
  842MOL0     C13572  11.566   3.855  11.355 -0.0565  0.2009 -0.0013
  842MOL0     C13573  11.662   3.746  11.304  1.1915 -0.1500 -0.0048
  842MOL0     C13574  11.637   3.613  11.387 -0.1211 -0.1441  0.1416
  842MOL0     C13575  11.737   3.501  11.352  0.1799  0.5651  0.6317
  842MOL0     C13576  11.844   3.500  11.457 -0.2939  0.1434  0.6493
  842MOL0     C13577  11.956   3.406  11.411  1.0446  0.5643  0.8081
  842MOL0     C13578  12.034   3.382  11.539  0.3205 -0.3783 -0.0317
  842MOL0     C13579  12.138   3.284  11.491 -0.9335  0.0317 -0.9829
  842MOL0    Cl13580  12.069   3.135  11.453  0.1730 -0.4304  0.2294
  842MOL0     C13581  11.326   4.003  11.431  1.0694  0.7322  1.4338
  842MOL0     C13582  11.235   4.069  11.517  0.1599  0.1254  0.1899
  842MOL0     O13583  11.283   4.159  11.819  0.5480  0.1124 -0.0939
  842MOL0     C13584  11.029   4.326  11.885 -0.0085  1.2648  0.0005
  842MOL0     C13585  10.935   4.397  11.958  0.1633  0.1408  0.3366
  842MOL0     N13586  10.267   4.637  12.455 -0.2622 -0.4841 -0.3001
  842MOL0     N13587  10.246   4.757  12.505  1.5162  0.1138  0.2609
  842MOL0     C13588  10.925   5.208  11.922 -0.6215  0.3218 -0.4731
  842MOL0     C13589  11.053   5.181  11.860  0.3706 -0.0364 -0.7892
  842MOL0     C13590  11.355   5.125  11.509 -0.3611 -0.3481 -0.3180
  842MOL0     C13591  11.388   5.114  11.369  0.6949  0.5159  0.6487
  842MOL0     C13592  11.515   5.062  11.334  0.4076 -0.1833  0.7702
  842MOL0     C13593  11.595   5.007  11.434  0.1920 -0.3649 -1.0534
  842MOL0     O13594  11.711   4.961  11.377 -0.5980 -0.8246 -1.0552
  842MOL0     C13595  11.755   4.834  11.429 -0.0976 -1.1861 -0.1030
  842MOL0     C13596  11.881   4.787  11.355  0.4322  0.5372  1.1581
  842MOL0     C13597  11.860   4.731  11.210 -0.6562 -0.9081  0.0350
  842MOL0     C13598  11.992   4.686  11.147 -0.9532  0.2035 -0.7884
  842MOL0     C13599  12.048   4.566  11.208 -0.2832 -0.8493 -1.2325
  842MOL0     C13600  12.113   4.483  11.263 -0.1516 -0.3879  0.7975
  842MOL0     C13601  11.555   5.016  11.569 -0.1178 -0.9392  0.2921
  842MOL0     C13602  11.437   5.075  11.604 -0.5053 -0.6418 -0.0890
  842MOL0     H13603  10.940   5.193  11.542  0.0280  0.3766 -0.1317
  842MOL0     H13604  10.730   5.239  11.652 -0.2045  2.6040  1.5335
  842MOL0     H13605  10.620   5.391  11.772  1.2165 -1.0304 -0.3787
  842MOL0     H13606  10.561   5.225  11.799 -1.1773 -0.4872  2.3325
  842MOL0     H13607  10.562   5.452  12.007 -2.1711  0.1170  0.8977
  842MOL0     H13608  10.434   5.445  11.881 -2.1344 -3.4148 -1.1485
  842MOL0     H13609  10.336   5.239  11.962  1.3728  3.6747 -4.5168
  842MOL0     H13610  10.464   5.206  12.074 -0.9599 -0.6964  0.7172
  842MOL0     H13611  10.408   5.446  12.190 -1.6210  0.3489  2.5218
  842MOL0     H13612  10.248   5.408  12.141 -0.9251 -0.4312  4.4447
  842MOL0     H13613  10.424   5.228  12.307  0.9726  2.5052 -0.9341
  842MOL0     H13614  10.290   5.322  12.366  0.9123 -0.3777  0.7834
  842MOL0     H13615  10.160   5.183  12.184  0.0418  1.5212  0.1584
  842MOL0     H13616  10.285   5.066  12.175  2.6294  1.4395  0.4539
  842MOL0     H13617  10.131   5.122  12.428  1.4508  1.6598 -0.7784
  842MOL0     H13618  10.121   4.978  12.311 -1.6221 -1.1268  3.7483
  842MOL0     H13619  10.269   4.998  12.548  0.8154  0.3148 -0.7043
  842MOL0     H13620  10.385   5.023  12.412 -0.6366  0.3911 -2.2681
  842MOL0     H13621  10.329   4.825  12.195 -1.7510  1.0912 -0.2378
  842MOL0     H13622  10.216   4.500  12.213 -0.2098  1.3094 -0.3310
  842MOL0     H13623  10.329   4.588  12.117 -1.1480  4.1492  0.7695
  842MOL0     H13624  10.389   4.349  12.165  2.0859 -2.1081 -0.4953
  842MOL0     H13625  10.413   4.398  12.331  0.4896 -0.2428 -0.0848
  842MOL0     H13626  10.593   4.543  12.290 -2.7647  0.5597  0.8908
  842MOL0     H13627  10.561   4.535  12.121 -1.6997 -1.1837  0.4398
  842MOL0     H13628  10.618   4.282  12.132  0.0282 -1.1831 -0.9198
  842MOL0     H13629  10.678   4.302  12.295 -4.0452 -1.0946 -0.2767
  842MOL0     H13630  10.849   4.159  12.168 -0.9938  0.1178  0.1334
  842MOL0     H13631  10.986   3.924  12.028 -4.2249  1.0662  2.6670
  842MOL0     H13632  11.153   3.999  12.086 -0.7665  0.5388  1.2170
  842MOL0     H13633  11.020   4.002  12.185  1.2189 -1.9110  1.2865
  842MOL0     H13634  11.140   3.814  11.718  2.8689 -0.1815  1.9087
  842MOL0     H13635  11.285   3.683  11.553 -0.8234  0.0922 -1.0612
  842MOL0     H13636  11.567   3.944  11.292 -0.0826  2.3270  2.7870
  842MOL0     H13637  11.587   3.887  11.458 -2.6913  1.3357  0.2731
  842MOL0     H13638  11.633   3.736  11.199 -2.5132 -2.1964  1.0475
  842MOL0     H13639  11.767   3.778  11.306 -0.1732  5.2569  0.3638
  842MOL0     H13640  11.541   3.564  11.371 -0.1366 -0.3361  0.8038
  842MOL0     H13641  11.635   3.645  11.492 -0.0767  5.3717 -1.2560
  842MOL0     H13642  11.683   3.406  11.342  1.5929 -0.3923  1.6922
  842MOL0     H13643  11.791   3.518  11.258  0.4480 -1.4067  0.3807
  842MOL0     H13644  11.806   3.470  11.555 -0.1371 -0.7378  0.4482
  842MOL0     H13645  11.883   3.602  11.462 -1.9593  1.0447 -2.5243
  842MOL0     H13646  11.915   3.312  11.374  1.4818  0.4272  0.6791
  842MOL0     H13647  12.017   3.449  11.332  0.1527  0.8734  0.2728
  842MOL0     H13648  11.974   3.345  11.624  0.5002 -1.0270 -0.1823
  842MOL0     H13649  12.077   3.479  11.564 -1.6283  0.3662  0.6564
  842MOL0     H13650  12.204   3.281  11.578 -3.2788  2.7841  1.0658
  842MOL0     H13651  12.193   3.324  11.405 -0.4727  0.1812 -0.6213
  842MOL0     H13652  11.372   4.057  11.349 -2.6493  0.5663 -0.9889
  842MOL0     H13653  11.220   4.173  11.490  2.1522  0.5807  0.6927
  842MOL0     H13654  11.066   4.376  11.796 -0.4285  0.4412 -0.6618
  842MOL0     H13655  10.894   4.492  11.924 -2.6885 -0.5780  1.4882
  842MOL0     H13656  10.922   5.218  12.030 -0.7639  1.2904 -0.5586
  842MOL0     H13657  11.144   5.173  11.918  1.4808  1.4176 -2.2699
  842MOL0     H13658  11.315   5.143  11.294 -1.9508 -0.4327  2.6771
  842MOL0     H13659  11.545   5.056  11.229  2.2969 -4.1657  1.3606
  842MOL0     H13660  11.785   4.857  11.532 -0.0013 -0.4451 -0.2976
  842MOL0     H13661  11.675   4.759  11.420 -0.6727 -0.5635 -0.2304
  842MOL0     H13662  11.907   4.697  11.412 -2.9398 -0.6490  1.0395
  842MOL0     H13663  11.956   4.867  11.354  2.0183 -0.8678 -1.0221
  842MOL0     H13664  11.817   4.808  11.145  0.2909 -0.0967  0.3524
  842MOL0     H13665  11.791   4.650  11.234  1.0242 -1.8095  2.1669
  842MOL0     H13666  12.065   4.767  11.135 -1.0634  0.2702 -1.0259
  842MOL0     H13667  11.989   4.652  11.043  4.8861  1.8562 -1.8642
  842MOL0     H13668  12.174   4.410  11.313  0.6243 -1.6079 -1.7496
  842MOL0     H13669  11.622   4.979  11.646  0.3823  0.7750  0.7352
  842MOL0     H13670  11.415   5.074  11.710 -0.8301 -0.8829 -0.1587
  843MOL0     O13671   6.211   9.940  10.258 -0.0503 -0.1351  0.0715
  843MOL0     C13672   6.174   9.941  10.373  0.9567 -0.5399  0.6405
  843MOL0     O13673   6.065  10.019  10.420 -0.3096  0.3157 -0.0887
  843MOL0     C13674   5.978  10.070  10.340  0.3420  0.5249 -0.3143
  843MOL0     C13675   5.939  10.018  10.208 -0.8689 -1.5297 -0.4103
  843MOL0     C13676   5.842  10.085  10.125  0.1448 -0.0779 -0.0394
  843MOL0     C13677   5.787  10.212  10.164  0.4549  0.6332 -0.8889
  843MOL0     O13678   5.701  10.296  10.092  0.8949  0.2237  0.0487
  843MOL0     C13679   5.625  10.245   9.984 -0.0491  0.8553 -0.1896
  843MOL0     C13680   5.689  10.276   9.854  0.2131 -0.1291  1.4631
  843MOL0     C13681   5.596  10.242   9.734 -0.7207 -0.8879 -0.3236
  843MOL0     C13682   5.662  10.275   9.601 -0.3067  0.7251  0.1251
  843MOL0     C13683   5.559  10.247   9.485  0.7318 -0.1198  0.3351
  843MOL0     C13684   5.423  10.300   9.519 -0.5793 -0.4857 -0.3537
  843MOL0     C13685   5.338  10.293   9.395 -0.4483  0.4912 -1.0682
  843MOL0     C13686   5.188  10.289   9.418 -0.1912  0.0911 -0.2904
  843MOL0     N13687   5.133  10.420   9.465  0.4580  0.0394 -0.9310
  843MOL0     C13688   5.107  10.529   9.386 -0.3599  0.5361  0.4813
  843MOL0     C13689   5.047  10.625   9.458 -0.5134  0.0680 -0.5724
  843MOL0     C13690   5.005  10.760   9.406 -0.3905  0.5212 -0.3273
  843MOL0     C13691   5.113  10.870   9.417  0.2994  0.0747 -0.3938
  843MOL0     C13692   5.056  11.007   9.383  1.3786 -0.0732  0.1870
  843MOL0     C13693   5.174  11.109   9.389 -0.1073 -0.5780 -0.3814
  843MOL0     O13694   5.143  11.250   9.382 -1.3335 -0.1835 -0.7336
  843MOL0     C13695   5.254  11.328   9.362  1.2800  0.2558 -0.3343
  843MOL0     C13696   5.355  11.311   9.271  0.4012  0.1447  0.0489
  843MOL0     C13697   5.447  11.407   9.246 -0.1346  0.4695 -0.0549
  843MOL0     C13698   5.539  11.391   9.133 -1.0976  0.0989  0.6644
  843MOL0     C13699   5.451  11.529   9.321 -0.8618  0.4004  0.5602
  843MOL0     C13700   5.554  11.642   9.304 -0.1184 -0.1269 -0.5424
  843MOL0     O13701   5.627  11.686   9.411 -0.3795  0.3534 -0.1593
  843MOL0     C13702   5.725  11.784   9.402 -0.9494  0.0146  0.8956
  843MOL0     C13703   5.728  11.895   9.479 -0.0001  0.5157  0.3119
  843MOL0     C13704   5.841  11.989   9.473  0.3561 -0.1701  0.1765
  843MOL0     C13705   5.932  11.981   9.367 -1.0518  0.2569  0.9308
  843MOL0     O13706   6.037  12.069   9.352 -0.2863 -0.1709 -0.4780
  843MOL0     C13707   6.007  12.202   9.398  0.1519 -0.1328 -1.0211
  843MOL0     C13708   6.132  12.289   9.358  0.4898 -0.3235 -0.3148
  843MOL0     C13709   6.268  12.240   9.404  0.7133  0.4030  0.8782
  843MOL0     C13710   6.361  12.361   9.380  0.1644 -0.3834  0.3678
  843MOL0     C13711   6.499  12.316   9.414  1.2812  0.8060 -0.3532
  843MOL0     C13712   6.598  12.429   9.377  0.5334 -0.8605  0.3054
  843MOL0     C13713   6.731  12.382   9.413 -0.4091  0.6215  0.3068
  843MOL0     C13714   6.834  12.500   9.398 -0.3025 -0.0956 -0.2364
  843MOL0    Cl13715   7.003  12.422   9.403  0.0069  0.1833  0.3304
  843MOL0     C13716   5.938  11.862   9.293  0.6144 -0.4177 -0.1415
  843MOL0     C13717   5.835  11.769   9.309 -0.1271 -0.3517 -0.1044
  843MOL0     O13718   5.568  11.694   9.189 -0.1316 -0.7576 -0.6522
  843MOL0     C13719   5.346  11.549   9.409 -0.1854 -0.2448 -0.2619
  843MOL0     C13720   5.249  11.451   9.428  0.0245 -0.2196  1.1107
  843MOL0     N13721   5.047  10.586   9.590 -0.3419  0.3323 -0.1987
  843MOL0     N13722   5.092  10.458   9.589  0.2460 -0.1444  0.5906
  843MOL0     C13723   5.820  10.245  10.299 -0.3339  0.0534  0.0914
  843MOL0     C13724   5.901  10.174  10.388 -0.3822  0.2477 -0.6517
  843MOL0     C13725   6.255   9.842  10.462 -0.1518 -0.3061 -0.3483
  843MOL0     C13726   6.386   9.817  10.428  0.5542 -0.6947 -0.2367
  843MOL0     C13727   6.471   9.725  10.496 -0.2226 -0.1993  0.3346
  843MOL0     C13728   6.415   9.652  10.597  0.5460 -1.3384 -0.4959
  843MOL0     O13729   6.492   9.578  10.673 -0.2861  0.3058 -0.1980
  843MOL0     C13730   6.540   9.648  10.793 -0.4833 -0.5882  0.4811
  843MOL0     C13731   6.487   9.573  10.916  0.0072 -0.3434 -0.4714
  843MOL0     C13732   6.565   9.446  10.951  0.0861  0.0071  0.2754
  843MOL0     C13733   6.484   9.342  11.041 -0.3603  0.5226  0.0886
  843MOL0     C13734   6.392   9.410  11.135 -0.0855  0.5332  0.1088
  843MOL0     C13735   6.319   9.452  11.228  0.7266 -0.0455 -0.0188
  843MOL0     C13736   6.283   9.672  10.632  0.8939 -0.0113  0.4459
  843MOL0     C13737   6.205   9.780  10.576  0.4355 -0.1184  0.4546
  843MOL0     H13738   5.983   9.927  10.169 -4.7032 -2.8141 -2.3005
  843MOL0     H13739   5.814  10.054  10.025  1.2595 -0.2940 -0.2927
  843MOL0     H13740   5.601  10.140  10.006  1.5169  0.2864 -1.0405
  843MOL0     H13741   5.530  10.298   9.977  0.4132  1.5967 -0.9210
  843MOL0     H13742   5.721  10.380   9.862  0.5119 -0.2321  1.6550
  843MOL0     H13743   5.779  10.215   9.837 -1.6299 -2.4205 -0.9731
  843MOL0     H13744   5.570  10.135   9.739  1.1214 -1.2922  2.3055
  843MOL0     H13745   5.511  10.310   9.747  0.3025  0.3904 -0.2042
  843MOL0     H13746   5.685  10.381   9.589  0.7860  0.6734  1.5057
  843MOL0     H13747   5.754  10.219   9.580  0.2118  0.8148  2.0212
  843MOL0     H13748   5.603  10.297   9.399  1.6768 -2.6977 -0.7846
  843MOL0     H13749   5.557  10.147   9.441  0.8997 -0.4371  1.0374
  843MOL0     H13750   5.379  10.237   9.597  1.9740  0.7558  2.2771
  843MOL0     H13751   5.428  10.402   9.557 -1.7523 -1.3224  2.2672
  843MOL0     H13752   5.352  10.373   9.322 -1.5877 -0.5777 -2.5331
  843MOL0     H13753   5.360  10.196   9.349  0.7829 -0.0689  0.6007
  843MOL0     H13754   5.151  10.200   9.472  2.0023 -2.0984 -2.1924
  843MOL0     H13755   5.145  10.281   9.318  1.4372  3.5388 -1.4005
  843MOL0     H13756   5.109  10.521   9.277 -1.1432 -0.0280  0.5075
  843MOL0     H13757   4.970  10.762   9.303 -4.7747  0.8733  0.9652
  843MOL0     H13758   4.916  10.790   9.462 -0.9418  3.7577 -2.6407
  843MOL0     H13759   5.199  10.854   9.351  0.6623 -1.1791  0.3480
  843MOL0     H13760   5.159  10.881   9.516 -1.6023  3.2077  0.2829
  843MOL0     H13761   4.980  11.023   9.460  0.5654  0.8476 -0.7894
  843MOL0     H13762   5.003  11.017   9.288 -1.1013  0.6247  1.5551
  843MOL0     H13763   5.240  11.082   9.305 -1.5246  0.2631 -1.8363
  843MOL0     H13764   5.233  11.097   9.480 -0.5191 -0.3581 -0.0814
  843MOL0     H13765   5.363  11.222   9.209  4.6777 -0.0569  0.6126
  843MOL0     H13766   5.634  11.444   9.142 -0.3087 -1.1569 -0.0306
  843MOL0     H13767   5.555  11.283   9.127  1.3102  0.4263  0.2168
  843MOL0     H13768   5.488  11.429   9.044 -2.3571 -1.6153  0.5944
  843MOL0     H13769   5.635  11.902   9.536 -0.3046 -1.8757  0.2227
  843MOL0     H13770   5.835  12.077   9.536  2.1678 -1.3202  2.0932
  843MOL0     H13771   5.922  12.251   9.351 -1.0098  3.3166  3.8465
  843MOL0     H13772   5.992  12.206   9.506  1.4736  2.1614 -0.8473
  843MOL0     H13773   6.134  12.291   9.249  0.6763  1.1213 -0.2994
  843MOL0     H13774   6.116  12.392   9.391 -1.6392 -0.3422 -1.1266
  843MOL0     H13775   6.295  12.147   9.352 -0.8727  0.4901 -0.1747
  843MOL0     H13776   6.273  12.226   9.512  1.5569 -1.6811  0.6172
  843MOL0     H13777   6.360  12.387   9.274 -2.0159  2.9875  1.0652
  843MOL0     H13778   6.338  12.454   9.432  1.9628 -0.2608  0.9976
  843MOL0     H13779   6.525  12.225   9.359  1.0993 -1.2831  2.7591
  843MOL0     H13780   6.509  12.306   9.522 -0.8691  1.2632 -0.0632
  843MOL0     H13781   6.594  12.447   9.269  3.6145 -1.1282  0.0650
  843MOL0     H13782   6.574  12.515   9.440 -1.7163 -0.3995 -1.0563
  843MOL0     H13783   6.758  12.301   9.345 -2.4126 -2.5694  3.0024
  843MOL0     H13784   6.738  12.333   9.511  0.2414 -1.3133 -0.6618
  843MOL0     H13785   6.826  12.571   9.482 -2.3070 -0.5014 -0.0316
  843MOL0     H13786   6.809  12.559   9.309  2.0306  0.8471 -0.3453
  843MOL0     H13787   6.027  11.852   9.231  1.9995 -1.4534  1.9169
  843MOL0     H13788   5.840  11.686   9.239 -3.1680 -0.4465 -0.3542
  843MOL0     H13789   5.348  11.639   9.469  0.4536 -1.2365  1.2777
  843MOL0     H13790   5.160  11.453   9.492 -0.8988  4.2262  0.0072
  843MOL0     H13791   5.767  10.336  10.325 -2.5210 -1.4097  1.0788
  843MOL0     H13792   5.919  10.206  10.490  0.8875 -1.2148 -0.3875
  843MOL0     H13793   6.432   9.874  10.347 -1.3501 -2.2467 -2.5388
  843MOL0     H13794   6.577   9.731  10.471 -0.2944 -1.3388 -0.3014
  843MOL0     H13795   6.648   9.659  10.788 -0.5603  0.0812  0.1717
  843MOL0     H13796   6.489   9.745  10.791 -3.4508 -1.9607 -3.4901
  843MOL0     H13797   6.384   9.540  10.897  0.1970  0.6461 -3.7280
  843MOL0     H13798   6.483   9.640  11.003 -1.7046 -1.3978  0.3179
  843MOL0     H13799   6.660   9.471  10.999  1.2019 -1.5816 -0.9642
  843MOL0     H13800   6.588   9.397  10.856 -3.3866  0.4196 -0.9016
  843MOL0     H13801   6.555   9.281  11.097 -0.2968  0.2324 -0.3049
  843MOL0     H13802   6.435   9.274  10.972 -1.7713  1.7042 -0.1103
  843MOL0     H13803   6.246   9.494  11.293 -0.7147  0.2600 -1.7589
  843MOL0     H13804   6.232   9.622  10.713 -0.1659 -2.4510 -1.6116
  843MOL0     H13805   6.108   9.816  10.608 -0.8701 -0.3533 -2.8250
  844MOL0     O13806   1.557   0.342   8.901  0.4775 -0.0342  0.8098
  844MOL0     C13807   1.528   0.363   8.780  0.2597  0.0437 -0.1469
  844MOL0     O13808   1.415   0.433   8.734  0.2923 -0.1793  0.6820
  844MOL0     C13809   1.309   0.432   8.815  0.1396  0.4702  0.6769
  844MOL0     C13810   1.200   0.358   8.773  0.4094  0.7132  0.8159
  844MOL0     C13811   1.076   0.387   8.839 -0.3494  0.8244  0.6388
  844MOL0     C13812   1.073   0.472   8.953  0.1266  0.2717 -0.3353
  844MOL0     O13813   0.946   0.502   8.992 -0.7870 -0.5740  0.4449
  844MOL0     C13814   0.925   0.622   9.075 -0.7819  0.6646  0.2720
  844MOL0     C13815   0.781   0.661   9.076  0.5928 -0.2039 -0.6625
  844MOL0     C13816   0.689   0.539   9.116 -0.1895  1.0834 -0.5337
  844MOL0     C13817   0.571   0.572   9.198 -0.7011 -0.1870 -0.0514
  844MOL0     C13818   0.477   0.452   9.206  0.6470 -0.2618  0.5592
  844MOL0     C13819   0.531   0.339   9.303  0.6628 -0.1635 -0.2507
  844MOL0     C13820   0.417   0.240   9.306 -0.6982  0.6255 -0.1117
  844MOL0     C13821   0.458   0.119   9.396  0.2121  0.7953  0.0763
  844MOL0     N13822   0.444   0.152   9.539  0.3704  0.0280 -0.1254
  844MOL0     C13823   0.326   0.173   9.602  0.0922 -0.2285  0.5430
  844MOL0     C13824   0.360   0.203   9.732 -0.0768  0.2377 -0.7144
  844MOL0     C13825   0.261   0.255   9.828  0.4647  0.2207 -0.4869
  844MOL0     C13826   0.183   0.387   9.782 -0.6350  0.5012  0.2732
  844MOL0     C13827   0.272   0.506   9.752  0.2513  0.0592  0.4133
  844MOL0     C13828   0.323   0.585   9.868  0.9018  0.2130 -0.6081
  844MOL0     O13829   0.407   0.686   9.823 -0.1936 -0.3991 -0.8855
  844MOL0     C13830   0.521   0.655   9.745 -0.0025 -0.1307 -0.1388
  844MOL0     C13831   0.607   0.542   9.756 -0.7377  0.5446  0.4423
  844MOL0     C13832   0.728   0.537   9.686  0.0369  0.4182  0.5905
  844MOL0     C13833   0.813   0.412   9.708  0.6614 -0.0358 -0.5156
  844MOL0     C13834   0.758   0.643   9.585  1.3477 -0.5015 -0.4094
  844MOL0     C13835   0.875   0.655   9.501 -0.4774 -0.1740 -0.4275
  844MOL0     O13836   0.929   0.781   9.487  0.2971  0.4814 -0.0695
  844MOL0     C13837   1.047   0.788   9.413  0.0490  0.1124 -0.5913
  844MOL0     C13838   1.035   0.849   9.291  0.2211  0.2445 -0.0129
  844MOL0     C13839   1.152   0.858   9.208  0.5588 -0.3208 -0.5532
  844MOL0     C13840   1.275   0.821   9.253 -0.3880  0.2411  1.1472
  844MOL0     O13841   1.380   0.824   9.152 -0.1094 -0.8177 -0.4865
  844MOL0     C13842   1.495   0.737   9.184 -0.4662 -0.2932  0.1904
  844MOL0     C13843   1.603   0.770   9.080  0.1499 -0.6819 -0.3068
  844MOL0     C13844   1.690   0.657   9.026  0.0370  1.2020  0.7798
  844MOL0     C13845   1.789   0.699   8.915 -0.2904  0.3652 -0.7234
  844MOL0     C13846   1.711   0.728   8.794 -0.6058 -0.0410 -0.0933
  844MOL0     C13847   1.802   0.736   8.672 -1.0242  0.2152  0.0737
  844MOL0     C13848   1.734   0.770   8.538  0.3350  0.1446 -0.5326
  844MOL0     C13849   1.651   0.657   8.490 -0.7258  0.4454  0.0614
  844MOL0    Cl13850   1.566   0.700   8.336 -0.1318  0.1871  0.2947
  844MOL0     C13851   1.282   0.758   9.380 -0.8093 -0.4828  0.6592
  844MOL0     C13852   1.174   0.746   9.461  0.1425  0.3824  0.8525
  844MOL0     O13853   0.915   0.556   9.429 -0.0129 -0.2318 -0.1640
  844MOL0     C13854   0.670   0.748   9.574 -0.0324 -0.8930  0.0491
  844MOL0     C13855   0.550   0.748   9.650 -0.5659 -0.4987  0.5302
  844MOL0     N13856   0.498   0.199   9.746 -0.3082  0.0860  0.2224
  844MOL0     N13857   0.549   0.168   9.626 -0.6936 -0.1772 -0.3603
  844MOL0     C13858   1.193   0.524   9.003 -0.4445  0.9329  0.6154
  844MOL0     C13859   1.308   0.511   8.925 -0.1729 -0.6527  1.0777
  844MOL0     C13860   1.622   0.325   8.683 -1.2263  0.2040 -0.4467
  844MOL0     C13861   1.593   0.314   8.541  0.3429  0.5493  0.4150
  844MOL0     C13862   1.686   0.279   8.443 -0.4016  0.0739 -0.3290
  844MOL0     C13863   1.817   0.244   8.483  0.5960  0.6626 -0.7341
  844MOL0     O13864   1.896   0.199   8.383 -0.0596  0.1664  0.8946
  844MOL0     C13865   2.037   0.189   8.407 -0.2040  0.2299 -0.1747
  844MOL0     C13866   2.116   0.140   8.279  0.7313  0.9641  0.4857
  844MOL0     C13867   2.061   0.003   8.228  0.0713 -0.4858 -0.0744
  844MOL0     C13868   2.077  -0.029   8.091 -0.5653  0.0555  0.4923
  844MOL0     C13869   2.025  -0.163   8.077 -0.3033 -0.6343 -0.1421
  844MOL0     C13870   1.980  -0.278   8.080 -0.8615 -0.3437 -0.3602
  844MOL0     C13871   1.853   0.261   8.618 -0.0146  0.1175 -0.4764
  844MOL0     C13872   1.760   0.298   8.718  0.7861  0.3229 -0.5499
  844MOL0     H13873   1.199   0.300   8.682  2.0318  0.9270  0.6377
  844MOL0     H13874   0.977   0.352   8.813 -0.7641  3.0558 -1.1571
  844MOL0     H13875   0.949   0.597   9.179 -2.3939 -3.3027 -0.1222
  844MOL0     H13876   0.988   0.704   9.039  2.3481 -1.6405  0.0735
  844MOL0     H13877   0.757   0.739   9.149  2.2656 -2.0767  2.0783
  844MOL0     H13878   0.776   0.702   8.975  3.4645  0.5763 -0.5633
  844MOL0     H13879   0.656   0.493   9.022 -0.3434  0.4692 -0.1799
  844MOL0     H13880   0.758   0.475   9.171 -0.1448  2.1983  0.7369
  844MOL0     H13881   0.595   0.599   9.302  2.1679  2.3777 -1.2277
  844MOL0     H13882   0.514   0.647   9.142  1.6716 -1.0538 -4.0134
  844MOL0     H13883   0.381   0.486   9.246  1.4574 -1.1981  3.5667
  844MOL0     H13884   0.462   0.416   9.104 -0.7182  0.7847  0.3600
  844MOL0     H13885   0.625   0.293   9.271  0.4872  0.2511 -1.4077
  844MOL0     H13886   0.545   0.384   9.402 -1.2368 -0.3048  0.1174
  844MOL0     H13887   0.323   0.283   9.342 -0.0433  3.7541 -1.7500
  844MOL0     H13888   0.397   0.209   9.203  0.9425  0.7260 -0.4937
  844MOL0     H13889   0.557   0.078   9.373  0.8468  1.7032  1.0717
  844MOL0     H13890   0.397   0.030   9.381  0.0055  0.8905  0.3460
  844MOL0     H13891   0.228   0.155   9.559  0.9651 -1.9104 -0.8851
  844MOL0     H13892   0.184   0.181   9.851  0.2081  0.5652 -0.2080
  844MOL0     H13893   0.321   0.268   9.919  1.3949 -0.6356 -0.9715
  844MOL0     H13894   0.120   0.417   9.866 -1.6554 -3.8925  1.3142
  844MOL0     H13895   0.125   0.367   9.692  1.6412  2.3000 -1.7107
  844MOL0     H13896   0.202   0.576   9.705 -0.2790  0.7392  2.1389
  844MOL0     H13897   0.354   0.466   9.692 -0.7866  0.0259 -1.0660
  844MOL0     H13898   0.366   0.522   9.946  0.5428  0.0544 -0.5406
  844MOL0     H13899   0.232   0.626   9.912 -0.2562 -3.2362  0.4724
  844MOL0     H13900   0.574   0.460   9.819  0.5312 -0.6876 -0.4423
  844MOL0     H13901   0.879   0.430   9.793 -3.2448 -2.4212  3.4132
  844MOL0     H13902   0.749   0.326   9.729 -2.1931  2.0988  0.0983
  844MOL0     H13903   0.883   0.400   9.625  1.9603  2.0691  0.1923
  844MOL0     H13904   0.942   0.881   9.244 -0.8898  0.3516  2.1333
  844MOL0     H13905   1.147   0.881   9.102 -1.1036 -2.0226 -0.8908
  844MOL0     H13906   1.521   0.757   9.288 -3.6056  1.7114  0.7244
  844MOL0     H13907   1.462   0.634   9.165 -2.9034  0.2534  1.0857
  844MOL0     H13908   1.551   0.813   8.994 -1.5191 -0.3767  0.7999
  844MOL0     H13909   1.672   0.850   9.109  0.4758 -0.6367 -1.1837
  844MOL0     H13910   1.626   0.572   9.000  1.4231 -0.2810  2.0030
  844MOL0     H13911   1.742   0.622   9.116  0.0317  0.1010  0.3795
  844MOL0     H13912   1.836   0.792   8.947 -1.6009  1.4300 -1.7444
  844MOL0     H13913   1.865   0.622   8.899  0.1908 -0.0513  2.7719
  844MOL0     H13914   1.655   0.822   8.797  2.0765  1.8063 -2.1671
  844MOL0     H13915   1.644   0.642   8.783  0.6015 -0.8613 -1.3655
  844MOL0     H13916   1.859   0.824   8.702  0.6739 -0.6203 -0.5285
  844MOL0     H13917   1.879   0.664   8.641  2.5913  3.0444  1.6841
  844MOL0     H13918   1.809   0.800   8.465 -2.8151  2.8010 -2.9712
  844MOL0     H13919   1.671   0.856   8.562 -2.6875 -2.6469  2.7159
  844MOL0     H13920   1.580   0.631   8.569  2.1434 -2.6083  1.8784
  844MOL0     H13921   1.717   0.571   8.476 -0.2651  1.0893 -2.1490
  844MOL0     H13922   1.377   0.731   9.426  0.1855  0.9061 -0.4908
  844MOL0     H13923   1.180   0.704   9.561 -3.1216 -1.3453  0.4557
  844MOL0     H13924   0.687   0.823   9.497 -0.7216 -1.5449 -0.7477
  844MOL0     H13925   0.500   0.844   9.645  1.7180  0.6843 -0.9429
  844MOL0     H13926   1.189   0.587   9.091  2.0452  1.9463  0.0820
  844MOL0     H13927   1.399   0.569   8.940 -0.0517 -0.2989 -0.6862
  844MOL0     H13928   1.488   0.326   8.516 -0.2607 -0.4972  2.2651
  844MOL0     H13929   1.666   0.285   8.337  1.5191  1.7409 -0.6492
  844MOL0     H13930   2.077   0.289   8.424 -0.8681  0.6326 -0.9072
  844MOL0     H13931   2.064   0.120   8.488 -0.9487 -0.4225 -0.4672
  844MOL0     H13932   2.222   0.129   8.305  1.5216  0.7501 -2.4588
  844MOL0     H13933   2.103   0.220   8.206  0.5788  0.9522  0.5000
  844MOL0     H13934   1.953   0.018   8.244  0.3757 -0.2978  2.1536
  844MOL0     H13935   2.113  -0.079   8.279  0.4329  0.8238  1.7743
  844MOL0     H13936   2.182  -0.019   8.063 -0.3175 -0.0726  1.3398
  844MOL0     H13937   2.029   0.046   8.029 -1.2248  1.3258  2.4364
  844MOL0     H13938   1.926  -0.370   8.087  0.7614 -1.2881  0.1237
  844MOL0     H13939   1.951   0.223   8.648 -0.5416 -2.1782 -1.4195
  844MOL0     H13940   1.783   0.317   8.822  0.8455  4.1955 -1.1510
  845MOL0     O13941   4.778   6.204   5.332  0.4420  0.4179  0.4731
  845MOL0     C13942   4.737   6.235   5.445  0.4201 -0.0662  0.3681
  845MOL0     O13943   4.718   6.151   5.552 -0.5469 -0.1141  0.1214
  845MOL0     C13944   4.756   6.021   5.544  0.1599  0.0530  0.9816
  845MOL0     C13945   4.681   5.935   5.460 -0.5608  0.6648  0.1547
  845MOL0     C13946   4.717   5.793   5.449 -0.7884  0.6853 -0.1399
  845MOL0     C13947   4.808   5.739   5.540  0.8581  0.3049 -0.0791
  845MOL0     O13948   4.834   5.608   5.545  0.1565 -0.5599 -1.0952
  845MOL0     C13949   4.726   5.516   5.554 -0.2675  0.6665 -0.5497
  845MOL0     C13950   4.707   5.447   5.417 -0.6235  0.0313 -0.1039
  845MOL0     C13951   4.575   5.362   5.398  0.0522 -0.1405 -0.6042
  845MOL0     C13952   4.448   5.433   5.454  0.0205  0.2238 -0.9925
  845MOL0     C13953   4.333   5.400   5.370 -0.2315  0.9537 -0.7024
  845MOL0     C13954   4.307   5.253   5.377  0.6660 -0.1672 -0.1468
  845MOL0     C13955   4.168   5.214   5.331  0.8565 -0.1208 -0.4350
  845MOL0     C13956   4.134   5.268   5.192 -0.6662  0.0647  0.7249
  845MOL0     N13957   4.018   5.194   5.129 -0.4797  1.0719 -0.1257
  845MOL0     C13958   4.010   5.138   4.996 -0.0484 -0.2684 -0.7720
  845MOL0     C13959   3.881   5.111   4.975 -0.8832  0.7344  0.6136
  845MOL0     C13960   3.835   5.053   4.836  0.0724 -0.7875  0.0626
  845MOL0     C13961   3.682   5.023   4.845  0.0679 -0.0476  0.4529
  845MOL0     C13962   3.604   5.008   4.714  0.0467  0.3552  0.8164
  845MOL0     C13963   3.660   4.901   4.644 -1.2389 -0.3036  0.3641
  845MOL0     O13964   3.612   4.903   4.506  0.5946  0.5500  0.6149
  845MOL0     C13965   3.641   4.795   4.424 -0.6054 -0.3553 -0.5492
  845MOL0     C13966   3.579   4.799   4.297 -0.6647  0.6609 -1.5485
  845MOL0     C13967   3.582   4.693   4.214  0.7006 -0.3041 -0.2829
  845MOL0     C13968   3.486   4.691   4.099 -0.1709 -0.2026 -0.3614
  845MOL0     C13969   3.684   4.594   4.238  0.1995 -1.0925  0.0467
  845MOL0     C13970   3.708   4.473   4.147 -0.8728 -0.3054 -0.2107
  845MOL0     O13971   3.603   4.390   4.106  0.2237  0.3338  1.1077
  845MOL0     C13972   3.619   4.301   3.999 -0.1606 -0.2246  0.0923
  845MOL0     C13973   3.513   4.298   3.902 -0.1791  0.0381 -0.8927
  845MOL0     C13974   3.536   4.228   3.783  0.7957 -1.2516  0.4904
  845MOL0     C13975   3.647   4.141   3.765 -0.8192 -0.3151  0.3163
  845MOL0     O13976   3.648   4.044   3.674  0.1157  0.8598 -0.1373
  845MOL0     C13977   3.763   4.063   3.581 -1.1205  0.0613  0.6140
  845MOL0     C13978   3.792   3.925   3.530 -0.2957 -0.1370 -0.4055
  845MOL0     C13979   3.676   3.856   3.465 -0.0118  0.5821 -0.6793
  845MOL0     C13980   3.599   3.939   3.364 -0.5373  0.1829 -0.3233
  845MOL0     C13981   3.498   3.844   3.284 -0.7545 -0.7049 -0.5709
  845MOL0     C13982   3.410   3.905   3.172 -0.4834 -0.4377 -1.1277
  845MOL0     C13983   3.488   3.990   3.073  0.0960  0.4966 -0.1633
  845MOL0     C13984   3.404   4.069   2.973 -0.3296 -0.1422 -0.0940
  845MOL0    Cl13985   3.274   3.971   2.907 -0.3692  0.2466  0.1073
  845MOL0     C13986   3.742   4.142   3.865 -0.0798  0.7468  0.0226
  845MOL0     C13987   3.735   4.226   3.974  0.4345 -0.3472 -0.6242
  845MOL0     O13988   3.825   4.451   4.117 -0.0968 -0.5569  0.1707
  845MOL0     C13989   3.769   4.598   4.349  1.0929  1.1031 -0.3108
  845MOL0     C13990   3.736   4.696   4.454  0.2801  0.2243 -0.3126
  845MOL0     N13991   3.811   5.166   5.087 -0.1763  0.6758 -0.1934
  845MOL0     N13992   3.893   5.218   5.173  0.0514  0.2883 -0.3921
  845MOL0     C13993   4.875   5.829   5.627  0.2204  0.1118 -0.8681
  845MOL0     C13994   4.849   5.967   5.633  0.1909  0.2771  0.0852
  845MOL0     C13995   4.678   6.371   5.455  0.4188 -0.4352 -0.2619
  845MOL0     C13996   4.720   6.460   5.354 -0.4087  0.1080  0.0854
  845MOL0     C13997   4.682   6.592   5.366 -0.3579  0.6301 -0.0017
  845MOL0     C13998   4.607   6.640   5.472  0.4702 -1.0418 -0.1965
  845MOL0     O13999   4.589   6.775   5.483 -0.0181 -0.2164  0.2497
  845MOL0     C14000   4.605   6.851   5.603  0.4583  0.1173 -0.4504
  845MOL0     C14001   4.639   6.997   5.558 -1.2310  0.3765 -0.7186
  845MOL0     C14002   4.651   7.097   5.671 -0.2825  0.7797 -0.9697
  845MOL0     C14003   4.669   7.241   5.647  0.3337  0.3227  0.2463
  845MOL0     C14004   4.532   7.281   5.622 -0.4830  0.1660 -0.3611
  845MOL0     C14005   4.419   7.328   5.614 -1.4565 -0.4636 -0.8614
  845MOL0     C14006   4.553   6.551   5.563 -0.0239 -0.1074  1.0316
  845MOL0     C14007   4.581   6.413   5.550 -0.2610 -0.1099 -0.2206
  845MOL0     H14008   4.602   5.966   5.391  0.6307 -1.3659 -2.3129
  845MOL0     H14009   4.670   5.732   5.372  1.6106 -0.9499 -0.4695
  845MOL0     H14010   4.748   5.439   5.628 -1.1211  0.8420 -0.1053
  845MOL0     H14011   4.635   5.564   5.591  0.0341 -1.2151  3.0050
  845MOL0     H14012   4.729   5.517   5.336  0.3643 -1.2358 -0.9666
  845MOL0     H14013   4.788   5.373   5.410  0.4743  0.7470  3.3755
  845MOL0     H14014   4.570   5.358   5.289 -1.0952  1.4155 -0.6382
  845MOL0     H14015   4.592   5.267   5.450 -1.9638 -1.1938 -1.7577
  845MOL0     H14016   4.425   5.407   5.558  0.2328  1.7589 -0.5385
  845MOL0     H14017   4.461   5.542   5.446 -3.5003  0.7914 -0.5005
  845MOL0     H14018   4.241   5.456   5.394 -0.1534  2.2523 -3.1733
  845MOL0     H14019   4.352   5.431   5.267  2.1932 -0.8005 -0.8507
  845MOL0     H14020   4.382   5.202   5.316 -1.7685 -2.9610 -1.0471
  845MOL0     H14021   4.301   5.218   5.481  3.0418  0.5332  0.2936
  845MOL0     H14022   4.160   5.104   5.331 -0.8427 -0.0823  1.7994
  845MOL0     H14023   4.091   5.252   5.399 -0.5853 -0.7529 -1.6314
  845MOL0     H14024   4.223   5.262   5.128 -0.9949 -0.0310  0.2724
  845MOL0     H14025   4.110   5.375   5.196 -0.2307  0.1672  0.7244
  845MOL0     H14026   4.093   5.144   4.927  0.6275 -2.1788 -0.1912
  845MOL0     H14027   3.858   5.135   4.768 -1.8303  3.1317  3.6664
  845MOL0     H14028   3.879   4.957   4.806 -1.3082 -0.4900 -3.4491
  845MOL0     H14029   3.630   5.108   4.889 -2.6100 -1.5066  0.3175
  845MOL0     H14030   3.664   4.930   4.900  0.6390 -1.5502 -1.7678
  845MOL0     H14031   3.610   5.094   4.647  4.1593 -2.3023 -2.7284
  845MOL0     H14032   3.495   5.003   4.722 -0.3347  3.2675 -0.9885
  845MOL0     H14033   3.650   4.808   4.700  0.3129 -1.2456 -0.8493
  845MOL0     H14034   3.767   4.921   4.630 -1.6482  0.9717 -1.2922
  845MOL0     H14035   3.529   4.888   4.258  0.2401  2.6731  1.4885
  845MOL0     H14036   3.391   4.734   4.132  0.6801  2.2118 -0.8642
  845MOL0     H14037   3.517   4.762   4.021  0.9785  2.3887  2.2715
  845MOL0     H14038   3.472   4.589   4.062  0.4332 -0.8588  1.1568
  845MOL0     H14039   3.432   4.363   3.932  1.3432  0.4259  2.9966
  845MOL0     H14040   3.466   4.215   3.701  1.5571 -0.1472 -0.3600
  845MOL0     H14041   3.736   4.122   3.493  3.9629  0.9762 -0.6272
  845MOL0     H14042   3.848   4.105   3.635  0.0728  0.7912 -1.7013
  845MOL0     H14043   3.883   3.907   3.472  1.0894 -1.5690  2.0583
  845MOL0     H14044   3.809   3.864   3.619  1.2774 -0.9125 -1.1839
  845MOL0     H14045   3.598   3.815   3.531 -1.7943  0.1000 -2.9283
  845MOL0     H14046   3.710   3.773   3.402 -0.5564 -0.3274  0.1920
  845MOL0     H14047   3.546   4.015   3.423  2.0940  0.2601  2.1402
  845MOL0     H14048   3.677   3.983   3.301 -0.1866  1.7709  1.1577
  845MOL0     H14049   3.437   3.787   3.355  2.9942  0.8067  4.4413
  845MOL0     H14050   3.563   3.776   3.228 -0.1712 -0.7173  0.1037
  845MOL0     H14051   3.354   3.821   3.131 -1.0045 -1.1049  0.8235
  845MOL0     H14052   3.334   3.975   3.208  0.9402 -1.0746  3.8739
  845MOL0     H14053   3.560   3.923   3.024 -2.5898 -2.1928 -0.7807
  845MOL0     H14054   3.549   4.066   3.122  0.5453 -0.8684  1.4888
  845MOL0     H14055   3.465   4.094   2.886 -0.4626 -1.4098 -0.5710
  845MOL0     H14056   3.355   4.153   3.023 -3.6549 -1.6195 -0.5633
  845MOL0     H14057   3.826   4.074   3.856  2.3222  3.6192 -0.6958
  845MOL0     H14058   3.803   4.212   4.057 -2.0567 -0.2060  1.5601
  845MOL0     H14059   3.849   4.534   4.385 -0.5218 -1.1966 -0.6249
  845MOL0     H14060   3.791   4.699   4.548  0.8272 -0.0178 -0.6204
  845MOL0     H14061   4.942   5.778   5.696 -0.6478  1.2299  0.8753
  845MOL0     H14062   4.896   6.042   5.696  0.6004  0.4836 -0.4633
  845MOL0     H14063   4.780   6.441   5.265  3.6367  1.4308  2.2821
  845MOL0     H14064   4.712   6.660   5.286  0.3526  1.3309  0.8362
  845MOL0     H14065   4.509   6.849   5.654 -0.1811 -3.0007 -1.5141
  845MOL0     H14066   4.680   6.809   5.671 -1.0669  1.4015  2.1538
  845MOL0     H14067   4.557   7.030   5.494 -0.7355  1.3998 -0.8474
  845MOL0     H14068   4.731   6.986   5.500 -0.6114  0.5569  0.2076
  845MOL0     H14069   4.730   7.070   5.742 -0.5750  2.3568 -0.0002
  845MOL0     H14070   4.566   7.081   5.737 -0.2885 -0.7980 -1.3203
  845MOL0     H14071   4.730   7.268   5.560  2.3250  0.2965  1.5728
  845MOL0     H14072   4.699   7.296   5.737 -0.1033 -1.2175  1.3668
  845MOL0     H14073   4.321   7.368   5.597 -2.7148 -2.2902  1.5166
  845MOL0     H14074   4.484   6.588   5.639  0.9139  3.7221  0.2175
  845MOL0     H14075   4.538   6.336   5.613 -3.7466  1.2263 -0.7895
  846MOL0     O14076   6.808   0.819   1.630  0.7880  0.1218  0.8967
  846MOL0     C14077   6.846   0.877   1.730 -0.5570  0.0249 -0.0904
  846MOL0     O14078   6.975   0.876   1.774  0.1609  0.8223  0.3459
  846MOL0     C14079   7.062   0.793   1.708  0.4261  1.2414 -0.2135
  846MOL0     C14080   7.046   0.653   1.702  0.5807  0.6050  0.1335
  846MOL0     C14081   7.130   0.573   1.618  0.5865 -0.0147  0.5306
  846MOL0     C14082   7.239   0.633   1.550 -0.1729  0.0877  0.2721
  846MOL0     O14083   7.312   0.557   1.457 -0.6586  0.0785 -0.2089
  846MOL0     C14084   7.301   0.414   1.463  0.1186 -0.1608 -0.3094
  846MOL0     C14085   7.400   0.336   1.376  0.2259  0.6603  0.9476
  846MOL0     C14086   7.465   0.217   1.429 -1.2180 -0.4542  0.1372
  846MOL0     C14087   7.366   0.104   1.450  0.0950  0.0721 -0.0854
  846MOL0     C14088   7.444  -0.026   1.486  0.6159 -0.0695 -1.0323
  846MOL0     C14089   7.350  -0.146   1.532 -0.5505 -0.4590  0.7584
  846MOL0     C14090   7.439  -0.279   1.541  0.9727 -0.1541  0.2134
  846MOL0     C14091   7.502  -0.294   1.670  0.1758 -0.1662 -0.3415
  846MOL0     N14092   7.630  -0.361   1.647 -1.0293 -0.3492 -0.4215
  846MOL0     C14093   7.655  -0.496   1.662  0.3438 -0.2027  0.1928
  846MOL0     C14094   7.792  -0.511   1.667  0.7318  0.3135  0.1681
  846MOL0     C14095   7.853  -0.646   1.695  0.3195 -0.5722 -0.4056
  846MOL0     C14096   7.879  -0.738   1.568 -0.2950 -0.1712 -1.0663
  846MOL0     C14097   7.964  -0.859   1.599  0.0783 -0.1951  0.6040
  846MOL0     C14098   8.088  -0.838   1.685 -0.2698  0.2117  0.1758
  846MOL0     O14099   8.144  -0.966   1.698  0.0861 -0.7948  0.2840
  846MOL0     C14100   8.082  -1.056   1.782  0.6447  0.0432 -0.3934
  846MOL0     C14101   8.120  -1.190   1.775  0.1163 -0.5270 -0.3132
  846MOL0     C14102   8.067  -1.289   1.856  0.7014  0.3890 -0.2769
  846MOL0     C14103   8.118  -1.430   1.835  0.1252 -0.4864  0.5990
  846MOL0     C14104   7.963  -1.261   1.953  0.1565  0.6554 -0.5210
  846MOL0     C14105   7.896  -1.364   2.052 -0.9316  0.4422  0.1386
  846MOL0     O14106   7.809  -1.320   2.144 -0.7225 -1.1990 -0.3610
  846MOL0     C14107   7.761  -1.413   2.241 -0.6047 -0.3917  0.9907
  846MOL0     C14108   7.624  -1.410   2.269  0.4208  0.2390  0.2391
  846MOL0     C14109   7.565  -1.488   2.361  0.2820 -0.1906 -0.4769
  846MOL0     C14110   7.650  -1.575   2.438 -0.4752  0.9017 -0.3593
  846MOL0     O14111   7.592  -1.657   2.536  0.0791  0.1454  0.0698
  846MOL0     C14112   7.659  -1.755   2.620 -0.1213 -0.5942  0.5937
  846MOL0     C14113   7.569  -1.875   2.667  0.0592 -0.0107  0.4320
  846MOL0     C14114   7.648  -1.975   2.755 -0.2153 -0.8756  1.0148
  846MOL0     C14115   7.670  -1.921   2.890  0.2810  0.0696  0.2310
  846MOL0     C14116   7.777  -1.994   2.972 -0.9846 -0.4142 -0.4369
  846MOL0     C14117   7.788  -1.914   3.102  0.2031 -0.4627  0.8298
  846MOL0     C14118   7.889  -1.803   3.081 -0.3693  0.7460  0.0197
  846MOL0     C14119   7.849  -1.686   3.171  0.0190 -0.0212  0.5019
  846MOL0    Cl14120   7.989  -1.573   3.141 -0.1630  0.1922 -0.1956
  846MOL0     C14121   7.795  -1.568   2.415  0.2432  0.1348  0.6600
  846MOL0     C14122   7.842  -1.485   2.313 -0.5660  0.8009  0.4173
  846MOL0     O14123   7.930  -1.482   2.041  0.1485  0.2456 -1.4978
  846MOL0     C14124   7.913  -1.125   1.954 -0.6434  0.3253  0.6690
  846MOL0     C14125   7.969  -1.027   1.869 -0.0733  0.0624  0.7261
  846MOL0     N14126   7.852  -0.387   1.665 -0.1768 -0.0886  0.3564
  846MOL0     N14127   7.761  -0.305   1.651 -0.7221 -0.3904  1.2943
  846MOL0     C14128   7.264   0.767   1.573  0.2605 -0.5031 -0.7639
  846MOL0     C14129   7.171   0.848   1.641 -0.5900 -1.2166  0.1469
  846MOL0     C14130   6.745   0.943   1.819 -0.1595  0.3758  0.3436
  846MOL0     C14131   6.767   0.971   1.957 -0.0401 -0.4440 -0.8691
  846MOL0     C14132   6.674   1.048   2.030 -0.0498  1.1859  0.1019
  846MOL0     C14133   6.568   1.105   1.965 -0.4078  0.2025 -1.6865
  846MOL0     O14134   6.489   1.183   2.046 -0.1023  0.4281 -0.6860
  846MOL0     C14135   6.406   1.288   1.999  1.1061 -0.7392  1.1200
  846MOL0     C14136   6.486   1.386   1.913  0.2182  1.0020 -0.5259
  846MOL0     C14137   6.416   1.455   1.796  0.1157 -0.4037  0.4286
  846MOL0     C14138   6.386   1.353   1.684 -0.1744  0.1624 -0.1421
  846MOL0     C14139   6.313   1.417   1.580  0.1400  0.2774  0.2153
  846MOL0     C14140   6.235   1.446   1.485  0.0565 -0.0920 -0.2184
  846MOL0     C14141   6.530   1.051   1.836 -0.4008  0.4114  0.2546
  846MOL0     C14142   6.628   0.987   1.761  0.6006  1.0420  0.2825
  846MOL0     H14143   6.958   0.599   1.734  1.6246 -1.8388 -0.8519
  846MOL0     H14144   7.104   0.469   1.609 -0.5724  0.3686 -0.8346
  846MOL0     H14145   7.309   0.384   1.568 -2.8178 -0.4967 -0.1008
  846MOL0     H14146   7.201   0.379   1.435 -2.0160  2.0921  3.7509
  846MOL0     H14147   7.345   0.314   1.284  0.6169  0.8629  0.6656
  846MOL0     H14148   7.478   0.401   1.337  1.1653  0.2893  2.1642
  846MOL0     H14149   7.546   0.184   1.363 -0.2433 -1.0987  1.6003
  846MOL0     H14150   7.524   0.247   1.516  3.0578  0.5535 -2.7903
  846MOL0     H14151   7.296   0.122   1.532  0.6489 -1.7969  0.8753
  846MOL0     H14152   7.307   0.088   1.359 -1.9280  2.3156  0.7381
  846MOL0     H14153   7.501  -0.055   1.397 -0.6252 -0.7868 -1.6320
  846MOL0     H14154   7.515   0.001   1.564  1.0265  0.9311 -1.7247
  846MOL0     H14155   7.294  -0.119   1.622  0.6102 -0.3001  1.4578
  846MOL0     H14156   7.274  -0.148   1.453  1.3698 -1.3090 -1.1663
  846MOL0     H14157   7.386  -0.370   1.512  1.0617 -1.7982  4.4731
  846MOL0     H14158   7.518  -0.266   1.467  1.1487 -2.3494 -0.0343
  846MOL0     H14159   7.426  -0.339   1.735 -2.5992  4.2174 -0.1607
  846MOL0     H14160   7.521  -0.201   1.724 -1.3877  0.1271 -0.2373
  846MOL0     H14161   7.585  -0.578   1.672  0.4370 -0.5021 -1.3518
  846MOL0     H14162   7.948  -0.620   1.743  0.2109 -0.7997 -0.0605
  846MOL0     H14163   7.793  -0.699   1.770 -2.3831  2.0007 -0.5650
  846MOL0     H14164   7.943  -0.690   1.494  1.8493  0.4731  1.0789
  846MOL0     H14165   7.783  -0.756   1.518 -3.0836  5.8872  1.1605
  846MOL0     H14166   7.997  -0.899   1.503  1.7495 -0.8058  1.3955
  846MOL0     H14167   7.900  -0.942   1.631 -1.5880  1.3086  1.3397
  846MOL0     H14168   8.082  -0.793   1.785  1.1522  1.0807 -0.1084
  846MOL0     H14169   8.151  -0.765   1.635  1.5698 -2.1846 -1.2409
  846MOL0     H14170   8.188  -1.238   1.706  0.9762 -2.2255  1.5901
  846MOL0     H14171   8.167  -1.459   1.929  3.2556 -1.2585 -1.1244
  846MOL0     H14172   8.042  -1.501   1.802  1.4572 -2.6786  1.9899
  846MOL0     H14173   8.205  -1.427   1.768 -0.2345  0.0245  0.1429
  846MOL0     H14174   7.569  -1.344   2.202  0.7670  0.9091  0.6019
  846MOL0     H14175   7.460  -1.460   2.366  0.8112  1.7418  1.8332
  846MOL0     H14176   7.738  -1.804   2.562 -0.4387 -4.5801  3.1449
  846MOL0     H14177   7.715  -1.711   2.703  1.7474 -1.8069  0.0482
  846MOL0     H14178   7.480  -1.839   2.720 -0.2850 -0.1179 -0.0608
  846MOL0     H14179   7.541  -1.922   2.572  0.5216  1.6996 -0.5931
  846MOL0     H14180   7.751  -1.981   2.720 -0.6355 -3.2192 -0.0477
  846MOL0     H14181   7.602  -2.075   2.755 -0.2210 -0.8849  1.9728
  846MOL0     H14182   7.680  -1.812   2.893 -3.7059  0.5862  0.3799
  846MOL0     H14183   7.575  -1.940   2.940 -0.8567 -2.4404 -2.5685
  846MOL0     H14184   7.874  -1.993   2.920 -0.3691 -0.2048  0.6785
  846MOL0     H14185   7.748  -2.098   2.988 -1.9878 -0.0068  0.4759
  846MOL0     H14186   7.688  -1.881   3.134 -0.1673 -2.7624  2.3012
  846MOL0     H14187   7.825  -1.975   3.184  1.2958  1.7003  2.0180
  846MOL0     H14188   7.885  -1.772   2.975 -0.1298 -0.2867 -0.2968
  846MOL0     H14189   7.993  -1.827   3.101 -0.6528  1.0400  2.0216
  846MOL0     H14190   7.848  -1.718   3.276 -1.8138 -0.9055  0.2659
  846MOL0     H14191   7.756  -1.631   3.154 -0.6683  0.2049  4.1401
  846MOL0     H14192   7.874  -1.635   2.451  1.5489  0.3439 -1.5910
  846MOL0     H14193   7.948  -1.475   2.297 -0.3238  1.9651  2.3804
  846MOL0     H14194   7.832  -1.099   2.021 -0.6857 -4.0028  2.6072
  846MOL0     H14195   7.945  -0.923   1.891 -3.4043 -0.4549 -0.0834
  846MOL0     H14196   7.355   0.810   1.533  0.0332 -0.5802 -1.3675
  846MOL0     H14197   7.182   0.956   1.654  1.7400 -1.2471 -1.0244
  846MOL0     H14198   6.850   0.920   2.005 -2.3016 -4.1028 -0.3628
  846MOL0     H14199   6.685   1.058   2.138  2.9883 -0.1328  0.0396
  846MOL0     H14200   6.312   1.249   1.960 -0.5184  0.5538  3.4873
  846MOL0     H14201   6.392   1.344   2.092  3.4402  2.2234 -0.1400
  846MOL0     H14202   6.573   1.336   1.871  0.2010  1.2278 -0.8376
  846MOL0     H14203   6.518   1.463   1.984 -0.1300  2.3833 -1.8012
  846MOL0     H14204   6.467   1.545   1.761 -1.3290 -0.1647 -1.2089
  846MOL0     H14205   6.321   1.484   1.843 -0.1454  0.5100 -0.6144
  846MOL0     H14206   6.323   1.271   1.720  0.0258  0.2736  0.4741
  846MOL0     H14207   6.479   1.308   1.649  0.3048  0.5614  0.5847
  846MOL0     H14208   6.160   1.474   1.414 -1.4422  0.1785  1.4148
  846MOL0     H14209   6.437   1.073   1.786 -0.7770 -0.1712  0.6780
  846MOL0     H14210   6.608   0.983   1.654 -0.6352 -0.2777  0.5412
  847MOL0     O14211   8.371   3.125   1.225  0.0745  0.2182  0.0875
  847MOL0     C14212   8.489   3.150   1.252 -0.5894 -0.2543  1.2957
  847MOL0     O14213   8.544   3.196   1.371  0.6900 -0.3677 -0.5986
  847MOL0     C14214   8.463   3.195   1.480 -0.4258 -0.4451  0.2039
  847MOL0     C14215   8.413   3.087   1.537 -0.0166 -0.7486 -0.1472
  847MOL0     C14216   8.318   3.084   1.637 -0.1223  1.2543 -0.0056
  847MOL0     C14217   8.286   3.204   1.700  0.5015 -0.1267 -0.0066
  847MOL0     O14218   8.204   3.212   1.808  0.3805  0.7674 -0.3559
  847MOL0     C14219   8.265   3.160   1.934 -0.7960  0.1743  0.0674
  847MOL0     C14220   8.176   3.211   2.053  0.4308 -0.2802 -0.9951
  847MOL0     C14221   8.068   3.103   2.076  0.4872  0.1172 -0.1881
  847MOL0     C14222   7.955   3.151   2.156  0.1964  0.0177 -0.1707
  847MOL0     C14223   7.875   3.029   2.221 -0.1439  0.3342  0.9619
  847MOL0     C14224   7.739   3.062   2.264 -0.2983 -0.4156  0.9129
  847MOL0     C14225   7.651   2.933   2.288 -0.3766 -0.6618 -0.0877
  847MOL0     C14226   7.521   2.984   2.360 -0.3978  0.3577 -0.0048
  847MOL0     N14227   7.532   2.970   2.503  0.2348  0.0719  0.1621
  847MOL0     C14228   7.607   3.046   2.581  0.0450 -0.1136  0.4847
  847MOL0     C14229   7.604   2.993   2.699  0.6689 -0.3816  0.2995
  847MOL0     C14230   7.657   3.045   2.831 -0.0393  1.0877  0.6567
  847MOL0     C14231   7.552   3.086   2.939  0.3899  0.5828  0.0335
  847MOL0     C14232   7.470   2.968   2.998 -0.8514 -0.4614  0.1627
  847MOL0     C14233   7.398   3.021   3.121 -0.9737  0.0393 -0.0499
  847MOL0     O14234   7.306   3.130   3.088  0.0750  0.5505 -0.6340
  847MOL0     C14235   7.242   3.185   3.197 -0.2285  1.5717 -0.5425
  847MOL0     C14236   7.193   3.313   3.166  0.1188 -0.0453  0.2466
  847MOL0     C14237   7.128   3.384   3.263  1.4614 -0.6606 -0.2998
  847MOL0     C14238   7.033   3.503   3.215 -0.3739  1.1614 -0.1052
  847MOL0     C14239   7.112   3.326   3.392  0.2234  0.2066  1.1446
  847MOL0     C14240   7.057   3.402   3.510  0.4702 -0.0648  0.2848
  847MOL0     O14241   7.103   3.371   3.633  0.0332  0.6190  0.1072
  847MOL0     C14242   7.090   3.460   3.735 -0.9103  0.0199  0.5004
  847MOL0     C14243   7.159   3.579   3.731  0.9707  0.8766  0.3186
  847MOL0     C14244   7.141   3.673   3.835  0.2069  0.4157  0.7023
  847MOL0     C14245   7.073   3.634   3.956  0.0903  0.6321 -0.0426
  847MOL0     O14246   7.044   3.709   4.068 -0.8450  0.3314  0.2788
  847MOL0     C14247   7.145   3.818   4.086  0.8138  0.2381  0.4582
  847MOL0     C14248   7.129   3.869   4.230 -0.3758  0.5624 -0.3856
  847MOL0     C14249   7.033   3.987   4.248  0.5863  0.2877 -0.5090
  847MOL0     C14250   7.032   4.033   4.395  0.4285 -0.3368  0.1904
  847MOL0     C14251   6.960   3.935   4.482 -1.2113  0.4344  0.8387
  847MOL0     C14252   6.893   4.021   4.589 -0.9095 -0.3975  0.0459
  847MOL0     C14253   6.996   4.098   4.686  0.2718 -0.1393 -0.4996
  847MOL0     C14254   6.945   4.131   4.830  0.2955 -0.7899  0.5539
  847MOL0    Cl14255   6.794   4.244   4.803  0.0175 -0.4143 -0.3081
  847MOL0     C14256   7.036   3.502   3.970  0.7152 -0.3453  0.1784
  847MOL0     C14257   7.043   3.415   3.862 -0.6321  0.5502  0.2815
  847MOL0     O14258   6.974   3.488   3.485 -0.3373  0.3510  0.3634
  847MOL0     C14259   7.165   3.203   3.421  0.0237 -0.3352 -0.3550
  847MOL0     C14260   7.231   3.134   3.325 -0.0698 -0.0509 -0.5792
  847MOL0     N14261   7.521   2.884   2.694  0.4405  0.2353 -0.3652
  847MOL0     N14262   7.487   2.864   2.574 -0.1990 -0.6813  0.1160
  847MOL0     C14263   8.348   3.317   1.643 -0.1734  0.6918 -0.6163
  847MOL0     C14264   8.423   3.318   1.525 -0.4019 -0.4706 -0.7912
  847MOL0     C14265   8.590   3.129   1.140  0.3290  0.4421 -0.1872
  847MOL0     C14266   8.727   3.170   1.138  0.1293 -0.1651 -0.0643
  847MOL0     C14267   8.821   3.127   1.040  0.1475 -0.3027  0.4295
  847MOL0     C14268   8.784   3.047   0.931  0.3614  0.2325 -0.2863
  847MOL0     O14269   8.876   2.995   0.853 -0.2816 -0.9513  0.0504
  847MOL0     C14270   8.848   2.904   0.748  0.9343 -0.2037 -0.7911
  847MOL0     C14271   8.976   2.876   0.662  1.1280  0.4533 -0.0504
  847MOL0     C14272   8.957   2.776   0.557 -0.2081 -0.2786 -0.2838
  847MOL0     C14273   9.060   2.767   0.440  0.0417  0.6061  0.2194
  847MOL0     C14274   9.045   2.871   0.339  0.3118 -0.0430  1.2582
  847MOL0     C14275   8.994   2.954   0.267 -0.0434  0.0591  0.4219
  847MOL0     C14276   8.640   3.017   0.920 -0.3435  0.7861  0.3411
  847MOL0     C14277   8.551   3.071   1.011  0.0880 -0.0711 -0.1583
  847MOL0     H14278   8.425   2.991   1.488 -0.4534  0.0470 -1.8870
  847MOL0     H14279   8.276   2.989   1.667  0.3067  0.7865 -0.8401
  847MOL0     H14280   8.263   3.052   1.917 -1.7447  0.2868 -0.6193
  847MOL0     H14281   8.367   3.198   1.941 -0.8040 -0.0096  1.4802
  847MOL0     H14282   8.237   3.233   2.141  0.1604 -0.0580 -0.8603
  847MOL0     H14283   8.133   3.307   2.023 -2.5706 -0.5160  1.9176
  847MOL0     H14284   8.024   3.068   1.982 -2.1936  4.0225 -0.6070
  847MOL0     H14285   8.118   3.017   2.121 -0.4269  1.0168  2.7426
  847MOL0     H14286   7.992   3.214   2.237  2.5926 -1.2161 -0.2165
  847MOL0     H14287   7.900   3.211   2.084 -1.8141  0.5756  1.7061
  847MOL0     H14288   7.874   2.946   2.150 -0.3670  1.1689 -0.0333
  847MOL0     H14289   7.933   2.991   2.305  1.8744  3.2437  1.0431
  847MOL0     H14290   7.745   3.123   2.355 -0.5458  2.5578 -0.9307
  847MOL0     H14291   7.687   3.122   2.189  0.2839  1.2897  1.8160
  847MOL0     H14292   7.629   2.884   2.193  0.1214 -2.6826  0.7731
  847MOL0     H14293   7.704   2.873   2.362 -2.3675  0.3980  2.3689
  847MOL0     H14294   7.436   2.918   2.339 -1.0196  0.3474  2.3445
  847MOL0     H14295   7.487   3.086   2.341 -0.8347  0.0036 -1.2229
  847MOL0     H14296   7.661   3.138   2.561  3.0762 -2.1583 -1.8688
  847MOL0     H14297   7.709   2.955   2.866  0.8885  0.7787 -1.3766
  847MOL0     H14298   7.726   3.128   2.813  0.1326  0.9371  0.6179
  847MOL0     H14299   7.474   3.153   2.901 -2.2696 -2.1265  0.3400
  847MOL0     H14300   7.608   3.115   3.028  1.7405 -3.2582  0.6381
  847MOL0     H14301   7.530   2.882   3.029 -0.0395  0.1666  0.3888
  847MOL0     H14302   7.389   2.934   2.933 -1.2288  2.4685 -1.0870
  847MOL0     H14303   7.462   3.055   3.203 -1.7945  1.2260  0.1269
  847MOL0     H14304   7.347   2.937   3.168  0.6167  0.8513  3.4729
  847MOL0     H14305   7.199   3.339   3.061  0.1952 -2.1764 -0.3197
  847MOL0     H14306   6.931   3.475   3.242  0.5974 -3.5719 -0.4535
  847MOL0     H14307   7.069   3.589   3.273  1.2789 -0.1894  0.9781
  847MOL0     H14308   7.050   3.516   3.108  3.1617  0.2066  0.2058
  847MOL0     H14309   7.198   3.607   3.634  0.7254 -2.4767 -0.8782
  847MOL0     H14310   7.180   3.775   3.830  4.5402 -1.0121  1.0654
  847MOL0     H14311   7.246   3.777   4.093 -0.3447 -3.4925 -1.8617
  847MOL0     H14312   7.135   3.891   4.005 -1.2307 -1.2648 -0.7244
  847MOL0     H14313   7.100   3.781   4.288  2.1594  0.9470  1.6391
  847MOL0     H14314   7.228   3.897   4.266 -0.5479  2.1065 -1.0336
  847MOL0     H14315   6.930   3.963   4.219  0.2911  0.7866  0.0802
  847MOL0     H14316   7.062   4.070   4.184 -0.0691 -0.2207 -1.4970
  847MOL0     H14317   7.133   4.062   4.425  0.2530  1.2417 -0.6139
  847MOL0     H14318   6.971   4.125   4.390  0.6841 -0.1922 -0.2649
  847MOL0     H14319   7.038   3.866   4.516 -0.6222  0.8089  0.2588
  847MOL0     H14320   6.889   3.872   4.427  1.6317 -0.6234 -1.9526
  847MOL0     H14321   6.828   4.096   4.543  2.0000  3.0501  1.0683
  847MOL0     H14322   6.836   3.948   4.648  0.7331 -3.1824 -1.5808
  847MOL0     H14323   7.012   4.195   4.638 -2.2359  0.3959 -0.3693
  847MOL0     H14324   7.086   4.035   4.690 -0.5508 -1.3960 -1.0022
  847MOL0     H14325   7.019   4.189   4.886 -0.6356 -1.2522  2.3126
  847MOL0     H14326   6.917   4.041   4.884 -0.8265  0.6990  2.5659
  847MOL0     H14327   6.989   3.482   4.066  1.8404  0.9655  1.0399
  847MOL0     H14328   7.007   3.318   3.892  2.1559 -0.1832  1.5713
  847MOL0     H14329   7.154   3.157   3.518  0.8871 -0.0942 -0.1359
  847MOL0     H14330   7.274   3.039   3.356 -3.4058 -0.9734  1.7080
  847MOL0     H14331   8.318   3.404   1.702 -0.5545  1.1554 -1.4617
  847MOL0     H14332   8.458   3.408   1.476 -0.5826 -0.2380 -0.4992
  847MOL0     H14333   8.771   3.229   1.218  0.6815  0.7290 -1.0074
  847MOL0     H14334   8.923   3.160   1.056  0.0432 -1.3934  4.2357
  847MOL0     H14335   8.814   2.812   0.797  0.0300 -0.6240 -2.1501
  847MOL0     H14336   8.771   2.940   0.680 -1.1445  0.0564  1.5829
  847MOL0     H14337   9.057   2.855   0.732 -2.0269  0.4061  3.9008
  847MOL0     H14338   8.991   2.973   0.614  1.6312  0.8108  0.8207
  847MOL0     H14339   8.862   2.812   0.517  0.0652 -1.3768 -2.0273
  847MOL0     H14340   8.945   2.676   0.597 -1.0654 -0.1681 -0.2507
  847MOL0     H14341   9.059   2.665   0.402 -1.2698  0.1425  1.4014
  847MOL0     H14342   9.156   2.788   0.488  0.3380 -0.1260 -0.0402
  847MOL0     H14343   8.929   3.012   0.205 -0.5811 -1.7706 -0.7996
  847MOL0     H14344   8.601   2.961   0.835 -0.8903  0.7976  0.5847
  847MOL0     H14345   8.451   3.032   0.996  1.4728 -2.8848 -3.4744
  848MOL0     O14346   7.740   8.565   2.934  0.2106  0.4532 -0.2447
  848MOL0     C14347   7.676   8.468   2.926 -0.2886  0.7282  0.2063
  848MOL0     O14348   7.599   8.410   3.024  0.1254  0.5594 -0.2366
  848MOL0     C14349   7.607   8.461   3.147 -0.2340  0.4932  1.0183
  848MOL0     C14350   7.630   8.353   3.237 -0.0813 -0.3967 -0.4694
  848MOL0     C14351   7.656   8.382   3.371  0.6009  0.0004 -0.2419
  848MOL0     C14352   7.656   8.514   3.414  0.3590  0.8300  0.8267
  848MOL0     O14353   7.666   8.551   3.539 -0.0662 -0.0499 -0.1158
  848MOL0     C14354   7.799   8.527   3.591  1.3390  0.2343  0.1096
  848MOL0     C14355   7.854   8.657   3.641 -1.3017  0.0835 -0.3194
  848MOL0     C14356   8.009   8.627   3.672  0.3834  0.2467  0.5517
  848MOL0     C14357   8.076   8.751   3.737  0.8351  0.9368 -1.1182
  848MOL0     C14358   8.223   8.746   3.775 -0.0680 -0.0039  0.0147
  848MOL0     C14359   8.257   8.667   3.905  0.0778 -0.3005 -0.2481
  848MOL0     C14360   8.411   8.643   3.924  0.0645  0.1002 -0.8116
  848MOL0     C14361   8.449   8.604   4.068  0.6021 -1.1583  0.7855
  848MOL0     N14362   8.580   8.568   4.089 -0.3115 -0.8021 -0.1731
  848MOL0     C14363   8.669   8.647   4.157 -0.0640  0.0982  0.6131
  848MOL0     C14364   8.774   8.573   4.164  0.3809 -1.0772  0.3191
  848MOL0     C14365   8.904   8.621   4.226  0.0319  0.1445 -0.4648
  848MOL0     C14366   8.892   8.665   4.368 -0.3023  0.1634 -0.2001
  848MOL0     C14367   8.861   8.562   4.470 -0.8792 -0.1231  0.1314
  848MOL0     C14368   8.819   8.615   4.602 -0.5311 -0.1163  0.5690
  848MOL0     O14369   8.712   8.704   4.608 -0.1712  0.4521  0.6210
  848MOL0     C14370   8.584   8.660   4.563 -1.1447 -0.8379 -0.3264
  848MOL0     C14371   8.518   8.557   4.607 -0.1538  0.5961 -0.5223
  848MOL0     C14372   8.393   8.510   4.563 -0.1289  0.2667 -0.7195
  848MOL0     C14373   8.341   8.379   4.625 -0.1685 -0.2364  0.0778
  848MOL0     C14374   8.336   8.576   4.453  0.5104  0.7756  0.5246
  848MOL0     C14375   8.215   8.528   4.381 -0.5750  0.0682  0.0889
  848MOL0     O14376   8.185   8.572   4.262  0.2889  0.4543  0.1171
  848MOL0     C14377   8.098   8.492   4.184 -0.4811  0.5601 -0.5384
  848MOL0     C14378   8.024   8.559   4.094  0.4053  0.4644  0.3433
  848MOL0     C14379   7.928   8.492   4.015 -0.3748 -0.0452  0.0367
  848MOL0     C14380   7.906   8.351   4.020  0.2787  0.0972  0.8921
  848MOL0     O14381   7.810   8.306   3.935  0.1026 -0.4491 -0.1046
  848MOL0     C14382   7.818   8.165   3.908  0.0619  0.0323  1.1833
  848MOL0     C14383   7.711   8.138   3.790 -1.1584 -0.4356  0.3817
  848MOL0     C14384   7.747   8.009   3.712 -0.7356 -0.6162  0.4423
  848MOL0     C14385   7.625   7.960   3.619  0.2698 -0.2798 -0.1065
  848MOL0     C14386   7.676   7.851   3.535 -0.1004  0.3698  0.2704
  848MOL0     C14387   7.737   7.885   3.401 -0.5591 -0.4228 -0.2390
  848MOL0     C14388   7.811   7.770   3.329  0.1972 -1.0971 -0.3410
  848MOL0     C14389   7.733   7.647   3.302 -0.7796 -0.5879 -0.0604
  848MOL0    Cl14390   7.625   7.687   3.163 -0.3710 -0.0238  0.2084
  848MOL0     C14391   7.989   8.286   4.114  0.5898 -0.1931 -0.1028
  848MOL0     C14392   8.094   8.352   4.181 -0.2237 -0.1260 -0.3756
  848MOL0     O14393   8.133   8.464   4.450  0.9641 -0.1241  0.3076
  848MOL0     C14394   8.396   8.691   4.410 -0.6867  1.0534 -0.3829
  848MOL0     C14395   8.523   8.736   4.469 -0.3758 -0.5831 -0.2726
  848MOL0     N14396   8.767   8.454   4.095  0.2838  0.1111  0.0766
  848MOL0     N14397   8.645   8.449   4.053  0.5195 -1.0021 -0.0013
  848MOL0     C14398   7.627   8.606   3.320 -0.0670 -0.4418 -0.2645
  848MOL0     C14399   7.609   8.586   3.186 -0.0791  0.1906  0.2940
  848MOL0     C14400   7.678   8.394   2.797 -0.7575 -0.6630 -0.3076
  848MOL0     C14401   7.761   8.444   2.705  0.4562  0.5449 -0.2316
  848MOL0     C14402   7.767   8.382   2.581  0.3385  0.7999 -0.4199
  848MOL0     C14403   7.695   8.262   2.559  0.6046  0.0562  0.7363
  848MOL0     O14404   7.703   8.199   2.434 -0.3278 -0.2669 -0.0036
  848MOL0     C14405   7.804   8.239   2.342 -0.2464 -0.3476 -0.7939
  848MOL0     C14406   7.798   8.147   2.222  0.4083  1.0140  0.4196
  848MOL0     C14407   7.809   8.001   2.260 -0.2511 -0.1544 -0.7491
  848MOL0     C14408   7.807   7.909   2.143 -1.0724 -0.0702  1.2631
  848MOL0     C14409   7.933   7.887   2.071  0.4802 -0.6293  0.2966
  848MOL0     C14410   8.049   7.888   2.041  0.1249  0.2490  0.2415
  848MOL0     C14411   7.601   8.211   2.650 -0.6997  0.2536 -0.3197
  848MOL0     C14412   7.606   8.277   2.774  0.6138 -0.6464  0.4290
  848MOL0     H14413   7.622   8.248   3.214 -1.4491 -0.3297 -0.3509
  848MOL0     H14414   7.673   8.300   3.440  2.2133  0.7130  0.2513
  848MOL0     H14415   7.788   8.452   3.670 -0.6806  1.5905  1.2105
  848MOL0     H14416   7.861   8.484   3.511 -2.0377 -0.3357 -2.4906
  848MOL0     H14417   7.847   8.720   3.552 -1.6480 -2.7424 -2.4229
  848MOL0     H14418   7.798   8.696   3.727  0.9204 -0.8981  1.6797
  848MOL0     H14419   8.020   8.533   3.727 -0.3981 -0.5651 -0.6138
  848MOL0     H14420   8.052   8.606   3.574 -0.8481  0.6709 -0.1044
  848MOL0     H14421   8.071   8.837   3.669  1.8917  0.3910 -1.9368
  848MOL0     H14422   8.027   8.768   3.833 -1.0658 -1.8604 -1.4780
  848MOL0     H14423   8.284   8.716   3.690 -0.9766  3.0039 -1.8354
  848MOL0     H14424   8.251   8.849   3.800  1.0447 -0.2927  0.0307
  848MOL0     H14425   8.212   8.725   3.986 -4.0696 -2.6767 -0.5588
  848MOL0     H14426   8.195   8.577   3.899 -0.2803 -0.0624 -0.1320
  848MOL0     H14427   8.461   8.577   3.851  2.0237  1.4396 -0.7728
  848MOL0     H14428   8.452   8.741   3.899 -1.9092  0.7615 -1.6375
  848MOL0     H14429   8.386   8.517   4.088 -0.2125 -0.1660  2.7714
  848MOL0     H14430   8.415   8.687   4.131 -1.8694 -0.9685 -0.6513
  848MOL0     H14431   8.653   8.746   4.200  0.1463  0.1186  0.6474
  848MOL0     H14432   8.982   8.545   4.218 -2.9389 -3.2461  0.3264
  848MOL0     H14433   8.941   8.709   4.172  1.9511 -0.2700  0.0899
  848MOL0     H14434   8.829   8.752   4.388 -2.1748 -1.2531  0.3388
  848MOL0     H14435   8.989   8.709   4.394  0.2912 -1.5765  0.7167
  848MOL0     H14436   8.950   8.502   4.490  0.7534  2.5710  1.7043
  848MOL0     H14437   8.782   8.499   4.430  0.1218 -0.4015 -1.4782
  848MOL0     H14438   8.902   8.683   4.619  1.8926 -1.9861 -2.6617
  848MOL0     H14439   8.811   8.535   4.677 -1.3647  0.1389  0.7704
  848MOL0     H14440   8.563   8.495   4.685 -0.6310 -0.0856 -0.7743
  848MOL0     H14441   8.344   8.302   4.548 -1.5139 -0.6657  0.4102
  848MOL0     H14442   8.396   8.342   4.712 -0.4940 -2.6319 -0.6615
  848MOL0     H14443   8.235   8.394   4.648 -0.2022  0.5549 -0.5544
  848MOL0     H14444   8.023   8.668   4.089 -1.6465  0.4400 -1.6160
  848MOL0     H14445   7.862   8.536   3.942 -1.7002  1.9833  2.2928
  848MOL0     H14446   7.919   8.138   3.877 -0.1577 -1.8660  1.9352
  848MOL0     H14447   7.785   8.120   4.002  0.3614  2.6432  2.6249
  848MOL0     H14448   7.612   8.131   3.835 -1.8272  2.1559 -0.5038
  848MOL0     H14449   7.704   8.223   3.722 -0.3107  0.1915  1.0464
  848MOL0     H14450   7.778   7.925   3.775 -2.9157 -3.3377 -1.8357
  848MOL0     H14451   7.830   8.035   3.646  0.1916 -0.5338  1.6087
  848MOL0     H14452   7.556   7.920   3.694  2.7251  1.0379  3.1032
  848MOL0     H14453   7.582   8.048   3.570 -1.3396 -0.4924  0.8471
  848MOL0     H14454   7.592   7.785   3.511  0.1413  1.4411 -4.6306
  848MOL0     H14455   7.738   7.790   3.601  1.0530 -1.7899 -2.6287
  848MOL0     H14456   7.663   7.942   3.343 -1.9823  0.2082  2.0751
  848MOL0     H14457   7.820   7.950   3.431  0.2738  0.1418 -3.3092
  848MOL0     H14458   7.894   7.752   3.397 -1.2040  0.1517  1.8177
  848MOL0     H14459   7.855   7.813   3.239  4.6346 -1.4455  1.4229
  848MOL0     H14460   7.662   7.623   3.381 -1.6782  2.2832  0.1195
  848MOL0     H14461   7.804   7.566   3.287 -0.6613 -0.0188 -3.6326
  848MOL0     H14462   7.987   8.180   4.138  0.4649 -0.1059  0.2759
  848MOL0     H14463   8.132   8.287   4.259 -0.8401  0.8727  0.7892
  848MOL0     H14464   8.358   8.734   4.318 -1.7466 -0.1422 -0.5330
  848MOL0     H14465   8.570   8.823   4.426 -1.0654 -0.2880 -0.4423
  848MOL0     H14466   7.607   8.705   3.360  0.7534  0.8233 -2.7845
  848MOL0     H14467   7.588   8.673   3.124  1.8114  0.1771 -0.4267
  848MOL0     H14468   7.826   8.529   2.721 -0.1144  1.1710 -1.1030
  848MOL0     H14469   7.829   8.422   2.501 -2.4616 -0.6754 -3.5494
  848MOL0     H14470   7.794   8.345   2.315 -2.3029  0.0438  1.1661
  848MOL0     H14471   7.899   8.232   2.395  0.1229  1.2955 -1.1579
  848MOL0     H14472   7.873   8.173   2.146 -1.7553  0.9248 -1.8537
  848MOL0     H14473   7.704   8.157   2.168 -0.2118  1.6258  1.5781
  848MOL0     H14474   7.725   7.985   2.327 -1.9547  1.4439 -2.3826
  848MOL0     H14475   7.904   7.997   2.314  0.5009  0.7615 -1.9254
  848MOL0     H14476   7.732   7.934   2.067 -1.0878 -1.4349  0.7843
  848MOL0     H14477   7.791   7.806   2.178  1.4586 -0.4460  1.4911
  848MOL0     H14478   8.145   7.878   1.994 -1.0502 -0.0661 -2.2656
  848MOL0     H14479   7.551   8.116   2.641  1.2511 -0.6292 -2.7760
  848MOL0     H14480   7.549   8.244   2.860 -1.0406  0.5768 -0.1491
  849MOL0     O14481   0.897   3.416   8.838 -0.5669  0.3367  0.8129
  849MOL0     C14482   0.826   3.359   8.923 -1.5028  0.2101  0.6787
  849MOL0     O14483   0.845   3.240   8.973 -0.6428 -0.2831 -0.5165
  849MOL0     C14484   0.966   3.165   8.947  0.5591 -0.4826  0.4078
  849MOL0     C14485   1.038   3.123   9.054 -0.0816  0.6317  0.1826
  849MOL0     C14486   1.168   3.074   9.032 -0.2447 -0.0745  0.3765
  849MOL0     C14487   1.226   3.060   8.909  0.3922 -0.6606  0.5967
  849MOL0     O14488   1.351   3.000   8.900 -0.3456  0.2975  0.7956
  849MOL0     C14489   1.451   3.076   8.822 -0.2350 -0.3093  0.1949
  849MOL0     C14490   1.588   3.021   8.864 -0.1980  0.4520  0.3528
  849MOL0     C14491   1.707   3.111   8.818  1.0901 -0.0026 -0.0241
  849MOL0     C14492   1.832   3.085   8.901  0.0118  0.1276  0.4803
  849MOL0     C14493   1.947   3.186   8.866 -1.1613  0.2093  0.6599
  849MOL0     C14494   2.078   3.130   8.918  0.2540  0.0102 -0.1091
  849MOL0     C14495   2.202   3.200   8.864 -0.5015  0.0835  0.2762
  849MOL0     C14496   2.302   3.099   8.813 -0.0314 -1.2064 -0.5038
  849MOL0     N14497   2.367   3.033   8.931  0.1688 -0.3241  0.0533
  849MOL0     C14498   2.498   3.059   8.981  0.1739 -0.4494  0.2521
  849MOL0     C14499   2.530   2.959   9.065 -0.0821 -1.0885 -0.2317
  849MOL0     C14500   2.664   2.969   9.135  0.1624  0.3770  0.3909
  849MOL0     C14501   2.770   2.876   9.076  0.1554 -0.9206 -0.1699
  849MOL0     C14502   2.726   2.731   9.118 -0.2369 -0.3316 -0.3120
  849MOL0     C14503   2.856   2.644   9.124 -0.0120 -1.4254 -0.2090
  849MOL0     O14504   2.904   2.609   8.996 -0.2184  0.1810 -0.3246
  849MOL0     C14505   3.030   2.658   8.975 -0.4544  0.6002  0.6101
  849MOL0     C14506   3.143   2.627   9.055  1.1182 -0.3180  0.1800
  849MOL0     C14507   3.271   2.684   9.023 -0.2017  0.2158  0.3971
  849MOL0     C14508   3.384   2.655   9.115  0.3905  0.2901  0.3538
  849MOL0     C14509   3.292   2.770   8.914 -0.0609 -0.2041  0.3600
  849MOL0     C14510   3.418   2.837   8.885 -0.1437 -0.4498 -0.4757
  849MOL0     O14511   3.406   2.948   8.801  0.0327 -0.5679 -0.7950
  849MOL0     C14512   3.504   3.035   8.787 -0.0715 -0.3325 -0.5365
  849MOL0     C14513   3.611   3.064   8.875 -0.8440 -0.1090  0.0444
  849MOL0     C14514   3.705   3.167   8.843  0.7344  0.2271  1.1183
  849MOL0     C14515   3.688   3.248   8.733  0.9480  0.3423  0.4738
  849MOL0     O14516   3.777   3.331   8.676 -0.0808 -0.9679  0.3110
  849MOL0     C14517   3.913   3.337   8.719  0.2149  0.7969 -0.3571
  849MOL0     C14518   3.924   3.463   8.806  0.0104  0.5550 -0.3375
  849MOL0     C14519   3.872   3.579   8.742 -0.0252 -0.1162 -1.5447
  849MOL0     C14520   3.843   3.688   8.848  0.1088  0.3302 -0.7091
  849MOL0     C14521   3.826   3.834   8.775  0.2276 -0.2814  0.3148
  849MOL0     C14522   3.954   3.899   8.718 -0.2018  0.1600  1.1571
  849MOL0     C14523   3.942   4.049   8.707  0.3017 -0.2678  0.0668
  849MOL0     C14524   4.068   4.109   8.668 -0.1400  0.1405 -1.0668
  849MOL0    Cl14525   4.057   4.283   8.722  0.2902  0.8168  0.4007
  849MOL0     C14526   3.562   3.232   8.667 -0.6102 -1.3899  0.1155
  849MOL0     C14527   3.480   3.127   8.683  0.2463  1.0921 -0.4180
  849MOL0     O14528   3.527   2.795   8.917 -0.4158 -0.6024  0.4046
  849MOL0     C14529   3.177   2.791   8.830  0.0447  0.3862  1.0155
  849MOL0     C14530   3.054   2.732   8.855  0.2380 -0.0166 -0.0432
  849MOL0     N14531   2.416   2.888   9.086  0.7056  0.2678  0.6655
  849MOL0     N14532   2.324   2.924   9.000  0.2730  0.0507 -0.3837
  849MOL0     C14533   1.142   3.094   8.798 -0.6541 -0.3701  0.7774
  849MOL0     C14534   1.014   3.148   8.817  0.5611  0.0404  0.2872
  849MOL0     C14535   0.716   3.443   8.962  1.7687  0.1868 -0.4982
  849MOL0     C14536   0.660   3.425   9.092  1.3847  0.5215 -0.7885
  849MOL0     C14537   0.554   3.500   9.145 -0.7818 -0.1722  0.9020
  849MOL0     C14538   0.502   3.605   9.065  0.7926 -0.5701 -0.9549
  849MOL0     O14539   0.399   3.666   9.132  0.5913  0.0592 -0.6203
  849MOL0     C14540   0.322   3.749   9.047 -0.4174 -0.2684 -0.7488
  849MOL0     C14541   0.206   3.807   9.134  0.7862  0.2076  0.6440
  849MOL0     C14542   0.100   3.701   9.186 -0.1846 -0.6069  0.7580
  849MOL0     C14543  -0.010   3.685   9.078 -0.3093 -0.2243  0.7196
  849MOL0     C14544  -0.103   3.795   9.084 -0.4229  0.0154  0.9364
  849MOL0     C14545  -0.187   3.877   9.104  0.0481  0.4983  0.6161
  849MOL0     C14546   0.559   3.631   8.941  0.3087 -0.6296  0.1537
  849MOL0     C14547   0.663   3.552   8.891  0.4611 -0.8654 -0.2238
  849MOL0     H14548   0.994   3.130   9.153 -0.6781  1.6592 -0.1379
  849MOL0     H14549   1.230   3.059   9.120  2.1922  4.6461 -0.2387
  849MOL0     H14550   1.440   3.062   8.714 -0.3618 -1.6046  0.3535
  849MOL0     H14551   1.448   3.183   8.844  0.2148 -0.3295  0.3488
  849MOL0     H14552   1.578   3.018   8.973  1.3224  5.7410  0.9171
  849MOL0     H14553   1.605   2.920   8.828 -1.4195 -0.0159  1.0142
  849MOL0     H14554   1.718   3.101   8.710 -0.0164  3.3330 -0.5856
  849MOL0     H14555   1.676   3.215   8.834  0.5349 -0.5632  3.1750
  849MOL0     H14556   1.815   3.089   9.009  1.4776  1.9505  0.6870
  849MOL0     H14557   1.861   2.980   8.892 -1.4406 -0.7699  4.3210
  849MOL0     H14558   1.947   3.196   8.757  1.3114 -1.9794  0.3622
  849MOL0     H14559   1.928   3.286   8.907  0.6292  1.5870 -1.5961
  849MOL0     H14560   2.072   3.148   9.026  0.9637 -2.8233  0.4966
  849MOL0     H14561   2.080   3.021   8.909  0.4442 -0.6517  5.0066
  849MOL0     H14562   2.166   3.266   8.785 -2.0554 -1.2782 -0.2104
  849MOL0     H14563   2.239   3.263   8.946 -0.4043 -1.1967  1.2339
  849MOL0     H14564   2.387   3.145   8.761 -2.4838  3.1844 -1.1410
  849MOL0     H14565   2.247   3.026   8.753 -1.7806 -0.4800  0.1544
  849MOL0     H14566   2.564   3.139   8.948  1.2277 -1.1661  0.5688
  849MOL0     H14567   2.712   3.068   9.138  2.7205 -0.7941  0.9829
  849MOL0     H14568   2.651   2.937   9.238  3.0025  1.1952  1.1030
  849MOL0     H14569   2.865   2.896   9.127 -0.0970  4.4564 -1.1648
  849MOL0     H14570   2.797   2.886   8.970 -0.4688 -3.8778 -0.6839
  849MOL0     H14571   2.647   2.688   9.056 -2.5196 -0.0169  2.1494
  849MOL0     H14572   2.689   2.727   9.221  1.6824  1.7028  0.5363
  849MOL0     H14573   2.833   2.548   9.172  1.2906 -0.7720  1.8479
  849MOL0     H14574   2.924   2.700   9.189 -1.4273  1.0442 -0.7274
  849MOL0     H14575   3.132   2.552   9.132 -1.0886  1.1091  1.3418
  849MOL0     H14576   3.439   2.577   9.062 -2.3593 -1.4188 -0.1985
  849MOL0     H14577   3.446   2.743   9.137  3.4285 -1.8401  0.9815
  849MOL0     H14578   3.356   2.615   9.213  0.9327  1.6996  1.1053
  849MOL0     H14579   3.627   3.014   8.970  1.2383  2.2743  1.1017
  849MOL0     H14580   3.792   3.169   8.907 -0.7918  0.0478  3.3095
  849MOL0     H14581   3.936   3.251   8.784 -0.9854  2.1308  1.9753
  849MOL0     H14582   3.985   3.340   8.637 -2.5579  3.2612 -2.9137
  849MOL0     H14583   3.895   3.429   8.906  3.0415  1.4666  0.9721
  849MOL0     H14584   4.031   3.477   8.827 -0.1398 -0.1000  0.9629
  849MOL0     H14585   3.778   3.554   8.692 -1.4716 -1.1696  1.4697
  849MOL0     H14586   3.952   3.608   8.672  2.1313 -4.1273 -1.0378
  849MOL0     H14587   3.740   3.665   8.877  0.6364  1.3003  2.2163
  849MOL0     H14588   3.897   3.709   8.940 -1.5641  1.0990  0.1434
  849MOL0     H14589   3.774   3.894   8.850  0.1367 -0.0657  0.0808
  849MOL0     H14590   3.759   3.836   8.689 -0.2205  1.0626  0.6780
  849MOL0     H14591   4.040   3.869   8.780  0.9843 -2.3700 -1.4730
  849MOL0     H14592   3.982   3.866   8.617  1.7423  1.1354  1.3215
  849MOL0     H14593   3.901   4.092   8.798 -0.1099 -2.7419  1.1390
  849MOL0     H14594   3.880   4.077   8.622  2.2842 -2.8573 -2.4547
  849MOL0     H14595   4.101   4.090   8.565 -0.5546 -0.6600 -1.0533
  849MOL0     H14596   4.154   4.061   8.716  0.0924  1.3276 -0.2633
  849MOL0     H14597   3.552   3.303   8.585  2.2584  0.0692  0.9112
  849MOL0     H14598   3.398   3.102   8.616  0.2422 -1.6920  0.4952
  849MOL0     H14599   3.191   2.849   8.739 -0.7944 -0.3958  0.3698
  849MOL0     H14600   2.965   2.740   8.793 -0.0320  2.2027  0.5572
  849MOL0     H14601   1.186   3.065   8.703  0.9423 -1.7344  1.8632
  849MOL0     H14602   0.965   3.175   8.725  3.0815  0.2347 -1.0976
  849MOL0     H14603   0.701   3.344   9.151  0.6430  0.7476  0.0499
  849MOL0     H14604   0.507   3.489   9.242 -2.1815  6.5536  1.4464
  849MOL0     H14605   0.390   3.832   9.024  0.5172 -1.6554 -3.4617
  849MOL0     H14606   0.296   3.715   8.946 -2.4011  1.0412 -0.7217
  849MOL0     H14607   0.156   3.886   9.077 -0.1902 -0.4250  0.5910
  849MOL0     H14608   0.250   3.854   9.222 -1.2215  0.6490  1.4696
  849MOL0     H14609   0.048   3.739   9.274 -1.5700 -0.2177 -0.1992
  849MOL0     H14610   0.152   3.608   9.208  1.3855 -1.0830 -3.7780
  849MOL0     H14611  -0.060   3.590   9.100  2.2201 -1.1870  2.8874
  849MOL0     H14612   0.034   3.671   8.979  0.5845  2.7438  0.6054
  849MOL0     H14613  -0.248   3.964   9.118  1.9411  2.1601 -0.8138
  849MOL0     H14614   0.548   3.715   8.874  2.9802 -0.7216 -0.5332
  849MOL0     H14615   0.706   3.582   8.796  1.4270 -0.8613  0.1988
  850MOL0     O14616   5.451   1.668   5.921 -0.3174  0.0964 -0.8320
  850MOL0     C14617   5.517   1.763   5.878 -0.4766 -0.0119  0.0254
  850MOL0     O14618   5.528   1.791   5.742  0.1270  0.9680 -0.8103
  850MOL0     C14619   5.436   1.748   5.640  1.0158  0.1247 -0.2505
  850MOL0     C14620   5.299   1.717   5.666 -0.1128 -0.7034  1.0894
  850MOL0     C14621   5.207   1.711   5.555 -0.2967  0.2558  0.6359
  850MOL0     C14622   5.258   1.714   5.425  0.9081 -0.6353  0.3689
  850MOL0     O14623   5.189   1.691   5.308 -0.6060 -0.3089 -0.3160
  850MOL0     C14624   5.107   1.578   5.310  0.1921 -0.3810  0.1723
  850MOL0     C14625   5.017   1.560   5.188 -0.6623 -0.6123  0.3948
  850MOL0     C14626   4.918   1.664   5.171  1.3814 -0.1653 -0.2491
  850MOL0     C14627   4.775   1.614   5.181  0.0961 -0.6892  0.5086
  850MOL0     C14628   4.721   1.606   5.316  0.1833 -0.7675 -0.6093
  850MOL0     C14629   4.599   1.521   5.316  0.3243 -0.8307  1.1969
  850MOL0     C14630   4.537   1.492   5.455 -0.3818 -0.2087 -0.2154
  850MOL0     C14631   4.393   1.449   5.435  1.1687  0.5631 -0.2068
  850MOL0     N14632   4.307   1.431   5.557 -0.5300  0.0861 -0.3443
  850MOL0     C14633   4.260   1.530   5.634  0.0941 -0.5523  0.5912
  850MOL0     C14634   4.167   1.469   5.718  0.1460  0.2424 -0.4032
  850MOL0     C14635   4.101   1.549   5.830  0.1412  0.7087 -0.6395
  850MOL0     C14636   3.980   1.637   5.778  0.6982  0.2553 -0.7856
  850MOL0     C14637   3.928   1.718   5.896  0.1530  0.1909 -0.4174
  850MOL0     C14638   3.839   1.643   5.998  0.1023 -0.9306 -0.8081
  850MOL0     O14639   3.750   1.735   6.075  0.1337 -0.2609 -0.7062
  850MOL0     C14640   3.702   1.701   6.193  0.0386  0.7666  0.1437
  850MOL0     C14641   3.651   1.803   6.266  0.1448  0.6347  0.4524
  850MOL0     C14642   3.592   1.773   6.393  0.1899  0.2964  0.5765
  850MOL0     C14643   3.537   1.902   6.451 -0.6125  0.7663  0.0987
  850MOL0     C14644   3.574   1.636   6.437  0.3303  1.3009  0.2748
  850MOL0     C14645   3.494   1.608   6.560  0.6889  0.0148 -0.6361
  850MOL0     O14646   3.513   1.692   6.662 -0.1253 -0.2324  0.5155
  850MOL0     C14647   3.447   1.672   6.780  0.5014  0.3197  0.1420
  850MOL0     C14648   3.516   1.657   6.898 -0.2289  0.4417  0.2652
  850MOL0     C14649   3.448   1.631   7.014 -0.0470 -0.1988 -0.8168
  850MOL0     C14650   3.310   1.621   7.029 -1.3473  0.1303 -0.2380
  850MOL0     O14651   3.266   1.595   7.154  0.3986 -0.0246 -0.4902
  850MOL0     C14652   3.178   1.484   7.158  0.0763  0.6750  0.2893
  850MOL0     C14653   3.081   1.487   7.276  0.1925 -0.6120 -0.7356
  850MOL0     C14654   3.137   1.496   7.423 -0.1965  0.2011 -0.1602
  850MOL0     C14655   3.027   1.470   7.530  1.5752  0.0146  0.7388
  850MOL0     C14656   3.072   1.481   7.671  0.0902 -0.1953 -0.4549
  850MOL0     C14657   3.041   1.615   7.730  0.3948 -0.8815  0.7666
  850MOL0     C14658   3.078   1.623   7.886 -0.3477 -0.1228  0.7462
  850MOL0     C14659   3.051   1.750   7.948  0.3081  0.2899 -0.5891
  850MOL0    Cl14660   2.881   1.777   7.940 -0.1310  0.0836  0.0077
  850MOL0     C14661   3.240   1.641   6.905 -0.4584 -0.0618 -0.2515
  850MOL0     C14662   3.310   1.664   6.784 -0.3362 -0.3500 -0.1372
  850MOL0     O14663   3.426   1.500   6.559 -0.2875  0.3536  0.5688
  850MOL0     C14664   3.611   1.529   6.346 -0.2008 -0.2945  0.3044
  850MOL0     C14665   3.678   1.566   6.227 -0.7009  0.1125  0.6086
  850MOL0     N14666   4.170   1.333   5.685  0.2002  0.1924 -0.8702
  850MOL0     N14667   4.261   1.309   5.599 -0.2848 -0.0862  0.5623
  850MOL0     C14668   5.397   1.734   5.409 -0.8357 -0.2807  0.5957
  850MOL0     C14669   5.493   1.746   5.505  0.5752  1.0020 -0.3603
  850MOL0     C14670   5.595   1.848   5.964  0.5846  1.0585  0.6866
  850MOL0     C14671   5.694   1.937   5.914 -0.3893  0.2311  0.0215
  850MOL0     C14672   5.780   2.009   6.007  1.1448 -0.2071 -0.3764
  850MOL0     C14673   5.741   2.011   6.142  0.0155 -0.6654 -0.2429
  850MOL0     O14674   5.808   2.083   6.242 -0.6439  0.1653  0.4640
  850MOL0     C14675   5.927   2.153   6.199  1.4272 -1.1113  0.9259
  850MOL0     C14676   6.019   2.202   6.303  0.1034  0.1930  0.2820
  850MOL0     C14677   5.983   2.330   6.382  0.5999  0.1514  0.4096
  850MOL0     C14678   6.074   2.356   6.505  0.8614 -0.6968  0.3625
  850MOL0     C14679   6.042   2.492   6.548  0.6851 -0.0752  0.6804
  850MOL0     C14680   6.017   2.602   6.595 -0.8465  0.4742 -0.3215
  850MOL0     C14681   5.636   1.937   6.182  0.3726 -0.0098 -0.5817
  850MOL0     C14682   5.557   1.859   6.102 -1.2324 -1.1229  0.4554
  850MOL0     H14683   5.273   1.716   5.771  2.4719 -2.6302  1.8127
  850MOL0     H14684   5.102   1.690   5.574 -0.3266  1.4035  1.9675
  850MOL0     H14685   5.174   1.492   5.318 -1.7891 -1.9953  0.5069
  850MOL0     H14686   5.043   1.576   5.398  0.6987  3.2189  0.7736
  850MOL0     H14687   5.086   1.569   5.104 -1.6530 -0.6429 -0.4294
  850MOL0     H14688   4.981   1.458   5.178  1.8130 -1.4437 -0.9491
  850MOL0     H14689   4.932   1.739   5.249  2.5974 -0.4735 -0.1534
  850MOL0     H14690   4.920   1.719   5.076 -1.0110  1.1597  0.3944
  850MOL0     H14691   4.708   1.686   5.131  1.7889  0.4753 -0.1624
  850MOL0     H14692   4.773   1.517   5.131  3.4925 -0.1232 -1.0136
  850MOL0     H14693   4.797   1.570   5.387 -0.4281  0.0208  0.4756
  850MOL0     H14694   4.681   1.704   5.343  1.6422 -1.0250  3.2163
  850MOL0     H14695   4.518   1.563   5.256  0.8173 -4.0340 -2.1563
  850MOL0     H14696   4.619   1.424   5.269  3.0869 -0.1748  0.8206
  850MOL0     H14697   4.597   1.410   5.494 -0.1278 -0.2992 -0.7910
  850MOL0     H14698   4.549   1.585   5.510  2.7414  0.0890 -1.2202
  850MOL0     H14699   4.385   1.354   5.381 -0.1560 -1.1849  2.7922
  850MOL0     H14700   4.344   1.526   5.375  2.4715  2.6478  1.2817
  850MOL0     H14701   4.282   1.636   5.628 -0.4550 -0.4041  1.1335
  850MOL0     H14702   4.066   1.478   5.905  0.2250  2.0220  0.6946
  850MOL0     H14703   4.166   1.610   5.894  0.5624 -1.9352  1.6553
  850MOL0     H14704   3.901   1.565   5.752  1.4521 -0.7518 -0.3440
  850MOL0     H14705   4.000   1.699   5.690 -1.5575 -0.2019 -1.6949
  850MOL0     H14706   3.873   1.811   5.876  0.5051 -0.1715 -3.6530
  850MOL0     H14707   4.021   1.750   5.943 -0.8495 -0.8374  2.4843
  850MOL0     H14708   3.904   1.591   6.069  0.6526  1.2420  0.3712
  850MOL0     H14709   3.777   1.565   5.952  0.2289 -1.5138 -0.0122
  850MOL0     H14710   3.636   1.902   6.224 -0.5135  0.9269  1.3341
  850MOL0     H14711   3.499   1.895   6.554  3.7973 -1.4989  1.8607
  850MOL0     H14712   3.613   1.980   6.438  1.0345 -0.5529  1.2674
  850MOL0     H14713   3.448   1.925   6.392  0.3508  2.7386 -0.6586
  850MOL0     H14714   3.622   1.682   6.893 -0.3307  0.9508  0.6119
  850MOL0     H14715   3.518   1.624   7.097  0.3344 -1.5143 -1.2361
  850MOL0     H14716   3.115   1.479   7.069  0.1835 -0.5673  0.2595
  850MOL0     H14717   3.236   1.392   7.171 -1.8365 -0.2881  2.9599
  850MOL0     H14718   3.010   1.570   7.266  1.6475  1.2889  2.7719
  850MOL0     H14719   3.016   1.400   7.263  1.5080 -1.1610 -5.1509
  850MOL0     H14720   3.172   1.600   7.432 -3.6181  1.3281  2.1496
  850MOL0     H14721   3.221   1.427   7.435 -0.4568  0.1812  2.1761
  850MOL0     H14722   2.951   1.546   7.512  3.4008  1.5715 -0.7581
  850MOL0     H14723   2.967   1.381   7.510  1.7247  0.2884 -1.1453
  850MOL0     H14724   3.178   1.455   7.676  1.3035  3.3452 -3.4244
  850MOL0     H14725   3.009   1.410   7.726 -1.1135  0.6585 -0.6834
  850MOL0     H14726   3.108   1.688   7.683  1.9332 -1.7690  1.5009
  850MOL0     H14727   2.934   1.638   7.720  0.6882 -0.2092 -1.6042
  850MOL0     H14728   3.182   1.591   7.891 -0.5929 -1.6380 -2.0150
  850MOL0     H14729   3.016   1.560   7.950 -1.3352  1.2384  1.1908
  850MOL0     H14730   3.107   1.830   7.898 -0.0493 -0.8239 -2.9141
  850MOL0     H14731   3.080   1.745   8.053 -0.7794 -2.5412 -0.3295
  850MOL0     H14732   3.133   1.624   6.904 -0.3839 -0.8821  1.5292
  850MOL0     H14733   3.256   1.683   6.691  0.2796  0.3386 -0.3646
  850MOL0     H14734   3.621   1.429   6.387  3.6850  1.4722  4.5786
  850MOL0     H14735   3.708   1.484   6.162 -3.1489  0.5770 -1.2581
  850MOL0     H14736   5.435   1.730   5.307 -2.8232  2.8198 -0.4326
  850MOL0     H14737   5.597   1.760   5.477  1.0912  1.9352  1.7501
  850MOL0     H14738   5.716   1.952   5.809  1.4992  0.6927  0.4339
  850MOL0     H14739   5.866   2.059   5.963  1.3663 -0.5724 -0.3566
  850MOL0     H14740   5.983   2.086   6.134 -0.2534 -2.1632  0.4992
  850MOL0     H14741   5.907   2.242   6.139 -0.3333 -1.5833  0.7552
  850MOL0     H14742   6.110   2.227   6.247 -0.6768 -2.5351 -2.4338
  850MOL0     H14743   6.043   2.112   6.360  0.8145 -0.2737 -0.7343
  850MOL0     H14744   5.884   2.321   6.428  1.0837 -0.3290  1.4103
  850MOL0     H14745   5.991   2.415   6.314  2.6486 -1.2084 -1.1639
  850MOL0     H14746   6.179   2.353   6.475  0.6782 -1.4966 -0.2459
  850MOL0     H14747   6.055   2.281   6.582 -0.3182  1.3752  2.1968
  850MOL0     H14748   5.992   2.693   6.645  1.1329  1.7524 -1.5376
  850MOL0     H14749   5.618   1.913   6.287  1.0913  2.8958  0.2983
  850MOL0     H14750   5.482   1.796   6.147 -2.0514 -0.3936  0.1486
  851MOL0     O14751   7.323   3.037   3.807  0.2923 -0.0025 -0.9758
  851MOL0     C14752   7.228   2.982   3.864  0.1942  0.3639 -0.6786
  851MOL0     O14753   7.163   2.871   3.822  0.1264  0.2489  0.9235
  851MOL0     C14754   7.195   2.818   3.698 -1.1144  0.2730  0.3353
  851MOL0     C14755   7.313   2.737   3.664  1.3589 -1.2517  0.3512
  851MOL0     C14756   7.313   2.677   3.537 -0.0326 -0.3925 -0.8147
  851MOL0     C14757   7.209   2.698   3.440 -0.3406  0.1455  0.5452
  851MOL0     O14758   7.199   2.629   3.325  0.0476 -0.1293  0.7187
  851MOL0     C14759   7.292   2.516   3.289  0.0129  0.3563 -0.7945
  851MOL0     C14760   7.243   2.426   3.171 -0.7676 -0.4982  0.5015
  851MOL0     C14761   7.320   2.296   3.198  0.3878  0.0074  0.7242
  851MOL0     C14762   7.279   2.186   3.105 -0.2574  0.3833  0.9533
  851MOL0     C14763   7.358   2.057   3.141  0.2208 -0.2540  0.4566
  851MOL0     C14764   7.281   1.947   3.062 -0.6163  0.5381  0.7982
  851MOL0     C14765   7.352   1.813   3.077 -0.5814  0.0837 -0.9286
  851MOL0     C14766   7.266   1.702   3.006 -0.4367  0.4130 -0.7442
  851MOL0     N14767   7.328   1.566   3.016 -0.3525 -0.6459 -0.2645
  851MOL0     C14768   7.288   1.473   3.105  0.3402  0.5369 -0.2473
  851MOL0     C14769   7.380   1.367   3.086  0.2367 -0.8179  0.4757
  851MOL0     C14770   7.398   1.237   3.158 -0.1240 -0.2705  0.9980
  851MOL0     C14771   7.340   1.117   3.087  0.3945 -0.9423 -0.8062
  851MOL0     C14772   7.433   1.062   2.983 -0.4148  0.2489  0.4767
  851MOL0     C14773   7.405   0.914   2.969  0.1340 -0.4410 -0.4228
  851MOL0     O14774   7.431   0.832   3.085  0.3728 -0.1148  0.5203
  851MOL0     C14775   7.561   0.816   3.130 -1.3061  1.1853 -0.0952
  851MOL0     C14776   7.604   0.865   3.253 -0.7543  0.1497  0.6109
  851MOL0     C14777   7.746   0.864   3.286 -0.2909 -0.3351 -0.0832
  851MOL0     C14778   7.771   0.917   3.425 -1.3577 -0.5670 -0.4297
  851MOL0     C14779   7.838   0.788   3.210 -0.3034  0.7732 -0.6324
  851MOL0     C14780   7.982   0.765   3.246 -0.0658  0.5593 -1.0557
  851MOL0     O14781   8.058   0.699   3.150  1.0078 -0.1300  0.1898
  851MOL0     C14782   8.178   0.642   3.181  0.0275  0.4691 -0.6867
  851MOL0     C14783   8.257   0.598   3.075 -0.4898 -0.1083  0.3826
  851MOL0     C14784   8.388   0.549   3.089  0.3336  0.2515 -0.4289
  851MOL0     C14785   8.433   0.519   3.220 -1.1478 -0.7145 -0.1446
  851MOL0     O14786   8.553   0.450   3.246 -0.3384  0.4029  0.7067
  851MOL0     C14787   8.665   0.460   3.149  0.6406 -0.2892  0.5586
  851MOL0     C14788   8.649   0.345   3.049 -0.2545 -0.7517 -0.6333
  851MOL0     C14789   8.754   0.361   2.937 -0.3857  0.8960  0.0601
  851MOL0     C14790   8.827   0.237   2.894 -0.6835  0.8711 -0.3294
  851MOL0     C14791   8.934   0.280   2.793  0.5374 -0.8519  0.5753
  851MOL0     C14792   9.058   0.190   2.778  0.4045  0.0245 -0.7502
  851MOL0     C14793   9.114   0.209   2.635  0.4548  0.0261 -0.3047
  851MOL0     C14794   9.237   0.131   2.610 -0.0433 -0.0496  0.0667
  851MOL0    Cl14795   9.292   0.148   2.440 -0.0052 -0.3122 -0.1139
  851MOL0     C14796   8.355   0.548   3.326  0.5409  0.3914 -0.0227
  851MOL0     C14797   8.236   0.623   3.306  0.9830 -0.1350 -0.5691
  851MOL0     O14798   8.029   0.825   3.342 -0.6338 -0.1250  0.6592
  851MOL0     C14799   7.788   0.734   3.090 -0.1035 -0.3273 -0.1677
  851MOL0     C14800   7.655   0.758   3.050 -0.2197  1.0681  0.4041
  851MOL0     N14801   7.441   1.388   2.961 -0.0036  0.8126  0.2268
  851MOL0     N14802   7.412   1.515   2.923  0.0553 -0.1839 -0.2203
  851MOL0     C14803   7.111   2.792   3.470  1.4210  0.2004  0.6798
  851MOL0     C14804   7.100   2.838   3.602  0.3091 -0.5166  1.2203
  851MOL0     C14805   7.180   3.050   3.983  0.1167 -1.0639 -0.3212
  851MOL0     C14806   7.074   3.001   4.061  0.8851 -0.0548  0.8892
  851MOL0     C14807   7.016   3.085   4.162  0.0844 -0.0012  0.1398
  851MOL0     C14808   7.073   3.206   4.209 -0.1381 -0.2388  0.8375
  851MOL0     O14809   7.042   3.283   4.322 -0.0235 -0.0721  0.8563
  851MOL0     C14810   6.995   3.213   4.442  0.9120 -0.0797 -0.5445
  851MOL0     C14811   7.116   3.154   4.523  0.7264 -0.9449  0.3014
  851MOL0     C14812   7.226   3.256   4.559  1.0996 -0.4849 -0.9607
  851MOL0     C14813   7.339   3.259   4.460 -1.2041  0.4345  0.3704
  851MOL0     C14814   7.437   3.366   4.501 -0.6099  0.1693  0.7402
  851MOL0     C14815   7.534   3.436   4.540 -0.1511  0.5908 -0.5966
  851MOL0     C14816   7.175   3.253   4.130 -0.1105 -0.0366  0.4579
  851MOL0     C14817   7.228   3.177   4.024  0.7010 -0.3221  0.4673
  851MOL0     H14818   7.392   2.719   3.736  1.3358 -2.0509  0.1806
  851MOL0     H14819   7.396   2.610   3.519 -0.5298 -1.0267 -0.8039
  851MOL0     H14820   7.394   2.551   3.275  0.1665 -0.1329 -0.9140
  851MOL0     H14821   7.284   2.455   3.380 -2.4724  3.6123  1.4275
  851MOL0     H14822   7.136   2.403   3.175 -1.1603  1.1635  0.2891
  851MOL0     H14823   7.261   2.462   3.070 -1.3121 -0.2398  0.4969
  851MOL0     H14824   7.425   2.319   3.180  0.3346 -1.2350 -1.5235
  851MOL0     H14825   7.302   2.262   3.301  0.4351  1.3843  1.2099
  851MOL0     H14826   7.174   2.159   3.124  0.0298 -0.1091  1.8744
  851MOL0     H14827   7.299   2.206   2.999  1.6715  1.4897  1.4876
  851MOL0     H14828   7.461   2.056   3.104  1.2888 -2.7483  3.1586
  851MOL0     H14829   7.366   2.035   3.248 -0.7384 -0.7186  0.4481
  851MOL0     H14830   7.179   1.937   3.097 -2.7368  0.0493 -4.5079
  851MOL0     H14831   7.275   1.961   2.953 -0.2263 -2.5271  0.2778
  851MOL0     H14832   7.452   1.809   3.034 -0.9341 -2.0509 -1.6527
  851MOL0     H14833   7.360   1.782   3.182 -3.7222 -2.6432 -1.3379
  851MOL0     H14834   7.261   1.727   2.899  1.3478 -4.2897 -2.1586
  851MOL0     H14835   7.174   1.700   3.064  1.7206  1.0533  3.0695
  851MOL0     H14836   7.222   1.493   3.189  1.7910 -2.2509  1.7127
  851MOL0     H14837   7.502   1.225   3.189 -0.9620  0.6212  4.5697
  851MOL0     H14838   7.339   1.241   3.249 -0.4352  0.0371  0.7833
  851MOL0     H14839   7.240   1.128   3.044  0.9979  1.8005 -1.7115
  851MOL0     H14840   7.342   1.044   3.169 -2.1200 -0.9181 -0.6654
  851MOL0     H14841   7.538   1.087   3.001 -1.5269  2.9896  4.8516
  851MOL0     H14842   7.412   1.117   2.891  2.2313  2.7599  1.2020
  851MOL0     H14843   7.448   0.865   2.881  2.3404 -0.3017  0.5288
  851MOL0     H14844   7.295   0.910   2.966 -0.3875  4.4905  2.2098
  851MOL0     H14845   7.520   0.903   3.310 -2.7530 -0.6261 -1.6447
  851MOL0     H14846   7.868   0.967   3.429  0.5911 -4.0477 -0.2358
  851MOL0     H14847   7.693   0.984   3.462 -0.1025  0.3298  0.6979
  851MOL0     H14848   7.788   0.837   3.497  2.4455  1.3042  1.0284
  851MOL0     H14849   8.215   0.615   2.976  1.0376  4.5015  0.2625
  851MOL0     H14850   8.451   0.535   3.002  2.1037  0.1780  0.8044
  851MOL0     H14851   8.666   0.551   3.090  0.8638 -0.3128  0.5275
  851MOL0     H14852   8.762   0.457   3.199  1.9180  0.8128 -1.7275
  851MOL0     H14853   8.663   0.250   3.102  0.6922 -1.3445 -1.8661
  851MOL0     H14854   8.552   0.337   2.999 -1.9629 -5.2418  2.7237
  851MOL0     H14855   8.830   0.432   2.972  0.5722  0.2957 -0.7511
  851MOL0     H14856   8.716   0.403   2.844 -1.3826  1.5272  0.7348
  851MOL0     H14857   8.864   0.184   2.982 -1.8789  1.8131  0.7792
  851MOL0     H14858   8.753   0.171   2.848  0.6702 -0.6460 -0.4595
  851MOL0     H14859   8.978   0.375   2.824  1.1053 -1.3370  1.2948
  851MOL0     H14860   8.876   0.307   2.704  1.4637  0.8163  0.4233
  851MOL0     H14861   9.135   0.221   2.849 -0.7225 -0.2610  0.6485
  851MOL0     H14862   9.041   0.083   2.793 -1.0192  0.1815 -1.0447
  851MOL0     H14863   9.135   0.313   2.608 -1.5258 -0.0647 -2.4400
  851MOL0     H14864   9.031   0.178   2.572  0.2132 -0.5337  0.2690
  851MOL0     H14865   9.216   0.026   2.632  1.5954 -0.3422  0.3569
  851MOL0     H14866   9.311   0.170   2.681 -1.4260 -2.7594  3.2641
  851MOL0     H14867   8.368   0.531   3.433 -1.8099  0.8215  0.3780
  851MOL0     H14868   8.180   0.638   3.398 -1.1296 -4.7966 -0.8253
  851MOL0     H14869   7.860   0.694   3.020 -0.4987  0.1866 -0.8787
  851MOL0     H14870   7.626   0.712   2.956  2.2926  1.2297 -0.5412
  851MOL0     H14871   7.039   2.813   3.392  2.1438 -2.4338 -0.8180
  851MOL0     H14872   7.013   2.896   3.631 -1.2148 -0.8105 -2.3480
  851MOL0     H14873   7.029   2.907   4.032  1.4558  0.1077 -0.5638
  851MOL0     H14874   6.925   3.059   4.217  1.7481 -0.8880  2.6385
  851MOL0     H14875   6.939   3.288   4.500  0.6308  1.9492 -3.2505
  851MOL0     H14876   6.924   3.132   4.430  0.6902  0.0724 -0.2687
  851MOL0     H14877   7.176   3.082   4.466  3.1868  1.4022 -0.3123
  851MOL0     H14878   7.068   3.127   4.618 -1.2868 -0.1286 -0.4470
  851MOL0     H14879   7.257   3.228   4.660 -2.2647  0.2727  0.4442
  851MOL0     H14880   7.179   3.353   4.581  3.8751  0.9479 -0.8884
  851MOL0     H14881   7.307   3.286   4.359  0.8218 -2.0156 -1.0246
  851MOL0     H14882   7.388   3.162   4.465 -2.0593  0.0239  4.7702
  851MOL0     H14883   7.621   3.494   4.564  1.8591 -2.4651  0.0024
  851MOL0     H14884   7.226   3.346   4.151  0.9374 -0.7719  1.3061
  851MOL0     H14885   7.308   3.232   3.975  0.6387 -0.6232  0.0239
  852MOL0     O14886   3.606   9.283   9.055  0.1686 -0.5115 -0.5354
  852MOL0     C14887   3.611   9.258   9.178  1.0253  0.6280 -1.2070
  852MOL0     O14888   3.572   9.141   9.236  0.7355  0.1827 -0.5023
  852MOL0     C14889   3.568   9.031   9.151 -0.5608  0.1993  0.9413
  852MOL0     C14890   3.640   8.921   9.181 -0.1623 -0.7297 -0.5292
  852MOL0     C14891   3.638   8.804   9.105  0.0501 -0.0172  0.3496
  852MOL0     C14892   3.562   8.800   8.993  1.0339  0.1149 -0.4635
  852MOL0     O14893   3.579   8.684   8.922  0.6288 -0.6463 -0.4603
  852MOL0     C14894   3.468   8.647   8.839 -0.2641  0.2209  0.0915
  852MOL0     C14895   3.478   8.496   8.797  0.1492 -0.1820  0.4835
  852MOL0     C14896   3.366   8.477   8.680 -0.4485 -0.4796 -0.6252
  852MOL0     C14897   3.376   8.344   8.603 -0.3973 -0.3921  0.1853
  852MOL0     C14898   3.318   8.233   8.683 -0.4783 -0.1134 -0.6557
  852MOL0     C14899   3.308   8.096   8.609 -0.4356 -0.1042 -0.1519
  852MOL0     C14900   3.434   8.043   8.521 -0.6233  0.4401  0.1087
  852MOL0     C14901   3.431   7.893   8.476  0.6208 -0.1557 -0.0597
  852MOL0     N14902   3.366   7.807   8.576 -0.1971 -0.0832  0.2240
  852MOL0     C14903   3.427   7.734   8.675 -0.4113  0.7299  0.3212
  852MOL0     C14904   3.330   7.654   8.731 -0.3719  0.3768 -0.2953
  852MOL0     C14905   3.357   7.546   8.828  0.1717 -0.3622 -0.0981
  852MOL0     C14906   3.351   7.588   8.974 -0.4279 -0.3830  0.0916
  852MOL0     C14907   3.483   7.613   9.046 -0.8868  0.7884 -0.2053
  852MOL0     C14908   3.511   7.756   9.092  0.0483  0.4126 -0.0753
  852MOL0     O14909   3.500   7.830   8.974 -0.4517 -0.0708  0.1924
  852MOL0     C14910   3.457   7.956   8.998 -0.1241 -0.1026  0.2085
  852MOL0     C14911   3.535   8.037   9.081 -0.2479  0.0415  0.4643
  852MOL0     C14912   3.489   8.157   9.110  0.0551 -0.1498 -0.4752
  852MOL0     C14913   3.596   8.250   9.169  0.2610  0.1623  0.2304
  852MOL0     C14914   3.360   8.203   9.077 -0.6105 -0.0578 -0.0825
  852MOL0     C14915   3.299   8.336   9.102  0.8279  0.0752  0.6501
  852MOL0     O14916   3.331   8.388   9.222 -0.1526 -0.1839  0.2448
  852MOL0     C14917   3.265   8.497   9.258 -0.1502 -0.3753  0.1440
  852MOL0     C14918   3.130   8.500   9.295  0.2219  0.3202  0.4609
  852MOL0     C14919   3.061   8.620   9.320 -0.1706  0.1614 -0.1893
  852MOL0     C14920   3.135   8.734   9.339  0.5647  0.3822 -0.6917
  852MOL0     O14921   3.081   8.852   9.366  0.4646 -0.3635  0.3878
  852MOL0     C14922   2.954   8.854   9.440 -0.1321  0.8856 -0.0037
  852MOL0     C14923   2.927   8.996   9.487 -0.0358 -0.2693  0.5007
  852MOL0     C14924   3.006   9.023   9.625 -0.2870 -1.1518 -0.4286
  852MOL0     C14925   2.964   9.155   9.681 -1.0307  0.9948 -0.6655
  852MOL0     C14926   3.022   9.165   9.827  0.1901 -0.3249 -1.2571
  852MOL0     C14927   3.174   9.181   9.837  0.1594  0.0526 -0.2192
  852MOL0     C14928   3.212   9.181   9.981  1.0318  0.6071  0.2271
  852MOL0     C14929   3.365   9.204   9.984  0.8086 -0.8344  0.5978
  852MOL0    Cl14930   3.394   9.385   9.980  0.0046  0.1446  0.0883
  852MOL0     C14931   3.270   8.733   9.304  1.0566 -0.1707 -0.7822
  852MOL0     C14932   3.333   8.620   9.264  0.7490  0.1823  0.8126
  852MOL0     O14933   3.207   8.373   9.025 -0.1975 -0.2337 -0.1343
  852MOL0     C14934   3.279   8.111   9.016 -0.3304  0.7801 -1.1019
  852MOL0     C14935   3.327   7.995   8.961 -0.0362 -0.0437 -0.3342
  852MOL0     N14936   3.217   7.682   8.663 -0.2023  0.3639  0.2951
  852MOL0     N14937   3.230   7.780   8.576  0.4858 -0.0690 -1.3180
  852MOL0     C14938   3.472   8.907   8.962 -0.9483  0.9319  0.5171
  852MOL0     C14939   3.477   9.016   9.051 -0.9552  0.5975  0.0763
  852MOL0     C14940   3.674   9.359   9.267 -0.2483 -0.4992  0.6461
  852MOL0     C14941   3.676   9.501   9.238  0.6898  0.5359  0.2492
  852MOL0     C14942   3.705   9.597   9.333  0.3756 -0.4994  0.5817
  852MOL0     C14943   3.758   9.549   9.456 -0.1154 -0.6708 -0.2566
  852MOL0     O14944   3.795   9.637   9.563  0.0961 -0.3969  0.3118
  852MOL0     C14945   3.766   9.779   9.567 -0.0581  0.1251  0.3401
  852MOL0     C14946   3.632   9.800   9.635 -0.4389  0.9958  0.0049
  852MOL0     C14947   3.605   9.962   9.642 -0.7032  1.1457 -0.4982
  852MOL0     C14948   3.491  10.002   9.551 -0.4566  0.2789 -0.0310
  852MOL0     C14949   3.518   9.970   9.417 -1.1252  0.6488  0.1384
  852MOL0     C14950   3.538   9.948   9.301  0.2481  0.3769 -0.3332
  852MOL0     C14951   3.770   9.408   9.479  0.1590 -0.5270  0.1450
  852MOL0     C14952   3.736   9.320   9.382  0.0859 -0.1515  0.5414
  852MOL0     H14953   3.706   8.942   9.264 -0.3577  5.3639 -1.4919
  852MOL0     H14954   3.700   8.718   9.130 -4.4099 -3.1923  1.6978
  852MOL0     H14955   3.376   8.660   8.897  0.1708  0.6439  0.7053
  852MOL0     H14956   3.473   8.712   8.752  3.3654 -0.0413 -0.0640
  852MOL0     H14957   3.575   8.471   8.754 -1.0799 -1.5715 -1.7368
  852MOL0     H14958   3.452   8.434   8.883  1.7031 -3.0021 -0.9520
  852MOL0     H14959   3.266   8.491   8.720  0.2589  3.6384  0.2153
  852MOL0     H14960   3.385   8.562   8.613 -1.6727  2.7331  2.7451
  852MOL0     H14961   3.329   8.356   8.505  0.7101  0.1272 -0.3014
  852MOL0     H14962   3.484   8.331   8.587  0.0117  1.3182  1.2772
  852MOL0     H14963   3.382   8.222   8.770  0.3714  0.0192 -1.2528
  852MOL0     H14964   3.221   8.258   8.728 -2.1999  0.1529 -4.1741
  852MOL0     H14965   3.293   8.026   8.691 -0.8301 -2.9870 -2.4874
  852MOL0     H14966   3.219   8.095   8.546 -0.7281  2.4262  0.1140
  852MOL0     H14967   3.458   8.102   8.432  1.6010 -1.4578 -0.6561
  852MOL0     H14968   3.516   8.052   8.593  0.4056 -3.0784 -0.4378
  852MOL0     H14969   3.533   7.856   8.458  1.7089  0.2925  4.1082
  852MOL0     H14970   3.379   7.895   8.381 -2.7106 -0.2504  1.6197
  852MOL0     H14971   3.533   7.725   8.699 -0.2303  2.8473  0.5571
  852MOL0     H14972   3.277   7.474   8.811 -1.4969  0.8111  2.1684
  852MOL0     H14973   3.449   7.491   8.806 -1.1290 -3.8449  2.2926
  852MOL0     H14974   3.298   7.501   9.015  3.0524 -3.3863 -1.2240
  852MOL0     H14975   3.297   7.683   8.975 -0.6936 -0.4459  3.4147
  852MOL0     H14976   3.562   7.579   8.978  0.4126  1.2335  1.0324
  852MOL0     H14977   3.506   7.548   9.132  2.0379  1.8984 -0.0480
  852MOL0     H14978   3.610   7.763   9.137  1.1254 -3.9542 -1.3548
  852MOL0     H14979   3.440   7.795   9.166  0.8523  1.8525 -0.0206
  852MOL0     H14980   3.635   8.001   9.100  0.6693  1.2851 -1.6446
  852MOL0     H14981   3.583   8.274   9.275  1.7161 -0.1078  0.4898
  852MOL0     H14982   3.694   8.204   9.153  0.0097 -0.7003  1.1084
  852MOL0     H14983   3.601   8.340   9.107 -0.1820  0.6676  0.9108
  852MOL0     H14984   3.071   8.409   9.298  0.6096 -0.1167  6.1869
  852MOL0     H14985   2.954   8.616   9.336  0.0126 -1.0892  0.8585
  852MOL0     H14986   2.883   8.818   9.364  2.7441 -1.2327 -1.9292
  852MOL0     H14987   2.946   8.778   9.518 -1.2524 -1.1742 -2.0007
  852MOL0     H14988   2.946   9.068   9.407  0.3134 -0.4440  0.4217
  852MOL0     H14989   2.821   8.997   9.515 -0.1568  2.2961  0.1707
  852MOL0     H14990   3.114   9.031   9.608  0.5079  2.8880  4.3830
  852MOL0     H14991   2.984   8.940   9.692 -0.7063 -0.8016 -0.1285
  852MOL0     H14992   2.998   9.230   9.609  1.2620  1.2669  0.5945
  852MOL0     H14993   2.858   9.166   9.705 -1.4353 -0.5087 -1.6223
  852MOL0     H14994   2.997   9.082   9.894  4.2956 -1.1482 -0.5313
  852MOL0     H14995   2.976   9.255   9.869 -0.4967 -1.8299  1.4212
  852MOL0     H14996   3.224   9.095   9.792  0.3016  0.5733 -1.0756
  852MOL0     H14997   3.208   9.268   9.781  0.7831 -2.6976 -4.5818
  852MOL0     H14998   3.184   9.087  10.029 -1.4944  1.9225  1.5564
  852MOL0     H14999   3.154   9.258  10.032  0.8720  0.5209  0.1783
  852MOL0     H15000   3.408   9.155   9.896 -1.7998  1.4506 -2.1781
  852MOL0     H15001   3.400   9.168  10.081  2.2868 -1.7904 -0.2532
  852MOL0     H15002   3.317   8.831   9.308 -3.7007  2.4204  1.6497
  852MOL0     H15003   3.440   8.630   9.246  0.5887  1.2236  0.4192
  852MOL0     H15004   3.175   8.137   8.997  0.1423  0.8624 -4.0032
  852MOL0     H15005   3.266   7.925   8.905  0.8422 -2.1564  1.2198
  852MOL0     H15006   3.399   8.911   8.882  0.1982 -0.1735 -0.6194
  852MOL0     H15007   3.407   9.097   9.031  0.1860  1.0259 -2.6139
  852MOL0     H15008   3.633   9.527   9.142  1.3986  0.0013 -0.2170
  852MOL0     H15009   3.690   9.703   9.315 -0.0167 -0.9237 -2.0945
  852MOL0     H15010   3.851   9.833   9.610 -1.6309  3.4835 -0.4844
  852MOL0     H15011   3.760   9.828   9.470  4.1404  0.9823  0.3328
  852MOL0     H15012   3.643   9.763   9.737  0.8730  1.1336 -0.0652
  852MOL0     H15013   3.548   9.757   9.579 -0.0773 -1.4339  1.2043
  852MOL0     H15014   3.693  10.022   9.616  1.2648 -1.2199  0.3539
  852MOL0     H15015   3.587   9.978   9.749  1.4434 -2.5823  0.5979
  852MOL0     H15016   3.472  10.109   9.560 -0.9238  0.1537  0.6164
  852MOL0     H15017   3.396   9.950   9.571  0.8516 -2.1180  0.2592
  852MOL0     H15018   3.563   9.950   9.197 -3.0493  0.7740 -1.2396
  852MOL0     H15019   3.806   9.378   9.576  3.4078  2.6784  0.1514
  852MOL0     H15020   3.729   9.212   9.397 -0.4918 -0.1376  0.4137
  853MOL0     O15021   2.856   3.897   4.495 -0.3309 -0.0061  0.0379
  853MOL0     C15022   2.938   3.816   4.435 -0.1971  0.1120  0.4272
  853MOL0     O15023   2.899   3.705   4.371  0.0521 -0.4676  0.4890
  853MOL0     C15024   2.767   3.669   4.353  0.4370  0.2654 -0.2746
  853MOL0     C15025   2.729   3.538   4.375  1.0613  1.9355 -0.0705
  853MOL0     C15026   2.593   3.491   4.356  0.1797 -0.4382 -0.4847
  853MOL0     C15027   2.498   3.588   4.312  0.2374  0.1084  0.1560
  853MOL0     O15028   2.362   3.568   4.310 -0.8948  0.0501  0.6599
  853MOL0     C15029   2.309   3.549   4.179 -0.3378 -0.4804  0.9396
  853MOL0     C15030   2.160   3.600   4.171 -0.2473 -0.2196 -0.4394
  853MOL0     C15031   2.055   3.519   4.255  0.0369  0.7600 -0.2861
  853MOL0     C15032   2.052   3.545   4.403  0.0433  0.3890 -0.1886
  853MOL0     C15033   1.917   3.506   4.471  0.0332  0.0396 -0.0943
  853MOL0     C15034   1.911   3.351   4.454  0.9360  0.0794 -0.4651
  853MOL0     C15035   1.774   3.292   4.487 -0.3866 -0.0357 -0.2905
  853MOL0     C15036   1.772   3.138   4.515  0.1107 -0.2950  0.2190
  853MOL0     N15037   1.656   3.091   4.588  0.1630  0.0184 -0.5527
  853MOL0     C15038   1.527   3.080   4.559  0.1832  0.3468  0.4338
  853MOL0     C15039   1.466   2.996   4.649  0.8655 -0.5746  1.1170
  853MOL0     C15040   1.320   2.963   4.654  0.4091  0.5509 -0.8132
  853MOL0     C15041   1.297   2.853   4.555  0.1003 -0.4675  0.1142
  853MOL0     C15042   1.176   2.758   4.591 -0.5590  0.5362  0.4988
  853MOL0     C15043   1.146   2.640   4.497 -0.5583  0.5786  0.1544
  853MOL0     O15044   1.265   2.562   4.456 -0.4817  1.0443 -0.1413
  853MOL0     C15045   1.318   2.580   4.330  0.4420  0.1162  0.4984
  853MOL0     C15046   1.280   2.687   4.243  0.4393  0.0866 -0.1527
  853MOL0     C15047   1.337   2.699   4.113  0.3323 -0.0090 -0.0247
  853MOL0     C15048   1.300   2.825   4.037  0.4306 -0.4106  0.4221
  853MOL0     C15049   1.435   2.597   4.065  1.0612 -0.3972  0.3238
  853MOL0     C15050   1.508   2.597   3.939  0.7491  0.3099 -0.4755
  853MOL0     O15051   1.626   2.524   3.927 -0.7062  0.8903 -0.1258
  853MOL0     C15052   1.666   2.450   3.819  1.0590  0.0533  0.0134
  853MOL0     C15053   1.778   2.358   3.833  0.5926  0.5067  0.5311
  853MOL0     C15054   1.824   2.292   3.713  0.5105 -0.0545 -0.1683
  853MOL0     C15055   1.764   2.312   3.589  0.6767  0.8593  0.2805
  853MOL0     O15056   1.819   2.257   3.473  0.6606  0.4779 -0.2003
  853MOL0     C15057   1.848   2.366   3.383  0.2530 -0.2974  0.2502
  853MOL0     C15058   1.971   2.334   3.300  0.1783  0.2516 -0.2311
  853MOL0     C15059   2.014   2.453   3.214 -0.3110  0.8309  0.2987
  853MOL0     C15060   2.165   2.460   3.185  0.1726 -0.3896 -0.0516
  853MOL0     C15061   2.212   2.598   3.136  0.3369 -0.3894  0.3681
  853MOL0     C15062   2.341   2.637   3.212 -1.2890  0.3837 -0.1319
  853MOL0     C15063   2.397   2.774   3.166 -0.2712 -0.1341 -0.4411
  853MOL0     C15064   2.550   2.779   3.173  0.4974 -0.0706  0.1337
  853MOL0    Cl15065   2.622   2.749   3.337  0.0042 -0.3481  0.0410
  853MOL0     C15066   1.647   2.387   3.583 -1.0094  0.6561 -0.6646
  853MOL0     C15067   1.596   2.450   3.692  0.1651 -0.4754 -0.1695
  853MOL0     O15068   1.451   2.658   3.850  0.0071  0.2332 -0.3054
  853MOL0     C15069   1.466   2.497   4.161  0.0231 -0.9804 -1.3330
  853MOL0     C15070   1.414   2.487   4.287  0.5053 -0.6582 -0.1909
  853MOL0     N15071   1.559   2.978   4.748 -0.7019  0.2622 -0.2886
  853MOL0     N15072   1.671   3.029   4.709  0.3885 -0.1008  0.0624
  853MOL0     C15073   2.542   3.719   4.284 -0.1190  0.1540  0.7675
  853MOL0     C15074   2.673   3.758   4.296 -0.1523 -0.0900  1.2450
  853MOL0     C15075   3.089   3.830   4.468 -0.9485  0.6764 -0.4485
  853MOL0     C15076   3.132   3.928   4.557  0.4618 -0.4141 -1.4344
  853MOL0     C15077   3.266   3.958   4.577 -0.6028  0.4212 -1.3328
  853MOL0     C15078   3.370   3.876   4.529  0.8503 -0.0465 -0.6673
  853MOL0     O15079   3.504   3.893   4.566  0.6392 -1.1086 -0.2810
  853MOL0     C15080   3.534   3.976   4.676  0.3127  1.1748  0.6779
  853MOL0     C15081   3.573   4.110   4.619  0.0044  0.1238 -0.7294
  853MOL0     C15082   3.643   4.109   4.479 -0.0833 -0.7314 -0.0185
  853MOL0     C15083   3.669   4.251   4.427  0.1982  0.3929 -0.3450
  853MOL0     C15084   3.539   4.320   4.403 -0.7302 -0.0445  0.0772
  853MOL0     C15085   3.443   4.387   4.366  1.1567  0.4652 -0.6127
  853MOL0     C15086   3.328   3.775   4.440  0.0420  0.5229  0.7051
  853MOL0     C15087   3.189   3.758   4.406 -0.7672 -0.1765  0.2013
  853MOL0     H15088   2.798   3.464   4.415  1.8381  2.5319 -0.2920
  853MOL0     H15089   2.565   3.389   4.380 -1.1598 -0.3088 -1.4282
  853MOL0     H15090   2.373   3.609   4.113 -0.0525  1.9956  3.2461
  853MOL0     H15091   2.297   3.444   4.151 -1.1480 -0.3168  0.6407
  853MOL0     H15092   2.166   3.697   4.222  1.0421 -1.2461  1.5034
  853MOL0     H15093   2.131   3.609   4.066 -1.6488  0.4626 -0.0223
  853MOL0     H15094   1.962   3.545   4.203  0.4480  3.1206  0.0497
  853MOL0     H15095   2.076   3.414   4.233 -2.1045  0.8927 -3.6409
  853MOL0     H15096   2.128   3.489   4.458 -3.9053 -2.9728  2.4742
  853MOL0     H15097   2.063   3.650   4.433 -1.0667  0.0046  1.7934
  853MOL0     H15098   1.917   3.530   4.578 -0.0724 -2.3434  0.4805
  853MOL0     H15099   1.828   3.551   4.425  1.3096  0.6782 -2.0524
  853MOL0     H15100   1.930   3.313   4.353  0.9630 -1.7418  0.1916
  853MOL0     H15101   1.994   3.315   4.516  1.2404 -0.9009 -1.4119
  853MOL0     H15102   1.736   3.345   4.575 -2.2249 -2.9940  0.8661
  853MOL0     H15103   1.722   3.316   4.394  1.8192  0.6146 -1.4103
  853MOL0     H15104   1.859   3.122   4.580  0.4051 -0.0330 -0.1072
  853MOL0     H15105   1.792   3.070   4.432 -2.6915 -0.9479  0.0035
  853MOL0     H15106   1.482   3.127   4.472 -2.0535 -4.6469 -1.4992
  853MOL0     H15107   1.295   2.930   4.755  1.5411 -0.0928 -0.7276
  853MOL0     H15108   1.251   3.046   4.636 -3.0440 -2.1354 -0.9155
  853MOL0     H15109   1.392   2.800   4.550 -0.4280 -1.4840  0.5817
  853MOL0     H15110   1.273   2.913   4.466  1.2579  0.6926  0.5459
  853MOL0     H15111   1.083   2.812   4.612 -0.6716  0.4489  0.2257
  853MOL0     H15112   1.208   2.700   4.679  3.6397  2.5877  0.6080
  853MOL0     H15113   1.098   2.673   4.404 -0.6489  0.1944  0.0594
  853MOL0     H15114   1.084   2.567   4.550  3.2390 -2.0247  1.4465
  853MOL0     H15115   1.209   2.768   4.257  2.0316  1.8294 -1.5563
  853MOL0     H15116   1.249   2.799   3.944 -0.3921  3.3415 -0.3289
  853MOL0     H15117   1.226   2.885   4.091 -1.5348 -0.9877 -1.4961
  853MOL0     H15118   1.386   2.889   4.018  0.3608  0.3361  2.3763
  853MOL0     H15119   1.836   2.345   3.924 -2.2211 -1.5943  2.1939
  853MOL0     H15120   1.898   2.213   3.718 -1.2514 -1.7648  4.5202
  853MOL0     H15121   1.775   2.372   3.302  1.2218 -0.1599 -0.6443
  853MOL0     H15122   1.869   2.462   3.432 -0.0105  1.1973 -2.3544
  853MOL0     H15123   2.052   2.303   3.367  1.7641  1.8173 -1.3158
  853MOL0     H15124   1.943   2.247   3.240  1.6157  0.0853 -0.7116
  853MOL0     H15125   1.999   2.546   3.270  0.8833  1.1302  0.1634
  853MOL0     H15126   1.948   2.462   3.127  2.0242 -1.8443 -1.9516
  853MOL0     H15127   2.218   2.441   3.279 -3.1119  0.9412  2.2709
  853MOL0     H15128   2.184   2.383   3.111 -1.3919 -1.1008  0.2446
  853MOL0     H15129   2.140   2.681   3.145 -1.8075 -1.0708 -5.6031
  853MOL0     H15130   2.235   2.589   3.029  3.0046 -1.3389  0.9451
  853MOL0     H15131   2.313   2.655   3.316  1.5507  0.6182  0.6692
  853MOL0     H15132   2.411   2.554   3.199  1.1608  2.1761  0.8102
  853MOL0     H15133   2.369   2.854   3.234  2.4570 -0.9044  1.7571
  853MOL0     H15134   2.374   2.797   3.061  2.9947  0.4373 -1.1264
  853MOL0     H15135   2.588   2.868   3.122  0.7971 -0.5737 -0.5396
  853MOL0     H15136   2.607   2.703   3.118  1.1739 -1.3115  2.4213
  853MOL0     H15137   1.599   2.390   3.486  1.0030  0.0099 -1.7322
  853MOL0     H15138   1.520   2.524   3.668 -0.2078 -1.4590 -2.1568
  853MOL0     H15139   1.537   2.423   4.126  0.5637 -0.9574 -0.3177
  853MOL0     H15140   1.442   2.411   4.359  2.5890  0.8103  0.6741
  853MOL0     H15141   2.465   3.795   4.277  1.1992  1.4281 -0.5253
  853MOL0     H15142   2.704   3.859   4.271 -0.3140 -0.3055  0.1004
  853MOL0     H15143   3.057   3.988   4.607  0.4811 -1.6343  0.1079
  853MOL0     H15144   3.292   4.045   4.636 -0.0217 -2.0147  2.3256
  853MOL0     H15145   3.453   3.982   4.749 -2.3402 -3.2480 -1.4832
  853MOL0     H15146   3.628   3.941   4.720 -0.3896 -1.8423  0.0397
  853MOL0     H15147   3.636   4.150   4.699  0.5594 -2.5586  0.2827
  853MOL0     H15148   3.479   4.166   4.624  0.0188  0.0302  0.8551
  853MOL0     H15149   3.578   4.062   4.404  0.9428 -1.2209 -0.6264
  853MOL0     H15150   3.739   4.056   4.483 -0.8137 -2.0576  3.2849
  853MOL0     H15151   3.724   4.253   4.332 -0.4787 -0.3465 -0.7689
  853MOL0     H15152   3.723   4.305   4.506  0.5860 -0.1854 -0.2057
  853MOL0     H15153   3.363   4.434   4.313  2.1659  3.0521  0.0140
  853MOL0     H15154   3.409   3.717   4.397 -1.5093 -3.7124  2.9128
  853MOL0     H15155   3.169   3.668   4.350  2.0168 -1.7372  1.5334
  854MOL0     O15156   0.431   7.004   9.756  0.0057 -0.1439  0.9366
  854MOL0     C15157   0.395   6.902   9.691  1.2518  0.1816  0.3834
  854MOL0     O15158   0.444   6.771   9.694 -0.9365  0.0530  0.3894
  854MOL0     C15159   0.528   6.729   9.791  0.1537  0.9958  0.1721
  854MOL0     C15160   0.539   6.593   9.799  0.1988  0.6220  0.0687
  854MOL0     C15161   0.618   6.520   9.889 -0.1661 -0.1414  0.2375
  854MOL0     C15162   0.694   6.593   9.989  0.0173  0.6949  1.2166
  854MOL0     O15163   0.760   6.523  10.080 -0.8401  0.1739  0.2552
  854MOL0     C15164   0.832   6.587  10.192  0.4959  0.2062  0.0032
  854MOL0     C15165   0.793   6.487  10.316  0.0958 -0.2661 -0.6453
  854MOL0     C15166   0.641   6.499  10.354 -1.1680  0.8541  0.8264
  854MOL0     C15167   0.549   6.395  10.281  0.1136  0.5083  0.5584
  854MOL0     C15168   0.400   6.389  10.318  0.0440 -0.3549  0.4288
  854MOL0     C15169   0.299   6.317  10.223  0.8066  1.0533 -0.2820
  854MOL0     C15170   0.287   6.382  10.088 -0.4988 -0.2259  1.2076
  854MOL0     C15171   0.149   6.432  10.060  0.5352 -0.0210  0.4383
  854MOL0     N15172   0.136   6.492   9.927  0.8727  0.9592 -0.2560
  854MOL0     C15173   0.014   6.492   9.851 -0.7040 -0.7018 -1.1853
  854MOL0     C15174   0.056   6.536   9.725 -0.2714  0.1306 -0.3036
  854MOL0     C15175  -0.038   6.550   9.615  0.4962  0.2887  0.4982
  854MOL0     C15176  -0.157   6.637   9.650  0.0108 -0.3048  0.2777
  854MOL0     C15177  -0.218   6.689   9.518 -0.0519 -0.7213  0.3430
  854MOL0     C15178  -0.351   6.764   9.530 -0.6645  0.3937  1.0808
  854MOL0     O15179  -0.410   6.756   9.399 -0.7291  0.2912 -0.0442
  854MOL0     C15180  -0.525   6.826   9.372 -0.6312 -0.4883 -0.0441
  854MOL0     C15181  -0.603   6.878   9.471  0.0410  0.0825 -0.7300
  854MOL0     C15182  -0.721   6.951   9.446  0.5039  0.3309  0.4800
  854MOL0     C15183  -0.788   7.030   9.557 -0.6349  0.4205  0.1159
  854MOL0     C15184  -0.756   6.978   9.312 -0.5328 -0.1810  0.3436
  854MOL0     C15185  -0.862   7.076   9.266 -0.3532 -0.3443 -0.2391
  854MOL0     O15186  -0.971   7.097   9.344 -0.4506  0.9026 -0.6513
  854MOL0     C15187  -1.050   7.213   9.343 -0.6910 -0.4516  0.0840
  854MOL0     C15188  -0.985   7.337   9.333 -0.0116 -0.5703 -0.4173
  854MOL0     C15189  -1.059   7.457   9.338  0.1534  0.3665  1.1318
  854MOL0     C15190  -1.189   7.455   9.379  0.1000 -0.3534  0.4382
  854MOL0     O15191  -1.262   7.568   9.394  0.7785 -0.4359  0.7786
  854MOL0     C15192  -1.278   7.646   9.269 -0.3108  0.1461 -0.5768
  854MOL0     C15193  -1.368   7.766   9.306 -0.2734  0.2867 -0.5670
  854MOL0     C15194  -1.513   7.717   9.301  0.1357 -0.7703  0.5389
  854MOL0     C15195  -1.599   7.822   9.370  0.1097 -0.2003  0.0950
  854MOL0     C15196  -1.744   7.779   9.377 -0.4068  0.5817 -0.4150
  854MOL0     C15197  -1.838   7.903   9.381  0.5483 -0.8404  0.0363
  854MOL0     C15198  -1.988   7.883   9.415 -0.0333 -0.3437  0.1963
  854MOL0     C15199  -2.061   8.018   9.420 -0.3086 -0.7504 -0.0599
  854MOL0    Cl15200  -2.064   8.074   9.257 -0.3004  0.0815  0.1280
  854MOL0     C15201  -1.254   7.330   9.416 -0.0543  0.7189 -0.2849
  854MOL0     C15202  -1.181   7.207   9.393 -0.5256  1.2118 -0.0348
  854MOL0     O15203  -0.838   7.141   9.162  0.5173  1.3050  0.1918
  854MOL0     C15204  -0.673   6.925   9.213  0.2961  0.1670 -0.2765
  854MOL0     C15205  -0.569   6.843   9.234 -0.3747  0.4729  0.0051
  854MOL0     N15206   0.185   6.566   9.729 -0.7860  0.1729  0.0593
  854MOL0     N15207   0.230   6.540   9.846 -0.8060 -0.1670 -0.6932
  854MOL0     C15208   0.688   6.725   9.985  0.7464 -0.5334 -0.2452
  854MOL0     C15209   0.601   6.793   9.887 -0.1945  0.2281  0.9937
  854MOL0     C15210   0.283   6.924   9.587 -0.3725  0.5249 -0.2984
  854MOL0     C15211   0.243   6.821   9.501  0.4071  0.9885 -0.3216
  854MOL0     C15212   0.136   6.836   9.403 -0.6508 -0.2373  0.2233
  854MOL0     C15213   0.079   6.960   9.379 -0.3001 -1.4508 -0.4494
  854MOL0     O15214  -0.023   6.987   9.294  0.1584 -0.1049  0.2792
  854MOL0     C15215  -0.042   6.891   9.190 -0.3911 -0.5358 -0.0296
  854MOL0     C15216  -0.096   6.963   9.059 -0.1729 -0.1116 -0.1146
  854MOL0     C15217  -0.235   6.913   9.020  0.3997  0.3706 -0.0413
  854MOL0     C15218  -0.289   7.003   8.905 -0.0419  0.4217 -0.1353
  854MOL0     C15219  -0.409   6.934   8.857  1.2135  0.3031  0.0322
  854MOL0     C15220  -0.514   6.870   8.841 -0.1068  0.6976 -0.2471
  854MOL0     C15221   0.129   7.070   9.450  0.4207  0.3627 -0.1777
  854MOL0     C15222   0.230   7.048   9.556  0.8039 -1.1639 -0.8789
  854MOL0     H15223   0.491   6.533   9.722  0.5718 -3.1281  2.5193
  854MOL0     H15224   0.633   6.413   9.876 -1.1001 -0.5990  2.4891
  854MOL0     H15225   0.937   6.592  10.161 -0.2885  1.5090 -2.6924
  854MOL0     H15226   0.813   6.688  10.227  0.6723 -0.4317  2.0849
  854MOL0     H15227   0.829   6.385  10.299  0.9395  0.1971 -1.7258
  854MOL0     H15228   0.848   6.527  10.402  1.4972 -3.5837  0.1354
  854MOL0     H15229   0.627   6.492  10.462  2.5965  3.4812  1.6838
  854MOL0     H15230   0.617   6.605  10.339 -1.9480  1.0587  3.0740
  854MOL0     H15231   0.542   6.413  10.173 -1.7483 -0.0595  0.5453
  854MOL0     H15232   0.596   6.298  10.299 -0.4414  0.0068 -0.5598
  854MOL0     H15233   0.399   6.336  10.414  0.9682  0.0399  0.6605
  854MOL0     H15234   0.363   6.490  10.335 -0.0564 -0.3632  0.2706
  854MOL0     H15235   0.326   6.213  10.204  0.0578  1.2561 -2.7733
  854MOL0     H15236   0.201   6.318  10.272  1.9358  4.8830  2.4371
  854MOL0     H15237   0.361   6.462  10.076 -0.8769 -0.1266 -0.8021
  854MOL0     H15238   0.311   6.312  10.007 -1.7682  0.7925 -0.1043
  854MOL0     H15239   0.123   6.501  10.140 -2.2772 -0.7809  0.2876
  854MOL0     H15240   0.082   6.345  10.061 -0.6660  0.8873  1.6475
  854MOL0     H15241  -0.082   6.457   9.887 -1.6631  1.9350 -0.9206
  854MOL0     H15242   0.017   6.593   9.531  1.2656  0.3584  1.0335
  854MOL0     H15243  -0.054   6.451   9.571  3.9870 -1.2484  2.2684
  854MOL0     H15244  -0.121   6.711   9.722 -0.5484  0.4550 -0.2169
  854MOL0     H15245  -0.233   6.576   9.700  2.7789 -3.6195  0.8828
  854MOL0     H15246  -0.236   6.608   9.446 -0.2002 -0.1994 -0.2179
  854MOL0     H15247  -0.156   6.767   9.472 -0.8176 -0.7125 -0.7361
  854MOL0     H15248  -0.336   6.869   9.557 -2.7576  0.5617  1.7813
  854MOL0     H15249  -0.417   6.724   9.608 -0.7588  2.4922  2.1584
  854MOL0     H15250  -0.580   6.874   9.577  1.8787 -0.1644 -1.1155
  854MOL0     H15251  -0.736   7.019   9.653 -0.2146  1.1020 -0.0288
  854MOL0     H15252  -0.815   7.133   9.533  3.3850  1.5486 -0.3367
  854MOL0     H15253  -0.884   6.979   9.570 -0.5998  0.3792  0.2045
  854MOL0     H15254  -0.877   7.337   9.325  0.1857  0.4663  1.5017
  854MOL0     H15255  -1.011   7.549   9.308 -0.9574  0.8656  0.8586
  854MOL0     H15256  -1.182   7.698   9.258  0.3407 -0.6852  0.9040
  854MOL0     H15257  -1.305   7.588   9.181 -1.1073  2.7724 -2.2074
  854MOL0     H15258  -1.346   7.801   9.407 -0.6282 -1.3913  0.1218
  854MOL0     H15259  -1.357   7.838   9.224  2.0341 -0.5113 -1.0325
  854MOL0     H15260  -1.507   7.624   9.357 -1.1759 -1.0126  0.3180
  854MOL0     H15261  -1.551   7.709   9.199 -2.8036  4.1205  0.9173
  854MOL0     H15262  -1.566   7.845   9.472 -1.3030 -1.3706  0.8627
  854MOL0     H15263  -1.591   7.907   9.301  2.0029 -0.4155 -0.0004
  854MOL0     H15264  -1.750   7.708   9.460 -1.4242 -2.8256 -3.1686
  854MOL0     H15265  -1.773   7.713   9.294 -0.2875 -1.6148  1.1969
  854MOL0     H15266  -1.793   7.984   9.439 -0.7792  1.0992 -1.5033
  854MOL0     H15267  -1.843   7.942   9.279  2.4709  1.9020  0.8662
  854MOL0     H15268  -1.998   7.818   9.503  1.1442 -1.0562 -0.1784
  854MOL0     H15269  -2.034   7.824   9.336  0.3380  0.6324 -0.7715
  854MOL0     H15270  -2.005   8.093   9.477 -1.3079  0.1178 -0.1851
  854MOL0     H15271  -2.159   8.006   9.466 -0.4423  0.0593 -0.1201
  854MOL0     H15272  -1.354   7.314   9.454  0.2522  3.0457  1.7529
  854MOL0     H15273  -1.212   7.107   9.420  0.5308  1.1184  0.9422
  854MOL0     H15274  -0.702   6.950   9.111  0.0174  3.6295  0.5372
  854MOL0     H15275  -0.522   6.808   9.142 -1.2895  1.8492 -1.0198
  854MOL0     H15276   0.732   6.795  10.055 -0.8978 -0.6063  0.9212
  854MOL0     H15277   0.590   6.901   9.885 -1.3458  0.1295 -1.6203
  854MOL0     H15278   0.281   6.721   9.520  0.7932  1.3737  1.0815
  854MOL0     H15279   0.102   6.756   9.338 -1.8536  1.6480 -1.6296
  854MOL0     H15280   0.053   6.846   9.159  2.4247  2.8959  2.7652
  854MOL0     H15281  -0.118   6.819   9.221 -0.9640 -0.0380 -0.2619
  854MOL0     H15282  -0.024   6.931   8.983 -0.9349 -0.8138 -0.5631
  854MOL0     H15283  -0.089   7.072   9.066 -0.2532  0.0613 -2.0866
  854MOL0     H15284  -0.302   6.917   9.107  0.4931  1.0797  0.0041
  854MOL0     H15285  -0.227   6.806   8.997 -0.1157  0.1982  0.5412
  854MOL0     H15286  -0.214   6.998   8.825  1.2834  1.1435  1.0198
  854MOL0     H15287  -0.296   7.110   8.927 -1.6056  0.3329 -0.0731
  854MOL0     H15288  -0.599   6.812   8.810  0.3253 -1.1856  1.8263
  854MOL0     H15289   0.086   7.168   9.430 -1.0326  0.8172  4.2380
  854MOL0     H15290   0.283   7.126   9.610  3.9453 -2.7466 -1.4436
  855MOL0     O15291   7.937   1.177   1.929 -0.5121  0.0890 -0.6050
  855MOL0     C15292   7.936   1.270   1.849 -0.2539  1.1778 -0.2440
  855MOL0     O15293   8.011   1.392   1.863 -0.0045  0.0087  0.0436
  855MOL0     C15294   8.092   1.393   1.976 -0.2798 -1.6935 -0.2992
  855MOL0     C15295   8.190   1.292   1.997 -0.4303 -0.0459  0.2801
  855MOL0     C15296   8.261   1.280   2.118  0.0302 -0.4871  0.1880
  855MOL0     C15297   8.239   1.380   2.220 -0.3847  0.5497 -0.1916
  855MOL0     O15298   8.303   1.375   2.339 -0.0541  0.5276 -0.2352
  855MOL0     C15299   8.428   1.440   2.326  0.0687 -0.1364 -0.1691
  855MOL0     C15300   8.541   1.358   2.387 -0.4031 -1.3203  0.6537
  855MOL0     C15301   8.681   1.430   2.355  0.1768  0.6813 -0.6083
  855MOL0     C15302   8.801   1.371   2.429  0.3317  1.1182  0.0324
  855MOL0     C15303   8.929   1.442   2.376 -0.6925 -0.9929  0.0134
  855MOL0     C15304   9.032   1.433   2.492 -0.4347 -0.0029 -0.5074
  855MOL0     C15305   9.084   1.291   2.545 -0.1880 -0.1375 -0.5310
  855MOL0     C15306   9.073   1.284   2.695  0.3793 -0.7821  1.1720
  855MOL0     N15307   8.938   1.312   2.744 -0.3756  0.4390 -0.6361
  855MOL0     C15308   8.842   1.214   2.752  0.7621  0.4189  0.3004
  855MOL0     C15309   8.747   1.265   2.828  0.0623  0.6028 -1.1209
  855MOL0     C15310   8.614   1.202   2.852 -0.3215  0.3832 -0.4934
  855MOL0     C15311   8.527   1.202   2.721 -1.0771 -0.5115 -0.0103
  855MOL0     C15312   8.385   1.260   2.736 -0.0553 -0.6026 -0.2800
  855MOL0     C15313   8.294   1.157   2.803 -1.0626  0.1486  0.5390
  855MOL0     O15314   8.163   1.211   2.831 -0.7040 -0.4400 -0.0483
  855MOL0     C15315   8.048   1.153   2.792  0.0453  1.2044 -0.6332
  855MOL0     C15316   7.949   1.236   2.769  0.6816  0.5280  0.5324
  855MOL0     C15317   7.820   1.199   2.738  0.2471  0.6343 -0.5369
  855MOL0     C15318   7.717   1.316   2.738 -1.0294 -0.4132  0.1224
  855MOL0     C15319   7.793   1.066   2.704 -0.1176  0.7737 -0.1462
  855MOL0     C15320   7.660   1.012   2.656 -0.1728 -0.2598 -0.4504
  855MOL0     O15321   7.586   1.106   2.593 -1.3455  0.6232  0.2977
  855MOL0     C15322   7.466   1.093   2.523 -0.5040 -0.0189  0.1571
  855MOL0     C15323   7.408   1.220   2.482  0.5911  0.0442 -0.2108
  855MOL0     C15324   7.300   1.221   2.395 -0.3177  0.3485 -0.0829
  855MOL0     C15325   7.252   1.100   2.341 -0.3781  0.5151  0.2946
  855MOL0     O15326   7.149   1.100   2.247 -0.1324 -0.4892  0.0347
  855MOL0     C15327   7.122   1.210   2.164  0.9022 -0.2894  0.5787
  855MOL0     C15328   7.026   1.182   2.048  0.1831 -0.0028 -0.3616
  855MOL0     C15329   7.023   1.311   1.955 -0.3472  0.3760  0.4597
  855MOL0     C15330   6.982   1.264   1.811 -0.8274  0.5803  0.0725
  855MOL0     C15331   6.964   1.377   1.713 -0.1155  0.7128 -0.4125
  855MOL0     C15332   6.871   1.335   1.588  0.0210  0.2229  0.3607
  855MOL0     C15333   6.903   1.404   1.454 -0.5281  0.6416 -0.1463
  855MOL0     C15334   6.854   1.545   1.442 -0.3417  0.5756  0.7065
  855MOL0    Cl15335   6.873   1.594   1.269 -0.2786  0.0901 -0.3233
  855MOL0     C15336   7.308   0.982   2.382 -0.9165  0.4273 -0.3135
  855MOL0     C15337   7.403   0.978   2.479  0.2592  0.1844  0.8659
  855MOL0     O15338   7.631   0.893   2.659  0.0335  0.0968 -0.9689
  855MOL0     C15339   7.893   0.974   2.739  0.0013  0.0472  0.5677
  855MOL0     C15340   8.013   1.014   2.781 -0.2826 -0.1993 -0.3670
  855MOL0     N15341   8.780   1.400   2.855  0.4060 -0.4802 -0.1658
  855MOL0     N15342   8.896   1.420   2.816 -0.3787 -0.0492  0.0139
  855MOL0     C15343   8.145   1.477   2.204 -0.8188  0.3002  0.7031
  855MOL0     C15344   8.063   1.479   2.088 -0.3489 -0.7190 -0.8970
  855MOL0     C15345   7.855   1.261   1.730 -0.0808  0.9278  1.0740
  855MOL0     C15346   7.825   1.379   1.660 -0.1110  0.7664 -0.6904
  855MOL0     C15347   7.745   1.374   1.547  0.6545  0.3953  0.4228
  855MOL0     C15348   7.686   1.260   1.498 -0.1445 -0.1318  0.1695
  855MOL0     O15349   7.600   1.247   1.394  0.8262  0.5045 -0.5234
  855MOL0     C15350   7.569   1.357   1.312 -0.7763  0.3773 -0.1057
  855MOL0     C15351   7.481   1.293   1.198  0.4236  0.3148 -0.5138
  855MOL0     C15352   7.354   1.202   1.230 -0.4224 -0.4956  0.4524
  855MOL0     C15353   7.282   1.248   1.353  0.7503  0.2882 -0.0357
  855MOL0     C15354   7.179   1.148   1.383  0.1407 -0.7353  0.0586
  855MOL0     C15355   7.087   1.078   1.422  0.1723  0.2810  0.2116
  855MOL0     C15356   7.713   1.141   1.564 -0.2570 -0.1709  0.7055
  855MOL0     C15357   7.801   1.135   1.674 -0.9135 -0.5309 -0.1706
  855MOL0     H15358   8.195   1.221   1.916 -0.7574  1.4493 -1.0957
  855MOL0     H15359   8.338   1.206   2.136  1.2702  0.7151  0.0130
  855MOL0     H15360   8.454   1.464   2.222 -0.6868 -2.4856 -0.9506
  855MOL0     H15361   8.416   1.539   2.373 -1.6297 -0.7405  0.7478
  855MOL0     H15362   8.524   1.382   2.493 -2.6276  1.6426 -0.2269
  855MOL0     H15363   8.556   1.253   2.364  0.4606 -1.4830  1.8870
  855MOL0     H15364   8.690   1.399   2.250  2.6724  0.6002 -0.4362
  855MOL0     H15365   8.677   1.538   2.372  2.6498  0.2635  4.6638
  855MOL0     H15366   8.786   1.389   2.536 -2.4184  1.6899 -0.3770
  855MOL0     H15367   8.810   1.263   2.413  0.1510  0.6685  2.6161
  855MOL0     H15368   8.972   1.374   2.302  1.7247 -1.5166  1.7755
  855MOL0     H15369   8.926   1.545   2.340  0.9345 -0.8732  0.1397
  855MOL0     H15370   9.123   1.473   2.446  1.5018 -2.3053  1.0796
  855MOL0     H15371   9.001   1.500   2.573 -0.6412 -1.6770  0.8339
  855MOL0     H15372   9.022   1.214   2.498 -0.4048  0.7192 -1.7026
  855MOL0     H15373   9.186   1.271   2.513  1.2853  2.4060  2.0836
  855MOL0     H15374   9.141   1.353   2.746 -0.2374 -0.0816  1.0562
  855MOL0     H15375   9.115   1.186   2.721  2.6994 -0.1939 -0.0004
  855MOL0     H15376   8.841   1.117   2.703  2.1521 -0.6942  2.3329
  855MOL0     H15377   8.641   1.096   2.861  2.9860  0.9380 -2.3531
  855MOL0     H15378   8.562   1.244   2.938  0.1445  0.5715 -0.3018
  855MOL0     H15379   8.515   1.101   2.683  4.9181 -0.7199 -2.5523
  855MOL0     H15380   8.579   1.261   2.644 -1.8235  0.6971  0.3779
  855MOL0     H15381   8.347   1.301   2.642  2.9620  0.9096 -0.9661
  855MOL0     H15382   8.393   1.352   2.794 -1.2283 -1.0943  0.7177
  855MOL0     H15383   8.343   1.122   2.894 -0.9537  1.0541  0.8407
  855MOL0     H15384   8.284   1.068   2.741 -0.8531 -1.3459  2.5746
  855MOL0     H15385   7.963   1.343   2.767  1.4788  0.4173 -0.2920
  855MOL0     H15386   7.750   1.403   2.796  1.5057 -1.8031  0.8875
  855MOL0     H15387   7.691   1.354   2.639  0.9902  0.6523 -0.0586
  855MOL0     H15388   7.624   1.288   2.788 -1.1016  0.3416  0.4312
  855MOL0     H15389   7.438   1.310   2.534  2.5744 -1.6764  1.8705
  855MOL0     H15390   7.239   1.308   2.372 -2.4849 -1.4179 -1.4940
  855MOL0     H15391   7.083   1.291   2.227  0.0594  1.5369 -2.1242
  855MOL0     H15392   7.211   1.258   2.123  1.1774 -1.1716  0.1367
  855MOL0     H15393   7.065   1.097   1.992  0.0132 -0.8343  0.7525
  855MOL0     H15394   6.928   1.153   2.086  1.1735 -2.5348  0.4849
  855MOL0     H15395   7.122   1.358   1.953  1.2871 -2.7613  0.4253
  855MOL0     H15396   6.939   1.364   2.000 -2.3875 -2.8652  0.8117
  855MOL0     H15397   7.059   1.197   1.773  0.8059  0.6271  2.9753
  855MOL0     H15398   6.893   1.200   1.815  0.8283 -1.9919 -1.4251
  855MOL0     H15399   7.064   1.394   1.673 -1.0841  0.5402 -3.1344
  855MOL0     H15400   6.914   1.461   1.762 -0.0056 -0.4775  1.8512
  855MOL0     H15401   6.879   1.226   1.574  2.1191  0.2988  0.6699
  855MOL0     H15402   6.765   1.355   1.609 -0.7883 -2.4044 -0.7030
  855MOL0     H15403   6.855   1.355   1.369 -2.0850  1.4091  0.2460
  855MOL0     H15404   7.012   1.410   1.442 -0.0416  3.4280  3.8250
  855MOL0     H15405   6.901   1.611   1.516  0.0264  1.3968 -0.2332
  855MOL0     H15406   6.749   1.542   1.473 -0.0750  1.6285  1.8090
  855MOL0     H15407   7.251   0.897   2.344 -0.5900 -0.3222  0.8026
  855MOL0     H15408   7.433   0.881   2.519 -2.1609 -0.3477  1.5608
  855MOL0     H15409   7.872   0.868   2.725 -0.7468  0.3245 -0.5598
  855MOL0     H15410   8.083   0.936   2.809 -1.0845 -1.7189 -2.3542
  855MOL0     H15411   8.136   1.550   2.284  0.8558 -0.5097  1.6824
  855MOL0     H15412   7.983   1.552   2.083 -1.1682 -1.5723 -0.5549
  855MOL0     H15413   7.855   1.468   1.714 -2.2025  0.3257  1.3274
  855MOL0     H15414   7.729   1.469   1.496 -3.8754 -1.5143 -2.2219
  855MOL0     H15415   7.515   1.439   1.361 -1.5167 -0.7962  1.1180
  855MOL0     H15416   7.661   1.390   1.262 -1.6708  1.5384 -1.0372
  855MOL0     H15417   7.546   1.225   1.142  0.7685 -0.0484  0.3044
  855MOL0     H15418   7.453   1.369   1.124  0.2495 -0.4701 -1.2670
  855MOL0     H15419   7.382   1.099   1.252 -0.2509 -0.4157  0.6173
  855MOL0     H15420   7.294   1.214   1.139 -4.9567 -0.0863  3.2034
  855MOL0     H15421   7.227   1.340   1.331  2.3634  1.4170  0.4813
  855MOL0     H15422   7.347   1.287   1.432 -2.2245  4.8517  0.5558
  855MOL0     H15423   7.013   1.002   1.437  0.8183 -0.4339 -0.1399
  855MOL0     H15424   7.677   1.045   1.527  0.4704  0.0243 -0.5860
  855MOL0     H15425   7.846   1.041   1.703  3.7105  0.7962 -1.9634
  856MOL0     O15426  10.363   5.235   5.794 -0.8385  0.2850  0.1536
  856MOL0     C15427  10.420   5.262   5.689 -0.1088  0.3092  0.7073
  856MOL0     O15428  10.371   5.256   5.556  0.1667 -0.3150 -0.3346
  856MOL0     C15429  10.232   5.258   5.522 -0.5770 -0.7099 -0.3036
  856MOL0     C15430  10.135   5.287   5.611  0.3059 -0.2138 -0.1386
  856MOL0     C15431   9.999   5.279   5.560 -0.0035  0.3480  0.3321
  856MOL0     C15432   9.957   5.224   5.430  0.2108 -0.0657 -0.2935
  856MOL0     O15433   9.834   5.202   5.384  0.0077 -1.0495  0.0553
  856MOL0     C15434   9.739   5.289   5.443  1.0984 -0.2183  0.2333
  856MOL0     C15435   9.616   5.291   5.347  0.5015  1.0665 -0.6366
  856MOL0     C15436   9.520   5.175   5.363 -0.0252 -0.7219 -0.4599
  856MOL0     C15437   9.410   5.173   5.258 -0.2049  0.2752  0.6025
  856MOL0     C15438   9.322   5.292   5.254  0.5440  0.8897 -0.2508
  856MOL0     C15439   9.187   5.266   5.200  0.5552 -0.4217  0.2028
  856MOL0     C15440   9.118   5.382   5.137 -0.1219 -0.8324  0.7619
  856MOL0     C15441   9.071   5.488   5.230 -0.6605 -0.5954  0.2584
  856MOL0     N15442   8.935   5.523   5.193 -0.0669 -1.0226 -0.2734
  856MOL0     C15443   8.891   5.588   5.081  0.7552 -0.3970  0.6618
  856MOL0     C15444   8.790   5.668   5.115 -0.1791 -0.9898  0.0329
  856MOL0     C15445   8.711   5.765   5.025  1.2402  0.3261 -0.4129
  856MOL0     C15446   8.592   5.695   4.948  0.0465 -0.7321  0.0703
  856MOL0     C15447   8.548   5.799   4.831 -0.3137 -0.4632 -1.0841
  856MOL0     C15448   8.410   5.859   4.861 -0.2220  0.5396 -0.2669
  856MOL0     O15449   8.366   5.968   4.778  0.4016 -0.2712 -0.0413
  856MOL0     C15450   8.242   6.023   4.777  0.3320  0.1165 -0.1195
  856MOL0     C15451   8.206   6.129   4.701 -0.3162 -0.2296 -0.0421
  856MOL0     C15452   8.085   6.192   4.700 -0.7194 -0.2315  1.0953
  856MOL0     C15453   8.064   6.315   4.612  0.1491  0.0038  0.5112
  856MOL0     C15454   7.982   6.149   4.795 -0.2336 -0.7204  0.6534
  856MOL0     C15455   7.842   6.195   4.805 -0.4136 -0.3645  0.8857
  856MOL0     O15456   7.759   6.125   4.888  0.2359  0.3264  0.3595
  856MOL0     C15457   7.620   6.168   4.892  0.0825  0.3913  0.0726
  856MOL0     C15458   7.523   6.136   4.794 -0.6053  0.2538  0.1992
  856MOL0     C15459   7.391   6.172   4.812  0.8360 -0.4100 -0.5636
  856MOL0     C15460   7.346   6.243   4.928 -0.2873  0.4817  0.3586
  856MOL0     O15461   7.210   6.270   4.934 -0.0532  0.1232  0.1062
  856MOL0     C15462   7.161   6.337   5.057 -0.3311  0.0276  0.1104
  856MOL0     C15463   7.010   6.368   5.042  0.4753  0.2648  0.1984
  856MOL0     C15464   6.984   6.467   4.929  0.2969 -0.2367  0.1633
  856MOL0     C15465   6.829   6.475   4.919 -0.6257 -0.0116  0.4327
  856MOL0     C15466   6.786   6.596   4.836 -0.6756 -0.2282  0.4465
  856MOL0     C15467   6.634   6.600   4.828 -0.7330 -0.4260 -0.4030
  856MOL0     C15468   6.582   6.484   4.739 -1.0171 -0.6289 -0.2975
  856MOL0     C15469   6.436   6.488   4.763 -0.4361  0.6937 -1.2830
  856MOL0    Cl15470   6.405   6.407   4.922  0.2699 -0.0711 -0.2777
  856MOL0     C15471   7.450   6.289   5.015 -0.2282 -0.6260 -0.5390
  856MOL0     C15472   7.577   6.247   5.006  0.1832  0.2978  0.3727
  856MOL0     O15473   7.810   6.298   4.754 -0.3225 -0.4319  0.3982
  856MOL0     C15474   8.020   6.034   4.865 -0.7592  0.2508  0.0647
  856MOL0     C15475   8.144   5.967   4.853  0.8555 -0.5188  0.5247
  856MOL0     N15476   8.764   5.646   5.246 -0.1611 -0.6039 -0.4986
  856MOL0     N15477   8.853   5.567   5.294  0.0038  0.0834 -1.0381
  856MOL0     C15478  10.065   5.187   5.350 -0.8269  0.1895 -0.2920
  856MOL0     C15479  10.198   5.206   5.392 -0.8968 -0.6874  0.5803
  856MOL0     C15480  10.541   5.324   5.716  0.0713  0.2055  0.6414
  856MOL0     C15481  10.612   5.365   5.598  0.0207  0.1861  0.4930
  856MOL0     C15482  10.739   5.423   5.608  0.2742  0.1169  0.1881
  856MOL0     C15483  10.810   5.434   5.730  0.3958 -0.3007  0.1531
  856MOL0     O15484  10.932   5.488   5.716  1.3292 -0.4243 -1.2450
  856MOL0     C15485  11.014   5.464   5.831 -0.1136 -0.2218 -0.2999
  856MOL0     C15486  11.161   5.472   5.796  0.2869  0.6384  0.3858
  856MOL0     C15487  11.211   5.370   5.685  0.3601  0.0814  0.7743
  856MOL0     C15488  11.366   5.336   5.707  0.1047 -0.4077 -0.5349
  856MOL0     C15489  11.456   5.424   5.635  1.5243  0.2333 -1.0938
  856MOL0     C15490  11.544   5.487   5.584  0.0931  0.0653 -0.0257
  856MOL0     C15491  10.738   5.392   5.849 -0.0214 -0.0023 -0.5953
  856MOL0     C15492  10.607   5.338   5.840  0.6095  0.3639  0.3998
  856MOL0     H15493  10.165   5.328   5.707 -6.2426  1.1953  1.8187
  856MOL0     H15494   9.922   5.319   5.625 -1.8284 -3.1156  0.5280
  856MOL0     H15495   9.709   5.265   5.545 -1.1923  4.0012  0.7721
  856MOL0     H15496   9.790   5.386   5.448 -0.2308  0.5632 -0.5916
  856MOL0     H15497   9.558   5.379   5.377  0.4191  0.5814  0.6934
  856MOL0     H15498   9.643   5.300   5.241  2.3879 -1.4839 -0.4629
  856MOL0     H15499   9.592   5.093   5.367  1.5725  0.6757  2.6893
  856MOL0     H15500   9.478   5.174   5.464  1.0695 -0.9147  0.0166
  856MOL0     H15501   9.451   5.158   5.158  0.3299 -4.6758  1.3377
  856MOL0     H15502   9.350   5.091   5.297  0.5379 -0.7901 -0.4367
  856MOL0     H15503   9.300   5.336   5.352  2.3981  0.6632  0.3003
  856MOL0     H15504   9.373   5.364   5.190  0.4766 -1.2448 -2.8768
  856MOL0     H15505   9.186   5.183   5.129 -4.6591 -0.0677 -0.4987
  856MOL0     H15506   9.128   5.221   5.281  0.4804 -0.7673 -0.0433
  856MOL0     H15507   9.177   5.426   5.056  2.3372 -1.3065  2.1838
  856MOL0     H15508   9.038   5.328   5.086  3.0093 -2.2085 -3.2891
  856MOL0     H15509   9.125   5.581   5.209 -3.6824  1.8134  2.3440
  856MOL0     H15510   9.095   5.464   5.334  0.0486  0.7160  0.4257
  856MOL0     H15511   8.939   5.596   4.984 -0.8823 -2.5308 -0.4044
  856MOL0     H15512   8.671   5.843   5.089  0.6727 -0.4713  0.2299
  856MOL0     H15513   8.772   5.808   4.944  1.6438 -1.1323 -0.9181
  856MOL0     H15514   8.510   5.678   5.019  0.0885  2.3395  1.0023
  856MOL0     H15515   8.616   5.599   4.904  0.5555 -0.6257  0.1127
  856MOL0     H15516   8.535   5.756   4.731 -2.9554  0.5444 -1.2691
  856MOL0     H15517   8.613   5.886   4.820 -1.5061  0.8810  1.6499
  856MOL0     H15518   8.403   5.901   4.962  1.2001  1.6360 -0.5816
  856MOL0     H15519   8.339   5.777   4.854  0.4135 -0.0325 -0.1469
  856MOL0     H15520   8.279   6.178   4.637 -0.5281 -0.9136 -0.8182
  856MOL0     H15521   8.002   6.393   4.657 -1.3952 -1.2348  0.6108
  856MOL0     H15522   8.158   6.367   4.594  1.0903 -2.1502 -1.2971
  856MOL0     H15523   8.008   6.286   4.522 -0.1793  1.1406  0.3445
  856MOL0     H15524   7.572   6.101   4.703  0.7951 -2.5378  1.8734
  856MOL0     H15525   7.313   6.138   4.745 -2.1145  1.1206  1.8689
  856MOL0     H15526   7.174   6.271   5.143  0.7133  0.7836  0.5587
  856MOL0     H15527   7.224   6.426   5.067 -1.5660  1.0231 -0.7160
  856MOL0     H15528   6.967   6.269   5.025  0.4680  0.7144 -2.8549
  856MOL0     H15529   6.974   6.403   5.139 -2.3175 -2.2373  0.2035
  856MOL0     H15530   7.029   6.443   4.832  0.6278  1.2172 -0.0632
  856MOL0     H15531   7.026   6.564   4.958  0.9737 -1.2580  2.8673
  856MOL0     H15532   6.809   6.376   4.877  2.7930 -0.9826  0.7859
  856MOL0     H15533   6.789   6.484   5.020 -0.8818  2.5296  0.1747
  856MOL0     H15534   6.826   6.594   4.735 -1.0027  1.5937  0.2580
  856MOL0     H15535   6.817   6.688   4.887  5.2760 -2.0986  0.9798
  856MOL0     H15536   6.602   6.597   4.932 -0.9942  1.1121 -0.4163
  856MOL0     H15537   6.593   6.694   4.788  0.6588  1.0508  1.4823
  856MOL0     H15538   6.623   6.387   4.768 -1.8992 -0.3923  1.9763
  856MOL0     H15539   6.601   6.510   4.635  0.7423 -0.6632 -0.0154
  856MOL0     H15540   6.391   6.436   4.678 -0.0143  2.7476 -2.8260
  856MOL0     H15541   6.412   6.595   4.763  0.4163  0.8876 -2.1007
  856MOL0     H15542   7.417   6.349   5.099 -1.8051  0.6907 -1.9878
  856MOL0     H15543   7.647   6.275   5.084  0.3061  1.6211 -0.1720
  856MOL0     H15544   7.946   6.008   4.940 -0.9290  2.8060  0.8738
  856MOL0     H15545   8.157   5.883   4.921  0.4741 -0.4579  0.6808
  856MOL0     H15546  10.048   5.145   5.251 -1.4509  1.6720 -0.8500
  856MOL0     H15547  10.272   5.170   5.322 -0.4357  0.9154  0.2078
  856MOL0     H15548  10.574   5.340   5.500 -0.3368 -2.6740  1.2484
  856MOL0     H15549  10.791   5.468   5.523 -3.4114  1.7143 -1.4907
  856MOL0     H15550  10.999   5.545   5.902 -1.5217  0.6133 -1.4972
  856MOL0     H15551  10.991   5.369   5.879  0.6565 -1.0313 -1.4672
  856MOL0     H15552  11.223   5.450   5.883  1.5399  0.2039 -0.6016
  856MOL0     H15553  11.191   5.573   5.767 -1.6410  1.3798  0.8151
  856MOL0     H15554  11.188   5.396   5.582 -1.1960 -0.7911  0.8772
  856MOL0     H15555  11.165   5.271   5.698  2.3353 -0.8300  1.2338
  856MOL0     H15556  11.399   5.236   5.679  4.2585  0.3500  0.9216
  856MOL0     H15557  11.390   5.340   5.814  2.8086 -1.1843 -1.0303
  856MOL0     H15558  11.630   5.527   5.535 -1.3187  1.1367 -1.7438
  856MOL0     H15559  10.779   5.388   5.950 -3.0120 -2.4619  0.6949
  856MOL0     H15560  10.565   5.298   5.931  2.7654 -0.6613  1.0190
  857MOL0     O15561   7.352   9.903  11.375 -0.1762 -0.7770 -0.5355
  857MOL0     C15562   7.443   9.906  11.289 -0.2998  0.3088  0.1246
  857MOL0     O15563   7.568   9.972  11.309  0.5957 -0.0103  0.4145
  857MOL0     C15564   7.580  10.099  11.377  0.1196  0.3797  0.1386
  857MOL0     C15565   7.709  10.125  11.433  0.0516 -0.8448  0.1991
  857MOL0     C15566   7.733  10.246  11.489 -0.6782  0.2620 -0.7404
  857MOL0     C15567   7.623  10.340  11.505 -0.5016  0.0258  0.0014
  857MOL0     O15568   7.649  10.456  11.576  1.0217  0.1971 -0.4098
  857MOL0     C15569   7.774  10.522  11.551  0.4144  0.5318  0.2608
  857MOL0     C15570   7.745  10.670  11.527  0.1781 -0.3100 -0.8370
  857MOL0     C15571   7.637  10.691  11.425  0.3123  0.4661  0.3648
  857MOL0     C15572   7.623  10.843  11.394  0.6375  0.8397  0.6380
  857MOL0     C15573   7.751  10.919  11.336  0.6521  0.2965 -0.6207
  857MOL0     C15574   7.796  10.866  11.190  1.1694  0.0931 -0.1039
  857MOL0     C15575   7.895  10.962  11.134 -0.0302  0.8597  0.3466
  857MOL0     C15576   8.040  10.936  11.208  0.8905 -0.7280 -1.0105
  857MOL0     N15577   8.150  10.997  11.132 -1.0307 -0.5929  0.0445
  857MOL0     C15578   8.149  11.127  11.080  0.4801 -0.6488 -0.4410
  857MOL0     C15579   8.260  11.143  11.006 -0.1633 -0.0025  0.0049
  857MOL0     C15580   8.306  11.275  10.938 -1.1789  0.9161 -0.4757
  857MOL0     C15581   8.190  11.339  10.866  0.5654 -1.0537 -1.0759
  857MOL0     C15582   8.221  11.461  10.781 -0.2467  0.1563  0.0420
  857MOL0     C15583   8.291  11.434  10.655 -0.0249 -0.1894  0.1973
  857MOL0     O15584   8.428  11.394  10.668  0.5222  0.9032 -0.3207
  857MOL0     C15585   8.521  11.431  10.578  0.7888 -0.3698  0.0819
  857MOL0     C15586   8.654  11.408  10.612  0.2037  0.1786 -0.4466
  857MOL0     C15587   8.759  11.436  10.523  0.5751 -0.6598 -0.2253
  857MOL0     C15588   8.894  11.395  10.572  0.4618  0.0107  0.5722
  857MOL0     C15589   8.725  11.487  10.393  0.0997 -0.1848  0.1354
  857MOL0     C15590   8.819  11.514  10.283  0.7502  1.2804 -0.2387
  857MOL0     O15591   8.766  11.570  10.167  0.0562 -0.8166 -0.0156
  857MOL0     C15592   8.858  11.621  10.081 -0.0704  0.0069  0.8276
  857MOL0     C15593   8.858  11.572   9.949  0.6272 -0.6560 -0.1590
  857MOL0     C15594   8.952  11.619   9.853  1.1633 -0.1090 -0.3803
  857MOL0     C15595   9.043  11.720   9.887 -0.2479 -0.4911  0.6569
  857MOL0     O15596   9.140  11.741   9.797 -0.2191 -0.4399  0.2648
  857MOL0     C15597   9.257  11.647   9.820  0.7433  0.2937  0.9105
  857MOL0     C15598   9.376  11.700   9.738 -0.2954  0.2480  0.3329
  857MOL0     C15599   9.391  11.851   9.738 -0.7091  0.3272  0.1508
  857MOL0     C15600   9.495  11.885   9.641 -0.0696 -0.3606 -0.3942
  857MOL0     C15601   9.493  12.041   9.627 -0.2775 -0.1101  0.2152
  857MOL0     C15602   9.550  12.081   9.493  0.7999 -0.4063 -0.3611
  857MOL0     C15603   9.701  12.063   9.482  0.9578  0.4073  0.2658
  857MOL0     C15604   9.768  12.126   9.354  0.0874  0.3816  0.6014
  857MOL0    Cl15605   9.933  12.091   9.316  0.5266  0.4241  0.3534
  857MOL0     C15606   9.035  11.782  10.014  0.3793 -0.1007  0.1464
  857MOL0     C15607   8.939  11.728  10.111 -0.5875 -0.4700  0.0807
  857MOL0     O15608   8.940  11.487  10.297 -0.1483  0.5453 -0.4511
  857MOL0     C15609   8.587  11.518  10.364  0.0881  0.2257  0.4617
  857MOL0     C15610   8.489  11.495  10.460  0.6822 -0.8672  0.6178
  857MOL0     N15611   8.326  11.024  11.020  1.1087 -0.0298  0.3793
  857MOL0     N15612   8.251  10.933  11.079 -0.6374  0.2806 -0.1300
  857MOL0     C15613   7.502  10.321  11.443  0.7611  0.4211 -0.0590
  857MOL0     C15614   7.483  10.197  11.379 -0.2317 -0.8753 -0.2350
  857MOL0     C15615   7.426   9.822  11.166 -1.0785 -0.3441  0.1151
  857MOL0     C15616   7.491   9.841  11.054  0.1189 -0.6428  0.0887
  857MOL0     C15617   7.471   9.763  10.947  0.6199  0.0126 -0.2107
  857MOL0     C15618   7.385   9.649  10.949 -0.0216  0.4228 -0.3223
  857MOL0     O15619   7.346   9.595  10.826  0.4058 -0.1705  0.2050
  857MOL0     C15620   7.338   9.451  10.827 -0.5265  0.3724  0.1148
  857MOL0     C15621   7.284   9.412  10.691  0.2553 -0.3693 -1.3809
  857MOL0     C15622   7.375   9.449  10.578  0.8052  0.5839  0.2112
  857MOL0     C15623   7.505   9.359  10.568  0.4326 -0.5740  0.0722
  857MOL0     C15624   7.470   9.217  10.554  0.1968 -0.5850  0.2054
  857MOL0     C15625   7.441   9.100  10.559 -0.5901  0.3947  0.7448
  857MOL0     C15626   7.334   9.620  11.066 -0.1507 -0.8204  0.5869
  857MOL0     C15627   7.345   9.710  11.174  0.1158  0.2975 -0.6210
  857MOL0     H15628   7.784  10.047  11.427 -0.4104 -1.3488  0.7775
  857MOL0     H15629   7.832  10.273  11.524 -0.4135 -0.2532 -1.0821
  857MOL0     H15630   7.830  10.491  11.640 -0.1009  1.2758  0.8552
  857MOL0     H15631   7.823  10.485  11.460 -1.5194 -1.3022 -0.1080
  857MOL0     H15632   7.725  10.708  11.628  2.3287 -0.0394 -0.4701
  857MOL0     H15633   7.835  10.712  11.481 -0.2077  1.4809 -0.0410
  857MOL0     H15634   7.666  10.645  11.330  0.0986 -0.8968  0.9389
  857MOL0     H15635   7.540  10.658  11.465 -0.3023  1.6090 -0.1145
  857MOL0     H15636   7.556  10.850  11.308  0.3435 -0.1517  0.7740
  857MOL0     H15637   7.580  10.898  11.479 -2.9953 -0.5200 -0.1578
  857MOL0     H15638   7.721  11.024  11.346 -1.6030 -0.5250  6.1997
  857MOL0     H15639   7.840  10.903  11.397 -0.6056 -0.5378  1.0863
  857MOL0     H15640   7.838  10.766  11.199 -2.2899 -1.7875 -2.5173
  857MOL0     H15641   7.701  10.853  11.139  1.1979 -1.4043  0.1895
  857MOL0     H15642   7.908  10.937  11.028  5.5812 -1.3632  1.1749
  857MOL0     H15643   7.861  11.064  11.147 -0.0836  1.4022 -3.1215
  857MOL0     H15644   8.056  10.830  11.228 -1.4777 -0.9062  0.2735
  857MOL0     H15645   8.047  10.988  11.304  0.6188  0.0268 -1.3885
  857MOL0     H15646   8.086  11.209  11.112 -0.1180 -0.5183 -1.8560
  857MOL0     H15647   8.341  11.337  11.021 -0.4658 -3.0263  2.4629
  857MOL0     H15648   8.386  11.255  10.866 -2.9960 -4.3929 -1.5587
  857MOL0     H15649   8.114  11.365  10.940 -0.8152 -0.5010 -2.6381
  857MOL0     H15650   8.141  11.256  10.814 -1.2294  0.8674 -2.6723
  857MOL0     H15651   8.285  11.528  10.839  0.3315 -1.2387  1.0743
  857MOL0     H15652   8.131  11.523  10.772  0.5324  1.2316 -0.4089
  857MOL0     H15653   8.273  11.520  10.589  0.1105 -0.3254 -0.0200
  857MOL0     H15654   8.244  11.347  10.607 -0.2316 -0.2603  0.5323
  857MOL0     H15655   8.682  11.363  10.707  1.0400 -1.1978 -1.2990
  857MOL0     H15656   8.963  11.480  10.564 -1.3787  1.9741  3.2794
  857MOL0     H15657   8.888  11.370  10.679  3.7253 -0.5325  0.7045
  857MOL0     H15658   8.931  11.312  10.513 -3.9167 -1.4516 -0.4776
  857MOL0     H15659   8.786  11.497   9.916 -1.2305  1.4344 -1.1748
  857MOL0     H15660   8.969  11.574   9.755  1.9181 -0.1446 -0.2436
  857MOL0     H15661   9.280  11.650   9.927 -0.7102  4.3583  1.3009
  857MOL0     H15662   9.229  11.551   9.776  1.0331  0.1741  0.9898
  857MOL0     H15663   9.473  11.665   9.775 -0.3307  0.3630  0.5388
  857MOL0     H15664   9.369  11.666   9.634 -1.6134 -0.9085  0.7642
  857MOL0     H15665   9.417  11.888   9.837  2.6900 -0.9102 -0.1481
  857MOL0     H15666   9.301  11.897   9.695 -1.6662 -2.5341 -1.1716
  857MOL0     H15667   9.595  11.851   9.670  0.2095  0.1678 -0.7322
  857MOL0     H15668   9.465  11.850   9.541 -2.2332  0.9286 -0.2637
  857MOL0     H15669   9.550  12.091   9.706 -0.2268  0.3142 -0.0822
  857MOL0     H15670   9.393  12.084   9.620  0.4438  1.4852 -0.8920
  857MOL0     H15671   9.496  12.029   9.413  0.9919 -0.6051 -0.3628
  857MOL0     H15672   9.537  12.189   9.478  1.6053 -0.0636  1.1652
  857MOL0     H15673   9.725  11.956   9.492  1.3698  0.3785 -0.9566
  857MOL0     H15674   9.732  12.120   9.571  3.4600  0.1565 -0.3777
  857MOL0     H15675   9.760  12.235   9.365  1.2417  0.2889  2.8544
  857MOL0     H15676   9.709  12.095   9.267 -3.1553  0.3812  2.6231
  857MOL0     H15677   9.116  11.848  10.042  1.6517 -0.8887 -1.4914
  857MOL0     H15678   8.934  11.768  10.211  2.3059  0.7756 -0.1710
  857MOL0     H15679   8.562  11.551  10.263 -0.0371 -2.0248 -0.2892
  857MOL0     H15680   8.390  11.525  10.427  1.0044 -1.0041 -0.5550
  857MOL0     H15681   7.419  10.391  11.435  0.7745  0.4198 -0.2072
  857MOL0     H15682   7.393  10.189  11.320 -0.2734  0.2226 -0.3397
  857MOL0     H15683   7.555   9.929  11.052  1.8473 -1.8211  1.4166
  857MOL0     H15684   7.527   9.802  10.862 -1.3839  3.6083 -0.0501
  857MOL0     H15685   7.437   9.405  10.829 -1.2443 -1.3713 -1.2260
  857MOL0     H15686   7.276   9.402  10.903 -0.2925 -2.1298 -1.1976
  857MOL0     H15687   7.184   9.453  10.676 -0.5269 -1.6946  0.0418
  857MOL0     H15688   7.270   9.304  10.694 -3.1975 -0.0281  1.4047
  857MOL0     H15689   7.399   9.555  10.587  1.6205  0.5792 -1.5191
  857MOL0     H15690   7.326   9.448  10.481 -2.0339 -2.5149  1.4609
  857MOL0     H15691   7.575   9.377  10.650  2.9215 -2.3611 -1.4998
  857MOL0     H15692   7.558   9.391  10.477 -1.8127 -0.2673 -1.1908
  857MOL0     H15693   7.401   9.001  10.573 -5.0551  2.0550  1.4166
  857MOL0     H15694   7.263   9.538  11.068 -2.5583  1.0796 -0.6031
  857MOL0     H15695   7.298   9.691  11.270 -0.2112  0.2845 -0.7798
  858MOL0     O15696   9.241   4.207  10.928  0.1415 -0.2010 -0.2582
  858MOL0     C15697   9.259   4.331  10.932 -0.2699  0.5018  0.4752
  858MOL0     O15698   9.228   4.406  11.036  0.1029  0.2518  0.2625
  858MOL0     C15699   9.172   4.355  11.148 -0.2751 -0.2266 -0.0533
  858MOL0     C15700   9.138   4.221  11.191 -0.0283 -1.0852  0.4304
  858MOL0     C15701   9.133   4.191  11.325 -0.1788 -0.2694 -0.4143
  858MOL0     C15702   9.132   4.286  11.420 -0.4377  0.2057  0.7334
  858MOL0     O15703   9.132   4.252  11.551 -0.2694 -0.7028  0.0482
  858MOL0     C15704   9.252   4.221  11.606  0.3853 -0.6013 -0.7756
  858MOL0     C15705   9.259   4.234  11.755 -0.6654 -0.7777 -0.0043
  858MOL0     C15706   9.247   4.384  11.784 -0.6176 -0.2544  0.2106
  858MOL0     C15707   9.109   4.441  11.816  0.3303 -0.2109 -0.0280
  858MOL0     C15708   9.115   4.592  11.838 -0.5814  0.6693  0.7481
  858MOL0     C15709   9.221   4.654  11.932 -0.3210  0.2571  0.9291
  858MOL0     C15710   9.189   4.616  12.079 -0.1817  0.3968 -0.3666
  858MOL0     C15711   9.076   4.698  12.140 -0.0888 -0.1192 -0.6017
  858MOL0     N15712   9.123   4.820  12.221  0.0790  0.3603  0.7676
  858MOL0     C15713   9.052   4.878  12.318 -0.1329  0.0230 -0.1572
  858MOL0     C15714   9.124   4.983  12.363  0.5357 -0.7166 -0.2079
  858MOL0     C15715   9.075   5.085  12.469  0.0804  0.9810  0.5981
  858MOL0     C15716   9.155   5.224  12.471 -0.4086  0.7546 -0.2378
  858MOL0     C15717   9.086   5.306  12.587  0.4228 -0.0140 -0.7162
  858MOL0     C15718   9.162   5.430  12.621  0.2646 -0.0958  0.9986
  858MOL0     O15719   9.110   5.461  12.761  0.5863 -0.6102 -0.0602
  858MOL0     C15720   9.163   5.563  12.825 -0.1750  0.0873 -0.2272
  858MOL0     C15721   9.259   5.643  12.781 -0.7717  0.2338 -0.1088
  858MOL0     C15722   9.287   5.763  12.849  0.2490  0.3918  0.2432
  858MOL0     C15723   9.380   5.855  12.768 -0.3452  0.0655 -0.1557
  858MOL0     C15724   9.235   5.784  12.983  0.3745 -0.1171  0.6804
  858MOL0     C15725   9.259   5.904  13.072  0.7276  0.1002 -0.8777
  858MOL0     O15726   9.158   5.934  13.173 -0.7440 -0.0038 -0.4657
  858MOL0     C15727   9.154   6.054  13.246 -0.4970  0.3447 -0.1898
  858MOL0     C15728   9.035   6.066  13.317  0.1635 -0.1716 -0.5618
  858MOL0     C15729   9.000   6.190  13.370  0.3809  0.4969 -0.0161
  858MOL0     C15730   9.089   6.304  13.359 -0.5924 -0.4343 -0.1132
  858MOL0     O15731   9.049   6.424  13.414  0.4391  0.1123  0.0299
  858MOL0     C15732   9.144   6.535  13.424 -0.6025 -0.6379 -0.9684
  858MOL0     C15733   9.102   6.659  13.516  0.0025 -0.3679  0.4197
  858MOL0     C15734   9.101   6.621  13.671 -1.3836 -0.2762 -0.4087
  858MOL0     C15735   9.070   6.746  13.750 -0.4590 -0.5872  0.2975
  858MOL0     C15736   9.031   6.726  13.896  0.0803  0.4258  0.2011
  858MOL0     C15737   8.888   6.684  13.926 -0.5714  0.7668  0.4296
  858MOL0     C15738   8.862   6.632  14.066  0.3573  0.6381 -0.4188
  858MOL0     C15739   8.717   6.599  14.091  1.7529 -0.1441 -0.7008
  858MOL0    Cl15740   8.695   6.618  14.270  0.0679  0.4755 -0.3542
  858MOL0     C15741   9.215   6.282  13.297  0.7605 -0.3739 -0.7270
  858MOL0     C15742   9.250   6.163  13.238  0.2079 -0.4270 -0.1881
  858MOL0     O15743   9.366   5.955  13.061  0.0897  0.1458 -0.3637
  858MOL0     C15744   9.157   5.678  13.040 -0.3341 -0.0004 -1.1825
  858MOL0     C15745   9.114   5.577  12.955  0.2241  0.5489  0.0413
  858MOL0     N15746   9.237   4.995  12.283 -0.2707  0.0938 -0.3901
  858MOL0     N15747   9.231   4.899  12.200  0.5514  0.2430  0.2319
  858MOL0     C15748   9.154   4.413  11.385  1.0046  0.3134  0.4850
  858MOL0     C15749   9.176   4.447  11.254  0.4440  0.3233 -0.3508
  858MOL0     C15750   9.315   4.395  10.806  0.3235 -0.1496 -0.7237
  858MOL0     C15751   9.305   4.526  10.785 -0.9631 -0.3582  0.8594
  858MOL0     C15752   9.357   4.590  10.672 -0.5435 -0.0410 -1.5314
  858MOL0     C15753   9.424   4.512  10.582  0.1362  0.2225  0.2424
  858MOL0     O15754   9.460   4.549  10.460 -0.1555 -0.8547  0.1101
  858MOL0     C15755   9.444   4.679  10.402 -0.2558 -0.2464 -0.5667
  858MOL0     C15756   9.444   4.656  10.247  0.4220 -0.1954  0.1796
  858MOL0     C15757   9.478   4.786  10.176 -0.6170 -0.6345  0.5857
  858MOL0     C15758   9.392   4.909  10.227 -0.5812  0.9379  0.5582
  858MOL0     C15759   9.393   5.020  10.127 -0.3080  1.7252 -0.3593
  858MOL0     C15760   9.371   5.113  10.053 -0.1118  0.1832 -0.5220
  858MOL0     C15761   9.443   4.378  10.603  0.2667 -0.3020  0.0112
  858MOL0     C15762   9.386   4.320  10.715 -0.4072 -0.0054  0.4298
  858MOL0     H15763   9.127   4.141  11.119 -0.1983  0.0329 -0.8310
  858MOL0     H15764   9.126   4.089  11.362  1.9544 -1.6400 -3.2879
  858MOL0     H15765   9.275   4.117  11.578 -0.2936 -0.9484 -0.0586
  858MOL0     H15766   9.332   4.285  11.567 -0.5053  0.2951 -1.1575
  858MOL0     H15767   9.170   4.191  11.802 -0.7229 -0.3048  0.3307
  858MOL0     H15768   9.353   4.206  11.803 -1.4585 -1.0672  1.4507
  858MOL0     H15769   9.308   4.389  11.875  3.7305 -1.6615 -2.3546
  858MOL0     H15770   9.298   4.443  11.708  0.9756 -0.8834  0.7534
  858MOL0     H15771   9.040   4.430  11.731  2.1677 -3.1173 -1.3029
  858MOL0     H15772   9.067   4.405  11.910 -4.1023  1.5122 -1.0689
  858MOL0     H15773   9.137   4.640  11.742  0.4958  0.8561  1.0852
  858MOL0     H15774   9.019   4.623  11.881  0.4869  0.8641  3.1090
  858MOL0     H15775   9.317   4.613  11.899 -1.0095  0.5602 -1.6523
  858MOL0     H15776   9.223   4.762  11.917 -0.5201  0.0874 -0.4952
  858MOL0     H15777   9.153   4.513  12.073  0.6113  0.0829  0.0516
  858MOL0     H15778   9.275   4.620  12.147 -0.0855  0.6588 -0.5057
  858MOL0     H15779   9.021   4.637  12.213 -2.6252  0.9585 -1.5031
  858MOL0     H15780   8.998   4.719  12.066  0.9066  1.5665 -1.2289
  858MOL0     H15781   8.957   4.851  12.364 -1.1536  1.6980 -1.1857
  858MOL0     H15782   8.970   5.104  12.444 -0.4789  1.0212  2.8243
  858MOL0     H15783   9.084   5.032  12.564 -2.1487  0.9635  0.8502
  858MOL0     H15784   9.144   5.280  12.377  3.1470 -0.9968 -1.8725
  858MOL0     H15785   9.259   5.203  12.495 -0.6572  2.0593  2.2745
  858MOL0     H15786   9.073   5.246  12.678 -1.9109  4.2622  2.1176
  858MOL0     H15787   8.986   5.338  12.556  0.4027  0.3401 -0.2964
  858MOL0     H15788   9.140   5.514  12.554  2.0111  0.9127  1.6230
  858MOL0     H15789   9.270   5.417  12.611  0.7359  2.6792  1.6979
  858MOL0     H15790   9.291   5.637  12.677 -0.8297 -2.2233 -0.0311
  858MOL0     H15791   9.472   5.798  12.758 -0.9160 -1.0214  0.6545
  858MOL0     H15792   9.336   5.865  12.668 -0.0984  0.2895 -0.2420
  858MOL0     H15793   9.397   5.955  12.809 -2.4235  1.1856 -1.7795
  858MOL0     H15794   8.965   5.984  13.330 -1.4685  0.9194 -2.0590
  858MOL0     H15795   8.910   6.201  13.430 -0.1890 -0.4781 -0.6580
  858MOL0     H15796   9.226   6.481  13.471 -2.1698 -1.3457  1.1389
  858MOL0     H15797   9.163   6.568  13.322  0.6716  0.1698 -0.4862
  858MOL0     H15798   9.173   6.740  13.497  0.3238 -0.6510  0.3937
  858MOL0     H15799   9.006   6.700  13.484  0.5842  0.0666 -0.8580
  858MOL0     H15800   9.197   6.577  13.698 -3.1573 -2.3234  3.3490
  858MOL0     H15801   9.020   6.547  13.677  1.1458 -3.5287 -2.4451
  858MOL0     H15802   9.167   6.796  13.762 -1.2056  1.5646 -1.9172
  858MOL0     H15803   9.000   6.811  13.698  1.3281  1.3517  0.1550
  858MOL0     H15804   9.041   6.824  13.941  0.1509  1.5429 -2.0825
  858MOL0     H15805   9.101   6.656  13.943 -1.4360 -0.3053  1.4878
  858MOL0     H15806   8.827   6.774  13.912  3.3160  3.7403  0.7081
  858MOL0     H15807   8.873   6.607  13.850  1.0915  2.7187 -2.0306
  858MOL0     H15808   8.897   6.708  14.136  2.1699  0.1192 -0.6912
  858MOL0     H15809   8.931   6.546  14.073 -0.1172  0.1491 -1.4920
  858MOL0     H15810   8.687   6.495  14.079 -3.0924  0.4560  3.2149
  858MOL0     H15811   8.647   6.667  14.041 -1.8828 -1.6426  1.9177
  858MOL0     H15812   9.287   6.363  13.303  0.5611 -0.3149  1.6527
  858MOL0     H15813   9.345   6.169  13.187  0.6310 -0.8885  0.5290
  858MOL0     H15814   9.113   5.687  13.139  2.5744  0.2704  0.1890
  858MOL0     H15815   9.035   5.506  12.979  1.7493 -1.5619 -0.8719
  858MOL0     H15816   9.161   4.498  11.452 -2.7543  0.8380  0.4068
  858MOL0     H15817   9.213   4.548  11.237 -1.2844  1.3282  1.3943
  858MOL0     H15818   9.258   4.594  10.855 -5.1893 -0.3747 -1.6253
  858MOL0     H15819   9.351   4.697  10.656  2.0288  0.5982  1.0119
  858MOL0     H15820   9.351   4.719  10.443  0.4864 -1.4935  2.6977
  858MOL0     H15821   9.520   4.757  10.412 -0.4845  0.6179 -4.3089
  858MOL0     H15822   9.343   4.629  10.218  1.2671 -0.6643 -2.6106
  858MOL0     H15823   9.519   4.579  10.227  2.3743  1.3665  1.1114
  858MOL0     H15824   9.461   4.776  10.069  1.3621  1.5471  0.0019
  858MOL0     H15825   9.583   4.815  10.186 -0.9755  2.1012 -2.1538
  858MOL0     H15826   9.436   4.957  10.314  0.8104  0.8914 -0.0858
  858MOL0     H15827   9.288   4.883  10.251  0.0878 -1.0301  1.5562
  858MOL0     H15828   9.349   5.201   9.996 -0.5071  0.7357  0.4374
  858MOL0     H15829   9.493   4.325  10.522  0.3701  2.5162 -1.9139
  858MOL0     H15830   9.391   4.211  10.716 -0.7807 -0.0364 -0.4990
  859MOL0     O15831   9.772   3.427   0.875  1.0019 -0.3343 -0.3983
  859MOL0     C15832   9.790   3.322   0.936  0.6989  0.8829 -0.1344
  859MOL0     O15833   9.808   3.199   0.878  0.2625  0.0248 -0.9643
  859MOL0     C15834   9.843   3.189   0.749  0.7066  0.1034 -0.7651
  859MOL0     C15835   9.774   3.252   0.645 -0.6195  0.0103 -0.0100
  859MOL0     C15836   9.826   3.234   0.521  0.1934  0.3711 -0.0446
  859MOL0     C15837   9.943   3.171   0.496 -0.9964  0.0326 -0.2978
  859MOL0     O15838  10.006   3.173   0.370 -1.0393 -0.4229  0.1942
  859MOL0     C15839  10.039   3.317   0.328  0.5609  0.5216  0.1275
  859MOL0     C15840  10.051   3.332   0.172 -0.6508  0.7648 -0.6578
  859MOL0     C15841   9.931   3.259   0.096  0.3692  0.1159  0.1214
  859MOL0     C15842   9.980   3.121   0.046  0.3047  0.4286 -0.6085
  859MOL0     C15843   9.863   3.044  -0.025 -0.8139  0.1981  0.7402
  859MOL0     C15844   9.910   3.001  -0.162  0.5845  0.1873  0.1755
  859MOL0     C15845   9.938   3.108  -0.268  0.2383  0.2659  0.0313
  859MOL0     C15846   9.987   3.056  -0.401 -0.3340 -0.4821 -0.5849
  859MOL0     N15847   9.981   3.154  -0.508  0.2636  0.1392 -0.0101
  859MOL0     C15848   9.941   3.143  -0.640  0.3473  1.2948 -0.7217
  859MOL0     C15849   9.982   3.261  -0.705 -0.0473  0.7256  0.9417
  859MOL0     C15850   9.970   3.299  -0.851 -0.6923 -0.0867 -0.6550
  859MOL0     C15851   9.830   3.264  -0.916 -0.8341 -0.1500  0.1387
  859MOL0     C15852   9.831   3.130  -0.976 -0.3899 -0.1665  0.1243
  859MOL0     C15853   9.691   3.059  -0.996  0.7591  0.2564  0.0405
  859MOL0     O15854   9.606   3.147  -1.068 -0.2889 -0.2853 -0.0125
  859MOL0     C15855   9.478   3.139  -1.029  1.2471  0.1177  0.3820
  859MOL0     C15856   9.429   3.170  -0.905 -0.4884 -0.5038  0.9535
  859MOL0     C15857   9.288   3.186  -0.878 -0.1925 -0.3297  0.4558
  859MOL0     C15858   9.241   3.218  -0.737  0.1441 -0.0235  0.8602
  859MOL0     C15859   9.197   3.190  -0.985  0.5039  0.6911  0.1892
  859MOL0     C15860   9.047   3.194  -0.970 -0.1091  0.2037 -0.5251
  859MOL0     O15861   8.970   3.241  -1.068  0.0284  0.1557  0.0779
  859MOL0     C15862   8.846   3.275  -1.019 -0.7875 -0.2203  1.0769
  859MOL0     C15863   8.816   3.385  -0.935 -0.4925  0.7957 -0.3678
  859MOL0     C15864   8.676   3.418  -0.912 -0.5913 -0.5328  0.6581
  859MOL0     C15865   8.576   3.333  -0.951 -0.2634  0.0423  0.1952
  859MOL0     O15866   8.446   3.351  -0.922 -0.1469  0.3233  0.1550
  859MOL0     C15867   8.412   3.386  -0.791  0.6716  0.3959  0.2265
  859MOL0     C15868   8.344   3.269  -0.712  0.2566  0.3253 -0.3036
  859MOL0     C15869   8.386   3.287  -0.561 -0.2726  0.0543  0.3700
  859MOL0     C15870   8.330   3.170  -0.473  0.5361  0.2429 -0.5953
  859MOL0     C15871   8.393   3.182  -0.334 -0.9394  0.2771  0.4082
  859MOL0     C15872   8.336   3.085  -0.229 -0.0345  1.4606  0.3967
  859MOL0     C15873   8.181   3.069  -0.227  0.1024  0.4622 -0.7823
  859MOL0     C15874   8.135   2.991  -0.110 -0.3475  0.4849 -0.7856
  859MOL0    Cl15875   8.174   3.073   0.045 -0.1622  0.5274 -0.5668
  859MOL0     C15876   8.607   3.223  -1.029 -0.2090  0.7866 -0.2064
  859MOL0     C15877   8.745   3.187  -1.057  0.1875  0.5914 -0.2794
  859MOL0     O15878   9.003   3.128  -0.875 -0.7838  0.2113 -0.5066
  859MOL0     C15879   9.256   3.170  -1.113  0.1600  0.5904  0.0302
  859MOL0     C15880   9.392   3.142  -1.139  0.0536 -0.5610 -0.6033
  859MOL0     N15881  10.049   3.332  -0.610  0.0564 -0.2658 -0.3977
  859MOL0     N15882  10.050   3.268  -0.500  0.3068  0.1560  0.2016
  859MOL0     C15883  10.010   3.104   0.598 -0.1813  0.7144  0.7451
  859MOL0     C15884   9.961   3.113   0.726 -0.3317 -0.9048  0.2252
  859MOL0     C15885   9.807   3.336   1.095 -0.0736 -1.2013  0.1417
  859MOL0     C15886   9.774   3.455   1.159  1.0055 -0.7736 -0.1150
  859MOL0     C15887   9.786   3.472   1.297  0.7901 -0.3757 -0.2394
  859MOL0     C15888   9.844   3.367   1.371  0.0483 -0.0882  0.1243
  859MOL0     O15889   9.846   3.385   1.513 -0.4689 -0.4579  0.0157
  859MOL0     C15890   9.859   3.284   1.611  0.1868 -0.5887 -0.0439
  859MOL0     C15891   9.714   3.263   1.650  0.4320 -0.2326 -0.0782
  859MOL0     C15892   9.696   3.127   1.717 -0.2686  0.6871 -0.3620
  859MOL0     C15893   9.564   3.118   1.793  1.2039  1.1568  0.1097
  859MOL0     C15894   9.446   3.091   1.705 -0.4727 -0.7127 -0.3971
  859MOL0     C15895   9.362   3.066   1.627 -0.0594 -0.2931  0.4317
  859MOL0     C15896   9.894   3.249   1.309  0.8476 -0.4460  0.7292
  859MOL0     C15897   9.875   3.240   1.174  0.0759 -0.6491  0.8192
  859MOL0     H15898   9.691   3.321   0.656 -0.9615  0.1376 -2.6107
  859MOL0     H15899   9.780   3.302   0.450 -3.8627  0.0093  1.9234
  859MOL0     H15900   9.963   3.388   0.363 -1.1060 -1.9596  1.8320
  859MOL0     H15901  10.134   3.350   0.371  0.2411  0.6991  0.7176
  859MOL0     H15902  10.046   3.435   0.134  0.1174 -0.3938 -4.2604
  859MOL0     H15903  10.142   3.284   0.136 -1.7603 -2.4324  0.4382
  859MOL0     H15904   9.842   3.239   0.157  1.8054 -1.1020  1.9104
  859MOL0     H15905   9.904   3.324   0.012 -1.1416  1.5396  1.6216
  859MOL0     H15906  10.059   3.138  -0.028 -1.6692 -1.0777 -3.2619
  859MOL0     H15907  10.015   3.069   0.136 -1.2280  1.4015  0.6028
  859MOL0     H15908   9.836   2.957   0.036 -4.2742 -0.4027 -1.3926
  859MOL0     H15909   9.771   3.103  -0.028 -0.2130  1.1302  0.4404
  859MOL0     H15910  10.003   2.945  -0.149  0.7933 -1.0390 -4.6878
  859MOL0     H15911   9.835   2.931  -0.200  0.1762  0.6748  0.0712
  859MOL0     H15912   9.842   3.158  -0.282 -1.0749 -1.5169  1.9760
  859MOL0     H15913  10.012   3.176  -0.224  0.2914  1.1959 -1.4239
  859MOL0     H15914   9.931   2.965  -0.425  0.1656 -0.9279 -0.0722
  859MOL0     H15915  10.086   3.013  -0.383 -1.9981 -3.8107  1.5210
  859MOL0     H15916   9.906   3.054  -0.692  0.3220 -0.7348  2.4790
  859MOL0     H15917   9.976   3.409  -0.853 -1.7696 -0.0121 -0.4270
  859MOL0     H15918  10.056   3.256  -0.904 -0.7592  0.3479 -1.1300
  859MOL0     H15919   9.815   3.337  -0.996  2.4236  1.6873  1.0224
  859MOL0     H15920   9.753   3.269  -0.839 -0.8271 -1.6044  0.2714
  859MOL0     H15921   9.911   3.074  -0.927  1.5575  0.6693 -1.9220
  859MOL0     H15922   9.869   3.126  -1.078  2.3325  1.2593  0.9997
  859MOL0     H15923   9.637   3.020  -0.910 -4.5877 -0.7992 -3.3024
  859MOL0     H15924   9.710   2.972  -1.061  2.8097  0.4339  0.3365
  859MOL0     H15925   9.502   3.168  -0.825  0.0345 -0.2719  0.4806
  859MOL0     H15926   9.230   3.124  -0.682 -0.1881 -0.7168 -0.3538
  859MOL0     H15927   9.325   3.278  -0.700  0.3107  0.0929  0.3015
  859MOL0     H15928   9.142   3.265  -0.743 -0.8102 -1.8772  1.3470
  859MOL0     H15929   8.901   3.447  -0.909 -0.6341  0.7466  0.2192
  859MOL0     H15930   8.652   3.517  -0.874 -0.9844  0.1600 -1.3088
  859MOL0     H15931   8.498   3.423  -0.735  1.9608  2.0601 -2.6222
  859MOL0     H15932   8.340   3.468  -0.798 -0.4683 -0.7085 -4.2795
  859MOL0     H15933   8.238   3.276  -0.736  1.0322  2.7838 -3.8041
  859MOL0     H15934   8.384   3.170  -0.736  1.4258  0.4817  0.8695
  859MOL0     H15935   8.356   3.384  -0.521 -1.9164 -0.6398  0.9075
  859MOL0     H15936   8.494   3.285  -0.549 -0.3021 -0.1222  0.5971
  859MOL0     H15937   8.221   3.178  -0.473  0.1420 -2.5259  2.5230
  859MOL0     H15938   8.350   3.067  -0.505  1.6375 -0.2551  1.4846
  859MOL0     H15939   8.373   3.282  -0.293 -2.2191 -1.0866  3.4806
  859MOL0     H15940   8.499   3.156  -0.340 -0.5442  1.5963  1.3054
  859MOL0     H15941   8.384   2.990  -0.256 -0.2001  1.1047  1.3189
  859MOL0     H15942   8.377   3.104  -0.130  3.8427 -1.0356 -0.5208
  859MOL0     H15943   8.153   3.023  -0.322  2.4937  1.3928 -2.0182
  859MOL0     H15944   8.126   3.163  -0.218 -1.8841 -0.6863 -0.3156
  859MOL0     H15945   8.186   2.895  -0.113 -1.1424 -0.0827  1.7576
  859MOL0     H15946   8.028   2.971  -0.115 -0.1135 -0.6568 -1.7517
  859MOL0     H15947   8.531   3.153  -1.063  1.5473 -1.2709 -0.1575
  859MOL0     H15948   8.757   3.097  -1.117 -4.6530 -1.4300  1.3075
  859MOL0     H15949   9.191   3.162  -1.199 -1.0896  3.5055  0.6109
  859MOL0     H15950   9.430   3.125  -1.240  0.1180  0.1947 -0.7121
  859MOL0     H15951  10.097   3.043   0.577 -2.2531 -2.2221  0.1047
  859MOL0     H15952  10.015   3.060   0.804 -0.1635 -0.0197  0.7264
  859MOL0     H15953   9.720   3.530   1.102  2.6099 -0.9900 -2.0219
  859MOL0     H15954   9.764   3.569   1.342 -2.8777 -1.5350  0.8130
  859MOL0     H15955   9.901   3.189   1.577 -1.2334 -1.2149 -0.1141
  859MOL0     H15956   9.902   3.325   1.703  2.0139  0.2483 -1.2189
  859MOL0     H15957   9.642   3.278   1.570  0.9915 -0.2054 -0.5791
  859MOL0     H15958   9.701   3.335   1.732 -2.5803  0.8772 -1.3825
  859MOL0     H15959   9.779   3.109   1.787 -3.4114  0.5813  3.6824
  859MOL0     H15960   9.697   3.050   1.640 -0.5955 -0.9167  1.1683
  859MOL0     H15961   9.553   3.217   1.840  0.1611  1.0931  0.0204
  859MOL0     H15962   9.556   3.040   1.869 -1.0858  1.3668  0.1568
  859MOL0     H15963   9.287   3.054   1.550  0.4487 -0.4917 -0.0388
  859MOL0     H15964   9.957   3.184   1.368 -0.7331 -2.7143  0.0558
  859MOL0     H15965   9.913   3.152   1.124 -1.0529  0.2828 -1.8432
  860MOL0     O15966   6.222   5.424   5.769 -0.1218 -0.3173  0.1484
  860MOL0     C15967   6.171   5.356   5.854 -0.5652  0.1201 -1.0645
  860MOL0     O15968   6.220   5.336   5.977 -0.7409  0.3809  0.3114
  860MOL0     C15969   6.325   5.404   6.041 -0.0139 -0.1799 -0.5366
  860MOL0     C15970   6.341   5.380   6.177 -0.5554 -0.3138  0.0620
  860MOL0     C15971   6.443   5.432   6.249  0.3119 -0.3120 -1.7970
  860MOL0     C15972   6.513   5.546   6.199  0.1378  0.3663  0.9304
  860MOL0     O15973   6.619   5.599   6.262 -0.1222  0.1505 -0.0172
  860MOL0     C15974   6.740   5.577   6.189  1.3391  0.4175  0.1552
  860MOL0     C15975   6.869   5.579   6.269  0.1478  0.2952  0.4192
  860MOL0     C15976   6.996   5.532   6.192  0.4644 -0.2254 -0.2178
  860MOL0     C15977   7.095   5.651   6.195  0.2297  0.3361  1.2010
  860MOL0     C15978   7.240   5.620   6.180  0.2254 -0.5556 -0.3550
  860MOL0     C15979   7.331   5.741   6.199 -0.7693  0.8010  0.3859
  860MOL0     C15980   7.480   5.692   6.221  0.3422  0.1197 -0.2680
  860MOL0     C15981   7.581   5.771   6.149 -0.1389 -0.4484  0.3997
  860MOL0     N15982   7.717   5.723   6.179  0.3076 -0.3238 -0.0094
  860MOL0     C15983   7.775   5.718   6.301  0.1953  0.8220 -0.0908
  860MOL0     C15984   7.900   5.655   6.274  0.5873 -0.4579  1.1426
  860MOL0     C15985   8.010   5.610   6.369 -0.4296  0.0827 -0.5664
  860MOL0     C15986   8.118   5.719   6.394 -0.4918  1.0449 -0.3268
  860MOL0     C15987   8.258   5.665   6.434  1.1992 -0.0286  0.1764
  860MOL0     C15988   8.324   5.743   6.550  0.3745  0.3172 -0.3053
  860MOL0     O15989   8.449   5.697   6.548 -0.0749 -0.5953 -0.0913
  860MOL0     C15990   8.547   5.776   6.610  1.5381  0.1426 -0.1757
  860MOL0     C15991   8.667   5.764   6.557 -0.2597 -0.3098  0.6697
  860MOL0     C15992   8.775   5.840   6.605  0.4807 -0.2971  0.5530
  860MOL0     C15993   8.900   5.832   6.523 -0.1075  0.1886  0.3273
  860MOL0     C15994   8.753   5.929   6.714  0.1992 -0.0513  0.3902
  860MOL0     C15995   8.859   6.016   6.756 -0.2239 -0.1080  0.5720
  860MOL0     O15996   8.992   5.972   6.763  0.0581  0.3172 -0.6284
  860MOL0     C15997   9.075   6.009   6.866 -0.9206  0.2741 -0.0364
  860MOL0     C15998   9.205   5.962   6.863 -1.1838 -0.4479  0.6932
  860MOL0     C15999   9.310   5.985   6.964 -0.6598  0.2712  0.0477
  860MOL0     C16000   9.263   6.047   7.082 -0.2585 -0.4554 -0.2412
  860MOL0     O16001   9.342   6.069   7.191  0.0698 -0.8663 -0.4369
  860MOL0     C16002   9.465   6.004   7.190  0.6931  0.0783  0.2550
  860MOL0     C16003   9.592   6.088   7.141  0.1521  1.4521 -0.7695
  860MOL0     C16004   9.628   6.214   7.216  0.2062  0.7582  0.6102
  860MOL0     C16005   9.707   6.197   7.349 -0.4777  0.1134 -0.9299
  860MOL0     C16006   9.777   6.338   7.394 -0.7861  0.7356  0.7169
  860MOL0     C16007   9.692   6.463   7.399 -0.2298 -0.7891 -0.2661
  860MOL0     C16008   9.765   6.596   7.420 -0.2937 -0.7031 -0.7584
  860MOL0     C16009   9.696   6.692   7.516 -0.3605  0.3858 -0.8296
  860MOL0    Cl16010   9.531   6.744   7.450 -0.3611 -0.3074 -0.0091
  860MOL0     C16011   9.129   6.081   7.092 -0.2115 -0.5148  0.3461
  860MOL0     C16012   9.042   6.070   6.981  0.5420  0.3495 -0.3614
  860MOL0     O16013   8.818   6.130   6.785  0.5737  1.2213  0.3640
  860MOL0     C16014   8.625   5.926   6.782  0.6701 -0.0030  0.0289
  860MOL0     C16015   8.523   5.846   6.727 -0.1299  0.5253  1.7008
  860MOL0     N16016   7.904   5.637   6.136 -0.1957 -0.0383  0.2521
  860MOL0     N16017   7.799   5.679   6.082 -0.4531  0.1322 -0.0503
  860MOL0     C16018   6.483   5.582   6.070 -0.8007 -0.2863 -0.2290
  860MOL0     C16019   6.411   5.499   5.982  0.4032 -0.1619  0.6360
  860MOL0     C16020   6.049   5.287   5.822  0.1930  0.5000 -0.0925
  860MOL0     C16021   5.991   5.194   5.908 -0.2335  0.3649  0.6204
  860MOL0     C16022   5.879   5.121   5.857 -0.3774  0.2166 -1.1418
  860MOL0     C16023   5.826   5.143   5.729  0.0015 -0.4820 -0.1126
  860MOL0     O16024   5.726   5.071   5.668 -0.4362 -0.0548 -0.4407
  860MOL0     C16025   5.614   5.040   5.749 -0.6857 -1.3984 -0.2849
  860MOL0     C16026   5.481   5.071   5.679  0.2441  0.2988  0.4180
  860MOL0     C16027   5.371   5.000   5.759  0.5751  0.0189  0.2024
  860MOL0     C16028   5.319   5.081   5.874 -0.6798 -0.7708  0.1277
  860MOL0     C16029   5.255   5.213   5.828 -0.0067 -0.2376  0.6334
  860MOL0     C16030   5.196   5.314   5.785  0.4228  0.5989 -1.4940
  860MOL0     C16031   5.889   5.241   5.646  0.0584 -0.3758  0.0348
  860MOL0     C16032   5.989   5.317   5.697  0.6954 -0.7409  0.6156
  860MOL0     H16033   6.267   5.316   6.225  0.3238 -0.4996  1.2394
  860MOL0     H16034   6.457   5.413   6.355 -3.1774 -0.8658 -1.3040
  860MOL0     H16035   6.739   5.485   6.129 -0.8249  2.2613 -2.9003
  860MOL0     H16036   6.762   5.651   6.112  1.6140  0.1342 -0.0411
  860MOL0     H16037   6.882   5.683   6.301 -2.3354  1.6536 -2.4985
  860MOL0     H16038   6.859   5.520   6.360  0.9605 -0.3713  0.0869
  860MOL0     H16039   7.038   5.445   6.244 -2.1196 -2.0741 -1.0271
  860MOL0     H16040   6.974   5.495   6.091  0.9044  1.0654 -0.8150
  860MOL0     H16041   7.069   5.716   6.111  0.8188 -1.1771 -0.2002
  860MOL0     H16042   7.083   5.702   6.291 -0.5660 -0.6123  1.6247
  860MOL0     H16043   7.255   5.542   6.256  0.8862 -0.9734 -0.8924
  860MOL0     H16044   7.252   5.585   6.077  0.6556  4.6413 -2.3781
  860MOL0     H16045   7.329   5.791   6.102 -1.6828 -0.0595 -0.0563
  860MOL0     H16046   7.294   5.795   6.287 -2.1678 -2.1128  1.7127
  860MOL0     H16047   7.494   5.677   6.329  1.3676 -1.0076 -0.5404
  860MOL0     H16048   7.488   5.586   6.196  1.4901  0.3063 -0.7431
  860MOL0     H16049   7.576   5.871   6.194 -0.3344 -1.2888  2.3394
  860MOL0     H16050   7.555   5.774   6.043  1.5247 -2.5256 -0.1553
  860MOL0     H16051   7.734   5.739   6.398 -3.0222  0.8504 -1.3374
  860MOL0     H16052   7.960   5.585   6.462  1.1631 -1.4614 -0.0719
  860MOL0     H16053   8.062   5.520   6.336  0.6322 -0.1727  1.6536
  860MOL0     H16054   8.079   5.789   6.468  0.8425  3.3994 -1.7575
  860MOL0     H16055   8.123   5.783   6.306 -1.5333  1.9938  0.2695
  860MOL0     H16056   8.314   5.662   6.340 -0.9060  4.7925 -1.5312
  860MOL0     H16057   8.248   5.565   6.477  0.0440 -0.6944 -1.5276
  860MOL0     H16058   8.275   5.713   6.643  0.2577 -3.0474 -1.3018
  860MOL0     H16059   8.319   5.849   6.522  2.6354  0.6180  0.2487
  860MOL0     H16060   8.676   5.691   6.477 -4.4286 -0.7510  0.3672
  860MOL0     H16061   8.901   5.771   6.432  2.0252  1.6562 -0.7137
  860MOL0     H16062   8.941   5.927   6.488  1.5078 -0.7640 -0.5241
  860MOL0     H16063   8.964   5.776   6.592 -0.4760  1.0826  1.4258
  860MOL0     H16064   9.231   5.913   6.770 -0.6596 -0.6062  0.9212
  860MOL0     H16065   9.409   5.956   6.931 -1.5051 -0.1718 -2.3880
  860MOL0     H16066   9.470   5.969   7.294 -2.1434 -2.2793 -0.2743
  860MOL0     H16067   9.461   5.910   7.135 -0.2437 -0.5858  1.4010
  860MOL0     H16068   9.685   6.031   7.151 -0.8793 -0.3101 -0.7053
  860MOL0     H16069   9.576   6.112   7.035 -1.5169  2.3918 -0.3270
  860MOL0     H16070   9.533   6.261   7.241 -0.3995 -0.5643  0.8471
  860MOL0     H16071   9.678   6.287   7.151  1.2178  2.4279  3.1047
  860MOL0     H16072   9.649   6.162   7.435  1.5872  0.9284  0.8886
  860MOL0     H16073   9.788   6.129   7.325 -0.7436 -1.5492  2.3302
  860MOL0     H16074   9.863   6.347   7.328 -1.2730 -1.7753 -0.4033
  860MOL0     H16075   9.822   6.325   7.493  0.8242  0.3883 -0.0260
  860MOL0     H16076   9.632   6.487   7.310 -0.5167  1.4772  0.4717
  860MOL0     H16077   9.617   6.468   7.478 -0.4257 -1.5922 -0.3880
  860MOL0     H16078   9.777   6.639   7.321 -1.7141  0.5153 -0.4408
  860MOL0     H16079   9.867   6.579   7.455 -0.5236 -1.3357 -0.3773
  860MOL0     H16080   9.764   6.776   7.535  1.3618 -1.5090  2.4389
  860MOL0     H16081   9.687   6.634   7.608  1.6354  0.9304 -0.2418
  860MOL0     H16082   9.079   6.113   7.183 -1.0850  1.9517 -0.8939
  860MOL0     H16083   8.943   6.109   7.003  1.0194  2.5130 -1.7773
  860MOL0     H16084   8.602   5.989   6.867 -0.1271 -0.3452  0.0746
  860MOL0     H16085   8.429   5.847   6.780 -1.2111  3.1540 -0.0326
  860MOL0     H16086   6.536   5.666   6.025 -1.6757 -0.6807 -2.1257
  860MOL0     H16087   6.405   5.513   5.875 -0.4017 -0.7589  0.5973
  860MOL0     H16088   6.034   5.178   6.006  0.4611  1.1421  0.4616
  860MOL0     H16089   5.849   5.034   5.913 -1.8307  1.8200  0.6870
  860MOL0     H16090   5.626   4.935   5.777  1.0285 -0.7007  1.9424
  860MOL0     H16091   5.618   5.104   5.838 -0.7063  0.9107 -1.8659
  860MOL0     H16092   5.488   5.035   5.576  0.5985 -2.9560  1.4926
  860MOL0     H16093   5.457   5.175   5.653 -0.8109 -0.0776 -0.2008
  860MOL0     H16094   5.400   4.898   5.784  1.0933  0.1802  0.2799
  860MOL0     H16095   5.281   4.986   5.697  0.2208  1.2549  0.4013
  860MOL0     H16096   5.397   5.114   5.942 -0.4070  0.5716 -0.7929
  860MOL0     H16097   5.245   5.035   5.939  2.7026 -0.6769  4.4937
  860MOL0     H16098   5.143   5.403   5.758 -2.2904 -1.0252 -1.8087
  860MOL0     H16099   5.862   5.248   5.541  1.9578 -1.8133 -0.6006
  860MOL0     H16100   6.029   5.383   5.621 -1.0222 -2.1660 -1.6500
  861MOL0     O16101  10.411  10.178   1.918 -0.0536 -0.4479 -0.2483
  861MOL0     C16102  10.506  10.258   1.899  0.6454  0.7305  0.1847
  861MOL0     O16103  10.488  10.394   1.893  0.0904 -0.6375  0.0633
  861MOL0     C16104  10.369  10.448   1.887 -0.0022  0.0895 -0.5695
  861MOL0     C16105  10.323  10.473   2.015  1.3467  1.3195  0.4857
  861MOL0     C16106  10.197  10.542   2.034  0.1815  0.0672 -0.2743
  861MOL0     C16107  10.132  10.592   1.918  0.1754 -0.4149  0.7460
  861MOL0     O16108  10.027  10.679   1.926 -0.8433  0.2819 -0.3480
  861MOL0     C16109   9.898  10.628   1.970  0.1512  0.1109 -0.3430
  861MOL0     C16110   9.807  10.736   2.019  0.1227 -0.0176  0.1505
  861MOL0     C16111   9.819  10.757   2.169  0.2788 -0.4199 -0.1698
  861MOL0     C16112   9.695  10.828   2.217 -0.0961 -1.0415 -0.0886
  861MOL0     C16113   9.712  10.899   2.353 -0.5733  0.1218 -0.2282
  861MOL0     C16114   9.752  10.795   2.470 -0.4982 -0.2647 -0.7255
  861MOL0     C16115   9.643  10.698   2.524  0.5634  0.9808 -0.3158
  861MOL0     C16116   9.694  10.576   2.604  0.6096  0.0601  0.5087
  861MOL0     N16117   9.709  10.467   2.509  0.5300  0.0907 -0.0163
  861MOL0     C16118   9.800  10.447   2.408 -0.3588  0.1343  0.3095
  861MOL0     C16119   9.766  10.329   2.352 -0.0780  0.0379 -0.1278
  861MOL0     C16120   9.851  10.270   2.230 -0.0231 -0.9394 -0.4762
  861MOL0     C16121   9.976  10.211   2.284 -0.2675  0.6163  0.4072
  861MOL0     C16122  10.073  10.188   2.170 -0.2550 -0.6502  0.3623
  861MOL0     C16123  10.214  10.148   2.210  0.6921 -1.1813  0.7947
  861MOL0     O16124  10.215  10.045   2.310 -0.7714 -0.6912 -0.6465
  861MOL0     C16125  10.308   9.954   2.290 -0.9038 -0.3089 -0.9325
  861MOL0     C16126  10.446   9.984   2.300  1.1837 -0.1219 -0.2443
  861MOL0     C16127  10.547   9.890   2.272 -0.4271 -0.0776 -0.3713
  861MOL0     C16128  10.692   9.935   2.291 -0.1122 -1.1140 -0.6246
  861MOL0     C16129  10.508   9.753   2.237  0.8267 -1.4202  0.0182
  861MOL0     C16130  10.605   9.649   2.220 -0.0277 -0.3244  0.3406
  861MOL0     O16131  10.548   9.528   2.222  0.5969  0.4586 -0.0138
  861MOL0     C16132  10.629   9.421   2.216  0.5494  0.0835  0.5149
  861MOL0     C16133  10.600   9.316   2.126  0.6155 -1.3379  1.0947
  861MOL0     C16134  10.669   9.199   2.114  1.0189  0.0064  0.0680
  861MOL0     C16135  10.769   9.167   2.208  0.0937  0.4221  0.1183
  861MOL0     O16136  10.818   9.040   2.202  0.1232 -0.4150  0.4886
  861MOL0     C16137  10.916   9.015   2.303 -0.2215  0.0781 -0.2803
  861MOL0     C16138  10.984   8.880   2.321  0.2420  0.8140  0.9105
  861MOL0     C16139  10.885   8.764   2.278 -0.0148  0.2874 -0.1260
  861MOL0     C16140  10.880   8.743   2.120 -0.5503  0.7444  0.3160
  861MOL0     C16141  10.765   8.661   2.075 -0.0533 -0.1755 -0.0205
  861MOL0     C16142  10.637   8.732   2.056  1.4674 -0.3630 -0.1827
  861MOL0     C16143  10.537   8.633   1.985 -0.8222 -0.6375 -0.1058
  861MOL0     C16144  10.396   8.682   1.997 -0.7540 -0.5187 -0.9614
  861MOL0    Cl16145  10.372   8.833   1.926  0.4717  0.2502 -0.4429
  861MOL0     C16146  10.791   9.267   2.306  0.4652 -0.4741  0.3405
  861MOL0     C16147  10.731   9.394   2.304 -0.0402 -0.6558 -0.6690
  861MOL0     O16148  10.724   9.676   2.198  0.7256 -0.0021 -0.4780
  861MOL0     C16149  10.370   9.719   2.226 -1.2211 -0.1891 -0.0116
  861MOL0     C16150  10.276   9.819   2.261 -0.0456 -0.3084  0.3538
  861MOL0     N16151   9.640  10.291   2.401 -0.4874  0.3671  0.1766
  861MOL0     N16152   9.609  10.375   2.495  0.9179  0.2354 -0.7985
  861MOL0     C16153  10.192  10.568   1.798 -0.5973  1.0128  0.1145
  861MOL0     C16154  10.316  10.510   1.778  0.0577 -0.0958  0.9396
  861MOL0     C16155  10.646  10.196   1.904 -0.1382  1.4859 -0.0234
  861MOL0     C16156  10.754  10.281   1.901 -0.7211  0.3412 -0.1304
  861MOL0     C16157  10.881  10.222   1.905 -0.8790 -0.8921 -0.3113
  861MOL0     C16158  10.896  10.085   1.922 -0.5024  0.4857  0.0932
  861MOL0     O16159  11.017  10.031   1.938 -0.3083  0.3003  0.3567
  861MOL0     C16160  11.106  10.047   1.822 -0.4485 -0.6711 -0.7650
  861MOL0     C16161  11.198   9.925   1.825  0.3558  0.3913  0.0450
  861MOL0     C16162  11.306   9.917   1.716  0.5987 -0.0382 -0.1907
  861MOL0     C16163  11.437   9.951   1.779  0.4089 -0.7619  0.5954
  861MOL0     C16164  11.539   9.922   1.682  0.1314  0.3623  0.1268
  861MOL0     C16165  11.618   9.871   1.601  0.0909 -0.7904  0.3735
  861MOL0     C16166  10.786  10.002   1.926 -1.3374  0.2478 -0.3974
  861MOL0     C16167  10.662  10.056   1.927  1.7930  0.4139 -0.0550
  861MOL0     H16168  10.372  10.422   2.097 -3.9710  0.7198  3.7839
  861MOL0     H16169  10.156  10.560   2.133 -1.2318 -0.5500 -0.7300
  861MOL0     H16170   9.858  10.566   1.890  2.7930 -1.2727 -0.7099
  861MOL0     H16171   9.918  10.556   2.051  0.3567  0.3966 -0.1401
  861MOL0     H16172   9.813  10.829   1.961  0.3903  0.9404  1.6561
  861MOL0     H16173   9.710  10.695   1.988 -0.7151 -0.0570  2.6366
  861MOL0     H16174   9.822  10.662   2.223 -1.6097  0.5152  1.6986
  861MOL0     H16175   9.908  10.820   2.180 -0.0223  0.3997 -1.9944
  861MOL0     H16176   9.681  10.909   2.144  0.1646 -0.5885  0.3597
  861MOL0     H16177   9.603  10.769   2.216  0.5074 -2.0034 -1.3278
  861MOL0     H16178   9.782  10.983   2.350 -0.7306  0.3914  1.8412
  861MOL0     H16179   9.609  10.930   2.373 -0.8492 -1.3638  0.8458
  861MOL0     H16180   9.839  10.738   2.437 -0.0237  0.0167 -0.0019
  861MOL0     H16181   9.799  10.850   2.552 -2.4295  1.7471 -0.8754
  861MOL0     H16182   9.579  10.763   2.585 -0.4645  2.1868 -2.5333
  861MOL0     H16183   9.578  10.656   2.447 -0.1838 -1.2212  1.3996
  861MOL0     H16184   9.628  10.541   2.684 -0.5542  1.0619  0.0111
  861MOL0     H16185   9.790  10.615   2.639  1.0148  0.2734 -0.7805
  861MOL0     H16186   9.888  10.502   2.376  1.7223 -1.7836  2.2819
  861MOL0     H16187   9.800  10.192   2.174 -0.8669 -2.8049  2.6573
  861MOL0     H16188   9.874  10.355   2.165 -3.5033 -0.3241 -1.1009
  861MOL0     H16189   9.962  10.110   2.323  4.5744  0.6931  3.1832
  861MOL0     H16190  10.016  10.280   2.359 -0.1347 -0.4364  1.3269
  861MOL0     H16191  10.074  10.288   2.126 -1.8119 -1.5996 -2.0240
  861MOL0     H16192  10.042  10.115   2.095 -0.6720  1.6003 -1.7738
  861MOL0     H16193  10.261  10.239   2.248  1.6716 -1.0516 -0.6387
  861MOL0     H16194  10.283  10.128   2.127  3.1067  3.9778  1.1831
  861MOL0     H16195  10.499  10.075   2.325  2.6657 -1.0007 -0.0677
  861MOL0     H16196  10.731   9.903   2.388  1.5346  2.5989  0.0942
  861MOL0     H16197  10.750   9.906   2.203  2.4279 -2.4573  1.3667
  861MOL0     H16198  10.705  10.043   2.301  2.0196 -0.8244 -4.5927
  861MOL0     H16199  10.511   9.326   2.064  0.2213  1.9192  2.0473
  861MOL0     H16200  10.645   9.120   2.043  4.2504  0.1791 -1.3610
  861MOL0     H16201  10.989   9.096   2.308  0.2678 -0.3888  0.2893
  861MOL0     H16202  10.856   9.024   2.394 -1.2187  1.3056 -1.0229
  861MOL0     H16203  11.067   8.886   2.250  0.6772 -0.2183  1.3130
  861MOL0     H16204  11.034   8.861   2.416  1.4497  1.3092  0.3934
  861MOL0     H16205  10.784   8.789   2.309 -0.3306  1.3525 -1.8599
  861MOL0     H16206  10.916   8.672   2.329  2.6065  1.2305  0.1399
  861MOL0     H16207  10.893   8.835   2.063  1.9735  0.1548 -0.1531
  861MOL0     H16208  10.966   8.679   2.097 -0.5520  0.1163  1.9351
  861MOL0     H16209  10.747   8.580   2.146 -2.3599 -2.1608 -2.6729
  861MOL0     H16210  10.799   8.605   1.988  3.6395  1.3922  0.2447
  861MOL0     H16211  10.587   8.753   2.151  1.6542 -3.4957  0.7411
  861MOL0     H16212  10.653   8.821   1.995  0.0779  0.9451  1.2691
  861MOL0     H16213  10.537   8.531   2.025  0.4209 -0.9875 -0.9386
  861MOL0     H16214  10.564   8.618   1.880  1.2322 -0.6195  0.3671
  861MOL0     H16215  10.380   8.693   2.104  0.3531 -3.2396 -0.4340
  861MOL0     H16216  10.318   8.607   1.981 -2.2905  0.6909  0.4438
  861MOL0     H16217  10.867   9.261   2.383  2.1799  0.5857 -1.1652
  861MOL0     H16218  10.742   9.474   2.377 -1.2240 -1.5138  0.4904
  861MOL0     H16219  10.322   9.625   2.202 -0.0131 -1.3041  1.7175
  861MOL0     H16220  10.169   9.801   2.260 -0.1450  0.2349  0.7105
  861MOL0     H16221  10.152  10.607   1.705  0.2113  0.1796 -0.6057
  861MOL0     H16222  10.364  10.511   1.681  1.7854  2.4510  1.7033
  861MOL0     H16223  10.737  10.387   1.889 -3.7811 -0.0845 -0.3757
  861MOL0     H16224  10.957  10.299   1.908 -1.5011 -0.2725  3.0382
  861MOL0     H16225  11.063  10.052   1.721  1.6355 -3.0119 -1.8786
  861MOL0     H16226  11.170  10.132   1.848 -0.3606 -1.6733  2.8240
  861MOL0     H16227  11.128   9.842   1.811  2.6448 -1.4880 -0.9318
  861MOL0     H16228  11.243   9.907   1.923 -0.1979 -2.4790 -0.1369
  861MOL0     H16229  11.284   9.976   1.627  0.7388 -0.7982 -0.7411
  861MOL0     H16230  11.316   9.813   1.683 -1.1800 -0.3333  0.0741
  861MOL0     H16231  11.445   9.885   1.865 -6.3112 -1.7081  1.0697
  861MOL0     H16232  11.440  10.054   1.815  2.0420 -0.5361 -0.1176
  861MOL0     H16233  11.691   9.833   1.532  0.5637 -0.3327  0.6130
  861MOL0     H16234  10.798   9.894   1.934 -1.0502  0.2890 -0.2368
  861MOL0     H16235  10.575   9.994   1.945  1.3949  0.9838  0.0278
  862MOL0     O16236   9.367   7.171   5.966 -0.3350  0.1340  0.3208
  862MOL0     C16237   9.418   7.134   5.855 -0.2889 -0.5688 -0.0044
  862MOL0     O16238   9.432   7.005   5.811 -0.8044 -0.9343 -0.5383
  862MOL0     C16239   9.401   6.890   5.879  1.0492  1.3774  1.3195
  862MOL0     C16240   9.416   6.777   5.794  0.7263 -0.0568  0.0853
  862MOL0     C16241   9.370   6.656   5.850  0.0355  1.1927 -0.4965
  862MOL0     C16242   9.335   6.639   5.984  0.5325 -0.4427 -1.1209
  862MOL0     O16243   9.302   6.518   6.038 -0.1413  0.7703  0.4680
  862MOL0     C16244   9.163   6.482   6.031 -1.4969  0.5182  0.6936
  862MOL0     C16245   9.152   6.343   6.111  0.5269 -0.4308 -0.0554
  862MOL0     C16246   9.214   6.331   6.258  0.4992 -0.8611 -0.4692
  862MOL0     C16247   9.207   6.184   6.316  0.2903 -0.3053  0.2423
  862MOL0     C16248   9.247   6.185   6.465 -0.2804 -0.5665  0.2760
  862MOL0     C16249   9.395   6.236   6.498  0.0848  0.2485 -0.5430
  862MOL0     C16250   9.432   6.218   6.643  0.3954 -0.3984  0.9749
  862MOL0     C16251   9.580   6.201   6.674 -0.0643  0.2642 -0.2204
  862MOL0     N16252   9.651   6.327   6.692 -0.5272 -0.6354  0.3204
  862MOL0     C16253   9.708   6.391   6.586  0.2603  0.5815  0.1667
  862MOL0     C16254   9.747   6.508   6.637  0.6743  0.2076 -0.0872
  862MOL0     C16255   9.837   6.611   6.576  0.8197 -0.4433  0.1607
  862MOL0     C16256   9.974   6.544   6.569 -0.7345  0.7980 -0.2591
  862MOL0     C16257  10.079   6.630   6.482  0.3370  1.0590  0.8659
  862MOL0     C16258  10.211   6.557   6.437 -0.5073 -0.8570  0.0555
  862MOL0     O16259  10.284   6.496   6.541  1.5965  0.0917  0.2294
  862MOL0     C16260  10.343   6.580   6.630 -0.6584 -0.5999 -0.4495
  862MOL0     C16261  10.396   6.715   6.600 -0.8499  0.4596 -0.4156
  862MOL0     C16262  10.468   6.796   6.690  0.6019  0.1330 -0.0374
  862MOL0     C16263  10.507   6.933   6.646  0.3394 -0.0096 -0.2857
  862MOL0     C16264  10.487   6.737   6.817  0.1106 -0.4789 -0.0625
  862MOL0     C16265  10.584   6.798   6.914  0.6250 -0.2628 -1.0022
  862MOL0     O16266  10.692   6.873   6.875  0.5059  0.7581 -0.3443
  862MOL0     C16267  10.781   6.908   6.983  0.3123  0.2494  0.5596
  862MOL0     C16268  10.772   7.021   7.056  0.4709 -0.0329  0.1456
  862MOL0     C16269  10.866   7.053   7.155 -0.3521  0.4143  0.4742
  862MOL0     C16270  10.972   6.966   7.176 -0.6766  0.3740 -0.0046
  862MOL0     O16271  11.060   6.982   7.276  0.2861  0.2379 -0.1369
  862MOL0     C16272  11.117   7.106   7.314  0.0749  0.0973 -0.2220
  862MOL0     C16273  11.171   7.177   7.191  0.6610 -0.6835 -0.4791
  862MOL0     C16274  11.248   7.087   7.099 -0.7213 -0.7223  0.1941
  862MOL0     C16275  11.347   7.159   7.009  0.7108  0.7673  0.0257
  862MOL0     C16276  11.406   7.080   6.894 -0.2723  0.3511 -0.0767
  862MOL0     C16277  11.501   7.163   6.808 -0.2016  0.6876  0.3478
  862MOL0     C16278  11.607   7.231   6.891 -0.3694 -0.3355  0.0129
  862MOL0     C16279  11.736   7.231   6.816 -0.3583 -0.6541  0.1068
  862MOL0    Cl16280  11.871   7.301   6.914  0.5163 -0.2460  0.5620
  862MOL0     C16281  10.973   6.842   7.108 -0.6025 -0.0987  0.6743
  862MOL0     C16282  10.878   6.817   7.011 -0.3545  1.0226  0.5306
  862MOL0     O16283  10.552   6.762   7.028 -0.3159  0.3530  0.6074
  862MOL0     C16284  10.446   6.606   6.844  0.5942 -0.3719 -0.1960
  862MOL0     C16285  10.381   6.527   6.753  0.3324  0.0093 -0.3676
  862MOL0     N16286   9.714   6.511   6.772  0.7426 -0.2137  0.4379
  862MOL0     N16287   9.648   6.397   6.802  0.1073 -1.3269 -0.3121
  862MOL0     C16288   9.341   6.753   6.075 -0.2760 -0.0300 -0.8993
  862MOL0     C16289   9.370   6.878   6.020  0.3049  0.9243 -0.5501
  862MOL0     C16290   9.454   7.249   5.768  0.1195  0.4742  0.3287
  862MOL0     C16291   9.518   7.224   5.645  0.1433  0.1229 -0.5686
  862MOL0     C16292   9.554   7.332   5.558 -0.6931  1.1347  0.8343
  862MOL0     C16293   9.544   7.461   5.597  1.1571 -0.4135 -0.1378
  862MOL0     O16294   9.583   7.556   5.510 -0.7142  0.5583 -0.5369
  862MOL0     C16295   9.665   7.666   5.558 -0.7121  0.7796  0.2786
  862MOL0     C16296   9.664   7.757   5.441 -0.0454 -2.0120 -0.5009
  862MOL0     C16297   9.769   7.868   5.458 -0.3436 -0.0393  0.9692
  862MOL0     C16298   9.797   7.947   5.331 -0.1922 -0.3535 -0.0359
  862MOL0     C16299   9.713   8.065   5.314 -0.7560 -0.4185 -0.8422
  862MOL0     C16300   9.636   8.153   5.310  0.9020 -0.1907  0.0168
  862MOL0     C16301   9.492   7.481   5.731  0.8604 -0.4173  0.2609
  862MOL0     C16302   9.434   7.381   5.802 -0.0056 -0.7178  0.7352
  862MOL0     H16303   9.435   6.792   5.688  4.1133 -0.8550  0.4813
  862MOL0     H16304   9.367   6.570   5.784  0.2076  0.7369  0.0752
  862MOL0     H16305   9.096   6.560   6.071  0.4346  1.6344  1.8866
  862MOL0     H16306   9.136   6.470   5.926 -4.0119  0.7768  1.2457
  862MOL0     H16307   9.047   6.313   6.116  0.4985 -0.1493  2.4525
  862MOL0     H16308   9.191   6.257   6.055 -0.5872 -1.3740  0.5588
  862MOL0     H16309   9.316   6.370   6.256 -0.9594  3.8321  1.5108
  862MOL0     H16310   9.155   6.400   6.320  2.7458 -1.7737  2.9306
  862MOL0     H16311   9.102   6.154   6.303  0.0791  0.1877  0.7399
  862MOL0     H16312   9.271   6.124   6.251  0.1234 -0.0772 -0.1339
  862MOL0     H16313   9.174   6.248   6.516  0.2008 -0.7475  1.2051
  862MOL0     H16314   9.234   6.079   6.487  1.7780 -0.9009  0.0021
  862MOL0     H16315   9.472   6.201   6.428  3.0301  1.9308  1.6169
  862MOL0     H16316   9.402   6.344   6.482 -0.3988  0.0846 -2.0539
  862MOL0     H16317   9.394   6.300   6.704 -0.4150 -0.0481  0.0344
  862MOL0     H16318   9.386   6.125   6.677  1.1588 -1.3859 -0.5689
  862MOL0     H16319   9.615   6.128   6.601  0.0568 -1.6928  1.6819
  862MOL0     H16320   9.580   6.157   6.774  2.2643 -1.5530 -0.9332
  862MOL0     H16321   9.723   6.355   6.485 -1.2566 -4.9412  1.5681
  862MOL0     H16322   9.800   6.646   6.479 -0.9248 -0.3509  0.8232
  862MOL0     H16323   9.826   6.698   6.643 -4.3228 -0.5449 -0.1843
  862MOL0     H16324   9.966   6.443   6.528 -1.6413  0.3008  1.0770
  862MOL0     H16325   9.996   6.527   6.675  0.4661  1.9420 -0.2996
  862MOL0     H16326  10.113   6.712   6.547  2.0796  0.0561  1.2758
  862MOL0     H16327  10.023   6.675   6.400 -2.4609 -1.1835  1.4028
  862MOL0     H16328  10.285   6.622   6.390 -0.9742  1.3896  2.2430
  862MOL0     H16329  10.195   6.476   6.365 -1.6216 -2.8831  2.4012
  862MOL0     H16330  10.378   6.755   6.501 -2.5473 -0.1934 -0.3949
  862MOL0     H16331  10.499   7.001   6.732  1.0120 -2.2662  1.6735
  862MOL0     H16332  10.604   6.931   6.596  1.0192  2.7420  0.7448
  862MOL0     H16333  10.434   6.966   6.571 -3.0529 -3.6260  1.0878
  862MOL0     H16334  10.702   7.101   7.035 -1.3683 -0.9690  2.3750
  862MOL0     H16335  10.851   7.145   7.211 -0.5014 -1.4885  3.8236
  862MOL0     H16336  11.051   7.175   7.367  0.6914  0.0957  0.5654
  862MOL0     H16337  11.203   7.083   7.378 -0.1293  1.8181  0.7325
  862MOL0     H16338  11.090   7.233   7.144 -0.1764  0.2150  1.8750
  862MOL0     H16339  11.246   7.245   7.232  0.5105 -0.7614 -0.0683
  862MOL0     H16340  11.174   7.044   7.031 -0.6142  1.1055 -1.1440
  862MOL0     H16341  11.298   7.003   7.148  4.6418  0.8306 -1.9176
  862MOL0     H16342  11.293   7.248   6.977  0.5416  0.5693 -0.2409
  862MOL0     H16343  11.434   7.191   7.067  1.9894  0.6675 -1.7406
  862MOL0     H16344  11.323   7.041   6.834  1.8611 -0.4417 -2.7187
  862MOL0     H16345  11.450   6.982   6.913 -2.8932 -0.5846  1.7204
  862MOL0     H16346  11.545   7.087   6.742 -2.7292 -0.2779 -0.3460
  862MOL0     H16347  11.440   7.238   6.756  0.2895  1.8155  1.3623
  862MOL0     H16348  11.627   7.173   6.981 -5.0173  1.1794  2.3351
  862MOL0     H16349  11.587   7.330   6.932  1.1660 -0.4605  1.1247
  862MOL0     H16350  11.743   7.291   6.725  0.4876 -0.2400  0.4273
  862MOL0     H16351  11.760   7.127   6.792 -0.7375  0.2568 -5.4528
  862MOL0     H16352  11.057   6.775   7.125  1.4326  2.6386  2.3227
  862MOL0     H16353  10.884   6.715   6.972  0.0123  1.2645 -0.0590
  862MOL0     H16354  10.481   6.555   6.933 -1.0678 -0.4383  0.4458
  862MOL0     H16355  10.338   6.429   6.769  0.7477 -0.0073  0.7662
  862MOL0     H16356   9.318   6.758   6.181  0.9196  2.5884 -0.6774
  862MOL0     H16357   9.376   6.957   6.095  0.6615 -3.0650  4.1460
  862MOL0     H16358   9.532   7.119   5.620 -3.2330 -0.2677 -1.2534
  862MOL0     H16359   9.591   7.310   5.458  1.0489 -1.0757  1.8823
  862MOL0     H16360   9.636   7.711   5.653  3.6501 -0.5310  2.4796
  862MOL0     H16361   9.763   7.628   5.589 -0.6603  1.9734  1.6492
  862MOL0     H16362   9.561   7.792   5.437  0.4653 -0.3973 -0.2995
  862MOL0     H16363   9.684   7.702   5.349 -0.5332 -2.7949 -0.1487
  862MOL0     H16364   9.866   7.829   5.491  0.0138  2.7893  3.8320
  862MOL0     H16365   9.734   7.937   5.536 -0.8238  1.1890 -0.3064
  862MOL0     H16366   9.811   7.879   5.246  3.2644 -0.5813  0.5425
  862MOL0     H16367   9.901   7.973   5.354  1.0328 -3.0131 -2.0747
  862MOL0     H16368   9.569   8.236   5.307  1.2577  0.1024 -2.4667
  862MOL0     H16369   9.463   7.580   5.762 -2.7567 -2.3306  3.7726
  862MOL0     H16370   9.381   7.406   5.894  0.3308 -1.1934  1.0577
  863MOL0     O16371   1.472  10.827   7.190 -0.0367  0.0321  0.2790
  863MOL0     C16372   1.498  10.706   7.174  0.5358 -0.4153 -0.2450
  863MOL0     O16373   1.398  10.604   7.167 -0.0509 -0.4966 -0.2764
  863MOL0     C16374   1.271  10.649   7.170  0.3452  0.2130 -0.6468
  863MOL0     C16375   1.212  10.689   7.054  0.2059  0.3185 -0.5425
  863MOL0     C16376   1.074  10.730   7.053 -0.2829 -1.0425  0.4649
  863MOL0     C16377   0.998  10.719   7.165 -0.4319  0.0548 -0.5349
  863MOL0     O16378   0.855  10.744   7.166  0.2813 -1.0936  1.1383
  863MOL0     C16379   0.778  10.763   7.044  0.3060 -0.6107  0.1664
  863MOL0     C16380   0.732  10.632   6.972  0.0562 -0.4515 -1.8008
  863MOL0     C16381   0.683  10.535   7.081  0.3914  0.6767 -0.9355
  863MOL0     C16382   0.541  10.571   7.126 -0.6124 -0.3928  0.4093
  863MOL0     C16383   0.512  10.537   7.280 -1.0311 -0.5419 -0.9403
  863MOL0     C16384   0.487  10.393   7.302  0.1568 -0.4445 -0.2095
  863MOL0     C16385   0.438  10.364   7.443 -0.3319 -0.1674  0.2809
  863MOL0     C16386   0.301  10.421   7.490  0.2775 -0.2189 -0.4798
  863MOL0     N16387   0.188  10.357   7.438 -0.2286 -0.4505  0.0246
  863MOL0     C16388   0.159  10.228   7.416  0.7519 -0.3525 -0.9080
  863MOL0     C16389   0.048  10.222   7.343 -0.2898 -0.0662  0.8794
  863MOL0     C16390  -0.007  10.111   7.250 -0.0915  0.7831 -0.7779
  863MOL0     C16391  -0.155  10.090   7.281 -0.5560  1.2050 -0.4266
  863MOL0     C16392  -0.200   9.954   7.208 -0.8064  0.3380 -0.4910
  863MOL0     C16393  -0.325   9.902   7.272 -0.1718 -1.8097  0.8529
  863MOL0     O16394  -0.349   9.771   7.220 -0.9455 -0.3894 -0.0497
  863MOL0     C16395  -0.446   9.705   7.290  0.1179  0.3849  0.5615
  863MOL0     C16396  -0.572   9.764   7.303  0.6342 -1.1237 -0.7926
  863MOL0     C16397  -0.667   9.708   7.389  0.2768  0.7283 -0.2109
  863MOL0     C16398  -0.796   9.782   7.406  0.3701 -0.5097 -0.5098
  863MOL0     C16399  -0.644   9.578   7.439 -0.0548 -1.0557 -0.5024
  863MOL0     C16400  -0.741   9.504   7.515  0.1794  0.4411  1.1377
  863MOL0     O16401  -0.736   9.367   7.487 -0.2505 -0.0949  0.0434
  863MOL0     C16402  -0.854   9.296   7.502  0.6937  0.3010 -0.3067
  863MOL0     C16403  -0.947   9.311   7.395  0.4820 -0.3796  0.5311
  863MOL0     C16404  -1.065   9.235   7.395  0.5025 -0.8185 -0.3279
  863MOL0     C16405  -1.095   9.152   7.512 -0.8260  0.0918  0.2216
  863MOL0     O16406  -1.208   9.069   7.511  0.5679 -0.9334  0.7107
  863MOL0     C16407  -1.206   8.942   7.578  0.6000 -0.4693 -0.1649
  863MOL0     C16408  -1.347   8.883   7.554 -0.1787  0.4451  0.1930
  863MOL0     C16409  -1.355   8.734   7.571  1.7068  0.4437  0.3200
  863MOL0     C16410  -1.491   8.685   7.523 -0.8187  0.5665  0.3698
  863MOL0     C16411  -1.484   8.529   7.490 -0.9567  0.0760 -0.2942
  863MOL0     C16412  -1.584   8.466   7.395  0.4364  0.0822 -0.6309
  863MOL0     C16413  -1.598   8.320   7.431 -0.9759  0.2931  0.2071
  863MOL0     C16414  -1.684   8.291   7.548 -0.5324 -0.2056  1.1024
  863MOL0    Cl16415  -1.687   8.105   7.566  0.1682  0.2818 -0.7780
  863MOL0     C16416  -0.998   9.136   7.616 -0.2489 -0.5923  0.2022
  863MOL0     C16417  -0.882   9.216   7.613 -0.3685 -0.3409 -0.2140
  863MOL0     O16418  -0.835   9.555   7.573 -0.3323 -0.0015 -0.8402
  863MOL0     C16419  -0.510   9.528   7.423 -0.1294  0.2475 -0.0655
  863MOL0     C16420  -0.411   9.584   7.343  0.3305 -0.3814  0.7089
  863MOL0     N16421   0.008  10.351   7.325  0.8133  0.6177 -0.1408
  863MOL0     N16422   0.084  10.425   7.391 -0.8441  0.6064 -0.2672
  863MOL0     C16423   1.056  10.674   7.278 -0.5597 -0.3774  0.5814
  863MOL0     C16424   1.188  10.633   7.286 -0.5939  0.0414  0.3022
  863MOL0     C16425   1.639  10.666   7.151 -0.3409 -0.8592 -0.1558
  863MOL0     C16426   1.736  10.768   7.133  0.1554 -0.6675 -0.0792
  863MOL0     C16427   1.863  10.726   7.110  0.1141  0.6783 -0.2226
  863MOL0     C16428   1.889  10.589   7.071  0.2162 -0.8614  0.5182
  863MOL0     O16429   2.016  10.543   7.040 -0.5358  0.4178 -0.1821
  863MOL0     C16430   2.122  10.633   7.045 -0.5594 -0.2257 -1.2423
  863MOL0     C16431   2.258  10.573   6.998 -0.5278 -0.1371  0.4448
  863MOL0     C16432   2.253  10.553   6.845  0.1811 -1.1161 -0.0635
  863MOL0     C16433   2.391  10.502   6.809  0.2681 -0.2520 -0.5892
  863MOL0     C16434   2.386  10.430   6.679  0.1272  0.4036 -0.2155
  863MOL0     C16435   2.361  10.375   6.573 -0.3535 -1.2369  0.2579
  863MOL0     C16436   1.786  10.492   7.076 -0.3659  0.1156  0.7877
  863MOL0     C16437   1.664  10.532   7.120 -0.1667  0.2406  0.3323
  863MOL0     H16438   1.282  10.692   6.971  3.6679 -0.9523  2.0556
  863MOL0     H16439   1.028  10.755   6.958  2.4902 -1.9002 -1.2287
  863MOL0     H16440   0.683  10.808   7.072 -1.0563 -1.5404 -2.5748
  863MOL0     H16441   0.825  10.833   6.974  1.8597 -1.6171  0.1447
  863MOL0     H16442   0.658  10.654   6.895 -1.7273  2.9676  0.6408
  863MOL0     H16443   0.829  10.599   6.932  1.4935 -1.5132  2.0695
  863MOL0     H16444   0.686  10.438   7.031  1.3137 -0.8899  1.9016
  863MOL0     H16445   0.751  10.522   7.166  3.9241  0.5406 -3.6024
  863MOL0     H16446   0.537  10.681   7.127 -2.2878 -0.4259  0.8308
  863MOL0     H16447   0.483  10.514   7.053 -3.2373  0.8634  1.3572
  863MOL0     H16448   0.591  10.583   7.340 -0.7661 -0.9233 -0.9909
  863MOL0     H16449   0.425  10.596   7.310 -0.0648 -0.4144  1.8598
  863MOL0     H16450   0.403  10.359   7.240  0.4295 -0.3134 -0.6496
  863MOL0     H16451   0.573  10.331   7.273 -1.1624 -1.9904 -1.0227
  863MOL0     H16452   0.430  10.255   7.455 -1.6130 -0.4900 -2.7091
  863MOL0     H16453   0.506  10.402   7.520  2.9100  0.5597 -2.7404
  863MOL0     H16454   0.283  10.527   7.470 -2.2562 -0.3722  0.5197
  863MOL0     H16455   0.288  10.409   7.598  0.6603 -0.2758 -0.4389
  863MOL0     H16456   0.222  10.147   7.452 -3.2016 -2.2878  2.7022
  863MOL0     H16457  -0.001  10.157   7.150  1.0043 -0.0534 -1.1195
  863MOL0     H16458   0.064  10.028   7.256 -0.4876  0.4725 -0.3559
  863MOL0     H16459  -0.215  10.170   7.237  0.1452  1.9797  0.0082
  863MOL0     H16460  -0.180  10.076   7.387 -0.5049  1.8835 -0.3250
  863MOL0     H16461  -0.131   9.870   7.204 -1.7347 -0.6335  2.0506
  863MOL0     H16462  -0.222   9.997   7.109  0.6210  2.7405  0.1543
  863MOL0     H16463  -0.393   9.986   7.255  1.4607 -0.4737  0.6068
  863MOL0     H16464  -0.322   9.901   7.381  1.3018  1.9023  0.9754
  863MOL0     H16465  -0.588   9.855   7.247  0.4440  0.5864  1.8949
  863MOL0     H16466  -0.790   9.831   7.503 -2.5940  1.3919 -1.1678
  863MOL0     H16467  -0.807   9.853   7.324 -1.5683 -0.9746 -0.7015
  863MOL0     H16468  -0.883   9.716   7.396  1.0039 -1.0358 -3.6310
  863MOL0     H16469  -0.917   9.364   7.305  1.2259 -0.5701  0.6662
  863MOL0     H16470  -1.136   9.235   7.314  0.3990 -0.8558 -0.2376
  863MOL0     H16471  -1.128   8.876   7.539 -0.0300 -1.3798  0.0601
  863MOL0     H16472  -1.193   8.941   7.687 -0.8810  0.9438  0.0542
  863MOL0     H16473  -1.426   8.921   7.620 -0.2848 -1.7573  1.4409
  863MOL0     H16474  -1.353   8.906   7.448 -0.0567  1.5843  0.4135
  863MOL0     H16475  -1.360   8.703   7.676 -0.9687 -1.1295 -0.1832
  863MOL0     H16476  -1.279   8.681   7.513 -1.9482 -1.9615 -2.6846
  863MOL0     H16477  -1.575   8.707   7.590 -1.1938  0.2071  0.0320
  863MOL0     H16478  -1.519   8.736   7.430 -0.7078  1.0787  0.6185
  863MOL0     H16479  -1.494   8.467   7.580 -2.6884  1.1841  0.3334
  863MOL0     H16480  -1.382   8.517   7.453 -1.4324 -0.1016 -1.5850
  863MOL0     H16481  -1.675   8.524   7.412  0.5570 -0.1551  0.9589
  863MOL0     H16482  -1.543   8.480   7.295 -2.0353  0.2997 -1.6930
  863MOL0     H16483  -1.501   8.269   7.433 -0.7145  0.5932 -2.1289
  863MOL0     H16484  -1.641   8.288   7.336 -3.3811 -3.2090  2.2142
  863MOL0     H16485  -1.784   8.335   7.545 -0.4847 -0.0600  1.5629
  863MOL0     H16486  -1.638   8.308   7.646 -1.0211  1.6417  1.0571
  863MOL0     H16487  -1.023   9.058   7.687 -3.6982  0.3325  0.1866
  863MOL0     H16488  -0.817   9.193   7.697 -1.3003 -0.6161  0.4442
  863MOL0     H16489  -0.491   9.431   7.469 -2.9328 -0.6841 -0.6671
  863MOL0     H16490  -0.313   9.538   7.340  1.1136  1.2381  0.3058
  863MOL0     H16491   0.994  10.662   7.366 -0.4579 -0.9654  0.5781
  863MOL0     H16492   1.226  10.596   7.381 -0.5191 -1.2045 -0.2035
  863MOL0     H16493   1.714  10.874   7.142 -0.0574 -0.5837 -1.3320
  863MOL0     H16494   1.934  10.809   7.115 -0.3994  1.0726  0.7453
  863MOL0     H16495   2.112  10.725   6.985  3.1423  1.4636  0.4038
  863MOL0     H16496   2.118  10.674   7.146 -3.1579  0.5712 -1.6072
  863MOL0     H16497   2.277  10.476   7.046 -0.5815 -0.2074  0.3268
  863MOL0     H16498   2.333  10.650   7.013 -2.5143  1.7698  1.0606
  863MOL0     H16499   2.239  10.652   6.800  1.8236 -0.2908  1.1191
  863MOL0     H16500   2.176  10.481   6.817 -0.0771 -0.2365 -1.7256
  863MOL0     H16501   2.428  10.446   6.896 -1.4004  4.5434  3.7767
  863MOL0     H16502   2.457  10.589   6.800  0.0200  0.3784  2.4794
  863MOL0     H16503   2.330  10.337   6.478 -4.1677 -0.7957  1.1745
  863MOL0     H16504   1.819  10.392   7.053 -2.2989 -0.0802 -1.4917
  863MOL0     H16505   1.586  10.458   7.129  0.1037 -0.0374  0.4151
  864MOL0     O16506   0.517   5.641   4.381  0.1442 -1.4066 -0.2108
  864MOL0     C16507   0.398   5.671   4.386  0.6651 -1.0110 -0.4361
  864MOL0     O16508   0.337   5.798   4.387  0.7411 -0.3344 -0.0996
  864MOL0     C16509   0.420   5.911   4.392  0.2328 -0.3361 -0.3904
  864MOL0     C16510   0.566   5.913   4.386 -0.0863  0.1408  0.3664
  864MOL0     C16511   0.630   6.035   4.398 -0.4887  0.4276  0.6078
  864MOL0     C16512   0.556   6.153   4.419 -0.3545 -0.4337 -0.1336
  864MOL0     O16513   0.600   6.276   4.461 -0.5597 -0.3021 -0.1392
  864MOL0     C16514   0.737   6.315   4.437  0.1130  0.2224  0.3813
  864MOL0     C16515   0.750   6.462   4.479  0.9890  0.9081  0.6146
  864MOL0     C16516   0.751   6.464   4.634  0.1017  0.2329 -1.7696
  864MOL0     C16517   0.716   6.606   4.679 -1.2665 -1.3709  0.0645
  864MOL0     C16518   0.729   6.621   4.830 -0.2279 -0.2524 -0.7958
  864MOL0     C16519   0.663   6.746   4.877 -0.3777  0.7676 -0.2572
  864MOL0     C16520   0.649   6.772   5.030 -0.8021  0.1172  0.0119
  864MOL0     C16521   0.560   6.888   5.062  0.2837 -0.4788  0.3670
  864MOL0     N16522   0.524   6.890   5.201 -0.0826  0.4413  0.8994
  864MOL0     C16523   0.609   6.948   5.286  0.1555  1.0684 -0.5042
  864MOL0     C16524   0.565   6.925   5.412  0.1745  0.0182 -0.4194
  864MOL0     C16525   0.638   6.957   5.538 -0.2082 -0.6167  0.8571
  864MOL0     C16526   0.684   6.837   5.621  0.3771 -1.0378 -0.1436
  864MOL0     C16527   0.747   6.878   5.753 -0.3293  0.2240 -0.0151
  864MOL0     C16528   0.898   6.854   5.761 -0.6753 -0.5351  0.3405
  864MOL0     O16529   0.925   6.712   5.781 -0.5706 -0.0761  0.5497
  864MOL0     C16530   0.906   6.671   5.909  0.2657  0.3829 -0.4352
  864MOL0     C16531   1.002   6.699   6.008 -1.0291  0.0046 -1.1947
  864MOL0     C16532   0.990   6.653   6.141  0.0727  0.3706 -0.4114
  864MOL0     C16533   1.084   6.692   6.249  0.0361  0.6130 -0.1440
  864MOL0     C16534   0.867   6.589   6.187 -0.1206  1.0425 -0.1033
  864MOL0     C16535   0.825   6.553   6.321 -0.1488  1.0800  0.7271
  864MOL0     O16536   0.693   6.573   6.349 -0.7193  0.1173  0.5132
  864MOL0     C16537   0.632   6.503   6.446 -0.0979 -0.4749 -0.3965
  864MOL0     C16538   0.656   6.523   6.581 -0.7553 -0.1272  0.5578
  864MOL0     C16539   0.596   6.436   6.673 -0.2446  0.1526  0.3680
  864MOL0     C16540   0.525   6.320   6.627 -0.1858  1.3793  0.1098
  864MOL0     O16541   0.486   6.248   6.738  0.2929  0.1960  0.4640
  864MOL0     C16542   0.363   6.189   6.731 -0.1808 -0.3492  0.0361
  864MOL0     C16543   0.348   6.112   6.862 -0.2767 -0.0682  0.4219
  864MOL0     C16544   0.340   6.226   6.971 -1.6707 -0.0422  0.4151
  864MOL0     C16545   0.208   6.220   7.048 -0.4366 -0.1334  0.4883
  864MOL0     C16546   0.208   6.143   7.176 -0.1614 -0.1730 -0.2136
  864MOL0     C16547   0.326   6.183   7.271  0.1357  0.6111  0.0511
  864MOL0     C16548   0.277   6.149   7.413  0.2972 -0.2735 -1.3067
  864MOL0     C16549   0.366   6.167   7.521  0.4152  0.2047  0.7804
  864MOL0    Cl16550   0.393   6.346   7.531 -0.2129 -0.4746  0.0589
  864MOL0     C16551   0.507   6.296   6.490 -0.2329  0.6347  1.2945
  864MOL0     C16552   0.549   6.399   6.404  0.8858 -0.5712  0.4623
  864MOL0     O16553   0.899   6.486   6.388 -0.7205 -0.0366 -0.2040
  864MOL0     C16554   0.772   6.573   6.084 -0.0650 -0.0796 -0.6166
  864MOL0     C16555   0.792   6.606   5.952 -0.4547  0.1818 -0.7784
  864MOL0     N16556   0.440   6.870   5.391 -0.9808  0.0608  0.1752
  864MOL0     N16557   0.412   6.852   5.267  0.7571 -0.1974 -0.3356
  864MOL0     C16558   0.415   6.138   4.419 -0.1054  0.3042 -0.1177
  864MOL0     C16559   0.353   6.022   4.398  0.0508  0.1133 -0.8106
  864MOL0     C16560   0.303   5.552   4.405 -0.1477  0.1926  0.0101
  864MOL0     C16561   0.343   5.438   4.334 -0.3041  0.4911 -0.8648
  864MOL0     C16562   0.263   5.320   4.342 -0.5360 -0.7223  0.3649
  864MOL0     C16563   0.138   5.329   4.405 -0.6731 -0.2323  0.0530
  864MOL0     O16564   0.071   5.214   4.384  0.0317  0.7287  0.2624
  864MOL0     C16565  -0.058   5.199   4.438 -0.5964 -0.0049  0.2356
  864MOL0     C16566  -0.057   5.116   4.573  0.4705  0.6198 -0.8822
  864MOL0     C16567   0.038   4.994   4.575 -0.4908 -0.1702 -0.8000
  864MOL0     C16568  -0.013   4.854   4.619  0.3509  0.0274 -0.7117
  864MOL0     C16569  -0.099   4.874   4.737 -0.0472 -0.1644 -0.7880
  864MOL0     C16570  -0.172   4.897   4.837 -1.0171  0.8800  0.2121
  864MOL0     C16571   0.090   5.447   4.459 -0.4969 -0.1848  0.5564
  864MOL0     C16572   0.175   5.565   4.455  0.1453 -0.8782 -0.0283
  864MOL0     H16573   0.625   5.828   4.354  0.8889  1.2009 -0.7592
  864MOL0     H16574   0.739   6.038   4.403 -0.2203 -0.4420 -2.6022
  864MOL0     H16575   0.800   6.245   4.492 -0.6863 -0.6397  0.2287
  864MOL0     H16576   0.752   6.309   4.329 -0.0706  1.2025  0.2925
  864MOL0     H16577   0.837   6.512   4.437  1.7343 -0.2247  0.7564
  864MOL0     H16578   0.655   6.504   4.444  0.8249  1.1842  1.3766
  864MOL0     H16579   0.673   6.393   4.664  0.1074  0.6380 -0.7769
  864MOL0     H16580   0.850   6.432   4.667 -0.8634  0.4937  1.7441
  864MOL0     H16581   0.781   6.676   4.626  0.9049 -0.9143  3.0565
  864MOL0     H16582   0.610   6.617   4.654 -1.9066  1.0223  3.1933
  864MOL0     H16583   0.681   6.536   4.879  0.8738  0.7922  2.3331
  864MOL0     H16584   0.829   6.646   4.867 -1.7426  0.5469  3.2409
  864MOL0     H16585   0.720   6.828   4.833 -0.7031  1.4937  0.6413
  864MOL0     H16586   0.562   6.752   4.836 -0.8818  0.5995  0.9069
  864MOL0     H16587   0.615   6.682   5.082  0.8248  0.4441  1.7529
  864MOL0     H16588   0.737   6.783   5.095 -2.4189  3.4110  1.8808
  864MOL0     H16589   0.466   6.900   5.007  0.4110  0.0456  0.2609
  864MOL0     H16590   0.616   6.981   5.052  0.1779 -0.4271  0.2397
  864MOL0     H16591   0.694   7.009   5.256 -0.7476  1.8603 -1.5023
  864MOL0     H16592   0.728   7.014   5.514 -0.8745 -0.0864 -0.4382
  864MOL0     H16593   0.571   7.023   5.594  0.1123 -0.0613  0.6002
  864MOL0     H16594   0.743   6.769   5.559 -0.1757 -0.8566 -0.8782
  864MOL0     H16595   0.590   6.789   5.647 -0.6053  0.9182  0.1274
  864MOL0     H16596   0.704   6.811   5.828  4.6745 -0.8534  2.3117
  864MOL0     H16597   0.708   6.979   5.770 -2.4380 -0.6674  0.8100
  864MOL0     H16598   0.950   6.918   5.833  0.9857 -0.1900 -1.0747
  864MOL0     H16599   0.936   6.889   5.664 -2.6257  1.2290  0.1493
  864MOL0     H16600   1.091   6.758   5.985 -2.5488  1.7468 -2.9113
  864MOL0     H16601   1.145   6.608   6.285 -0.8754 -0.4806 -1.0748
  864MOL0     H16602   1.145   6.777   6.217  0.0634  0.1189 -1.4569
  864MOL0     H16603   1.020   6.716   6.334 -0.1315 -0.3049  0.0070
  864MOL0     H16604   0.712   6.612   6.608 -1.9487  0.8868 -0.2348
  864MOL0     H16605   0.614   6.450   6.779  2.1416  0.1266  0.0021
  864MOL0     H16606   0.282   6.262   6.724 -0.5262 -0.8375 -1.6067
  864MOL0     H16607   0.367   6.124   6.643 -2.4814 -0.1224 -0.3043
  864MOL0     H16608   0.252   6.060   6.866 -1.7165  2.4539  0.4824
  864MOL0     H16609   0.435   6.047   6.875  0.1870  0.8336  2.1561
  864MOL0     H16610   0.343   6.327   6.929 -3.5327  0.1618  0.6968
  864MOL0     H16611   0.421   6.219   7.044 -2.0273  0.3723  0.8625
  864MOL0     H16612   0.193   6.320   7.088  0.5117  1.1188 -2.0678
  864MOL0     H16613   0.123   6.182   6.989  2.5439  1.5938 -5.7604
  864MOL0     H16614   0.192   6.035   7.163 -1.1493 -0.3695  2.1449
  864MOL0     H16615   0.110   6.168   7.217  0.8909  1.3682  1.5051
  864MOL0     H16616   0.423   6.138   7.245  0.0995  1.2723 -1.3137
  864MOL0     H16617   0.334   6.292   7.266  0.6177  0.5293 -1.3783
  864MOL0     H16618   0.247   6.044   7.408 -2.5259  0.3978 -0.2747
  864MOL0     H16619   0.193   6.210   7.447  2.0850  0.8880  1.3537
  864MOL0     H16620   0.464   6.120   7.507  1.1578  1.6263  0.9402
  864MOL0     H16621   0.335   6.142   7.623  0.9302  1.0575  1.1656
  864MOL0     H16622   0.467   6.205   6.447 -0.5766  1.3712  0.0189
  864MOL0     H16623   0.548   6.397   6.296  1.0222  0.9236  0.4062
  864MOL0     H16624   0.677   6.530   6.114  1.1148 -2.4468 -0.0228
  864MOL0     H16625   0.718   6.584   5.875 -2.1516  1.9585  0.2436
  864MOL0     H16626   0.355   6.228   4.431  2.9118  2.4110  0.4247
  864MOL0     H16627   0.245   6.012   4.403  0.2530 -2.0754  0.3822
  864MOL0     H16628   0.444   5.426   4.296 -0.0114 -0.3782  0.1266
  864MOL0     H16629   0.305   5.227   4.304  2.7511  1.0061 -0.6329
  864MOL0     H16630  -0.111   5.294   4.455 -0.0164  1.0259 -2.9859
  864MOL0     H16631  -0.112   5.139   4.364  1.0666 -0.6763 -0.4966
  864MOL0     H16632  -0.157   5.087   4.608  1.5854 -0.8958  1.3195
  864MOL0     H16633  -0.024   5.176   4.658 -4.2174 -1.2543  2.7532
  864MOL0     H16634   0.112   5.023   4.651 -1.2939 -3.0362  1.2557
  864MOL0     H16635   0.091   4.991   4.480 -1.9829  0.0029 -1.6575
  864MOL0     H16636   0.066   4.784   4.648 -0.1090 -0.4260 -0.5297
  864MOL0     H16637  -0.079   4.810   4.544 -0.9587  2.7851 -1.2993
  864MOL0     H16638  -0.233   4.911   4.924 -0.7230  1.0616  0.3904
  864MOL0     H16639  -0.006   5.465   4.507  0.0517 -0.2751  1.7146
  864MOL0     H16640   0.148   5.664   4.491 -2.1940 -2.1705  2.0215
  865MOL0     O16641  10.165   4.520   2.266 -0.1536  0.6227 -0.1688
  865MOL0     C16642  10.282   4.514   2.219  0.7156 -0.7673  0.1025
  865MOL0     O16643  10.358   4.618   2.180 -0.4052  0.4751 -0.1566
  865MOL0     C16644  10.300   4.745   2.181 -0.2876 -0.4168 -0.0402
  865MOL0     C16645  10.366   4.849   2.245  0.0592 -0.4872  0.3603
  865MOL0     C16646  10.322   4.977   2.243  0.6184  0.0373  0.2225
  865MOL0     C16647  10.202   5.015   2.184 -0.5181 -0.4687 -0.3704
  865MOL0     O16648  10.147   5.136   2.196 -0.4314 -0.5835  0.3865
  865MOL0     C16649  10.163   5.221   2.079  0.4727  0.1777  0.5243
  865MOL0     C16650  10.136   5.372   2.120  0.4107 -0.7525 -0.5762
  865MOL0     C16651  10.218   5.407   2.251 -0.4204  0.8899  0.4498
  865MOL0     C16652  10.347   5.464   2.208  0.6819 -0.1513  0.2299
  865MOL0     C16653  10.459   5.416   2.295  0.2437 -0.9459 -0.6496
  865MOL0     C16654  10.570   5.521   2.317 -0.1726 -0.0730 -0.2028
  865MOL0     C16655  10.647   5.556   2.185  0.3744  0.2354 -1.1459
  865MOL0     C16656  10.767   5.638   2.217  0.7173  0.7211  0.2867
  865MOL0     N16657  10.812   5.704   2.095 -0.9641  0.3864 -0.4086
  865MOL0     C16658  10.869   5.649   1.988 -0.2370  0.8758  0.3871
  865MOL0     C16659  10.912   5.752   1.908 -0.8601 -0.2166  0.3133
  865MOL0     C16660  10.975   5.733   1.767 -0.0714 -0.6713 -0.0484
  865MOL0     C16661  11.084   5.841   1.721 -0.2538  0.1675  0.4759
  865MOL0     C16662  11.077   5.980   1.781 -0.0650 -0.9702  0.2674
  865MOL0     C16663  11.192   6.066   1.710 -0.7795  0.0661  0.1696
  865MOL0     O16664  11.306   5.977   1.720  0.1464 -0.6521  0.1518
  865MOL0     C16665  11.428   6.044   1.686  0.3367  0.7172  0.7257
  865MOL0     C16666  11.442   6.181   1.652  0.6689 -0.1331 -0.3903
  865MOL0     C16667  11.572   6.237   1.633  0.7093  0.1180 -0.2068
  865MOL0     C16668  11.585   6.389   1.608  0.6113 -0.3529  0.1080
  865MOL0     C16669  11.692   6.158   1.644 -0.2654 -0.2810 -0.8325
  865MOL0     C16670  11.822   6.196   1.621  0.0353 -0.3025  0.4684
  865MOL0     O16671  11.910   6.172   1.726 -0.2579 -0.6707 -0.1500
  865MOL0     C16672  12.042   6.230   1.724  1.4641 -0.1431 -0.6024
  865MOL0     C16673  12.144   6.169   1.651  0.7736 -0.7768 -0.0729
  865MOL0     C16674  12.271   6.221   1.641  0.2584  1.1583  0.4784
  865MOL0     C16675  12.308   6.332   1.711 -0.1536 -0.6648  0.1649
  865MOL0     O16676  12.439   6.380   1.715 -0.0474 -0.1953 -0.1301
  865MOL0     C16677  12.548   6.310   1.670  0.6075  0.1196 -0.8792
  865MOL0     C16678  12.659   6.408   1.697 -1.4155 -0.7044  0.0577
  865MOL0     C16679  12.809   6.353   1.664  0.6280 -0.1379  0.1921
  865MOL0     C16680  12.833   6.347   1.521 -0.0200  0.1695  0.6196
  865MOL0     C16681  12.980   6.369   1.481 -0.7571  0.3041 -0.1770
  865MOL0     C16682  13.000   6.370   1.323 -0.1233  0.1218  0.3853
  865MOL0     C16683  13.143   6.391   1.264  0.3727  0.7746 -0.3025
  865MOL0     C16684  13.176   6.537   1.293  0.3546  1.1276  0.3528
  865MOL0    Cl16685  13.340   6.551   1.193  0.1621 -0.4157 -0.3383
  865MOL0     C16686  12.201   6.406   1.771 -0.2921  0.1456  0.0100
  865MOL0     C16687  12.071   6.356   1.764 -0.5450 -0.1096 -0.2434
  865MOL0     O16688  11.851   6.230   1.505 -0.0243 -0.1492 -0.0524
  865MOL0     C16689  11.665   6.027   1.674 -0.9088 -0.1084 -1.4746
  865MOL0     C16690  11.547   5.972   1.707  0.4622  0.7947 -0.1906
  865MOL0     N16691  10.858   5.862   1.961  0.5357 -0.4882 -0.9386
  865MOL0     N16692  10.800   5.836   2.078 -0.0637 -0.0954 -0.5984
  865MOL0     C16693  10.133   4.916   2.113 -0.3989  0.2875  0.4303
  865MOL0     C16694  10.183   4.780   2.119  0.5617 -0.0530  0.7537
  865MOL0     C16695  10.337   4.383   2.194  0.7744  0.0524  0.4987
  865MOL0     C16696  10.255   4.264   2.206 -0.3538 -0.7111  0.9831
  865MOL0     C16697  10.317   4.143   2.185 -0.1565  0.0959 -0.7581
  865MOL0     C16698  10.457   4.133   2.156  0.4177  0.3630  0.6691
  865MOL0     O16699  10.517   4.014   2.134 -0.3459  0.5433 -0.3045
  865MOL0     C16700  10.456   3.893   2.191 -0.2487  0.0004  0.6487
  865MOL0     C16701  10.533   3.771   2.135 -0.3847 -0.5972 -0.0359
  865MOL0     C16702  10.470   3.736   2.002  0.0838  1.0563 -0.3037
  865MOL0     C16703  10.569   3.650   1.919 -0.0326  0.0959  0.3966
  865MOL0     C16704  10.519   3.600   1.789  0.2802 -0.5914 -0.0744
  865MOL0     C16705  10.485   3.592   1.673 -0.4767 -0.8331  0.1219
  865MOL0     C16706  10.536   4.249   2.144 -0.5236 -0.3517 -0.6437
  865MOL0     C16707  10.481   4.372   2.167  0.9130 -0.5435 -1.3848
  865MOL0     H16708  10.470   4.836   2.276 -0.6301 -4.1614  1.6438
  865MOL0     H16709  10.383   5.053   2.290  1.1213  0.2665 -0.7735
  865MOL0     H16710  10.265   5.211   2.040 -0.2836 -2.9361 -0.9890
  865MOL0     H16711  10.092   5.192   2.000  0.0187  0.3410  0.8732
  865MOL0     H16712  10.159   5.438   2.035 -1.7952 -2.2753 -2.4958
  865MOL0     H16713  10.031   5.382   2.147  0.8522 -2.5400  2.2071
  865MOL0     H16714  10.156   5.483   2.299  0.3512  3.5814 -2.4680
  865MOL0     H16715  10.233   5.317   2.311  1.1451  1.2695  0.6774
  865MOL0     H16716  10.373   5.441   2.105  1.7461  0.0416  0.4338
  865MOL0     H16717  10.346   5.573   2.218 -0.5596  0.0210 -1.4045
  865MOL0     H16718  10.411   5.428   2.392 -0.0704 -1.2456 -0.7644
  865MOL0     H16719  10.493   5.315   2.269 -0.2586 -1.4060  0.4251
  865MOL0     H16720  10.522   5.615   2.346 -0.0664 -0.2822  0.6786
  865MOL0     H16721  10.642   5.485   2.392  0.0782 -0.9316 -0.8452
  865MOL0     H16722  10.690   5.464   2.144  0.6998 -0.1182 -0.0580
  865MOL0     H16723  10.581   5.607   2.114  1.0654 -0.8151 -2.6019
  865MOL0     H16724  10.850   5.572   2.246  2.7560  4.0451  2.6516
  865MOL0     H16725  10.747   5.709   2.297  0.8545  1.1672 -0.0679
  865MOL0     H16726  10.877   5.542   1.972 -1.1390  0.8832 -0.1993
  865MOL0     H16727  11.020   5.635   1.748  2.4854  0.6607 -1.3729
  865MOL0     H16728  10.886   5.755   1.708  0.1000 -0.3659 -0.1964
  865MOL0     H16729  11.074   5.844   1.612  1.5598 -0.4689  0.2610
  865MOL0     H16730  11.181   5.805   1.754 -0.8768  0.7293  3.1956
  865MOL0     H16731  11.092   5.971   1.889 -0.7752  0.7927  0.5552
  865MOL0     H16732  10.983   6.035   1.765  0.0740 -1.1315 -1.1991
  865MOL0     H16733  11.202   6.162   1.762  2.2311 -0.1143  0.0961
  865MOL0     H16734  11.176   6.085   1.604 -2.2707 -3.3792 -0.3599
  865MOL0     H16735  11.345   6.231   1.649 -0.1610 -1.6914 -2.1162
  865MOL0     H16736  11.606   6.443   1.701  0.6038  1.3593 -0.8450
  865MOL0     H16737  11.664   6.410   1.535  0.5895 -0.3243  0.0928
  865MOL0     H16738  11.487   6.421   1.571  1.7603 -0.0944 -2.9933
  865MOL0     H16739  12.113   6.083   1.594  2.3495 -0.3291 -1.6788
  865MOL0     H16740  12.341   6.160   1.584 -0.7471  2.0495 -1.8355
  865MOL0     H16741  12.557   6.215   1.724 -1.5342  1.6883  2.5834
  865MOL0     H16742  12.541   6.294   1.562 -1.8072 -5.2660 -0.2317
  865MOL0     H16743  12.643   6.491   1.629 -0.1230 -0.0497  0.5224
  865MOL0     H16744  12.649   6.435   1.803  2.2210 -0.8342  0.5533
  865MOL0     H16745  12.818   6.252   1.706  0.9162 -0.5777 -0.9008
  865MOL0     H16746  12.887   6.413   1.711 -1.8476  4.1734 -0.6918
  865MOL0     H16747  12.792   6.255   1.476 -1.3635  0.2118  1.6986
  865MOL0     H16748  12.767   6.423   1.479 -0.1684  0.1621  0.8384
  865MOL0     H16749  13.045   6.293   1.524  1.9203  1.2573 -2.1989
  865MOL0     H16750  13.021   6.463   1.519  0.5181 -0.1756 -0.3056
  865MOL0     H16751  12.973   6.267   1.299  3.7224 -1.1025  0.6531
  865MOL0     H16752  12.932   6.438   1.271  2.4408  2.7394  0.2162
  865MOL0     H16753  13.140   6.367   1.158  0.6102 -2.1934  0.2713
  865MOL0     H16754  13.219   6.331   1.316 -1.1298 -0.2847  0.7328
  865MOL0     H16755  13.195   6.561   1.398  0.5019 -0.3696  0.6967
  865MOL0     H16756  13.092   6.599   1.261 -0.2158  0.0504 -0.3067
  865MOL0     H16757  12.227   6.500   1.818  4.0447 -1.5614  1.6068
  865MOL0     H16758  11.992   6.416   1.809  3.3553  2.2121  4.4170
  865MOL0     H16759  11.754   5.965   1.676 -0.1427  0.9092 -2.5410
  865MOL0     H16760  11.534   5.867   1.733  0.7317  0.2774 -2.0217
  865MOL0     H16761  10.039   4.942   2.066  0.3108 -0.9125 -1.8225
  865MOL0     H16762  10.112   4.710   2.075  1.7623  0.1162 -1.5971
  865MOL0     H16763  10.151   4.266   2.236 -1.5259 -3.0768 -2.3113
  865MOL0     H16764  10.245   4.064   2.200  0.9322 -0.7973 -0.0329
  865MOL0     H16765  10.456   3.893   2.300 -3.5279  2.7458  0.8015
  865MOL0     H16766  10.352   3.889   2.157 -0.0176  0.0559 -0.0989
  865MOL0     H16767  10.516   3.679   2.191 -0.4515 -0.8138 -0.4119
  865MOL0     H16768  10.642   3.785   2.133  0.0499 -3.3982 -1.2006
  865MOL0     H16769  10.431   3.820   1.943 -3.5125  0.9331  1.6357
  865MOL0     H16770  10.381   3.674   2.017  0.6332  0.5499  1.0223
  865MOL0     H16771  10.610   3.567   1.978  0.6856 -2.5118 -3.3924
  865MOL0     H16772  10.660   3.704   1.893  0.2496 -0.2705  0.6104
  865MOL0     H16773  10.456   3.575   1.571 -0.5818  0.7663 -0.1408
  865MOL0     H16774  10.641   4.247   2.120 -0.3604  4.1354 -1.1245
  865MOL0     H16775  10.545   4.459   2.155  0.1496  0.2943  0.2259
  866MOL0     O16776   3.882   3.862   0.729 -1.2195  0.5019  0.7516
  866MOL0     C16777   3.828   3.893   0.828  0.2522 -1.4793 -0.5583
  866MOL0     O16778   3.880   3.877   0.952  0.5019 -0.3154  0.2625
  866MOL0     C16779   3.991   3.800   0.956 -0.6173  0.1097  0.6920
  866MOL0     C16780   4.117   3.854   0.957  0.0348  0.1180  0.1914
  866MOL0     C16781   4.228   3.766   0.944 -0.9788  1.2083  0.2157
  866MOL0     C16782   4.210   3.633   0.936  0.0432  0.2845 -0.0768
  866MOL0     O16783   4.318   3.549   0.935 -0.2215 -0.6094  0.0931
  866MOL0     C16784   4.300   3.411   0.947  0.0628  0.8016 -0.5735
  866MOL0     C16785   4.442   3.358   0.999  0.6725 -0.0272  0.3413
  866MOL0     C16786   4.464   3.209   0.975  0.2355 -0.6547  0.9035
  866MOL0     C16787   4.591   3.144   1.047 -1.3021 -0.8716  0.3986
  866MOL0     C16788   4.720   3.221   1.030  0.2938 -0.8178 -1.3700
  866MOL0     C16789   4.768   3.234   0.895  0.1573  0.0481  1.0274
  866MOL0     C16790   4.908   3.305   0.897  0.8193 -0.4991  0.4705
  866MOL0     C16791   4.905   3.453   0.888 -1.0691  0.5665 -0.6057
  866MOL0     N16792   4.832   3.511   0.782  0.3365 -0.5728 -0.3003
  866MOL0     C16793   4.725   3.593   0.812 -0.2302 -0.4222  0.8870
  866MOL0     C16794   4.657   3.591   0.694  0.2693  0.4982 -0.1904
  866MOL0     C16795   4.534   3.668   0.662  0.4247  0.8153 -0.1677
  866MOL0     C16796   4.531   3.825   0.671  0.9142 -0.1842  0.4466
  866MOL0     C16797   4.558   3.906   0.549  0.3016  0.2188  0.5624
  866MOL0     C16798   4.484   3.854   0.428  0.7888  0.5321 -0.1232
  866MOL0     O16799   4.346   3.814   0.463 -0.7939  0.8330 -0.5887
  866MOL0     C16800   4.262   3.766   0.364 -0.2153 -0.7639  0.0455
  866MOL0     C16801   4.261   3.817   0.229  0.2760 -0.0213 -0.8618
  866MOL0     C16802   4.170   3.759   0.142 -0.3216 -0.2267  0.4432
  866MOL0     C16803   4.174   3.818   0.006  0.0095 -0.5104  0.1309
  866MOL0     C16804   4.075   3.663   0.189 -0.3918 -0.0180  0.8402
  866MOL0     C16805   3.959   3.608   0.114  0.2011 -0.5046 -0.0631
  866MOL0     O16806   3.960   3.642  -0.022  0.2556  0.1071 -0.1076
  866MOL0     C16807   3.856   3.619  -0.108 -0.2497  0.2514 -0.1996
  866MOL0     C16808   3.891   3.559  -0.226 -0.1039  0.5785  0.3059
  866MOL0     C16809   3.792   3.535  -0.321  0.1270  0.3728  0.6485
  866MOL0     C16810   3.660   3.587  -0.304 -0.1698  0.4593  1.1197
  866MOL0     O16811   3.564   3.601  -0.399  0.5062 -0.1703  0.2802
  866MOL0     C16812   3.457   3.507  -0.409  0.4751 -0.5442 -0.3025
  866MOL0     C16813   3.425   3.478  -0.555  0.6311  0.1070  0.3726
  866MOL0     C16814   3.561   3.454  -0.633  0.5125  0.1688 -0.1866
  866MOL0     C16815   3.524   3.384  -0.765 -0.6125  0.2309  0.0066
  866MOL0     C16816   3.628   3.279  -0.823  0.0816 -0.1301  0.2115
  866MOL0     C16817   3.567   3.216  -0.946 -0.1319 -0.0499  0.8887
  866MOL0     C16818   3.639   3.087  -0.991  0.1273  1.0708 -0.2884
  866MOL0     C16819   3.570   3.054  -1.121  1.0258 -0.4197  0.4199
  866MOL0    Cl16820   3.609   2.890  -1.150 -0.0848  0.1181  0.1466
  866MOL0     C16821   3.633   3.642  -0.181  0.2674  0.5558 -0.2328
  866MOL0     C16822   3.726   3.676  -0.084 -0.0068  0.1861 -0.5446
  866MOL0     O16823   3.872   3.533   0.160 -0.9527  0.4269 -0.1940
  866MOL0     C16824   4.090   3.617   0.319 -0.5067 -0.0034 -0.6021
  866MOL0     C16825   4.192   3.656   0.401 -0.5979 -0.0050  0.3701
  866MOL0     N16826   4.712   3.511   0.603  0.6321  0.1430 -0.2583
  866MOL0     N16827   4.819   3.457   0.657 -0.0636  0.2403  0.3509
  866MOL0     C16828   4.082   3.584   0.920 -0.0217  0.3546 -0.0937
  866MOL0     C16829   3.975   3.663   0.937 -0.3021 -0.1698 -1.0612
  866MOL0     C16830   3.709   3.975   0.808 -0.5168  0.3252  0.6362
  866MOL0     C16831   3.665   4.032   0.685  0.3507 -0.5996 -0.8552
  866MOL0     C16832   3.543   4.092   0.677 -0.1526 -0.6803  0.1993
  866MOL0     C16833   3.475   4.133   0.790 -0.2159 -0.0722  0.6142
  866MOL0     O16834   3.369   4.217   0.789  0.6118  0.1213  0.1567
  866MOL0     C16835   3.313   4.259   0.662 -0.7906 -0.8327 -0.4710
  866MOL0     C16836   3.205   4.369   0.680  0.3662 -0.8489 -0.1241
  866MOL0     C16837   3.264   4.514   0.711 -0.7145  0.7247 -0.9695
  866MOL0     C16838   3.151   4.604   0.655 -1.0899  0.6608  0.5807
  866MOL0     C16839   3.191   4.741   0.702  0.2792  0.6954 -0.7760
  866MOL0     C16840   3.211   4.854   0.733 -0.0529 -0.2792  0.2124
  866MOL0     C16841   3.533   4.103   0.916  0.6674 -1.1897 -0.1435
  866MOL0     C16842   3.640   4.019   0.927 -0.5714  0.7632  0.5343
  866MOL0     H16843   4.134   3.960   0.948 -2.6085  0.6216  0.4172
  866MOL0     H16844   4.333   3.797   0.941 -1.0661  1.5058 -2.3242
  866MOL0     H16845   4.218   3.372   1.007  1.1727  0.6686  0.9321
  866MOL0     H16846   4.271   3.383   0.845 -1.0730 -0.2033  0.0042
  866MOL0     H16847   4.521   3.420   0.954  0.2294  0.8829  0.7876
  866MOL0     H16848   4.451   3.379   1.106  0.3782 -1.6404  0.6948
  866MOL0     H16849   4.374   3.151   0.995 -3.0108  3.6610  0.1075
  866MOL0     H16850   4.457   3.207   0.866  0.4297  0.5579  0.8542
  866MOL0     H16851   4.567   3.131   1.153 -0.1510 -0.2130  0.7570
  866MOL0     H16852   4.608   3.049   0.995 -1.6088 -0.1699 -1.0370
  866MOL0     H16853   4.702   3.324   1.064 -1.2743 -1.0044 -1.5678
  866MOL0     H16854   4.791   3.172   1.098  1.0118  1.4565 -0.3610
  866MOL0     H16855   4.784   3.135   0.850  2.9720  0.9601 -0.2197
  866MOL0     H16856   4.696   3.285   0.830  0.9527 -0.7387 -0.5283
  866MOL0     H16857   4.976   3.278   0.978  1.1149  1.6444  0.9862
  866MOL0     H16858   4.953   3.253   0.812  2.0087 -1.3634  1.5921
  866MOL0     H16859   5.004   3.494   0.868 -0.5240  1.7276  3.6506
  866MOL0     H16860   4.871   3.490   0.985 -3.1026  0.8467 -1.3754
  866MOL0     H16861   4.708   3.665   0.892 -0.7823 -1.7778  2.0392
  866MOL0     H16862   4.495   3.631   0.567 -0.1455  1.8796 -0.3500
  866MOL0     H16863   4.466   3.649   0.745  0.1955  0.8891 -0.3409
  866MOL0     H16864   4.594   3.851   0.756  0.0259 -3.1941  2.1726
  866MOL0     H16865   4.432   3.857   0.708  1.6349  1.4573  1.0491
  866MOL0     H16866   4.666   3.925   0.538 -0.0184  3.3352  1.8499
  866MOL0     H16867   4.519   4.006   0.571  1.1764  0.1937  2.3881
  866MOL0     H16868   4.537   3.764   0.398  0.4159 -0.0119  0.8077
  866MOL0     H16869   4.480   3.938   0.358 -0.5513  0.8581  0.3147
  866MOL0     H16870   4.313   3.908   0.203  0.0280  0.3698  0.0016
  866MOL0     H16871   4.243   3.900  -0.014  0.5197 -1.1416 -0.7790
  866MOL0     H16872   4.199   3.739  -0.066 -2.1057 -1.9904  0.9086
  866MOL0     H16873   4.080   3.866  -0.023  0.6023  0.8617  0.4291
  866MOL0     H16874   3.990   3.523  -0.248 -1.6468 -2.7646 -1.9049
  866MOL0     H16875   3.813   3.469  -0.405  0.8317 -2.3620  2.8068
  866MOL0     H16876   3.475   3.408  -0.366 -1.0552 -0.6099  0.2605
  866MOL0     H16877   3.364   3.550  -0.371 -0.2212 -0.1231 -2.3222
  866MOL0     H16878   3.354   3.395  -0.562  0.0824  0.7015 -1.9195
  866MOL0     H16879   3.376   3.558  -0.611  3.1838 -0.5049 -3.0837
  866MOL0     H16880   3.626   3.388  -0.574  3.1959  2.4741 -0.3256
  866MOL0     H16881   3.628   3.541  -0.641 -1.5088  2.0710  1.8875
  866MOL0     H16882   3.427   3.335  -0.751 -1.8549  2.4546 -0.1812
  866MOL0     H16883   3.491   3.454  -0.842 -2.6576  0.6154  1.1392
  866MOL0     H16884   3.638   3.202  -0.746  1.5400  0.6112  0.8058
  866MOL0     H16885   3.726   3.326  -0.836  0.1880  0.7333  3.1734
  866MOL0     H16886   3.461   3.193  -0.939  0.4220 -3.5465 -0.1115
  866MOL0     H16887   3.579   3.293  -1.023  0.5785  0.6961  1.7231
  866MOL0     H16888   3.625   3.011  -0.914  2.2857  0.4541 -0.4517
  866MOL0     H16889   3.745   3.094  -1.016 -0.6232 -0.0151 -4.5860
  866MOL0     H16890   3.595   3.114  -1.209 -0.4317 -2.0162 -1.1746
  866MOL0     H16891   3.462   3.071  -1.120  1.2226  0.9033  1.0876
  866MOL0     H16892   3.531   3.681  -0.179  0.6970  1.7828  2.3777
  866MOL0     H16893   3.703   3.737   0.002 -0.9904 -0.7960 -0.0877
  866MOL0     H16894   4.023   3.538   0.352 -2.3357  1.6459 -0.1819
  866MOL0     H16895   4.212   3.613   0.499  2.4171  2.3075  0.8785
  866MOL0     H16896   4.067   3.476   0.918 -2.3666  0.6030  1.2925
  866MOL0     H16897   3.873   3.626   0.928 -1.6429  3.0874 -0.4165
  866MOL0     H16898   3.711   4.003   0.591  0.1231 -1.0519 -0.8270
  866MOL0     H16899   3.496   4.095   0.580  0.4934 -1.9688 -0.1881
  866MOL0     H16900   3.390   4.297   0.595  0.0347  0.9589  1.3979
  866MOL0     H16901   3.275   4.168   0.614 -2.3661 -0.2653 -0.3507
  866MOL0     H16902   3.149   4.336   0.768  3.8078  1.0785  3.1162
  866MOL0     H16903   3.137   4.367   0.595  1.3716 -2.0983 -0.9403
  866MOL0     H16904   3.359   4.519   0.657 -1.5871  0.3196 -2.5975
  866MOL0     H16905   3.294   4.530   0.815 -0.1677  1.4871 -1.2334
  866MOL0     H16906   3.055   4.577   0.700  0.1925  0.1474  3.1751
  866MOL0     H16907   3.144   4.599   0.546 -0.1487  0.5379  0.5187
  866MOL0     H16908   3.233   4.958   0.743 -3.6166  0.7430 -1.1229
  866MOL0     H16909   3.483   4.144   1.003 -1.8570  3.6706 -3.3779
  866MOL0     H16910   3.672   3.978   1.022 -4.0039 -0.5433  1.2686
  867MOL0     O16911   8.068   5.772   9.801 -0.3175  0.0562  0.3791
  867MOL0     C16912   7.988   5.715   9.860 -0.6111 -0.4971 -1.0860
  867MOL0     O16913   7.916   5.766   9.959  0.0857  0.0442 -0.4713
  867MOL0     C16914   7.925   5.898  10.005  0.1447 -0.9199  0.7492
  867MOL0     C16915   7.915   6.004   9.914  0.7891 -0.7621 -0.1913
  867MOL0     C16916   7.906   6.138   9.956  0.7226  0.2757  0.2392
  867MOL0     C16917   7.892   6.163  10.091 -0.7562 -0.9192  1.0564
  867MOL0     O16918   7.883   6.299  10.123  0.4163 -0.7071 -0.6613
  867MOL0     C16919   7.835   6.325  10.254 -0.5281  0.1813 -0.6293
  867MOL0     C16920   7.805   6.470  10.265  0.0585  0.6884 -0.5301
  867MOL0     C16921   7.917   6.568  10.223  0.0775 -0.8508 -0.6971
  867MOL0     C16922   7.942   6.599  10.075 -0.1882  0.1583 -0.9195
  867MOL0     C16923   8.062   6.690  10.055  0.1498  0.0625  0.4721
  867MOL0     C16924   8.199   6.638  10.112  0.5911  0.0645  0.5846
  867MOL0     C16925   8.245   6.503  10.038  0.6568  0.1307 -1.1238
  867MOL0     C16926   8.399   6.489  10.056  0.5805 -0.0274  0.6328
  867MOL0     N16927   8.454   6.424  10.172 -1.0770 -0.0432  1.0569
  867MOL0     C16928   8.374   6.375  10.259  0.3120  0.4843 -0.8392
  867MOL0     C16929   8.440   6.278  10.331 -0.2165 -0.3662 -0.0540
  867MOL0     C16930   8.375   6.171  10.410  0.9903 -0.1190 -0.3610
  867MOL0     C16931   8.287   6.215  10.534 -1.1122 -0.1752 -0.4408
  867MOL0     C16932   8.376   6.273  10.647 -0.5345 -0.6283  0.2711
  867MOL0     C16933   8.472   6.180  10.717 -0.6532 -0.0020 -0.6611
  867MOL0     O16934   8.425   6.082  10.807 -0.0197 -0.0585  0.2054
  867MOL0     C16935   8.334   6.126  10.900  0.1854  0.4756 -0.4626
  867MOL0     C16936   8.263   6.023  10.953 -0.6845  0.8243  0.0972
  867MOL0     C16937   8.165   6.045  11.048  0.8300 -0.0474 -0.2845
  867MOL0     C16938   8.072   5.938  11.091 -0.1229  0.1222  0.6715
  867MOL0     C16939   8.144   6.178  11.099 -0.5241 -0.2795 -0.3810
  867MOL0     C16940   8.058   6.218  11.210  0.2181 -0.0947 -0.7845
  867MOL0     O16941   8.015   6.349  11.208  0.3917 -0.3681  0.1279
  867MOL0     C16942   7.938   6.401  11.309  0.9041 -0.0517  0.5691
  867MOL0     C16943   7.996   6.423  11.437 -0.5333  0.3988  0.3181
  867MOL0     C16944   7.921   6.473  11.541  0.3898 -0.1253 -0.1478
  867MOL0     C16945   7.780   6.491  11.526  0.6441 -0.6979  0.3778
  867MOL0     O16946   7.684   6.512  11.626  0.7198  0.0622  0.2007
  867MOL0     C16947   7.731   6.529  11.762 -0.5336 -0.2547 -1.5152
  867MOL0     C16948   7.800   6.661  11.764  0.0468  0.0674 -0.2913
  867MOL0     C16949   7.852   6.703  11.905  0.8733 -0.9640  0.1027
  867MOL0     C16950   7.734   6.711  12.010  0.1279 -0.2362  1.1553
  867MOL0     C16951   7.780   6.788  12.133 -0.3903 -0.6477  0.1471
  867MOL0     C16952   7.902   6.730  12.209 -0.4351 -0.4535  0.3126
  867MOL0     C16953   7.896   6.586  12.266  0.7662  0.7780  0.4805
  867MOL0     C16954   7.779   6.578  12.362 -0.6386  0.6332 -0.2503
  867MOL0    Cl16955   7.784   6.675  12.509 -0.0267 -0.1480 -0.4455
  867MOL0     C16956   7.718   6.451  11.412 -0.2091  0.3349  1.3915
  867MOL0     C16957   7.791   6.424  11.296 -0.3359 -1.0833 -0.2915
  867MOL0     O16958   8.050   6.139  11.305  0.5606  0.1609  0.1341
  867MOL0     C16959   8.236   6.279  11.058 -0.0866 -0.6677  1.0258
  867MOL0     C16960   8.325   6.254  10.953 -1.0499  0.4637 -0.7221
  867MOL0     N16961   8.568   6.278  10.276  0.2414 -0.1539 -0.6524
  867MOL0     N16962   8.568   6.353  10.179 -0.2354  0.0220  1.1381
  867MOL0     C16963   7.906   6.055  10.186  0.6339 -0.5063  0.1798
  867MOL0     C16964   7.923   5.924  10.138  0.3161 -0.8596  0.0964
  867MOL0     C16965   7.971   5.575   9.835  1.5780  0.7713  0.5660
  867MOL0     C16966   8.005   5.511   9.718  0.5917 -0.6361  0.3965
  867MOL0     C16967   7.981   5.375   9.698  0.0914 -0.2182 -0.0511
  867MOL0     C16968   7.921   5.288   9.794 -0.5667 -0.2377  0.6820
  867MOL0     O16969   7.909   5.150   9.800 -0.7025  0.3416 -0.1045
  867MOL0     C16970   7.937   5.058   9.697 -0.2558 -0.8428  0.0963
  867MOL0     C16971   7.833   5.076   9.580 -0.1604  0.1250 -0.0327
  867MOL0     C16972   7.693   5.099   9.633 -0.2208 -0.0441 -0.0305
  867MOL0     C16973   7.631   4.979   9.708  0.9990  0.1011  0.4965
  867MOL0     C16974   7.657   4.844   9.654  0.1593  0.4442  0.8180
  867MOL0     C16975   7.661   4.730   9.601  0.1891 -0.6106  0.3206
  867MOL0     C16976   7.889   5.353   9.908  0.5734 -0.2882 -0.0623
  867MOL0     C16977   7.902   5.493   9.932  0.1494  0.3962 -0.4402
  867MOL0     H16978   7.909   5.975   9.809  0.1725  0.0763 -0.4018
  867MOL0     H16979   7.919   6.218   9.884  3.7891  1.6293  2.1054
  867MOL0     H16980   7.737   6.281  10.279 -1.3746  2.4137  0.2421
  867MOL0     H16981   7.909   6.287  10.325  0.0795 -1.7927 -2.2353
  867MOL0     H16982   7.712   6.499  10.214  0.9683  2.1535 -1.4426
  867MOL0     H16983   7.778   6.471  10.371  1.5189  0.1151 -0.1286
  867MOL0     H16984   7.896   6.664  10.273 -1.6227 -1.9321  0.7991
  867MOL0     H16985   8.011   6.539  10.269 -0.7305  1.7024  3.0634
  867MOL0     H16986   7.976   6.510  10.020  3.2295  1.4342 -1.1056
  867MOL0     H16987   7.854   6.638  10.024 -0.6172 -1.8110 -1.7913
  867MOL0     H16988   8.064   6.707   9.947 -1.6938  0.6588  0.5017
  867MOL0     H16989   8.051   6.787  10.105  1.8469  0.5385  0.0049
  867MOL0     H16990   8.276   6.711  10.084  0.6167 -0.9299 -2.2947
  867MOL0     H16991   8.193   6.629  10.221 -1.0100  0.2791  0.5310
  867MOL0     H16992   8.198   6.410  10.071  0.2280  0.6530 -0.2397
  867MOL0     H16993   8.228   6.510   9.930  2.5750  0.1207 -1.4605
  867MOL0     H16994   8.455   6.583  10.060  1.7311 -0.7097  3.7092
  867MOL0     H16995   8.445   6.438   9.971  1.9892 -4.1650  3.4997
  867MOL0     H16996   8.267   6.383  10.277 -0.0002 -4.8422  1.7244
  867MOL0     H16997   8.312   6.121  10.335 -0.8089  0.0148  0.9871
  867MOL0     H16998   8.457   6.106  10.440 -0.2545 -1.2630  0.7345
  867MOL0     H16999   8.238   6.123  10.569  0.0413 -1.2431 -1.5252
  867MOL0     H17000   8.211   6.285  10.498  0.9964  1.2728 -2.2694
  867MOL0     H17001   8.303   6.318  10.715  0.1305 -1.8690  1.8764
  867MOL0     H17002   8.435   6.356  10.606  0.4230 -0.6525  1.5531
  867MOL0     H17003   8.537   6.242  10.780 -1.4080 -1.7567  2.0011
  867MOL0     H17004   8.526   6.135  10.633 -1.3631  0.6280 -1.4598
  867MOL0     H17005   8.265   5.928  10.901 -0.3749  0.9127 -0.0552
  867MOL0     H17006   8.064   5.861  11.014  0.8421  0.9090 -0.2492
  867MOL0     H17007   8.109   5.887  11.181  1.5880 -0.0256 -0.0783
  867MOL0     H17008   7.969   5.963  11.116 -0.5604 -3.0619  2.7242
  867MOL0     H17009   8.097   6.389  11.456 -1.3039 -1.5310  1.2629
  867MOL0     H17010   7.955   6.472  11.644  3.7882  0.4118 -1.1398
  867MOL0     H17011   7.635   6.543  11.812 -1.4231  2.3124 -3.7265
  867MOL0     H17012   7.786   6.458  11.825 -0.5847  2.7669  2.2996
  867MOL0     H17013   7.873   6.670  11.682 -0.5474 -1.1756 -0.9835
  867MOL0     H17014   7.722   6.736  11.747 -0.9816 -0.8774  0.1498
  867MOL0     H17015   7.902   6.798  11.883  0.9571 -1.1166 -0.3770
  867MOL0     H17016   7.921   6.625  11.938  1.4501  0.5006  2.6654
  867MOL0     H17017   7.642   6.747  11.963  0.1247 -0.3996  1.0335
  867MOL0     H17018   7.706   6.612  12.048  1.2554 -0.3014  1.8472
  867MOL0     H17019   7.692   6.794  12.198  0.5642 -3.7852  1.9848
  867MOL0     H17020   7.799   6.893  12.110 -0.3527 -0.1765  2.1352
  867MOL0     H17021   7.986   6.738  12.140 -1.6462 -0.9460 -1.2867
  867MOL0     H17022   7.923   6.790  12.298 -2.0243 -0.4672  0.7338
  867MOL0     H17023   7.987   6.553  12.317 -0.7933 -1.9232  1.7465
  867MOL0     H17024   7.883   6.516  12.183 -2.1598  2.1522 -0.3645
  867MOL0     H17025   7.772   6.471  12.384 -3.2506  0.4144 -1.7757
  867MOL0     H17026   7.690   6.607  12.305  1.0002 -1.1733 -4.0840
  867MOL0     H17027   7.611   6.466  11.399  0.1084  0.9463 -1.1782
  867MOL0     H17028   7.744   6.407  11.200 -1.2627  2.9500 -0.7337
  867MOL0     H17029   8.222   6.374  11.108  1.4928  0.3613 -0.3667
  867MOL0     H17030   8.389   6.334  10.917  0.5684 -1.8265 -3.4119
  867MOL0     H17031   7.895   6.065  10.293  0.2551  1.3644  0.0051
  867MOL0     H17032   7.922   5.834  10.199 -2.7055 -2.0903 -1.5412
  867MOL0     H17033   8.040   5.577   9.639  1.4333 -1.1240  0.3410
  867MOL0     H17034   8.007   5.315   9.612 -0.7776 -1.2016  0.3424
  867MOL0     H17035   8.039   5.080   9.667 -0.2049 -1.8496 -0.5025
  867MOL0     H17036   7.930   4.953   9.729 -2.2709 -1.2080 -1.3154
  867MOL0     H17037   7.838   4.988   9.516  3.3814  0.4896 -0.4608
  867MOL0     H17038   7.869   5.160   9.519 -0.4592 -0.4984 -1.0789
  867MOL0     H17039   7.635   5.131   9.547  3.8608  0.4661 -2.8976
  867MOL0     H17040   7.685   5.187   9.699 -0.1634 -1.1817  1.5560
  867MOL0     H17041   7.524   4.995   9.693  0.7254 -0.6876  1.4505
  867MOL0     H17042   7.665   4.966   9.812 -0.1065  3.2935  1.3818
  867MOL0     H17043   7.667   4.629   9.568 -1.6290 -0.9702  0.9524
  867MOL0     H17044   7.861   5.287   9.989  0.2289  2.8734  2.6542
  867MOL0     H17045   7.888   5.543  10.028  0.7536 -2.4289  1.2162
  868MOL0     O17046   0.300   0.441   1.934 -0.5790 -0.8307 -0.0036
  868MOL0     C17047   0.417   0.437   1.958 -0.1755 -0.4722  0.7177
  868MOL0     O17048   0.474   0.386   2.072  0.0109  0.4250 -0.2350
  868MOL0     C17049   0.397   0.309   2.159  0.0716 -0.0296 -0.3316
  868MOL0     C17050   0.317   0.204   2.109  0.7520  0.5020  0.3733
  868MOL0     C17051   0.231   0.130   2.194  0.4465 -0.1323  0.0558
  868MOL0     C17052   0.228   0.172   2.334 -0.4319  0.5967  1.1469
  868MOL0     O17053   0.139   0.115   2.422 -0.5374  0.9059 -0.6359
  868MOL0     C17054   0.017   0.187   2.449  1.0018 -0.4739  0.2781
  868MOL0     C17055  -0.103   0.099   2.491 -0.1976  0.7302  0.3584
  868MOL0     C17056  -0.052  -0.012   2.583 -1.1950  0.6017 -0.1582
  868MOL0     C17057  -0.160  -0.081   2.662  0.5185  0.2500 -0.2118
  868MOL0     C17058  -0.229   0.001   2.769 -0.2371 -0.2874 -0.2686
  868MOL0     C17059  -0.331  -0.079   2.846 -0.2344 -0.0349 -0.7509
  868MOL0     C17060  -0.444  -0.001   2.922 -0.2231  0.0941  0.2125
  868MOL0     C17061  -0.540   0.066   2.830 -0.3950  1.2718 -0.9647
  868MOL0     N17062  -0.653   0.109   2.909 -0.5678 -0.2834 -0.2712
  868MOL0     C17063  -0.649   0.221   2.982  0.4600 -0.3138  0.0357
  868MOL0     C17064  -0.781   0.256   2.992  0.8438 -0.7277 -0.2687
  868MOL0     C17065  -0.851   0.375   3.051 -0.1508 -0.7689 -0.0145
  868MOL0     C17066  -0.915   0.460   2.937 -0.3348  0.6730 -0.9476
  868MOL0     C17067  -0.996   0.585   2.990  0.1205  0.0499  0.4056
  868MOL0     C17068  -1.069   0.640   2.869  0.1775 -0.4001  0.6367
  868MOL0     O17069  -1.076   0.781   2.886  0.2058  0.7716 -0.5018
  868MOL0     C17070  -1.180   0.851   2.826 -0.9206  0.4154  0.0126
  868MOL0     C17071  -1.269   0.799   2.738  0.5044  0.5210  0.2294
  868MOL0     C17072  -1.366   0.874   2.666  0.4617 -0.0013 -0.1433
  868MOL0     C17073  -1.443   0.806   2.553 -0.1134 -0.3358 -0.7048
  868MOL0     C17074  -1.377   1.013   2.700 -0.2561  0.0219 -0.3097
  868MOL0     C17075  -1.484   1.103   2.656  0.0662 -0.7426 -1.2355
  868MOL0     O17076  -1.479   1.236   2.682  0.3776  0.4682  0.7167
  868MOL0     C17077  -1.560   1.333   2.629  0.5806  0.6871 -0.3688
  868MOL0     C17078  -1.583   1.339   2.491 -0.7033  1.0582  0.1543
  868MOL0     C17079  -1.658   1.429   2.426 -0.0700 -0.5360  0.3428
  868MOL0     C17080  -1.704   1.534   2.510  0.4853 -0.7390  0.3931
  868MOL0     O17081  -1.779   1.630   2.453 -0.1021 -0.5127 -0.4080
  868MOL0     C17082  -1.730   1.685   2.329 -0.3573  0.6441  0.6513
  868MOL0     C17083  -1.773   1.828   2.307 -0.0117 -0.6161 -0.5502
  868MOL0     C17084  -1.812   1.847   2.155 -0.5100 -0.2469 -0.4439
  868MOL0     C17085  -1.931   1.771   2.103 -0.4681  0.3512 -0.1005
  868MOL0     C17086  -1.997   1.840   1.980 -0.7312 -0.0397 -0.7923
  868MOL0     C17087  -2.140   1.788   1.963  0.5523  0.4968  1.1249
  868MOL0     C17088  -2.150   1.641   1.929 -1.0613  0.0724 -0.4015
  868MOL0     C17089  -2.296   1.583   1.919  0.5482 -1.3145 -0.3982
  868MOL0    Cl17090  -2.376   1.601   2.068  0.0247 -0.1501 -0.3897
  868MOL0     C17091  -1.693   1.524   2.648  0.6451 -0.3726 -0.6497
  868MOL0     C17092  -1.621   1.423   2.710  0.9670  0.6869 -0.3745
  868MOL0     O17093  -1.580   1.048   2.605 -1.3322 -0.6702  0.0965
  868MOL0     C17094  -1.285   1.064   2.796 -0.2391 -0.1739 -0.1454
  868MOL0     C17095  -1.180   0.986   2.845 -0.6927 -0.1697 -0.6610
  868MOL0     N17096  -0.859   0.143   2.966  0.0683  0.6540  0.1140
  868MOL0     N17097  -0.783   0.050   2.913 -0.0669  0.2226  0.8381
  868MOL0     C17098   0.315   0.266   2.379 -0.4434  0.3045  0.0457
  868MOL0     C17099   0.393   0.340   2.296  0.4480  0.1684 -0.4588
  868MOL0     C17100   0.508   0.515   1.875 -0.9293 -0.5950  0.2461
  868MOL0     C17101   0.649   0.499   1.887  0.1583 -0.6923  0.2060
  868MOL0     C17102   0.738   0.547   1.786  0.6796 -0.1573  0.0275
  868MOL0     C17103   0.690   0.622   1.681 -0.5392  0.2010  0.2842
  868MOL0     O17104   0.773   0.663   1.588  0.2812  0.6990  0.7954
  868MOL0     C17105   0.917   0.685   1.602 -0.2692 -0.0216  0.3783
  868MOL0     C17106   0.983   0.639   1.461 -0.1745  0.7265 -0.7560
  868MOL0     C17107   0.985   0.493   1.447 -0.1756  0.5138  0.9388
  868MOL0     C17108   1.023   0.454   1.299 -0.7795 -0.4000  0.5332
  868MOL0     C17109   1.054   0.309   1.301  0.0787 -0.2717 -0.5574
  868MOL0     C17110   1.079   0.193   1.281 -0.6376  0.0819  0.5581
  868MOL0     C17111   0.557   0.642   1.670 -1.4754 -0.4162  0.2592
  868MOL0     C17112   0.472   0.597   1.766 -0.8435 -0.1398 -0.8041
  868MOL0     H17113   0.322   0.179   2.004  2.0414  3.4700 -0.3658
  868MOL0     H17114   0.168   0.047   2.161 -3.1568  2.6958 -0.8422
  868MOL0     H17115   0.026   0.265   2.525  0.3527 -0.3199  0.2023
  868MOL0     H17116  -0.006   0.233   2.353 -1.6221  0.6734  1.3576
  868MOL0     H17117  -0.191   0.148   2.534 -2.1662 -2.6964  0.6427
  868MOL0     H17118  -0.138   0.054   2.397 -1.0147 -3.5822  2.4630
  868MOL0     H17119   0.007  -0.081   2.521 -0.9662  0.3403  0.3437
  868MOL0     H17120   0.012   0.027   2.663  2.6592 -1.5794 -1.8758
  868MOL0     H17121  -0.232  -0.136   2.600  0.8425 -1.5511  0.9185
  868MOL0     H17122  -0.118  -0.169   2.712 -1.3571 -1.2686 -1.1722
  868MOL0     H17123  -0.143   0.018   2.835  0.7514 -2.9907 -0.7488
  868MOL0     H17124  -0.274   0.093   2.730 -3.0618 -1.1733  0.6134
  868MOL0     H17125  -0.384  -0.132   2.766 -0.7171  0.4809 -0.7749
  868MOL0     H17126  -0.283  -0.157   2.907  0.5560 -0.4199 -1.8217
  868MOL0     H17127  -0.492  -0.071   2.991  0.6593 -0.9382 -0.1961
  868MOL0     H17128  -0.390   0.076   2.977  0.4237  0.4859 -0.9399
  868MOL0     H17129  -0.582  -0.001   2.755 -3.1012  0.2275  1.2771
  868MOL0     H17130  -0.490   0.154   2.788  0.9589  1.1008  0.2219
  868MOL0     H17131  -0.561   0.276   3.015  1.2069 -0.0085 -2.2865
  868MOL0     H17132  -0.930   0.348   3.122 -0.1153  2.7599  1.5916
  868MOL0     H17133  -0.789   0.436   3.118 -1.1901  3.8190 -2.8066
  868MOL0     H17134  -0.980   0.403   2.870  1.1317  0.8219 -2.5567
  868MOL0     H17135  -0.836   0.491   2.868 -0.9602  1.4819 -1.3248
  868MOL0     H17136  -0.927   0.655   3.039  1.8451 -0.9831 -0.4290
  868MOL0     H17137  -1.069   0.549   3.063  1.3437  1.9817  2.7067
  868MOL0     H17138  -1.168   0.594   2.863 -0.2949  0.7698 -2.0885
  868MOL0     H17139  -1.003   0.616   2.785  2.3730  1.1814  1.7976
  868MOL0     H17140  -1.276   0.694   2.713 -1.7733  0.5444  0.5915
  868MOL0     H17141  -1.494   0.875   2.485 -1.2214  2.1224  2.4243
  868MOL0     H17142  -1.372   0.743   2.499  0.2858 -1.3126  0.8971
  868MOL0     H17143  -1.513   0.731   2.590 -0.1674 -1.0530 -2.1827
  868MOL0     H17144  -1.546   1.254   2.435 -0.2510  0.6214  1.0966
  868MOL0     H17145  -1.670   1.422   2.319  1.9739 -0.7706  0.0957
  868MOL0     H17146  -1.621   1.690   2.337 -0.2120 -2.0035  1.2383
  868MOL0     H17147  -1.757   1.613   2.252 -0.8306 -0.3226  1.6930
  868MOL0     H17148  -1.865   1.848   2.362  0.0721  0.2183 -0.7137
  868MOL0     H17149  -1.701   1.900   2.347  1.1288 -0.9563 -1.8930
  868MOL0     H17150  -1.726   1.819   2.094 -2.1672 -0.3864 -2.8827
  868MOL0     H17151  -1.823   1.953   2.133  0.0938 -0.1337 -0.2048
  868MOL0     H17152  -1.913   1.666   2.079 -2.2178 -0.5469  2.1088
  868MOL0     H17153  -1.997   1.783   2.190 -0.6215  1.5089 -0.3561
  868MOL0     H17154  -1.932   1.819   1.894  2.0164 -1.8122  1.5166
  868MOL0     H17155  -2.007   1.949   1.991 -0.7888 -0.0004 -1.2237
  868MOL0     H17156  -2.196   1.813   2.053 -1.1074 -2.3939  0.9933
  868MOL0     H17157  -2.189   1.853   1.889  1.4851  0.6831  0.6487
  868MOL0     H17158  -2.110   1.580   2.011 -1.1286  0.1079 -0.3423
  868MOL0     H17159  -2.094   1.607   1.841 -0.4979  1.0978 -0.4507
  868MOL0     H17160  -2.283   1.475   1.909  0.9120 -1.3597  0.4715
  868MOL0     H17161  -2.353   1.626   1.836 -1.0949 -0.3153  1.1880
  868MOL0     H17162  -1.732   1.591   2.724  3.4932 -1.0791  1.6313
  868MOL0     H17163  -1.634   1.402   2.815 -2.2339 -1.3261 -1.0080
  868MOL0     H17164  -1.296   1.169   2.821 -2.1740 -0.6536  1.3086
  868MOL0     H17165  -1.107   1.035   2.909 -0.9332 -1.5505  0.7188
  868MOL0     H17166   0.311   0.282   2.486 -0.2607 -1.7466  0.3981
  868MOL0     H17167   0.448   0.425   2.334 -2.6515  2.4166 -0.5835
  868MOL0     H17168   0.685   0.442   1.971 -0.0214  0.4369  1.0668
  868MOL0     H17169   0.843   0.520   1.795  0.2733 -1.6111  0.7379
  868MOL0     H17170   0.940   0.792   1.610 -0.1625  0.3731 -3.1942
  868MOL0     H17171   0.956   0.631   1.689 -4.7335 -1.3769  1.7634
  868MOL0     H17172   1.082   0.685   1.446 -1.2804  2.6526 -2.6442
  868MOL0     H17173   0.918   0.671   1.379 -2.3376  0.3123  0.7131
  868MOL0     H17174   0.898   0.442   1.489  0.1435 -2.0215 -1.2238
  868MOL0     H17175   1.068   0.460   1.511  0.6400  1.8274  0.6066
  868MOL0     H17176   1.103   0.515   1.256 -2.3767  2.9197  1.9391
  868MOL0     H17177   0.928   0.465   1.245 -1.2358  1.8952  1.6581
  868MOL0     H17178   1.117   0.097   1.254 -2.0371 -0.6058  0.9439
  868MOL0     H17179   0.527   0.702   1.585  0.1143  2.3974  1.5674
  868MOL0     H17180   0.364   0.594   1.753 -0.7862 -1.4627 -1.0913
  869MOL0     O17181  10.881   3.064   5.410  0.4943 -1.0451 -0.9192
  869MOL0     C17182  10.801   3.157   5.439  0.3282 -0.4687 -0.2815
  869MOL0     O17183  10.696   3.147   5.536 -0.1386  0.7330  0.2032
  869MOL0     C17184  10.657   3.024   5.580 -1.6295  0.2964 -0.7407
  869MOL0     C17185  10.722   2.980   5.703  0.7529  0.4299  0.0291
  869MOL0     C17186  10.712   2.846   5.727 -0.1204  0.1396 -1.3816
  869MOL0     C17187  10.635   2.762   5.655  0.8403  0.6824  0.3664
  869MOL0     O17188  10.593   2.632   5.680 -0.4550 -0.3834 -0.6041
  869MOL0     C17189  10.636   2.572   5.808  0.2713 -0.5746  0.3564
  869MOL0     C17190  10.592   2.422   5.791 -0.4976 -1.2430  0.3580
  869MOL0     C17191  10.613   2.332   5.915  0.1175 -0.2826  0.3332
  869MOL0     C17192  10.767   2.302   5.925 -0.7599 -0.0867 -0.6129
  869MOL0     C17193  10.781   2.191   6.026  0.3643 -1.2150  0.4119
  869MOL0     C17194  10.922   2.197   6.085 -0.0800  0.2178  0.5609
  869MOL0     C17195  10.940   2.329   6.164 -0.4899 -0.1484 -0.4649
  869MOL0     C17196  11.028   2.308   6.301 -0.1586  0.0184 -0.1066
  869MOL0     N17197  11.169   2.321   6.281  0.3724  0.1213  0.2719
  869MOL0     C17198  11.241   2.436   6.258 -0.9786  0.6492 -0.6368
  869MOL0     C17199  11.378   2.405   6.256  0.6760 -0.3668  0.8596
  869MOL0     C17200  11.490   2.492   6.246 -0.5165 -0.1446 -0.5367
  869MOL0     C17201  11.466   2.631   6.177 -0.5676 -0.2881 -0.2053
  869MOL0     C17202  11.437   2.626   6.033 -0.2575 -0.1615  0.5690
  869MOL0     C17203  11.538   2.545   5.946 -0.2879  0.8504 -0.1332
  869MOL0     O17204  11.669   2.602   5.956  0.4891  0.3064 -0.8746
  869MOL0     C17205  11.756   2.567   5.866 -0.8487  0.3055 -0.1207
  869MOL0     C17206  11.803   2.436   5.871  0.5603  0.0814  0.6822
  869MOL0     C17207  11.898   2.390   5.779 -0.4333  0.1851 -0.3238
  869MOL0     C17208  11.953   2.252   5.793  0.5415 -0.7465  0.2675
  869MOL0     C17209  11.944   2.475   5.675 -0.1638 -0.1855 -0.7215
  869MOL0     C17210  12.027   2.423   5.566 -0.2913 -0.0604  0.3283
  869MOL0     O17211  12.150   2.487   5.547 -0.1058  0.2118 -0.2633
  869MOL0     C17212  12.249   2.428   5.474 -0.6129 -0.7021  0.2861
  869MOL0     C17213  12.340   2.333   5.537  0.2493  0.5162  0.5109
  869MOL0     C17214  12.449   2.291   5.466 -0.1952  0.2198 -0.1437
  869MOL0     C17215  12.485   2.349   5.345  1.3555 -0.2945  0.1809
  869MOL0     O17216  12.578   2.296   5.258 -0.0891  0.0430  0.0250
  869MOL0     C17217  12.633   2.167   5.294  0.9003  0.4072  0.1425
  869MOL0     C17218  12.762   2.145   5.204  0.3352 -0.4305 -0.2108
  869MOL0     C17219  12.742   2.137   5.055  0.3350 -0.0255 -0.7492
  869MOL0     C17220  12.687   2.001   5.009  1.2013 -0.0160 -0.0234
  869MOL0     C17221  12.662   2.005   4.848  0.0237  0.1072 -0.5072
  869MOL0     C17222  12.629   1.866   4.792  0.3359  0.4268 -0.4446
  869MOL0     C17223  12.614   1.882   4.635 -0.8907 -0.5134 -0.4040
  869MOL0     C17224  12.553   1.756   4.577  0.7874 -0.9708  0.1513
  869MOL0    Cl17225  12.665   1.625   4.576  0.1419  0.0658  0.2146
  869MOL0     C17226  12.394   2.445   5.288 -0.5640 -0.3062  0.3399
  869MOL0     C17227  12.273   2.479   5.350  0.9810  1.0288  0.3544
  869MOL0     O17228  11.989   2.329   5.500  0.4715  0.5485 -0.4657
  869MOL0     C17229  11.898   2.606   5.675  0.0820  0.8791 -0.0775
  869MOL0     C17230  11.805   2.653   5.764  0.4921  0.1466  0.4867
  869MOL0     N17231  11.377   2.267   6.281  0.8325 -0.3761 -0.2828
  869MOL0     N17232  11.253   2.219   6.296  0.2981 -0.2578  0.4768
  869MOL0     C17233  10.577   2.807   5.534  0.7678  0.4521  0.0478
  869MOL0     C17234  10.584   2.938   5.495 -0.3667  0.6223  0.1091
  869MOL0     C17235  10.799   3.285   5.362 -0.6171  0.5662 -0.0801
  869MOL0     C17236  10.882   3.305   5.259  0.4654  0.3366  0.9742
  869MOL0     C17237  10.884   3.429   5.192 -0.0662  0.7337  0.9350
  869MOL0     C17238  10.796   3.528   5.216 -0.4834  0.1337 -0.0693
  869MOL0     O17239  10.808   3.647   5.138  1.4147 -0.1172 -0.2229
  869MOL0     C17240  10.756   3.774   5.176 -0.9679 -0.3349  0.0520
  869MOL0     C17241  10.740   3.859   5.047 -0.6888 -0.2038 -0.2382
  869MOL0     C17242  10.873   3.892   4.983 -0.6657 -0.2708  0.3442
  869MOL0     C17243  10.865   3.967   4.847 -0.1639 -0.8717  0.6514
  869MOL0     C17244  10.790   4.090   4.869 -0.4104  0.0323  0.0501
  869MOL0     C17245  10.712   4.177   4.891 -0.5336  0.2105  0.1829
  869MOL0     C17246  10.702   3.510   5.317  0.7724  0.0334  0.9232
  869MOL0     C17247  10.702   3.387   5.388 -0.0849 -0.0943 -0.6316
  869MOL0     H17248  10.763   3.047   5.778 -2.3080  1.9339  0.5241
  869MOL0     H17249  10.752   2.815   5.823  0.6580  0.6455 -1.5303
  869MOL0     H17250  10.740   2.585   5.836  0.9391  0.8008 -2.4107
  869MOL0     H17251  10.578   2.620   5.887  1.4328  0.6273  0.5035
  869MOL0     H17252  10.488   2.424   5.758 -0.1545 -3.4349 -1.0020
  869MOL0     H17253  10.644   2.385   5.702 -0.3368 -2.4302  0.9245
  869MOL0     H17254  10.575   2.373   6.010 -2.2465  1.0427 -1.0764
  869MOL0     H17255  10.568   2.235   5.894  2.8256 -1.1644 -1.9236
  869MOL0     H17256  10.804   2.265   5.829 -0.2405 -0.9000 -0.1129
  869MOL0     H17257  10.826   2.391   5.950 -2.2963  0.3946  1.6082
  869MOL0     H17258  10.716   2.221   6.108 -1.1620  1.2179 -1.5425
  869MOL0     H17259  10.768   2.091   5.984  1.6237 -1.6812  1.0626
  869MOL0     H17260  10.940   2.110   6.149 -0.3155 -1.0188 -0.9842
  869MOL0     H17261  10.987   2.194   5.997 -1.9932  1.7621 -0.9949
  869MOL0     H17262  10.992   2.391   6.091 -0.1931  1.4486  1.0370
  869MOL0     H17263  10.842   2.375   6.184 -1.1192 -1.4838 -0.3452
  869MOL0     H17264  11.004   2.210   6.344 -1.0714 -0.8932 -2.5297
  869MOL0     H17265  10.995   2.379   6.377 -0.0718 -0.1188  0.0606
  869MOL0     H17266  11.206   2.537   6.236  3.1008  1.6814 -3.4825
  869MOL0     H17267  11.518   2.509   6.350  0.0881 -1.6743 -0.4190
  869MOL0     H17268  11.574   2.437   6.202 -0.9096 -4.0694  2.9577
  869MOL0     H17269  11.555   2.693   6.193 -0.3974 -0.2408 -1.2530
  869MOL0     H17270  11.385   2.680   6.231  0.8323  0.0862  1.6610
  869MOL0     H17271  11.420   2.726   5.993  3.0581 -0.5161 -2.1754
  869MOL0     H17272  11.343   2.572   6.018  1.4655 -2.6122 -2.7452
  869MOL0     H17273  11.528   2.550   5.837 -0.3376 -3.0835 -0.4500
  869MOL0     H17274  11.530   2.441   5.978 -4.3976  0.3935 -2.0227
  869MOL0     H17275  11.772   2.370   5.952  0.0462 -0.5924 -0.0563
  869MOL0     H17276  11.909   2.187   5.716  0.8592 -1.0444  0.3391
  869MOL0     H17277  12.056   2.248   5.756  0.1045  1.4102 -1.4471
  869MOL0     H17278  11.964   2.207   5.892  1.2678 -3.1430 -0.8409
  869MOL0     H17279  12.318   2.287   5.632 -0.7977  0.6668  0.3540
  869MOL0     H17280  12.516   2.217   5.509  2.5101  2.7867  0.4094
  869MOL0     H17281  12.670   2.173   5.397  4.0295  4.3727 -0.9800
  869MOL0     H17282  12.568   2.079   5.286  0.5610  0.3105  2.9111
  869MOL0     H17283  12.837   2.223   5.214 -0.1943 -0.0484  0.9158
  869MOL0     H17284  12.811   2.052   5.233  1.1410  0.7907  2.6548
  869MOL0     H17285  12.837   2.155   5.004  1.3613  0.9693  1.3746
  869MOL0     H17286  12.676   2.220   5.030  1.6523  0.5995 -2.3269
  869MOL0     H17287  12.752   1.914   5.023 -0.2405 -1.6749 -2.6083
  869MOL0     H17288  12.595   1.983   5.066 -0.0292 -3.0649 -2.6323
  869MOL0     H17289  12.756   2.040   4.804  0.6708 -0.1411  0.6324
  869MOL0     H17290  12.581   2.073   4.821 -0.9591 -0.1712  1.5202
  869MOL0     H17291  12.714   1.803   4.820  0.8725  1.3474  0.0320
  869MOL0     H17292  12.538   1.828   4.839  0.1071  0.7073 -0.6622
  869MOL0     H17293  12.717   1.896   4.599 -1.0296  0.3283 -0.4885
  869MOL0     H17294  12.545   1.960   4.602  0.2214  0.1527 -1.2378
  869MOL0     H17295  12.531   1.777   4.472  3.0008 -2.6361 -0.7068
  869MOL0     H17296  12.459   1.722   4.622  0.0261 -0.2853 -0.8598
  869MOL0     H17297  12.403   2.479   5.186  0.5360 -1.2371  0.1037
  869MOL0     H17298  12.221   2.559   5.297  1.0137 -0.0878 -1.4318
  869MOL0     H17299  11.929   2.657   5.584 -2.5282  1.1048 -0.9181
  869MOL0     H17300  11.772   2.756   5.764 -0.6613 -0.1639  2.7794
  869MOL0     H17301  10.523   2.735   5.473  1.0877 -0.8035  1.1973
  869MOL0     H17302  10.554   2.969   5.395 -3.4124 -0.5416  0.5697
  869MOL0     H17303  10.939   3.222   5.219  1.2292  1.9821 -1.6967
  869MOL0     H17304  10.943   3.443   5.103 -2.0170  0.0631 -0.5415
  869MOL0     H17305  10.659   3.771   5.227 -1.9854 -0.7441 -1.8462
  869MOL0     H17306  10.835   3.820   5.237 -0.8915 -0.6182  0.1701
  869MOL0     H17307  10.703   3.959   5.071  0.3729  0.2502 -0.3867
  869MOL0     H17308  10.672   3.808   4.979  1.5229 -3.2889 -0.3687
  869MOL0     H17309  10.936   3.805   4.962  2.4549  2.0344 -0.5703
  869MOL0     H17310  10.927   3.961   5.047 -0.7831  0.0235  0.1274
  869MOL0     H17311  10.826   3.912   4.761  0.9770 -0.7987  0.0666
  869MOL0     H17312  10.967   3.991   4.815  0.0328 -0.4623  1.5290
  869MOL0     H17313  10.638   4.255   4.894 -1.0232 -0.0093 -3.0374
  869MOL0     H17314  10.627   3.587   5.331 -2.1234 -2.4284  0.1867
  869MOL0     H17315  10.635   3.376   5.474 -2.0801  2.9301 -1.6266
  870MOL0     O17316   5.732   2.078   9.251 -0.5210 -0.9061  0.1252
  870MOL0     C17317   5.803   2.170   9.209 -0.0540  0.4072 -0.4388
  870MOL0     O17318   5.788   2.238   9.099 -0.9944 -0.3453  0.0255
  870MOL0     C17319   5.710   2.200   8.983 -0.1189  0.8252  0.2492
  870MOL0     C17320   5.724   2.287   8.880  0.0296 -1.0164  1.0584
  870MOL0     C17321   5.631   2.278   8.775  0.5636 -0.0538 -0.6338
  870MOL0     C17322   5.532   2.177   8.773 -0.2019  0.2711  1.1239
  870MOL0     O17323   5.459   2.184   8.653 -0.2618  0.4243 -0.2151
  870MOL0     C17324   5.367   2.071   8.616  0.5385 -0.1059 -0.1685
  870MOL0     C17325   5.362   2.061   8.462 -0.2837 -1.6376  0.5709
  870MOL0     C17326   5.284   2.181   8.396  0.5579 -0.7209 -0.6707
  870MOL0     C17327   5.140   2.196   8.457 -0.0465 -0.1198 -0.7456
  870MOL0     C17328   5.059   2.296   8.368 -1.5103 -0.2168  1.0938
  870MOL0     C17329   4.948   2.349   8.444 -0.3937  0.1342  0.0686
  870MOL0     C17330   4.845   2.415   8.352 -0.4562  0.4302 -0.0801
  870MOL0     C17331   4.721   2.440   8.422 -0.5750 -0.4217 -0.3451
  870MOL0     N17332   4.612   2.486   8.336 -0.0536 -0.2781 -0.1799
  870MOL0     C17333   4.475   2.462   8.372  0.3015  0.7496 -1.2070
  870MOL0     C17334   4.399   2.556   8.320 -0.0351  0.3589  0.5237
  870MOL0     C17335   4.253   2.561   8.330  0.2389 -0.0028  0.1487
  870MOL0     C17336   4.207   2.592   8.468  0.4140  0.3439 -0.0716
  870MOL0     C17337   4.045   2.579   8.473 -0.1355  0.4131 -0.1701
  870MOL0     C17338   3.975   2.447   8.439  0.2461  0.9818 -0.4958
  870MOL0     O17339   4.008   2.342   8.535  0.2810  0.9570 -0.2232
  870MOL0     C17340   3.955   2.352   8.656 -0.3052  0.7623 -0.2663
  870MOL0     C17341   3.853   2.444   8.695 -0.5980 -0.1742  0.1938
  870MOL0     C17342   3.804   2.441   8.829 -0.0846  0.2873 -0.4019
  870MOL0     C17343   3.705   2.548   8.869 -0.0212  0.1828  0.5408
  870MOL0     C17344   3.859   2.348   8.929 -0.4134 -0.2594 -0.0571
  870MOL0     C17345   3.815   2.337   9.064 -0.3265  0.1091  0.0868
  870MOL0     O17346   3.793   2.203   9.096 -0.4346 -0.2949 -0.1462
  870MOL0     C17347   3.809   2.170   9.227  0.1168 -1.8190 -0.1347
  870MOL0     C17348   3.702   2.156   9.315 -0.7008 -0.6779 -0.0973
  870MOL0     C17349   3.728   2.136   9.449  0.1284  0.6441  0.2045
  870MOL0     C17350   3.855   2.110   9.502  1.0656 -0.0936 -0.4420
  870MOL0     O17351   3.869   2.104   9.636 -0.9417  0.1109 -0.3767
  870MOL0     C17352   3.780   2.018   9.710  0.2380 -0.6068 -0.3667
  870MOL0     C17353   3.796   2.038   9.865 -0.5652  0.0466  0.6357
  870MOL0     C17354   3.811   2.187   9.921 -0.0485 -0.6368 -0.4987
  870MOL0     C17355   3.688   2.272   9.881 -0.1569  0.1850  0.8652
  870MOL0     C17356   3.569   2.257   9.989 -0.4776  0.8832 -0.0811
  870MOL0     C17357   3.587   2.336  10.112 -0.8409  0.1301  0.3068
  870MOL0     C17358   3.608   2.494  10.091 -0.3784  0.0646  0.5956
  870MOL0     C17359   3.476   2.560  10.027  0.0795 -0.5951 -0.1071
  870MOL0    Cl17360   3.463   2.740  10.080  0.3928  0.1970 -0.1578
  870MOL0     C17361   3.963   2.130   9.420 -0.3246  0.0890 -0.3323
  870MOL0     C17362   3.941   2.161   9.280 -0.3707  0.8312 -0.6128
  870MOL0     O17363   3.828   2.428   9.144  0.0885 -0.6326 -0.0679
  870MOL0     C17364   3.963   2.264   8.885  0.6289  0.1162  0.4637
  870MOL0     C17365   4.005   2.270   8.756  0.5270 -0.2095  0.4963
  870MOL0     N17366   4.493   2.645   8.251  0.6277  0.6813 -1.5492
  870MOL0     N17367   4.612   2.606   8.276  0.4139  0.0405  1.1158
  870MOL0     C17368   5.526   2.083   8.874  0.9530 -0.7600  0.0544
  870MOL0     C17369   5.616   2.093   8.985  1.0261 -0.8156 -1.1637
  870MOL0     C17370   5.894   2.232   9.302 -0.2896  0.4183  0.3553
  870MOL0     C17371   5.960   2.359   9.280  0.0524 -0.7074  0.4933
  870MOL0     C17372   6.051   2.405   9.378 -0.6031  0.3558  0.8760
  870MOL0     C17373   6.090   2.323   9.487  0.0773  0.4005 -0.7515
  870MOL0     O17374   6.167   2.367   9.592  0.4604 -0.6572  0.0785
  870MOL0     C17375   6.227   2.497   9.581  0.2077 -0.0994  0.5295
  870MOL0     C17376   6.321   2.522   9.707  1.2264  0.0209  0.1675
  870MOL0     C17377   6.381   2.663   9.718 -0.3666  0.8587 -0.3660
  870MOL0     C17378   6.453   2.686   9.851 -0.6858 -0.1877 -0.5016
  870MOL0     C17379   6.561   2.579   9.867 -0.5873 -0.0559 -0.5220
  870MOL0     C17380   6.661   2.517   9.885 -0.3587 -0.9945 -0.3984
  870MOL0     C17381   6.019   2.198   9.512 -0.5890 -0.3672 -0.1022
  870MOL0     C17382   5.924   2.156   9.421  0.5276  0.3929  0.2261
  870MOL0     H17383   5.806   2.358   8.884 -0.3415 -0.4747 -0.4852
  870MOL0     H17384   5.642   2.353   8.698  1.5152  1.3748  0.8075
  870MOL0     H17385   5.398   1.972   8.653  1.6643  0.0978 -0.5362
  870MOL0     H17386   5.270   2.093   8.662  2.4458  0.5337  3.9650
  870MOL0     H17387   5.460   2.057   8.413 -0.8813  1.7025 -1.1958
  870MOL0     H17388   5.310   1.971   8.428  3.4169 -3.2106 -1.5250
  870MOL0     H17389   5.336   2.276   8.411  1.5187 -0.9073 -2.5316
  870MOL0     H17390   5.281   2.176   8.287  2.0831  0.2615 -0.7904
  870MOL0     H17391   5.087   2.101   8.473  0.3968 -0.1686  0.5233
  870MOL0     H17392   5.139   2.236   8.558 -1.3323  0.9125 -1.1350
  870MOL0     H17393   5.125   2.376   8.337  0.1323 -0.7651  2.9884
  870MOL0     H17394   5.023   2.246   8.277  0.1372  3.3554 -1.7544
  870MOL0     H17395   4.899   2.266   8.496  2.1166  0.5401  3.4045
  870MOL0     H17396   4.990   2.397   8.533  0.1739 -4.1628  2.3995
  870MOL0     H17397   4.879   2.494   8.285 -2.3839  0.5813 -0.9529
  870MOL0     H17398   4.816   2.334   8.284  0.1718  0.2263 -0.1133
  870MOL0     H17399   4.736   2.508   8.506 -2.0655 -2.0542  1.3360
  870MOL0     H17400   4.683   2.348   8.468  1.5816 -1.6549 -0.8915
  870MOL0     H17401   4.439   2.383   8.438 -2.0468 -0.0603 -3.2667
  870MOL0     H17402   4.213   2.632   8.258  2.2985  0.4394 -0.6137
  870MOL0     H17403   4.220   2.464   8.292 -2.3410  1.4521 -1.6510
  870MOL0     H17404   4.257   2.685   8.495 -0.8227  1.3634 -1.1964
  870MOL0     H17405   4.243   2.519   8.542  3.4480  0.8209 -0.9519
  870MOL0     H17406   3.997   2.652   8.407 -2.1668  0.5971  1.4043
  870MOL0     H17407   3.996   2.616   8.564 -1.2251  0.8552 -0.9171
  870MOL0     H17408   4.019   2.408   8.346  0.6983 -0.5770  0.3296
  870MOL0     H17409   3.867   2.459   8.431  0.1017  0.3529  0.3527
  870MOL0     H17410   3.812   2.512   8.621 -0.0064  1.0134  0.9236
  870MOL0     H17411   3.631   2.508   8.939  0.4095 -1.5789  0.0318
  870MOL0     H17412   3.756   2.629   8.923 -0.0272  0.0984  0.6719
  870MOL0     H17413   3.655   2.592   8.782  0.0134 -0.7123  0.0672
  870MOL0     H17414   3.595   2.164   9.297 -0.5184 -0.7826 -1.2861
  870MOL0     H17415   3.643   2.144   9.515 -1.1541 -1.3408 -1.0945
  870MOL0     H17416   3.674   2.035   9.689 -0.0797  1.5465  2.3348
  870MOL0     H17417   3.809   1.915   9.686  1.7585  0.2815 -2.7458
  870MOL0     H17418   3.718   1.982   9.916  0.1402 -2.3117 -0.7198
  870MOL0     H17419   3.893   1.996   9.890 -0.2458  1.1250  1.2622
  870MOL0     H17420   3.909   2.224   9.888  0.8656 -1.6235  0.9874
  870MOL0     H17421   3.815   2.193  10.030 -0.9733  1.8063 -0.5493
  870MOL0     H17422   3.724   2.373   9.862 -1.4075  0.2681 -1.4625
  870MOL0     H17423   3.659   2.247   9.778  1.6133 -0.4033  0.4848
  870MOL0     H17424   3.567   2.153  10.022 -2.6404  0.5660 -1.0447
  870MOL0     H17425   3.477   2.285   9.937  1.1037 -0.0816 -3.7330
  870MOL0     H17426   3.501   2.320  10.177 -0.0546  1.9268  1.9117
  870MOL0     H17427   3.677   2.304  10.167 -0.4009  1.6921  0.5536
  870MOL0     H17428   3.698   2.511  10.032 -1.1433  1.7207 -0.1732
  870MOL0     H17429   3.629   2.535  10.190 -1.5000 -2.0433  1.7958
  870MOL0     H17430   3.391   2.502  10.063  0.5088 -0.7067  0.7578
  870MOL0     H17431   3.470   2.552   9.918  0.3536 -0.3391 -0.1447
  870MOL0     H17432   4.058   2.145   9.471  0.2856  0.7035 -1.5896
  870MOL0     H17433   4.029   2.176   9.219  1.2598  4.0552  2.1915
  870MOL0     H17434   4.008   2.195   8.956  1.4806  0.1464 -0.0347
  870MOL0     H17435   4.090   2.209   8.727  0.7318  0.6304 -0.7275
  870MOL0     H17436   5.460   1.997   8.882 -0.6590  0.5999  3.4108
  870MOL0     H17437   5.597   2.029   9.071  0.3292 -0.9333 -1.3962
  870MOL0     H17438   5.936   2.405   9.185 -5.0820  0.7223  2.1435
  870MOL0     H17439   6.107   2.497   9.365  2.7189 -1.2724  2.4349
  870MOL0     H17440   6.287   2.504   9.490  1.2756  1.8523  1.3244
  870MOL0     H17441   6.146   2.570   9.578  0.8447  0.7190  1.9769
  870MOL0     H17442   6.403   2.450   9.697  0.7745 -0.2769 -1.6103
  870MOL0     H17443   6.279   2.508   9.807  4.2593 -1.2563  1.3845
  870MOL0     H17444   6.296   2.729   9.703 -1.9965 -1.0696 -0.0567
  870MOL0     H17445   6.453   2.674   9.636  1.1497 -3.0318  0.1844
  870MOL0     H17446   6.385   2.686   9.937 -1.6057 -1.2476 -1.1933
  870MOL0     H17447   6.497   2.785   9.838  2.1100 -1.2937 -0.0460
  870MOL0     H17448   6.761   2.479   9.894  0.4849  0.7923 -1.5323
  870MOL0     H17449   6.048   2.142   9.601 -1.0956 -0.3258  0.0922
  870MOL0     H17450   5.863   2.068   9.440  1.1949 -0.5701 -1.8100
  871MOL0     O17451   6.002   4.458   9.391  0.1672 -0.0039  0.2423
  871MOL0     C17452   5.884   4.446   9.355  0.5469 -0.4169  0.3789
  871MOL0     O17453   5.838   4.458   9.231 -0.8155 -0.3798 -0.5818
  871MOL0     C17454   5.923   4.470   9.114  0.1690  0.4247  0.4341
  871MOL0     C17455   6.043   4.397   9.100 -0.0129 -0.2733 -1.4874
  871MOL0     C17456   6.118   4.407   8.979  0.2221 -0.0292  0.0412
  871MOL0     C17457   6.073   4.492   8.886  0.6870 -0.8311 -0.3293
  871MOL0     O17458   6.148   4.504   8.775 -0.3088 -0.5616 -0.0075
  871MOL0     C17459   6.112   4.578   8.651  0.5106 -0.9258 -0.0724
  871MOL0     C17460   6.238   4.619   8.582 -0.4897 -0.1289 -0.2239
  871MOL0     C17461   6.325   4.718   8.659  0.4446  0.7227  0.5224
  871MOL0     C17462   6.448   4.771   8.580 -0.0343 -0.0880 -0.0237
  871MOL0     C17463   6.571   4.678   8.550  0.7405  0.7788 -0.5864
  871MOL0     C17464   6.656   4.733   8.426  0.1010 -0.3818  0.1845
  871MOL0     C17465   6.795   4.664   8.426  0.1396  0.2355 -0.4617
  871MOL0     C17466   6.873   4.709   8.555 -0.1805  1.0386  0.9150
  871MOL0     N17467   7.016   4.719   8.539  0.1438  0.3010  0.6044
  871MOL0     C17468   7.084   4.630   8.468  0.4084 -0.3387  0.8425
  871MOL0     C17469   7.207   4.683   8.458 -0.1141  0.5557  0.5402
  871MOL0     C17470   7.318   4.621   8.386 -0.9332 -0.5244 -0.9107
  871MOL0     C17471   7.374   4.725   8.296  0.0525 -0.4578 -0.4158
  871MOL0     C17472   7.484   4.811   8.359 -0.2213 -0.0186 -0.0547
  871MOL0     C17473   7.522   4.941   8.285 -0.3304  0.1834  0.0166
  871MOL0     O17474   7.624   4.990   8.371  0.1156 -0.3886  0.0065
  871MOL0     C17475   7.692   5.099   8.329  1.4806 -0.7224 -0.2021
  871MOL0     C17476   7.811   5.143   8.391 -0.5058  0.7200  0.1474
  871MOL0     C17477   7.874   5.262   8.360 -0.1566  0.4606  0.1466
  871MOL0     C17478   8.009   5.278   8.427  1.0280  0.5685  0.8576
  871MOL0     C17479   7.815   5.349   8.263 -0.2360  0.5324  0.3111
  871MOL0     C17480   7.885   5.471   8.218  0.0882  0.3211  0.4711
  871MOL0     O17481   7.896   5.561   8.316  0.6139 -0.4897  0.2788
  871MOL0     C17482   7.980   5.673   8.291 -0.2262  0.9871  0.7097
  871MOL0     C17483   7.961   5.778   8.373 -0.2030 -0.4786  0.5773
  871MOL0     C17484   8.051   5.887   8.382  0.0818  0.3880 -0.0917
  871MOL0     C17485   8.158   5.893   8.297  0.5299  0.5058  0.4496
  871MOL0     O17486   8.225   6.008   8.312  0.0770 -0.1424 -0.4100
  871MOL0     C17487   8.356   6.019   8.244  0.3251 -0.0184  0.1331
  871MOL0     C17488   8.408   6.168   8.251  0.2797 -0.0115 -0.1389
  871MOL0     C17489   8.325   6.262   8.157 -0.2186 -0.6622  0.1708
  871MOL0     C17490   8.373   6.403   8.189  0.0930  0.4067  0.8145
  871MOL0     C17491   8.273   6.502   8.127 -0.4163 -0.1494  0.5771
  871MOL0     C17492   8.275   6.648   8.181  0.2686 -0.0771 -0.1629
  871MOL0     C17493   8.419   6.705   8.191  0.7534  0.5123 -0.2328
  871MOL0     C17494   8.400   6.845   8.231  0.7631  0.2738  0.0735
  871MOL0    Cl17495   8.544   6.935   8.197  0.4021  0.2266  0.6847
  871MOL0     C17496   8.183   5.787   8.208  0.7709  0.2373 -0.6530
  871MOL0     C17497   8.099   5.671   8.212 -1.0650 -0.1686  0.3269
  871MOL0     O17498   7.908   5.483   8.101 -0.0977 -0.2720 -0.1141
  871MOL0     C17499   7.693   5.313   8.203  0.3228 -0.3849 -0.1620
  871MOL0     C17500   7.635   5.189   8.237  0.4192 -0.0549 -0.6588
  871MOL0     N17501   7.207   4.808   8.517 -1.2052 -0.3499 -0.0444
  871MOL0     N17502   7.096   4.823   8.564  0.8978 -0.1168 -0.7898
  871MOL0     C17503   5.949   4.565   8.896  0.0838  0.1207  0.1932
  871MOL0     C17504   5.877   4.553   9.016 -0.0063 -0.3492 -0.2028
  871MOL0     C17505   5.789   4.416   9.457  0.4690 -0.0441 -0.5138
  871MOL0     C17506   5.662   4.358   9.437  1.2005 -0.4607 -0.3043
  871MOL0     C17507   5.561   4.338   9.542  0.0539  0.0083  0.3394
  871MOL0     C17508   5.587   4.376   9.675 -0.5348  1.3972 -0.5255
  871MOL0     O17509   5.506   4.367   9.785 -0.3048  0.8876 -0.3797
  871MOL0     C17510   5.363   4.332   9.783 -0.2858  0.6963 -0.0603
  871MOL0     C17511   5.343   4.176   9.765 -0.0344  0.2519  0.9153
  871MOL0     C17512   5.194   4.149   9.752 -0.0146 -0.3883 -0.6116
  871MOL0     C17513   5.174   3.992   9.752  0.0512 -0.3657  0.5525
  871MOL0     C17514   5.268   3.920   9.670 -0.7601  1.1483  0.1442
  871MOL0     C17515   5.357   3.864   9.600  0.2385  0.0633 -0.2283
  871MOL0     C17516   5.718   4.420   9.691 -0.0640 -0.3684 -0.7944
  871MOL0     C17517   5.819   4.440   9.591  0.1748 -0.0058 -0.2501
  871MOL0     H17518   6.080   4.331   9.178 -0.8443  2.3556  1.3597
  871MOL0     H17519   6.212   4.359   8.953 -0.1187  0.9105 -3.2776
  871MOL0     H17520   6.046   4.527   8.580 -0.6659 -1.7503  1.5600
  871MOL0     H17521   6.077   4.678   8.680  2.4025 -0.6258  1.3359
  871MOL0     H17522   6.308   4.538   8.557 -0.3959 -0.2564  0.4220
  871MOL0     H17523   6.201   4.661   8.488  1.4063  3.8646  0.6263
  871MOL0     H17524   6.254   4.798   8.680 -0.4253 -0.3324  1.8484
  871MOL0     H17525   6.358   4.680   8.756 -2.9637 -3.1411  0.4830
  871MOL0     H17526   6.399   4.814   8.492  0.0098 -2.9586 -1.5812
  871MOL0     H17527   6.488   4.858   8.632 -2.6458  2.1768 -1.5541
  871MOL0     H17528   6.632   4.672   8.641 -0.4927  3.3612  0.5153
  871MOL0     H17529   6.541   4.579   8.515  0.6704  1.2177 -1.7973
  871MOL0     H17530   6.601   4.708   8.335  4.6946 -2.1334 -2.4496
  871MOL0     H17531   6.678   4.840   8.422  1.8283 -0.7354 -0.9975
  871MOL0     H17532   6.796   4.555   8.422 -0.5729  0.1659  0.8802
  871MOL0     H17533   6.855   4.697   8.341 -0.2799 -1.2015 -1.3477
  871MOL0     H17534   6.857   4.649   8.646 -0.1568  0.7740  0.7469
  871MOL0     H17535   6.852   4.810   8.590 -0.7915  0.0975  3.5012
  871MOL0     H17536   7.047   4.537   8.426 -0.1446  1.2184 -2.4028
  871MOL0     H17537   7.392   4.583   8.458  0.5743  0.0034 -2.1182
  871MOL0     H17538   7.287   4.539   8.321  0.4933  2.5631 -6.0689
  871MOL0     H17539   7.288   4.788   8.270  1.3096  1.1466 -0.8498
  871MOL0     H17540   7.402   4.671   8.206  0.1983 -0.9768 -0.0670
  871MOL0     H17541   7.576   4.752   8.371 -0.1320  0.0349 -0.4400
  871MOL0     H17542   7.460   4.843   8.460  0.8004  0.7935 -0.0516
  871MOL0     H17543   7.441   5.015   8.288  1.5063  2.3895 -1.6318
  871MOL0     H17544   7.549   4.921   8.181 -0.6810 -0.8787  0.1186
  871MOL0     H17545   7.857   5.077   8.464  0.1023  4.5853  3.5949
  871MOL0     H17546   7.998   5.321   8.526 -1.0050  0.3871  0.7648
  871MOL0     H17547   8.057   5.180   8.430  1.6018  0.6115 -2.5616
  871MOL0     H17548   8.065   5.340   8.356  2.0057 -1.5818 -0.3412
  871MOL0     H17549   7.875   5.765   8.438  0.9912 -0.7701  2.1380
  871MOL0     H17550   8.029   5.958   8.461  0.9237  2.0340 -1.2745
  871MOL0     H17551   8.430   5.963   8.302  2.3581  2.3786  0.0898
  871MOL0     H17552   8.353   5.995   8.137 -1.2687  0.9518 -0.0724
  871MOL0     H17553   8.404   6.210   8.352  3.9479  0.5614 -0.0824
  871MOL0     H17554   8.515   6.177   8.228  0.5356 -0.6930  0.7089
  871MOL0     H17555   8.219   6.245   8.179 -1.3558 -0.2390 -4.0143
  871MOL0     H17556   8.343   6.238   8.051  0.0769  0.6131 -0.0939
  871MOL0     H17557   8.376   6.423   8.297 -0.9308 -1.0073  1.1360
  871MOL0     H17558   8.471   6.417   8.142 -0.1730  0.8586  0.3790
  871MOL0     H17559   8.169   6.468   8.135 -1.3920  2.4384  0.1932
  871MOL0     H17560   8.298   6.507   8.021 -0.3207  1.7477  0.6395
  871MOL0     H17561   8.214   6.710   8.114  0.8928  1.1683  0.3714
  871MOL0     H17562   8.232   6.652   8.282  0.6192 -1.0967  0.0302
  871MOL0     H17563   8.473   6.683   8.099  1.9909  0.4762  0.4731
  871MOL0     H17564   8.477   6.643   8.260  0.3490 -2.1769 -2.1804
  871MOL0     H17565   8.382   6.837   8.338 -3.3546 -4.6099 -0.5975
  871MOL0     H17566   8.311   6.900   8.197  0.9911 -0.4120 -1.7791
  871MOL0     H17567   8.268   5.779   8.141 -0.3016  0.6413 -2.0964
  871MOL0     H17568   8.126   5.580   8.161 -0.8564 -3.3470  5.4408
  871MOL0     H17569   7.646   5.375   8.128 -0.0576 -0.0936  0.3143
  871MOL0     H17570   7.541   5.172   8.186  0.0175 -2.9737  0.8144
  871MOL0     H17571   5.917   4.629   8.814 -0.6124 -0.7525 -0.2295
  871MOL0     H17572   5.784   4.603   9.040 -0.3219 -0.8684 -0.3075
  871MOL0     H17573   5.634   4.337   9.334  1.4070  4.1316 -1.5349
  871MOL0     H17574   5.469   4.283   9.528 -0.7949  0.6155  2.9371
  871MOL0     H17575   5.297   4.377   9.858 -1.0348  0.5728 -0.6378
  871MOL0     H17576   5.331   4.389   9.696  2.1489  5.3929  1.7569
  871MOL0     H17577   5.390   4.116   9.843 -2.2192 -3.3046 -0.2321
  871MOL0     H17578   5.379   4.134   9.671 -1.3123  0.4075  0.3347
  871MOL0     H17579   5.162   4.209   9.667 -3.0893  0.7959  1.2286
  871MOL0     H17580   5.147   4.190   9.842  0.6540  0.4412 -0.6277
  871MOL0     H17581   5.072   3.961   9.725 -1.1162  3.8269 -0.6478
  871MOL0     H17582   5.196   3.950   9.851  2.3913 -2.9596 -0.9209
  871MOL0     H17583   5.440   3.810   9.559  0.1307 -1.2364  1.1652
  871MOL0     H17584   5.751   4.419   9.794  0.2991 -1.1781 -0.9060
  871MOL0     H17585   5.916   4.451   9.639  0.1048 -3.4938  1.0296
  872MOL0     O17586   7.463  10.757   1.534  0.0850  0.3901 -0.3383
  872MOL0     C17587   7.465  10.634   1.550 -0.0066 -0.2023 -0.7867
  872MOL0     O17588   7.490  10.538   1.450 -0.1828 -0.0625 -0.0092
  872MOL0     C17589   7.512  10.597   1.332  0.2407 -0.0530  0.5807
  872MOL0     C17590   7.411  10.662   1.257 -0.5738 -0.0425  0.1633
  872MOL0     C17591   7.435  10.704   1.117  0.4553 -0.2776 -0.3386
  872MOL0     C17592   7.559  10.693   1.055  0.2695  0.1523 -1.2228
  872MOL0     O17593   7.590  10.714   0.919  0.0380  0.5099 -0.7107
  872MOL0     C17594   7.697  10.808   0.897  0.6501  0.5927  0.7509
  872MOL0     C17595   7.684  10.949   0.960  0.6556 -0.8144  0.6942
  872MOL0     C17596   7.791  11.047   0.927  0.4703 -0.3070 -1.1109
  872MOL0     C17597   7.901  11.043   1.022 -0.6026  0.7595  0.0178
  872MOL0     C17598   8.006  11.153   1.000 -0.6032 -0.2413 -1.4710
  872MOL0     C17599   8.090  11.129   0.878  0.7244 -0.9431  0.4947
  872MOL0     C17600   8.168  11.258   0.837  0.8272  0.2050 -0.8166
  872MOL0     C17601   8.217  11.241   0.704 -0.3536  0.4912  0.7211
  872MOL0     N17602   8.287  11.112   0.676  0.3720 -0.2608 -0.0016
  872MOL0     C17603   8.411  11.078   0.719 -0.6675  0.6914  0.4072
  872MOL0     C17604   8.441  10.959   0.663 -0.4262 -0.1154 -0.0549
  872MOL0     C17605   8.573  10.892   0.680  0.2503  0.2663  0.6114
  872MOL0     C17606   8.688  10.983   0.616 -0.7282  0.2392  0.1099
  872MOL0     C17607   8.829  10.944   0.663 -0.1642  0.7183  0.4194
  872MOL0     C17608   8.930  11.023   0.581  0.6764 -0.1825  0.0577
  872MOL0     O17609   9.052  11.026   0.645 -0.1153  0.1540  0.2877
  872MOL0     C17610   9.170  10.988   0.584  0.7281 -0.3037 -0.9557
  872MOL0     C17611   9.285  10.949   0.659  0.4902  0.1352 -0.0320
  872MOL0     C17612   9.397  10.881   0.603  0.6078 -0.3536 -0.4614
  872MOL0     C17613   9.506  10.834   0.701 -0.7776  0.2774  0.5256
  872MOL0     C17614   9.404  10.871   0.455 -0.6089  0.5908  0.4913
  872MOL0     C17615   9.508  10.801   0.389  0.2656 -0.2421 -0.1339
  872MOL0     O17616   9.539  10.839   0.270  0.4770 -0.3414 -0.6348
  872MOL0     C17617   9.640  10.780   0.189 -0.6323  0.5710 -0.0398
  872MOL0     C17618   9.612  10.772   0.053 -1.2628  0.3116  0.4028
  872MOL0     C17619   9.709  10.720  -0.036 -0.1568 -0.0610  0.1407
  872MOL0     C17620   9.840  10.679   0.006 -0.7426  0.2144  0.0590
  872MOL0     O17621   9.931  10.633  -0.084  0.2033  0.9056  0.0874
  872MOL0     C17622  10.045  10.549  -0.034 -0.3865 -0.1160 -0.2732
  872MOL0     C17623  10.139  10.513  -0.154  0.3197 -0.8566  0.8780
  872MOL0     C17624  10.082  10.394  -0.234 -0.6417 -0.0116  0.1065
  872MOL0     C17625  10.169  10.334  -0.338  0.0362  0.1211  0.0759
  872MOL0     C17626  10.281  10.251  -0.262 -0.2013  0.1637  0.2499
  872MOL0     C17627  10.353  10.168  -0.369  0.3960  0.7639  0.3646
  872MOL0     C17628  10.477  10.108  -0.308 -0.2121  0.8424  0.1615
  872MOL0     C17629  10.592  10.144  -0.388 -0.3191  0.6420  0.6746
  872MOL0    Cl17630  10.734  10.111  -0.277 -0.3158 -0.2923 -0.3330
  872MOL0     C17631   9.870  10.697   0.138 -0.8894  0.2815 -1.4160
  872MOL0     C17632   9.771  10.727   0.233  0.2082  0.0090 -0.4354
  872MOL0     O17633   9.577  10.718   0.452  0.8602  0.1230 -0.0691
  872MOL0     C17634   9.302  10.943   0.390  0.7560 -0.2469 -0.1653
  872MOL0     C17635   9.186  10.986   0.448 -0.3593  0.2829 -0.1523
  872MOL0     N17636   8.340  10.926   0.580 -0.6561 -0.4346 -0.4610
  872MOL0     N17637   8.250  11.027   0.577  0.3240  0.5785 -0.6949
  872MOL0     C17638   7.667  10.657   1.142  1.0920  1.0500 -0.3532
  872MOL0     C17639   7.635  10.597   1.271 -0.7566  0.1264 -0.1808
  872MOL0     C17640   7.469  10.597   1.699  0.5603 -0.4749 -0.0099
  872MOL0     C17641   7.515  10.468   1.746 -0.2482 -0.7857  0.0336
  872MOL0     C17642   7.545  10.450   1.886  0.1648  0.4083  0.5992
  872MOL0     C17643   7.508  10.550   1.983  0.8511 -0.2384  0.6682
  872MOL0     O17644   7.539  10.529   2.117  0.3144  0.3154 -0.5949
  872MOL0     C17645   7.489  10.631   2.217  0.0444 -0.0174 -0.2903
  872MOL0     C17646   7.498  10.563   2.352 -0.0332  0.4022  0.9463
  872MOL0     C17647   7.393  10.455   2.373  0.2877  0.0316  0.2226
  872MOL0     C17648   7.434  10.351   2.477 -0.3976 -1.2176  0.2046
  872MOL0     C17649   7.414  10.407   2.613 -0.9124  0.6840 -0.3161
  872MOL0     C17650   7.382  10.453   2.722 -1.0994 -0.5299  0.0168
  872MOL0     C17651   7.461  10.676   1.933 -0.6961 -0.3605  0.0840
  872MOL0     C17652   7.436  10.694   1.795 -0.4839  0.2107  0.4972
  872MOL0     H17653   7.316  10.674   1.309  0.3385  1.2214  1.6189
  872MOL0     H17654   7.357  10.752   1.059  2.2566  2.6509 -0.5360
  872MOL0     H17655   7.791  10.768   0.936  0.6287  1.9900  2.3472
  872MOL0     H17656   7.718  10.823   0.790  2.0722  3.3186  1.3145
  872MOL0     H17657   7.586  10.982   0.926  0.5270 -2.9804 -1.3052
  872MOL0     H17658   7.680  10.929   1.068  2.0611 -1.6007  0.6278
  872MOL0     H17659   7.831  11.033   0.826 -2.4338 -1.3839 -2.2214
  872MOL0     H17660   7.758  11.150   0.945  0.7723 -0.4734  0.5338
  872MOL0     H17661   7.865  11.035   1.125 -2.7980 -1.1631 -0.8306
  872MOL0     H17662   7.951  10.948   0.998 -3.2053 -0.7974  0.4405
  872MOL0     H17663   7.958  11.251   1.003  0.1102  0.0999 -0.0813
  872MOL0     H17664   8.078  11.150   1.082 -0.6100 -0.0752 -1.4604
  872MOL0     H17665   8.170  11.055   0.881  2.3631  0.6341 -1.4154
  872MOL0     H17666   8.025  11.095   0.797  2.0136 -0.1334 -0.9229
  872MOL0     H17667   8.105  11.345   0.855  1.3593  0.5298 -0.5012
  872MOL0     H17668   8.258  11.266   0.899  0.7679 -2.3045 -0.2888
  872MOL0     H17669   8.280  11.327   0.677 -0.2410  0.4975  0.9994
  872MOL0     H17670   8.123  11.242   0.649  0.1209 -2.0542 -0.3000
  872MOL0     H17671   8.469  11.149   0.777  3.1893 -0.7118 -1.4370
  872MOL0     H17672   8.588  10.875   0.787 -0.0908  0.4302  0.6868
  872MOL0     H17673   8.566  10.791   0.639  2.7013 -0.8591  2.6540
  872MOL0     H17674   8.667  11.089   0.634 -0.7374 -0.0568  2.0670
  872MOL0     H17675   8.705  10.968   0.509  1.0567  0.3514  0.3512
  872MOL0     H17676   8.850  10.838   0.648  1.7988  1.0804  0.2320
  872MOL0     H17677   8.842  10.964   0.770  0.7100 -1.5907  0.8064
  872MOL0     H17678   8.903  11.128   0.568  2.6949  0.1737 -1.8020
  872MOL0     H17679   8.943  10.969   0.487  3.0544 -0.6533  0.5795
  872MOL0     H17680   9.272  10.968   0.765  3.8335  2.3099  0.1424
  872MOL0     H17681   9.512  10.724   0.697 -1.5010  0.2574 -2.5878
  872MOL0     H17682   9.604  10.869   0.668 -0.7364  0.3552  0.7316
  872MOL0     H17683   9.485  10.863   0.804  1.1292  1.6555  0.5671
  872MOL0     H17684   9.512  10.794   0.016 -2.1975 -1.9232  1.4082
  872MOL0     H17685   9.660  10.719  -0.133 -0.0633  2.5852 -0.0166
  872MOL0     H17686  10.101  10.609   0.038  2.2261 -1.8453 -0.7328
  872MOL0     H17687  10.001  10.464   0.019 -2.4183 -0.6163 -2.5791
  872MOL0     H17688  10.148  10.603  -0.215 -0.4287  1.0315  3.3876
  872MOL0     H17689  10.245  10.505  -0.130  0.4472  1.4685  1.3729
  872MOL0     H17690   9.989  10.426  -0.281 -1.5216 -0.5439  1.4320
  872MOL0     H17691  10.049  10.323  -0.158 -2.1976  2.2828  1.6809
  872MOL0     H17692  10.109  10.270  -0.404 -0.1553 -1.1049  1.3858
  872MOL0     H17693  10.207  10.412  -0.405 -1.8400 -0.8987 -2.3119
  872MOL0     H17694  10.234  10.178  -0.195 -3.3064  0.5563 -1.3356
  872MOL0     H17695  10.356  10.311  -0.210  0.1303 -1.0975  1.2984
  872MOL0     H17696  10.281  10.089  -0.388 -0.1287  1.5387 -1.0431
  872MOL0     H17697  10.380  10.222  -0.460  1.0297 -0.2886 -0.0839
  872MOL0     H17698  10.472   9.999  -0.308 -0.1097  0.8382  0.0413
  872MOL0     H17699  10.493  10.136  -0.203  0.3196 -0.9480  0.5841
  872MOL0     H17700  10.591  10.247  -0.423  0.1387  0.1453 -0.9069
  872MOL0     H17701  10.584  10.085  -0.480  0.3768  1.8633 -0.2008
  872MOL0     H17702   9.961  10.664   0.187 -1.9916 -5.6161 -2.5431
  872MOL0     H17703   9.795  10.723   0.338 -0.6817 -1.2857 -0.2617
  872MOL0     H17704   9.319  10.954   0.284 -2.5083  0.5269 -0.7156
  872MOL0     H17705   9.114  11.031   0.381 -2.1634  0.3900  1.7591
  872MOL0     H17706   7.763  10.644   1.092  0.4473  3.2645 -2.3192
  872MOL0     H17707   7.726  10.550   1.307 -0.1155  2.3728  1.3412
  872MOL0     H17708   7.544  10.412   1.658 -0.3619 -0.7605 -0.0199
  872MOL0     H17709   7.585  10.353   1.913 -2.6720 -1.2549 -0.6494
  872MOL0     H17710   7.552  10.719   2.229 -0.8176  0.5089  0.5147
  872MOL0     H17711   7.386  10.662   2.197  0.7564  1.5908 -1.7488
  872MOL0     H17712   7.492  10.637   2.432 -0.0990 -0.3191  1.6226
  872MOL0     H17713   7.599  10.521   2.352 -0.1746 -0.1444 -1.9199
  872MOL0     H17714   7.379  10.401   2.278 -3.5614  1.2739 -0.1003
  872MOL0     H17715   7.299  10.497   2.410  0.3705 -0.2918  0.8033
  872MOL0     H17716   7.538  10.318   2.472 -0.3699 -0.9663 -2.7107
  872MOL0     H17717   7.367  10.268   2.453 -1.5153  0.3124 -2.4335
  872MOL0     H17718   7.347  10.480   2.820  1.0513 -0.7697  0.9002
  872MOL0     H17719   7.446  10.767   1.990  1.8744  1.8914 -2.4625
  872MOL0     H17720   7.389  10.785   1.758  2.0194  1.9600  1.3641
  873MOL0     O17721  11.057   9.203   5.538 -0.7883  0.5997 -0.4506
  873MOL0     C17722  11.098   9.308   5.493  0.6209  0.0929  0.7311
  873MOL0     O17723  11.219   9.356   5.522  0.0383 -1.1069  0.1992
  873MOL0     C17724  11.316   9.274   5.588 -1.1731 -0.4999  0.5528
  873MOL0     C17725  11.278   9.190   5.688 -0.8530 -0.9601 -0.5522
  873MOL0     C17726  11.379   9.113   5.754 -0.3545  1.2221 -0.0445
  873MOL0     C17727  11.513   9.095   5.704 -0.0633  0.7657 -0.2506
  873MOL0     O17728  11.605   9.003   5.750  0.3109  0.9979  0.1518
  873MOL0     C17729  11.589   8.968   5.888 -0.2179 -0.0012 -0.8652
  873MOL0     C17730  11.732   8.929   5.933  0.5545  0.2442 -0.6188
  873MOL0     C17731  11.844   9.023   5.912  0.5328 -1.1655 -0.3918
  873MOL0     C17732  11.980   8.958   5.933 -0.9514 -0.3348 -0.0354
  873MOL0     C17733  12.095   9.065   5.946 -0.6565 -0.3349 -0.2806
  873MOL0     C17734  12.234   9.001   5.959  0.4406 -0.7684 -0.9331
  873MOL0     C17735  12.338   9.102   5.995  0.4994 -0.4617 -0.1836
  873MOL0     C17736  12.471   9.040   5.984 -0.3052 -0.5508 -0.0787
  873MOL0     N17737  12.580   9.134   6.006  0.7922  0.0581  0.5717
  873MOL0     C17738  12.639   9.152   6.131 -0.4642 -0.5757 -0.2643
  873MOL0     C17739  12.749   9.229   6.102 -0.5593 -0.1525 -0.5515
  873MOL0     C17740  12.830   9.294   6.208 -0.7694 -0.9303  0.2720
  873MOL0     C17741  12.894   9.192   6.310  0.0536  0.1659 -0.1652
  873MOL0     C17742  12.954   9.269   6.429  0.4175 -0.4088 -0.0419
  873MOL0     C17743  12.979   9.182   6.546 -0.4062 -0.2604  0.5153
  873MOL0     O17744  13.061   9.070   6.518 -0.4555  0.1440 -0.1164
  873MOL0     C17745  13.121   8.995   6.619  0.7527  0.8822  1.3017
  873MOL0     C17746  13.076   9.009   6.754  0.4415 -0.0815  0.6017
  873MOL0     C17747  13.129   8.941   6.853 -1.7261 -0.3323  0.1171
  873MOL0     C17748  13.088   8.965   7.003  0.0752  0.3127  0.3218
  873MOL0     C17749  13.222   8.833   6.824  0.6676 -0.0461  0.7120
  873MOL0     C17750  13.291   8.738   6.917  0.7956  0.6235  0.5678
  873MOL0     O17751  13.231   8.710   7.031  0.0795  0.2174  0.0036
  873MOL0     C17752  13.272   8.601   7.104 -0.3045  0.6806 -0.5600
  873MOL0     C17753  13.282   8.610   7.241 -0.0720 -0.4158 -0.5693
  873MOL0     C17754  13.303   8.496   7.320 -0.4100 -0.9072 -0.2338
  873MOL0     C17755  13.314   8.374   7.250  0.3768 -0.0758 -0.5024
  873MOL0     O17756  13.313   8.249   7.315  0.1854 -0.7702 -0.5084
  873MOL0     C17757  13.204   8.239   7.412 -0.7306 -0.0572 -0.2315
  873MOL0     C17758  13.239   8.130   7.497 -0.5579  1.0354 -0.0177
  873MOL0     C17759  13.268   8.001   7.417 -0.4107 -0.1503 -0.5960
  873MOL0     C17760  13.162   7.959   7.318  0.5438  0.8705  1.2437
  873MOL0     C17761  13.183   7.820   7.265 -0.0561  0.6525 -0.7262
  873MOL0     C17762  13.128   7.781   7.130 -0.4418  0.9831  0.3171
  873MOL0     C17763  13.171   7.631   7.100 -0.4299 -0.3806 -1.0020
  873MOL0     C17764  13.091   7.562   6.986  0.0343 -0.7236 -0.0309
  873MOL0    Cl17765  13.085   7.662   6.836 -0.1083  0.0056  0.4399
  873MOL0     C17766  13.314   8.364   7.110 -0.6590 -0.1797  0.3017
  873MOL0     C17767  13.281   8.481   7.044 -0.0711  0.1323 -1.1598
  873MOL0     O17768  13.398   8.684   6.877  1.1780  0.0265 -0.3676
  873MOL0     C17769  13.251   8.810   6.689 -1.0602  0.2131 -0.7075
  873MOL0     C17770  13.211   8.893   6.593  0.8103  0.8197  0.2681
  873MOL0     N17771  12.755   9.256   5.967 -0.1826 -0.0121  0.2288
  873MOL0     N17772  12.643   9.219   5.915 -0.5636  0.0586 -0.0565
  873MOL0     C17773  11.548   9.173   5.591 -0.6474 -0.2953 -0.3889
  873MOL0     C17774  11.453   9.263   5.537  0.3120 -0.6563 -1.1256
  873MOL0     C17775  11.013   9.382   5.395  0.7022 -0.1914  0.3745
  873MOL0     C17776  10.878   9.347   5.368  0.0502  0.9283  0.2732
  873MOL0     C17777  10.802   9.419   5.275 -0.0467 -0.1081  0.3604
  873MOL0     C17778  10.846   9.547   5.236  1.3253 -0.0805  0.2030
  873MOL0     O17779  10.772   9.632   5.156 -0.5179  0.1803  0.5363
  873MOL0     C17780  10.647   9.597   5.095  0.4143 -0.5874  0.6565
  873MOL0     C17781  10.574   9.726   5.037 -0.5378  0.3762 -0.2940
  873MOL0     C17782  10.624   9.728   4.888 -0.5854  0.4868 -0.5627
  873MOL0     C17783  10.594   9.870   4.834  0.3981 -0.9044  0.5082
  873MOL0     C17784  10.449   9.887   4.816 -0.0920 -0.9621  0.3666
  873MOL0     C17785  10.329   9.899   4.797 -0.9671 -0.5103  0.0642
  873MOL0     C17786  10.979   9.587   5.273 -0.8020  0.2440  0.8121
  873MOL0     C17787  11.072   9.496   5.339 -0.0124 -1.1120  0.3552
  873MOL0     H17788  11.187   9.196   5.746 -0.5368  0.6782 -0.1590
  873MOL0     H17789  11.346   9.060   5.843 -1.8628  0.9882 -0.7063
  873MOL0     H17790  11.552   9.058   5.937  2.6738  1.5303 -1.2879
  873MOL0     H17791  11.530   8.878   5.909  2.1023 -1.8829 -1.9378
  873MOL0     H17792  11.726   8.924   6.042 -0.9739 -0.7735 -0.7186
  873MOL0     H17793  11.748   8.831   5.889  0.0551 -1.3577  2.4897
  873MOL0     H17794  11.845   9.068   5.813 -0.3306  2.2605  0.9879
  873MOL0     H17795  11.829   9.102   5.987  0.8939  2.3538 -3.7328
  873MOL0     H17796  11.979   8.904   6.029 -1.0935  3.0013  1.9873
  873MOL0     H17797  12.005   8.892   5.850 -1.8317 -3.6300  2.0985
  873MOL0     H17798  12.091   9.121   5.852  2.6628 -2.1003 -1.6302
  873MOL0     H17799  12.080   9.134   6.029  1.3518 -1.1172  0.7973
  873MOL0     H17800  12.221   8.935   6.045 -0.3089 -0.0453 -0.4870
  873MOL0     H17801  12.269   8.949   5.869  3.7624  1.0442 -0.8369
  873MOL0     H17802  12.322   9.193   5.936  0.6474 -1.4687 -1.8254
  873MOL0     H17803  12.320   9.124   6.101 -0.6162  0.6107 -0.5673
  873MOL0     H17804  12.473   9.010   5.879  3.1067  2.6169 -1.1111
  873MOL0     H17805  12.462   8.952   6.049  1.6641 -1.5072 -1.0136
  873MOL0     H17806  12.609   9.116   6.229  0.1373 -2.2731 -0.6698
  873MOL0     H17807  12.917   9.336   6.156 -2.6533  1.6258 -1.0490
  873MOL0     H17808  12.784   9.382   6.255  3.1318  1.3420  0.3246
  873MOL0     H17809  12.973   9.141   6.253 -0.3423 -0.0039 -0.5634
  873MOL0     H17810  12.832   9.112   6.350  0.6200 -1.9772 -3.1637
  873MOL0     H17811  12.877   9.340   6.457 -0.3771 -1.2448 -0.0521
  873MOL0     H17812  13.046   9.325   6.409  0.0773  1.5067  3.1080
  873MOL0     H17813  12.888   9.144   6.592 -0.3550  2.4950  3.2497
  873MOL0     H17814  13.036   9.239   6.620  3.3001 -1.0824 -1.4654
  873MOL0     H17815  13.003   9.084   6.783  0.8332  0.7586 -0.5658
  873MOL0     H17816  13.019   9.049   7.011 -0.0782  0.3368 -1.0930
  873MOL0     H17817  13.042   8.873   7.040  1.9162 -1.1901 -0.9136
  873MOL0     H17818  13.183   8.988   7.053  1.0243  1.0266 -1.6943
  873MOL0     H17819  13.260   8.706   7.286 -3.3995 -2.0948  1.7797
  873MOL0     H17820  13.296   8.497   7.428 -2.2799 -3.0405 -0.2685
  873MOL0     H17821  13.192   8.328   7.474  0.7221 -0.0514  0.0881
  873MOL0     H17822  13.110   8.223   7.358 -1.0335 -0.9867  0.5427
  873MOL0     H17823  13.331   8.151   7.552 -0.1904  2.9612 -1.2521
  873MOL0     H17824  13.163   8.095   7.568 -1.5746  2.8205 -0.1587
  873MOL0     H17825  13.270   7.922   7.492 -1.2548  0.1224 -0.2760
  873MOL0     H17826  13.360   8.004   7.358  0.3345  1.1046  0.5652
  873MOL0     H17827  13.059   7.958   7.354  0.0030 -1.1401 -0.2026
  873MOL0     H17828  13.166   8.034   7.238  1.8663 -0.6115 -0.1493
  873MOL0     H17829  13.147   7.740   7.331  2.8049 -0.7597 -0.7302
  873MOL0     H17830  13.292   7.807   7.261  0.3933  3.7895 -1.0396
  873MOL0     H17831  13.021   7.799   7.141 -0.3545  0.9292  1.3679
  873MOL0     H17832  13.177   7.840   7.052 -0.9805 -0.8649 -1.5153
  873MOL0     H17833  13.179   7.559   7.183  2.0708  0.9996  0.0945
  873MOL0     H17834  13.276   7.631   7.068 -0.2796 -2.0468 -0.6135
  873MOL0     H17835  12.990   7.551   7.027  0.6473 -0.6625  1.5795
  873MOL0     H17836  13.129   7.465   6.954 -0.5979  0.6460 -6.0958
  873MOL0     H17837  13.344   8.272   7.061  5.4742 -1.2583  4.8378
  873MOL0     H17838  13.271   8.483   6.936  1.7037  0.3310 -1.3514
  873MOL0     H17839  13.318   8.736   6.646  0.0964  2.0292 -2.1607
  873MOL0     H17840  13.227   8.876   6.487 -0.3924  2.0952 -0.1539
  873MOL0     H17841  11.641   9.163   5.536 -1.9603  0.4762 -2.9196
  873MOL0     H17842  11.483   9.322   5.450  1.7549  0.4727  0.0975
  873MOL0     H17843  10.828   9.258   5.403 -1.2440  1.5638  0.1167
  873MOL0     H17844  10.706   9.390   5.233  1.6846 -0.8939 -3.5196
  873MOL0     H17845  10.675   9.514   5.029  2.3912 -0.0000  0.6710
  873MOL0     H17846  10.587   9.553   5.175  0.1831 -3.7227 -1.0549
  873MOL0     H17847  10.600   9.809   5.104  2.4744  0.2992 -1.2087
  873MOL0     H17848  10.466   9.714   5.038 -0.4870 -0.0991  0.2026
  873MOL0     H17849  10.571   9.654   4.827  2.4614 -2.5222  0.1349
  873MOL0     H17850  10.731   9.707   4.884 -0.8417 -1.0984  0.0227
  873MOL0     H17851  10.643   9.879   4.736 -1.6248  0.3404 -0.4621
  873MOL0     H17852  10.634   9.944   4.904 -0.6190  0.7446 -0.5923
  873MOL0     H17853  10.222   9.908   4.789 -0.8207  0.3534 -1.0426
  873MOL0     H17854  11.019   9.682   5.239  3.0885 -1.1292  1.0785
  873MOL0     H17855  11.172   9.532   5.358 -0.0897 -0.3930 -0.5117
  874MOL0     O17856   8.015   3.357  10.413 -0.0854 -0.7733  0.2252
  874MOL0     C17857   7.970   3.240  10.421 -0.5228 -0.7249  0.2237
  874MOL0     O17858   7.841   3.200  10.390  0.0232  0.6243 -0.0154
  874MOL0     C17859   7.732   3.280  10.368 -0.4937  0.7457  0.3462
  874MOL0     C17860   7.621   3.217  10.313  0.8348  0.2144 -0.1632
  874MOL0     C17861   7.497   3.280  10.288 -0.3867 -0.9312 -0.0577
  874MOL0     C17862   7.486   3.412  10.312  0.9138 -0.7699  0.5091
  874MOL0     O17863   7.380   3.482  10.266  0.2199  1.3326  0.3866
  874MOL0     C17864   7.255   3.445  10.329  0.9968 -0.1894 -0.6182
  874MOL0     C17865   7.233   3.503  10.464 -0.3545  0.1369 -0.9633
  874MOL0     C17866   7.263   3.648  10.465 -0.2900  0.3325  0.0050
  874MOL0     C17867   7.205   3.696  10.603 -0.0614 -0.1691 -0.2596
  874MOL0     C17868   7.242   3.834  10.639 -0.0931 -0.5023  0.9331
  874MOL0     C17869   7.137   3.937  10.590 -0.1414  0.8618  0.3271
  874MOL0     C17870   7.033   3.974  10.693  0.2140 -0.1050 -0.3093
  874MOL0     C17871   6.926   4.049  10.623 -0.1233 -0.3521 -0.2885
  874MOL0     N17872   6.791   3.989  10.616 -0.5680  0.2732  0.2366
  874MOL0     C17873   6.721   3.960  10.504 -0.0640  0.3697  0.3248
  874MOL0     C17874   6.609   3.901  10.550  0.8544  1.1870 -0.2890
  874MOL0     C17875   6.495   3.857  10.454  0.0382  0.8088 -0.0625
  874MOL0     C17876   6.396   3.974  10.429 -0.3349 -0.1711 -0.2259
  874MOL0     C17877   6.256   3.917  10.386 -0.5009  0.3687 -0.1376
  874MOL0     C17878   6.138   4.012  10.394 -0.0479 -0.5269 -0.0749
  874MOL0     O17879   6.142   4.089  10.513 -0.1689  0.7506 -0.4939
  874MOL0     C17880   6.069   4.039  10.626  0.1206 -0.0033 -1.0304
  874MOL0     C17881   6.098   4.099  10.754 -0.2499  0.3215 -0.0067
  874MOL0     C17882   6.026   4.075  10.869 -0.3749 -0.6858 -0.3838
  874MOL0     C17883   6.046   4.180  10.988 -0.2824  0.7461 -0.1698
  874MOL0     C17884   5.926   3.971  10.859 -0.7884  0.2271  1.1259
  874MOL0     C17885   5.857   3.911  10.977  0.0280 -0.4266 -0.6435
  874MOL0     O17886   5.734   3.861  10.965 -0.2494  0.0190 -0.4098
  874MOL0     C17887   5.651   3.848  11.078 -0.2296 -0.4685  0.0543
  874MOL0     C17888   5.650   3.940  11.177  0.2597 -0.0319 -0.4577
  874MOL0     C17889   5.558   3.925  11.287 -0.3179  0.1640  0.2286
  874MOL0     C17890   5.456   3.832  11.271 -0.0289  0.0194  0.3828
  874MOL0     O17891   5.357   3.820  11.365 -0.3057 -0.9360  0.2443
  874MOL0     C17892   5.381   3.865  11.496  0.2324  0.2407  0.5542
  874MOL0     C17893   5.271   3.816  11.592  0.0199  0.0011  0.2128
  874MOL0     C17894   5.133   3.854  11.536  0.6956  0.6161 -1.0499
  874MOL0     C17895   5.035   3.839  11.644 -0.1115 -0.6991  0.8696
  874MOL0     C17896   4.893   3.847  11.583 -0.4621 -0.5368 -0.2954
  874MOL0     C17897   4.864   3.999  11.538  0.3453 -0.3064  1.1466
  874MOL0     C17898   4.714   4.018  11.496 -1.6557 -0.0854  1.0098
  874MOL0     C17899   4.622   4.038  11.620 -1.1575  0.1482 -0.2213
  874MOL0    Cl17900   4.450   4.096  11.594  0.6789  0.4319 -0.1792
  874MOL0     C17901   5.464   3.732  11.173 -0.3119  0.4393  0.5410
  874MOL0     C17902   5.561   3.738  11.078 -0.4849 -0.1571 -0.1883
  874MOL0     O17903   5.922   3.921  11.085  0.6646 -0.7497  0.3756
  874MOL0     C17904   5.903   3.901  10.739  0.2319  0.6852  0.8075
  874MOL0     C17905   5.979   3.932  10.626 -0.5238 -0.0684 -0.4731
  874MOL0     N17906   6.608   3.884  10.688 -1.4663  0.1369  0.0673
  874MOL0     N17907   6.722   3.944  10.727 -0.0430 -0.7264 -0.0974
  874MOL0     C17908   7.604   3.486  10.354 -1.0938  0.7712  0.1678
  874MOL0     C17909   7.722   3.418  10.388  1.1165 -0.6953 -0.4123
  874MOL0     C17910   8.057   3.125  10.462 -1.1403 -0.5974 -0.8276
  874MOL0     C17911   8.029   2.991  10.446 -0.0464  1.2112 -0.8476
  874MOL0     C17912   8.129   2.891  10.448 -0.7740  0.6959  0.2215
  874MOL0     C17913   8.255   2.914  10.493 -1.0176 -0.6514  0.2713
  874MOL0     O17914   8.348   2.816  10.512 -0.0144 -1.0863 -0.5540
  874MOL0     C17915   8.309   2.685  10.558 -0.2850 -0.1586 -0.2623
  874MOL0     C17916   8.308   2.678  10.708  0.0296  0.6606  1.3605
  874MOL0     C17917   8.203   2.778  10.772  1.6416 -0.5317  0.5664
  874MOL0     C17918   8.173   2.760  10.920  0.3762  0.0186 -1.6158
  874MOL0     C17919   8.286   2.750  11.010 -1.0006 -0.2720 -0.2919
  874MOL0     C17920   8.396   2.735  11.064 -0.0795  1.1527 -0.2662
  874MOL0     C17921   8.282   3.047  10.533 -0.6828 -0.8612 -1.1364
  874MOL0     C17922   8.194   3.152  10.511  0.1352  0.2842 -0.5101
  874MOL0     H17923   7.625   3.109  10.301 -0.1413 -0.0826  1.7280
  874MOL0     H17924   7.410   3.230  10.247 -2.1530  0.8764  1.2701
  874MOL0     H17925   7.168   3.472  10.269  1.4637 -0.6711 -1.5216
  874MOL0     H17926   7.244   3.337  10.341  1.1600 -0.0505  1.0943
  874MOL0     H17927   7.130   3.479  10.491 -0.1263  0.2312  0.0252
  874MOL0     H17928   7.311   3.457  10.526 -0.4813 -0.5684 -1.3172
  874MOL0     H17929   7.371   3.662  10.461  0.1996 -2.8776 -0.6747
  874MOL0     H17930   7.210   3.694  10.381 -1.5694 -0.4386  0.3688
  874MOL0     H17931   7.097   3.684  10.595 -0.0443  0.1324 -0.9419
  874MOL0     H17932   7.252   3.627  10.674 -1.0469 -1.6834 -1.0297
  874MOL0     H17933   7.257   3.852  10.746  0.2302 -3.3483  1.4246
  874MOL0     H17934   7.341   3.861  10.602  0.3624 -0.8881  1.8607
  874MOL0     H17935   7.199   4.023  10.564  0.2255  0.8379  1.0838
  874MOL0     H17936   7.094   3.907  10.494 -1.9593  1.2267  0.9885
  874MOL0     H17937   6.986   3.898  10.757 -0.4374  1.5700  1.2702
  874MOL0     H17938   7.080   4.042  10.765 -1.5155 -0.6465  1.4263
  874MOL0     H17939   6.953   4.065  10.518 -3.6329  1.5680 -1.0479
  874MOL0     H17940   6.915   4.146  10.671 -1.6563 -0.6760  0.0524
  874MOL0     H17941   6.742   3.992  10.403 -1.9570  2.0568  0.4018
  874MOL0     H17942   6.546   3.826  10.363  1.6939 -0.3730  1.2129
  874MOL0     H17943   6.433   3.779  10.499  1.9190 -0.2859  0.7255
  874MOL0     H17944   6.437   4.043  10.355 -1.7216 -0.7931 -1.6436
  874MOL0     H17945   6.389   4.037  10.518 -0.5550 -1.5850  0.8031
  874MOL0     H17946   6.231   3.834  10.453 -0.2107 -0.0312 -0.5170
  874MOL0     H17947   6.260   3.865  10.290  2.5775 -0.5133  0.3597
  874MOL0     H17948   6.047   3.957  10.371  0.4666 -0.9933 -1.0921
  874MOL0     H17949   6.143   4.080  10.308 -3.9668  0.8801  0.6262
  874MOL0     H17950   6.180   4.170  10.761  2.4176 -2.2606 -2.2186
  874MOL0     H17951   5.962   4.186  11.059  1.4808  2.1403  1.9530
  874MOL0     H17952   6.142   4.155  11.033 -0.1095 -0.1973 -1.0323
  874MOL0     H17953   6.069   4.279  10.948  0.6761  0.8176  0.5246
  874MOL0     H17954   5.721   4.022  11.179  1.0163 -0.5925 -2.1408
  874MOL0     H17955   5.548   4.005  11.360 -2.3706  2.4362 -2.3118
  874MOL0     H17956   5.476   3.827  11.536 -1.0117 -1.5740  1.9354
  874MOL0     H17957   5.374   3.974  11.495 -3.4835  0.1585  1.7237
  874MOL0     H17958   5.285   3.708  11.584  2.3834  0.3085 -0.9384
  874MOL0     H17959   5.306   3.851  11.689 -1.4486  1.8961  0.1043
  874MOL0     H17960   5.107   3.789  11.452 -1.3403 -0.8127  0.5950
  874MOL0     H17961   5.126   3.957  11.500 -3.1850 -0.1107 -2.8674
  874MOL0     H17962   5.044   3.738  11.684 -0.0021 -0.2074  2.1403
  874MOL0     H17963   5.058   3.903  11.730 -0.0587 -1.1490  1.1910
  874MOL0     H17964   4.831   3.811  11.666 -2.3938 -0.2364 -1.5230
  874MOL0     H17965   4.871   3.762  11.518  0.1614 -0.6371 -0.3822
  874MOL0     H17966   4.897   4.080  11.603 -0.3562  2.1669 -1.4264
  874MOL0     H17967   4.917   4.010  11.443  1.9237  1.9669  2.2063
  874MOL0     H17968   4.675   3.925  11.454  0.1736 -1.1622  1.5751
  874MOL0     H17969   4.709   4.105  11.430  1.0512  0.3978  1.3254
  874MOL0     H17970   4.670   4.114  11.683 -1.2721 -2.1972  2.8834
  874MOL0     H17971   4.613   3.950  11.684  1.3300  0.5474  0.8100
  874MOL0     H17972   5.397   3.647  11.170  2.1923 -1.7515 -3.8544
  874MOL0     H17973   5.560   3.655  11.007  2.7015 -0.9741  0.5546
  874MOL0     H17974   5.839   3.813  10.736  2.1650 -0.7769  0.3520
  874MOL0     H17975   5.950   3.876  10.538 -3.5497 -0.4932  0.6619
  874MOL0     H17976   7.606   3.594  10.354 -0.4311  0.7691 -0.9761
  874MOL0     H17977   7.807   3.467  10.433  1.0017 -1.1048  0.2718
  874MOL0     H17978   7.926   2.959  10.435  0.4404 -2.6715  3.0015
  874MOL0     H17979   8.109   2.793  10.405  0.3693  0.7684 -0.5266
  874MOL0     H17980   8.213   2.654  10.516  0.1117  0.8819 -2.0113
  874MOL0     H17981   8.386   2.621  10.514  0.3217  0.5743 -0.2802
  874MOL0     H17982   8.410   2.700  10.740  0.9685  0.0336 -0.9830
  874MOL0     H17983   8.287   2.572  10.726 -1.3092  0.7302  0.3700
  874MOL0     H17984   8.104   2.786  10.726  0.8210 -0.8833  2.1961
  874MOL0     H17985   8.236   2.882  10.763 -0.8915  0.1612 -2.6353
  874MOL0     H17986   8.112   2.670  10.928 -0.9787  1.0059 -0.3123
  874MOL0     H17987   8.105   2.840  10.950  0.7362 -0.0159 -0.6760
  874MOL0     H17988   8.489   2.700  11.103  0.3311 -0.1079 -2.2059
  874MOL0     H17989   8.378   3.067  10.580 -1.6700 -1.6674  1.3560
  874MOL0     H17990   8.214   3.254  10.543 -1.9564  0.6038 -0.0557
  875MOL0     O17991   5.284   7.659   4.027  0.1716  0.2378  0.4675
  875MOL0     C17992   5.381   7.647   4.098 -0.7235 -0.7492  0.2462
  875MOL0     O17993   5.400   7.695   4.221  0.2954 -0.4328  0.0202
  875MOL0     C17994   5.310   7.780   4.267  0.1136 -0.1736  0.0814
  875MOL0     C17995   5.166   7.769   4.276 -0.0699  0.1996  0.2466
  875MOL0     C17996   5.085   7.854   4.340 -0.2212 -0.7716 -0.2240
  875MOL0     C17997   5.142   7.970   4.407  0.3687  0.3648 -0.6382
  875MOL0     O17998   5.049   8.058   4.461  0.5919  0.6105  0.3901
  875MOL0     C17999   5.081   8.109   4.589 -0.3397 -0.0286 -0.2284
  875MOL0     C18000   4.956   8.186   4.636  0.4585  0.2226  0.4438
  875MOL0     C18001   4.982   8.248   4.775  0.2078 -0.0713  0.3968
  875MOL0     C18002   4.878   8.354   4.818 -0.0208  0.3598 -0.0802
  875MOL0     C18003   4.883   8.395   4.964  0.3371  0.4429  0.1484
  875MOL0     C18004   4.823   8.535   4.997 -0.8745  0.8372  0.1036
  875MOL0     C18005   4.777   8.571   5.139  0.1231 -0.1392 -0.4547
  875MOL0     C18006   4.893   8.593   5.240 -0.9604 -0.4881  0.2296
  875MOL0     N18007   4.985   8.700   5.190  0.2221 -0.5218  0.3964
  875MOL0     C18008   4.946   8.837   5.185 -0.1133  0.2884  0.4821
  875MOL0     C18009   5.044   8.896   5.115  0.4321 -0.7809  0.5140
  875MOL0     C18010   5.051   9.040   5.064 -0.0731  0.7431 -0.6040
  875MOL0     C18011   5.045   9.063   4.907  0.8498 -0.3029 -0.2400
  875MOL0     C18012   5.174   9.012   4.845  0.2789  0.4688  0.2791
  875MOL0     C18013   5.232   9.097   4.728  0.4599 -0.3057 -0.5488
  875MOL0     O18014   5.155   9.083   4.604 -0.2275 -0.5019 -0.3989
  875MOL0     C18015   5.238   9.102   4.502 -0.4771  0.5129  0.7172
  875MOL0     C18016   5.270   8.978   4.436  0.0877 -0.5003 -0.4599
  875MOL0     C18017   5.362   8.987   4.333  0.5414 -0.1013 -0.0390
  875MOL0     C18018   5.415   8.858   4.276  1.4394  0.2062  0.4956
  875MOL0     C18019   5.426   9.110   4.295  0.3209  0.1173 -0.3413
  875MOL0     C18020   5.510   9.122   4.180 -0.6327 -1.3693  0.5575
  875MOL0     O18021   5.474   9.049   4.067  0.3285 -0.2651 -0.4662
  875MOL0     C18022   5.534   9.064   3.946  0.3392 -0.4593 -0.2617
  875MOL0     C18023   5.526   8.968   3.849 -0.0991  0.2036  0.2115
  875MOL0     C18024   5.574   8.983   3.718 -0.3166 -0.1876 -0.1838
  875MOL0     C18025   5.635   9.094   3.674 -0.9590 -0.1886 -0.1020
  875MOL0     O18026   5.695   9.111   3.549  0.3021 -0.0379  0.1736
  875MOL0     C18027   5.696   9.012   3.449  0.0092 -0.3751  0.4862
  875MOL0     C18028   5.771   9.046   3.319  0.5063 -1.1320  0.1559
  875MOL0     C18029   5.778   8.930   3.218  0.1214  1.0587 -0.3263
  875MOL0     C18030   5.709   8.950   3.086  1.3865  0.0879 -0.8338
  875MOL0     C18031   5.743   8.844   2.988 -0.5593  0.6093 -0.3240
  875MOL0     C18032   5.664   8.890   2.858  0.0364  0.1002 -0.4147
  875MOL0     C18033   5.697   8.804   2.744  0.4908  0.3863  0.0117
  875MOL0     C18034   5.647   8.866   2.618 -0.1549 -0.5047  0.6601
  875MOL0    Cl18035   5.645   8.744   2.488  0.1976 -0.1435 -0.4732
  875MOL0     C18036   5.631   9.198   3.766  0.0770 -1.0551  0.4571
  875MOL0     C18037   5.583   9.180   3.891  0.1758  0.2834 -0.3869
  875MOL0     O18038   5.603   9.208   4.188 -0.6129  0.0005 -0.1367
  875MOL0     C18039   5.387   9.225   4.365 -0.3312 -0.4367  1.3158
  875MOL0     C18040   5.291   9.223   4.464 -0.2222 -0.3225  0.5362
  875MOL0     N18041   5.144   8.806   5.084 -0.4817  0.3619  0.0066
  875MOL0     N18042   5.109   8.688   5.138 -0.0087  0.2503  0.7140
  875MOL0     C18043   5.278   7.984   4.409  0.5455 -0.8072  0.7489
  875MOL0     C18044   5.356   7.893   4.332  0.3329  0.0273 -0.1272
  875MOL0     C18045   5.484   7.563   4.042  0.9157 -1.0682 -0.0158
  875MOL0     C18046   5.473   7.496   3.920  1.1080  0.3072 -0.4155
  875MOL0     C18047   5.559   7.391   3.895 -0.0788  0.0713 -0.3230
  875MOL0     C18048   5.675   7.374   3.967 -0.1303 -0.5413 -1.4486
  875MOL0     O18049   5.752   7.276   3.912 -0.1339 -0.2687 -0.0129
  875MOL0     C18050   5.840   7.212   4.005  0.3889  0.1937  0.0483
  875MOL0     C18051   5.928   7.114   3.926 -0.5431 -0.1119  0.3376
  875MOL0     C18052   6.040   7.045   4.014  0.6031  0.6030 -0.7264
  875MOL0     C18053   6.068   6.906   3.965 -0.2491  0.1082 -0.2009
  875MOL0     C18054   6.172   6.830   4.040  0.4593 -0.8020  0.0314
  875MOL0     C18055   6.270   6.786   4.088 -0.3287  0.4795 -0.8092
  875MOL0     C18056   5.699   7.457   4.083  0.1201 -0.1226 -0.1387
  875MOL0     C18057   5.601   7.550   4.115 -0.2593 -0.0229  0.3234
  875MOL0     H18058   5.116   7.693   4.217  1.4436 -0.3412 -0.4169
  875MOL0     H18059   4.978   7.837   4.335 -0.3274 -1.9633  3.0943
  875MOL0     H18060   5.099   8.024   4.655  0.4013 -1.8810 -2.6455
  875MOL0     H18061   5.163   8.181   4.587 -0.2094 -0.1155  1.1812
  875MOL0     H18062   4.937   8.264   4.563  1.0553  1.8601  1.9684
  875MOL0     H18063   4.878   8.109   4.642  0.8937 -0.1111  2.7824
  875MOL0     H18064   4.995   8.170   4.850 -3.1818 -1.1933  0.0021
  875MOL0     H18065   5.076   8.302   4.767 -1.1634  2.5320  0.8240
  875MOL0     H18066   4.888   8.443   4.754 -0.6873 -0.4982 -1.4383
  875MOL0     H18067   4.782   8.302   4.811  0.5247 -0.6127 -0.4490
  875MOL0     H18068   4.821   8.316   5.008  0.4670 -1.5393 -2.9568
  875MOL0     H18069   4.981   8.398   5.013 -1.2734  1.7805  3.6097
  875MOL0     H18070   4.892   8.606   4.950  0.4599  1.1169  2.3601
  875MOL0     H18071   4.733   8.539   4.934  1.2860  0.3275 -3.2457
  875MOL0     H18072   4.721   8.664   5.150  0.2082 -0.3630  3.3896
  875MOL0     H18073   4.716   8.488   5.176  3.6517 -1.5953  2.8557
  875MOL0     H18074   4.951   8.504   5.214 -1.1349  0.1478 -2.7546
  875MOL0     H18075   4.876   8.607   5.347  0.8016 -1.8452  0.7316
  875MOL0     H18076   4.855   8.875   5.231  0.7203  2.1932  0.6671
  875MOL0     H18077   4.967   9.095   5.107 -0.4885  2.4249 -3.3456
  875MOL0     H18078   5.145   9.076   5.108 -0.2998  1.6773 -0.8697
  875MOL0     H18079   5.033   9.170   4.886 -2.2314 -0.0930  1.8998
  875MOL0     H18080   4.956   9.016   4.864  0.9245 -1.1755  0.5201
  875MOL0     H18081   5.163   8.908   4.815 -3.2783  0.4377  1.2952
  875MOL0     H18082   5.251   9.015   4.923 -1.7093 -0.5269  2.4019
  875MOL0     H18083   5.332   9.059   4.704 -0.3397 -0.8000 -3.5466
  875MOL0     H18084   5.240   9.197   4.769 -0.6321 -0.5198  0.2125
  875MOL0     H18085   5.218   8.890   4.474  0.3331 -0.5570 -0.2538
  875MOL0     H18086   5.525   8.858   4.276  1.4470  0.6847 -0.0369
  875MOL0     H18087   5.377   8.774   4.334 -0.3583 -1.8779 -3.3041
  875MOL0     H18088   5.381   8.831   4.175 -2.4211 -1.8042  2.1304
  875MOL0     H18089   5.450   8.893   3.869  0.4296  0.5458  4.4513
  875MOL0     H18090   5.546   8.909   3.644 -2.5950  0.8604 -0.4608
  875MOL0     H18091   5.743   8.922   3.492  0.4242 -1.0291 -1.2718
  875MOL0     H18092   5.593   8.995   3.418 -0.2200 -0.0416  1.0553
  875MOL0     H18093   5.717   9.120   3.260  0.1616 -0.4280  1.3289
  875MOL0     H18094   5.877   9.070   3.331  1.6322 -2.6909 -4.3349
  875MOL0     H18095   5.761   8.833   3.265  1.3889  0.3766 -1.2404
  875MOL0     H18096   5.882   8.925   3.187 -0.2896 -0.7546 -1.5445
  875MOL0     H18097   5.601   8.937   3.101  1.6953 -0.6144  1.0444
  875MOL0     H18098   5.722   9.048   3.040  2.3990  0.2579 -0.2045
  875MOL0     H18099   5.705   8.748   3.023 -2.6887  0.7247 -2.0547
  875MOL0     H18100   5.851   8.839   2.973 -0.3322  1.2226  0.9559
  875MOL0     H18101   5.556   8.892   2.875 -0.0636 -1.2325 -0.7588
  875MOL0     H18102   5.690   8.993   2.832  0.7875 -0.0079 -0.1084
  875MOL0     H18103   5.633   8.717   2.762  1.3498 -0.7372 -2.0194
  875MOL0     H18104   5.801   8.773   2.751  0.1633 -0.5976  0.8086
  875MOL0     H18105   5.700   8.953   2.579 -2.3808 -1.1507 -4.6638
  875MOL0     H18106   5.540   8.888   2.629 -0.0197  1.6211 -1.5102
  875MOL0     H18107   5.677   9.293   3.741 -2.7303  0.8135  1.9174
  875MOL0     H18108   5.593   9.277   3.939  5.2789  1.0209 -2.2674
  875MOL0     H18109   5.418   9.327   4.341 -0.7812  0.1455  3.0592
  875MOL0     H18110   5.256   9.315   4.510 -2.0007 -0.4972 -0.3562
  875MOL0     H18111   5.329   8.055   4.474  0.4652 -0.0015 -0.0402
  875MOL0     H18112   5.464   7.903   4.337  0.2896  0.0095  1.3874
  875MOL0     H18113   5.392   7.519   3.852 -1.5951  1.3381  2.8765
  875MOL0     H18114   5.548   7.318   3.816  1.2359  0.8200 -1.2488
  875MOL0     H18115   5.905   7.281   4.059  1.6092  1.6431 -3.0293
  875MOL0     H18116   5.780   7.155   4.077  0.7623 -0.4882 -0.1712
  875MOL0     H18117   5.980   7.162   3.843  2.1791 -0.4848  1.7341
  875MOL0     H18118   5.853   7.045   3.886 -0.6913  1.2869 -1.9801
  875MOL0     H18119   6.003   7.029   4.116  3.2320 -0.8561  0.1021
  875MOL0     H18120   6.124   7.115   4.009  1.9974 -1.0620 -1.7260
  875MOL0     H18121   6.095   6.910   3.859 -1.4439 -2.3496 -0.6611
  875MOL0     H18122   5.977   6.846   3.974 -2.1809  3.0656  2.2722
  875MOL0     H18123   6.363   6.743   4.117 -1.1279 -0.7734 -0.0239
  875MOL0     H18124   5.786   7.459   4.149 -1.0253  1.7180  1.4229
  875MOL0     H18125   5.614   7.609   4.205 -2.4253 -1.6171  1.7838
  876MOL0     O18126   3.417   7.429   6.149 -0.1360  0.4020  0.2056
  876MOL0     C18127   3.508   7.510   6.174 -0.3613 -0.2317 -0.5624
  876MOL0     O18128   3.639   7.471   6.199  0.8274 -0.0051 -0.0724
  876MOL0     C18129   3.687   7.346   6.177 -0.2128 -0.9652  0.2341
  876MOL0     C18130   3.664   7.270   6.059 -0.2716 -0.4271 -0.3887
  876MOL0     C18131   3.722   7.139   6.045 -0.2283 -0.7837  0.0093
  876MOL0     C18132   3.808   7.092   6.137 -0.0237  0.2291 -0.4431
  876MOL0     O18133   3.874   6.979   6.091  0.0819  1.1045 -0.2023
  876MOL0     C18134   3.945   6.898   6.190 -0.4575  0.2751  0.2510
  876MOL0     C18135   3.963   6.751   6.137  0.2694  0.0836 -0.2593
  876MOL0     C18136   4.066   6.670   6.225  0.6200  0.2671 -0.7748
  876MOL0     C18137   4.081   6.523   6.193 -0.9594 -0.6485  0.4843
  876MOL0     C18138   4.135   6.445   6.317 -0.5376 -1.3283  0.1572
  876MOL0     C18139   4.182   6.300   6.297  0.2372  0.5720 -0.5453
  876MOL0     C18140   4.101   6.203   6.209  0.6098  0.7140  0.3638
  876MOL0     C18141   4.162   6.082   6.140 -0.5410 -0.6933 -0.6848
  876MOL0     N18142   4.239   5.991   6.230  0.6654  0.2327 -0.4192
  876MOL0     C18143   4.192   5.955   6.358 -0.0827  0.5419  0.2011
  876MOL0     C18144   4.212   5.826   6.379 -0.2438  1.0485  0.3353
  876MOL0     C18145   4.160   5.738   6.497 -0.0220  0.2447 -0.1113
  876MOL0     C18146   4.006   5.746   6.492  0.1995  0.3037 -0.4417
  876MOL0     C18147   3.944   5.705   6.361  0.4365  0.5958  0.0815
  876MOL0     C18148   3.981   5.563   6.313 -0.3022  0.2384 -0.2564
  876MOL0     O18149   3.926   5.465   6.404  0.0857 -0.6996  0.0922
  876MOL0     C18150   3.792   5.454   6.412  0.7894 -0.1421 -0.8793
  876MOL0     C18151   3.710   5.534   6.487  0.5447 -0.3970  0.0364
  876MOL0     C18152   3.575   5.500   6.496  0.4080  0.9201 -0.2054
  876MOL0     C18153   3.480   5.585   6.582  0.4231  0.8157 -1.1997
  876MOL0     C18154   3.519   5.390   6.428 -0.4695  0.5917  0.7219
  876MOL0     C18155   3.380   5.354   6.439 -0.7183 -0.2845  0.1374
  876MOL0     O18156   3.366   5.214   6.447  0.5006 -0.5196 -0.9174
  876MOL0     C18157   3.247   5.152   6.407 -0.1541  0.2376 -0.5132
  876MOL0     C18158   3.151   5.214   6.315 -0.4897 -0.3573  0.0969
  876MOL0     C18159   3.030   5.144   6.284 -0.4199  0.2627 -0.2440
  876MOL0     C18160   3.004   5.018   6.347  1.1023  0.8116 -0.0359
  876MOL0     O18161   2.894   4.934   6.318 -0.3565 -0.1157 -0.6644
  876MOL0     C18162   2.833   4.953   6.190 -0.2583 -0.2431 -0.8021
  876MOL0     C18163   2.686   4.909   6.195 -1.2936  0.0608 -0.6171
  876MOL0     C18164   2.670   4.758   6.212  0.8107 -0.5482  0.1522
  876MOL0     C18165   2.520   4.714   6.204 -0.4540  0.3187  0.6430
  876MOL0     C18166   2.500   4.565   6.217  0.2643  0.8450 -0.2740
  876MOL0     C18167   2.365   4.537   6.290 -0.2025  0.1645 -0.2205
  876MOL0     C18168   2.234   4.588   6.218 -0.3672  0.1616 -0.3591
  876MOL0     C18169   2.105   4.527   6.276 -0.3924 -0.5424 -0.2125
  876MOL0    Cl18170   2.078   4.357   6.217  0.0636 -0.4334 -0.1643
  876MOL0     C18171   3.089   4.959   6.443  0.1803 -0.9184 -1.1290
  876MOL0     C18172   3.210   5.027   6.465  0.2099  1.3595  1.3231
  876MOL0     O18173   3.295   5.435   6.435 -0.0106  0.3583 -0.1966
  876MOL0     C18174   3.604   5.315   6.355 -0.2944  0.0577 -0.3563
  876MOL0     C18175   3.745   5.341   6.344  0.7285  0.1478 -0.9188
  876MOL0     N18176   4.276   5.776   6.262  0.6617 -0.1097  0.2184
  876MOL0     N18177   4.285   5.870   6.173 -0.4601  0.3769 -0.0834
  876MOL0     C18178   3.830   7.162   6.260 -0.9166  0.0171  0.0456
  876MOL0     C18179   3.772   7.290   6.278  0.8455 -1.3449  0.9104
  876MOL0     C18180   3.463   7.651   6.180  0.1428  0.4192 -0.5791
  876MOL0     C18181   3.551   7.750   6.234 -0.4915  0.0757  0.3450
  876MOL0     C18182   3.506   7.880   6.260 -0.0937  0.9034  1.4016
  876MOL0     C18183   3.395   7.927   6.189  0.3786  1.0306 -0.4255
  876MOL0     O18184   3.367   8.055   6.186  0.1476  0.2248  0.6942
  876MOL0     C18185   3.298   8.106   6.066  0.0203 -0.8251 -0.2751
  876MOL0     C18186   3.299   8.259   6.070 -0.4109 -0.7709 -0.9700
  876MOL0     C18187   3.431   8.326   6.014 -0.1943  0.6302 -0.7582
  876MOL0     C18188   3.538   8.326   6.124 -1.0501 -0.6139  0.7536
  876MOL0     C18189   3.661   8.399   6.084 -0.0390 -0.5208 -0.0318
  876MOL0     C18190   3.753   8.475   6.063 -0.1846 -0.3632 -0.1177
  876MOL0     C18191   3.310   7.826   6.129 -0.0153 -0.4487  1.9455
  876MOL0     C18192   3.333   7.687   6.134 -0.5575 -0.0992 -0.5836
  876MOL0     H18193   3.594   7.319   5.992 -0.0407 -0.3674 -0.5880
  876MOL0     H18194   3.711   7.080   5.954 -1.5699  0.7920 -0.9106
  876MOL0     H18195   4.044   6.944   6.195  0.4623 -1.7501  2.8648
  876MOL0     H18196   3.894   6.903   6.287 -0.9463 -1.1374  0.0929
  876MOL0     H18197   3.869   6.696   6.139  0.9583 -1.1038  0.0740
  876MOL0     H18198   3.993   6.755   6.032 -3.5517 -1.6807 -1.5926
  876MOL0     H18199   4.170   6.703   6.231  1.6324 -2.8463  1.5879
  876MOL0     H18200   4.018   6.668   6.323 -4.1177  3.7494 -2.6058
  876MOL0     H18201   3.993   6.473   6.153  0.5822 -1.9849 -1.4529
  876MOL0     H18202   4.142   6.496   6.106 -1.6003  0.0717 -0.2036
  876MOL0     H18203   4.225   6.499   6.350 -2.1794  0.6820  1.6678
  876MOL0     H18204   4.049   6.430   6.382 -1.7482 -0.4202 -1.1730
  876MOL0     H18205   4.274   6.308   6.238 -0.1479 -2.1793 -1.6921
  876MOL0     H18206   4.199   6.244   6.390 -0.5343 -0.5043 -1.0268
  876MOL0     H18207   4.021   6.172   6.277 -0.2187  3.9164  1.0367
  876MOL0     H18208   4.057   6.260   6.127 -0.9113 -0.0725  0.6036
  876MOL0     H18209   4.224   6.112   6.056 -1.0946 -2.4985 -1.8006
  876MOL0     H18210   4.083   6.018   6.097  1.2915 -3.1839 -0.5814
  876MOL0     H18211   4.142   6.016   6.433 -0.7451 -0.7876  0.8867
  876MOL0     H18212   4.192   5.635   6.477 -1.9833 -0.3997 -0.1620
  876MOL0     H18213   4.186   5.763   6.600 -1.5827  3.4408 -0.3773
  876MOL0     H18214   3.988   5.854   6.502 -0.1396  0.4026 -1.8296
  876MOL0     H18215   3.950   5.700   6.574 -0.0847 -0.8064 -1.2325
  876MOL0     H18216   3.984   5.768   6.282 -0.9565 -1.0444 -2.0230
  876MOL0     H18217   3.836   5.721   6.370  0.4570  0.4510  0.6829
  876MOL0     H18218   4.090   5.556   6.307 -0.3680  0.2253 -1.9066
  876MOL0     H18219   3.941   5.543   6.213 -3.2078  1.2515  0.6054
  876MOL0     H18220   3.753   5.610   6.552  4.1031  0.4896 -3.0252
  876MOL0     H18221   3.417   5.521   6.644 -2.5474  2.6903 -2.0628
  876MOL0     H18222   3.534   5.652   6.648 -0.5194 -0.6681  1.2076
  876MOL0     H18223   3.410   5.633   6.512  1.3366 -1.9962 -4.2988
  876MOL0     H18224   3.175   5.312   6.276  2.2930 -0.0398  2.2265
  876MOL0     H18225   2.962   5.198   6.219 -1.0927  0.8620  0.9248
  876MOL0     H18226   2.825   5.059   6.163 -2.2456 -0.2152 -0.2896
  876MOL0     H18227   2.889   4.895   6.117 -1.4839 -0.7991 -1.3288
  876MOL0     H18228   2.644   4.958   6.283  2.5444  3.7370 -0.5210
  876MOL0     H18229   2.635   4.948   6.106  1.4999 -0.9930 -2.8659
  876MOL0     H18230   2.707   4.746   6.314  1.7899  1.9198  0.1420
  876MOL0     H18231   2.740   4.715   6.140  0.2487 -0.7648 -0.2784
  876MOL0     H18232   2.482   4.775   6.287  0.3948  0.4400  0.9492
  876MOL0     H18233   2.472   4.753   6.114 -2.1459 -1.1569  0.8377
  876MOL0     H18234   2.580   4.519   6.275 -0.5640  2.3658  2.2500
  876MOL0     H18235   2.496   4.522   6.116 -0.5970  1.5653 -0.5605
  876MOL0     H18236   2.363   4.431   6.320 -1.8705 -0.9428 -3.7249
  876MOL0     H18237   2.379   4.582   6.388 -0.5375  1.1968 -0.6379
  876MOL0     H18238   2.242   4.566   6.111  2.2909 -0.9305 -0.0303
  876MOL0     H18239   2.237   4.696   6.240  0.7866 -0.1286  1.0742
  876MOL0     H18240   2.023   4.596   6.254  2.4079  3.1301 -0.0516
  876MOL0     H18241   2.113   4.524   6.385 -0.9004 -1.3488 -0.1864
  876MOL0     H18242   3.068   4.868   6.497  1.2790  0.5145  1.9621
  876MOL0     H18243   3.290   4.979   6.521  1.0065 -0.7097 -1.3709
  876MOL0     H18244   3.567   5.232   6.296  2.0259 -1.1666 -0.2256
  876MOL0     H18245   3.816   5.286   6.284  0.7805  1.6732 -2.3298
  876MOL0     H18246   3.914   7.124   6.318 -1.8759 -2.1368  0.1016
  876MOL0     H18247   3.796   7.345   6.369  2.4270  1.4814 -1.0675
  876MOL0     H18248   3.639   7.716   6.288 -1.2717 -2.2077  0.2986
  876MOL0     H18249   3.560   7.951   6.322 -0.6166  1.9329  0.7179
  876MOL0     H18250   3.337   8.085   5.966  0.6090  2.1637 -0.7642
  876MOL0     H18251   3.192   8.080   6.074 -0.0598 -0.3166  0.3760
  876MOL0     H18252   3.264   8.301   6.165 -1.2700  2.1662 -2.4830
  876MOL0     H18253   3.216   8.293   6.008 -2.5303 -0.1961  1.9540
  876MOL0     H18254   3.413   8.427   5.975 -3.8439 -0.8487 -3.4259
  876MOL0     H18255   3.465   8.265   5.931 -0.2394  0.1671 -0.4400
  876MOL0     H18256   3.567   8.222   6.140  2.0032 -1.2985 -5.9085
  876MOL0     H18257   3.506   8.366   6.221  0.1453 -1.8952  1.7261
  876MOL0     H18258   3.836   8.539   6.039 -0.8805  0.1824 -1.1296
  876MOL0     H18259   3.220   7.859   6.080  2.1895 -1.0502 -3.1620
  876MOL0     H18260   3.251   7.624   6.103 -0.7606  0.6232 -1.5686
  877MOL0     O18261   1.819   6.739   5.750 -0.0905  0.6175  0.2613
  877MOL0     C18262   1.707   6.696   5.729  0.4688 -0.1265  0.4408
  877MOL0     O18263   1.667   6.580   5.672 -0.6293 -0.3528 -0.6080
  877MOL0     C18264   1.765   6.484   5.631  0.3635  0.3416  0.6587
  877MOL0     C18265   1.752   6.414   5.507 -0.0723 -0.4958  0.4816
  877MOL0     C18266   1.859   6.335   5.451  0.6255  1.0226  0.3592
  877MOL0     C18267   1.964   6.293   5.534  0.2858  0.0523 -0.2583
  877MOL0     O18268   2.059   6.209   5.490 -0.3448 -0.1523 -0.3468
  877MOL0     C18269   2.157   6.164   5.586 -0.4849  0.5327  0.4662
  877MOL0     C18270   2.240   6.048   5.528  0.5885  0.3382  1.1256
  877MOL0     C18271   2.324   6.078   5.405 -0.7850  0.0542  0.1754
  877MOL0     C18272   2.315   5.954   5.314 -0.1378  0.1467  1.3156
  877MOL0     C18273   2.397   5.837   5.378  1.0552  0.1665 -0.2242
  877MOL0     C18274   2.418   5.726   5.289  0.4454 -0.7180  1.3636
  877MOL0     C18275   2.298   5.650   5.233  0.0337  0.6273 -0.3582
  877MOL0     C18276   2.336   5.546   5.121  0.9276 -0.2469 -0.4263
  877MOL0     N18277   2.213   5.501   5.047 -0.0953  0.1762  0.2203
  877MOL0     C18278   2.136   5.393   5.081 -0.3224  0.2055 -0.4888
  877MOL0     C18279   2.031   5.399   4.995 -0.2982 -0.0323  0.1223
  877MOL0     C18280   1.922   5.307   4.981  0.8102 -0.5626 -0.6761
  877MOL0     C18281   1.823   5.315   5.089 -0.2839 -0.7609  0.0018
  877MOL0     C18282   1.682   5.257   5.038 -0.3887 -0.5592 -0.3054
  877MOL0     C18283   1.596   5.221   5.151  0.4307  0.0544 -2.2048
  877MOL0     O18284   1.562   5.336   5.230 -0.4674  0.2193 -0.2890
  877MOL0     C18285   1.451   5.321   5.318  0.0530 -0.1801  0.2059
  877MOL0     C18286   1.386   5.202   5.360 -0.6527  0.2481  0.4691
  877MOL0     C18287   1.282   5.195   5.446  1.1678  0.4540 -0.3218
  877MOL0     C18288   1.239   5.054   5.488 -0.1638  0.2422 -0.4486
  877MOL0     C18289   1.223   5.314   5.505 -0.3709 -0.3506 -0.0433
  877MOL0     C18290   1.113   5.328   5.608  0.1341 -0.1098 -0.1989
  877MOL0     O18291   1.112   5.238   5.710  0.3845  0.1239 -0.3910
  877MOL0     C18292   1.042   5.242   5.827  0.6369 -0.2275 -0.4737
  877MOL0     C18293   1.035   5.125   5.906 -0.0354  0.3755  0.1172
  877MOL0     C18294   0.960   5.126   6.019 -0.2889  0.0287 -0.6777
  877MOL0     C18295   0.882   5.235   6.066 -0.9406  0.2972  0.3627
  877MOL0     O18296   0.809   5.252   6.179 -0.4267 -0.0293  0.5961
  877MOL0     C18297   0.724   5.140   6.212 -0.3992 -0.2691 -0.9423
  877MOL0     C18298   0.586   5.207   6.227  0.2171 -0.0833  0.3857
  877MOL0     C18299   0.469   5.108   6.242 -0.3824  0.5385 -0.0593
  877MOL0     C18300   0.333   5.180   6.257  0.0240 -0.1422 -0.5802
  877MOL0     C18301   0.215   5.076   6.255 -0.7321 -0.1812 -0.0968
  877MOL0     C18302   0.077   5.144   6.244  0.4328  0.0366 -0.5491
  877MOL0     C18303  -0.018   5.075   6.150  1.0677  0.7153 -0.3480
  877MOL0     C18304  -0.169   5.111   6.161  0.0897  0.2099 -0.4588
  877MOL0    Cl18305  -0.194   5.275   6.107 -0.4883  0.2451  0.2259
  877MOL0     C18306   0.886   5.346   5.980  0.5515 -0.5169 -0.8976
  877MOL0     C18307   0.962   5.355   5.864 -0.6256  0.0281  0.1270
  877MOL0     O18308   1.047   5.430   5.588 -0.1995  0.4641  0.1613
  877MOL0     C18309   1.293   5.432   5.466 -0.0473 -0.4750  0.0965
  877MOL0     C18310   1.394   5.439   5.374  0.0843 -0.7591  0.6859
  877MOL0     N18311   2.041   5.513   4.920 -0.3440  0.2436  0.2291
  877MOL0     N18312   2.153   5.575   4.951 -0.1148  0.3647  0.4380
  877MOL0     C18313   1.964   6.359   5.660  0.3038  0.6021  0.5083
  877MOL0     C18314   1.874   6.456   5.710  0.0980  0.5860 -0.2743
  877MOL0     C18315   1.600   6.791   5.762  0.6260 -0.4194  0.4748
  877MOL0     C18316   1.603   6.897   5.858  0.1453  0.1570  1.0736
  877MOL0     C18317   1.491   6.979   5.880  0.2599  0.4056  0.1051
  877MOL0     C18318   1.368   6.954   5.819  0.3110 -0.7539 -0.4364
  877MOL0     O18319   1.248   7.020   5.846 -0.7912 -0.7695 -0.2346
  877MOL0     C18320   1.250   7.155   5.909  0.5876 -0.9131  0.4039
  877MOL0     C18321   1.102   7.187   5.929 -0.6481 -0.5596  0.7902
  877MOL0     C18322   1.036   7.226   5.797  0.3889  0.0951 -0.1056
  877MOL0     C18323   0.949   7.347   5.815  1.4052 -1.3725  0.4133
  877MOL0     C18324   0.866   7.345   5.684 -0.1019 -0.7780  0.1328
  877MOL0     C18325   0.794   7.328   5.584  0.0223 -0.0418  0.3238
  877MOL0     C18326   1.353   6.851   5.724  0.4467 -0.1984 -0.9795
  877MOL0     C18327   1.474   6.776   5.693  0.1027  0.3347  0.0868
  877MOL0     H18328   1.660   6.430   5.452  0.3007 -1.2452 -0.3845
  877MOL0     H18329   1.863   6.302   5.348 -1.1610  2.2268 -0.1279
  877MOL0     H18330   2.215   6.247   5.625  2.3401 -1.7469  1.4633
  877MOL0     H18331   2.102   6.116   5.668  0.4359 -1.0115  0.2154
  877MOL0     H18332   2.291   5.991   5.607 -0.0951 -1.5560  0.2695
  877MOL0     H18333   2.170   5.969   5.498  1.5385 -0.4946  1.0342
  877MOL0     H18334   2.280   6.162   5.350  0.2059 -0.4646 -1.4675
  877MOL0     H18335   2.430   6.095   5.428 -0.1655 -2.7578 -0.2476
  877MOL0     H18336   2.212   5.924   5.296  0.3903 -0.1319 -1.8031
  877MOL0     H18337   2.349   5.972   5.211 -0.8551  0.3220  1.1070
  877MOL0     H18338   2.488   5.872   5.428  0.6557  0.0206  0.6200
  877MOL0     H18339   2.334   5.800   5.459  0.0255 -3.2030 -2.3624
  877MOL0     H18340   2.472   5.779   5.211 -3.7484  1.9448  0.0093
  877MOL0     H18341   2.477   5.648   5.339  2.1586 -0.5996 -0.3274
  877MOL0     H18342   2.235   5.609   5.312 -0.4155 -1.5714 -1.7592
  877MOL0     H18343   2.246   5.733   5.183 -1.5790 -1.1147 -1.7060
  877MOL0     H18344   2.393   5.466   5.170  1.3327  0.7148  0.7282
  877MOL0     H18345   2.396   5.595   5.043 -1.0136 -0.8320 -2.3873
  877MOL0     H18346   2.148   5.319   5.159 -2.2182 -2.2170 -2.3420
  877MOL0     H18347   1.856   5.346   4.902  0.8700  1.6283  0.2839
  877MOL0     H18348   1.956   5.203   4.975 -0.7556 -1.3391  2.0269
  877MOL0     H18349   1.820   5.418   5.124 -1.7731  0.3732 -3.1028
  877MOL0     H18350   1.858   5.274   5.184  0.6145  0.5569  0.2542
  877MOL0     H18351   1.714   5.165   4.988  2.7097 -1.3901  2.7491
  877MOL0     H18352   1.634   5.325   4.968 -1.6635 -0.2260  0.8558
  877MOL0     H18353   1.654   5.154   5.214  2.2786  0.2037 -3.6698
  877MOL0     H18354   1.504   5.167   5.128 -0.3904 -0.7116  1.9437
  877MOL0     H18355   1.430   5.106   5.333 -3.6370 -2.0147  2.9807
  877MOL0     H18356   1.184   5.050   5.582  1.9551  2.3993  0.9621
  877MOL0     H18357   1.187   5.003   5.406 -1.7077 -0.8822  1.1687
  877MOL0     H18358   1.325   4.996   5.521 -1.7160 -2.0296 -0.1423
  877MOL0     H18359   1.096   5.039   5.881  2.2858  2.0598 -0.3142
  877MOL0     H18360   0.961   5.037   6.081  0.2855 -0.1673 -0.9643
  877MOL0     H18361   0.726   5.066   6.131  1.0205 -3.2819  1.6418
  877MOL0     H18362   0.744   5.088   6.306 -3.2669 -1.4044 -0.8810
  877MOL0     H18363   0.587   5.256   6.324 -1.4871 -1.1020  0.9626
  877MOL0     H18364   0.568   5.278   6.146  3.0512 -0.9895 -1.1786
  877MOL0     H18365   0.488   5.044   6.328  1.7575 -1.1761 -1.6806
  877MOL0     H18366   0.466   5.038   6.157 -2.2956  0.9321 -0.3693
  877MOL0     H18367   0.327   5.243   6.346 -1.6691  0.0251 -0.7759
  877MOL0     H18368   0.330   5.234   6.162 -0.8427 -0.9217 -1.0241
  877MOL0     H18369   0.217   5.017   6.347 -3.2046 -1.9535 -1.0726
  877MOL0     H18370   0.230   4.993   6.185 -1.3949 -0.1472 -0.2849
  877MOL0     H18371   0.036   5.157   6.345  2.4109  0.9144  0.1955
  877MOL0     H18372   0.093   5.245   6.204  2.3811 -0.1202 -0.2814
  877MOL0     H18373  -0.010   4.970   6.179  1.7015  1.0903  0.8717
  877MOL0     H18374   0.014   5.080   6.045  1.7648  0.5668 -0.1502
  877MOL0     H18375  -0.215   5.091   6.258 -0.5425 -2.9987 -1.3127
  877MOL0     H18376  -0.232   5.056   6.091 -0.9396  1.1895 -0.3209
  877MOL0     H18377   0.831   5.435   6.010 -0.9760 -0.3536 -3.7471
  877MOL0     H18378   0.975   5.447   5.808  2.1391 -1.1511 -1.4041
  877MOL0     H18379   1.276   5.524   5.519  1.2987 -0.4987  0.6023
  877MOL0     H18380   1.439   5.536   5.353  0.3900 -0.4471  2.5707
  877MOL0     H18381   2.038   6.341   5.737 -0.4275 -1.5719  0.7791
  877MOL0     H18382   1.886   6.507   5.805  0.2136 -1.0921  0.6472
  877MOL0     H18383   1.691   6.935   5.908  0.6053  1.0713 -0.3543
  877MOL0     H18384   1.521   7.053   5.953  1.7219 -0.6396  0.6214
  877MOL0     H18385   1.302   7.146   6.005  1.5632  0.1910 -0.0012
  877MOL0     H18386   1.292   7.234   5.846  0.5489  0.3711  1.9363
  877MOL0     H18387   1.108   7.271   6.000  3.0875 -0.7297  0.8659
  877MOL0     H18388   1.060   7.094   5.969 -2.9245 -0.3101 -0.8206
  877MOL0     H18389   0.966   7.149   5.763  1.1526  0.6884 -3.4303
  877MOL0     H18390   1.116   7.234   5.722 -0.5608 -0.6231 -1.2185
  877MOL0     H18391   1.010   7.436   5.831 -0.8377 -0.1438  2.8229
  877MOL0     H18392   0.890   7.332   5.906  1.5351  0.1322  0.7679
  877MOL0     H18393   0.722   7.307   5.508 -3.6939  0.9796  3.2747
  877MOL0     H18394   1.267   6.817   5.668 -1.0161 -0.9060  1.5495
  877MOL0     H18395   1.459   6.697   5.621  0.4732 -0.4533  0.8628
  878MOL0     O18396   7.665   3.056   3.942 -0.4642 -0.1943 -0.6252
  878MOL0     C18397   7.592   3.054   4.043 -0.2835 -0.4799 -1.0357
  878MOL0     O18398   7.547   3.163   4.102  0.0510 -0.4843 -0.3978
  878MOL0     C18399   7.573   3.290   4.071  0.1158  0.4715 -0.1159
  878MOL0     C18400   7.587   3.335   3.939 -0.9103 -0.6318 -0.5554
  878MOL0     C18401   7.638   3.467   3.919  1.1675  1.1501  0.0312
  878MOL0     C18402   7.642   3.563   4.014 -0.0628  0.6257 -1.0875
  878MOL0     O18403   7.665   3.691   3.980  0.1327 -0.8001  0.2324
  878MOL0     C18404   7.624   3.801   4.071 -0.6508 -0.0469 -0.4358
  878MOL0     C18405   7.608   3.923   3.966  0.7116  0.1611 -1.0443
  878MOL0     C18406   7.618   4.056   4.048  0.3699 -0.3792  0.3562
  878MOL0     C18407   7.634   4.177   3.961 -0.1234  0.6569  1.2125
  878MOL0     C18408   7.567   4.183   3.823 -0.3230 -0.1855  0.5834
  878MOL0     C18409   7.614   4.316   3.760  1.0807  0.0301  0.9481
  878MOL0     C18410   7.528   4.351   3.636  0.1039  0.3441 -0.1831
  878MOL0     C18411   7.604   4.443   3.530 -0.5631  0.0736  0.3071
  878MOL0     N18412   7.698   4.360   3.446  0.6667 -0.9034 -0.4337
  878MOL0     C18413   7.677   4.246   3.374 -0.2967  0.4055  0.3536
  878MOL0     C18414   7.796   4.213   3.316 -0.2559  0.9386  0.1302
  878MOL0     C18415   7.817   4.085   3.237 -0.0819 -0.1191  0.4626
  878MOL0     C18416   7.932   4.103   3.143  0.7259  0.6758 -0.8604
  878MOL0     C18417   7.974   3.972   3.077  1.3432 -0.4541  0.0338
  878MOL0     C18418   8.107   3.981   3.011 -0.0509 -0.2102  0.4374
  878MOL0     O18419   8.202   3.918   3.095  0.0663 -1.5275 -1.3201
  878MOL0     C18420   8.332   3.959   3.082 -0.5424 -0.5799 -0.0420
  878MOL0     C18421   8.393   4.000   2.964 -1.0370  0.7389  0.1215
  878MOL0     C18422   8.520   4.056   2.959  0.0819 -0.3734  0.7491
  878MOL0     C18423   8.560   4.106   2.820 -0.0618 -0.0714  0.2689
  878MOL0     C18424   8.598   4.067   3.084 -0.2399 -0.6333  0.5449
  878MOL0     C18425   8.734   4.111   3.085 -0.2892 -0.3856 -0.5216
  878MOL0     O18426   8.773   4.211   2.999 -0.1902  0.3755  0.1679
  878MOL0     C18427   8.880   4.282   3.039  1.2459 -1.6260  0.6671
  878MOL0     C18428   9.002   4.227   3.076 -0.4467  0.7649 -0.2241
  878MOL0     C18429   9.125   4.293   3.104 -0.0247  0.4626  0.7411
  878MOL0     C18430   9.136   4.429   3.090  0.0358  1.0968 -0.1923
  878MOL0     O18431   9.251   4.501   3.117 -0.2036  0.2818  0.2093
  878MOL0     C18432   9.251   4.637   3.163 -0.7839  1.0461  0.1019
  878MOL0     C18433   9.248   4.749   3.051 -0.3260  0.3062  0.0340
  878MOL0     C18434   9.318   4.878   3.095  0.2114  0.3046  0.3036
  878MOL0     C18435   9.240   4.953   3.198 -0.0162  0.4142 -0.3226
  878MOL0     C18436   9.319   5.079   3.241 -0.0148 -0.4476  0.3270
  878MOL0     C18437   9.464   5.056   3.280  0.2793  0.3721  0.2222
  878MOL0     C18438   9.475   4.947   3.387 -1.2465 -0.0861  0.9701
  878MOL0     C18439   9.625   4.927   3.393  0.1474 -0.3116 -0.5229
  878MOL0    Cl18440   9.687   4.839   3.259 -0.0858 -0.1554  0.2200
  878MOL0     C18441   9.022   4.501   3.044  0.2090  0.2284 -0.1304
  878MOL0     C18442   8.901   4.423   3.017 -0.5643  0.0404  0.4256
  878MOL0     O18443   8.796   4.052   3.172  0.5030 -0.3943  0.5336
  878MOL0     C18444   8.540   4.017   3.206  0.8713  0.2785  0.0314
  878MOL0     C18445   8.411   3.963   3.197 -0.2398 -0.0644 -0.3811
  878MOL0     N18446   7.890   4.311   3.361 -0.7867 -0.2605  0.5312
  878MOL0     N18447   7.833   4.390   3.446 -0.1231 -0.0782  0.1168
  878MOL0     C18448   7.610   3.523   4.146  0.1556  0.4219 -0.2503
  878MOL0     C18449   7.572   3.390   4.164  0.2906 -0.4613  0.2228
  878MOL0     C18450   7.552   2.922   4.092 -0.9996 -0.3754 -0.1131
  878MOL0     C18451   7.433   2.896   4.150  0.6062  0.9300 -0.5362
  878MOL0     C18452   7.406   2.761   4.175  0.4501 -0.0630 -0.9067
  878MOL0     C18453   7.503   2.659   4.176  0.4695 -0.5127  0.1872
  878MOL0     O18454   7.478   2.533   4.215 -0.0849 -0.4095 -0.4998
  878MOL0     C18455   7.575   2.444   4.273  0.1338  0.1081 -0.2590
  878MOL0     C18456   7.550   2.389   4.416 -0.3062  1.1671 -0.1351
  878MOL0     C18457   7.673   2.309   4.455  0.5408  1.3073  0.0467
  878MOL0     C18458   7.676   2.154   4.448 -0.7622  0.7861  0.4855
  878MOL0     C18459   7.582   2.101   4.550  0.4911 -0.9416 -0.2762
  878MOL0     C18460   7.525   2.048   4.643 -0.1867 -0.0859 -1.0192
  878MOL0     C18461   7.632   2.701   4.143  0.3571  0.3218  0.0978
  878MOL0     C18462   7.651   2.826   4.098  0.1000 -0.6577  0.5652
  878MOL0     H18463   7.579   3.264   3.857 -1.3191 -3.7258  1.9466
  878MOL0     H18464   7.660   3.492   3.816  1.1819  0.1133 -0.2307
  878MOL0     H18465   7.524   3.797   4.115 -0.2672  0.4000  0.4833
  878MOL0     H18466   7.708   3.821   4.138  1.5945 -1.6151 -2.6047
  878MOL0     H18467   7.676   3.916   3.880  2.8817  4.3146  0.0749
  878MOL0     H18468   7.507   3.905   3.930 -0.5246 -1.9871  2.8428
  878MOL0     H18469   7.524   4.069   4.103  0.3024 -0.1562  0.1880
  878MOL0     H18470   7.695   4.043   4.124  1.8759  0.2563 -1.0066
  878MOL0     H18471   7.604   4.258   4.029 -0.3843  3.3080 -1.8513
  878MOL0     H18472   7.741   4.185   3.941 -0.0259 -3.8167 -1.6514
  878MOL0     H18473   7.600   4.103   3.756 -1.8725  0.2293 -0.7663
  878MOL0     H18474   7.458   4.177   3.817 -0.4183  1.9588 -2.7424
  878MOL0     H18475   7.590   4.398   3.828 -3.3612 -1.2017  1.1589
  878MOL0     H18476   7.717   4.315   3.723  0.9807  2.9438  0.3849
  878MOL0     H18477   7.482   4.260   3.594 -3.1494  1.9597 -0.4446
  878MOL0     H18478   7.445   4.413   3.672 -1.8239  0.0987 -3.7148
  878MOL0     H18479   7.645   4.533   3.576 -4.3092  0.5335  3.2166
  878MOL0     H18480   7.523   4.484   3.469 -2.3751 -0.9396  1.9216
  878MOL0     H18481   7.584   4.189   3.370  0.8636 -1.4748 -1.4367
  878MOL0     H18482   7.843   4.005   3.306  0.9888 -0.4843 -0.3244
  878MOL0     H18483   7.727   4.041   3.193  1.3898 -3.5967  0.6567
  878MOL0     H18484   8.017   4.127   3.207 -0.6457 -2.3943  2.4773
  878MOL0     H18485   7.903   4.178   3.068  1.1036  1.7447  0.0235
  878MOL0     H18486   7.895   3.957   3.003 -0.2448  2.1714  1.0880
  878MOL0     H18487   7.970   3.893   3.153 -0.1114  0.9272  1.4593
  878MOL0     H18488   8.132   4.085   2.989 -1.8021 -0.1270 -1.5720
  878MOL0     H18489   8.108   3.931   2.913 -0.5640 -1.9528  1.2653
  878MOL0     H18490   8.346   3.981   2.868  1.1130  1.8089 -1.2252
  878MOL0     H18491   8.585   4.212   2.819  1.5926 -0.4172 -0.7315
  878MOL0     H18492   8.659   4.060   2.807  0.2190  0.9534 -1.6226
  878MOL0     H18493   8.495   4.093   2.733  0.6782  0.2923 -0.3555
  878MOL0     H18494   9.007   4.119   3.091 -2.1193  0.7645  0.6249
  878MOL0     H18495   9.216   4.235   3.119 -0.4313 -0.8138 -1.3633
  878MOL0     H18496   9.171   4.649   3.237 -1.7028 -0.0092 -0.6856
  878MOL0     H18497   9.341   4.663   3.220 -1.4777  0.7393  1.3828
  878MOL0     H18498   9.305   4.706   2.969  0.4707  1.1435  0.1381
  878MOL0     H18499   9.143   4.772   3.030 -0.3285  1.1835  0.9046
  878MOL0     H18500   9.323   4.948   3.010  0.8712  1.3799  1.2101
  878MOL0     H18501   9.418   4.846   3.124 -0.8994 -3.6687  0.3820
  878MOL0     H18502   9.137   4.984   3.177 -0.8990  0.1130  2.9048
  878MOL0     H18503   9.228   4.881   3.280 -2.2034 -1.6840 -2.3004
  878MOL0     H18504   9.268   5.131   3.323  1.8992  3.0284 -0.4845
  878MOL0     H18505   9.331   5.154   3.161 -2.3564 -1.9679 -1.6013
  878MOL0     H18506   9.513   5.025   3.187  1.2046 -0.5229  0.9746
  878MOL0     H18507   9.503   5.152   3.313 -0.9387  0.6257  0.9812
  878MOL0     H18508   9.425   4.852   3.368 -0.9744  0.0504 -0.5134
  878MOL0     H18509   9.437   4.983   3.483  0.2696 -0.7770  1.8700
  878MOL0     H18510   9.631   4.866   3.484  0.0160 -1.6335 -1.3629
  878MOL0     H18511   9.679   5.018   3.418 -2.4373  1.1659  0.0940
  878MOL0     H18512   9.018   4.609   3.032 -1.4701  0.1428 -0.6177
  878MOL0     H18513   8.827   4.478   2.960 -0.9990 -1.0198 -0.0566
  878MOL0     H18514   8.585   4.025   3.304  0.5641 -0.5346  0.2395
  878MOL0     H18515   8.356   3.931   3.285 -1.6523 -0.0371 -1.2250
  878MOL0     H18516   7.606   3.582   4.237 -1.5248 -0.7459  0.4873
  878MOL0     H18517   7.549   3.360   4.265 -0.7066 -2.6494 -0.5869
  878MOL0     H18518   7.368   2.977   4.179  2.5505  1.6704  2.1092
  878MOL0     H18519   7.315   2.716   4.212  0.3940  1.3342  0.8038
  878MOL0     H18520   7.574   2.354   4.210 -0.7508  1.2226 -1.9106
  878MOL0     H18521   7.673   2.492   4.271 -0.9873  2.7738  2.0954
  878MOL0     H18522   7.458   2.334   4.400 -0.3041  1.3695 -0.9265
  878MOL0     H18523   7.538   2.482   4.472 -1.3182  1.4637 -0.8143
  878MOL0     H18524   7.703   2.328   4.558  3.3868  1.5651 -0.7445
  878MOL0     H18525   7.756   2.340   4.391  0.6742 -0.9628 -1.0052
  878MOL0     H18526   7.779   2.125   4.466 -0.1054  1.9104 -1.2155
  878MOL0     H18527   7.650   2.124   4.346  1.5838  3.4419 -1.0468
  878MOL0     H18528   7.478   2.001   4.727  6.5529 -1.8459  2.4853
  878MOL0     H18529   7.720   2.639   4.136 -0.2621 -0.5965  0.2070
  878MOL0     H18530   7.746   2.859   4.057 -1.0818  0.8733 -1.0905
  879MOL0     O18531   8.639  10.545   7.212  0.1858 -1.2954  1.0864
  879MOL0     C18532   8.668  10.560   7.092 -0.3587 -0.4733 -0.3093
  879MOL0     O18533   8.654  10.455   6.995 -0.6206  0.1165 -1.0687
  879MOL0     C18534   8.612  10.339   7.041  0.4745 -0.0788 -0.3954
  879MOL0     C18535   8.473  10.311   7.056 -1.1407 -0.1424  1.2459
  879MOL0     C18536   8.434  10.188   7.104  0.3280  0.0144 -0.0069
  879MOL0     C18537   8.515  10.082   7.133 -0.7997  0.8921 -0.1348
  879MOL0     O18538   8.453   9.967   7.158  0.3636  0.1122 -0.4556
  879MOL0     C18539   8.511   9.860   7.226  0.0762  0.8938  0.1631
  879MOL0     C18540   8.453   9.731   7.192  0.1945  0.6250  0.2115
  879MOL0     C18541   8.528   9.653   7.074 -0.3430 -0.2993 -0.1896
  879MOL0     C18542   8.457   9.523   7.053  0.6656  0.3379  0.2297
  879MOL0     C18543   8.469   9.462   6.915 -0.3446  0.1697  0.3496
  879MOL0     C18544   8.404   9.319   6.898  0.6645 -0.5268 -0.5772
  879MOL0     C18545   8.389   9.275   6.749 -1.1093 -0.5768 -0.5151
  879MOL0     C18546   8.325   9.135   6.718 -0.4814 -0.4288  0.5424
  879MOL0     N18547   8.425   9.028   6.720  0.5969  0.6278 -0.4220
  879MOL0     C18548   8.514   9.013   6.617  0.0391 -0.5060  0.7876
  879MOL0     C18549   8.618   8.929   6.666  0.3582 -0.0404 -0.1973
  879MOL0     C18550   8.748   8.894   6.591  0.1217 -0.3661  0.8136
  879MOL0     C18551   8.755   8.746   6.552  0.4207  0.7145 -0.4109
  879MOL0     C18552   8.869   8.712   6.456 -0.1940 -0.4264  0.0772
  879MOL0     C18553   8.924   8.578   6.456  0.0054  0.5252 -0.2949
  879MOL0     O18554   8.987   8.558   6.578  1.2392 -0.3200 -0.1856
  879MOL0     C18555   9.012   8.430   6.627 -0.2768  0.3137 -0.2858
  879MOL0     C18556   9.133   8.419   6.697  0.4970  0.4873  0.2263
  879MOL0     C18557   9.155   8.293   6.763  0.4280 -0.0432 -1.1358
  879MOL0     C18558   9.285   8.287   6.847 -0.3932  0.0329  0.2606
  879MOL0     C18559   9.057   8.183   6.768 -0.3388 -0.1143 -0.3369
  879MOL0     C18560   9.083   8.049   6.823  0.1532 -0.1307 -0.0130
  879MOL0     O18561   9.160   8.033   6.946  0.3349  0.1295  0.8538
  879MOL0     C18562   9.202   7.911   6.985  1.0046  0.4833 -0.0220
  879MOL0     C18563   9.113   7.815   7.036 -0.4672 -0.3267  0.5419
  879MOL0     C18564   9.154   7.690   7.076 -0.6725  0.1307 -1.0333
  879MOL0     C18565   9.293   7.653   7.084 -0.0756 -1.2191  0.3649
  879MOL0     O18566   9.327   7.533   7.127  0.3550 -0.0585 -0.4094
  879MOL0     C18567   9.447   7.482   7.078  0.6775 -0.2736  0.0077
  879MOL0     C18568   9.456   7.337   7.124  0.2026  0.9490  0.8368
  879MOL0     C18569   9.600   7.289   7.143 -0.4791 -0.1473  0.0158
  879MOL0     C18570   9.606   7.147   7.192  0.4488 -0.2712  0.7966
  879MOL0     C18571   9.592   7.045   7.075 -2.1024 -0.1217  0.3839
  879MOL0     C18572   9.543   6.907   7.105  0.1211  0.8115  0.6791
  879MOL0     C18573   9.531   6.835   6.971 -0.6353  0.4823 -1.6378
  879MOL0     C18574   9.480   6.693   7.005  0.3726 -0.9622  0.4252
  879MOL0    Cl18575   9.417   6.632   6.844 -0.4947 -0.0204 -0.0235
  879MOL0     C18576   9.385   7.756   7.033  0.8612 -0.0935  0.3952
  879MOL0     C18577   9.341   7.883   6.993 -0.0196 -0.2844  0.6817
  879MOL0     O18578   9.040   7.961   6.759 -1.3093 -0.3379 -0.3289
  879MOL0     C18579   8.939   8.209   6.691 -0.5161  0.8938  0.1120
  879MOL0     C18580   8.923   8.325   6.630 -1.1934  0.2462  0.1414
  879MOL0     N18581   8.569   8.882   6.789 -0.9151 -0.1827 -0.1931
  879MOL0     N18582   8.456   8.939   6.819 -0.1327  0.1647  0.0062
  879MOL0     C18583   8.658  10.107   7.121  0.9504 -0.3207 -0.5473
  879MOL0     C18584   8.703  10.231   7.073 -0.6444 -1.2896 -0.1760
  879MOL0     C18585   8.741  10.682   7.048  0.0724 -0.7548  0.4516
  879MOL0     C18586   8.796  10.779   7.139 -0.4201 -0.2042 -0.5436
  879MOL0     C18587   8.873  10.888   7.093  0.0664  1.6862 -0.2973
  879MOL0     C18588   8.871  10.911   6.949  0.4316  0.0693 -0.0538
  879MOL0     O18589   8.935  11.025   6.906 -0.9441  0.2508 -0.3348
  879MOL0     C18590   8.870  11.139   6.859 -0.6130 -1.0413  0.1438
  879MOL0     C18591   8.742  11.181   6.927 -0.8625  0.4537  0.0901
  879MOL0     C18592   8.767  11.297   7.030 -0.4220 -0.0460  0.3823
  879MOL0     C18593   8.840  11.249   7.153  0.4834  0.0410 -0.7276
  879MOL0     C18594   8.743  11.182   7.239 -0.0505  0.1361 -0.7266
  879MOL0     C18595   8.654  11.132   7.308 -0.0898  0.3425 -0.3494
  879MOL0     C18596   8.815  10.819   6.865  0.0034 -0.0156  0.2842
  879MOL0     C18597   8.757  10.710   6.906  0.5942 -0.0033 -0.4873
  879MOL0     H18598   8.406  10.396   7.058 -1.1232 -0.1220  0.9986
  879MOL0     H18599   8.328  10.176   7.127  0.2031  1.6380  0.4004
  879MOL0     H18600   8.618   9.849   7.212  0.8724  0.7019  4.8804
  879MOL0     H18601   8.490   9.869   7.333 -0.6220 -0.4371  0.1560
  879MOL0     H18602   8.451   9.667   7.280 -1.1911 -1.5272 -1.2917
  879MOL0     H18603   8.351   9.759   7.163 -0.2072  2.8185  3.1994
  879MOL0     H18604   8.538   9.712   6.983  1.3788 -0.1934  0.0224
  879MOL0     H18605   8.631   9.626   7.101 -0.6322 -0.8008  0.4307
  879MOL0     H18606   8.493   9.453   7.129  0.3863 -0.3039 -0.2186
  879MOL0     H18607   8.351   9.537   7.077  1.0754  0.8087  1.9046
  879MOL0     H18608   8.419   9.527   6.843 -1.5453  1.2064  2.0532
  879MOL0     H18609   8.569   9.451   6.873 -0.4201  1.9494 -0.3886
  879MOL0     H18610   8.472   9.248   6.946  1.1430  2.3097  3.4071
  879MOL0     H18611   8.305   9.318   6.944  1.6982 -0.8374  1.7771
  879MOL0     H18612   8.327   9.353   6.704 -0.5783 -0.6794 -1.4355
  879MOL0     H18613   8.484   9.285   6.697 -0.6788  1.0547  0.5214
  879MOL0     H18614   8.274   9.147   6.621  3.2018 -0.3908 -1.5696
  879MOL0     H18615   8.244   9.121   6.790  1.0795 -1.5905  2.1385
  879MOL0     H18616   8.505   9.049   6.515  0.3823  1.0193  1.2687
  879MOL0     H18617   8.786   8.967   6.518  0.6254 -0.9844  0.4422
  879MOL0     H18618   8.829   8.923   6.659 -0.4609 -1.8179  2.1719
  879MOL0     H18619   8.657   8.711   6.518  0.6800 -1.5130  0.9148
  879MOL0     H18620   8.765   8.688   6.645  2.8268 -0.6747 -1.4396
  879MOL0     H18621   8.944   8.787   6.486 -0.5120 -0.6530  1.5400
  879MOL0     H18622   8.833   8.727   6.354  1.9827  1.3944 -0.5177
  879MOL0     H18623   8.999   8.562   6.378  0.4323  0.8399  0.0505
  879MOL0     H18624   8.839   8.510   6.446 -0.5807  1.0707  0.7560
  879MOL0     H18625   9.201   8.503   6.702 -1.2617  2.0551 -0.6758
  879MOL0     H18626   9.272   8.306   6.954  0.0782 -2.8118  0.9265
  879MOL0     H18627   9.325   8.185   6.856 -0.0316  0.3412  3.1069
  879MOL0     H18628   9.359   8.346   6.794 -0.3515 -0.0374  0.2413
  879MOL0     H18629   9.010   7.846   7.048 -0.5720  0.7831 -2.3649
  879MOL0     H18630   9.092   7.609   7.113  0.9646 -1.1016 -0.8493
  879MOL0     H18631   9.450   7.487   6.969 -0.6572  0.4003 -0.0281
  879MOL0     H18632   9.537   7.538   7.103  1.7572 -1.5063 -0.9867
  879MOL0     H18633   9.393   7.309   7.208  1.9728 -1.6575  1.4299
  879MOL0     H18634   9.433   7.286   7.030  2.3103  0.8953  0.2843
  879MOL0     H18635   9.653   7.347   7.220  0.5083 -1.3832  0.3139
  879MOL0     H18636   9.640   7.302   7.042 -2.7571  5.1991 -0.5000
  879MOL0     H18637   9.691   7.119   7.255 -0.4354 -1.5702  1.4356
  879MOL0     H18638   9.527   7.133   7.266  2.5315 -0.9056  3.0158
  879MOL0     H18639   9.692   7.037   7.031 -0.3712  2.1985  3.4807
  879MOL0     H18640   9.530   7.096   7.001  0.0011  1.2395 -0.5247
  879MOL0     H18641   9.606   6.861   7.181  0.4009 -0.6073 -0.3793
  879MOL0     H18642   9.447   6.922   7.156  1.6431 -0.6772  4.3348
  879MOL0     H18643   9.622   6.829   6.911  0.9176  0.0278  0.6263
  879MOL0     H18644   9.456   6.894   6.918 -2.5288 -0.6524 -0.3697
  879MOL0     H18645   9.398   6.699   7.078  1.2152 -1.1773  1.4059
  879MOL0     H18646   9.561   6.631   7.044  1.5249  1.2206  1.7020
  879MOL0     H18647   9.491   7.734   7.030  0.7616 -0.6542  0.9284
  879MOL0     H18648   9.419   7.952   6.966 -0.8200  0.4177  0.1282
  879MOL0     H18649   8.885   8.118   6.669 -0.0345  0.4687  0.6602
  879MOL0     H18650   8.832   8.329   6.571 -1.0174  2.2902 -0.0531
  879MOL0     H18651   8.722  10.023   7.147 -1.3739 -1.9712  0.0988
  879MOL0     H18652   8.809  10.246   7.055 -0.3021 -2.5924  0.5648
  879MOL0     H18653   8.782  10.765   7.245 -0.3358 -2.4511 -0.7842
  879MOL0     H18654   8.902  10.956   7.173 -0.9290 -0.0705  1.6507
  879MOL0     H18655   8.945  11.219   6.854  0.6774 -2.2810 -3.1927
  879MOL0     H18656   8.853  11.119   6.753 -0.1426 -1.9980  0.2350
  879MOL0     H18657   8.681  11.099   6.967  0.0083  0.1030  0.7302
  879MOL0     H18658   8.686  11.232   6.848  0.1106  5.5400  2.3075
  879MOL0     H18659   8.675  11.348   7.057  0.3055  0.8192  1.2906
  879MOL0     H18660   8.835  11.375   6.995  1.2448 -1.3190  0.6513
  879MOL0     H18661   8.872  11.333   7.215 -0.5454 -1.2760  1.7252
  879MOL0     H18662   8.932  11.194   7.133 -0.5319 -1.6668 -0.9301
  879MOL0     H18663   8.576  11.103   7.375  1.2889  0.9120  1.5929
  879MOL0     H18664   8.832  10.837   6.759 -1.8737 -0.4237 -0.1206
  879MOL0     H18665   8.740  10.635   6.830  1.1807  0.9256 -1.5623
  880MOL0     O18666   8.012  10.515   3.120 -0.0656 -0.4895 -0.3371
  880MOL0     C18667   8.101  10.595   3.137  0.3343 -0.4944 -0.6013
  880MOL0     O18668   8.094  10.729   3.101 -0.5997 -0.2884  0.2177
  880MOL0     C18669   8.013  10.771   3.007  0.6955  0.0855 -0.4116
  880MOL0     C18670   8.071  10.820   2.885  0.1848 -0.6021  0.1205
  880MOL0     C18671   7.991  10.881   2.785 -0.1886  0.0854  0.1431
  880MOL0     C18672   7.854  10.884   2.803 -0.2642 -0.4387 -0.0641
  880MOL0     O18673   7.788  10.932   2.695 -0.4305 -0.1026 -0.3756
  880MOL0     C18674   7.671  10.996   2.713  0.3595  0.0718  0.2485
  880MOL0     C18675   7.625  11.040   2.575  0.3682  0.5816  0.6376
  880MOL0     C18676   7.491  11.105   2.579  0.0804 -0.2034 -0.1100
  880MOL0     C18677   7.438  11.104   2.436 -0.2070  0.1419  0.7369
  880MOL0     C18678   7.377  10.971   2.396 -0.1468 -0.6102 -0.0472
  880MOL0     C18679   7.222  10.945   2.405 -0.2318 -0.4094 -0.0239
  880MOL0     C18680   7.172  10.815   2.341 -1.2748 -0.1697  0.1481
  880MOL0     C18681   7.021  10.809   2.333 -0.0482  0.1170  0.4584
  880MOL0     N18682   6.960  10.754   2.458 -0.3631 -0.5423  0.6717
  880MOL0     C18683   6.922  10.621   2.469 -0.3325  0.6313 -0.1758
  880MOL0     C18684   6.874  10.615   2.593 -0.1282 -0.7604 -0.1122
  880MOL0     C18685   6.814  10.498   2.654 -0.4132 -0.3622 -0.0485
  880MOL0     C18686   6.906  10.372   2.668  0.6374  0.2781 -0.2744
  880MOL0     C18687   7.025  10.389   2.745 -0.5238  1.0739 -0.0858
  880MOL0     C18688   7.092  10.259   2.756  0.6120 -0.3899 -0.2789
  880MOL0     O18689   7.129  10.214   2.623 -0.3321 -0.4894 -1.1787
  880MOL0     C18690   7.114  10.081   2.611  0.0882 -0.1963 -1.1280
  880MOL0     C18691   6.995  10.025   2.614  0.0713 -0.3596 -0.2828
  880MOL0     C18692   6.982   9.884   2.610 -1.4543  0.5392  0.1446
  880MOL0     C18693   6.853   9.818   2.648  1.1909 -0.1994 -1.1369
  880MOL0     C18694   7.097   9.799   2.596 -0.3168 -0.3973 -0.4598
  880MOL0     C18695   7.086   9.648   2.601  0.1125  0.4261 -0.6845
  880MOL0     O18696   7.210   9.592   2.610  0.9274 -0.0138 -0.3292
  880MOL0     C18697   7.246   9.461   2.582 -0.0730 -0.2778  0.2376
  880MOL0     C18698   7.315   9.398   2.685  1.0007 -0.1753  0.2080
  880MOL0     C18699   7.359   9.265   2.671  0.3169  0.1349  1.1103
  880MOL0     C18700   7.321   9.183   2.550 -0.5852 -0.2742 -0.6568
  880MOL0     O18701   7.335   9.051   2.523  0.2583 -0.4364 -0.1908
  880MOL0     C18702   7.421   8.989   2.612 -0.2979 -0.9354  0.3577
  880MOL0     C18703   7.454   8.849   2.564  1.2288 -0.4134  1.0019
  880MOL0     C18704   7.534   8.863   2.426 -0.0034 -0.1903 -0.0239
  880MOL0     C18705   7.587   8.730   2.369  1.0410 -0.4423 -0.4028
  880MOL0     C18706   7.584   8.725   2.210  0.4465  0.2727 -0.2628
  880MOL0     C18707   7.658   8.607   2.148 -0.2031 -0.2056 -0.5150
  880MOL0     C18708   7.693   8.627   2.001 -0.5499  0.5613  0.1808
  880MOL0     C18709   7.766   8.506   1.946  1.9012  0.2677 -0.7023
  880MOL0    Cl18710   7.681   8.338   1.953 -0.1246 -0.7145  0.3553
  880MOL0     C18711   7.239   9.249   2.458 -0.5776 -0.6319  0.2649
  880MOL0     C18712   7.203   9.392   2.466 -0.6518 -0.1031 -0.0680
  880MOL0     O18713   6.982   9.580   2.597  0.0365  1.0643 -0.1524
  880MOL0     C18714   7.220   9.869   2.576  0.3082  0.3380 -0.1587
  880MOL0     C18715   7.229  10.004   2.605 -0.6316  0.5718 -0.8976
  880MOL0     N18716   6.910  10.732   2.660 -0.2642  0.0799 -0.0069
  880MOL0     N18717   6.957  10.814   2.572 -0.4743  0.6201  0.1411
  880MOL0     C18718   7.802  10.832   2.929  0.7084 -0.5330  0.1628
  880MOL0     C18719   7.882  10.779   3.025  0.2601  0.2963  0.0210
  880MOL0     C18720   8.222  10.554   3.223  0.0801 -0.4293  0.3420
  880MOL0     C18721   8.275  10.425   3.225 -0.8113  0.4716 -0.1001
  880MOL0     C18722   8.387  10.387   3.305  0.4434  0.7793 -0.3145
  880MOL0     C18723   8.449  10.480   3.397  0.9317  0.7781  1.1492
  880MOL0     O18724   8.543  10.445   3.488 -0.2116 -0.1234 -0.1330
  880MOL0     C18725   8.483  10.378   3.599  0.1457 -0.0604  0.4097
  880MOL0     C18726   8.582  10.332   3.698 -0.6231 -0.0852 -0.1210
  880MOL0     C18727   8.621  10.185   3.662  0.2492  0.3953  0.6353
  880MOL0     C18728   8.770  10.142   3.703  0.6126  0.2098  1.3513
  880MOL0     C18729   8.787  10.155   3.850 -0.1400  0.8922  0.7110
  880MOL0     C18730   8.796  10.155   3.970 -1.5452  0.6235 -0.3466
  880MOL0     C18731   8.395  10.607   3.394 -1.0437 -0.4375  0.4015
  880MOL0     C18732   8.295  10.648   3.302  0.4799  0.3018  0.3391
  880MOL0     H18733   8.176  10.808   2.859  0.0455  2.1587 -2.2943
  880MOL0     H18734   8.030  10.911   2.688 -1.6315  0.5089 -0.3298
  880MOL0     H18735   7.587  10.935   2.748 -0.4941  0.9496 -0.2123
  880MOL0     H18736   7.684  11.078   2.784 -2.6904 -0.5769  1.7296
  880MOL0     H18737   7.704  11.109   2.542  0.1113  1.2314  1.3590
  880MOL0     H18738   7.616  10.947   2.519  0.4492 -0.1836  1.8629
  880MOL0     H18739   7.429  11.053   2.652  1.2761 -2.5852 -0.6931
  880MOL0     H18740   7.522  11.204   2.614  3.7996 -1.1053 -0.4770
  880MOL0     H18741   7.356  11.176   2.423 -1.0283 -0.4674  2.2804
  880MOL0     H18742   7.515  11.135   2.365 -1.0042  0.6135  0.0500
  880MOL0     H18743   7.403  10.957   2.290  1.9487 -0.1868  0.3683
  880MOL0     H18744   7.414  10.891   2.461 -1.8232  0.2926  2.1482
  880MOL0     H18745   7.188  10.951   2.509  0.0874 -0.8434  0.1116
  880MOL0     H18746   7.188  11.028   2.343 -0.7518 -1.2732 -0.9287
  880MOL0     H18747   7.215  10.803   2.241  0.8829  3.2915  0.4948
  880MOL0     H18748   7.215  10.724   2.384  2.4837  0.7523 -1.3268
  880MOL0     H18749   6.986  10.743   2.254  3.3164  1.0733 -2.0952
  880MOL0     H18750   6.994  10.914   2.315  0.7169  0.4769  1.3251
  880MOL0     H18751   6.916  10.541   2.396 -2.1644 -0.2189  0.8183
  880MOL0     H18752   6.778  10.517   2.755 -0.5130 -1.8931  0.2339
  880MOL0     H18753   6.731  10.457   2.595 -0.8188 -0.0578  0.3031
  880MOL0     H18754   6.933  10.336   2.569  2.0818 -2.5209  1.0424
  880MOL0     H18755   6.837  10.304   2.720 -1.1516  2.2048  0.0236
  880MOL0     H18756   7.017  10.422   2.849  2.8708 -1.8411  1.3024
  880MOL0     H18757   7.088  10.461   2.693  0.4647  0.4130  0.1604
  880MOL0     H18758   7.012  10.201   2.804  0.1246  1.0728  0.7220
  880MOL0     H18759   7.180  10.264   2.820 -2.6576 -0.9490  4.7650
  880MOL0     H18760   6.903  10.083   2.617  1.6171  2.2667  0.0290
  880MOL0     H18761   6.781   9.895   2.676  2.9200  0.8450  0.7310
  880MOL0     H18762   6.815   9.751   2.571 -0.9805 -0.7502  0.3175
  880MOL0     H18763   6.862   9.749   2.733  2.9236  3.0294  1.5916
  880MOL0     H18764   7.316   9.456   2.776  0.0507  0.5753 -0.2441
  880MOL0     H18765   7.416   9.219   2.752  1.5184  0.1480  0.2883
  880MOL0     H18766   7.509   9.053   2.623 -1.8298  1.1253  1.3812
  880MOL0     H18767   7.370   8.985   2.709 -1.6567  0.0346 -0.2754
  880MOL0     H18768   7.528   8.806   2.633  0.5144 -0.4035  1.7829
  880MOL0     H18769   7.368   8.783   2.555  0.4295  0.6667  0.5234
  880MOL0     H18770   7.626   8.922   2.423 -1.9601  3.1228  0.2015
  880MOL0     H18771   7.462   8.898   2.352 -1.4933 -1.8731  0.5453
  880MOL0     H18772   7.687   8.705   2.407  0.3107 -1.5945  0.8390
  880MOL0     H18773   7.525   8.646   2.400  0.7771  0.3873  1.4453
  880MOL0     H18774   7.645   8.810   2.180  1.5580 -0.1492  0.7462
  880MOL0     H18775   7.479   8.726   2.180  0.2223  1.0249  0.5119
  880MOL0     H18776   7.754   8.607   2.202  0.0312  0.3626 -0.9102
  880MOL0     H18777   7.600   8.518   2.172 -0.8738  1.2445  4.3773
  880MOL0     H18778   7.757   8.711   1.974 -0.6799 -0.6082 -4.7250
  880MOL0     H18779   7.606   8.636   1.935  0.5878  1.3598 -1.2749
  880MOL0     H18780   7.864   8.501   1.996 -0.9375  3.3656  6.6178
  880MOL0     H18781   7.787   8.528   1.841  2.4924 -1.3333 -0.9568
  880MOL0     H18782   7.206   9.205   2.364  0.8136 -0.1681 -0.4720
  880MOL0     H18783   7.141   9.434   2.387 -0.3680 -2.0587 -1.4188
  880MOL0     H18784   7.314   9.815   2.564  0.3911  0.6742 -1.0035
  880MOL0     H18785   7.327  10.048   2.622 -2.0800  2.8369  2.7778
  880MOL0     H18786   7.697  10.807   2.932  0.4109  0.7750  0.9897
  880MOL0     H18787   7.849  10.724   3.113  2.9451 -3.0281 -0.8470
  880MOL0     H18788   8.230  10.348   3.163 -1.9960  0.7605  0.3611
  880MOL0     H18789   8.431  10.287   3.307 -2.0252 -0.4103 -1.4438
  880MOL0     H18790   8.410  10.444   3.647  1.3861  2.0120 -0.4197
  880MOL0     H18791   8.429  10.292   3.559 -0.7881  1.6842 -2.3297
  880MOL0     H18792   8.544  10.342   3.800 -0.3566  1.9481 -0.1782
  880MOL0     H18793   8.670  10.396   3.710  1.2303 -2.7944  2.0392
  880MOL0     H18794   8.617  10.173   3.554  0.1624 -2.2778  0.8756
  880MOL0     H18795   8.553  10.116   3.712 -0.0551  0.0689 -0.2217
  880MOL0     H18796   8.847  10.195   3.646 -0.2571 -1.2669 -1.3916
  880MOL0     H18797   8.784  10.034   3.687  2.1900  0.0249  3.5250
  880MOL0     H18798   8.819  10.137   4.073  2.1523 -0.3472 -1.1690
  880MOL0     H18799   8.435  10.686   3.456  1.2615  1.7580 -3.4380
  880MOL0     H18800   8.265  10.752   3.292  2.2856  0.7155 -1.2811
  881MOL0     O18801   4.088   3.406  10.579  0.0511 -0.1107  0.6354
  881MOL0     C18802   4.104   3.479  10.679  0.0213  0.8959  0.1831
  881MOL0     O18803   4.116   3.612  10.681  0.7077  0.0511 -0.3803
  881MOL0     C18804   4.135   3.691  10.570 -1.3108  0.1435 -0.1671
  881MOL0     C18805   4.059   3.801  10.577  0.4346 -0.5777 -0.1984
  881MOL0     C18806   4.055   3.888  10.462  0.2330  0.1930  0.1327
  881MOL0     C18807   4.128   3.858  10.346  0.6978  0.4527  1.1584
  881MOL0     O18808   4.104   3.930  10.228  0.0938 -0.3886  0.7128
  881MOL0     C18809   3.964   3.939  10.194 -0.5239 -0.0146 -0.3153
  881MOL0     C18810   3.946   3.975  10.048  0.2309  0.0043  0.7578
  881MOL0     C18811   3.946   3.847   9.965  1.4350 -0.9539  0.1919
  881MOL0     C18812   3.869   3.868   9.832 -0.3777 -1.2684 -0.4944
  881MOL0     C18813   3.913   3.777   9.722 -0.5972  0.3046 -0.3629
  881MOL0     C18814   3.841   3.815   9.584 -0.4155 -0.2215  0.1300
  881MOL0     C18815   3.914   3.754   9.468 -0.4706 -0.8100  0.0777
  881MOL0     C18816   3.864   3.806   9.333  0.9644 -0.2737 -0.2428
  881MOL0     N18817   3.911   3.938   9.294  0.4528 -0.4425 -0.3453
  881MOL0     C18818   4.040   3.967   9.258  0.0401  0.2054  0.5000
  881MOL0     C18819   4.033   4.102   9.227 -0.3227 -0.4142 -0.0640
  881MOL0     C18820   4.166   4.179   9.206 -0.9322  0.2681  0.5067
  881MOL0     C18821   4.199   4.204   9.064  0.3036  0.6532  0.5886
  881MOL0     C18822   4.306   4.305   9.046  0.2241 -0.1035  0.8108
  881MOL0     C18823   4.343   4.361   8.903  0.2951  0.4242 -0.1768
  881MOL0     O18824   4.370   4.251   8.823  0.7254  0.1070  0.2370
  881MOL0     C18825   4.494   4.212   8.816  0.2591  0.3256 -0.7837
  881MOL0     C18826   4.607   4.275   8.884 -0.2429  1.7046  0.1939
  881MOL0     C18827   4.736   4.234   8.850 -0.1186 -0.2349  0.3927
  881MOL0     C18828   4.850   4.305   8.928 -0.6676  0.6658  0.5039
  881MOL0     C18829   4.751   4.129   8.750 -0.1841  0.6655  0.1118
  881MOL0     C18830   4.879   4.098   8.689 -0.3292 -0.1766 -0.1372
  881MOL0     O18831   4.881   4.008   8.595 -0.8312  0.6353  0.0786
  881MOL0     C18832   5.004   3.978   8.540 -0.3465  0.6585 -0.0409
  881MOL0     C18833   5.053   4.057   8.440 -0.9516 -0.6682 -1.1111
  881MOL0     C18834   5.179   4.031   8.380 -0.2049 -0.0856  0.0724
  881MOL0     C18835   5.252   3.923   8.421 -0.4469 -0.2405 -0.1288
  881MOL0     O18836   5.364   3.874   8.355  0.2713 -0.1563  0.8220
  881MOL0     C18837   5.349   3.826   8.224  0.4056 -0.1791  0.9827
  881MOL0     C18838   5.453   3.720   8.211  0.3487  0.6760 -0.2841
  881MOL0     C18839   5.428   3.638   8.076  0.1027 -0.5075 -0.4429
  881MOL0     C18840   5.384   3.501   8.107  0.9794  0.4361 -0.5666
  881MOL0     C18841   5.391   3.422   7.976 -0.4585  0.4617 -0.2900
  881MOL0     C18842   5.329   3.285   7.999  0.5162  0.0268 -0.0124
  881MOL0     C18843   5.327   3.193   7.869 -0.6829 -0.1831 -0.2105
  881MOL0     C18844   5.235   3.069   7.859  0.4560  0.5874 -0.7463
  881MOL0    Cl18845   5.205   3.009   8.028 -0.2871  0.6679 -0.1926
  881MOL0     C18846   5.200   3.836   8.516 -0.4242 -0.7157  0.3959
  881MOL0     C18847   5.088   3.874   8.579 -1.0986 -0.3211  0.3525
  881MOL0     O18848   4.969   4.171   8.714  0.2266 -0.3784  0.4632
  881MOL0     C18849   4.641   4.067   8.691  0.2509 -0.2294  0.9857
  881MOL0     C18850   4.518   4.110   8.727  0.6905 -0.2859 -0.1207
  881MOL0     N18851   3.905   4.153   9.254 -0.7881 -0.1305  0.0333
  881MOL0     N18852   3.832   4.052   9.293 -0.1016 -0.4013  0.3469
  881MOL0     C18853   4.211   3.742  10.343  0.2519 -0.3489 -0.2172
  881MOL0     C18854   4.201   3.654  10.454 -0.0380 -0.6657  0.0453
  881MOL0     C18855   4.151   3.414  10.800  0.2377  0.1286  0.0213
  881MOL0     C18856   4.193   3.492  10.903 -0.7744 -0.3004 -0.3563
  881MOL0     C18857   4.261   3.429  11.008 -0.5252 -0.1020  0.5009
  881MOL0     C18858   4.271   3.285  11.018  0.5536  0.1591  0.7736
  881MOL0     O18859   4.330   3.226  11.131  0.7155 -0.2768  0.1868
  881MOL0     C18860   4.381   3.313  11.239  0.9666 -1.0013  0.4925
  881MOL0     C18861   4.274   3.352  11.334  0.6815  0.4021 -0.2954
  881MOL0     C18862   4.206   3.232  11.392 -0.5869  0.3736 -0.5097
  881MOL0     C18863   4.112   3.276  11.498  0.5001 -0.7780  0.6854
  881MOL0     C18864   4.176   3.280  11.623  0.0878  0.5187 -0.5824
  881MOL0     C18865   4.240   3.318  11.717 -0.4170  0.1515  0.3842
  881MOL0     C18866   4.213   3.211  10.917 -0.3367  0.6183 -0.8995
  881MOL0     C18867   4.152   3.270  10.804 -1.1005 -0.4306 -1.0183
  881MOL0     H18868   4.007   3.821  10.670  1.0298  2.4534 -0.4097
  881MOL0     H18869   4.007   3.986  10.466  1.8826  0.9965  1.2451
  881MOL0     H18870   3.919   3.840  10.209 -1.4238 -0.1116 -3.0640
  881MOL0     H18871   3.906   4.006  10.258 -0.5070 -1.0592  0.8367
  881MOL0     H18872   3.853   4.032  10.037  1.4319  1.4968 -3.6026
  881MOL0     H18873   4.029   4.036  10.013 -0.0593 -0.7387 -1.4120
  881MOL0     H18874   4.049   3.820   9.943  1.1355 -2.3151  0.4134
  881MOL0     H18875   3.901   3.757  10.007  1.3017 -1.3501 -0.7914
  881MOL0     H18876   3.761   3.857   9.842 -0.3890 -2.6589 -1.7056
  881MOL0     H18877   3.900   3.967   9.798 -0.5629 -0.4552  1.6038
  881MOL0     H18878   4.022   3.783   9.720 -0.6192  1.5525  0.7460
  881MOL0     H18879   3.895   3.671   9.742 -0.8340  0.0328 -1.9210
  881MOL0     H18880   3.738   3.780   9.579  0.9748 -4.8142 -1.9086
  881MOL0     H18881   3.853   3.923   9.568 -1.0678  0.0354  1.2425
  881MOL0     H18882   4.023   3.765   9.478 -0.3696 -3.4816  4.0497
  881MOL0     H18883   3.903   3.645   9.469 -1.8703 -0.6857 -0.3026
  881MOL0     H18884   3.756   3.822   9.338  0.9218  0.3887 -2.3741
  881MOL0     H18885   3.894   3.730   9.260 -0.5403 -2.5200  1.3444
  881MOL0     H18886   4.119   3.895   9.278 -2.5159 -2.6832  0.9494
  881MOL0     H18887   4.161   4.280   9.249  0.6525  0.5036  0.1884
  881MOL0     H18888   4.252   4.133   9.255 -1.8551  0.1004  2.0314
  881MOL0     H18889   4.109   4.233   9.010 -1.9774 -2.3042  2.4730
  881MOL0     H18890   4.242   4.108   9.034  0.0510  0.0552  2.0451
  881MOL0     H18891   4.398   4.261   9.084 -1.4020 -0.7450  4.4663
  881MOL0     H18892   4.279   4.395   9.102 -2.5514 -1.3090  1.6136
  881MOL0     H18893   4.420   4.438   8.904 -0.0992  0.8339 -0.6780
  881MOL0     H18894   4.255   4.412   8.863 -0.5112  2.1198  3.4079
  881MOL0     H18895   4.603   4.349   8.964 -0.5963  1.5699  0.3033
  881MOL0     H18896   4.880   4.398   8.878  4.5926 -0.8609  0.1530
  881MOL0     H18897   4.824   4.327   9.032 -2.6928 -1.5322  0.5286
  881MOL0     H18898   4.943   4.248   8.941 -0.7117  0.7233  1.0905
  881MOL0     H18899   4.994   4.142   8.406 -1.2293 -0.9155 -1.2504
  881MOL0     H18900   5.212   4.088   8.295 -0.0825 -2.2452 -1.4096
  881MOL0     H18901   5.248   3.792   8.202 -0.1329  0.6890  2.0306
  881MOL0     H18902   5.380   3.891   8.141  1.5721 -1.3967  0.4300
  881MOL0     H18903   5.554   3.761   8.206  1.7931 -2.4441  0.5517
  881MOL0     H18904   5.463   3.653   8.297  2.5576 -3.0468 -3.1076
  881MOL0     H18905   5.518   3.626   8.014  0.0427 -3.3916 -0.1002
  881MOL0     H18906   5.355   3.688   8.012 -1.8386 -1.5287  0.8852
  881MOL0     H18907   5.460   3.447   8.163  1.5182 -0.6732 -2.3119
  881MOL0     H18908   5.282   3.497   8.148  1.1498 -1.1666 -0.2532
  881MOL0     H18909   5.495   3.419   7.939 -0.3773 -3.0962 -0.0738
  881MOL0     H18910   5.332   3.468   7.896 -1.3787 -2.2255 -1.2617
  881MOL0     H18911   5.389   3.237   8.077  1.0258 -1.3643 -1.2192
  881MOL0     H18912   5.223   3.293   8.022  0.7000  1.6542  0.3850
  881MOL0     H18913   5.430   3.158   7.865  0.1456  1.9661  0.6362
  881MOL0     H18914   5.320   3.248   7.775  1.2241  0.7192  0.1311
  881MOL0     H18915   5.278   2.982   7.807  3.1506  0.6319  1.1694
  881MOL0     H18916   5.145   3.100   7.806  1.1639  1.1841 -1.6217
  881MOL0     H18917   5.247   3.741   8.538 -1.5119 -0.4018  5.2164
  881MOL0     H18918   5.051   3.804   8.654 -1.1486 -0.1312  0.5069
  881MOL0     H18919   4.652   3.986   8.620  2.0427 -1.3975  2.4945
  881MOL0     H18920   4.436   4.078   8.662  2.5955  0.8313 -3.3172
  881MOL0     H18921   4.261   3.715  10.251 -0.2587  1.0815 -0.9412
  881MOL0     H18922   4.238   3.552  10.457 -1.2148 -1.1020  0.2007
  881MOL0     H18923   4.193   3.600  10.889  0.7767  0.2165  2.7717
  881MOL0     H18924   4.301   3.496  11.083  0.9793 -0.3489 -0.0517
  881MOL0     H18925   4.454   3.255  11.295 -1.1808 -0.8317  3.7480
  881MOL0     H18926   4.420   3.408  11.202  1.2986 -2.4924 -3.4938
  881MOL0     H18927   4.206   3.424  11.288  0.0189 -1.6325 -2.7514
  881MOL0     H18928   4.324   3.405  11.416  0.8862 -3.0647  2.0550
  881MOL0     H18929   4.283   3.169  11.439  1.0832  2.8263  0.2356
  881MOL0     H18930   4.144   3.183  11.316 -0.5070  0.2303 -0.4832
  881MOL0     H18931   4.026   3.211  11.487 -0.8132  0.8872  0.7429
  881MOL0     H18932   4.073   3.373  11.466  0.2864 -1.0198  0.2171
  881MOL0     H18933   4.302   3.353  11.798 -0.6484 -0.6793  0.9318
  881MOL0     H18934   4.233   3.105  10.929 -2.6200  0.2427  0.1175
  881MOL0     H18935   4.129   3.212  10.715 -0.3999 -0.9157 -0.8972
  882MOL0     O18936  11.360   8.796   7.136 -1.0160 -0.5146  0.4001
  882MOL0     C18937  11.272   8.817   7.216  0.8098  0.4659 -0.9224
  882MOL0     O18938  11.134   8.811   7.194  0.1718  0.0435  0.0482
  882MOL0     C18939  11.086   8.765   7.071 -0.4029  0.4155 -0.4335
  882MOL0     C18940  10.951   8.790   7.042 -0.2271  0.3101  0.4125
  882MOL0     C18941  10.886   8.735   6.932 -0.2910  1.0150  0.1941
  882MOL0     C18942  10.969   8.661   6.839  1.0639 -0.1278 -0.2492
  882MOL0     O18943  10.914   8.604   6.728 -0.4226 -0.9031  0.5024
  882MOL0     C18944  10.806   8.668   6.675  0.3003  0.2602 -0.5501
  882MOL0     C18945  10.767   8.602   6.537 -0.3015 -0.2448 -0.1772
  882MOL0     C18946  10.756   8.448   6.544  0.1356  0.0174 -0.1678
  882MOL0     C18947  10.639   8.394   6.632  0.1522 -0.0322 -0.2870
  882MOL0     C18948  10.666   8.249   6.660 -0.1287 -0.4444  0.4724
  882MOL0     C18949  10.560   8.183   6.750 -0.4035 -0.7640 -0.1188
  882MOL0     C18950  10.530   8.041   6.719  0.0121  0.4164 -0.3990
  882MOL0     C18951  10.650   7.952   6.759 -0.0154  0.5329  0.7901
  882MOL0     N18952  10.618   7.815   6.705  0.3145  0.7644 -0.4466
  882MOL0     C18953  10.515   7.735   6.739  0.8455 -0.5391 -0.4244
  882MOL0     C18954  10.537   7.620   6.675  0.5040 -0.0802  0.4722
  882MOL0     C18955  10.444   7.505   6.661 -0.2142 -0.4996  0.4476
  882MOL0     C18956  10.487   7.381   6.745  1.3360  0.5494 -0.6496
  882MOL0     C18957  10.387   7.348   6.859  0.8869  0.2914 -0.0511
  882MOL0     C18958  10.382   7.428   6.991  0.4667  0.8996  1.2367
  882MOL0     O18959  10.517   7.436   7.049  0.0579  0.4615 -0.3153
  882MOL0     C18960  10.546   7.355   7.157 -0.0026  0.2667 -0.2413
  882MOL0     C18961  10.471   7.246   7.203  0.5143 -0.4273 -0.0671
  882MOL0     C18962  10.493   7.176   7.324 -1.2727 -0.3850 -0.6162
  882MOL0     C18963  10.387   7.086   7.365  0.2562 -0.1042  0.4061
  882MOL0     C18964  10.612   7.208   7.393  0.8959 -1.2078  0.9168
  882MOL0     C18965  10.661   7.132   7.511  0.1368  0.4206  0.0564
  882MOL0     O18966  10.793   7.134   7.536  0.0258 -0.2678 -0.4211
  882MOL0     C18967  10.826   7.080   7.658 -0.2036 -0.5626 -0.7180
  882MOL0     C18968  10.929   6.993   7.662 -0.2479  0.3681 -0.6881
  882MOL0     C18969  10.989   6.933   7.781 -0.1141  0.2977  0.2462
  882MOL0     C18970  10.949   6.978   7.903 -0.2859  0.3667  0.7143
  882MOL0     O18971  11.007   6.929   8.015  0.0623 -0.3497 -0.0267
  882MOL0     C18972  10.925   6.915   8.134 -0.1892 -0.1626 -0.2316
  882MOL0     C18973  10.984   6.798   8.223 -0.0131  0.1697  0.1631
  882MOL0     C18974  10.934   6.778   8.365  0.1226  0.2800 -0.0516
  882MOL0     C18975  10.784   6.812   8.377 -0.0930  0.0485 -0.1917
  882MOL0     C18976  10.722   6.802   8.521 -0.0510  0.0290  0.0283
  882MOL0     C18977  10.744   6.669   8.591  0.5488  0.0140 -0.3788
  882MOL0     C18978  10.645   6.656   8.702  0.6156 -0.1675 -0.2141
  882MOL0     C18979  10.662   6.522   8.778 -0.5060 -0.7311 -0.3993
  882MOL0    Cl18980  10.797   6.560   8.891  0.1398  0.1397  0.4045
  882MOL0     C18981  10.849   7.070   7.903  0.3461 -0.5902  0.7686
  882MOL0     C18982  10.790   7.121   7.782 -0.5598  0.1843  0.8752
  882MOL0     O18983  10.583   7.071   7.583 -0.2025 -0.1650  0.4000
  882MOL0     C18984  10.696   7.310   7.343 -0.1445 -0.1580  0.4293
  882MOL0     C18985  10.663   7.385   7.228  0.6483  0.9267  0.0893
  882MOL0     N18986  10.640   7.637   6.588 -0.2817 -0.1959  0.2556
  882MOL0     N18987  10.694   7.752   6.612 -0.2753 -0.6966  0.0286
  882MOL0     C18988  11.098   8.633   6.863 -0.5149  0.8105 -0.5900
  882MOL0     C18989  11.157   8.680   6.978 -0.3935 -0.5401 -0.0648
  882MOL0     C18990  11.317   8.842   7.355 -0.2227  0.4274 -0.4973
  882MOL0     C18991  11.454   8.832   7.398  0.0767 -0.5840  0.5982
  882MOL0     C18992  11.496   8.867   7.526  0.1877 -0.3258  0.1208
  882MOL0     C18993  11.404   8.903   7.629  0.1584 -1.0563 -0.1646
  882MOL0     O18994  11.448   8.933   7.757  0.2670  0.3586  0.1932
  882MOL0     C18995  11.350   8.974   7.862  0.6251 -0.3143 -0.3417
  882MOL0     C18996  11.422   8.957   7.987  0.2210 -1.1910 -0.2685
  882MOL0     C18997  11.449   8.815   8.021  0.3236 -0.1467  0.2338
  882MOL0     C18998  11.555   8.796   8.142  0.1122 -0.2624 -0.4085
  882MOL0     C18999  11.495   8.855   8.259 -0.4459 -0.3380 -1.1796
  882MOL0     C19000  11.451   8.899   8.361  0.3562 -0.0749 -0.6199
  882MOL0     C19001  11.273   8.917   7.584  0.3681  0.3417 -0.9556
  882MOL0     C19002  11.225   8.887   7.448 -0.2087  0.0862  0.1035
  882MOL0     H19003  10.913   8.856   7.120 -2.7299 -1.3215  0.6594
  882MOL0     H19004  10.780   8.757   6.923 -0.7291  0.9639  3.6806
  882MOL0     H19005  10.722   8.649   6.742  1.0519  0.2164  0.3992
  882MOL0     H19006  10.817   8.777   6.669 -0.4635  0.5531  2.1644
  882MOL0     H19007  10.672   8.650   6.511  0.5380  3.3320  2.4584
  882MOL0     H19008  10.844   8.626   6.463  2.8776 -0.9368  2.6285
  882MOL0     H19009  10.742   8.407   6.444 -2.3256 -1.0665  0.5295
  882MOL0     H19010  10.851   8.411   6.586 -0.4871 -2.6111 -0.8662
  882MOL0     H19011  10.630   8.448   6.727 -4.7239 -1.3723  0.3150
  882MOL0     H19012  10.544   8.408   6.579  0.4674 -0.1052 -0.8731
  882MOL0     H19013  10.675   8.205   6.561  0.9925 -0.4142  0.5403
  882MOL0     H19014  10.762   8.242   6.713 -0.6993 -4.3378  1.2945
  882MOL0     H19015  10.584   8.195   6.856 -2.2182  3.9570 -0.0030
  882MOL0     H19016  10.464   8.233   6.732  0.1775  0.5978  0.4677
  882MOL0     H19017  10.443   8.013   6.778  1.2336 -1.8236  0.4531
  882MOL0     H19018  10.507   8.032   6.613  0.5043  0.7110 -0.5332
  882MOL0     H19019  10.670   7.946   6.867  1.5997 -1.7040  0.4310
  882MOL0     H19020  10.740   7.976   6.703 -0.3669 -0.4721 -0.2287
  882MOL0     H19021  10.434   7.755   6.809 -2.4096  1.6208 -4.3548
  882MOL0     H19022  10.346   7.529   6.702  0.8029  1.0994  2.0683
  882MOL0     H19023  10.430   7.475   6.557 -2.0005  2.2597 -0.1986
  882MOL0     H19024  10.584   7.364   6.793  1.9848 -1.9177 -2.6227
  882MOL0     H19025  10.483   7.307   6.665  1.7403 -0.9371  0.6774
  882MOL0     H19026  10.418   7.245   6.880  1.0901  0.5163  0.7995
  882MOL0     H19027  10.281   7.349   6.832 -0.4570  2.4030  4.2954
  882MOL0     H19028  10.309   7.381   7.057 -0.7461  1.8719  0.6183
  882MOL0     H19029  10.342   7.528   6.973 -2.8641 -0.7744 -2.0482
  882MOL0     H19030  10.392   7.218   7.133  2.6581  0.7461 -3.1733
  882MOL0     H19031  10.307   7.105   7.294  1.3688 -1.0331 -1.1517
  882MOL0     H19032  10.426   6.983   7.370 -1.0402 -0.6507 -0.3117
  882MOL0     H19033  10.346   7.119   7.461 -1.8845 -1.5825  0.0553
  882MOL0     H19034  10.972   6.959   7.568  1.5702 -1.4314  0.7254
  882MOL0     H19035  11.058   6.849   7.771 -2.8300 -2.0839  0.2177
  882MOL0     H19036  10.924   7.011   8.187  0.7330  0.6152 -1.5694
  882MOL0     H19037  10.821   6.893   8.111  0.8788 -5.5298 -1.2640
  882MOL0     H19038  10.963   6.704   8.171 -0.5902  0.0301  0.6382
  882MOL0     H19039  11.093   6.794   8.234  0.0310  1.5128  0.3516
  882MOL0     H19040  11.001   6.837   8.428  0.1988 -0.1720  0.2943
  882MOL0     H19041  10.947   6.675   8.399 -2.4496  0.4464  1.6211
  882MOL0     H19042  10.758   6.912   8.342 -1.3957 -0.3562 -0.4312
  882MOL0     H19043  10.727   6.745   8.313  0.4773 -1.7848  1.1439
  882MOL0     H19044  10.617   6.833   8.509  0.6978  2.5765 -0.3614
  882MOL0     H19045  10.759   6.877   8.591 -0.0748 -2.2890  2.7111
  882MOL0     H19046  10.734   6.583   8.524  1.1274 -3.0392  3.0857
  882MOL0     H19047  10.847   6.665   8.630  0.4111  0.9255  0.0979
  882MOL0     H19048  10.544   6.655   8.662  0.4872  1.7242  0.0050
  882MOL0     H19049  10.655   6.745   8.765  0.8030  0.4660 -1.1226
  882MOL0     H19050  10.677   6.439   8.709  4.5493  0.0552 -0.5924
  882MOL0     H19051  10.569   6.500   8.831 -0.3251  0.2806  0.3887
  882MOL0     H19052  10.817   7.127   7.990 -3.8571 -0.0909 -0.8686
  882MOL0     H19053  10.713   7.196   7.798  0.7298  1.7629 -0.1033
  882MOL0     H19054  10.795   7.316   7.388 -1.1100 -0.2496  2.7198
  882MOL0     H19055  10.736   7.452   7.184  0.1015  1.0661 -0.6215
  882MOL0     H19056  11.157   8.566   6.801  0.3242  1.5966 -0.6524
  882MOL0     H19057  11.254   8.635   6.998 -0.3323  0.4793  2.2918
  882MOL0     H19058  11.529   8.797   7.328 -2.7542 -0.0794 -2.9357
  882MOL0     H19059  11.598   8.868   7.561 -0.5402  2.7622  2.6825
  882MOL0     H19060  11.331   9.080   7.844  1.1093 -0.0935  0.3997
  882MOL0     H19061  11.257   8.916   7.865 -0.0615  0.7017  3.6001
  882MOL0     H19062  11.362   8.998   8.068  0.7666 -3.5174  1.4134
  882MOL0     H19063  11.514   9.014   7.980 -1.9307  2.4408 -3.6178
  882MOL0     H19064  11.479   8.754   7.935  1.7962 -1.2481  1.4638
  882MOL0     H19065  11.359   8.774   8.067 -0.1318  1.4263  0.8179
  882MOL0     H19066  11.651   8.838   8.111  0.7088 -1.0390  0.3356
  882MOL0     H19067  11.583   8.691   8.152 -1.6527 -0.8950 -1.5774
  882MOL0     H19068  11.401   8.924   8.452  1.6880  0.7433 -0.0792
  882MOL0     H19069  11.194   8.946   7.653  0.2585 -1.7699 -0.1084
  882MOL0     H19070  11.120   8.902   7.426  0.2275  2.7891 -0.5115
  883MOL0     O19071   1.310   0.225   0.220 -0.5589 -0.4401 -0.6312
  883MOL0     C19072   1.371   0.124   0.259  0.6098  0.1372 -0.7637
  883MOL0     O19073   1.313   0.011   0.298  0.1411  0.1079  0.3201
  883MOL0     C19074   1.179   0.013   0.319 -0.5608 -0.6730  0.7007
  883MOL0     C19075   1.094   0.004   0.208 -0.3382 -0.2104  0.0849
  883MOL0     C19076   0.954  -0.026   0.222 -0.2944  0.4295 -0.4760
  883MOL0     C19077   0.900  -0.017   0.356  0.1818  0.1645 -0.0855
  883MOL0     O19078   0.764  -0.040   0.371  0.4018 -0.1143  0.1113
  883MOL0     C19079   0.703  -0.008   0.498 -0.1170 -0.7505  0.3298
  883MOL0     C19080   0.558  -0.038   0.481  0.7344 -0.4541 -0.5424
  883MOL0     C19081   0.539  -0.189   0.462 -0.2158  0.3999  0.7784
  883MOL0     C19082   0.386  -0.219   0.448  0.1699 -0.4227  0.6837
  883MOL0     C19083   0.304  -0.205   0.583  0.2766  0.5279  0.1195
  883MOL0     C19084   0.184  -0.301   0.590 -0.2903 -0.2748  0.4710
  883MOL0     C19085   0.083  -0.288   0.474  0.8267 -0.5219  0.8514
  883MOL0     C19086  -0.064  -0.326   0.503  0.3058  0.8246 -0.0605
  883MOL0     N19087  -0.167  -0.257   0.416 -0.3176 -0.4588 -0.2808
  883MOL0     C19088  -0.164  -0.187   0.293 -0.3312 -0.9435 -0.2703
  883MOL0     C19089  -0.289  -0.194   0.244 -1.5379 -1.1305 -1.0505
  883MOL0     C19090  -0.324  -0.120   0.121  0.4878 -0.5359 -0.6660
  883MOL0     C19091  -0.478  -0.085   0.103 -1.1210 -0.0729  0.1709
  883MOL0     C19092  -0.560  -0.210   0.071  0.5643  0.9578 -0.2394
  883MOL0     C19093  -0.714  -0.196   0.050 -0.7411 -0.5130 -0.2544
  883MOL0     O19094  -0.772  -0.128   0.163  0.6513  0.4738 -0.0651
  883MOL0     C19095  -0.904  -0.088   0.153  0.1728  0.1509  0.2472
  883MOL0     C19096  -0.991  -0.088   0.047 -0.3882  0.5166 -1.6044
  883MOL0     C19097  -1.132  -0.059   0.063 -0.3477  0.7249 -0.4562
  883MOL0     C19098  -1.219  -0.103  -0.050  0.7471  0.3607  0.5161
  883MOL0     C19099  -1.178   0.001   0.175 -0.0059 -1.1620 -0.7735
  883MOL0     C19100  -1.312   0.058   0.196  0.6469 -1.2562 -0.5040
  883MOL0     O19101  -1.375   0.038   0.322  0.1375 -0.2622  0.1270
  883MOL0     C19102  -1.501   0.078   0.353 -0.3145  0.5647  0.3807
  883MOL0     C19103  -1.533   0.079   0.489 -0.3976  0.1540 -0.7463
  883MOL0     C19104  -1.652   0.120   0.541  1.1319  0.7282 -0.7029
  883MOL0     C19105  -1.761   0.158   0.456  0.3558  0.6235  0.5761
  883MOL0     O19106  -1.889   0.185   0.498  0.4954  0.2631 -1.0056
  883MOL0     C19107  -1.904   0.193   0.645 -0.7698 -0.7504 -0.4448
  883MOL0     C19108  -1.911   0.060   0.717 -0.1929 -0.8674 -0.5112
  883MOL0     C19109  -1.880   0.055   0.870 -0.4669 -0.2242  0.1968
  883MOL0     C19110  -1.971   0.149   0.962  0.3111  0.3532  1.0715
  883MOL0     C19111  -1.972   0.123   1.115 -0.8411 -0.8900  0.5555
  883MOL0     C19112  -2.018   0.249   1.202 -1.1647  0.4780 -0.2619
  883MOL0     C19113  -2.000   0.198   1.346 -0.9357 -0.3142 -0.0888
  883MOL0     C19114  -1.875   0.257   1.420  0.6518 -1.4911  0.1496
  883MOL0    Cl19115  -1.910   0.253   1.594  0.0718  0.2054 -0.3393
  883MOL0     C19116  -1.739   0.148   0.311 -0.6096 -0.4341  0.7369
  883MOL0     C19117  -1.607   0.117   0.266 -0.1535  0.2362 -0.1717
  883MOL0     O19118  -1.361   0.116   0.101 -0.5012 -0.2135  0.2110
  883MOL0     C19119  -1.089   0.008   0.280  0.9489  0.3602  0.2512
  883MOL0     C19120  -0.956  -0.034   0.269  0.7339  0.5684  1.4142
  883MOL0     N19121  -0.364  -0.254   0.345  0.6381 -0.5179  0.8339
  883MOL0     N19122  -0.290  -0.300   0.442 -0.7756 -1.4076 -0.3853
  883MOL0     C19123   0.995  -0.006   0.465  0.7797 -1.0359 -0.5880
  883MOL0     C19124   1.130   0.009   0.449 -0.2614  0.5514 -0.6549
  883MOL0     C19125   1.520   0.136   0.277  0.9009  0.6823 -0.1897
  883MOL0     C19126   1.600   0.031   0.304  0.4433 -0.0199 -0.5558
  883MOL0     C19127   1.735   0.043   0.329 -0.4310 -0.1477 -0.1765
  883MOL0     C19128   1.802   0.164   0.306 -0.1079 -0.2862  0.1618
  883MOL0     O19129   1.933   0.173   0.338  0.5191  0.4984  0.3932
  883MOL0     C19130   1.989   0.254   0.432 -0.1078 -0.2079  0.3840
  883MOL0     C19131   1.902   0.311   0.545  0.8235  0.1942  0.3816
  883MOL0     C19132   1.864   0.201   0.654  0.0938 -0.5152 -0.8210
  883MOL0     C19133   1.727   0.231   0.718  0.4005  0.1969 -0.1158
  883MOL0     C19134   1.733   0.354   0.797 -0.9834 -0.7253  0.0615
  883MOL0     C19135   1.740   0.454   0.869  0.4793  0.7623  0.7976
  883MOL0     C19136   1.722   0.267   0.264  1.3960 -0.4581 -0.5130
  883MOL0     C19137   1.583   0.258   0.252  0.4823  0.6013 -0.7032
  883MOL0     H19138   1.131   0.012   0.107 -0.8605  0.1676 -0.0783
  883MOL0     H19139   0.890  -0.048   0.137  0.6192 -3.2650 -0.3842
  883MOL0     H19140   0.750  -0.078   0.568  0.2028 -2.7015 -1.7081
  883MOL0     H19141   0.718   0.099   0.511  1.2529 -1.0006  1.0060
  883MOL0     H19142   0.503   0.006   0.565  0.8398  2.2048 -1.7496
  883MOL0     H19143   0.523   0.007   0.387 -0.1154  0.9018  0.3786
  883MOL0     H19144   0.599  -0.217   0.375 -1.9869  1.8896 -1.0248
  883MOL0     H19145   0.572  -0.246   0.549 -0.7913 -0.8418  0.2207
  883MOL0     H19146   0.346  -0.161   0.364 -1.0653  0.8318  2.0818
  883MOL0     H19147   0.379  -0.325   0.420  2.0051 -0.5351  0.5548
  883MOL0     H19148   0.364  -0.224   0.673 -0.5834 -1.6211  0.2716
  883MOL0     H19149   0.277  -0.099   0.588 -0.5272  0.2931  1.0402
  883MOL0     H19150   0.223  -0.403   0.582  1.0745  0.3787 -2.9899
  883MOL0     H19151   0.127  -0.281   0.681 -0.1429  1.7938  0.1534
  883MOL0     H19152   0.074  -0.181   0.450 -3.3056 -0.6747  1.0040
  883MOL0     H19153   0.120  -0.347   0.390 -1.9509  2.7729 -3.1083
  883MOL0     H19154  -0.079  -0.293   0.606  2.1660 -2.0043  1.2253
  883MOL0     H19155  -0.073  -0.435   0.503 -1.2506  0.9244  0.1916
  883MOL0     H19156  -0.078  -0.139   0.248  1.6414 -4.6810 -0.8787
  883MOL0     H19157  -0.253  -0.036   0.115 -1.1446  1.0900  1.0870
  883MOL0     H19158  -0.299  -0.181   0.034 -1.7133  1.7685 -3.1105
  883MOL0     H19159  -0.494  -0.013   0.022 -1.2158  0.9205  1.0584
  883MOL0     H19160  -0.515  -0.042   0.197 -2.7987 -4.2439  1.6853
  883MOL0     H19161  -0.560  -0.277   0.158  1.0153 -0.3099 -1.1767
  883MOL0     H19162  -0.532  -0.270  -0.016 -1.1716  2.1802 -1.7012
  883MOL0     H19163  -0.764  -0.292   0.033 -1.1537 -0.3863  0.2266
  883MOL0     H19164  -0.720  -0.127  -0.034  1.9755 -0.2753 -0.3503
  883MOL0     H19165  -0.958  -0.116  -0.052  2.1556  2.4468 -1.3934
  883MOL0     H19166  -1.210  -0.209  -0.072 -0.5029  0.6764 -1.8723
  883MOL0     H19167  -1.323  -0.090  -0.018  1.0458  1.3809  1.1496
  883MOL0     H19168  -1.209  -0.046  -0.143  3.0595  1.2276  1.2283
  883MOL0     H19169  -1.460   0.033   0.555 -0.9530  0.6787  0.2530
  883MOL0     H19170  -1.658   0.130   0.649 -0.9817 -1.2908 -0.5562
  883MOL0     H19171  -1.820   0.254   0.680 -1.3636  1.4716 -2.5813
  883MOL0     H19172  -1.997   0.249   0.660 -0.2041  0.0457  0.1947
  883MOL0     H19173  -2.013   0.022   0.709 -0.9285  1.1379 -1.2416
  883MOL0     H19174  -1.842  -0.007   0.663  0.3536 -1.6440  1.0793
  883MOL0     H19175  -1.782   0.102   0.881 -1.9008  2.5196  3.0267
  883MOL0     H19176  -1.881  -0.050   0.901  2.8862 -1.1735 -2.3829
  883MOL0     H19177  -1.936   0.252   0.948 -1.6725  0.9350  0.1550
  883MOL0     H19178  -2.070   0.148   0.916  1.2251 -2.2467 -1.1512
  883MOL0     H19179  -1.874   0.096   1.155 -1.2117 -1.2174  1.2723
  883MOL0     H19180  -2.037   0.037   1.134 -2.5894  0.3281  0.3177
  883MOL0     H19181  -1.948   0.332   1.183 -2.4394  1.3394 -1.4140
  883MOL0     H19182  -2.116   0.290   1.175 -1.0268  0.5155 -0.7177
  883MOL0     H19183  -1.987   0.089   1.343 -3.2037 -0.6354 -0.5850
  883MOL0     H19184  -2.095   0.216   1.397 -2.0128 -3.7858 -0.5895
  883MOL0     H19185  -1.862   0.361   1.387 -2.2205 -1.4416 -1.1049
  883MOL0     H19186  -1.782   0.202   1.407  1.0725 -1.8357  3.7041
  883MOL0     H19187  -1.817   0.176   0.241  0.3814 -0.4212 -0.3846
  883MOL0     H19188  -1.588   0.122   0.159  1.9395 -0.9605  0.0833
  883MOL0     H19189  -1.108   0.049   0.379  1.8396 -0.1904  0.6586
  883MOL0     H19190  -0.894  -0.008   0.354  1.1551  2.4494  0.5800
  883MOL0     H19191   0.957  -0.011   0.567  1.0974 -1.2679 -0.4793
  883MOL0     H19192   1.201   0.009   0.531  2.4477  0.2128 -2.8689
  883MOL0     H19193   1.566  -0.070   0.326 -0.7120  0.2692 -0.9363
  883MOL0     H19194   1.795  -0.042   0.361 -1.1722 -0.1732  1.2269
  883MOL0     H19195   2.068   0.199   0.484  0.3955 -1.7534 -1.8769
  883MOL0     H19196   2.039   0.339   0.384 -1.4915 -0.8420 -2.3632
  883MOL0     H19197   1.807   0.343   0.502 -0.4984 -2.9258  0.7512
  883MOL0     H19198   1.961   0.391   0.590 -1.0602  0.3516  2.6911
  883MOL0     H19199   1.950   0.189   0.720  0.8316  1.4794 -1.3475
  883MOL0     H19200   1.850   0.114   0.590  1.0472 -1.6875  0.5245
  883MOL0     H19201   1.713   0.145   0.784 -2.2893 -2.7952 -4.1078
  883MOL0     H19202   1.644   0.221   0.648  0.2472 -1.1424  0.2174
  883MOL0     H19203   1.758   0.534   0.939 -0.9144 -1.3084  3.7212
  883MOL0     H19204   1.769   0.363   0.249 -0.7399  0.6776 -0.3656
  883MOL0     H19205   1.530   0.351   0.234  2.7371  2.3305  0.9325
  884MOL0     O19206   6.419   4.968   5.000 -0.2920  0.1129  0.2313
  884MOL0     C19207   6.490   5.061   4.986 -0.3081  0.8769 -0.3414
  884MOL0     O19208   6.474   5.160   4.891 -0.1585 -0.4880  0.3851
  884MOL0     C19209   6.360   5.157   4.815 -0.3585  0.2946  0.2369
  884MOL0     C19210   6.279   5.275   4.816 -0.1416 -0.0165 -0.3475
  884MOL0     C19211   6.153   5.272   4.768  0.8334 -0.6431 -0.3760
  884MOL0     C19212   6.096   5.162   4.704 -0.2495  0.2400  0.4835
  884MOL0     O19213   5.973   5.148   4.654 -0.6295 -0.5720 -0.6722
  884MOL0     C19214   5.866   5.250   4.660  0.1741 -0.0777  0.5044
  884MOL0     C19215   5.907   5.382   4.585  0.9217  0.2706  0.2108
  884MOL0     C19216   5.836   5.500   4.640  0.9922 -0.7061  0.1919
  884MOL0     C19217   5.673   5.501   4.625 -0.6598 -0.7188  0.4433
  884MOL0     C19218   5.619   5.621   4.698 -0.0512  0.1386  0.0895
  884MOL0     C19219   5.471   5.607   4.714 -0.6384  0.2701  0.6182
  884MOL0     C19220   5.413   5.726   4.791 -1.0984 -0.3670 -0.4703
  884MOL0     C19221   5.271   5.720   4.828  1.4483 -0.4015 -0.3138
  884MOL0     N19222   5.201   5.841   4.792 -0.0094 -0.1894  0.4987
  884MOL0     C19223   5.167   5.933   4.890  0.1597  0.6481  0.6179
  884MOL0     C19224   5.106   6.034   4.812 -0.1896 -0.5848  1.0352
  884MOL0     C19225   5.038   6.152   4.878  0.5678  0.1548  1.0348
  884MOL0     C19226   4.893   6.146   4.846  0.6964  0.2115 -0.5097
  884MOL0     C19227   4.829   6.219   4.963  0.1545  0.6100  0.4316
  884MOL0     C19228   4.678   6.198   4.976  0.1078 -0.8723 -1.0754
  884MOL0     O19229   4.602   6.263   4.868  0.2267  0.3860 -0.4214
  884MOL0     C19230   4.576   6.401   4.861  0.1175  0.2464 -0.1343
  884MOL0     C19231   4.546   6.461   4.746 -0.2033  0.2072 -0.1968
  884MOL0     C19232   4.498   6.597   4.742 -0.2407 -0.2314  0.1874
  884MOL0     C19233   4.445   6.645   4.612  0.5803 -0.3856  0.7088
  884MOL0     C19234   4.512   6.674   4.859  0.1908  0.0725 -0.9995
  884MOL0     C19235   4.466   6.821   4.864  1.1228  0.6065 -0.2183
  884MOL0     O19236   4.383   6.854   4.973 -0.5260  0.3192 -0.8893
  884MOL0     C19237   4.347   6.981   4.989 -0.0950 -0.2672 -0.1032
  884MOL0     C19238   4.210   7.004   5.000 -0.8156  0.4102  0.2005
  884MOL0     C19239   4.156   7.130   5.017  0.5175  0.3187  0.7282
  884MOL0     C19240   4.247   7.231   5.024 -0.2225 -0.2442 -0.1551
  884MOL0     O19241   4.191   7.352   5.057  0.0572  1.0780 -0.7222
  884MOL0     C19242   4.195   7.453   4.958  0.5280  0.5284 -0.0460
  884MOL0     C19243   4.071   7.438   4.860  0.0129  0.0475 -0.2423
  884MOL0     C19244   4.052   7.532   4.744  0.9385  0.5347 -0.7376
  884MOL0     C19245   4.087   7.460   4.616  0.9534  0.1457 -0.0691
  884MOL0     C19246   4.240   7.425   4.610 -0.8750  0.1083 -0.0114
  884MOL0     C19247   4.264   7.331   4.492  0.3301  0.8890  0.1099
  884MOL0     C19248   4.195   7.195   4.498  0.2268  0.5431  1.1880
  884MOL0     C19249   4.215   7.128   4.636  0.1704 -0.3474 -0.1245
  884MOL0    Cl19250   4.155   6.952   4.614  0.3239 -0.2232  0.0588
  884MOL0     C19251   4.384   7.217   5.005  0.5084 -0.2526 -0.0206
  884MOL0     C19252   4.435   7.091   4.988 -1.1524  0.2878  0.3643
  884MOL0     O19253   4.513   6.893   4.777 -0.2797  1.1658  0.3601
  884MOL0     C19254   4.556   6.617   4.979 -0.4947  0.3221  0.5277
  884MOL0     C19255   4.579   6.482   4.981 -0.8224  0.0471  0.3499
  884MOL0     N19256   5.113   5.997   4.677  0.2312 -0.4324 -1.0637
  884MOL0     N19257   5.150   5.875   4.668  0.5004 -0.7906  0.0149
  884MOL0     C19258   6.182   5.045   4.695  0.5736 -0.3014 -0.2805
  884MOL0     C19259   6.312   5.041   4.752 -0.0741  0.2116 -0.9746
  884MOL0     C19260   6.616   5.055   5.066  0.3288  0.2859  0.4951
  884MOL0     C19261   6.631   4.988   5.183 -0.2266  0.3427 -0.0937
  884MOL0     C19262   6.758   4.984   5.243  0.2832 -0.0405 -0.7850
  884MOL0     C19263   6.867   5.060   5.199 -0.1394 -0.2862 -0.6079
  884MOL0     O19264   6.980   5.076   5.286  0.0932  0.0573 -0.0324
  884MOL0     C19265   7.106   5.073   5.217 -0.2306 -0.4911  0.5838
  884MOL0     C19266   7.217   4.989   5.284 -0.6401 -0.2088  0.2705
  884MOL0     C19267   7.302   5.078   5.378  0.9588 -0.0877 -0.2875
  884MOL0     C19268   7.387   5.006   5.481  0.3574 -0.9043 -0.7491
  884MOL0     C19269   7.498   4.942   5.398 -0.3133  0.4896 -1.0118
  884MOL0     C19270   7.587   4.892   5.338  0.7746 -0.4193 -0.1875
  884MOL0     C19271   6.855   5.126   5.081 -0.0085 -0.5303 -0.0870
  884MOL0     C19272   6.732   5.120   5.018 -0.4364 -0.7338  0.3019
  884MOL0     H19273   6.307   5.362   4.874  2.0931  0.6253 -2.2233
  884MOL0     H19274   6.091   5.357   4.796 -0.3129 -1.9037  1.0943
  884MOL0     H19275   5.773   5.218   4.612  2.3341 -2.2333 -2.5898
  884MOL0     H19276   5.839   5.260   4.766 -0.8033 -0.0200  0.2547
  884MOL0     H19277   6.015   5.389   4.599  0.9526 -0.3426  0.3250
  884MOL0     H19278   5.906   5.361   4.478 -0.6829 -0.9331  0.4227
  884MOL0     H19279   5.855   5.514   4.747  1.4315 -1.3564  0.2038
  884MOL0     H19280   5.875   5.589   4.590  0.0406 -0.8282 -0.8021
  884MOL0     H19281   5.650   5.498   4.518  3.0561 -1.4319 -0.4947
  884MOL0     H19282   5.639   5.411   4.676 -3.3385  1.0421  2.0178
  884MOL0     H19283   5.661   5.625   4.799  1.7382  0.5838 -0.6350
  884MOL0     H19284   5.638   5.719   4.655 -0.6895  0.6123  0.8558
  884MOL0     H19285   5.425   5.597   4.615 -1.9948  0.0188  1.2631
  884MOL0     H19286   5.449   5.517   4.771 -1.5919 -0.3257 -0.6503
  884MOL0     H19287   5.476   5.733   4.881  0.8299  1.7606 -1.8963
  884MOL0     H19288   5.432   5.812   4.727  0.9772 -0.5969 -0.2472
  884MOL0     H19289   5.256   5.709   4.936 -1.4598 -1.4814 -0.7291
  884MOL0     H19290   5.230   5.629   4.784 -1.8195 -0.0862  1.7178
  884MOL0     H19291   5.175   5.925   4.998  1.2195 -0.5643  0.4704
  884MOL0     H19292   5.058   6.150   4.986  2.8745 -0.0209  0.6538
  884MOL0     H19293   5.079   6.246   4.842  2.7984 -1.8150 -2.1569
  884MOL0     H19294   4.860   6.044   4.828  1.9797  0.0160 -1.9434
  884MOL0     H19295   4.883   6.204   4.753 -0.4611  0.0662 -0.4910
  884MOL0     H19296   4.845   6.326   4.952 -1.0021  0.5248 -4.9238
  884MOL0     H19297   4.874   6.170   5.050  0.9773  1.3713  0.4438
  884MOL0     H19298   4.639   6.237   5.071 -0.7945  1.5664 -2.3680
  884MOL0     H19299   4.639   6.096   4.974  0.7374 -1.1685  0.4430
  884MOL0     H19300   4.550   6.401   4.656  1.8665  0.8342 -0.5674
  884MOL0     H19301   4.341   6.680   4.610  0.0208 -2.0078 -0.2903
  884MOL0     H19302   4.511   6.727   4.580 -0.2561 -0.1621 -0.4855
  884MOL0     H19303   4.465   6.572   4.534  4.3892  2.1074 -0.9449
  884MOL0     H19304   4.153   6.911   5.008  0.8616 -0.5241  2.8334
  884MOL0     H19305   4.049   7.138   5.033 -0.1006  1.6804 -3.1966
  884MOL0     H19306   4.198   7.556   4.995 -0.5512  0.9151 -0.9912
  884MOL0     H19307   4.288   7.439   4.903  0.5928 -1.2106  0.4475
  884MOL0     H19308   4.056   7.339   4.817 -0.4009  0.8771 -2.1048
  884MOL0     H19309   3.986   7.441   4.929  1.1800  0.6717  1.2295
  884MOL0     H19310   4.111   7.624   4.749 -2.1220  2.6856 -1.1189
  884MOL0     H19311   3.949   7.570   4.744  0.7384  0.4977  3.8598
  884MOL0     H19312   4.033   7.365   4.610 -0.6588  1.0773 -1.3862
  884MOL0     H19313   4.048   7.516   4.530 -0.0282 -1.4565 -0.7133
  884MOL0     H19314   4.282   7.375   4.698 -1.0004 -1.6397 -0.8963
  884MOL0     H19315   4.297   7.516   4.589 -0.4042 -0.2740 -0.4378
  884MOL0     H19316   4.231   7.375   4.398 -1.6119 -1.9553 -0.6784
  884MOL0     H19317   4.371   7.318   4.474  0.1333  0.5606 -0.8996
  884MOL0     H19318   4.233   7.135   4.415 -0.9967  0.2702  0.8050
  884MOL0     H19319   4.088   7.200   4.474  0.3310 -0.2363  0.5151
  884MOL0     H19320   4.163   7.179   4.718 -3.6136 -3.6594 -0.1505
  884MOL0     H19321   4.320   7.136   4.664 -0.3352  1.6981  1.4801
  884MOL0     H19322   4.439   7.311   5.012  2.1211 -1.2876  2.4587
  884MOL0     H19323   4.542   7.072   4.979 -1.6212 -1.4611 -4.8200
  884MOL0     H19324   4.575   6.682   5.064  0.6722  1.8938 -0.8721
  884MOL0     H19325   4.630   6.445   5.070 -0.0961  0.0366 -0.0600
  884MOL0     H19326   6.147   4.952   4.650 -0.1292 -0.2114  0.0672
  884MOL0     H19327   6.360   4.946   4.770  1.6083  0.8158 -2.0958
  884MOL0     H19328   6.553   4.931   5.234  0.4177  1.4626  2.2827
  884MOL0     H19329   6.766   4.920   5.331  1.7877  0.2162 -0.6978
  884MOL0     H19330   7.088   5.032   5.118 -1.1933  2.6667 -0.6987
  884MOL0     H19331   7.152   5.170   5.195  0.0095 -0.3800  1.5150
  884MOL0     H19332   7.283   4.949   5.207  0.5070  3.2726 -0.7300
  884MOL0     H19333   7.172   4.910   5.346 -1.8097  1.2818  1.3990
  884MOL0     H19334   7.233   5.147   5.428 -0.0510 -0.2872 -1.3584
  884MOL0     H19335   7.369   5.132   5.310  2.2264  1.0345  1.7301
  884MOL0     H19336   7.327   4.935   5.540 -0.5710 -1.0704 -1.8676
  884MOL0     H19337   7.432   5.063   5.563 -2.2546  0.7295 -0.3195
  884MOL0     H19338   7.673   4.851   5.290 -0.8601  0.0389 -3.8702
  884MOL0     H19339   6.920   5.206   5.048  1.1249  0.3051  3.6456
  884MOL0     H19340   6.709   5.180   4.930  0.2992  2.0276  1.8885
  885MOL0     O19341   3.937  10.218   8.280  0.4782 -0.0297 -0.1225
  885MOL0     C19342   3.932  10.132   8.193  0.4616 -0.2892  0.0070
  885MOL0     O19343   3.915  10.002   8.216 -0.6865  0.7780  0.0774
  885MOL0     C19344   3.899   9.968   8.349  0.6086  0.2962 -0.1427
  885MOL0     C19345   3.779   9.975   8.421  0.3745  0.0138 -0.9701
  885MOL0     C19346   3.782   9.930   8.557  0.3709  0.8025 -0.3384
  885MOL0     C19347   3.893   9.873   8.617  0.2477 -0.2878 -0.0664
  885MOL0     O19348   3.893   9.818   8.739 -0.8995 -0.4778 -0.0456
  885MOL0     C19349   3.774   9.772   8.812  0.2639 -0.0250 -0.6007
  885MOL0     C19350   3.806   9.626   8.841 -0.5714 -0.1694 -0.0453
  885MOL0     C19351   3.918   9.615   8.949  0.6308  0.0384  0.2799
  885MOL0     C19352   3.940   9.459   8.960  0.4539  0.7342 -0.2061
  885MOL0     C19353   4.031   9.406   9.077 -0.5919 -0.1960 -0.7680
  885MOL0     C19354   4.048   9.260   9.067  0.2534 -0.4560 -0.3396
  885MOL0     C19355   4.126   9.212   9.187 -0.8419 -0.4050 -0.0246
  885MOL0     C19356   4.280   9.242   9.181  0.2103  0.9172 -0.7192
  885MOL0     N19357   4.358   9.151   9.259 -0.1185  0.4142  0.2730
  885MOL0     C19358   4.318   9.094   9.379 -0.1823  0.5129 -0.0911
  885MOL0     C19359   4.401   8.988   9.400  0.1002 -0.1456 -0.9259
  885MOL0     C19360   4.396   8.903   9.528 -0.4449  0.2535  0.6678
  885MOL0     C19361   4.501   8.953   9.638  0.0305 -0.6872 -0.6976
  885MOL0     C19362   4.440   9.068   9.728  0.0680  0.7893 -0.2607
  885MOL0     C19363   4.320   9.015   9.800 -0.3046  0.5569  0.3294
  885MOL0     O19364   4.310   9.056   9.937  0.0781 -0.1812  0.0036
  885MOL0     C19365   4.192   9.026  10.006  0.4535  1.2862 -0.3880
  885MOL0     C19366   4.092   8.937   9.956 -1.1271  0.2524  0.2896
  885MOL0     C19367   3.963   8.930  10.016  0.3364 -0.7907 -0.3316
  885MOL0     C19368   3.867   8.834   9.948  0.0627  0.3900  0.7523
  885MOL0     C19369   3.930   9.006  10.129 -0.3352  0.4268  0.0063
  885MOL0     C19370   3.789   9.025  10.181  0.2453 -0.0302 -0.4733
  885MOL0     O19371   3.779   9.069  10.315  0.0924  0.6941  0.3021
  885MOL0     C19372   3.659   9.099  10.373 -0.0414  0.4165  0.2912
  885MOL0     C19373   3.623   9.048  10.499 -0.0653 -0.1204 -0.3670
  885MOL0     C19374   3.506   9.081  10.573 -0.4300 -0.9076  1.1074
  885MOL0     C19375   3.422   9.174  10.509  1.0633 -0.2464 -1.0073
  885MOL0     O19376   3.308   9.206  10.586 -0.0855  0.0729  0.7899
  885MOL0     C19377   3.189   9.258  10.518  0.1146  0.7168 -0.3593
  885MOL0     C19378   3.070   9.270  10.615 -0.5318  0.2380 -0.3475
  885MOL0     C19379   2.944   9.294  10.542 -0.4760  0.6394 -0.7576
  885MOL0     C19380   2.822   9.279  10.633  0.1517 -0.1683  0.1211
  885MOL0     C19381   2.710   9.323  10.549  0.3021 -0.6498  0.1890
  885MOL0     C19382   2.662   9.205  10.462 -0.4347 -0.6820  0.3221
  885MOL0     C19383   2.522   9.232  10.410 -0.2623 -0.4861 -1.0272
  885MOL0     C19384   2.458   9.103  10.378 -0.7211 -0.4058 -0.1496
  885MOL0    Cl19385   2.306   9.127  10.307 -0.3472  0.0093 -0.4644
  885MOL0     C19386   3.466   9.232  10.385  1.3234  0.0239 -0.6657
  885MOL0     C19387   3.575   9.201  10.315 -0.2855  0.6456  0.4675
  885MOL0     O19388   3.691   9.001  10.116  0.3587  0.2265 -0.0076
  885MOL0     C19389   4.040   9.083  10.186  0.9387 -0.5954 -0.1386
  885MOL0     C19390   4.158   9.091  10.119  0.4530 -0.4553 -0.4396
  885MOL0     N19391   4.497   8.986   9.303  0.0967  0.4959 -0.3866
  885MOL0     N19392   4.477   9.088   9.221  0.0735 -0.7841 -0.2158
  885MOL0     C19393   4.013   9.877   8.549 -0.8623 -0.8647  0.3188
  885MOL0     C19394   4.010   9.918   8.416 -0.0607 -1.1518 -1.2279
  885MOL0     C19395   3.951  10.176   8.056  0.1643  0.1186  0.0237
  885MOL0     C19396   3.968  10.083   7.953 -0.4536 -0.2033 -0.0551
  885MOL0     C19397   3.984  10.121   7.824  0.0676 -0.6652 -0.2656
  885MOL0     C19398   3.988  10.260   7.784 -0.0231  0.9510 -0.5836
  885MOL0     O19399   4.019  10.304   7.663  0.0511 -0.1036 -0.6239
  885MOL0     C19400   4.034  10.223   7.550  0.1733  0.2577  0.5831
  885MOL0     C19401   4.123  10.280   7.434  0.9205  0.6837 -0.0605
  885MOL0     C19402   4.260  10.330   7.457 -0.3416 -0.7812  0.3929
  885MOL0     C19403   4.339  10.377   7.336 -0.5981  0.2597 -0.2577
  885MOL0     C19404   4.484  10.399   7.353 -0.7063  0.6464 -1.2126
  885MOL0     C19405   4.599  10.429   7.358  0.1513  0.3060 -0.0555
  885MOL0     C19406   3.976  10.350   7.881  0.5527 -0.9250 -0.5329
  885MOL0     C19407   3.962  10.309   8.014  0.4971 -0.4337 -0.1110
  885MOL0     H19408   3.693  10.028   8.383  1.6868  0.9833 -2.7750
  885MOL0     H19409   3.685   9.954   8.600  0.9122 -0.3454  1.6794
  885MOL0     H19410   3.756   9.835   8.900  1.0575 -1.8865  0.9630
  885MOL0     H19411   3.684   9.771   8.749 -0.4957 -1.8009  0.4533
  885MOL0     H19412   3.715   9.579   8.878 -1.0897  1.1681  0.4639
  885MOL0     H19413   3.819   9.563   8.753 -0.0307 -1.6644  1.0532
  885MOL0     H19414   4.006   9.680   8.934 -0.8176  2.3779  1.2602
  885MOL0     H19415   3.874   9.648   9.043  1.6245  0.5880  0.5731
  885MOL0     H19416   3.844   9.410   8.981  0.4654  0.0325 -1.6285
  885MOL0     H19417   3.968   9.417   8.863 -0.1043 -0.1682  0.0016
  885MOL0     H19418   4.125   9.462   9.067 -0.4566 -0.7748 -3.5169
  885MOL0     H19419   3.977   9.430   9.169 -0.4236 -3.2855  0.2516
  885MOL0     H19420   3.947   9.219   9.065  0.3693 -0.7429 -1.8347
  885MOL0     H19421   4.102   9.230   8.976 -2.5858 -3.9961 -1.0979
  885MOL0     H19422   4.087   9.256   9.279 -1.3932 -0.2349 -0.3359
  885MOL0     H19423   4.120   9.103   9.177  0.2469 -0.4394 -0.4998
  885MOL0     H19424   4.297   9.338   9.230 -1.9831  2.5878 -2.9774
  885MOL0     H19425   4.311   9.241   9.076 -2.1225  1.5618 -1.4813
  885MOL0     H19426   4.230   9.125   9.434 -0.1837 -2.9149  2.1176
  885MOL0     H19427   4.301   8.889   9.580 -0.2719 -1.7326  0.5621
  885MOL0     H19428   4.434   8.806   9.494 -0.3644  0.8687 -1.0835
  885MOL0     H19429   4.598   8.977   9.594  1.1907 -0.4040  1.8553
  885MOL0     H19430   4.522   8.865   9.699 -0.8310  1.3372  2.7702
  885MOL0     H19431   4.407   9.155   9.672 -1.2659  0.2990 -0.2707
  885MOL0     H19432   4.525   9.098   9.789  1.3651  1.9639 -2.5216
  885MOL0     H19433   4.331   8.907   9.816 -0.8947  0.9647  4.3633
  885MOL0     H19434   4.230   9.055   9.752 -0.3690  1.5486  1.2642
  885MOL0     H19435   4.127   8.882   9.869 -0.7562  0.2658  0.4266
  885MOL0     H19436   3.817   8.765  10.016 -0.1531  0.0671  0.2742
  885MOL0     H19437   3.796   8.894   9.889  1.0515  0.2063 -0.6839
  885MOL0     H19438   3.928   8.767   9.886 -0.7496  0.3730 -0.0526
  885MOL0     H19439   3.692   8.988  10.557 -0.0228 -2.1087 -2.3453
  885MOL0     H19440   3.485   9.059  10.677  1.2175 -0.1533  1.6218
  885MOL0     H19441   3.199   9.359  10.475 -0.9435  0.3952 -1.4462
  885MOL0     H19442   3.169   9.204  10.425  0.4668  1.9311 -1.1727
  885MOL0     H19443   3.060   9.175  10.668  0.6524 -0.6622 -1.6725
  885MOL0     H19444   3.086   9.355  10.681 -0.3454  0.7814 -1.0714
  885MOL0     H19445   2.938   9.215  10.465 -1.3239 -2.0300  1.8515
  885MOL0     H19446   2.947   9.393  10.496 -1.6605  1.9348  1.7974
  885MOL0     H19447   2.821   9.177  10.673  0.9475  0.3897  1.6568
  885MOL0     H19448   2.853   9.343  10.717  2.9940 -2.0181  0.6373
  885MOL0     H19449   2.753   9.403  10.489  3.3977 -1.3821  1.2456
  885MOL0     H19450   2.624   9.355  10.609  1.1451  0.6322  0.7549
  885MOL0     H19451   2.730   9.188  10.379  0.6115 -1.0838  1.2305
  885MOL0     H19452   2.676   9.106  10.508  2.8300  1.0014  3.4793
  885MOL0     H19453   2.527   9.295  10.320 -2.8872 -0.0948 -0.9743
  885MOL0     H19454   2.462   9.297  10.474 -1.8518  0.9510 -3.7703
  885MOL0     H19455   2.447   9.035  10.463 -3.0536  0.0552 -0.0124
  885MOL0     H19456   2.524   9.059  10.304  1.4305  2.0424  0.1697
  885MOL0     H19457   3.390   9.299  10.344 -1.5253 -1.2420  2.1151
  885MOL0     H19458   3.610   9.245  10.222 -0.6053  2.6659  1.2473
  885MOL0     H19459   4.022   9.158  10.262  0.3921 -1.3673  0.5122
  885MOL0     H19460   4.223   9.169  10.157 -1.3687  1.6728 -1.4929
  885MOL0     H19461   4.105   9.860   8.604 -0.0634 -0.4414 -0.8660
  885MOL0     H19462   4.108   9.915   8.370  0.0908 -1.4582 -0.8926
  885MOL0     H19463   3.973   9.977   7.973  1.1912  0.2214  2.0925
  885MOL0     H19464   4.001  10.035   7.760  0.7427 -1.0735  0.4520
  885MOL0     H19465   4.074  10.124   7.574  0.4773  0.2066 -0.1156
  885MOL0     H19466   3.930  10.210   7.517  0.8279  0.2069 -1.5820
  885MOL0     H19467   4.065  10.365   7.396 -2.5151 -1.8086 -0.9002
  885MOL0     H19468   4.126  10.211   7.349 -0.8152 -0.9016  1.0829
  885MOL0     H19469   4.315  10.249   7.507  2.2396  0.0165 -0.9757
  885MOL0     H19470   4.256  10.412   7.529 -0.6149  0.1680 -0.6907
  885MOL0     H19471   4.291  10.461   7.285 -1.9233 -1.0640 -1.3114
  885MOL0     H19472   4.339  10.300   7.258 -3.7094 -0.4710  0.3618
  885MOL0     H19473   4.695  10.475   7.344 -0.8500  2.4750 -0.2174
  885MOL0     H19474   3.991  10.456   7.862  2.3281 -1.1987 -0.8328
  885MOL0     H19475   3.958  10.386   8.090 -0.8474 -2.2713  1.7999
  886MOL0     O19476   0.531  11.498   1.790 -0.3663  0.3184 -0.1787
  886MOL0     C19477   0.579  11.578   1.864  0.9652 -0.4411  1.5661
  886MOL0     O19478   0.593  11.718   1.822 -0.0681 -0.7697  0.1778
  886MOL0     C19479   0.564  11.771   1.700 -0.7876  0.6408  0.9003
  886MOL0     C19480   0.666  11.823   1.616 -0.4131 -0.1684 -0.6810
  886MOL0     C19481   0.643  11.866   1.483 -0.3105 -0.1891  0.7797
  886MOL0     C19482   0.506  11.874   1.439 -0.2455  0.5542 -0.7171
  886MOL0     O19483   0.481  11.926   1.319  0.5450 -0.9427  0.3898
  886MOL0     C19484   0.405  12.046   1.325 -0.7247  0.2181 -0.5177
  886MOL0     C19485   0.412  12.115   1.195  0.4983  0.2517 -0.3944
  886MOL0     C19486   0.513  12.227   1.206  0.5311  0.4076 -0.5102
  886MOL0     C19487   0.529  12.296   1.068  0.3100 -0.0474 -0.1620
  886MOL0     C19488   0.632  12.407   1.075  0.7480  0.9705  0.3372
  886MOL0     C19489   0.625  12.498   0.956  0.1992  0.0652  0.4033
  886MOL0     C19490   0.643  12.444   0.812 -0.1812  1.3906 -0.3199
  886MOL0     C19491   0.794  12.413   0.782  0.5199 -0.2076 -0.7704
  886MOL0     N19492   0.841  12.285   0.831  0.6972  0.2996  0.5906
  886MOL0     C19493   0.806  12.164   0.780  0.9747  0.6128  0.4361
  886MOL0     C19494   0.877  12.076   0.859  0.1335 -0.6105 -0.4450
  886MOL0     C19495   0.889  11.927   0.852 -0.0853  0.5276  1.2900
  886MOL0     C19496   0.860  11.848   0.980  0.4688 -0.6567 -0.4170
  886MOL0     C19497   0.888  11.695   0.967  0.3052  0.0261  0.2368
  886MOL0     C19498   0.786  11.638   0.866 -0.8258  0.6391 -0.0367
  886MOL0     O19499   0.839  11.508   0.840  0.0593 -0.9854  0.4467
  886MOL0     C19500   0.784  11.410   0.912 -0.2831  0.0576  0.5479
  886MOL0     C19501   0.853  11.365   1.030  0.0717 -0.3140  0.2682
  886MOL0     C19502   0.791  11.264   1.109 -0.9793  0.5333 -1.0964
  886MOL0     C19503   0.863  11.232   1.244  0.1154  0.0092  0.8102
  886MOL0     C19504   0.661  11.212   1.081  0.2401 -0.0741  0.5217
  886MOL0     C19505   0.589  11.109   1.166 -0.1156  0.1063  0.5628
  886MOL0     O19506   0.640  11.068   1.285  0.6724 -0.9685 -1.0649
  886MOL0     C19507   0.597  10.949   1.352  0.4649  0.0296 -0.1359
  886MOL0     C19508   0.687  10.873   1.431 -0.1367 -0.2706 -1.3490
  886MOL0     C19509   0.644  10.762   1.510 -0.1423  0.0286  0.5540
  886MOL0     C19510   0.506  10.726   1.510 -0.5587 -0.3118 -0.2582
  886MOL0     O19511   0.481  10.621   1.595  0.6005 -0.0854 -0.0543
  886MOL0     C19512   0.364  10.547   1.587  0.4664 -0.0797 -1.5572
  886MOL0     C19513   0.340  10.485   1.453  0.1552  0.6812 -0.2182
  886MOL0     C19514   0.245  10.362   1.454 -0.0097 -0.0302  1.0931
  886MOL0     C19515   0.098  10.400   1.519 -0.3572  0.1256  0.8071
  886MOL0     C19516   0.075  10.346   1.664 -0.1021 -0.6646 -0.8081
  886MOL0     C19517  -0.065  10.336   1.702  0.6253  1.0241 -0.0746
  886MOL0     C19518  -0.158  10.452   1.681 -0.2645 -0.5258  0.3274
  886MOL0     C19519  -0.302  10.411   1.694 -0.0702 -0.1483  0.3472
  886MOL0    Cl19520  -0.349  10.332   1.541 -0.5549  0.3163 -0.0090
  886MOL0     C19521   0.419  10.803   1.435  0.2858 -0.3320  0.2497
  886MOL0     C19522   0.461  10.913   1.366 -0.3784 -0.7560 -0.7117
  886MOL0     O19523   0.495  11.052   1.106 -0.3411  0.6152  0.6534
  886MOL0     C19524   0.603  11.254   0.951  0.4900 -0.3755 -0.8438
  886MOL0     C19525   0.660  11.357   0.877 -0.5854  0.5061  0.3682
  886MOL0     N19526   0.947  12.145   0.957 -0.4259  0.0875  0.2906
  886MOL0     N19527   0.921  12.273   0.939 -0.2325  0.7587 -0.6970
  886MOL0     C19528   0.399  11.828   1.520 -0.4677 -0.3237 -0.5175
  886MOL0     C19529   0.432  11.759   1.643 -0.3150 -0.7002  0.3580
  886MOL0     C19530   0.601  11.531   2.004  0.5987 -1.1126  0.1296
  886MOL0     C19531   0.581  11.400   2.037 -0.0230  0.3286  0.4019
  886MOL0     C19532   0.588  11.360   2.178 -0.9427  0.5223  0.3150
  886MOL0     C19533   0.608  11.458   2.277 -0.6461  0.2987  0.1361
  886MOL0     O19534   0.589  11.425   2.411 -0.3532 -0.1463 -0.0621
  886MOL0     C19535   0.474  11.350   2.442 -0.4146 -0.1760  0.1455
  886MOL0     C19536   0.446  11.371   2.590  1.0247 -0.1919  0.6768
  886MOL0     C19537   0.386  11.260   2.668 -0.5871  0.0094 -0.4079
  886MOL0     C19538   0.232  11.255   2.653 -0.5457  0.0861  0.0475
  886MOL0     C19539   0.197  11.217   2.513  0.8583 -0.2461 -0.9005
  886MOL0     C19540   0.190  11.200   2.389 -0.3623  0.2132 -0.6786
  886MOL0     C19541   0.643  11.595   2.240  0.5670 -0.2320  0.2741
  886MOL0     C19542   0.630  11.636   2.101  0.3013 -0.7384 -0.2382
  886MOL0     H19543   0.760  11.841   1.666  0.6097  0.1438 -2.6363
  886MOL0     H19544   0.729  11.898   1.426  0.7559 -1.0046  1.8791
  886MOL0     H19545   0.302  12.020   1.354 -0.1414 -1.9091 -0.1513
  886MOL0     H19546   0.447  12.103   1.409 -3.8521 -0.7084  1.9070
  886MOL0     H19547   0.448  12.047   1.117  0.7221  0.8186 -0.7923
  886MOL0     H19548   0.305  12.137   1.182 -0.0737 -1.1694  1.4165
  886MOL0     H19549   0.473  12.295   1.281 -2.8248 -3.4500  1.5060
  886MOL0     H19550   0.604  12.185   1.249 -2.5486 -2.4658  3.9914
  886MOL0     H19551   0.554  12.224   0.990 -0.7702 -0.7302  0.0973
  886MOL0     H19552   0.432  12.342   1.045 -0.2901  0.4801  2.9119
  886MOL0     H19553   0.620  12.465   1.167 -0.3905 -0.6240  1.2285
  886MOL0     H19554   0.734  12.369   1.086  0.0462 -1.1792 -0.1835
  886MOL0     H19555   0.530  12.552   0.959  0.3941  0.4061  0.5756
  886MOL0     H19556   0.710  12.565   0.975 -0.7556  0.9395  1.7461
  886MOL0     H19557   0.586  12.351   0.806  1.5275  0.3593 -1.0551
  886MOL0     H19558   0.613  12.513   0.732  2.3943  0.2017 -2.4231
  886MOL0     H19559   0.853  12.500   0.812  1.4449 -0.1802 -2.5332
  886MOL0     H19560   0.809  12.408   0.674  0.4253 -1.9006 -0.7269
  886MOL0     H19561   0.751  12.139   0.689  0.6882 -2.1766  1.2936
  886MOL0     H19562   0.824  11.896   0.769 -2.3719 -1.0292  3.5251
  886MOL0     H19563   0.995  11.906   0.833  0.3031  2.5435  0.9923
  886MOL0     H19564   0.755  11.860   1.010 -0.1579 -5.0477 -0.0726
  886MOL0     H19565   0.917  11.886   1.066  1.0221 -3.0990  0.3825
  886MOL0     H19566   0.881  11.654   1.068 -0.0835  1.5096  0.8484
  886MOL0     H19567   0.992  11.687   0.933 -0.3927 -2.3583 -1.5881
  886MOL0     H19568   0.800  11.687   0.769  1.0970  2.3401  1.0125
  886MOL0     H19569   0.683  11.652   0.900 -0.9592  2.8417 -1.1470
  886MOL0     H19570   0.952  11.405   1.048  0.1762  0.1999 -1.2810
  886MOL0     H19571   0.961  11.279   1.238 -0.3879  0.8895 -1.7406
  886MOL0     H19572   0.804  11.277   1.324  0.9028 -0.9418  1.9524
  886MOL0     H19573   0.861  11.122   1.249 -1.0407 -0.2597 -2.7616
  886MOL0     H19574   0.788  10.911   1.444  0.0953 -1.4339  0.6653
  886MOL0     H19575   0.709  10.696   1.568  0.3024  0.4928  0.5976
  886MOL0     H19576   0.362  10.463   1.657 -1.0615  0.9429 -0.2860
  886MOL0     H19577   0.280  10.613   1.611  0.3945 -0.5187 -0.5325
  886MOL0     H19578   0.290  10.555   1.386 -2.3081 -0.0885  0.7142
  886MOL0     H19579   0.436  10.459   1.407  1.6192  1.7072  2.0602
  886MOL0     H19580   0.294  10.274   1.496  1.2904 -0.8891 -1.9781
  886MOL0     H19581   0.235  10.336   1.349 -2.8312 -3.3003  1.9586
  886MOL0     H19582   0.086  10.509   1.515 -2.3126  0.0563  2.9498
  886MOL0     H19583   0.021  10.352   1.458  2.2581 -1.2888 -1.5786
  886MOL0     H19584   0.117  10.422   1.731 -2.1365 -2.4311  2.7818
  886MOL0     H19585   0.132  10.254   1.677  2.0517  0.5948 -0.8822
  886MOL0     H19586  -0.113  10.245   1.663 -3.5918  2.9039  0.1712
  886MOL0     H19587  -0.068  10.313   1.809  3.1403 -0.3512 -0.2166
  886MOL0     H19588  -0.146  10.505   1.586 -2.4617 -0.2183  0.1710
  886MOL0     H19589  -0.141  10.517   1.768 -1.7264  2.1353 -1.2462
  886MOL0     H19590  -0.366  10.497   1.715 -0.6923 -0.3644 -0.6009
  886MOL0     H19591  -0.309  10.346   1.782  0.0866 -1.1039 -0.3389
  886MOL0     H19592   0.313  10.779   1.424  0.0255  1.2920 -1.2295
  886MOL0     H19593   0.388  10.977   1.319  1.2873  2.2503  0.5138
  886MOL0     H19594   0.511  11.205   0.920 -1.8940  2.8198  0.6396
  886MOL0     H19595   0.624  11.386   0.778  2.0749 -0.9808 -1.1581
  886MOL0     H19596   0.294  11.836   1.492 -1.2285 -0.0553  2.1647
  886MOL0     H19597   0.356  11.700   1.693 -0.5084 -1.0699 -0.3491
  886MOL0     H19598   0.566  11.332   1.954 -3.9472  1.1990  0.2351
  886MOL0     H19599   0.567  11.256   2.198  1.7830 -0.8853 -3.1523
  886MOL0     H19600   0.392  11.376   2.374  1.5465  0.6167 -2.0714
  886MOL0     H19601   0.496  11.244   2.428 -0.5818 -0.1888 -0.0295
  886MOL0     H19602   0.371  11.450   2.599  0.4506 -0.7909  1.3235
  886MOL0     H19603   0.533  11.405   2.647  1.0338 -2.0447  1.8528
  886MOL0     H19604   0.416  11.271   2.773 -3.5431 -4.4850  1.2352
  886MOL0     H19605   0.434  11.166   2.637 -0.7693 -1.4092  3.0829
  886MOL0     H19606   0.177  11.347   2.676 -1.4738 -0.5834  0.5766
  886MOL0     H19607   0.195  11.184   2.728  3.7829 -0.8114  1.6403
  886MOL0     H19608   0.180  11.174   2.286 -2.8937  0.1216 -0.4743
  886MOL0     H19609   0.673  11.663   2.318  2.0770  0.4870 -0.8844
  886MOL0     H19610   0.645  11.736   2.062  1.3230 -1.6755 -2.3804
  887MOL0     O19611   2.145   0.028   7.186  0.3291 -0.7532  0.1852
  887MOL0     C19612   2.179   0.130   7.126 -1.0147 -0.0049 -0.6368
  887MOL0     O19613   2.185   0.140   6.990 -0.2964  0.4751  0.4158
  887MOL0     C19614   2.142   0.040   6.903 -0.1026 -0.3772  0.5878
  887MOL0     C19615   2.218   0.020   6.782 -0.5422  0.3331  0.4709
  887MOL0     C19616   2.180  -0.079   6.690 -0.7259  0.2420 -0.1099
  887MOL0     C19617   2.076  -0.166   6.715 -0.3463 -0.2459  0.3070
  887MOL0     O19618   2.042  -0.271   6.632  0.6431 -0.3531  1.0117
  887MOL0     C19619   2.054  -0.409   6.678  1.8852 -0.4595  1.0053
  887MOL0     C19620   2.203  -0.459   6.719  0.1222 -0.3419  0.7709
  887MOL0     C19621   2.228  -0.444   6.868 -0.5183  0.5716 -0.0204
  887MOL0     C19622   2.379  -0.433   6.897  0.4054 -0.1998  0.7381
  887MOL0     C19623   2.404  -0.446   7.047 -0.3938  0.0578 -0.1931
  887MOL0     C19624   2.546  -0.466   7.073 -0.9628  0.2975  0.9689
  887MOL0     C19625   2.576  -0.425   7.221  0.1758 -0.3567  0.5033
  887MOL0     C19626   2.719  -0.428   7.253 -0.9092 -0.5955  0.2502
  887MOL0     N19627   2.747  -0.558   7.318  0.0169 -0.1147  0.4865
  887MOL0     C19628   2.779  -0.672   7.251 -0.6286  0.0742  0.6079
  887MOL0     C19629   2.824  -0.751   7.348 -0.1250 -0.3594  0.3725
  887MOL0     C19630   2.875  -0.892   7.321 -0.1404 -0.4060  0.0554
  887MOL0     C19631   3.021  -0.878   7.290  0.0182  0.5173  0.6613
  887MOL0     C19632   3.082  -1.024   7.273  0.7673  0.2663 -0.1953
  887MOL0     C19633   3.205  -1.014   7.189  0.1620 -0.5286  0.6470
  887MOL0     O19634   3.304  -0.939   7.242 -0.2373  0.4403  0.4772
  887MOL0     C19635   3.419  -0.920   7.173  0.2768 -0.3744  0.2535
  887MOL0     C19636   3.482  -0.798   7.182 -0.4700 -0.0888  0.1356
  887MOL0     C19637   3.595  -0.773   7.117 -0.0051  0.0676  0.0621
  887MOL0     C19638   3.653  -0.634   7.127  0.8131 -0.4459  0.6957
  887MOL0     C19639   3.660  -0.881   7.040  0.1944  0.2240  0.3039
  887MOL0     C19640   3.781  -0.860   6.966 -0.2283  0.1240  0.8502
  887MOL0     O19641   3.792  -0.741   6.893  0.8734  0.0050 -0.3915
  887MOL0     C19642   3.907  -0.714   6.830  0.5509  0.3454  0.5256
  887MOL0     C19643   3.939  -0.786   6.714  0.0925 -0.0033  0.9568
  887MOL0     C19644   4.050  -0.749   6.630 -0.6753 -0.4163  0.2005
  887MOL0     C19645   4.125  -0.646   6.669 -0.8235 -1.2685 -0.3592
  887MOL0     O19646   4.238  -0.608   6.602 -0.1496 -0.0359  0.2193
  887MOL0     C19647   4.331  -0.708   6.570  0.0951 -0.4347  1.4315
  887MOL0     C19648   4.477  -0.657   6.569  0.1866  0.5359  0.3665
  887MOL0     C19649   4.534  -0.596   6.692  0.2186 -0.4651 -0.1518
  887MOL0     C19650   4.685  -0.628   6.700  0.2820 -0.4358  0.1216
  887MOL0     C19651   4.758  -0.544   6.806  0.3122 -0.1149 -0.4572
  887MOL0     C19652   4.903  -0.546   6.784 -0.9988  0.7129 -0.4607
  887MOL0     C19653   5.002  -0.489   6.883 -0.0504 -0.5931  0.7102
  887MOL0     C19654   5.151  -0.518   6.871  0.0019  0.0080  0.0306
  887MOL0    Cl19655   5.182  -0.691   6.880  0.6083  0.4625 -0.0054
  887MOL0     C19656   4.093  -0.563   6.781  0.5135  1.1634  0.7086
  887MOL0     C19657   3.990  -0.605   6.870  0.0048 -0.0712 -0.1427
  887MOL0     O19658   3.864  -0.955   6.973 -0.4357 -0.0627  0.1937
  887MOL0     C19659   3.594  -1.000   7.020  0.1376  0.2181  0.2705
  887MOL0     C19660   3.476  -1.023   7.096  0.3610 -0.0412  0.3232
  887MOL0     N19661   2.813  -0.688   7.476 -0.7275 -1.0903  0.6818
  887MOL0     N19662   2.767  -0.569   7.452 -0.0163  0.8660 -0.0380
  887MOL0     C19663   2.000  -0.149   6.834  0.1072 -0.4349  0.6452
  887MOL0     C19664   2.034  -0.047   6.918 -0.0065  0.8077 -0.5066
  887MOL0     C19665   2.230   0.237   7.205 -0.0363  0.0713 -0.3967
  887MOL0     C19666   2.227   0.234   7.347 -0.4790  1.1227 -0.1297
  887MOL0     C19667   2.259   0.341   7.433 -0.5765 -0.1101  1.1963
  887MOL0     C19668   2.308   0.457   7.365  0.4283  0.0275  0.5507
  887MOL0     O19669   2.359   0.563   7.434  0.5978 -0.5930 -0.3948
  887MOL0     C19670   2.283   0.597   7.557  0.8188 -0.1018  0.0390
  887MOL0     C19671   2.276   0.750   7.590  0.6993  0.3402  0.0887
  887MOL0     C19672   2.235   0.775   7.742  0.2077 -0.5765  0.4094
  887MOL0     C19673   2.248   0.933   7.774 -0.0700 -0.4427  0.5464
  887MOL0     C19674   2.199   0.970   7.910 -0.1760 -0.8198 -0.0277
  887MOL0     C19675   2.141   1.003   8.014 -1.0410  0.6273  0.2478
  887MOL0     C19676   2.334   0.461   7.222  0.0701 -0.4679  0.2312
  887MOL0     C19677   2.287   0.354   7.146  0.3223  0.0468 -0.5963
  887MOL0     H19678   2.313   0.067   6.759  1.2645 -3.2985 -0.3252
  887MOL0     H19679   2.225  -0.093   6.593  0.7623  0.8372  0.4754
  887MOL0     H19680   1.976  -0.414   6.755  0.8619  0.7973  0.0990
  887MOL0     H19681   2.017  -0.480   6.603  0.3903  1.9680 -0.7026
  887MOL0     H19682   2.219  -0.564   6.693 -0.0230 -0.2740  0.4094
  887MOL0     H19683   2.268  -0.402   6.652  0.7869 -2.1578 -0.2051
  887MOL0     H19684   2.179  -0.350   6.896 -0.4042  1.4486 -2.4934
  887MOL0     H19685   2.181  -0.526   6.922 -0.0747  0.0590 -0.3927
  887MOL0     H19686   2.423  -0.521   6.849 -4.0635 -2.3166 -0.0370
  887MOL0     H19687   2.409  -0.337   6.854 -0.7778  0.9501  2.3823
  887MOL0     H19688   2.376  -0.356   7.102 -0.3509  0.3159 -0.5857
  887MOL0     H19689   2.342  -0.528   7.084  0.6608 -0.1249  1.2126
  887MOL0     H19690   2.568  -0.573   7.066  0.9364  0.6103  1.5390
  887MOL0     H19691   2.604  -0.397   7.011 -2.1683  1.7003  1.3345
  887MOL0     H19692   2.546  -0.322   7.243  4.5551  1.0509  0.7023
  887MOL0     H19693   2.516  -0.490   7.285 -2.3971 -0.3708 -1.7521
  887MOL0     H19694   2.731  -0.334   7.307 -2.1997  0.9897 -2.0328
  887MOL0     H19695   2.778  -0.420   7.161  0.4251  2.1892  1.2384
  887MOL0     H19696   2.778  -0.703   7.147 -0.1592 -2.1878  1.2071
  887MOL0     H19697   2.853  -0.939   7.417 -1.8429  1.0102  0.4235
  887MOL0     H19698   2.821  -0.938   7.238 -1.6244 -0.0467  0.7900
  887MOL0     H19699   3.076  -0.823   7.367  2.1572 -0.9201  0.2619
  887MOL0     H19700   3.036  -0.823   7.197 -0.1957 -0.2522  0.1581
  887MOL0     H19701   3.013  -1.089   7.220 -2.5930  4.5711 -1.7371
  887MOL0     H19702   3.107  -1.069   7.369 -2.0954 -0.2885  0.3645
  887MOL0     H19703   3.193  -0.955   7.098 -0.3931  1.8696  2.1847
  887MOL0     H19704   3.241  -1.112   7.157  3.8262 -0.0292  2.6201
  887MOL0     H19705   3.451  -0.723   7.254  1.2045  0.1462  0.6517
  887MOL0     H19706   3.633  -0.606   7.231 -2.9879  0.6832 -0.1580
  887MOL0     H19707   3.761  -0.632   7.115  0.8531 -0.3109  1.0674
  887MOL0     H19708   3.602  -0.570   7.054 -0.6129 -0.7786  1.3565
  887MOL0     H19709   3.869  -0.861   6.677  0.9380 -1.3663  1.9970
  887MOL0     H19710   4.076  -0.812   6.546  0.1076 -1.3252  1.0958
  887MOL0     H19711   4.324  -0.789   6.643 -2.3405 -1.0824  0.5916
  887MOL0     H19712   4.305  -0.740   6.469  0.4605  2.7653  0.1915
  887MOL0     H19713   4.530  -0.747   6.535 -0.7274  0.6420 -1.4590
  887MOL0     H19714   4.478  -0.591   6.482 -4.8444 -0.0943 -0.4690
  887MOL0     H19715   4.495  -0.646   6.781 -0.7294 -1.7463 -1.2409
  887MOL0     H19716   4.521  -0.488   6.703  3.7293  0.0380  0.3434
  887MOL0     H19717   4.690  -0.731   6.735 -0.7340 -1.3387 -2.2231
  887MOL0     H19718   4.730  -0.621   6.601 -3.4182 -0.0664 -1.7092
  887MOL0     H19719   4.731  -0.581   6.905 -3.4940  1.4395 -0.7664
  887MOL0     H19720   4.731  -0.439   6.808  2.2570  0.4267  1.2805
  887MOL0     H19721   4.917  -0.653   6.765 -0.2061  0.8043 -0.4319
  887MOL0     H19722   4.940  -0.514   6.686 -1.8328  0.6793 -0.7988
  887MOL0     H19723   4.959  -0.541   6.969 -5.6566 -0.7615 -1.7300
  887MOL0     H19724   4.985  -0.382   6.898 -0.7250 -0.3750 -1.3671
  887MOL0     H19725   5.208  -0.467   6.949  0.3846 -0.2736 -0.0566
  887MOL0     H19726   5.189  -0.476   6.777 -1.7757 -1.8131 -1.5993
  887MOL0     H19727   4.161  -0.479   6.792  2.3658  0.1381 -1.8577
  887MOL0     H19728   3.952  -0.543   6.951 -3.5742  2.7874 -3.6172
  887MOL0     H19729   3.645  -1.074   6.959  0.4873  0.1949  0.5823
  887MOL0     H19730   3.427  -1.118   7.077  0.3971  0.5085 -3.1861
  887MOL0     H19731   1.911  -0.210   6.838 -1.1161  1.3000  1.2534
  887MOL0     H19732   1.988  -0.044   7.016 -0.1405  0.1239 -0.5418
  887MOL0     H19733   2.186   0.143   7.391 -0.5856  1.8739  1.3884
  887MOL0     H19734   2.241   0.327   7.539  0.2799  1.5808  1.5995
  887MOL0     H19735   2.185   0.549   7.555 -0.1990  1.9110 -2.2277
  887MOL0     H19736   2.347   0.551   7.633 -0.0984 -2.5313 -0.5846
  887MOL0     H19737   2.191   0.783   7.530  0.3657  1.9145  1.3526
  887MOL0     H19738   2.375   0.785   7.558  0.3610 -0.7345 -2.3273
  887MOL0     H19739   2.294   0.706   7.803 -0.8835 -1.3941  0.5771
  887MOL0     H19740   2.131   0.740   7.742  0.0123 -0.0112  0.7401
  887MOL0     H19741   2.193   0.984   7.694 -1.2559 -1.4870  0.6658
  887MOL0     H19742   2.355   0.955   7.763 -0.0214  0.3512  2.2701
  887MOL0     H19743   2.085   1.037   8.099 -2.6527 -0.8377 -0.1577
  887MOL0     H19744   2.378   0.541   7.164 -0.4878 -1.6759 -2.0186
  887MOL0     H19745   2.299   0.349   7.039  0.7870 -0.1238 -0.5389
  888MOL0     O19746   6.963  11.370   7.685  0.0964 -0.4634 -0.0409
  888MOL0     C19747   7.082  11.411   7.707  0.2646 -0.1798  0.0011
  888MOL0     O19748   7.170  11.353   7.776  0.2109 -0.4112 -0.9953
  888MOL0     C19749   7.134  11.237   7.837 -0.2191  1.0379  0.1293
  888MOL0     C19750   7.076  11.126   7.770 -0.2142 -0.2471 -0.3516
  888MOL0     C19751   7.070  11.003   7.831  0.1999  0.6620 -0.8115
  888MOL0     C19752   7.108  10.993   7.967 -0.1258  0.2033 -0.1282
  888MOL0     O19753   7.124  10.876   8.039 -0.9073 -0.5280 -0.2083
  888MOL0     C19754   7.127  10.760   7.964 -0.5116  0.4336 -0.3866
  888MOL0     C19755   7.137  10.653   8.076 -0.7892 -0.1379 -0.1350
  888MOL0     C19756   7.148  10.510   8.018 -0.0063 -0.6491  1.0223
  888MOL0     C19757   7.016  10.465   7.938  0.5072  0.2370  0.0133
  888MOL0     C19758   7.046  10.344   7.846  0.1749  0.7602 -0.9142
  888MOL0     C19759   6.965  10.339   7.716  0.8338 -1.1390  0.6228
  888MOL0     C19760   7.038  10.234   7.618 -0.2921  0.0280  0.1935
  888MOL0     C19761   6.955  10.152   7.505  0.3509 -1.3827  0.7120
  888MOL0     N19762   6.851  10.057   7.552  0.0344 -0.3690  0.3835
  888MOL0     C19763   6.849  10.004   7.675 -0.3565 -0.3736 -0.4213
  888MOL0     C19764   6.725   9.962   7.691 -0.8761  0.1886  0.4698
  888MOL0     C19765   6.655   9.896   7.801  0.6018 -0.2631 -0.8770
  888MOL0     C19766   6.718   9.914   7.945  0.0590  0.1669 -0.0830
  888MOL0     C19767   6.695  10.051   8.002  0.0181  0.2173  0.2037
  888MOL0     C19768   6.816  10.077   8.098 -0.7360  0.0323 -0.8550
  888MOL0     O19769   6.801   9.972   8.192 -0.4297 -0.0380  0.4328
  888MOL0     C19770   6.908   9.959   8.284  0.8074  0.6680  1.3772
  888MOL0     C19771   6.886   9.858   8.379  1.0650 -0.7330  0.3667
  888MOL0     C19772   6.970   9.819   8.475 -0.8504  0.1617 -0.5094
  888MOL0     C19773   6.915   9.701   8.571  0.4765  0.1495  0.3723
  888MOL0     C19774   7.090   9.898   8.481 -0.1868  1.1605 -0.0398
  888MOL0     C19775   7.184   9.870   8.590 -0.5584  0.6817 -0.9418
  888MOL0     O19776   7.189   9.749   8.651  0.7677  0.6165 -0.0092
  888MOL0     C19777   7.236   9.724   8.785 -0.5139  0.7906  0.9194
  888MOL0     C19778   7.176   9.613   8.855  0.8469  1.0234 -0.4323
  888MOL0     C19779   7.209   9.579   8.985 -0.0664  1.0931  0.6498
  888MOL0     C19780   7.301   9.658   9.045  0.0998 -0.5175 -0.5592
  888MOL0     O19781   7.331   9.657   9.172  0.4680  0.1883 -0.3133
  888MOL0     C19782   7.227   9.701   9.250 -0.1209  0.0658  0.4373
  888MOL0     C19783   7.283   9.761   9.385 -0.0453  0.6638 -0.3457
  888MOL0     C19784   7.297   9.914   9.383 -0.1960 -0.8267  0.3388
  888MOL0     C19785   7.177  10.013   9.372  0.5717 -0.8692 -0.1143
  888MOL0     C19786   7.210  10.160   9.324  0.5806  0.0006 -0.2248
  888MOL0     C19787   7.223  10.165   9.176 -0.1771 -0.4502  0.0590
  888MOL0     C19788   7.287  10.295   9.124  0.7152  0.0970 -1.3698
  888MOL0     C19789   7.267  10.309   8.972  0.3848 -0.4015  0.7538
  888MOL0    Cl19790   7.363  10.454   8.906  0.5134 -0.2066 -0.2137
  888MOL0     C19791   7.365   9.765   8.982  0.4073 -0.3496 -0.5980
  888MOL0     C19792   7.332   9.793   8.850  0.0641 -0.5778  0.0107
  888MOL0     O19793   7.232   9.973   8.639 -0.5664 -0.4948  0.4241
  888MOL0     C19794   7.123   9.989   8.383 -0.1755 -0.9460 -0.0586
  888MOL0     C19795   7.030  10.025   8.287 -0.4931  0.8562 -0.1988
  888MOL0     N19796   6.655   9.979   7.573  0.2264 -0.5635  0.5761
  888MOL0     N19797   6.732  10.036   7.489  0.0565  0.0266  0.1203
  888MOL0     C19798   7.152  11.104   8.040 -0.1375  0.6871  0.5897
  888MOL0     C19799   7.164  11.229   7.973 -0.4031  0.2608  0.0322
  888MOL0     C19800   7.116  11.543   7.655  0.0782  0.4045  0.6830
  888MOL0     C19801   7.045  11.596   7.539  0.5470  0.2346 -0.0413
  888MOL0     C19802   7.084  11.719   7.478  0.5942  0.5520 -0.3495
  888MOL0     C19803   7.196  11.787   7.527  0.5179 -0.0117 -0.2981
  888MOL0     O19804   7.249  11.896   7.464 -0.3057 -0.3402  0.6520
  888MOL0     C19805   7.376  11.946   7.511  0.1525 -0.3762  0.1305
  888MOL0     C19806   7.426  12.080   7.450  0.9287 -0.0131 -0.1775
  888MOL0     C19807   7.369  12.110   7.307  0.1017 -0.7071 -0.2873
  888MOL0     C19808   7.389  12.249   7.255 -0.1375 -0.2721  0.3300
  888MOL0     C19809   7.530  12.275   7.221 -0.3176 -0.1663  0.0631
  888MOL0     C19810   7.649  12.298   7.185 -0.4075 -1.0626  0.5988
  888MOL0     C19811   7.264  11.734   7.645 -0.8952  0.4172 -0.1457
  888MOL0     C19812   7.232  11.604   7.701 -0.1765 -1.3754 -0.2590
  888MOL0     H19813   7.044  11.143   7.668 -1.9518  2.0364  0.4851
  888MOL0     H19814   7.028  10.920   7.775 -0.7343 -0.2611  1.1608
  888MOL0     H19815   7.036  10.753   7.904 -0.0897 -1.8980 -0.8447
  888MOL0     H19816   7.215  10.756   7.899  0.5806 -0.2391  1.0599
  888MOL0     H19817   7.220  10.683   8.141 -0.9335  2.3747 -1.0001
  888MOL0     H19818   7.051  10.669   8.143  0.5411  2.3044  1.1450
  888MOL0     H19819   7.234  10.500   7.952 -1.8585 -1.3414 -1.3940
  888MOL0     H19820   7.164  10.443   8.103  0.6521 -2.3722 -0.4126
  888MOL0     H19821   6.942  10.432   8.012  1.0236 -0.2970  0.3025
  888MOL0     H19822   6.972  10.548   7.883 -3.6226 -0.8931  1.2256
  888MOL0     H19823   7.154  10.351   7.826  0.6320 -0.3673  0.8808
  888MOL0     H19824   7.034  10.255   7.909  1.9546  2.1747  1.6563
  888MOL0     H19825   6.861  10.315   7.739  1.2984 -1.9205  1.9988
  888MOL0     H19826   6.965  10.436   7.664 -1.7930 -0.7456  1.1933
  888MOL0     H19827   7.097  10.311   7.568  0.3738  1.0514  2.4418
  888MOL0     H19828   7.113  10.164   7.657 -0.1296  0.2512  0.2844
  888MOL0     H19829   7.025  10.107   7.435  0.1725 -1.3250  0.4973
  888MOL0     H19830   6.889  10.221   7.451 -1.4126 -2.1855  1.7336
  888MOL0     H19831   6.913  10.020   7.761  0.2523 -1.0875 -0.7270
  888MOL0     H19832   6.554   9.938   7.802  0.3411 -0.7646 -2.7517
  888MOL0     H19833   6.653   9.787   7.792  2.6089 -0.7120  2.3234
  888MOL0     H19834   6.824   9.890   7.935  0.7433  1.6977  2.5953
  888MOL0     H19835   6.684   9.845   8.023  1.7825  1.6732  2.1275
  888MOL0     H19836   6.611  10.051   8.072 -0.3114  1.4531 -0.1598
  888MOL0     H19837   6.689  10.134   7.931  1.6782  0.3278  0.1586
  888MOL0     H19838   6.799  10.174   8.146 -4.4783  0.0767 -1.9546
  888MOL0     H19839   6.913  10.077   8.049 -1.3214  0.0314 -2.0396
  888MOL0     H19840   6.793   9.803   8.376  1.5328 -2.0910  4.3837
  888MOL0     H19841   6.929   9.604   8.521  1.4590  0.3823  0.1807
  888MOL0     H19842   6.964   9.705   8.669  0.8246  3.6451  0.1895
  888MOL0     H19843   6.808   9.718   8.585  0.5894  1.2262 -0.0153
  888MOL0     H19844   7.115   9.548   8.791  0.9125 -0.0479  0.5531
  888MOL0     H19845   7.165   9.492   9.033 -1.8623  2.6910  2.0312
  888MOL0     H19846   7.175   9.779   9.193  1.1401  0.9012  0.4036
  888MOL0     H19847   7.150   9.626   9.272 -2.3989  2.6656  2.0402
  888MOL0     H19848   7.214   9.742   9.467  0.5973  4.0099  1.1457
  888MOL0     H19849   7.384   9.722   9.404  0.4031  1.4783 -0.9492
  888MOL0     H19850   7.370   9.938   9.305 -0.8873  0.7850  0.1280
  888MOL0     H19851   7.344   9.944   9.477 -1.4818 -4.5826  2.3734
  888MOL0     H19852   7.105   9.978   9.297  1.5850  0.8672 -2.0263
  888MOL0     H19853   7.129  10.025   9.469  0.8435 -0.4468 -0.0254
  888MOL0     H19854   7.307  10.191   9.364  0.2703  3.5558 -1.8322
  888MOL0     H19855   7.144  10.243   9.355  3.6859  1.9037  1.8937
  888MOL0     H19856   7.298  10.089   9.151 -2.8538 -2.0384 -4.1611
  888MOL0     H19857   7.132  10.133   9.126  0.0059 -0.0931 -0.5178
  888MOL0     H19858   7.394  10.305   9.145  0.3329  0.8019  0.4859
  888MOL0     H19859   7.234  10.378   9.172  0.5734 -0.2150 -0.9872
  888MOL0     H19860   7.166  10.332   8.938  1.4810  2.0923 -1.1498
  888MOL0     H19861   7.304  10.224   8.914 -0.5582  0.8084 -1.7625
  888MOL0     H19862   7.430   9.817   9.053 -1.0311 -0.9471  1.2293
  888MOL0     H19863   7.393   9.872   8.807 -0.8952 -0.8541 -1.9884
  888MOL0     H19864   7.225  10.023   8.367 -1.4441  2.8192 -1.3583
  888MOL0     H19865   7.056  10.093   8.206  0.7682 -0.3232 -0.8288
  888MOL0     H19866   7.186  11.095   8.142  2.8100  0.9136 -0.2778
  888MOL0     H19867   7.218  11.304   8.029  2.1410 -1.4657  0.0376
  888MOL0     H19868   6.964  11.535   7.501  2.0424 -2.2713  0.5833
  888MOL0     H19869   7.029  11.768   7.398 -0.5939 -2.4487 -1.5396
  888MOL0     H19870   7.382  11.954   7.620  0.2628  0.3164  0.0776
  888MOL0     H19871   7.446  11.866   7.484 -1.1782 -2.0460  1.3993
  888MOL0     H19872   7.535  12.073   7.441  0.8364  0.9265 -6.1215
  888MOL0     H19873   7.384  12.144   7.528 -1.0224 -3.9668  2.3499
  888MOL0     H19874   7.260  12.101   7.310 -0.1694  1.7260 -0.3120
  888MOL0     H19875   7.406  12.034   7.237 -1.7724 -0.3638 -1.7292
  888MOL0     H19876   7.355  12.316   7.335 -0.5163  0.3293 -0.3242
  888MOL0     H19877   7.329  12.259   7.164  0.8966 -1.4869 -0.5052
  888MOL0     H19878   7.745  12.332   7.154 -0.5583 -1.5387 -0.4315
  888MOL0     H19879   7.348  11.782   7.695 -1.7687  0.0093  1.8102
  888MOL0     H19880   7.287  11.564   7.785  2.2806  2.9088  0.4453
  889MOL0     O19881   6.084   4.967   9.778 -0.6548  0.7068  0.6034
  889MOL0     C19882   5.979   4.947   9.723  0.0709  0.3482 -0.1814
  889MOL0     O19883   5.955   4.887   9.603 -0.0615 -0.2456  0.3801
  889MOL0     C19884   6.056   4.845   9.515  0.5407 -0.3691 -0.4167
  889MOL0     C19885   6.193   4.813   9.549 -0.0106 -0.2112  0.4564
  889MOL0     C19886   6.288   4.789   9.444 -0.1483  0.5542 -0.4119
  889MOL0     C19887   6.245   4.772   9.315  0.5245 -0.0248 -0.4628
  889MOL0     O19888   6.339   4.742   9.221  0.5759 -0.8119 -0.3902
  889MOL0     C19889   6.302   4.628   9.140 -0.1241 -0.0391 -0.7131
  889MOL0     C19890   6.406   4.622   9.024  0.2748 -0.1757  0.1186
  889MOL0     C19891   6.549   4.581   9.055  0.1208  0.7366  0.2896
  889MOL0     C19892   6.569   4.438   9.120  0.2280 -0.4686  0.4549
  889MOL0     C19893   6.717   4.401   9.120  0.4664  0.4535  0.5355
  889MOL0     C19894   6.735   4.253   9.143  0.5899  0.8305 -1.2828
  889MOL0     C19895   6.751   4.223   9.290  0.5481 -0.6483  0.4612
  889MOL0     C19896   6.801   4.079   9.325 -0.0010  0.9990  0.4093
  889MOL0     N19897   6.732   3.981   9.235 -0.1940 -0.2178 -0.4097
  889MOL0     C19898   6.612   3.928   9.274 -0.6258 -0.5259 -0.1536
  889MOL0     C19899   6.597   3.832   9.193  0.3556  0.0993  0.2072
  889MOL0     C19900   6.475   3.737   9.198 -0.5005 -0.2592 -0.3276
  889MOL0     C19901   6.487   3.612   9.285  0.3900 -0.4942  0.2646
  889MOL0     C19902   6.599   3.532   9.265 -1.1879  0.6763 -0.5305
  889MOL0     C19903   6.622   3.476   9.122 -0.0218  0.6865  0.4218
  889MOL0     O19904   6.744   3.391   9.129 -0.1204  0.1935 -0.0222
  889MOL0     C19905   6.783   3.323   9.020 -0.0397  0.4390  0.3208
  889MOL0     C19906   6.910   3.264   9.031 -0.1550 -0.4571  0.6113
  889MOL0     C19907   6.966   3.189   8.926 -0.2662 -0.5355 -0.3842
  889MOL0     C19908   7.108   3.133   8.951  0.3012 -0.7980 -0.5502
  889MOL0     C19909   6.890   3.181   8.806 -0.4364 -0.7963  0.2298
  889MOL0     C19910   6.917   3.087   8.690 -0.9222 -0.5444 -0.1726
  889MOL0     O19911   7.032   3.009   8.692  0.4283 -0.6984  0.3841
  889MOL0     C19912   7.040   2.920   8.602 -0.6607  1.0090  0.7250
  889MOL0     C19913   6.976   2.801   8.604  0.2004 -1.2488  0.6948
  889MOL0     C19914   6.979   2.717   8.483 -0.0649  0.5558 -1.1591
  889MOL0     C19915   7.059   2.751   8.370  0.8246  0.5184 -0.8025
  889MOL0     O19916   7.056   2.661   8.260 -0.8949  0.7534 -0.2152
  889MOL0     C19917   7.039   2.717   8.132  0.5044 -0.0831 -0.3790
  889MOL0     C19918   6.894   2.770   8.109  0.1949  0.3343  0.3706
  889MOL0     C19919   6.785   2.657   8.087 -0.0603 -0.9037  0.3699
  889MOL0     C19920   6.665   2.709   8.020  0.9621  0.3984  0.7502
  889MOL0     C19921   6.675   2.710   7.866 -0.6045 -1.0318 -0.0802
  889MOL0     C19922   6.545   2.767   7.798 -0.7884  0.1047 -0.1236
  889MOL0     C19923   6.418   2.682   7.809  0.4051 -0.8746  0.2971
  889MOL0     C19924   6.373   2.645   7.674  0.2424  0.6932  0.9440
  889MOL0    Cl19925   6.486   2.544   7.596  0.6615  0.0251  0.1706
  889MOL0     C19926   7.129   2.874   8.373  0.0450 -0.2055  0.7291
  889MOL0     C19927   7.120   2.952   8.489  0.4955 -0.7716  0.0411
  889MOL0     O19928   6.834   3.093   8.600  0.3231 -0.1122  0.1702
  889MOL0     C19929   6.765   3.255   8.797 -0.5658  0.6770  0.3908
  889MOL0     C19930   6.721   3.334   8.899 -0.3967  0.3209  0.1462
  889MOL0     N19931   6.690   3.834   9.094 -0.2276  0.0128  0.1876
  889MOL0     N19932   6.775   3.932   9.121  0.6654  0.4374  0.6115
  889MOL0     C19933   6.103   4.781   9.287  0.1333 -0.4689 -0.4328
  889MOL0     C19934   6.019   4.816   9.386  0.3979 -0.9293  0.2002
  889MOL0     C19935   5.862   4.963   9.813 -0.6187  0.3003  0.2010
  889MOL0     C19936   5.780   4.851   9.836 -0.1864  0.3114  0.0809
  889MOL0     C19937   5.678   4.872   9.922 -0.5942  0.6542  0.0548
  889MOL0     C19938   5.649   4.998   9.987 -0.1318  0.2278 -0.2450
  889MOL0     O19939   5.541   5.006  10.079 -0.3358 -0.4426 -0.1464
  889MOL0     C19940   5.470   5.127  10.099 -0.0586 -0.0646  0.1501
  889MOL0     C19941   5.346   5.105  10.191  0.1670  0.1263 -0.2120
  889MOL0     C19942   5.333   5.230  10.280 -0.8604 -0.5756 -0.0828
  889MOL0     C19943   5.295   5.188  10.425 -0.1889  0.2769 -0.2478
  889MOL0     C19944   5.169   5.121  10.434 -0.0552 -0.2771 -0.3976
  889MOL0     C19945   5.059   5.074  10.451  0.4669 -1.4966  0.5664
  889MOL0     C19946   5.729   5.103   9.956  0.1452 -0.2032  0.9258
  889MOL0     C19947   5.842   5.081   9.880  0.5299 -0.4677  1.0692
  889MOL0     H19948   6.232   4.805   9.650  2.5729 -0.1387 -0.4654
  889MOL0     H19949   6.392   4.772   9.470  0.2344 -0.2709 -2.3264
  889MOL0     H19950   6.306   4.536   9.200  1.7105 -0.3658 -1.2683
  889MOL0     H19951   6.202   4.645   9.098  0.5241  0.4928 -2.1063
  889MOL0     H19952   6.364   4.556   8.948 -3.0686  0.1577  1.5102
  889MOL0     H19953   6.413   4.723   8.982 -3.9694  1.1921  2.1209
  889MOL0     H19954   6.597   4.579   8.957 -0.8299  1.2975 -0.2062
  889MOL0     H19955   6.587   4.664   9.114 -1.0200  1.6117 -0.1558
  889MOL0     H19956   6.537   4.446   9.224 -1.4521 -1.6898  0.0590
  889MOL0     H19957   6.514   4.363   9.063 -0.3145  1.4830 -1.7386
  889MOL0     H19958   6.754   4.420   9.018 -2.5673  1.8836 -0.4029
  889MOL0     H19959   6.773   4.456   9.196 -0.9905  0.8630  1.3380
  889MOL0     H19960   6.665   4.185   9.095  0.7435 -0.3540  0.1296
  889MOL0     H19961   6.834   4.225   9.104  1.7702  2.4933  0.3351
  889MOL0     H19962   6.831   4.286   9.329 -0.4178  0.6943  0.3492
  889MOL0     H19963   6.662   4.254   9.345 -0.0089  2.5099 -1.9384
  889MOL0     H19964   6.766   4.061   9.427  1.0731 -0.6893  0.5138
  889MOL0     H19965   6.910   4.073   9.318 -0.0528  0.4887 -0.0665
  889MOL0     H19966   6.563   3.959   9.365 -1.1984  2.1647 -1.2950
  889MOL0     H19967   6.384   3.795   9.213  0.7829  1.6973  0.3896
  889MOL0     H19968   6.461   3.704   9.094 -4.1710 -3.5177  0.9670
  889MOL0     H19969   6.396   3.551   9.277  1.0188 -1.4748  0.3846
  889MOL0     H19970   6.494   3.641   9.390  1.4315 -0.6598  0.2484
  889MOL0     H19971   6.598   3.446   9.332  0.9269 -0.8329 -2.2731
  889MOL0     H19972   6.685   3.597   9.284 -1.7363  1.1100  0.5281
  889MOL0     H19973   6.661   3.559   9.063  1.6459 -0.2067  0.2326
  889MOL0     H19974   6.525   3.433   9.094  0.2428  0.4557 -0.1345
  889MOL0     H19975   6.943   3.273   9.134  2.5798  0.7586 -0.2984
  889MOL0     H19976   7.170   3.189   8.880 -0.8438 -0.1376 -1.0566
  889MOL0     H19977   7.139   3.148   9.055  1.7791  1.2972 -1.2278
  889MOL0     H19978   7.115   3.025   8.933  2.3532 -0.4292 -2.3737
  889MOL0     H19979   6.924   2.772   8.694 -1.3427  0.3413  0.3630
  889MOL0     H19980   6.933   2.619   8.487  1.2211 -0.1114 -1.8385
  889MOL0     H19981   7.108   2.801   8.119  0.4639 -0.0371 -0.2941
  889MOL0     H19982   7.056   2.643   8.052 -0.8396  0.2807 -1.0398
  889MOL0     H19983   6.861   2.834   8.192  1.7239  0.0730  1.2118
  889MOL0     H19984   6.887   2.823   8.014 -2.2628 -1.1890 -0.3901
  889MOL0     H19985   6.773   2.608   8.184  0.9077 -0.3495  0.7725
  889MOL0     H19986   6.817   2.576   8.021 -0.8039 -1.9212  1.2040
  889MOL0     H19987   6.578   2.650   8.051  1.5587  0.0811  1.8706
  889MOL0     H19988   6.644   2.813   8.049  0.3971  0.2511  0.8911
  889MOL0     H19989   6.688   2.606   7.834 -0.7150 -1.0709  0.0042
  889MOL0     H19990   6.761   2.765   7.826 -2.2650  1.2482 -0.7812
  889MOL0     H19991   6.537   2.861   7.853  0.0209  1.0154 -1.4980
  889MOL0     H19992   6.561   2.788   7.692 -0.3297  0.6712  0.0543
  889MOL0     H19993   6.345   2.732   7.873  0.8785  1.6442 -0.9953
  889MOL0     H19994   6.450   2.589   7.857 -1.4935 -1.9250 -0.3522
  889MOL0     H19995   6.354   2.725   7.603  0.8659 -1.0007 -1.2522
  889MOL0     H19996   6.283   2.586   7.692 -0.4910  0.8762 -1.7485
  889MOL0     H19997   7.192   2.902   8.289 -1.8236  0.1653 -0.6128
  889MOL0     H19998   7.150   3.056   8.479  1.2345 -1.0399 -0.6392
  889MOL0     H19999   6.704   3.272   8.709 -1.3769  1.5693  1.1048
  889MOL0     H20000   6.624   3.382   8.887 -1.2112 -1.5202 -0.9937
  889MOL0     H20001   6.068   4.755   9.188 -0.1372  2.9614 -1.3470
  889MOL0     H20002   5.912   4.831   9.375  0.8601  1.0156 -2.6851
  889MOL0     H20003   5.788   4.756   9.783  2.6513  0.4397  0.1324
  889MOL0     H20004   5.611   4.788   9.935  0.9786 -1.1399 -2.4182
  889MOL0     H20005   5.540   5.203  10.135 -0.0370 -0.6679  1.4179
  889MOL0     H20006   5.435   5.177  10.008  2.6572 -0.2407 -1.0757
  889MOL0     H20007   5.382   5.030  10.262  1.8555 -0.6117 -1.7669
  889MOL0     H20008   5.263   5.074  10.128  0.5184 -0.2319 -0.5044
  889MOL0     H20009   5.253   5.298  10.248 -0.1220  2.8894  4.4543
  889MOL0     H20010   5.426   5.286  10.287 -0.8873 -0.6981  1.6014
  889MOL0     H20011   5.298   5.267  10.500  1.0602 -0.9452  1.0669
  889MOL0     H20012   5.364   5.118  10.474  1.2990  2.5404  1.1188
  889MOL0     H20013   4.968   5.017  10.444  1.0624 -2.3410 -0.6153
  889MOL0     H20014   5.711   5.199  10.003  0.3468  1.4794 -2.1655
  889MOL0     H20015   5.897   5.170   9.852  0.4616 -0.8861 -0.4865
  890MOL0     O20016   7.171   6.942   2.252 -0.7417  0.3924 -0.4178
  890MOL0     C20017   7.256   6.861   2.226  0.2954  0.4245  0.6585
  890MOL0     O20018   7.350   6.810   2.312  0.3732 -0.6496  0.8333
  890MOL0     C20019   7.334   6.843   2.439 -0.1423 -0.4358  0.6012
  890MOL0     C20020   7.346   6.984   2.473  0.2467 -1.1454 -0.4954
  890MOL0     C20021   7.355   7.021   2.607  0.4518 -0.2597 -0.4006
  890MOL0     C20022   7.364   6.925   2.703  0.1721 -0.4308 -0.2363
  890MOL0     O20023   7.380   6.965   2.835 -0.0160 -0.0773 -0.2772
  890MOL0     C20024   7.366   6.866   2.941  0.0983 -0.0484 -0.8091
  890MOL0     C20025   7.393   6.927   3.073  0.3393 -0.3437 -0.7922
  890MOL0     C20026   7.315   6.869   3.186  0.2084  0.8284  0.5684
  890MOL0     C20027   7.337   6.715   3.212 -0.3778  0.4937  0.1787
  890MOL0     C20028   7.246   6.648   3.324  0.0855  0.0909 -1.1501
  890MOL0     C20029   7.108   6.710   3.339 -0.1225  0.2761 -0.8839
  890MOL0     C20030   7.033   6.640   3.449 -0.1151  0.4598 -1.4046
  890MOL0     C20031   6.893   6.706   3.462 -0.7459  1.1485 -0.4759
  890MOL0     N20032   6.816   6.678   3.337  0.3621 -0.4120 -0.3741
  890MOL0     C20033   6.764   6.779   3.268 -1.0518  0.0796  0.7287
  890MOL0     C20034   6.659   6.723   3.199  1.4727  0.2154  0.2093
  890MOL0     C20035   6.556   6.800   3.112 -0.2480  0.9276  0.3868
  890MOL0     C20036   6.502   6.930   3.174  0.8536  0.6613 -0.0136
  890MOL0     C20037   6.375   6.977   3.102 -0.1771  0.5176 -0.0529
  890MOL0     C20038   6.387   6.976   2.946  0.2064  0.2988  0.7871
  890MOL0     O20039   6.512   7.031   2.911  0.0083  0.1088 -0.4453
  890MOL0     C20040   6.521   7.080   2.783  0.1435  1.2351  0.0968
  890MOL0     C20041   6.456   7.021   2.671 -0.4476 -0.5312  0.1688
  890MOL0     C20042   6.474   7.072   2.540  1.2090  0.6561  0.5929
  890MOL0     C20043   6.383   7.010   2.434 -1.0439  0.0397 -0.5982
  890MOL0     C20044   6.553   7.185   2.516  0.2565 -1.2815 -0.3250
  890MOL0     C20045   6.561   7.268   2.384  0.1827 -0.6437  0.2451
  890MOL0     O20046   6.526   7.212   2.258  0.1125 -0.4764  0.9069
  890MOL0     C20047   6.572   7.266   2.140  0.8251 -0.5908 -0.0774
  890MOL0     C20048   6.697   7.329   2.114 -0.6397  0.0876  0.0789
  890MOL0     C20049   6.757   7.379   1.994 -0.4484  0.2430  0.0499
  890MOL0     C20050   6.674   7.353   1.878  0.3888 -0.1093 -0.7203
  890MOL0     O20051   6.701   7.394   1.752 -0.0223 -0.4358 -0.2525
  890MOL0     C20052   6.793   7.500   1.713  0.3879 -0.7052  0.5529
  890MOL0     C20053   6.913   7.428   1.639 -0.1246 -0.2959 -0.6074
  890MOL0     C20054   7.005   7.337   1.725 -0.3187  0.0129  0.0316
  890MOL0     C20055   7.146   7.340   1.674  0.0200  0.9021  0.3399
  890MOL0     C20056   7.230   7.214   1.703 -0.0575  0.2093  0.0744
  890MOL0     C20057   7.260   7.197   1.855  0.1364  1.0078  0.6669
  890MOL0     C20058   7.391   7.120   1.863  0.5160 -0.4816  0.7420
  890MOL0     C20059   7.435   7.118   2.009  0.7969 -1.2394  0.6692
  890MOL0    Cl20060   7.599   7.078   2.016 -0.1943 -0.5900  0.0418
  890MOL0     C20061   6.550   7.290   1.895  0.2447  0.0094  0.6637
  890MOL0     C20062   6.504   7.255   2.024 -0.4102  0.9110 -0.1646
  890MOL0     O20063   6.583   7.388   2.396 -1.0603 -0.2278 -0.0262
  890MOL0     C20064   6.627   7.237   2.626  0.7002 -0.0085 -0.6881
  890MOL0     C20065   6.616   7.179   2.756  0.5705  0.2121  0.6827
  890MOL0     N20066   6.645   6.591   3.232  0.7666 -0.2467  0.2293
  890MOL0     N20067   6.739   6.567   3.318  0.3751 -0.4257  0.3498
  890MOL0     C20068   7.352   6.786   2.669  0.1910 -0.3064  0.9340
  890MOL0     C20069   7.332   6.748   2.531  0.1310 -0.5716 -0.5381
  890MOL0     C20070   7.260   6.805   2.091  0.5832 -0.2695  0.4304
  890MOL0     C20071   7.356   6.725   2.041  0.3772 -0.1268 -0.1724
  890MOL0     C20072   7.338   6.678   1.910  0.4100  0.5776  0.0807
  890MOL0     C20073   7.239   6.720   1.822  0.6590  0.1434 -0.4041
  890MOL0     O20074   7.246   6.677   1.690 -0.3315 -0.5606  0.9598
  890MOL0     C20075   7.191   6.779   1.587  0.5961  0.8425 -0.5194
  890MOL0     C20076   7.240   6.740   1.452  0.1275 -0.2834  0.2757
  890MOL0     C20077   7.393   6.774   1.441 -0.7392 -1.0387  0.3170
  890MOL0     C20078   7.436   6.742   1.293 -1.2033  0.1193 -0.3996
  890MOL0     C20079   7.483   6.606   1.249 -0.7533 -0.5768  0.2683
  890MOL0     C20080   7.512   6.509   1.184  0.0443  0.5843 -0.4774
  890MOL0     C20081   7.140   6.808   1.877 -0.9229  0.2692 -0.7157
  890MOL0     C20082   7.157   6.848   2.008  0.7606  0.4962  0.0082
  890MOL0     H20083   7.346   7.061   2.397  0.3699 -0.7454 -0.0951
  890MOL0     H20084   7.371   7.124   2.636  2.5776 -0.3064 -1.2437
  890MOL0     H20085   7.261   6.837   2.949  0.3205 -0.5310  0.7339
  890MOL0     H20086   7.419   6.771   2.930 -3.5006 -2.5745  1.3917
  890MOL0     H20087   7.496   6.907   3.105  0.1309 -2.4765 -1.3301
  890MOL0     H20088   7.368   7.034   3.074  1.1165 -0.0591  2.8655
  890MOL0     H20089   7.333   6.924   3.279 -3.2563  0.1069  1.8008
  890MOL0     H20090   7.212   6.882   3.151  1.4875  2.6305 -3.1554
  890MOL0     H20091   7.318   6.663   3.118  2.1823  0.3509 -0.3352
  890MOL0     H20092   7.443   6.690   3.229  0.3599 -0.3306 -4.3721
  890MOL0     H20093   7.237   6.540   3.313 -0.2108 -0.4614  2.9294
  890MOL0     H20094   7.293   6.657   3.422  0.3033 -2.0371 -1.0137
  890MOL0     H20095   7.124   6.814   3.366 -1.7421  0.4685 -0.5701
  890MOL0     H20096   7.050   6.708   3.246 -0.8920  3.9497 -0.6005
  890MOL0     H20097   7.034   6.533   3.430 -0.6203  0.0986  0.3672
  890MOL0     H20098   7.085   6.651   3.544 -1.9890 -0.3622 -0.2113
  890MOL0     H20099   6.901   6.808   3.501 -3.6218  1.5745 -0.7182
  890MOL0     H20100   6.848   6.645   3.541  0.5230  1.6444  0.6569
  890MOL0     H20101   6.806   6.879   3.257 -0.6362  0.2446  3.2227
  890MOL0     H20102   6.593   6.821   3.011 -2.2872  0.9250 -0.4125
  890MOL0     H20103   6.482   6.722   3.092  0.9123  0.0704 -0.6839
  890MOL0     H20104   6.574   7.012   3.183  0.5597  0.7448  2.3603
  890MOL0     H20105   6.470   6.907   3.276  2.7344  0.0380  0.4892
  890MOL0     H20106   6.339   7.076   3.132 -2.1758 -1.0580  3.3940
  890MOL0     H20107   6.303   6.908   3.148  2.9249 -1.8434  1.6020
  890MOL0     H20108   6.309   7.038   2.902 -0.0911 -1.0306 -0.6443
  890MOL0     H20109   6.383   6.872   2.911  1.0179  1.3342 -2.7962
  890MOL0     H20110   6.379   6.949   2.698 -0.6945  0.3764  2.0184
  890MOL0     H20111   6.316   7.091   2.403  0.4552  0.5002 -2.8437
  890MOL0     H20112   6.447   6.969   2.355  0.8938  2.4794 -0.4534
  890MOL0     H20113   6.330   6.932   2.488 -0.6679  1.5718  2.1680
  890MOL0     H20114   6.748   7.314   2.208 -0.9380 -0.5785  0.1423
  890MOL0     H20115   6.854   7.429   1.998  0.6325 -1.7825  0.5588
  890MOL0     H20116   6.753   7.578   1.647  1.8016  0.2608  0.8032
  890MOL0     H20117   6.837   7.547   1.801  0.9602  3.6608 -1.8036
  890MOL0     H20118   6.885   7.363   1.555  3.9146 -2.5317 -0.4759
  890MOL0     H20119   6.967   7.516   1.604 -0.3210  0.5097  1.0089
  890MOL0     H20120   6.974   7.234   1.707  0.2609 -0.1275 -0.1884
  890MOL0     H20121   7.007   7.364   1.831 -0.3451  0.7544 -0.1506
  890MOL0     H20122   7.143   7.352   1.566 -5.8279 -3.3754 -0.4642
  890MOL0     H20123   7.188   7.431   1.718 -1.1842  1.5074  0.2910
  890MOL0     H20124   7.327   7.216   1.651 -1.0109 -1.2205 -1.8754
  890MOL0     H20125   7.178   7.125   1.667  0.6355  0.9119 -2.9281
  890MOL0     H20126   7.275   7.287   1.917 -1.1460 -1.0686  4.3444
  890MOL0     H20127   7.180   7.144   1.908 -0.9000  1.5080 -0.3543
  890MOL0     H20128   7.471   7.175   1.812  1.0926 -0.2002  1.9046
  890MOL0     H20129   7.381   7.016   1.833 -0.1078 -0.3312  0.4193
  890MOL0     H20130   7.366   7.061   2.073 -2.9869  2.1710  0.0553
  890MOL0     H20131   7.439   7.220   2.049  3.0646 -1.7163  1.8426
  890MOL0     H20132   6.489   7.274   1.806 -2.4448  3.2844  1.6805
  890MOL0     H20133   6.408   7.207   2.041 -0.4479  1.7081  2.3426
  890MOL0     H20134   6.686   7.327   2.612  2.8003 -1.4618 -1.7009
  890MOL0     H20135   6.665   7.213   2.846  0.2513  0.7846  0.6447
  890MOL0     H20136   7.345   6.702   2.737  2.8021 -0.3332  1.2723
  890MOL0     H20137   7.305   6.650   2.493  0.3012 -1.3579  1.2717
  890MOL0     H20138   7.431   6.696   2.114 -1.4583 -0.1853  1.8141
  890MOL0     H20139   7.423   6.619   1.876  1.5415  2.0157  0.2795
  890MOL0     H20140   7.083   6.774   1.577  0.7888 -1.4713 -2.1484
  890MOL0     H20141   7.218   6.884   1.606 -1.9988  1.8384 -1.9109
  890MOL0     H20142   7.191   6.806   1.380  2.4721  1.1065 -0.1589
  890MOL0     H20143   7.211   6.636   1.433  0.0748 -0.1219 -0.5620
  890MOL0     H20144   7.457   6.716   1.509  1.7359  2.8130  1.6162
  890MOL0     H20145   7.400   6.879   1.470 -0.6211 -1.2870  1.2450
  890MOL0     H20146   7.524   6.801   1.267  2.3216 -4.4148 -0.0702
  890MOL0     H20147   7.361   6.759   1.216 -0.1513 -0.2116 -1.5349
  890MOL0     H20148   7.539   6.419   1.132  2.3007  0.8835  0.0686
  890MOL0     H20149   7.053   6.833   1.817 -2.7045 -1.3606  1.0186
  890MOL0     H20150   7.080   6.912   2.050 -2.5523 -3.4894  0.6525
  891MOL0     O20151   9.161   3.955   7.032  0.0717  0.4356  1.0114
  891MOL0     C20152   9.044   3.946   7.069  0.1800  0.4429 -0.5098
  891MOL0     O20153   8.985   3.839   7.135 -0.3623  1.3525  0.7289
  891MOL0     C20154   9.026   3.711   7.097  0.4071 -0.0403  0.6793
  891MOL0     C20155   9.073   3.664   6.971 -0.6093  0.3755 -0.1423
  891MOL0     C20156   9.114   3.531   6.940  0.2178 -0.0417 -0.0631
  891MOL0     C20157   9.097   3.436   7.041  0.1113 -1.1126  0.0816
  891MOL0     O20158   9.128   3.307   7.016 -0.1229  0.6686  0.2889
  891MOL0     C20159   9.264   3.276   6.965 -0.0910  0.1785  0.3852
  891MOL0     C20160   9.369   3.326   7.053  0.4321  0.1135  0.2631
  891MOL0     C20161   9.515   3.276   7.014  0.5345 -0.6266  1.0985
  891MOL0     C20162   9.540   3.286   6.865 -0.1494 -0.4596 -0.1140
  891MOL0     C20163   9.684   3.257   6.819  0.3418 -0.3243  0.1761
  891MOL0     C20164   9.782   3.363   6.863 -0.4681 -0.9561 -0.5721
  891MOL0     C20165   9.905   3.367   6.780  0.9913  0.0606  0.1678
  891MOL0     C20166  10.015   3.280   6.833 -0.7542 -0.0309  0.1033
  891MOL0     N20167  10.136   3.275   6.749  0.1172 -0.0522  0.0135
  891MOL0     C20168  10.264   3.316   6.788  1.0202 -1.0195  0.6297
  891MOL0     C20169  10.345   3.304   6.679  0.1542 -0.1289 -0.2130
  891MOL0     C20170  10.496   3.339   6.690 -0.4537  0.4000 -0.4727
  891MOL0     C20171  10.577   3.285   6.580  0.2350 -0.6429  0.3673
  891MOL0     C20172  10.536   3.329   6.434  0.1592  0.4229 -0.8686
  891MOL0     C20173  10.631   3.275   6.331 -1.0164  1.3676 -0.9870
  891MOL0     O20174  10.640   3.128   6.335 -0.9307  0.1316  0.5627
  891MOL0     C20175  10.747   3.054   6.387 -0.3883  0.4369  0.4132
  891MOL0     C20176  10.729   2.927   6.439  1.1773 -0.0755  0.8417
  891MOL0     C20177  10.836   2.845   6.491  0.0331  0.0119 -1.0232
  891MOL0     C20178  10.794   2.704   6.539 -0.1737 -0.6244  0.3575
  891MOL0     C20179  10.962   2.907   6.512 -0.1416 -0.5891  0.7830
  891MOL0     C20180  11.083   2.857   6.577 -0.4782  1.0546 -1.1889
  891MOL0     O20181  11.176   2.946   6.610 -1.3777 -1.2920  1.3003
  891MOL0     C20182  11.281   2.902   6.689  0.6307  0.7232 -0.0162
  891MOL0     C20183  11.256   2.898   6.827 -0.3622  0.9469  1.4443
  891MOL0     C20184  11.353   2.852   6.914 -0.7045 -0.4939 -0.5597
  891MOL0     C20185  11.478   2.814   6.854  0.0002 -0.4533 -0.2473
  891MOL0     O20186  11.565   2.782   6.954  0.6891  0.1007 -0.1033
  891MOL0     C20187  11.685   2.721   6.910 -0.8037  0.4648 -0.0456
  891MOL0     C20188  11.785   2.722   7.026  0.5267 -0.2402 -0.0292
  891MOL0     C20189  11.842   2.857   7.076 -0.1146  0.3173  0.5380
  891MOL0     C20190  11.943   2.831   7.188  0.2317  0.1871  0.9356
  891MOL0     C20191  12.027   2.952   7.217 -0.3873  0.3011  0.0629
  891MOL0     C20192  11.953   3.060   7.296  0.6985  0.8945  0.0705
  891MOL0     C20193  11.942   3.188   7.220 -0.8795 -0.0938 -0.6610
  891MOL0     C20194  11.878   3.306   7.282  0.0299  0.0619  0.2628
  891MOL0    Cl20195  11.719   3.273   7.362 -0.1638 -0.1942 -0.5778
  891MOL0     C20196  11.500   2.824   6.718 -0.6067  0.1919  0.5928
  891MOL0     C20197  11.397   2.867   6.636 -0.0567  0.3416  0.2063
  891MOL0     O20198  11.090   2.740   6.614  0.5397 -0.3103  0.3027
  891MOL0     C20199  10.983   3.041   6.466  1.1881  0.0787 -0.7905
  891MOL0     C20200  10.880   3.111   6.405 -0.2270  0.1036  0.3441
  891MOL0     N20201  10.273   3.241   6.577  0.4033  1.0613  0.5720
  891MOL0     N20202  10.159   3.220   6.626 -0.1589  0.2716 -0.0350
  891MOL0     C20203   9.030   3.467   7.154  0.1088  0.4792 -1.2966
  891MOL0     C20204   8.993   3.602   7.172 -0.0355 -0.5572  0.1061
  891MOL0     C20205   8.958   4.066   7.056  0.3303  0.5361 -0.2431
  891MOL0     C20206   8.820   4.044   7.033  0.5724  0.2998  0.1681
  891MOL0     C20207   8.735   4.147   7.025  0.2615  0.0238 -0.3821
  891MOL0     C20208   8.782   4.277   7.025  0.0322  0.4588  1.2832
  891MOL0     O20209   8.703   4.388   6.993  0.1793 -0.6239  0.3498
  891MOL0     C20210   8.558   4.374   6.985 -0.4189 -1.0275 -0.6667
  891MOL0     C20211   8.495   4.332   7.114  0.4880  0.0351 -0.0301
  891MOL0     C20212   8.499   4.448   7.217  0.2426 -1.3152  0.6586
  891MOL0     C20213   8.406   4.438   7.334  0.6097  0.5924 -1.2612
  891MOL0     C20214   8.460   4.375   7.455 -0.1583 -0.1335  0.1618
  891MOL0     C20215   8.503   4.305   7.544  0.9608 -0.1668 -0.3781
  891MOL0     C20216   8.922   4.303   7.037 -0.7897 -0.5627  0.1616
  891MOL0     C20217   9.009   4.195   7.067  0.5169 -0.2733  0.0350
  891MOL0     H20218   9.094   3.734   6.890 -0.9089  0.6773  0.0409
  891MOL0     H20219   9.169   3.519   6.848  2.8770  2.8815  0.9558
  891MOL0     H20220   9.279   3.169   6.947  1.8292  0.6178 -1.0174
  891MOL0     H20221   9.265   3.309   6.860 -3.8354 -0.8759 -0.1177
  891MOL0     H20222   9.367   3.436   7.053  1.9832  0.1661 -0.3711
  891MOL0     H20223   9.342   3.296   7.154 -1.4771  2.5849  0.5822
  891MOL0     H20224   9.585   3.342   7.067  0.3401  0.7232 -0.2538
  891MOL0     H20225   9.540   3.178   7.056  1.0423 -1.0386 -0.1167
  891MOL0     H20226   9.475   3.221   6.807 -0.5640 -0.5062  0.3912
  891MOL0     H20227   9.521   3.391   6.842  0.5530 -0.1709  0.5626
  891MOL0     H20228   9.714   3.157   6.851  1.5960 -1.6160 -4.2381
  891MOL0     H20229   9.694   3.254   6.710  1.6435 -2.9478  0.2918
  891MOL0     H20230   9.741   3.464   6.853  3.6407  0.8135 -2.1382
  891MOL0     H20231   9.805   3.343   6.968  2.3554  1.1811 -0.6623
  891MOL0     H20232   9.885   3.318   6.684 -0.8257 -3.8258  2.2760
  891MOL0     H20233   9.943   3.469   6.773  0.1024  0.3278 -1.1207
  891MOL0     H20234   9.976   3.180   6.856  2.2352 -1.2742  0.3041
  891MOL0     H20235  10.059   3.318   6.926 -0.5084 -2.3704  1.0150
  891MOL0     H20236  10.301   3.359   6.881  0.9955 -0.1374  0.2475
  891MOL0     H20237  10.524   3.444   6.700 -0.8716  0.4449  0.2385
  891MOL0     H20238  10.534   3.293   6.781  0.3716 -3.5321 -2.5699
  891MOL0     H20239  10.567   3.179   6.605 -0.7191 -0.2330  1.9257
  891MOL0     H20240  10.678   3.325   6.593 -0.5912  1.2169  1.4954
  891MOL0     H20241  10.542   3.438   6.419  1.1485  0.9244  2.4793
  891MOL0     H20242  10.435   3.291   6.414  0.3326 -1.2058  1.1571
  891MOL0     H20243  10.731   3.309   6.358 -0.7826  0.0136 -0.0374
  891MOL0     H20244  10.613   3.304   6.227 -2.9326 -2.1970 -1.8289
  891MOL0     H20245  10.632   2.884   6.414  1.6807 -1.1354  0.6462
  891MOL0     H20246  10.687   2.689   6.524 -0.8483  1.4736  2.5174
  891MOL0     H20247  10.852   2.618   6.502  1.3435  0.4932  0.0129
  891MOL0     H20248  10.815   2.711   6.646 -0.6088  4.5405  0.3536
  891MOL0     H20249  11.161   2.939   6.858 -1.6030 -1.9640  1.7457
  891MOL0     H20250  11.340   2.849   7.021 -0.5423 -1.8386 -0.5519
  891MOL0     H20251  11.662   2.621   6.873  1.9247  0.1658 -1.1657
  891MOL0     H20252  11.745   2.763   6.828 -3.9241 -0.6031 -3.1000
  891MOL0     H20253  11.754   2.664   7.113  1.5071 -1.1433 -0.2651
  891MOL0     H20254  11.867   2.661   6.986  1.1840  1.3094 -1.1730
  891MOL0     H20255  11.754   2.908   7.118 -0.0151  1.2113 -0.3154
  891MOL0     H20256  11.891   2.910   6.994 -0.9498 -2.1198 -1.6993
  891MOL0     H20257  11.885   2.801   7.276 -1.5977 -1.9307 -0.8978
  891MOL0     H20258  12.001   2.742   7.162 -1.2234 -1.5669  3.3022
  891MOL0     H20259  12.074   2.995   7.128  1.1383  2.0107  1.6134
  891MOL0     H20260  12.116   2.923   7.273 -0.8781 -1.6314 -0.1007
  891MOL0     H20261  11.855   3.017   7.322  0.4012  1.5806  0.0896
  891MOL0     H20262  11.997   3.078   7.394  0.4359  0.6804  0.2318
  891MOL0     H20263  11.880   3.154   7.136  0.3281 -1.1618 -1.1462
  891MOL0     H20264  12.041   3.221   7.187  0.1734 -1.8719  0.5676
  891MOL0     H20265  11.865   3.396   7.221  2.5222 -0.2659 -0.8683
  891MOL0     H20266  11.943   3.336   7.365 -1.1338  1.2885  0.7830
  891MOL0     H20267  11.601   2.808   6.683 -1.7217 -3.5103 -1.4403
  891MOL0     H20268  11.419   2.868   6.529  0.9387 -3.0136  0.2416
  891MOL0     H20269  11.077   3.095   6.467  1.0151  0.3890 -1.0914
  891MOL0     H20270  10.911   3.214   6.390 -0.0938  0.3671  2.1426
  891MOL0     H20271   9.022   3.394   7.235 -0.0182  0.6205 -1.1803
  891MOL0     H20272   8.936   3.624   7.262 -1.0706 -2.8309  0.0878
  891MOL0     H20273   8.767   3.951   7.019 -1.1121  0.9570  1.7625
  891MOL0     H20274   8.633   4.127   6.995  0.1248  1.7126 -1.1691
  891MOL0     H20275   8.517   4.473   6.961  1.0861 -0.6145 -1.6807
  891MOL0     H20276   8.533   4.306   6.904 -2.2744  2.1987 -3.0288
  891MOL0     H20277   8.537   4.242   7.159  2.1264 -0.6324 -2.6782
  891MOL0     H20278   8.390   4.320   7.087  0.7250  2.9250 -2.9212
  891MOL0     H20279   8.473   4.543   7.169 -0.2581 -1.9459 -0.3632
  891MOL0     H20280   8.598   4.474   7.255  0.2181 -2.1150  1.2870
  891MOL0     H20281   8.311   4.387   7.315  0.5000 -1.5988  3.6009
  891MOL0     H20282   8.367   4.537   7.360 -0.4694 -0.6705  2.7777
  891MOL0     H20283   8.534   4.242   7.625 -1.0868 -0.3861  0.3096
  891MOL0     H20284   8.973   4.396   7.017  1.1940 -2.0683 -2.4417
  891MOL0     H20285   9.115   4.219   7.062  0.2495  0.7464 -3.2896
  892MOL0     O20286   8.090   0.916   5.660 -0.1189 -0.4498 -0.8121
  892MOL0     C20287   7.986   0.903   5.587 -0.8363 -0.2932 -0.1724
  892MOL0     O20288   7.974   0.935   5.452 -0.0772  0.5715 -0.0217
  892MOL0     C20289   8.085   0.973   5.371  0.7674 -0.4122  0.1657
  892MOL0     C20290   8.097   1.103   5.317  0.0804 -0.4580  1.1117
  892MOL0     C20291   8.198   1.132   5.219 -0.3726 -0.6681  0.0636
  892MOL0     C20292   8.283   1.032   5.165  0.4649 -0.2318 -0.7236
  892MOL0     O20293   8.386   1.070   5.084  0.1753 -0.4416  0.8106
  892MOL0     C20294   8.477   0.976   5.031 -0.1176 -0.5341 -0.1327
  892MOL0     C20295   8.564   0.968   5.156 -1.0465 -0.0639  1.3927
  892MOL0     C20296   8.708   0.909   5.117 -0.1354 -0.2608  0.1472
  892MOL0     C20297   8.691   0.754   5.074 -0.5219  0.1659  0.5993
  892MOL0     C20298   8.818   0.681   5.045 -0.1158 -0.3271 -0.4843
  892MOL0     C20299   8.914   0.744   4.951  0.2429  0.3326  0.5032
  892MOL0     C20300   8.863   0.809   4.822 -0.1057 -0.4315  0.1923
  892MOL0     C20301   8.960   0.907   4.761 -0.2049 -0.0737  0.1353
  892MOL0     N20302   8.892   1.013   4.677 -0.6377  0.9554 -0.0122
  892MOL0     C20303   8.860   1.135   4.707  0.8486 -0.7447  0.0862
  892MOL0     C20304   8.799   1.190   4.603 -0.0553  0.5255  0.5221
  892MOL0     C20305   8.754   1.330   4.584  0.3644 -0.6709  0.2544
  892MOL0     C20306   8.732   1.404   4.725  0.7697 -0.2099 -0.5324
  892MOL0     C20307   8.733   1.557   4.715 -0.4112 -0.6970 -0.0798
  892MOL0     C20308   8.861   1.615   4.660  0.9335 -0.2216  0.0536
  892MOL0     O20309   8.826   1.689   4.534 -0.1501 -0.6560  0.1508
  892MOL0     C20310   8.871   1.818   4.514  0.4469  1.1862  1.4388
  892MOL0     C20311   9.005   1.854   4.551 -0.5974 -0.0538  0.2028
  892MOL0     C20312   9.044   1.986   4.539  0.0117 -0.6989 -0.3463
  892MOL0     C20313   9.188   2.029   4.582 -0.4406 -0.8940  0.5864
  892MOL0     C20314   8.953   2.074   4.472  0.4675 -1.4728 -0.3474
  892MOL0     C20315   8.987   2.221   4.458  0.4467 -0.3978  0.5265
  892MOL0     O20316   8.925   2.282   4.349 -0.1130  0.0148 -0.0699
  892MOL0     C20317   8.965   2.398   4.300 -0.2947  0.0474  0.7992
  892MOL0     C20318   8.868   2.487   4.273  0.6046  0.5646  0.8276
  892MOL0     C20319   8.892   2.608   4.215 -0.0769 -0.2286 -0.6618
  892MOL0     C20320   9.031   2.652   4.180  1.0113 -0.0798  0.4733
  892MOL0     O20321   9.048   2.769   4.109  0.2301  0.1220 -0.5622
  892MOL0     C20322   9.122   2.739   3.983 -0.0757 -0.1555 -0.2067
  892MOL0     C20323   9.222   2.862   3.959 -0.0348  0.3667  0.8414
  892MOL0     C20324   9.318   2.903   4.072 -0.5538  0.5086  0.4241
  892MOL0     C20325   9.454   2.828   4.075 -0.0353  0.2457 -0.5821
  892MOL0     C20326   9.545   2.865   4.207  0.6476  0.1466  0.2075
  892MOL0     C20327   9.471   2.831   4.334  0.0793  0.3928 -0.4904
  892MOL0     C20328   9.562   2.866   4.449 -0.2439  0.3061 -0.0087
  892MOL0     C20329   9.546   3.009   4.504  0.3930 -0.0089 -0.0998
  892MOL0    Cl20330   9.684   3.039   4.616 -0.3874  0.5820  0.1833
  892MOL0     C20331   9.129   2.561   4.221 -1.2461  0.0342  0.3436
  892MOL0     C20332   9.103   2.433   4.282 -0.0828 -0.2661 -0.4771
  892MOL0     O20333   9.049   2.283   4.548 -0.3643 -0.2129  0.2421
  892MOL0     C20334   8.843   2.031   4.416  0.1788  1.3034  0.0275
  892MOL0     C20335   8.794   1.907   4.438 -0.1948  0.4547  0.5051
  892MOL0     N20336   8.794   1.092   4.506  0.2234  0.2893  0.0122
  892MOL0     N20337   8.839   0.982   4.558  0.8338  0.0704  0.4317
  892MOL0     C20338   8.264   0.902   5.208  0.3927  1.0021  0.4519
  892MOL0     C20339   8.164   0.870   5.311 -0.2949  0.0511  0.2882
  892MOL0     C20340   7.853   0.850   5.646 -0.1599 -0.7851  0.3147
  892MOL0     C20341   7.834   0.870   5.788 -0.0093  0.1563  0.3323
  892MOL0     C20342   7.718   0.824   5.837  0.8169  0.2043  0.0080
  892MOL0     C20343   7.615   0.767   5.755  0.1794  0.0564 -0.3566
  892MOL0     O20344   7.509   0.714   5.823 -0.1421  0.0990 -0.5104
  892MOL0     C20345   7.400   0.646   5.751  0.7613  0.1638 -0.3880
  892MOL0     C20346   7.292   0.636   5.862 -0.3596  0.7247  0.2477
  892MOL0     C20347   7.329   0.555   5.985  0.5347  0.4637 -0.2124
  892MOL0     C20348   7.214   0.525   6.069 -0.2840  0.5199  0.3870
  892MOL0     C20349   7.243   0.416   6.168 -0.0478  0.3236  0.0263
  892MOL0     C20350   7.260   0.314   6.236  0.8263 -0.2976  0.5228
  892MOL0     C20351   7.642   0.750   5.619  0.1901 -0.5842  0.7148
  892MOL0     C20352   7.763   0.787   5.562  0.1545  0.1092  0.1408
  892MOL0     H20353   8.026   1.167   5.367  2.2137  1.6594  1.6420
  892MOL0     H20354   8.222   1.230   5.179  3.2405 -1.3037  0.3603
  892MOL0     H20355   8.435   0.878   5.005 -1.4975 -0.9480  3.1197
  892MOL0     H20356   8.529   1.020   4.946  2.7588 -0.6602  1.4351
  892MOL0     H20357   8.577   1.072   5.186  2.9758  0.2322 -0.7170
  892MOL0     H20358   8.520   0.909   5.237 -0.4548 -1.6865  0.5910
  892MOL0     H20359   8.752   0.959   5.030 -1.3711 -0.7510 -0.8060
  892MOL0     H20360   8.779   0.914   5.199  4.5871  2.2512 -3.6234
  892MOL0     H20361   8.638   0.689   5.144  1.8313 -5.8683 -2.4596
  892MOL0     H20362   8.643   0.736   4.977  0.8942 -1.3516  0.1249
  892MOL0     H20363   8.877   0.668   5.136 -0.3974  2.0022  0.0985
  892MOL0     H20364   8.788   0.583   5.006  3.9868 -0.8834 -2.7049
  892MOL0     H20365   8.967   0.819   5.011 -2.8457  0.8457  2.8724
  892MOL0     H20366   8.984   0.664   4.923 -0.3693 -0.5245  1.3384
  892MOL0     H20367   8.847   0.726   4.753 -1.6398 -1.1533  1.3420
  892MOL0     H20368   8.769   0.858   4.849 -0.9921 -0.9763 -1.7372
  892MOL0     H20369   9.034   0.842   4.714 -0.6809 -0.7217  0.2709
  892MOL0     H20370   9.008   0.954   4.847 -0.1417 -1.5725  0.9570
  892MOL0     H20371   8.888   1.181   4.802  1.1279 -1.3784  0.3209
  892MOL0     H20372   8.825   1.392   4.529 -2.7359  2.5385 -0.4769
  892MOL0     H20373   8.663   1.339   4.525 -0.3575 -0.1362  1.4142
  892MOL0     H20374   8.799   1.367   4.803 -2.3705 -1.0869  1.9862
  892MOL0     H20375   8.639   1.386   4.780  1.0369  2.5106  0.9913
  892MOL0     H20376   8.731   1.605   4.813  4.1801  1.9602 -0.9803
  892MOL0     H20377   8.641   1.584   4.662 -0.9116 -2.5949 -0.2542
  892MOL0     H20378   8.937   1.539   4.643 -0.6226 -2.4594  2.3046
  892MOL0     H20379   8.897   1.683   4.738 -2.2890  0.4523  1.1299
  892MOL0     H20380   9.084   1.785   4.578  0.6025  1.0527 -0.3578
  892MOL0     H20381   9.250   1.944   4.613 -1.1616 -0.9425  1.9815
  892MOL0     H20382   9.233   2.073   4.492 -0.5819 -1.8456  0.0413
  892MOL0     H20383   9.190   2.097   4.668  3.0514 -0.0376  0.0074
  892MOL0     H20384   8.766   2.452   4.279  0.3375  0.3781 -2.6922
  892MOL0     H20385   8.809   2.676   4.202  0.1697  0.5528  1.4043
  892MOL0     H20386   9.194   2.657   3.991 -2.3571 -2.4808 -1.8545
  892MOL0     H20387   9.051   2.730   3.901 -2.1063  2.4259  1.1063
  892MOL0     H20388   9.280   2.843   3.868  2.9037 -2.4874  3.0752
  892MOL0     H20389   9.154   2.947   3.950  1.3266  1.3056 -1.3698
  892MOL0     H20390   9.278   2.910   4.174  1.8528  2.1895  1.3766
  892MOL0     H20391   9.343   3.009   4.062 -0.4454  0.8972  3.6102
  892MOL0     H20392   9.429   2.721   4.076 -1.2459  0.4364 -2.6740
  892MOL0     H20393   9.502   2.840   3.978  0.5392 -1.1287 -0.4911
  892MOL0     H20394   9.579   2.968   4.196  2.0414 -0.4820 -2.5431
  892MOL0     H20395   9.639   2.808   4.203  0.9934  0.7443 -0.3873
  892MOL0     H20396   9.373   2.879   4.345 -0.7009 -1.5534  1.5800
  892MOL0     H20397   9.465   2.722   4.340 -0.0587  0.4653  1.2017
  892MOL0     H20398   9.669   2.862   4.426  0.0248  4.3515 -0.1919
  892MOL0     H20399   9.528   2.794   4.525 -1.5107 -0.7356 -1.4960
  892MOL0     H20400   9.451   3.010   4.559  0.7604  0.3483  0.5363
  892MOL0     H20401   9.547   3.095   4.437  1.7422  1.4530  1.6912
  892MOL0     H20402   9.231   2.565   4.185 -2.3083 -0.7562 -3.1060
  892MOL0     H20403   9.184   2.369   4.314  0.7462  1.8254  1.9689
  892MOL0     H20404   8.782   2.095   4.353  1.0947  2.5425  0.3778
  892MOL0     H20405   8.693   1.885   4.404 -0.5040 -1.2941  2.3713
  892MOL0     H20406   8.322   0.821   5.165 -2.1619 -0.1866 -1.0303
  892MOL0     H20407   8.163   0.768   5.347  0.0088 -0.2017 -0.3951
  892MOL0     H20408   7.910   0.903   5.858 -0.0336  2.3323 -0.5974
  892MOL0     H20409   7.692   0.840   5.941 -0.0974 -1.1554  0.0298
  892MOL0     H20410   7.349   0.696   5.668 -1.4049  0.7928  1.2141
  892MOL0     H20411   7.429   0.548   5.714 -0.4547  0.7060 -3.0327
  892MOL0     H20412   7.210   0.580   5.816  0.5759  0.2634 -0.9138
  892MOL0     H20413   7.249   0.730   5.897 -0.4039  0.6566  0.3796
  892MOL0     H20414   7.401   0.597   6.055 -0.5743 -2.5847  3.0717
  892MOL0     H20415   7.370   0.458   5.956 -3.4893 -1.3515 -0.4747
  892MOL0     H20416   7.137   0.490   6.000  0.5628  0.7988 -0.7206
  892MOL0     H20417   7.184   0.616   6.122 -0.1448  1.2434 -0.7466
  892MOL0     H20418   7.268   0.229   6.301 -4.1433 -1.3940  0.0695
  892MOL0     H20419   7.583   0.679   5.562 -1.3524  0.6124  0.7822
  892MOL0     H20420   7.776   0.774   5.456  2.4466 -0.9374  0.4863
  893MOL0     O20421   6.784   4.414   8.690 -0.1613 -0.5997 -0.3541
  893MOL0     C20422   6.778   4.309   8.758  0.0642  0.4435  0.0295
  893MOL0     O20423   6.877   4.248   8.829 -0.5167  0.0780  0.5321
  893MOL0     C20424   7.006   4.297   8.798  0.2637  0.1681  0.0041
  893MOL0     C20425   7.090   4.333   8.902 -0.4728  1.2660  0.8090
  893MOL0     C20426   7.225   4.365   8.869  0.4008  0.5245 -0.9066
  893MOL0     C20427   7.277   4.363   8.742  0.0463  0.9425  1.0879
  893MOL0     O20428   7.417   4.393   8.735 -0.4299  0.3139  0.1522
  893MOL0     C20429   7.474   4.298   8.650 -0.9040  0.1462 -0.4690
  893MOL0     C20430   7.632   4.293   8.670  0.1115 -0.8882  0.6174
  893MOL0     C20431   7.671   4.278   8.809  0.1302  0.3473  0.1829
  893MOL0     C20432   7.816   4.232   8.814 -0.2569 -0.5352  0.0488
  893MOL0     C20433   7.846   4.092   8.763  0.2691  0.3404  0.3572
  893MOL0     C20434   7.972   4.050   8.830  0.1802  0.2509 -0.1634
  893MOL0     C20435   7.940   3.986   8.971  0.0283 -0.8224  0.6807
  893MOL0     C20436   8.068   3.921   9.024  0.8250  1.1402 -0.0110
  893MOL0     N20437   8.065   3.876   9.169 -0.2043 -0.5302 -0.2045
  893MOL0     C20438   8.152   3.946   9.254  0.3540 -0.3308  0.4864
  893MOL0     C20439   8.164   3.868   9.363  0.4190 -0.1584 -0.0938
  893MOL0     C20440   8.268   3.902   9.472 -0.9050  0.2151 -0.3810
  893MOL0     C20441   8.403   3.839   9.440  0.4827 -0.0678 -0.2867
  893MOL0     C20442   8.501   3.859   9.565 -0.7024 -0.1113  0.2417
  893MOL0     C20443   8.648   3.841   9.535  0.8601  0.1338  0.4065
  893MOL0     O20444   8.711   3.839   9.671  0.0678 -0.1877 -0.1004
  893MOL0     C20445   8.824   3.762   9.688  0.0535  0.3268 -0.0050
  893MOL0     C20446   8.936   3.759   9.610 -0.7769 -0.5654  0.3852
  893MOL0     C20447   9.050   3.681   9.622  0.2843 -0.4694 -0.3436
  893MOL0     C20448   9.159   3.685   9.520 -0.7378 -0.7770  1.0848
  893MOL0     C20449   9.053   3.593   9.738 -0.3119  0.4064 -0.6373
  893MOL0     C20450   9.162   3.498   9.769  0.5846 -0.4413  0.3570
  893MOL0     O20451   9.115   3.391   9.840 -0.5283 -0.0615  0.3282
  893MOL0     C20452   9.214   3.306   9.879 -0.5947  0.6372 -0.0565
  893MOL0     C20453   9.294   3.341   9.989 -0.2432 -0.5065  0.3678
  893MOL0     C20454   9.392   3.262  10.034 -0.2871  0.0240  0.0811
  893MOL0     C20455   9.423   3.139   9.965 -0.4028  1.1257  0.1460
  893MOL0     O20456   9.519   3.065  10.018  0.1467  0.4174  0.4068
  893MOL0     C20457   9.533   2.925  10.003  0.2747 -0.7430  0.3174
  893MOL0     C20458   9.609   2.870  10.122 -0.0338  0.8673 -0.6075
  893MOL0     C20459   9.641   2.713  10.094 -0.1503 -0.6642  0.1391
  893MOL0     C20460   9.726   2.655  10.202  0.0187  0.1836  0.1159
  893MOL0     C20461   9.733   2.492  10.195 -0.1961 -0.6965 -0.4797
  893MOL0     C20462   9.840   2.443  10.303  0.2124  0.5498 -0.0971
  893MOL0     C20463   9.876   2.295  10.274  0.3923  0.3826 -0.7443
  893MOL0     C20464   9.953   2.238  10.389 -0.6426 -0.3734 -0.7490
  893MOL0    Cl20465   9.857   2.211  10.530 -0.4478  0.0837 -0.2005
  893MOL0     C20466   9.346   3.105   9.857 -0.1926 -0.1922 -0.0864
  893MOL0     C20467   9.236   3.186   9.817  0.0619 -0.2568  0.1392
  893MOL0     O20468   9.269   3.505   9.714 -0.2703  0.2443  0.0039
  893MOL0     C20469   8.940   3.591   9.826 -0.7904  0.3601  0.6933
  893MOL0     C20470   8.830   3.673   9.796  0.2204 -0.8766 -0.1909
  893MOL0     N20471   8.064   3.766   9.350  0.5899  0.4943 -0.3358
  893MOL0     N20472   8.006   3.769   9.233  0.6964 -0.8431 -0.1045
  893MOL0     C20473   7.191   4.326   8.632 -0.6502  0.2263 -0.0295
  893MOL0     C20474   7.055   4.295   8.665  0.7527 -0.1338  0.5852
  893MOL0     C20475   6.652   4.241   8.776 -0.8991  0.0046 -0.4532
  893MOL0     C20476   6.534   4.316   8.753 -0.0574 -0.4409 -0.7628
  893MOL0     C20477   6.417   4.261   8.785  0.1440  0.6181  1.2053
  893MOL0     C20478   6.405   4.138   8.853  0.8947  0.4605 -0.2924
  893MOL0     O20479   6.278   4.100   8.882  0.2933 -0.4077 -0.4106
  893MOL0     C20480   6.261   3.967   8.935 -0.5591  0.3978 -1.0544
  893MOL0     C20481   6.122   3.956   9.001  0.1537  0.0089 -0.3715
  893MOL0     C20482   6.111   4.007   9.146 -0.2521  0.0142  0.6061
  893MOL0     C20483   5.961   4.010   9.190 -0.5919  0.0324 -0.3819
  893MOL0     C20484   5.953   4.072   9.328 -0.5154 -0.3875 -0.0046
  893MOL0     C20485   5.942   4.127   9.443 -0.2724  0.3162  0.5501
  893MOL0     C20486   6.522   4.065   8.881 -0.5154  0.2286  0.4956
  893MOL0     C20487   6.647   4.112   8.835 -0.8402 -0.4465 -0.2213
  893MOL0     H20488   7.057   4.343   9.005  1.2258 -0.6627  1.6036
  893MOL0     H20489   7.293   4.402   8.945 -0.3414  1.6295 -0.7501
  893MOL0     H20490   7.431   4.199   8.666  1.6411 -1.3780 -2.2458
  893MOL0     H20491   7.457   4.327   8.546 -2.9786 -0.6088 -0.3956
  893MOL0     H20492   7.663   4.206   8.610 -1.3998 -2.1756  1.6334
  893MOL0     H20493   7.683   4.384   8.636 -1.5629 -0.1790 -0.0993
  893MOL0     H20494   7.658   4.377   8.854  2.5163  1.6252 -1.7393
  893MOL0     H20495   7.613   4.196   8.854 -2.0171  0.6208 -1.9017
  893MOL0     H20496   7.882   4.301   8.759  1.9214 -2.1743  0.4607
  893MOL0     H20497   7.845   4.244   8.919 -2.9092  3.2562  0.5440
  893MOL0     H20498   7.763   4.028   8.795  1.2631 -1.3786 -0.4026
  893MOL0     H20499   7.844   4.083   8.654 -1.4564  0.6505  0.3347
  893MOL0     H20500   8.006   3.960   8.777  1.1593  0.1610  0.5993
  893MOL0     H20501   8.041   4.134   8.827  0.4539  0.0335 -0.0446
  893MOL0     H20502   7.914   4.063   9.044 -1.3131 -0.2594 -0.3547
  893MOL0     H20503   7.850   3.924   8.964  0.0157 -1.0476  2.3851
  893MOL0     H20504   8.159   3.981   9.019  0.8459  1.0114 -1.8249
  893MOL0     H20505   8.081   3.835   8.957 -1.1228  1.5686 -1.0226
  893MOL0     H20506   8.204   4.039   9.236 -3.8112  1.9766 -1.2735
  893MOL0     H20507   8.288   4.008   9.488 -0.4059  0.3561 -1.8046
  893MOL0     H20508   8.230   3.867   9.568  0.3286  0.5050  0.2372
  893MOL0     H20509   8.462   3.878   9.357  0.5605  2.0241  0.6824
  893MOL0     H20510   8.379   3.735   9.413 -2.1615  0.5585 -0.6572
  893MOL0     H20511   8.458   3.806   9.651 -0.7668  0.3645  0.5021
  893MOL0     H20512   8.499   3.963   9.597  0.1644 -0.0696  0.1749
  893MOL0     H20513   8.701   3.911   9.468  0.9140 -1.6156 -1.4925
  893MOL0     H20514   8.646   3.747   9.479 -1.2416  2.0013 -3.0524
  893MOL0     H20515   8.923   3.832   9.530 -0.8736 -1.6640 -0.6267
  893MOL0     H20516   9.237   3.756   9.549  0.0358 -0.2620 -1.8790
  893MOL0     H20517   9.206   3.592   9.488 -1.6631  0.2111 -3.9339
  893MOL0     H20518   9.133   3.738   9.428  1.7717  0.4765  0.9943
  893MOL0     H20519   9.275   3.438  10.035  1.0090  2.3277 -4.4460
  893MOL0     H20520   9.452   3.284  10.122 -1.1219 -1.7858  1.1614
  893MOL0     H20521   9.434   2.877   9.996  0.6955 -1.5137 -0.5950
  893MOL0     H20522   9.592   2.910   9.912  0.3436 -1.9189  0.5357
  893MOL0     H20523   9.699   2.929  10.141  0.9575 -0.9862  0.8855
  893MOL0     H20524   9.560   2.884  10.219  0.8264 -0.3890  0.0538
  893MOL0     H20525   9.689   2.696   9.998  2.2904  1.8881  0.7699
  893MOL0     H20526   9.543   2.664  10.095 -0.4884 -0.0744  2.2962
  893MOL0     H20527   9.829   2.689  10.190 -0.1440 -0.3999 -5.0030
  893MOL0     H20528   9.690   2.688  10.300 -2.2504 -4.9389  1.3783
  893MOL0     H20529   9.748   2.476  10.088 -0.2912 -1.1717 -0.4216
  893MOL0     H20530   9.633   2.460  10.223 -1.1770  1.0342 -1.8155
  893MOL0     H20531   9.933   2.500  10.289  0.2504  0.2040 -1.3745
  893MOL0     H20532   9.814   2.438  10.409  0.0983  4.2387  0.1760
  893MOL0     H20533   9.931   2.295  10.179 -0.4586 -2.7220 -1.3297
  893MOL0     H20534   9.797   2.224  10.248  1.1110 -0.8120  0.2695
  893MOL0     H20535  10.039   2.302  10.408  0.6656 -2.2963  0.0534
  893MOL0     H20536  10.004   2.146  10.360  1.8065  0.0303  1.9213
  893MOL0     H20537   9.353   3.010   9.805 -1.6497 -0.5537  0.3506
  893MOL0     H20538   9.180   3.162   9.728  1.5919 -0.7324 -0.7387
  893MOL0     H20539   8.931   3.510   9.898 -2.3763 -0.1176  0.0110
  893MOL0     H20540   8.744   3.652   9.859  0.5194 -2.1457 -0.1658
  893MOL0     H20541   7.225   4.313   8.530  2.8929  0.4636  0.9956
  893MOL0     H20542   6.988   4.269   8.583 -0.9964  0.9094  1.6169
  893MOL0     H20543   6.536   4.415   8.709  2.9916  0.0252  0.1978
  893MOL0     H20544   6.329   4.321   8.762  0.8965  0.9268 -1.1155
  893MOL0     H20545   6.272   3.892   8.856 -2.7061  0.7530 -1.7556
  893MOL0     H20546   6.331   3.945   9.015  1.9072 -0.0776 -3.2056
  893MOL0     H20547   6.085   3.853   8.999 -0.4242  0.1128  2.1310
  893MOL0     H20548   6.050   4.013   8.941  2.1395  1.0799 -1.8759
  893MOL0     H20549   6.150   4.107   9.165  0.8224  0.1187 -1.7525
  893MOL0     H20550   6.165   3.934   9.207  2.4035 -1.6702 -3.2859
  893MOL0     H20551   5.924   3.907   9.189  1.5056 -0.9014  2.6435
  893MOL0     H20552   5.910   4.075   9.118  0.2541  2.9036  1.4242
  893MOL0     H20553   5.925   4.166   9.541  0.8765 -0.2118  0.9759
  893MOL0     H20554   6.511   3.972   8.935 -0.1253 -0.7012 -0.9667
  893MOL0     H20555   6.730   4.048   8.860 -0.3454  1.2940  3.1896
  894MOL0     O20556   3.516   1.043   9.779 -0.0875  0.2076  1.2249
  894MOL0     C20557   3.617   0.975   9.744  0.4537  0.0650 -0.2094
  894MOL0     O20558   3.639   0.926   9.616 -0.1649 -0.0747 -0.0649
  894MOL0     C20559   3.553   0.944   9.507 -0.6199  0.9408 -0.5665
  894MOL0     C20560   3.616   0.903   9.386 -0.3841  0.3418 -0.3003
  894MOL0     C20561   3.542   0.920   9.269 -0.1158 -0.5844  0.6090
  894MOL0     C20562   3.404   0.950   9.274 -1.4428  0.4981 -0.2920
  894MOL0     O20563   3.321   0.963   9.169  0.0244  0.2919 -0.2099
  894MOL0     C20564   3.380   0.972   9.036  0.4986  0.4054  0.0904
  894MOL0     C20565   3.276   1.018   8.939  0.1937 -0.4113  0.1319
  894MOL0     C20566   3.225   0.903   8.846 -0.3283  0.7373  1.9150
  894MOL0     C20567   3.127   0.821   8.919  0.6332  0.6187 -0.7104
  894MOL0     C20568   3.069   0.718   8.821 -0.7870 -0.7260 -0.2004
  894MOL0     C20569   3.156   0.606   8.762  0.2802 -0.1543 -0.0462
  894MOL0     C20570   3.220   0.521   8.874 -0.5960 -0.4254 -0.4551
  894MOL0     C20571   3.281   0.398   8.813  1.1760  0.8247 -0.0365
  894MOL0     N20572   3.353   0.389   8.692 -0.1551 -0.3562  0.7652
  894MOL0     C20573   3.323   0.314   8.585  0.4842  0.4191 -0.3370
  894MOL0     C20574   3.427   0.325   8.494 -0.5094  0.1113  0.9513
  894MOL0     C20575   3.447   0.264   8.359  0.1812  0.1500  1.3044
  894MOL0     C20576   3.569   0.179   8.349 -0.5373  0.2450 -0.8193
  894MOL0     C20577   3.569   0.051   8.434 -0.5028 -1.2937  0.6088
  894MOL0     C20578   3.702  -0.019   8.404  0.0987 -0.4117 -0.0545
  894MOL0     O20579   3.825   0.062   8.411  0.5605 -0.1479  0.3708
  894MOL0     C20580   3.947  -0.005   8.395  0.6855 -0.3789 -0.2022
  894MOL0     C20581   4.060   0.067   8.419  0.2531  0.0069 -0.3159
  894MOL0     C20582   4.187   0.007   8.414 -0.2591  0.6448 -0.3517
  894MOL0     C20583   4.307   0.104   8.429 -0.1758 -0.0368  0.1224
  894MOL0     C20584   4.199  -0.130   8.365  0.7504 -0.1941  1.0548
  894MOL0     C20585   4.325  -0.202   8.345  0.3014 -0.2789  0.0600
  894MOL0     O20586   4.322  -0.338   8.339  0.0744 -0.1718  0.6274
  894MOL0     C20587   4.443  -0.409   8.341  0.7343  0.1879 -0.9678
  894MOL0     C20588   4.440  -0.530   8.276 -0.6990 -0.9230  0.5413
  894MOL0     C20589   4.546  -0.613   8.292  0.1004  0.3806 -1.0914
  894MOL0     C20590   4.669  -0.580   8.349  0.4336  0.4353 -0.8090
  894MOL0     O20591   4.783  -0.653   8.342 -0.3797 -0.2685  0.8912
  894MOL0     C20592   4.786  -0.766   8.430  0.4487 -0.3454  0.2626
  894MOL0     C20593   4.931  -0.820   8.432 -0.6756 -0.1428  0.0910
  894MOL0     C20594   4.947  -0.944   8.523 -0.5556 -0.5652 -0.0330
  894MOL0     C20595   5.101  -0.964   8.525 -0.0925  0.2807 -0.0850
  894MOL0     C20596   5.167  -1.079   8.597  0.0629 -0.3545  0.1395
  894MOL0     C20597   5.114  -1.213   8.546  0.7107 -0.4655  0.2549
  894MOL0     C20598   5.218  -1.321   8.567  0.1210  0.5049 -0.5197
  894MOL0     C20599   5.179  -1.457   8.495  0.4533 -0.3180 -0.5677
  894MOL0    Cl20600   5.159  -1.445   8.320 -0.2142 -0.5170 -0.5296
  894MOL0     C20601   4.675  -0.453   8.403  0.1226 -0.2031 -0.4797
  894MOL0     C20602   4.560  -0.375   8.413 -0.6894 -0.5215  1.2405
  894MOL0     O20603   4.425  -0.130   8.329 -0.0173 -0.4861 -0.2472
  894MOL0     C20604   4.083  -0.202   8.351 -0.2587 -1.0817 -0.7656
  894MOL0     C20605   3.960  -0.141   8.364 -0.6795 -0.0079 -0.5257
  894MOL0     N20606   3.512   0.425   8.546 -0.4912 -0.2442 -0.1151
  894MOL0     N20607   3.469   0.463   8.666 -1.0456 -0.5686 -0.0571
  894MOL0     C20608   3.345   0.970   9.395  0.3760  0.2949 -1.1122
  894MOL0     C20609   3.420   0.972   9.513 -0.5570 -1.0949  0.5427
  894MOL0     C20610   3.728   0.962   9.843  0.7231  0.1244  0.7812
  894MOL0     C20611   3.831   0.868   9.820  0.2395  0.2100 -0.0168
  894MOL0     C20612   3.935   0.859   9.912 -0.2560 -0.9779 -0.3782
  894MOL0     C20613   3.937   0.921  10.039 -0.6748  0.6625  0.0069
  894MOL0     O20614   4.044   0.894  10.118  0.3799 -0.1941 -0.6657
  894MOL0     C20615   4.077   0.998  10.213 -0.1292  0.2378  0.4752
  894MOL0     C20616   4.142   1.127  10.164  0.6534 -0.1304 -0.6676
  894MOL0     C20617   4.265   1.101  10.083 -0.9136 -0.1322  0.5437
  894MOL0     C20618   4.298   1.221   9.996  1.1994 -0.8657 -0.0494
  894MOL0     C20619   4.357   1.332  10.081  0.2639  0.2854  1.1066
  894MOL0     C20620   4.399   1.411  10.159 -0.0849  0.0861 -0.3313
  894MOL0     C20621   3.826   1.001  10.064 -0.1872 -0.0308  0.2237
  894MOL0     C20622   3.729   1.030   9.959  0.9410  0.2696 -0.2956
  894MOL0     H20623   3.717   0.864   9.382 -0.8311 -0.7816 -1.4959
  894MOL0     H20624   3.571   0.899   9.166 -0.8493 -0.0654  0.2835
  894MOL0     H20625   3.468   1.037   9.035  1.8725 -1.3608 -0.0381
  894MOL0     H20626   3.423   0.874   9.013  0.6664  0.5542 -0.2341
  894MOL0     H20627   3.191   1.062   8.991 -0.2593 -0.8079 -0.2636
  894MOL0     H20628   3.334   1.078   8.868  3.4520 -5.3136 -1.8939
  894MOL0     H20629   3.178   0.951   8.758  0.7209 -2.4376 -0.5711
  894MOL0     H20630   3.302   0.833   8.812 -1.1955  0.1387  1.1143
  894MOL0     H20631   3.160   0.773   9.012 -2.4144 -0.4912 -0.0756
  894MOL0     H20632   3.048   0.888   8.956  1.2708  0.8350  0.3290
  894MOL0     H20633   2.988   0.666   8.874 -0.4209 -0.8996  0.1904
  894MOL0     H20634   3.032   0.775   8.735  0.8811  2.3145  0.9353
  894MOL0     H20635   3.088   0.543   8.705  1.4153  0.7188 -2.4877
  894MOL0     H20636   3.235   0.637   8.693 -0.2530  1.4950  0.0438
  894MOL0     H20637   3.292   0.578   8.934 -1.4828 -0.7020  0.9293
  894MOL0     H20638   3.139   0.492   8.941  0.9249  0.8895  2.1090
  894MOL0     H20639   3.216   0.312   8.828  1.8178  0.7734  3.2480
  894MOL0     H20640   3.355   0.367   8.887  2.7753  2.5477 -0.8211
  894MOL0     H20641   3.232   0.259   8.566 -0.6043  2.6517 -2.2090
  894MOL0     H20642   3.356   0.208   8.336 -0.3543  2.6562 -4.4435
  894MOL0     H20643   3.459   0.341   8.283  3.1678 -3.4324 -2.3701
  894MOL0     H20644   3.660   0.237   8.365 -0.4070  0.1871 -1.3243
  894MOL0     H20645   3.560   0.134   8.249  0.7670 -3.7211  0.6714
  894MOL0     H20646   3.481  -0.002   8.396 -1.3904  0.9731 -0.7351
  894MOL0     H20647   3.556   0.081   8.538  0.3874  1.1519  0.0871
  894MOL0     H20648   3.709  -0.071   8.308 -0.0219  0.9773 -0.8370
  894MOL0     H20649   3.716  -0.090   8.487  1.4509  0.1706  0.2389
  894MOL0     H20650   4.067   0.172   8.445 -0.2789 -0.5627  2.4873
  894MOL0     H20651   4.377   0.074   8.507  0.5486 -1.2796 -0.9483
  894MOL0     H20652   4.356   0.126   8.333  0.3024  0.0665  0.3875
  894MOL0     H20653   4.266   0.198   8.466 -0.3616 -0.8193  1.9764
  894MOL0     H20654   4.353  -0.575   8.229  0.0817 -1.9478  0.0281
  894MOL0     H20655   4.533  -0.718   8.266 -2.3113 -0.5535  3.0185
  894MOL0     H20656   4.751  -0.736   8.529 -1.2759  0.2104 -0.4773
  894MOL0     H20657   4.715  -0.840   8.393 -1.3351  0.4125  1.9916
  894MOL0     H20658   4.962  -0.847   8.330 -2.4845 -3.5339  0.2809
  894MOL0     H20659   4.984  -0.735   8.475  0.7356 -1.8364  1.8500
  894MOL0     H20660   4.898  -1.027   8.472 -0.7404 -1.9822  2.2909
  894MOL0     H20661   4.914  -0.924   8.625 -2.2098 -0.3952 -0.5852
  894MOL0     H20662   5.136  -0.987   8.424  0.0903 -4.3229  0.7995
  894MOL0     H20663   5.157  -0.877   8.559  0.0621  0.1139  0.0932
  894MOL0     H20664   5.134  -1.080   8.701  1.1611 -3.5882  0.5681
  894MOL0     H20665   5.274  -1.058   8.588 -0.0586  0.1523 -0.1670
  894MOL0     H20666   5.023  -1.224   8.607 -0.2579  3.1552 -0.2739
  894MOL0     H20667   5.087  -1.205   8.440 -0.6560 -0.9272  0.5516
  894MOL0     H20668   5.226  -1.343   8.674 -0.4897 -2.7674 -1.0179
  894MOL0     H20669   5.316  -1.280   8.541 -0.5469 -0.2574 -5.1254
  894MOL0     H20670   5.086  -1.491   8.541  1.5184 -0.5417  1.5945
  894MOL0     H20671   5.247  -1.540   8.517  0.5117 -0.2383 -0.4483
  894MOL0     H20672   4.775  -0.415   8.424 -0.1998 -0.7410  2.4771
  894MOL0     H20673   4.573  -0.276   8.456  2.5481 -0.3278  0.1111
  894MOL0     H20674   4.081  -0.310   8.337  0.6780 -0.9640 -2.0131
  894MOL0     H20675   3.876  -0.209   8.372 -0.6930 -0.1533 -1.6209
  894MOL0     H20676   3.238   0.982   9.413 -0.1008 -3.7030 -0.2754
  894MOL0     H20677   3.374   1.001   9.606 -1.1685 -0.6795  0.1142
  894MOL0     H20678   3.830   0.813   9.726  0.0092 -2.8097  1.6366
  894MOL0     H20679   4.031   0.815   9.887  0.1840 -0.8481  0.9751
  894MOL0     H20680   4.002   1.021  10.289 -2.3703  1.1328 -1.8641
  894MOL0     H20681   4.156   0.940  10.261  0.2457 -1.3040 -1.8391
  894MOL0     H20682   4.182   1.183  10.249  1.3989 -2.8762  0.9315
  894MOL0     H20683   4.074   1.188  10.104  0.0723  1.6211  1.6400
  894MOL0     H20684   4.257   1.017  10.014  0.2141  0.4461 -0.3161
  894MOL0     H20685   4.355   1.083  10.142 -0.0923 -0.2672 -0.7147
  894MOL0     H20686   4.212   1.252   9.936  1.5523 -0.1380 -0.1899
  894MOL0     H20687   4.376   1.191   9.926  1.3003 -3.3100  0.9908
  894MOL0     H20688   4.440   1.476  10.233  1.6492  0.0031 -1.1562
  894MOL0     H20689   3.836   1.052  10.160  1.0648 -0.5276  0.3852
  894MOL0     H20690   3.652   1.099   9.993  2.6833  0.3246  4.2961
  895MOL0     O20691   5.862   6.753   6.892  0.3217  0.1807 -0.0863
  895MOL0     C20692   5.809   6.660   6.838  1.5123 -0.5452  1.1597
  895MOL0     O20693   5.785   6.542   6.895  0.0456  0.0577  0.8223
  895MOL0     C20694   5.812   6.540   7.035 -0.0452 -0.0110  0.7763
  895MOL0     C20695   5.707   6.513   7.117 -0.9894  0.1403 -0.9012
  895MOL0     C20696   5.739   6.491   7.256 -0.0652 -0.1656 -0.7190
  895MOL0     C20697   5.869   6.519   7.311 -0.0963  0.4776  0.6474
  895MOL0     O20698   5.877   6.504   7.447  1.1253  0.5559 -0.6746
  895MOL0     C20699   5.997   6.546   7.506  0.2723 -0.6990 -0.4526
  895MOL0     C20700   6.007   6.500   7.651 -0.7401  0.6122 -0.2820
  895MOL0     C20701   5.889   6.532   7.733  0.5114  0.5069 -1.1168
  895MOL0     C20702   5.914   6.469   7.874  0.2631 -0.5995 -0.5301
  895MOL0     C20703   5.774   6.476   7.940 -1.0354  0.4840 -0.8999
  895MOL0     C20704   5.806   6.417   8.081  0.8819  0.9652  1.0156
  895MOL0     C20705   5.700   6.464   8.185 -0.0144 -0.1062  1.0331
  895MOL0     C20706   5.733   6.405   8.324  0.4807  0.2287 -0.3154
  895MOL0     N20707   5.693   6.264   8.320 -0.0010 -0.2971 -0.2997
  895MOL0     C20708   5.755   6.159   8.398 -0.1002 -1.2183  0.5285
  895MOL0     C20709   5.687   6.044   8.374 -0.3764 -0.2341  0.3310
  895MOL0     C20710   5.728   5.906   8.419  0.1721 -0.0027 -0.1994
  895MOL0     C20711   5.772   5.907   8.568  0.4793 -0.9887  1.3970
  895MOL0     C20712   5.783   5.773   8.618 -0.1621 -0.5331 -0.4370
  895MOL0     C20713   5.830   5.779   8.766 -1.0602  0.5098 -0.2335
  895MOL0     O20714   5.846   5.650   8.834  0.1038  0.0783  0.6692
  895MOL0     C20715   5.967   5.591   8.810 -0.1256  0.3522 -1.0018
  895MOL0     C20716   6.069   5.615   8.903 -0.3200  0.7195  0.6895
  895MOL0     C20717   6.198   5.551   8.891  1.1260  0.6631  0.9606
  895MOL0     C20718   6.289   5.573   9.000 -0.5872  0.7282  0.3054
  895MOL0     C20719   6.227   5.463   8.782 -0.0546 -0.4792 -0.0476
  895MOL0     C20720   6.341   5.389   8.760  1.2199  0.4773 -0.2958
  895MOL0     O20721   6.381   5.384   8.626  0.6031 -0.2326  0.1857
  895MOL0     C20722   6.492   5.326   8.578 -0.0164  0.4948  0.3372
  895MOL0     C20723   6.567   5.227   8.648 -0.2336  0.6740  0.0481
  895MOL0     C20724   6.684   5.169   8.590 -0.3819  0.1761  0.4875
  895MOL0     C20725   6.729   5.213   8.463 -0.2108  0.6949  0.2268
  895MOL0     O20726   6.846   5.176   8.394  0.0154 -0.2065 -0.3150
  895MOL0     C20727   6.956   5.092   8.449 -0.1463  0.2615 -0.2933
  895MOL0     C20728   7.073   5.093   8.356  0.9181 -0.2815 -0.5594
  895MOL0     C20729   7.112   5.239   8.333  0.0610 -0.1695 -0.5346
  895MOL0     C20730   7.194   5.313   8.447 -0.3263  0.4622 -0.0365
  895MOL0     C20731   7.328   5.250   8.438 -0.6390 -0.5147  0.2047
  895MOL0     C20732   7.425   5.322   8.538  1.1360 -0.1173  0.0408
  895MOL0     C20733   7.392   5.306   8.685  0.7065 -0.9765 -0.4321
  895MOL0     C20734   7.493   5.370   8.783  0.3776 -0.0681 -0.2817
  895MOL0    Cl20735   7.642   5.278   8.756  0.1316  0.3351 -0.2222
  895MOL0     C20736   6.655   5.312   8.397 -0.7815 -0.3363 -0.8994
  895MOL0     C20737   6.538   5.371   8.454 -0.9858  0.1999 -0.4650
  895MOL0     O20738   6.405   5.340   8.855  0.4557  0.2017 -0.6916
  895MOL0     C20739   6.117   5.442   8.685  0.3820  1.0942  0.6901
  895MOL0     C20740   5.993   5.498   8.708  1.4843  0.3416 -0.2485
  895MOL0     N20741   5.588   6.078   8.279  0.2198  0.1641  0.1102
  895MOL0     N20742   5.598   6.203   8.244 -0.2369  0.0334  0.3861
  895MOL0     C20743   5.974   6.532   7.218  0.4125 -0.4259  1.3705
  895MOL0     C20744   5.945   6.544   7.080 -1.2940  0.2398 -0.4523
  895MOL0     C20745   5.762   6.693   6.697 -0.1893 -0.2184 -0.6086
  895MOL0     C20746   5.679   6.603   6.625  0.0072 -0.0824  0.3654
  895MOL0     C20747   5.656   6.626   6.489  0.2936 -1.1387 -0.0683
  895MOL0     C20748   5.685   6.748   6.429 -0.7534 -0.8930 -0.5582
  895MOL0     O20749   5.653   6.773   6.299 -0.2362  0.0352  0.5672
  895MOL0     C20750   5.711   6.685   6.199 -0.1067 -0.4282 -0.1528
  895MOL0     C20751   5.772   6.759   6.075  0.4195  0.4249 -0.1854
  895MOL0     C20752   5.808   6.654   5.972 -0.0651  0.2294 -1.1877
  895MOL0     C20753   5.858   6.728   5.852  0.1557  0.9962  0.3603
  895MOL0     C20754   5.898   6.636   5.748 -0.1879  0.0461 -0.1743
  895MOL0     C20755   5.944   6.559   5.660  0.8031  0.8905  0.1191
  895MOL0     C20756   5.748   6.844   6.510 -0.8216 -0.2263 -0.3045
  895MOL0     C20757   5.803   6.809   6.632  0.1808 -0.7996 -0.9591
  895MOL0     H20758   5.607   6.489   7.081 -1.7766 -0.4563  1.4584
  895MOL0     H20759   5.661   6.448   7.319 -0.8201 -1.5892 -2.5104
  895MOL0     H20760   6.091   6.508   7.465  1.2521 -0.9759  1.8400
  895MOL0     H20761   5.995   6.655   7.502  1.1542 -0.4303  3.0744
  895MOL0     H20762   6.033   6.394   7.645  1.7878  1.2582 -2.2906
  895MOL0     H20763   6.091   6.548   7.702 -1.7221  0.6004  1.4233
  895MOL0     H20764   5.870   6.640   7.732  0.9004  0.5738 -1.6924
  895MOL0     H20765   5.797   6.493   7.689  0.8694 -1.2542 -0.3788
  895MOL0     H20766   5.953   6.368   7.859 -0.3835 -0.6366 -2.2250
  895MOL0     H20767   5.983   6.529   7.934 -1.9577  0.1684  1.3944
  895MOL0     H20768   5.739   6.579   7.957 -2.1984 -0.1270  0.5935
  895MOL0     H20769   5.699   6.418   7.887  1.6002  0.5696 -5.2500
  895MOL0     H20770   5.810   6.307   8.077  1.8085  0.9984  0.6764
  895MOL0     H20771   5.907   6.447   8.110  1.0847 -0.2551  1.6537
  895MOL0     H20772   5.693   6.573   8.189  0.5754 -0.0980  2.8791
  895MOL0     H20773   5.597   6.433   8.162 -0.2092  1.0198  0.3220
  895MOL0     H20774   5.688   6.466   8.403  3.6012  0.6124  1.3557
  895MOL0     H20775   5.841   6.417   8.338  0.8152 -1.9052 -0.7053
  895MOL0     H20776   5.849   6.162   8.452  1.3741  0.0317 -1.9377
  895MOL0     H20777   5.641   5.841   8.418  1.4200 -1.8149  1.4832
  895MOL0     H20778   5.804   5.854   8.360 -2.2696 -3.8591 -0.2425
  895MOL0     H20779   5.704   5.974   8.622 -0.7044 -0.7300 -0.3099
  895MOL0     H20780   5.873   5.949   8.561  0.2615 -0.7383 -1.7930
  895MOL0     H20781   5.860   5.716   8.565  0.3746  2.3665 -3.0796
  895MOL0     H20782   5.685   5.726   8.605 -1.7899  1.3937  3.3946
  895MOL0     H20783   5.766   5.850   8.818 -1.2384  0.9768 -1.0705
  895MOL0     H20784   5.931   5.819   8.750 -0.7735  0.3523  1.1201
  895MOL0     H20785   6.043   5.684   8.983  2.2770  0.3267  1.9937
  895MOL0     H20786   6.371   5.638   8.966 -0.4382  0.4522  0.1348
  895MOL0     H20787   6.240   5.621   9.085  1.6345  2.2076  0.8413
  895MOL0     H20788   6.324   5.480   9.045 -0.6399  0.8142  0.5207
  895MOL0     H20789   6.535   5.182   8.741 -2.7553  1.8897 -0.1426
  895MOL0     H20790   6.739   5.086   8.635 -2.6816 -1.2727  0.7572
  895MOL0     H20791   6.990   5.139   8.542  0.9148 -0.1528 -0.4672
  895MOL0     H20792   6.915   4.992   8.464 -2.4354  1.4465  2.3267
  895MOL0     H20793   7.152   5.032   8.401  0.1024 -1.6413 -0.9266
  895MOL0     H20794   7.058   5.047   8.258 -0.5768 -0.9304 -0.0495
  895MOL0     H20795   7.026   5.301   8.306  0.7015  0.7541 -0.4925
  895MOL0     H20796   7.165   5.258   8.240  1.6721  3.1647  0.8866
  895MOL0     H20797   7.192   5.421   8.429 -2.7761  0.4368 -0.2127
  895MOL0     H20798   7.147   5.298   8.544 -0.7382 -0.1843 -0.3339
  895MOL0     H20799   7.358   5.260   8.334 -0.1304  0.3347  0.4293
  895MOL0     H20800   7.320   5.144   8.463  1.0639 -0.5521  0.6855
  895MOL0     H20801   7.522   5.272   8.539  0.6276 -1.3375 -2.8120
  895MOL0     H20802   7.434   5.430   8.520 -3.7441  0.4933  0.0194
  895MOL0     H20803   7.374   5.198   8.694 -1.6298 -1.0205 -3.6867
  895MOL0     H20804   7.299   5.360   8.707  1.2780 -0.3035  0.4006
  895MOL0     H20805   7.466   5.359   8.888 -0.8990 -0.3483 -0.6220
  895MOL0     H20806   7.516   5.477   8.779  0.6069 -0.1391 -2.5247
  895MOL0     H20807   6.692   5.338   8.298  2.7519  0.8490  0.5528
  895MOL0     H20808   6.482   5.457   8.419  1.2128  2.6990  1.7498
  895MOL0     H20809   6.134   5.377   8.599  2.3750  3.6318 -1.0137
  895MOL0     H20810   5.911   5.472   8.641  2.0202 -4.5847  0.6191
  895MOL0     H20811   6.077   6.506   7.239  0.8492 -0.9753 -1.2054
  895MOL0     H20812   6.023   6.559   7.006 -2.3495  1.6884 -1.3362
  895MOL0     H20813   5.645   6.512   6.673 -4.3141  1.8735  1.5593
  895MOL0     H20814   5.616   6.545   6.428  1.0546 -0.9015 -0.9117
  895MOL0     H20815   5.792   6.626   6.243  2.3059  1.7033 -1.4539
  895MOL0     H20816   5.644   6.613   6.151  1.1714 -0.8819 -1.3325
  895MOL0     H20817   5.858   6.818   6.109 -3.2275  5.9917  0.6235
  895MOL0     H20818   5.700   6.829   6.032  1.0479  0.8156 -0.6111
  895MOL0     H20819   5.724   6.586   5.950 -0.5824 -0.4076  2.1420
  895MOL0     H20820   5.882   6.578   6.000 -3.9440 -4.1365 -1.4141
  895MOL0     H20821   5.935   6.804   5.862  0.5667  1.2564 -3.3385
  895MOL0     H20822   5.766   6.768   5.807  0.6794  0.0129 -1.7223
  895MOL0     H20823   5.994   6.487   5.599 -0.6345 -1.0093  1.0852
  895MOL0     H20824   5.780   6.940   6.471  0.3209  0.8135  2.8769
  895MOL0     H20825   5.874   6.878   6.677  1.5264 -0.8620 -2.8266
  896MOL0     O20826   9.265  11.449   0.224 -0.2397  0.0202  0.2636
  896MOL0     C20827   9.275  11.327   0.192  0.0075 -0.8516 -0.1424
  896MOL0     O20828   9.177  11.232   0.195  0.1954  0.1662 -0.3119
  896MOL0     C20829   9.041  11.254   0.225 -0.1780  0.4255 -0.4970
  896MOL0     C20830   8.982  11.354   0.308  0.4306 -0.0704  0.3856
  896MOL0     C20831   8.845  11.344   0.348 -0.3386  0.1533 -1.2104
  896MOL0     C20832   8.769  11.235   0.298  0.8625  0.9554 -0.2337
  896MOL0     O20833   8.632  11.210   0.315  0.3453  0.2028  0.3130
  896MOL0     C20834   8.556  11.307   0.381 -0.0028 -0.4061  0.6070
  896MOL0     C20835   8.408  11.279   0.364 -1.4574 -0.4591  0.2235
  896MOL0     C20836   8.328  11.403   0.386  0.5520 -0.2993 -0.0730
  896MOL0     C20837   8.174  11.385   0.364 -0.5414  0.3588 -0.3069
  896MOL0     C20838   8.077  11.491   0.412  0.3399 -0.0673  0.2443
  896MOL0     C20839   8.079  11.616   0.314  0.3821 -0.3262  0.5570
  896MOL0     C20840   8.021  11.747   0.382 -0.9591 -0.3599  0.6233
  896MOL0     C20841   7.871  11.730   0.414  0.2609  1.1856 -0.9189
  896MOL0     N20842   7.794  11.676   0.299  0.1777  0.3084 -0.9390
  896MOL0     C20843   7.787  11.749   0.187  0.2120  0.3785 -0.5972
  896MOL0     C20844   7.701  11.692   0.101 -0.6208 -0.8626 -0.4666
  896MOL0     C20845   7.633  11.752  -0.014  0.2224  0.1914  0.2297
  896MOL0     C20846   7.717  11.771  -0.143 -0.0437 -0.3697 -0.3889
  896MOL0     C20847   7.636  11.812  -0.269  0.2494 -0.1832 -1.0002
  896MOL0     C20848   7.699  11.791  -0.407 -0.5831  0.1050 -0.7900
  896MOL0     O20849   7.806  11.880  -0.438  0.6384 -0.3301  0.3390
  896MOL0     C20850   7.862  11.884  -0.561 -0.0582 -1.0615 -0.2264
  896MOL0     C20851   7.828  11.802  -0.677  0.6362  0.2099 -0.7959
  896MOL0     C20852   7.905  11.810  -0.795  0.9274 -0.1797 -0.4881
  896MOL0     C20853   7.880  11.707  -0.899  1.2169  0.4838 -0.2149
  896MOL0     C20854   8.006  11.905  -0.807  0.0149  0.9776  0.4634
  896MOL0     C20855   8.100  11.936  -0.929  0.1232  0.3615 -0.6670
  896MOL0     O20856   8.105  11.852  -1.032  0.5272  0.1371 -0.1245
  896MOL0     C20857   8.195  11.866  -1.129 -1.2117 -0.1402  0.4608
  896MOL0     C20858   8.336  11.838  -1.120  0.7753 -0.6506  0.8954
  896MOL0     C20859   8.418  11.879  -1.220  0.4162 -0.3849  0.1303
  896MOL0     C20860   8.369  11.939  -1.341  0.1066 -0.5431  0.1921
  896MOL0     O20861   8.447  11.953  -1.448 -0.8315  0.6075  0.2431
  896MOL0     C20862   8.562  11.863  -1.450  0.2960 -0.3777  0.3826
  896MOL0     C20863   8.610  11.843  -1.598  0.5434  0.7965 -0.1133
  896MOL0     C20864   8.541  11.728  -1.677 -0.3171  1.1343 -0.3997
  896MOL0     C20865   8.608  11.718  -1.821  0.0252 -0.4826 -0.8312
  896MOL0     C20866   8.522  11.769  -1.930  0.2163  0.1414 -0.2007
  896MOL0     C20867   8.576  11.752  -2.070 -0.1954 -0.8701 -1.7492
  896MOL0     C20868   8.495  11.826  -2.181  0.0279 -0.4524  0.1251
  896MOL0     C20869   8.562  11.839  -2.320  0.1175 -0.8898  0.4601
  896MOL0    Cl20870   8.499  11.970  -2.411  0.3852 -0.2135  0.2700
  896MOL0     C20871   8.232  11.966  -1.352 -0.3596  0.7948 -0.5098
  896MOL0     C20872   8.145  11.923  -1.255  1.0227  0.2391  0.0086
  896MOL0     O20873   8.159  12.042  -0.924  0.1880 -0.3202  0.2066
  896MOL0     C20874   8.033  11.992  -0.686 -0.2051 -0.1041 -0.2255
  896MOL0     C20875   7.963  11.978  -0.567 -0.1706  0.1118 -0.0055
  896MOL0     N20876   7.666  11.567   0.161 -0.7751 -1.1542 -0.3448
  896MOL0     N20877   7.719  11.558   0.285 -0.3409 -0.7174 -0.0483
  896MOL0     C20878   8.828  11.144   0.209  0.3172 -0.4616  0.0709
  896MOL0     C20879   8.953  11.162   0.167 -0.3995  0.8998  0.8199
  896MOL0     C20880   9.414  11.280   0.145  0.0062 -0.9804 -0.1228
  896MOL0     C20881   9.425  11.168   0.060  0.7142  0.3380 -0.0888
  896MOL0     C20882   9.547  11.120   0.017  0.0665  1.4210  0.6245
  896MOL0     C20883   9.663  11.182   0.050 -0.5745 -0.8726  0.3837
  896MOL0     O20884   9.781  11.126   0.014  0.0944  0.9606  0.2132
  896MOL0     C20885   9.896  11.203   0.024  0.0228  0.8062  0.4316
  896MOL0     C20886   9.984  11.164   0.146 -0.0309 -0.5967  0.7355
  896MOL0     C20887  10.037  11.020   0.131 -0.7649  0.0844  0.1798
  896MOL0     C20888  10.154  10.972   0.225  0.7046  0.0447  0.7746
  896MOL0     C20889  10.265  11.063   0.239  0.3992 -0.6441  0.3029
  896MOL0     C20890  10.370  11.123   0.234 -1.2439  1.0039  0.5206
  896MOL0     C20891   9.655  11.304   0.133 -0.4894  0.3354  0.1623
  896MOL0     C20892   9.529  11.343   0.184  0.2476  1.3733 -0.2674
  896MOL0     H20893   9.040  11.441   0.334  2.1646 -1.8513  2.8787
  896MOL0     H20894   8.797  11.431   0.392  0.3572  1.2035 -2.4451
  896MOL0     H20895   8.582  11.310   0.487 -1.3607 -3.3020  1.1074
  896MOL0     H20896   8.575  11.408   0.342 -1.5915  0.5699  2.2077
  896MOL0     H20897   8.385  11.240   0.264 -3.3202 -0.1519  0.5005
  896MOL0     H20898   8.383  11.191   0.422 -1.7304 -1.0484 -0.7585
  896MOL0     H20899   8.343  11.448   0.485  1.0668  2.3593 -1.2619
  896MOL0     H20900   8.349  11.468   0.300 -1.2131 -0.6623 -0.8169
  896MOL0     H20901   8.172  11.368   0.256 -2.3634 -3.1414  0.1138
  896MOL0     H20902   8.151  11.291   0.415 -0.3819 -0.3490 -1.5153
  896MOL0     H20903   7.979  11.445   0.425  0.9689 -0.9399  2.2741
  896MOL0     H20904   8.098  11.523   0.514  1.2402 -1.3051  0.4704
  896MOL0     H20905   8.186  11.625   0.297  0.8595  3.3309  3.8566
  896MOL0     H20906   8.033  11.590   0.219 -1.7437  0.7912  1.2170
  896MOL0     H20907   8.072  11.769   0.476 -0.5750 -0.8199  0.5278
  896MOL0     H20908   8.030  11.824   0.305 -0.3728 -0.6670  0.3753
  896MOL0     H20909   7.833  11.824   0.453 -1.5262  0.2391 -0.2664
  896MOL0     H20910   7.864  11.656   0.494 -0.9685 -0.0874 -2.1524
  896MOL0     H20911   7.806  11.855   0.176 -0.4098  0.6118  0.3968
  896MOL0     H20912   7.542  11.692  -0.015 -1.6207  2.8354 -0.1203
  896MOL0     H20913   7.596  11.852   0.013 -1.9603 -1.1916  2.9316
  896MOL0     H20914   7.768  11.677  -0.165  2.0890  0.5055  0.5316
  896MOL0     H20915   7.794  11.845  -0.119  2.3713 -1.4409 -4.0402
  896MOL0     H20916   7.608  11.917  -0.257  0.1183 -0.5695  3.6711
  896MOL0     H20917   7.536  11.770  -0.257 -0.1435  1.5549  3.5691
  896MOL0     H20918   7.620  11.791  -0.483 -0.1427  3.3251 -1.4133
  896MOL0     H20919   7.736  11.688  -0.406 -3.3701 -0.9773 -0.1353
  896MOL0     H20920   7.748  11.730  -0.664  2.4210 -1.4287  2.6620
  896MOL0     H20921   7.865  11.738  -1.002  0.4576  0.0795 -0.2314
  896MOL0     H20922   7.968  11.642  -0.897 -0.5222 -2.0108  2.0226
  896MOL0     H20923   7.794  11.651  -0.860  2.2374 -0.4938  0.7429
  896MOL0     H20924   8.383  11.804  -1.029 -2.2094 -1.7256  2.1451
  896MOL0     H20925   8.522  11.867  -1.192 -0.5638 -3.0822  3.2055
  896MOL0     H20926   8.642  11.918  -1.399  1.5632 -0.2837 -1.5716
  896MOL0     H20927   8.543  11.763  -1.412  0.8059 -0.3616  0.6926
  896MOL0     H20928   8.603  11.932  -1.662  0.3740  0.1946 -0.9520
  896MOL0     H20929   8.714  11.810  -1.592  0.1239 -0.3029  3.4881
  896MOL0     H20930   8.435  11.748  -1.693 -1.0614 -3.5939 -3.4837
  896MOL0     H20931   8.566  11.634  -1.626  0.5868  1.6459  0.1388
  896MOL0     H20932   8.706  11.766  -1.828 -0.2618  0.0806 -1.1254
  896MOL0     H20933   8.619  11.611  -1.840 -1.8460 -0.3144 -3.2624
  896MOL0     H20934   8.507  11.875  -1.906  0.3589 -0.1841  1.4678
  896MOL0     H20935   8.425  11.718  -1.926 -0.6371  1.6942 -0.4053
  896MOL0     H20936   8.680  11.787  -2.075 -0.0847 -1.2391 -2.0952
  896MOL0     H20937   8.559  11.648  -2.097 -1.9737 -0.7861 -1.0767
  896MOL0     H20938   8.484  11.928  -2.144  1.4663 -1.1600  2.7805
  896MOL0     H20939   8.405  11.765  -2.193  0.1289 -0.7725  0.9439
  896MOL0     H20940   8.563  11.744  -2.374  0.4460 -0.4492 -0.3140
  896MOL0     H20941   8.668  11.855  -2.301  0.2248 -0.0709 -0.7830
  896MOL0     H20942   8.215  12.016  -1.447 -0.0070  3.5805  0.7761
  896MOL0     H20943   8.038  11.923  -1.274  1.1646  0.0810 -0.8636
  896MOL0     H20944   8.116  12.062  -0.679  1.1942 -1.2015 -3.6806
  896MOL0     H20945   7.985  12.045  -0.485 -0.3008 -0.7038  0.7106
  896MOL0     H20946   8.759  11.071   0.169  0.4814  1.3358 -3.8895
  896MOL0     H20947   8.997  11.101   0.089 -0.2831  1.6474  0.2838
  896MOL0     H20948   9.333  11.115   0.035 -0.1435  1.4315  0.6087
  896MOL0     H20949   9.567  11.032  -0.043  0.7041  1.0377  1.3801
  896MOL0     H20950   9.961  11.196  -0.063 -1.5612 -0.4349 -0.7295
  896MOL0     H20951   9.872  11.309   0.012  2.3182  1.7011  2.9349
  896MOL0     H20952   9.913  11.165   0.230 -2.3430 -0.9226 -1.1171
  896MOL0     H20953  10.066  11.234   0.163  0.6371 -1.2514  0.2518
  896MOL0     H20954  10.071  11.000   0.029  1.0422 -0.4092  0.8486
  896MOL0     H20955   9.954  10.949   0.146  0.4739 -1.3650  0.3667
  896MOL0     H20956  10.189  10.877   0.184  1.3806  1.4288 -2.0578
  896MOL0     H20957  10.121  10.949   0.327  2.2597 -0.9577  1.0999
  896MOL0     H20958  10.467  11.170   0.233 -1.5838  2.0193  3.6463
  896MOL0     H20959   9.742  11.366   0.156 -1.7814  1.1378  3.4377
  896MOL0     H20960   9.529  11.427   0.253 -0.4915  1.0115  0.1808
  897MOL0     O20961   7.025   9.464   3.810  0.4650 -0.0613  0.0582
  897MOL0     C20962   7.087   9.563   3.851  0.0658 -0.3728 -0.3503
  897MOL0     O20963   7.220   9.567   3.876  0.0219  0.3934  0.1272
  897MOL0     C20964   7.304   9.456   3.850 -0.0812  0.2457  0.6870
  897MOL0     C20965   7.278   9.321   3.882 -0.5837  0.7442 -0.0679
  897MOL0     C20966   7.379   9.226   3.873  0.4798 -0.9871  0.5757
  897MOL0     C20967   7.507   9.249   3.834 -0.7201  0.8012  0.3077
  897MOL0     O20968   7.598   9.140   3.827  0.1783 -0.7100  0.7384
  897MOL0     C20969   7.733   9.180   3.880 -0.8127  0.2011 -0.3094
  897MOL0     C20970   7.812   9.048   3.923  0.3673 -0.2103 -0.1957
  897MOL0     C20971   7.734   8.983   4.047 -0.4151  0.0776 -0.3808
  897MOL0     C20972   7.772   8.841   4.077  0.2230 -0.6664  0.1056
  897MOL0     C20973   7.688   8.788   4.198 -0.3037 -0.4720 -0.0136
  897MOL0     C20974   7.770   8.688   4.277 -1.2286  1.3490  0.4235
  897MOL0     C20975   7.706   8.623   4.408 -0.6907  0.4151  0.1356
  897MOL0     C20976   7.692   8.727   4.519  0.0472  0.3750 -0.0299
  897MOL0     N20977   7.806   8.814   4.540  0.4038 -1.3323  0.1419
  897MOL0     C20978   7.934   8.787   4.586  0.9635 -0.0986  0.0264
  897MOL0     C20979   7.992   8.900   4.607  0.2803 -0.8307  0.9347
  897MOL0     C20980   8.135   8.903   4.655  0.6078 -1.0640 -0.6104
  897MOL0     C20981   8.127   8.938   4.799 -0.2672  0.7432  0.3835
  897MOL0     C20982   8.269   8.966   4.858 -0.1417 -0.1334 -0.1782
  897MOL0     C20983   8.381   8.871   4.834 -0.4076 -0.3409  0.2615
  897MOL0     O20984   8.332   8.731   4.839 -0.2682  0.7028 -0.1398
  897MOL0     C20985   8.392   8.627   4.904  0.4659 -0.3004 -0.6880
  897MOL0     C20986   8.535   8.622   4.921  1.1160 -0.3901  0.4478
  897MOL0     C20987   8.597   8.503   4.979 -0.2960 -1.0797 -0.3119
  897MOL0     C20988   8.745   8.492   4.987 -0.2320 -1.0657 -0.1294
  897MOL0     C20989   8.503   8.399   5.011 -0.0836  0.3602  0.3444
  897MOL0     C20990   8.562   8.279   5.071  0.2376  0.0923  0.3122
  897MOL0     O20991   8.637   8.293   5.193 -0.1335  0.5273 -0.0147
  897MOL0     C20992   8.737   8.199   5.213 -0.6620  0.2077  0.1055
  897MOL0     C20993   8.722   8.065   5.233 -0.1740  1.4978  0.4478
  897MOL0     C20994   8.830   7.987   5.282 -0.6155 -0.1480  0.3652
  897MOL0     C20995   8.951   8.038   5.306  0.3964  1.1527 -0.3250
  897MOL0     O20996   9.057   7.950   5.347 -0.2239 -0.8187 -0.0063
  897MOL0     C20997   9.175   8.020   5.399 -0.6967  0.5757  0.9975
  897MOL0     C20998   9.273   7.936   5.484 -0.1659 -0.3250  0.0586
  897MOL0     C20999   9.208   7.851   5.592  0.4706 -0.2161  0.2042
  897MOL0     C21000   9.214   7.700   5.560 -0.1671  0.3320 -0.5535
  897MOL0     C21001   9.137   7.622   5.675  0.1008 -1.1813  0.4445
  897MOL0     C21002   9.127   7.469   5.627 -0.7310 -0.1678 -0.0259
  897MOL0     C21003   9.047   7.388   5.728 -0.5451  0.8087 -1.1905
  897MOL0     C21004   8.893   7.397   5.714 -1.0137 -0.0672  0.7203
  897MOL0    Cl21005   8.811   7.371   5.870  0.1415  0.2037  0.1933
  897MOL0     C21006   8.961   8.171   5.286 -0.5650 -0.3020 -0.4912
  897MOL0     C21007   8.858   8.251   5.240 -0.3371 -0.0184 -0.3288
  897MOL0     O21008   8.557   8.174   5.002 -0.7592  0.2724  0.3941
  897MOL0     C21009   8.374   8.404   4.978 -0.1612  0.4276  0.1764
  897MOL0     C21010   8.314   8.515   4.915 -0.7773  0.5846  0.2743
  897MOL0     N21011   7.913   9.008   4.567 -0.0060 -0.4303 -0.2566
  897MOL0     N21012   7.803   8.956   4.533  0.0418 -1.1414 -0.3163
  897MOL0     C21013   7.546   9.383   3.809 -0.4675 -0.0308 -1.1812
  897MOL0     C21014   7.443   9.481   3.820  0.5512 -0.1898 -0.0964
  897MOL0     C21015   7.002   9.686   3.883  0.0391  0.1892  0.4508
  897MOL0     C21016   7.059   9.816   3.909 -0.1858  0.3931 -0.2794
  897MOL0     C21017   6.970   9.926   3.919 -0.5881 -0.4015  0.7413
  897MOL0     C21018   6.838   9.923   3.898 -0.4276 -0.5371  0.0037
  897MOL0     O21019   6.762  10.035   3.906  0.1283 -0.6684 -0.6358
  897MOL0     C21020   6.778  10.122   3.796 -0.0399 -0.3453  0.7080
  897MOL0     C21021   6.642  10.169   3.743  0.5472  0.6050 -0.0284
  897MOL0     C21022   6.658  10.296   3.667  0.4744  0.0052 -0.0351
  897MOL0     C21023   6.526  10.310   3.587  0.1131 -0.4714  1.0410
  897MOL0     C21024   6.547  10.439   3.520 -0.7249  0.3923  0.3783
  897MOL0     C21025   6.566  10.546   3.455  0.5143 -0.5546 -0.8146
  897MOL0     C21026   6.781   9.795   3.868  0.3125 -0.3958  0.2575
  897MOL0     C21027   6.864   9.682   3.859  0.9551 -0.2758 -0.1528
  897MOL0     H21028   7.179   9.289   3.913 -0.1295 -1.1712 -0.4793
  897MOL0     H21029   7.349   9.125   3.898  1.3103 -0.7544  2.7683
  897MOL0     H21030   7.796   9.227   3.804  1.6175 -0.7836  1.0183
  897MOL0     H21031   7.731   9.238   3.972 -0.6213  2.5887 -1.7287
  897MOL0     H21032   7.806   8.973   3.845  2.2718  0.2386 -0.8232
  897MOL0     H21033   7.915   9.064   3.956  0.5590 -1.8164  0.0582
  897MOL0     H21034   7.768   9.038   4.136  1.7862  0.2525 -1.2692
  897MOL0     H21035   7.625   8.992   4.056 -0.4727 -0.3086 -0.6974
  897MOL0     H21036   7.749   8.786   3.985 -1.9261  2.5497 -1.4761
  897MOL0     H21037   7.880   8.834   4.094  0.7276  2.7015 -0.8860
  897MOL0     H21038   7.667   8.873   4.263  0.0137 -0.8691  0.6143
  897MOL0     H21039   7.591   8.752   4.164  0.1414 -0.8887 -0.8769
  897MOL0     H21040   7.779   8.603   4.209 -2.3838  0.6863  1.0475
  897MOL0     H21041   7.871   8.726   4.294 -0.1958 -0.0880 -1.9749
  897MOL0     H21042   7.609   8.576   4.392 -0.7746 -0.5164  2.8299
  897MOL0     H21043   7.781   8.548   4.435 -2.0902 -1.9339 -2.1232
  897MOL0     H21044   7.664   8.676   4.612 -2.6106 -1.4131 -1.6596
  897MOL0     H21045   7.606   8.790   4.497 -1.7632 -2.6818 -2.6312
  897MOL0     H21046   7.966   8.683   4.590 -3.3250 -1.9216 -3.9097
  897MOL0     H21047   8.195   8.814   4.634 -0.3318 -1.6005 -1.0966
  897MOL0     H21048   8.193   8.985   4.611 -0.5583 -0.2243 -0.6294
  897MOL0     H21049   8.099   8.844   4.847  0.5009  0.3717  0.1182
  897MOL0     H21050   8.054   9.013   4.830  0.7502  1.5060  1.0246
  897MOL0     H21051   8.273   8.996   4.963  1.9381  0.4822 -0.3891
  897MOL0     H21052   8.292   9.052   4.796 -0.6236 -1.1945 -1.8856
  897MOL0     H21053   8.438   8.887   4.926  1.0258 -0.8403 -0.5079
  897MOL0     H21054   8.438   8.896   4.744 -0.4925 -2.2695 -0.3884
  897MOL0     H21055   8.597   8.709   4.900 -0.3104  1.2247  2.4522
  897MOL0     H21056   8.772   8.486   5.093 -1.2021 -0.6645  0.1493
  897MOL0     H21057   8.770   8.399   4.935  0.2867 -0.6383 -0.6683
  897MOL0     H21058   8.806   8.569   4.938  1.3287 -2.1996 -0.0351
  897MOL0     H21059   8.625   8.016   5.227  1.0058 -1.3234  2.1432
  897MOL0     H21060   8.817   7.882   5.305 -0.0111 -1.2995 -3.6601
  897MOL0     H21061   9.239   8.064   5.321  0.8131 -0.8089  1.3824
  897MOL0     H21062   9.139   8.086   5.478 -1.7317 -0.5711  1.5121
  897MOL0     H21063   9.333   7.870   5.421 -2.4270 -3.5820  1.0473
  897MOL0     H21064   9.350   8.001   5.527  0.7499  0.3783 -2.4869
  897MOL0     H21065   9.109   7.895   5.608  0.9160  0.9830 -0.2259
  897MOL0     H21066   9.262   7.880   5.683 -1.0725 -0.5798  1.2632
  897MOL0     H21067   9.172   7.693   5.459 -0.2127  3.1552 -0.8266
  897MOL0     H21068   9.319   7.670   5.558  0.4356  1.8098  2.6360
  897MOL0     H21069   9.043   7.672   5.699  1.4255  1.0177  1.4819
  897MOL0     H21070   9.184   7.633   5.773  2.6327  0.2624 -0.8266
  897MOL0     H21071   9.072   7.470   5.532 -1.3182  1.7493  0.2923
  897MOL0     H21072   9.225   7.421   5.618 -1.0554 -0.9627  0.5786
  897MOL0     H21073   9.083   7.424   5.825  0.2617 -1.1255 -0.7264
  897MOL0     H21074   9.087   7.287   5.719 -0.7460  0.7653 -1.5924
  897MOL0     H21075   8.867   7.320   5.641 -1.4722  0.6962  0.0652
  897MOL0     H21076   8.862   7.492   5.670  0.1590  0.0509  0.1049
  897MOL0     H21077   9.054   8.221   5.309  1.1782 -2.9903 -1.1778
  897MOL0     H21078   8.873   8.359   5.241  0.9789 -0.1414  2.6396
  897MOL0     H21079   8.309   8.319   4.996  0.5050 -0.6612 -2.2925
  897MOL0     H21080   8.208   8.524   4.896 -0.3684  3.0291 -1.4808
  897MOL0     H21081   7.644   9.423   3.785 -0.6559  2.6337  1.7262
  897MOL0     H21082   7.465   9.587   3.811  0.5496 -0.2869 -1.3714
  897MOL0     H21083   7.167   9.824   3.908 -0.1614  0.2282  0.6158
  897MOL0     H21084   7.015  10.024   3.936 -0.1891 -0.7375  1.7008
  897MOL0     H21085   6.835  10.211   3.823  0.8981 -1.4668  2.5780
  897MOL0     H21086   6.834  10.074   3.715  0.2937  1.4524 -0.1841
  897MOL0     H21087   6.573  10.181   3.827  0.1289  0.9080 -0.4089
  897MOL0     H21088   6.595  10.096   3.677 -0.3947  1.7741 -0.6834
  897MOL0     H21089   6.748  10.302   3.604  1.0365  1.0336  0.8415
  897MOL0     H21090   6.668  10.375   3.741 -0.3410 -2.9702  3.5532
  897MOL0     H21091   6.442  10.321   3.656 -0.3540  0.7530  0.3152
  897MOL0     H21092   6.518  10.232   3.510 -2.0454  2.1594 -1.6424
  897MOL0     H21093   6.572  10.643   3.409 -0.7441  2.4313  4.4626
  897MOL0     H21094   6.677   9.788   3.838  0.8161  1.7960 -2.4830
  897MOL0     H21095   6.815   9.588   3.833 -0.7668 -0.0497  2.0345
  898MOL0     O21096   4.087  10.345   3.706  0.7516 -0.5813  0.6263
  898MOL0     C21097   3.990  10.293   3.757  0.3223 -0.2111  0.2930
  898MOL0     O21098   3.861  10.354   3.770 -0.7320  0.1170 -0.4293
  898MOL0     C21099   3.830  10.460   3.688 -0.0202  0.3965 -0.3639
  898MOL0     C21100   3.715  10.445   3.607 -0.0371 -0.7237 -0.9835
  898MOL0     C21101   3.675  10.549   3.524  0.0099  0.5431 -0.1776
  898MOL0     C21102   3.752  10.669   3.519  0.0889  0.3556 -0.2877
  898MOL0     O21103   3.718  10.757   3.413  0.1570 -0.0901 -0.3342
  898MOL0     C21104   3.778  10.883   3.400  0.0145  0.4709 -0.0653
  898MOL0     C21105   3.747  10.967   3.274  0.4916 -1.2009  0.3854
  898MOL0     C21106   3.803  10.906   3.145  1.0951 -0.5411  0.0268
  898MOL0     C21107   3.774  10.975   3.010 -0.4642 -0.1019 -0.5759
  898MOL0     C21108   3.822  10.892   2.886 -0.0937  0.2796 -0.0185
  898MOL0     C21109   3.792  10.967   2.756  0.0618  0.5520 -0.0678
  898MOL0     C21110   3.843  10.890   2.639 -0.6599  0.5516  0.3007
  898MOL0     C21111   3.827  10.946   2.496  0.3685  0.3857 -0.4543
  898MOL0     N21112   3.803  11.090   2.495 -0.6149 -0.1903 -0.6800
  898MOL0     C21113   3.678  11.137   2.482  0.7137 -0.1066 -0.8079
  898MOL0     C21114   3.691  11.270   2.474  0.5846  0.0542  1.0987
  898MOL0     C21115   3.595  11.382   2.490 -0.8120 -0.4889 -0.3284
  898MOL0     C21116   3.546  11.390   2.633  0.5639 -0.4235  0.5503
  898MOL0     C21117   3.660  11.406   2.730  0.5524  0.3695  0.8647
  898MOL0     C21118   3.597  11.408   2.866 -0.1157  0.9273 -0.0988
  898MOL0     O21119   3.708  11.400   2.962  0.5681  0.4613 -0.0494
  898MOL0     C21120   3.678  11.393   3.099 -0.7300  0.9813  0.2655
  898MOL0     C21121   3.577  11.305   3.142 -0.2878 -0.2041 -0.2577
  898MOL0     C21122   3.554  11.303   3.283  0.1951  0.3181 -0.0184
  898MOL0     C21123   3.443  11.207   3.328 -0.4241 -0.3485  0.3197
  898MOL0     C21124   3.613  11.397   3.370 -0.2359 -0.3211  0.3872
  898MOL0     C21125   3.586  11.424   3.516  0.5254  0.6896  0.1440
  898MOL0     O21126   3.672  11.489   3.581 -0.2561 -1.2001  0.6186
  898MOL0     C21127   3.683  11.498   3.718  0.7530  0.7666 -1.2752
  898MOL0     C21128   3.651  11.395   3.821 -0.2644 -0.6148  0.0084
  898MOL0     C21129   3.669  11.422   3.951  0.5716  0.3119 -0.9469
  898MOL0     C21130   3.724  11.539   4.003  1.0481  0.4279 -0.1812
  898MOL0     O21131   3.735  11.579   4.132 -0.0625  0.0433 -0.1488
  898MOL0     C21132   3.818  11.499   4.212  0.0995  0.2122  0.1905
  898MOL0     C21133   3.903  11.600   4.284 -0.3178 -1.1896 -0.1787
  898MOL0     C21134   3.958  11.548   4.422  0.6873  0.3080 -0.2316
  898MOL0     C21135   4.041  11.639   4.519  0.7231  0.1560 -0.0401
  898MOL0     C21136   4.184  11.619   4.487  0.0216 -0.3684  0.3933
  898MOL0     C21137   4.288  11.698   4.565 -0.7915 -0.2960  0.3209
  898MOL0     C21138   4.296  11.650   4.720 -1.1986 -0.1876 -0.7217
  898MOL0     C21139   4.421  11.690   4.800 -0.5365 -0.6642 -0.9107
  898MOL0    Cl21140   4.402  11.662   4.977  0.4282  0.0124  0.0592
  898MOL0     C21141   3.763  11.637   3.910  0.2197 -0.2230 -0.6884
  898MOL0     C21142   3.747  11.616   3.770 -0.0809  0.3087  0.9852
  898MOL0     O21143   3.481  11.379   3.564  0.1090  0.1120  0.1491
  898MOL0     C21144   3.705  11.487   3.316 -0.1981 -0.5923  0.1665
  898MOL0     C21145   3.741  11.475   3.180 -0.3438 -0.7951 -0.2765
  898MOL0     N21146   3.821  11.296   2.439  0.8034  0.2885  0.4446
  898MOL0     N21147   3.885  11.190   2.447  0.4019 -0.7786 -0.2383
  898MOL0     C21148   3.857  10.696   3.619  0.8163  0.5749  0.1499
  898MOL0     C21149   3.894  10.592   3.700 -0.9111  0.5115  0.3394
  898MOL0     C21150   4.018  10.168   3.827  0.6274  0.2281  1.0235
  898MOL0     C21151   4.149  10.118   3.842 -0.3128 -0.1199  1.0667
  898MOL0     C21152   4.182  10.006   3.910 -0.4161 -0.9731 -0.1016
  898MOL0     C21153   4.073   9.941   3.980 -0.2446 -0.6247  0.8161
  898MOL0     O21154   4.094   9.841   4.070 -0.5022  0.0270 -0.3141
  898MOL0     C21155   4.188   9.742   4.028  0.4483  0.0470 -0.1875
  898MOL0     C21156   4.163   9.657   3.899  0.3431 -1.0564  0.0007
  898MOL0     C21157   4.237   9.525   3.902  0.6958  0.9187  1.3396
  898MOL0     C21158   4.266   9.464   3.755  0.6667 -0.1111 -0.0042
  898MOL0     C21159   4.191   9.340   3.734  0.7192 -0.3755  0.5840
  898MOL0     C21160   4.118   9.242   3.716  0.5696  0.5108  0.6857
  898MOL0     C21161   3.939   9.987   3.965 -0.2810 -0.2580  0.4526
  898MOL0     C21162   3.912  10.095   3.884 -0.5000  0.2628 -0.2189
  898MOL0     H21163   3.659  10.351   3.610  1.1870 -1.4612 -0.5870
  898MOL0     H21164   3.583  10.540   3.467 -1.8959  0.5142  2.6692
  898MOL0     H21165   3.757  10.945   3.488 -0.7100 -0.1165  0.1943
  898MOL0     H21166   3.886  10.873   3.393 -0.0827 -0.1277 -0.9474
  898MOL0     H21167   3.638  10.977   3.270  0.6197  0.6304  0.4387
  898MOL0     H21168   3.797  11.064   3.286 -2.5714  0.3664  1.7549
  898MOL0     H21169   3.913  10.905   3.143  1.1609 -1.4525 -3.4790
  898MOL0     H21170   3.780  10.800   3.152  0.5192 -0.3542  1.2815
  898MOL0     H21171   3.667  10.994   3.000 -0.8058  0.6234  3.0759
  898MOL0     H21172   3.814  11.076   3.017 -4.4582  1.5227  2.9503
  898MOL0     H21173   3.930  10.881   2.887 -0.0235  0.5190 -1.8530
  898MOL0     H21174   3.776  10.793   2.884  0.7116 -0.0966 -0.5004
  898MOL0     H21175   3.686  10.984   2.734  0.7428 -0.6597 -6.2285
  898MOL0     H21176   3.830  11.069   2.756  1.6354  0.0082 -0.7450
  898MOL0     H21177   3.950  10.875   2.658 -0.1528  0.8070 -2.0572
  898MOL0     H21178   3.798  10.790   2.643 -1.0504  0.5826 -1.8757
  898MOL0     H21179   3.742  10.899   2.445 -1.4665  0.3605  2.4192
  898MOL0     H21180   3.906  10.924   2.424  0.6062  2.2815 -0.8420
  898MOL0     H21181   3.581  11.100   2.513 -1.5423  2.2779 -4.3324
  898MOL0     H21182   3.651  11.472   2.463 -3.3058  2.9230  4.4077
  898MOL0     H21183   3.511  11.376   2.420 -0.8000 -2.1151 -0.2606
  898MOL0     H21184   3.487  11.298   2.644 -0.0417 -0.1546 -0.3265
  898MOL0     H21185   3.481  11.478   2.639  3.3761  1.9720 -1.2754
  898MOL0     H21186   3.716  11.498   2.711 -0.1020  0.6739  0.3649
  898MOL0     H21187   3.729  11.322   2.715  3.1887  2.5129  0.0715
  898MOL0     H21188   3.538  11.316   2.872  4.7960 -2.6771 -0.7833
  898MOL0     H21189   3.537  11.496   2.891  0.7117  0.5208  4.2142
  898MOL0     H21190   3.523  11.239   3.075  0.1186 -2.7472  1.7680
  898MOL0     H21191   3.359  11.266   3.366  2.2788  2.4575  2.4496
  898MOL0     H21192   3.414  11.139   3.247  2.3794 -1.3303  0.0289
  898MOL0     H21193   3.481  11.155   3.416  0.6723  0.5046  0.3726
  898MOL0     H21194   3.612  11.296   3.799 -3.2191  0.1932  1.0511
  898MOL0     H21195   3.639  11.345   4.021 -0.3340 -0.8094 -2.5071
  898MOL0     H21196   3.763  11.442   4.287 -0.5764  0.7662  0.1259
  898MOL0     H21197   3.880  11.426   4.159  0.9692  0.5113  0.7635
  898MOL0     H21198   3.988  11.611   4.216  0.6961 -1.1497  1.0542
  898MOL0     H21199   3.861  11.697   4.313  1.0964 -0.2010 -1.2456
  898MOL0     H21200   4.007  11.460   4.379 -1.6789 -0.3878 -1.6887
  898MOL0     H21201   3.875  11.525   4.490 -2.8598  6.1153 -1.9354
  898MOL0     H21202   4.002  11.741   4.509 -2.0940 -1.0469 -3.4606
  898MOL0     H21203   4.031  11.604   4.622  2.1693  0.5323  0.2532
  898MOL0     H21204   4.197  11.653   4.384  0.9481  3.3058  1.5987
  898MOL0     H21205   4.214  11.514   4.493  0.6626 -0.3269 -1.4132
  898MOL0     H21206   4.390  11.675   4.532 -0.4881 -1.5053  1.9850
  898MOL0     H21207   4.266  11.804   4.549 -0.3092 -0.2553 -0.1053
  898MOL0     H21208   4.301  11.541   4.729  0.4716 -0.5239 -4.0865
  898MOL0     H21209   4.207  11.695   4.764 -0.1742  1.5571 -0.3437
  898MOL0     H21210   4.448  11.796   4.789 -0.2262 -0.6318  0.0501
  898MOL0     H21211   4.499  11.626   4.756  0.9243  0.5522 -0.1893
  898MOL0     H21212   3.794  11.737   3.939  0.2645  0.0939 -1.7991
  898MOL0     H21213   3.796  11.696   3.716  1.5075  0.9956  3.2822
  898MOL0     H21214   3.765  11.558   3.373 -2.6630  0.8707  1.1186
  898MOL0     H21215   3.827  11.529   3.141  0.6972 -1.6232  0.8146
  898MOL0     H21216   3.910  10.791   3.626  0.6829  0.8559 -1.9797
  898MOL0     H21217   3.975  10.605   3.770  0.1793  2.6666 -1.2072
  898MOL0     H21218   4.239  10.157   3.797 -1.4632  2.2575  0.6742
  898MOL0     H21219   4.286   9.974   3.908 -0.5183 -1.5777  2.0329
  898MOL0     H21220   4.289   9.784   4.023  0.5735 -0.2922 -0.5389
  898MOL0     H21221   4.196   9.670   4.110  3.0418 -3.2163 -3.0137
  898MOL0     H21222   4.190   9.705   3.804 -0.4897 -0.3535  0.1074
  898MOL0     H21223   4.055   9.640   3.899  0.2367 -0.7111  2.1880
  898MOL0     H21224   4.192   9.454   3.972 -2.2067  1.0936 -0.1974
  898MOL0     H21225   4.335   9.557   3.939  1.9518  1.4668 -2.1189
  898MOL0     H21226   4.372   9.444   3.736  0.5734  1.2611 -2.4906
  898MOL0     H21227   4.241   9.540   3.680  0.6546 -1.0508 -0.9848
  898MOL0     H21228   4.060   9.153   3.726  0.3725  0.8340  3.1606
  898MOL0     H21229   3.857   9.934   4.013 -0.2737 -1.1771 -0.5027
  898MOL0     H21230   3.812  10.136   3.880 -0.3900  0.5476 -0.0320
  899MOL0     O21231   8.827   3.174   4.744 -0.3033  0.5176 -0.2323
  899MOL0     C21232   8.780   3.275   4.686  0.4909 -0.3892  0.4805
  899MOL0     O21233   8.647   3.289   4.647 -1.0103  0.6429 -0.8256
  899MOL0     C21234   8.555   3.215   4.727  0.4955  0.2490  1.1623
  899MOL0     C21235   8.445   3.166   4.652 -0.2460 -0.5487 -0.1097
  899MOL0     C21236   8.347   3.093   4.720  0.4054 -0.2182 -0.5786
  899MOL0     C21237   8.365   3.054   4.860  0.2640  0.4338  0.5352
  899MOL0     O21238   8.277   2.980   4.933  0.1259  0.2492 -0.8294
  899MOL0     C21239   8.137   2.969   4.901 -0.1929  0.0813 -0.6436
  899MOL0     C21240   8.064   2.922   5.029  0.8525 -0.0478 -0.3702
  899MOL0     C21241   7.918   2.865   5.034  0.4451  0.6807  0.4001
  899MOL0     C21242   7.921   2.714   5.056 -0.6518  0.6623 -1.4850
  899MOL0     C21243   7.806   2.637   5.010 -0.9366 -0.5788 -0.2769
  899MOL0     C21244   7.833   2.491   5.033  0.4287 -0.0760 -0.3214
  899MOL0     C21245   7.714   2.411   4.981 -0.7956  0.0398 -0.5404
  899MOL0     C21246   7.695   2.263   5.028  0.4980  0.4348  0.7006
  899MOL0     N21247   7.809   2.192   4.979  0.3026  0.5581 -0.3448
  899MOL0     C21248   7.805   2.112   4.869  0.3454  0.6871  0.3645
  899MOL0     C21249   7.931   2.064   4.844  0.0289 -0.1181  0.0174
  899MOL0     C21250   7.985   1.998   4.713  0.7997  0.0227 -0.6535
  899MOL0     C21251   7.903   1.875   4.674 -1.3879  0.3931  0.5432
  899MOL0     C21252   7.953   1.804   4.550  0.2579 -0.1773  0.1247
  899MOL0     C21253   7.844   1.799   4.442 -0.0345 -0.8067 -0.5950
  899MOL0     O21254   7.735   1.718   4.488 -0.4150  0.0763 -0.3962
  899MOL0     C21255   7.614   1.731   4.423 -0.7619  0.2823  0.1573
  899MOL0     C21256   7.496   1.678   4.479 -0.4358  0.0229  0.6478
  899MOL0     C21257   7.369   1.680   4.415  0.1983  0.0501 -0.1381
  899MOL0     C21258   7.255   1.610   4.495  0.5440 -0.7159  0.1553
  899MOL0     C21259   7.357   1.752   4.291  0.1598 -0.7111  0.9958
  899MOL0     C21260   7.228   1.754   4.217  0.5709 -0.1553 -0.7742
  899MOL0     O21261   7.230   1.808   4.093 -0.8102 -0.0222 -0.0937
  899MOL0     C21262   7.119   1.808   4.032  0.9890  0.1269  0.7653
  899MOL0     C21263   7.031   1.913   4.060  0.1031 -0.0688 -0.3469
  899MOL0     C21264   6.912   1.934   3.994  0.4574 -0.0013 -0.2306
  899MOL0     C21265   6.865   1.849   3.888  0.2671  0.4667 -0.3988
  899MOL0     O21266   6.744   1.855   3.818 -0.6556 -0.5521  0.0290
  899MOL0     C21267   6.693   1.982   3.784  0.1707  0.3375 -0.3470
  899MOL0     C21268   6.579   1.968   3.684 -0.4477 -0.2984 -0.7187
  899MOL0     C21269   6.622   1.942   3.533  0.4596  0.1012 -0.6839
  899MOL0     C21270   6.517   1.976   3.427 -0.4242 -1.4740 -0.3554
  899MOL0     C21271   6.428   1.858   3.397 -0.8774  0.0782 -0.2872
  899MOL0     C21272   6.498   1.770   3.308  0.0246  0.1639  0.6557
  899MOL0     C21273   6.444   1.632   3.336 -0.7150  0.8355  1.4447
  899MOL0     C21274   6.503   1.536   3.235  0.7553 -0.4190 -0.1998
  899MOL0    Cl21275   6.460   1.364   3.255 -0.4579 -0.3979  0.9114
  899MOL0     C21276   6.961   1.755   3.851  0.1174 -1.1024  0.9285
  899MOL0     C21277   7.086   1.733   3.914 -0.0969  0.1966 -0.3034
  899MOL0     O21278   7.121   1.721   4.280  0.1267 -0.1872 -0.3482
  899MOL0     C21279   7.468   1.814   4.237 -0.5368 -0.0699  0.0888
  899MOL0     C21280   7.598   1.812   4.299 -0.7766  0.5627 -0.8159
  899MOL0     N21281   8.013   2.124   4.945  0.6602  0.2252  1.1831
  899MOL0     N21282   7.936   2.201   5.031 -0.5197  0.0497  0.5225
  899MOL0     C21283   8.483   3.092   4.924 -0.2022  0.2523  0.4829
  899MOL0     C21284   8.567   3.181   4.860 -0.7011  0.3601  0.3158
  899MOL0     C21285   8.871   3.383   4.641  1.3840 -0.3493  0.4435
  899MOL0     C21286   8.827   3.465   4.539  0.7874 -0.0686 -0.8519
  899MOL0     C21287   8.915   3.571   4.488 -0.5786  0.6839 -0.0202
  899MOL0     C21288   9.040   3.593   4.557  0.5136 -0.1685 -0.3910
  899MOL0     O21289   9.116   3.697   4.509 -0.3946  0.8308  0.3071
  899MOL0     C21290   9.231   3.747   4.590  0.2575 -0.0198  0.2151
  899MOL0     C21291   9.348   3.644   4.575  0.7550 -0.3982  0.0476
  899MOL0     C21292   9.419   3.644   4.443 -0.1216  0.4768 -0.2937
  899MOL0     C21293   9.546   3.721   4.435  0.2387  0.0249  1.0972
  899MOL0     C21294   9.664   3.645   4.469 -0.4341 -0.5863 -0.2710
  899MOL0     C21295   9.761   3.585   4.484 -0.2545 -0.2462  0.3078
  899MOL0     C21296   9.073   3.518   4.674  1.6779 -0.1321  0.1492
  899MOL0     C21297   8.996   3.411   4.706 -0.3347 -1.1742 -0.0934
  899MOL0     H21298   8.447   3.183   4.544 -1.8523  1.0349  0.0676
  899MOL0     H21299   8.257   3.056   4.672 -1.0153  1.3857  0.7351
  899MOL0     H21300   8.092   3.065   4.874 -0.1434  0.0047 -0.9983
  899MOL0     H21301   8.120   2.897   4.821 -3.1853  0.6940 -0.6736
  899MOL0     H21302   8.130   2.859   5.089 -0.3025 -3.9522 -2.7892
  899MOL0     H21303   8.035   3.009   5.089 -1.9834 -2.5939  2.2619
  899MOL0     H21304   7.855   2.898   5.118 -2.6929  0.2418 -1.6249
  899MOL0     H21305   7.864   2.878   4.940 -1.6789 -4.4821  0.5575
  899MOL0     H21306   8.005   2.673   5.000  1.7380  1.0478  1.4999
  899MOL0     H21307   7.951   2.686   5.158  2.0499 -2.8483 -3.0323
  899MOL0     H21308   7.718   2.674   5.063  0.6155  2.5825  0.2916
  899MOL0     H21309   7.790   2.651   4.902 -3.0823 -2.2642 -0.2629
  899MOL0     H21310   7.927   2.469   4.983  0.2906  4.3773 -3.0808
  899MOL0     H21311   7.829   2.467   5.139 -1.6385 -0.1818 -0.3779
  899MOL0     H21312   7.623   2.461   5.016  0.1790  0.5442  1.3935
  899MOL0     H21313   7.723   2.406   4.872 -0.5769 -0.7871 -0.4914
  899MOL0     H21314   7.606   2.218   4.984  1.2465  1.6354 -2.3263
  899MOL0     H21315   7.687   2.264   5.137 -0.7252 -3.2536  0.7832
  899MOL0     H21316   7.720   2.090   4.807  1.0744  0.3033 -0.5195
  899MOL0     H21317   7.973   2.074   4.635  4.0462  0.6000 -0.7210
  899MOL0     H21318   8.085   1.970   4.748 -0.5775 -2.7020  1.5206
  899MOL0     H21319   7.796   1.894   4.662 -1.8888 -3.1496 -2.0176
  899MOL0     H21320   7.910   1.792   4.746 -1.9129 -2.1255 -2.1316
  899MOL0     H21321   7.995   1.704   4.568 -0.1567 -0.8386 -2.2115
  899MOL0     H21322   8.046   1.846   4.510  0.7452  0.2447  1.6427
  899MOL0     H21323   7.881   1.750   4.352 -0.0813 -0.4781 -0.7940
  899MOL0     H21324   7.816   1.902   4.417 -1.7700 -0.6486  1.6002
  899MOL0     H21325   7.506   1.633   4.577 -1.3702 -0.0795  0.7084
  899MOL0     H21326   7.191   1.536   4.445 -2.2884  0.8706  1.1688
  899MOL0     H21327   7.299   1.577   4.589 -0.3316  0.5156  1.0267
  899MOL0     H21328   7.171   1.673   4.526  0.6297 -1.1239  1.2464
  899MOL0     H21329   7.050   1.982   4.141 -4.4313  2.2427 -0.9234
  899MOL0     H21330   6.854   2.022   4.021 -0.2903  0.8750 -4.1363
  899MOL0     H21331   6.655   2.036   3.872  1.1085  0.6290 -0.1162
  899MOL0     H21332   6.781   2.033   3.744 -0.6759  1.3860 -0.9264
  899MOL0     H21333   6.529   1.875   3.711  2.0688 -1.1072  1.6325
  899MOL0     H21334   6.516   2.057   3.693  0.0124 -0.1194  1.1036
  899MOL0     H21335   6.650   1.836   3.528 -1.4282 -0.7411  3.0371
  899MOL0     H21336   6.710   2.001   3.505  1.1009 -1.0261 -1.1027
  899MOL0     H21337   6.447   2.056   3.454 -1.4592 -0.7612 -4.4432
  899MOL0     H21338   6.561   2.015   3.335 -2.0377 -1.3060 -1.0987
  899MOL0     H21339   6.343   1.900   3.342 -0.0277  0.7443 -1.1240
  899MOL0     H21340   6.388   1.808   3.486 -0.0634  1.2163  0.7470
  899MOL0     H21341   6.478   1.793   3.203 -2.3340  1.2183  1.2620
  899MOL0     H21342   6.607   1.771   3.307  0.1225 -2.7801 -0.7805
  899MOL0     H21343   6.335   1.642   3.330 -0.5581  2.4793  0.8258
  899MOL0     H21344   6.469   1.599   3.438  1.2520 -1.1754  0.3917
  899MOL0     H21345   6.612   1.549   3.230  0.7223 -0.3332 -0.7272
  899MOL0     H21346   6.465   1.557   3.135 -0.4460 -0.3156  0.2604
  899MOL0     H21347   6.939   1.682   3.773  1.8435 -0.0145 -0.6607
  899MOL0     H21348   7.140   1.646   3.879 -4.1498 -1.9438 -1.9875
  899MOL0     H21349   7.471   1.884   4.154  0.8624  0.9591  0.9626
  899MOL0     H21350   7.677   1.853   4.237  0.8694  0.3673  1.0557
  899MOL0     H21351   8.482   3.077   5.032 -0.8380 -0.4737  0.3831
  899MOL0     H21352   8.650   3.224   4.916 -1.9881 -0.0287  2.6487
  899MOL0     H21353   8.732   3.448   4.489  1.3315 -0.7475 -1.6928
  899MOL0     H21354   8.884   3.632   4.403  1.2171  0.0733 -1.1714
  899MOL0     H21355   9.270   3.843   4.556  0.1360  0.4701  1.4432
  899MOL0     H21356   9.208   3.755   4.696  1.9013  2.0351  0.4798
  899MOL0     H21357   9.319   3.548   4.619  0.2137 -0.1381  0.2668
  899MOL0     H21358   9.414   3.683   4.653  1.2346 -1.2430  0.0831
  899MOL0     H21359   9.355   3.677   4.361 -0.9084  0.9755  0.5030
  899MOL0     H21360   9.451   3.540   4.433  1.4088  0.9534 -0.6842
  899MOL0     H21361   9.541   3.818   4.486  1.4712  2.5711 -3.1283
  899MOL0     H21362   9.559   3.758   4.333 -1.1178 -0.8679  0.5781
  899MOL0     H21363   9.848   3.523   4.482 -0.5344 -0.6136 -1.1094
  899MOL0     H21364   9.156   3.531   4.742  1.8314  0.5221 -0.1533
  899MOL0     H21365   9.032   3.349   4.787  2.2614 -2.2786 -1.9373
  900MOL0     O21366  10.253   6.970  10.855 -0.1585 -0.6763 -0.7002
  900MOL0     C21367  10.352   7.048  10.830 -1.2766  0.2417  0.2594
  900MOL0     O21368  10.392   7.166  10.892  0.1456 -0.5058 -0.1385
  900MOL0     C21369  10.305   7.211  10.984 -0.2744  0.5219 -0.2781
  900MOL0     C21370  10.328   7.178  11.118  0.3599 -0.0325  0.2592
  900MOL0     C21371  10.230   7.214  11.221 -0.1426  0.8252 -0.3322
  900MOL0     C21372  10.129   7.307  11.191 -0.1608  0.0289 -0.1663
  900MOL0     O21373  10.037   7.353  11.290 -0.2157  0.5212 -0.3677
  900MOL0     C21374  10.070   7.359  11.424 -0.1671  1.0496  0.4630
  900MOL0     C21375   9.965   7.453  11.485  0.0711  0.1088 -0.2795
  900MOL0     C21376   9.983   7.597  11.449  1.1768  0.3160  0.6488
  900MOL0     C21377   9.842   7.665  11.443  0.8796  0.0966  0.1952
  900MOL0     C21378   9.762   7.656  11.305  0.3269 -0.3143 -0.4659
  900MOL0     C21379   9.621   7.722  11.334  0.2376  0.7270 -0.0740
  900MOL0     C21380   9.529   7.623  11.420 -0.3749 -0.4575 -0.1704
  900MOL0     C21381   9.377   7.656  11.424 -0.3924  0.8697  0.0605
  900MOL0     N21382   9.316   7.619  11.295  0.5771  0.6096 -0.3476
  900MOL0     C21383   9.255   7.715  11.220  0.7304 -0.1853 -0.4852
  900MOL0     C21384   9.170   7.643  11.145  0.1464 -0.1874 -0.0638
  900MOL0     C21385   9.074   7.695  11.048 -0.2623 -0.4432 -0.1694
  900MOL0     C21386   8.965   7.588  11.008  0.2373  0.4034 -0.2410
  900MOL0     C21387   8.849   7.648  10.943  0.1218  0.8657 -0.5555
  900MOL0     C21388   8.879   7.733  10.817 -0.3493  0.1805 -0.2446
  900MOL0     O21389   8.949   7.660  10.722  0.0881  0.2898 -0.4654
  900MOL0     C21390   8.876   7.591  10.628  0.0248 -0.2032 -0.5026
  900MOL0     C21391   8.864   7.645  10.502 -0.7734 -0.4128 -0.3447
  900MOL0     C21392   8.802   7.578  10.391  0.5166  0.8445 -0.1191
  900MOL0     C21393   8.805   7.628  10.250  0.5672 -0.2948  0.5508
  900MOL0     C21394   8.746   7.452  10.420  0.4789  0.0735  0.1615
  900MOL0     C21395   8.680   7.357  10.320 -0.2289 -0.5972  0.4561
  900MOL0     O21396   8.583   7.278  10.375  0.7660 -0.4653  0.4434
  900MOL0     C21397   8.522   7.200  10.283  0.9003 -0.1933  0.1273
  900MOL0     C21398   8.572   7.073  10.261 -0.0532 -0.8817  0.3893
  900MOL0     C21399   8.514   6.986  10.173 -0.1268 -0.5596 -0.5747
  900MOL0     C21400   8.399   7.020  10.113 -0.0962 -0.7474  0.0374
  900MOL0     O21401   8.339   6.921  10.039  0.5240 -0.8383 -0.5937
  900MOL0     C21402   8.277   6.966   9.920  0.3982 -0.8512 -0.4794
  900MOL0     C21403   8.368   7.041   9.823 -0.6139 -0.7889  0.0733
  900MOL0     C21404   8.495   6.961   9.785  0.0674 -0.2123 -0.4868
  900MOL0     C21405   8.559   7.041   9.674 -0.5769  0.7597 -0.2819
  900MOL0     C21406   8.693   6.981   9.632 -0.7903  0.1777 -0.1372
  900MOL0     C21407   8.670   6.849   9.549  0.8728 -0.2329  0.2497
  900MOL0     C21408   8.798   6.813   9.468 -0.1724 -0.6151 -0.5259
  900MOL0     C21409   8.921   6.795   9.552 -0.7900 -0.5109  1.4385
  900MOL0    Cl21410   9.059   6.761   9.444  0.2484 -0.1224  0.3632
  900MOL0     C21411   8.359   7.158  10.120  0.3492 -0.6369 -0.2715
  900MOL0     C21412   8.415   7.243  10.217 -0.2888  0.0799  0.2134
  900MOL0     O21413   8.715   7.351  10.206 -0.4544 -0.3016  0.6015
  900MOL0     C21414   8.761   7.395  10.544  0.3624  0.0417 -0.4475
  900MOL0     C21415   8.822   7.459  10.645  0.2649 -0.4024  0.6165
  900MOL0     N21416   9.179   7.511  11.171 -0.5679  0.2793 -0.7137
  900MOL0     N21417   9.266   7.498  11.262 -0.4465 -0.0732 -0.8249
  900MOL0     C21418  10.116   7.341  11.056  0.0127 -0.6611 -0.3109
  900MOL0     C21419  10.202   7.298  10.954 -0.5895  0.3877 -0.9648
  900MOL0     C21420  10.468   6.986  10.753  0.3095  0.3831 -0.4390
  900MOL0     C21421  10.605   7.033  10.753 -0.5890  1.3255 -0.4611
  900MOL0     C21422  10.697   6.958  10.682 -0.0482 -0.2893 -0.7138
  900MOL0     C21423  10.663   6.849  10.600 -0.3869  0.5113  0.3508
  900MOL0     O21424  10.750   6.770  10.534 -0.1883  0.8668 -0.8910
  900MOL0     C21425  10.896   6.795  10.536 -0.7827  0.0904  0.7753
  900MOL0     C21426  10.949   6.669  10.474 -0.1543  0.1973  0.3165
  900MOL0     C21427  10.894   6.639  10.331  0.1395 -0.8847 -0.3742
  900MOL0     C21428  10.984   6.544  10.255  0.5834  0.0764  0.2928
  900MOL0     C21429  10.967   6.412  10.328  0.6096 -0.3706  0.4643
  900MOL0     C21430  10.966   6.317  10.406 -0.2861 -0.1218 -0.4643
  900MOL0     C21431  10.531   6.810  10.605 -0.1523 -0.0754  0.1213
  900MOL0     C21432  10.431   6.866  10.679  0.2005 -0.0758  0.1908
  900MOL0     H21433  10.414   7.126  11.160 -2.0423 -2.7049  2.2923
  900MOL0     H21434  10.256   7.180  11.321  3.9020  1.0031 -1.1393
  900MOL0     H21435  10.075   7.264  11.478  1.2895  0.8768  0.0905
  900MOL0     H21436  10.164   7.410  11.448  1.1861 -1.3554  0.5898
  900MOL0     H21437   9.868   7.419  11.448 -1.2638  0.9641  2.1980
  900MOL0     H21438   9.972   7.436  11.593 -2.2586 -0.4734 -0.1648
  900MOL0     H21439  10.044   7.648  11.523  0.3943  1.6339  0.4136
  900MOL0     H21440  10.032   7.610  11.352 -4.6235  1.8851 -2.5659
  900MOL0     H21441   9.780   7.626  11.524  1.1457 -0.2538  0.2329
  900MOL0     H21442   9.848   7.769  11.476 -0.4227  0.2333  0.0321
  900MOL0     H21443   9.818   7.699  11.221  0.5017 -0.4940 -0.4427
  900MOL0     H21444   9.748   7.558  11.258  2.8338  0.3709 -2.9782
  900MOL0     H21445   9.636   7.816  11.388 -2.6975  0.2617  1.7604
  900MOL0     H21446   9.577   7.740  11.235  1.1891 -0.0093 -0.6559
  900MOL0     H21447   9.541   7.521  11.383 -0.1404 -0.1658 -0.9142
  900MOL0     H21448   9.568   7.618  11.523  0.4851  4.1950 -0.0620
  900MOL0     H21449   9.355   7.759  11.456 -1.4024  1.1956 -1.5854
  900MOL0     H21450   9.330   7.586  11.494  0.5518 -1.4907 -1.5436
  900MOL0     H21451   9.278   7.821  11.215  3.6990 -0.7385 -5.1494
  900MOL0     H21452   9.022   7.781  11.092 -0.5721 -1.6769  2.0056
  900MOL0     H21453   9.128   7.724  10.957 -1.5440  1.9598 -0.2643
  900MOL0     H21454   8.933   7.548  11.104 -0.0540  1.1672 -0.0123
  900MOL0     H21455   9.006   7.506  10.948 -3.1757 -0.6985 -1.3087
  900MOL0     H21456   8.799   7.714  11.014 -0.5636  2.7115 -2.6346
  900MOL0     H21457   8.784   7.563  10.923  0.2910  0.4654  0.5449
  900MOL0     H21458   8.940   7.814  10.857  1.9338  0.0847 -3.1692
  900MOL0     H21459   8.783   7.764  10.774 -0.6899  1.2744  1.2552
  900MOL0     H21460   8.906   7.743  10.483  0.0509 -0.1308  2.4247
  900MOL0     H21461   8.820   7.737  10.248 -2.5625  0.2224 -0.4744
  900MOL0     H21462   8.880   7.578  10.188 -0.1146 -1.6839  0.8219
  900MOL0     H21463   8.708   7.620  10.200  0.6925  0.7853  0.1122
  900MOL0     H21464   8.658   7.043  10.319 -0.1359  1.0090  1.5400
  900MOL0     H21465   8.544   6.883  10.157  1.1482 -0.2140 -0.5135
  900MOL0     H21466   8.256   6.876   9.861  0.4907 -0.9244 -0.3996
  900MOL0     H21467   8.191   7.031   9.938  2.1279  1.9146 -1.5911
  900MOL0     H21468   8.310   7.063   9.733 -0.6294  2.9565  0.8328
  900MOL0     H21469   8.401   7.137   9.865  2.8196 -2.2546  1.0930
  900MOL0     H21470   8.462   6.865   9.745 -0.6316  0.1634 -0.8353
  900MOL0     H21471   8.564   6.952   9.869 -0.7419 -0.9235  0.1191
  900MOL0     H21472   8.497   7.055   9.585  0.6986 -1.9795 -1.7423
  900MOL0     H21473   8.575   7.146   9.701  1.0042  0.8051 -1.2809
  900MOL0     H21474   8.755   6.962   9.720  1.0646  1.3475 -1.1312
  900MOL0     H21475   8.740   7.055   9.566  5.6634 -1.0421  2.3088
  900MOL0     H21476   8.639   6.767   9.615  0.6385  0.8280  1.4949
  900MOL0     H21477   8.597   6.878   9.473 -0.0716 -0.7537  0.9380
  900MOL0     H21478   8.822   6.899   9.404  1.6280 -0.2764  0.5577
  900MOL0     H21479   8.771   6.722   9.413  1.8029  0.4421 -3.5204
  900MOL0     H21480   8.907   6.701   9.607 -0.8901 -1.6915 -0.5248
  900MOL0     H21481   8.940   6.886   9.611  0.2115 -0.4047  0.9662
  900MOL0     H21482   8.285   7.201  10.054  0.1983  2.0610  1.5131
  900MOL0     H21483   8.391   7.348  10.234  1.4140  0.6213 -0.5141
  900MOL0     H21484   8.719   7.299  10.571 -3.4140  2.1956  2.4017
  900MOL0     H21485   8.843   7.404  10.736  2.0611  2.9584  2.4401
  900MOL0     H21486  10.038   7.412  11.030 -0.7603 -1.3173  0.1715
  900MOL0     H21487  10.190   7.330  10.851 -0.7835  2.0881 -0.4428
  900MOL0     H21488  10.626   7.118  10.817 -0.7678 -0.3487  1.9479
  900MOL0     H21489  10.794   7.006  10.676 -0.3788  0.4063 -0.5666
  900MOL0     H21490  10.922   6.881  10.474 -0.5386 -0.8001 -0.3849
  900MOL0     H21491  10.937   6.822  10.634  0.4975  1.5941 -0.1447
  900MOL0     H21492  10.929   6.589  10.546 -5.7045  1.5305  0.7279
  900MOL0     H21493  11.058   6.669  10.469 -0.0361  0.5568  2.0935
  900MOL0     H21494  10.886   6.730  10.270  0.2886 -2.5365 -3.0208
  900MOL0     H21495  10.792   6.602  10.345 -0.5012  0.2206 -1.8294
  900MOL0     H21496  11.089   6.574  10.254 -0.1041  2.7103 -0.4334
  900MOL0     H21497  10.951   6.534  10.152 -1.8174  1.6131  0.8323
  900MOL0     H21498  10.953   6.238  10.478 -0.1805 -0.6263 -0.9960
  900MOL0     H21499  10.507   6.722  10.545  4.6812  0.2750 -2.8308
  900MOL0     H21500  10.331   6.823  10.679  0.4600 -0.7467 -1.6511
  901MOL0     O21501   2.993   8.076   0.374 -0.4071 -0.3810 -0.5728
  901MOL0     C21502   2.978   7.958   0.374 -0.9076  0.6866  0.7765
  901MOL0     O21503   2.878   7.894   0.318 -0.2717  0.1403 -0.0511
  901MOL0     C21504   2.793   7.957   0.236  0.0424 -0.0444  0.1863
  901MOL0     C21505   2.836   7.989   0.109  1.4041  0.1726  0.1753
  901MOL0     C21506   2.761   8.077   0.025  0.5015  0.5268  0.3642
  901MOL0     C21507   2.635   8.112   0.055  0.7208 -0.1749  1.0056
  901MOL0     O21508   2.595   8.190  -0.053  0.3110 -1.1878 -0.0607
  901MOL0     C21509   2.460   8.240  -0.041 -0.1419  0.5793  0.1098
  901MOL0     C21510   2.404   8.294  -0.176 -0.0828  0.6587  0.5049
  901MOL0     C21511   2.388   8.182  -0.276  0.3549 -0.7884 -0.8068
  901MOL0     C21512   2.378   8.240  -0.423  0.1959  0.6226  0.0196
  901MOL0     C21513   2.392   8.127  -0.526 -0.1814 -0.1801  0.5951
  901MOL0     C21514   2.364   8.172  -0.665  0.5120  0.2449  0.1225
  901MOL0     C21515   2.392   8.072  -0.779 -0.3785 -0.3172  0.3911
  901MOL0     C21516   2.400   8.129  -0.909 -1.0750 -1.4406 -0.2559
  901MOL0     N21517   2.256   8.159  -0.943 -0.6530 -0.3722 -0.4498
  901MOL0     C21518   2.166   8.072  -0.996  0.2194 -0.1843 -0.5767
  901MOL0     C21519   2.052   8.140  -1.017  0.4246 -1.6075 -1.0020
  901MOL0     C21520   1.921   8.102  -1.077 -0.0742 -0.1273 -0.7346
  901MOL0     C21521   1.879   8.181  -1.200  0.0880  0.3173 -0.8508
  901MOL0     C21522   1.939   8.114  -1.328  0.1333  0.9274 -0.9941
  901MOL0     C21523   1.860   8.172  -1.447 -0.5093 -0.0355  0.1258
  901MOL0     O21524   1.910   8.306  -1.460 -0.0324  0.5550  0.5245
  901MOL0     C21525   1.896   8.364  -1.582 -0.0607  0.3994  0.4910
  901MOL0     C21526   1.923   8.298  -1.704 -0.2666 -0.6385 -0.4015
  901MOL0     C21527   1.899   8.349  -1.833  0.8920 -0.0733 -0.4445
  901MOL0     C21528   1.941   8.259  -1.946 -1.2851  0.5597  0.4540
  901MOL0     C21529   1.827   8.475  -1.836  0.1889 -0.3283  0.5707
  901MOL0     C21530   1.787   8.552  -1.956 -0.1458 -0.8608 -0.0789
  901MOL0     O21531   1.692   8.654  -1.939 -0.4542  0.4069 -0.1650
  901MOL0     C21532   1.658   8.744  -2.044  1.0676  0.0302  0.3269
  901MOL0     C21533   1.523   8.795  -2.056  0.0335 -0.2923  0.2965
  901MOL0     C21534   1.488   8.886  -2.158  0.4042  0.3480  0.5111
  901MOL0     C21535   1.585   8.957  -2.231  0.1578  0.6238  0.2889
  901MOL0     O21536   1.541   9.032  -2.348 -0.2044 -0.3229 -0.2388
  901MOL0     C21537   1.611   9.151  -2.385  0.3856  0.2348 -0.5006
  901MOL0     C21538   1.544   9.206  -2.502  0.2104  0.2073  1.0585
  901MOL0     C21539   1.595   9.345  -2.531  0.8169 -0.2255 -0.0617
  901MOL0     C21540   1.489   9.426  -2.610 -0.3204  0.0931  0.2268
  901MOL0     C21541   1.522   9.575  -2.621  0.3633 -0.1210 -0.2336
  901MOL0     C21542   1.406   9.656  -2.696  0.4125 -0.3355  0.2840
  901MOL0     C21543   1.448   9.809  -2.726 -0.0204  0.9351  0.9750
  901MOL0     C21544   1.328   9.887  -2.745 -0.0713  0.4690  0.9984
  901MOL0    Cl21545   1.368  10.049  -2.814  0.1474 -0.1572  0.3834
  901MOL0     C21546   1.722   8.911  -2.214 -0.1947  0.6256 -1.4039
  901MOL0     C21547   1.753   8.806  -2.122 -0.0893 -0.1323 -0.0478
  901MOL0     O21548   1.843   8.526  -2.055  0.2730 -0.1640 -0.0485
  901MOL0     C21549   1.786   8.542  -1.710 -0.2549 -0.0656 -0.7300
  901MOL0     C21550   1.833   8.492  -1.595 -0.1359  0.7533 -0.9543
  901MOL0     N21551   2.076   8.273  -0.970 -0.2318  0.3379  0.4335
  901MOL0     N21552   2.200   8.283  -0.943  0.2905 -0.1748 -0.3373
  901MOL0     C21553   2.575   8.075   0.173 -0.5001  0.3675 -0.5379
  901MOL0     C21554   2.656   8.004   0.270 -0.1497 -0.7238  0.9329
  901MOL0     C21555   3.078   7.865   0.439  0.1083  0.2128  0.6873
  901MOL0     C21556   3.075   7.725   0.416 -0.6308 -0.2473 -0.1306
  901MOL0     C21557   3.163   7.640   0.490 -0.9542 -0.1916 -0.0272
  901MOL0     C21558   3.259   7.693   0.575  0.4337 -0.3294 -0.0733
  901MOL0     O21559   3.343   7.611   0.649  0.3119  0.1745  0.6442
  901MOL0     C21560   3.478   7.614   0.601 -0.2918  0.4169  0.2692
  901MOL0     C21561   3.583   7.554   0.689  0.3545 -0.7454  0.6654
  901MOL0     C21562   3.518   7.424   0.733  0.1013 -0.2206 -0.2562
  901MOL0     C21563   3.624   7.327   0.804 -0.0172 -0.3484 -0.0064
  901MOL0     C21564   3.739   7.285   0.717  1.3024  0.8293  0.2292
  901MOL0     C21565   3.837   7.260   0.648  0.1602  0.4257 -0.1772
  901MOL0     C21566   3.255   7.827   0.608  0.3516 -0.1393  1.2661
  901MOL0     C21567   3.172   7.915   0.535 -0.5093  0.3259  0.6065
  901MOL0     H21568   2.935   7.949   0.091  1.5289 -0.4362  2.0827
  901MOL0     H21569   2.800   8.108  -0.072 -0.5303  0.5726 -0.0412
  901MOL0     H21570   2.400   8.152  -0.013  0.7377  0.1524  0.6863
  901MOL0     H21571   2.441   8.317   0.035 -0.5023  1.3072 -0.7045
  901MOL0     H21572   2.315   8.355  -0.165  1.3672  3.3667 -1.6686
  901MOL0     H21573   2.485   8.352  -0.221 -1.2469 -0.0009 -2.6606
  901MOL0     H21574   2.479   8.121  -0.276  0.2037 -1.0601  0.9199
  901MOL0     H21575   2.300   8.126  -0.243  0.8179 -1.5083 -0.7681
  901MOL0     H21576   2.277   8.279  -0.440 -1.6512 -2.3209  3.0967
  901MOL0     H21577   2.454   8.316  -0.445 -0.1721  0.9872 -0.0048
  901MOL0     H21578   2.494   8.089  -0.533 -1.4964 -4.1055  0.0323
  901MOL0     H21579   2.327   8.044  -0.498 -1.1213 -0.0756 -1.1209
  901MOL0     H21580   2.262   8.207  -0.681  1.0841  1.0736 -2.0384
  901MOL0     H21581   2.412   8.266  -0.692 -1.4167  0.8319 -1.4223
  901MOL0     H21582   2.493   8.036  -0.760 -0.2839 -0.2421  0.0371
  901MOL0     H21583   2.324   7.986  -0.783  4.0779 -4.2403  0.9673
  901MOL0     H21584   2.452   8.062  -0.979  3.2602  0.1579  1.0980
  901MOL0     H21585   2.462   8.218  -0.895 -2.6401 -0.5051  1.1878
  901MOL0     H21586   2.186   7.970  -1.027 -2.2234 -0.9733  0.2778
  901MOL0     H21587   1.915   7.997  -1.107 -0.3267 -0.0049 -1.1148
  901MOL0     H21588   1.841   8.130  -1.008 -0.4191  2.7619 -2.1543
  901MOL0     H21589   1.908   8.286  -1.200  0.8225  0.1290 -0.0369
  901MOL0     H21590   1.772   8.161  -1.212  0.7640 -4.5538 -0.9475
  901MOL0     H21591   1.930   8.005  -1.325  0.1718  0.8614 -2.4511
  901MOL0     H21592   2.044   8.137  -1.345  0.6440 -0.7964 -0.3856
  901MOL0     H21593   1.753   8.170  -1.424 -0.1949  2.5285  2.3252
  901MOL0     H21594   1.881   8.111  -1.536  1.1051 -0.5510  0.8373
  901MOL0     H21595   1.962   8.198  -1.694 -0.6778 -0.7812 -0.1879
  901MOL0     H21596   2.036   8.303  -1.979 -2.6119  3.8948  0.7023
  901MOL0     H21597   1.948   8.161  -1.899 -1.6614 -0.3337 -1.2581
  901MOL0     H21598   1.875   8.270  -2.033  1.1511  0.1175 -1.5932
  901MOL0     H21599   1.444   8.746  -1.999 -3.2487  4.7905  0.7062
  901MOL0     H21600   1.388   8.929  -2.165  0.5802  0.6127 -0.5664
  901MOL0     H21601   1.620   9.223  -2.303 -1.9784  1.2652 -1.0435
  901MOL0     H21602   1.717   9.136  -2.406  1.0922  3.0716  0.6321
  901MOL0     H21603   1.562   9.138  -2.587  0.5768 -2.6701  3.2717
  901MOL0     H21604   1.439   9.225  -2.478  1.1521  2.8774  3.5878
  901MOL0     H21605   1.685   9.339  -2.593  0.0669 -1.1835 -1.1043
  901MOL0     H21606   1.629   9.399  -2.442 -0.9728  0.5748  0.1725
  901MOL0     H21607   1.493   9.397  -2.716 -1.0857  1.2422 -0.1344
  901MOL0     H21608   1.390   9.402  -2.570 -0.7562  0.2962 -0.7109
  901MOL0     H21609   1.623   9.598  -2.657  1.7088 -0.5905  2.8738
  901MOL0     H21610   1.526   9.626  -2.524  3.4554  1.4511 -1.0499
  901MOL0     H21611   1.380   9.596  -2.783 -1.1314 -3.1132  2.4900
  901MOL0     H21612   1.307   9.652  -2.649  1.3848  1.4048  2.7145
  901MOL0     H21613   1.502   9.804  -2.821 -2.3371 -1.4439 -0.3561
  901MOL0     H21614   1.513   9.853  -2.649 -0.1947  0.5238  1.3668
  901MOL0     H21615   1.286   9.905  -2.646 -0.1595  2.5148  0.6286
  901MOL0     H21616   1.255   9.835  -2.808 -0.5635  2.6139 -0.2834
  901MOL0     H21617   1.794   8.946  -2.288 -1.1943  0.6307 -2.4083
  901MOL0     H21618   1.860   8.785  -2.126 -0.2953 -1.5153  1.0663
  901MOL0     H21619   1.728   8.633  -1.704 -0.0021  0.0004  1.3763
  901MOL0     H21620   1.815   8.557  -1.510  0.3779 -1.2294  0.7555
  901MOL0     H21621   2.476   8.110   0.203 -0.5674 -1.2276  1.3841
  901MOL0     H21622   2.616   8.001   0.371 -3.5352 -2.3528 -0.3080
  901MOL0     H21623   3.004   7.687   0.343 -0.3829  0.9051 -0.9986
  901MOL0     H21624   3.172   7.537   0.460  2.4644 -0.5290  1.6715
  901MOL0     H21625   3.486   7.559   0.506 -2.4654 -1.4295  1.0631
  901MOL0     H21626   3.498   7.720   0.588 -4.4409  1.7297  2.6500
  901MOL0     H21627   3.603   7.614   0.779 -0.6063  0.2892  0.2228
  901MOL0     H21628   3.677   7.525   0.643 -0.1742 -2.4990  0.5951
  901MOL0     H21629   3.476   7.369   0.647  1.7432  0.4779 -1.5496
  901MOL0     H21630   3.436   7.444   0.802  1.5583  3.2558  0.6423
  901MOL0     H21631   3.571   7.236   0.831  1.6173 -2.5486 -3.5670
  901MOL0     H21632   3.665   7.373   0.895  2.0209 -1.2398 -0.4193
  901MOL0     H21633   3.930   7.223   0.610  0.3840 -1.4832  1.9754
  901MOL0     H21634   3.328   7.857   0.683  1.5614  2.5456 -0.8245
  901MOL0     H21635   3.173   8.022   0.553  1.2658  0.4835 -0.1690
  902MOL0     O21636   2.757   3.974   7.865  0.3432 -0.3832  0.4375
  902MOL0     C21637   2.768   4.083   7.921 -1.0473  0.2496  0.0050
  902MOL0     O21638   2.681   4.151   7.999  0.0405  0.9468 -0.2178
  902MOL0     C21639   2.552   4.119   8.006 -0.1446 -0.1487  0.1510
  902MOL0     C21640   2.468   4.232   8.036 -0.5700  0.5114 -0.5399
  902MOL0     C21641   2.332   4.215   8.057 -0.5926  0.6100 -0.1489
  902MOL0     C21642   2.273   4.092   8.046  0.2379  0.0861 -0.6751
  902MOL0     O21643   2.137   4.068   8.077  0.5643 -0.1695  0.3058
  902MOL0     C21644   2.058   4.184   8.121 -0.7475 -0.3527  0.5220
  902MOL0     C21645   1.924   4.150   8.168 -0.3899  1.2440 -0.9027
  902MOL0     C21646   1.871   4.266   8.252 -0.2977 -0.1847 -0.1496
  902MOL0     C21647   1.724   4.259   8.274 -0.4746  0.1976 -0.3103
  902MOL0     C21648   1.668   4.371   8.361  0.2161 -0.4141 -0.0002
  902MOL0     C21649   1.629   4.498   8.290 -0.3490 -0.0241  0.8056
  902MOL0     C21650   1.549   4.591   8.378 -0.2978 -0.1743 -0.6624
  902MOL0     C21651   1.402   4.553   8.394  0.1431 -0.2588 -0.3124
  902MOL0     N21652   1.315   4.639   8.487 -0.6899 -0.2749 -0.7232
  902MOL0     C21653   1.288   4.611   8.618  0.3788 -0.2780  0.3338
  902MOL0     C21654   1.209   4.722   8.659  0.5490  0.6167  0.4207
  902MOL0     C21655   1.138   4.729   8.790 -0.2441 -0.3026  0.7726
  902MOL0     C21656   1.155   4.861   8.870  0.4624 -0.2271  0.3608
  902MOL0     C21657   1.087   4.831   9.005  0.0258  0.0403  0.7298
  902MOL0     C21658   1.180   4.774   9.112 -0.0733  0.0741 -0.5138
  902MOL0     O21659   1.273   4.876   9.154 -0.0165 -0.6024 -0.1828
  902MOL0     C21660   1.359   4.842   9.254 -0.5826  0.1772  0.6493
  902MOL0     C21661   1.467   4.920   9.263 -0.2681 -1.1879  0.8319
  902MOL0     C21662   1.579   4.892   9.343  0.2793  0.6963 -0.3964
  902MOL0     C21663   1.694   4.989   9.351  0.9260 -0.3551 -0.0126
  902MOL0     C21664   1.590   4.770   9.404 -0.0268 -0.4950 -0.6130
  902MOL0     C21665   1.697   4.730   9.494  0.5976 -0.7429  0.2920
  902MOL0     O21666   1.723   4.595   9.464 -0.2416 -0.0270  0.6923
  902MOL0     C21667   1.837   4.535   9.494 -0.3448  0.1025 -0.5373
  902MOL0     C21668   1.968   4.587   9.497  1.1145 -0.5941 -1.2562
  902MOL0     C21669   2.078   4.508   9.524 -0.4923 -0.3211 -0.2840
  902MOL0     C21670   2.067   4.370   9.539 -0.0917 -0.7298  0.1296
  902MOL0     O21671   2.173   4.290   9.561  0.2298  1.5526  0.1581
  902MOL0     C21672   2.211   4.236   9.695 -0.2563 -0.3653  0.7268
  902MOL0     C21673   2.211   4.080   9.709  0.1298 -1.0033 -0.3955
  902MOL0     C21674   2.067   4.030   9.719 -0.1834  0.9028  1.5255
  902MOL0     C21675   2.063   3.898   9.799 -0.0593 -0.1327  1.3486
  902MOL0     C21676   2.174   3.789   9.754 -0.1838 -0.8148 -0.1186
  902MOL0     C21677   2.106   3.642   9.755 -0.5699 -0.5554 -0.4096
  902MOL0     C21678   2.107   3.589   9.891 -0.9156  0.4193  0.0483
  902MOL0     C21679   2.100   3.437   9.885 -0.0739 -0.0568  0.0702
  902MOL0    Cl21680   1.935   3.410   9.816 -0.1822  0.1425 -0.0196
  902MOL0     C21681   1.933   4.315   9.532 -0.9343  0.6024 -0.0773
  902MOL0     C21682   1.825   4.402   9.513 -0.3475 -0.2615 -0.5697
  902MOL0     O21683   1.760   4.799   9.570 -0.2651  0.1148 -0.7789
  902MOL0     C21684   1.478   4.683   9.393  1.0786  0.4117 -0.7880
  902MOL0     C21685   1.360   4.721   9.324  0.5343  0.7685  0.0932
  902MOL0     N21686   1.196   4.809   8.549  0.8531  1.0284  0.1820
  902MOL0     N21687   1.256   4.757   8.443 -0.4340  0.6459  0.1522
  902MOL0     C21688   2.347   3.981   8.019 -0.3980  0.1221  0.5654
  902MOL0     C21689   2.486   4.001   8.000  0.8434  0.9335 -1.0038
  902MOL0     C21690   2.899   4.149   7.909 -0.3787 -0.6941  1.2716
  902MOL0     C21691   2.992   4.119   7.815  0.3446  0.1776  1.5536
  902MOL0     C21692   3.111   4.200   7.806 -0.2931  0.0752  0.2974
  902MOL0     C21693   3.139   4.311   7.893 -0.1207 -0.5444  0.7225
  902MOL0     O21694   3.251   4.389   7.904 -0.3421 -0.4454 -0.2613
  902MOL0     C21695   3.361   4.347   7.821  0.1087 -1.1273 -0.1032
  902MOL0     C21696   3.471   4.457   7.817 -0.7856 -0.4487 -0.0621
  902MOL0     C21697   3.580   4.416   7.714 -0.0402  0.1596 -0.2137
  902MOL0     C21698   3.694   4.522   7.719 -0.3371  0.3402 -0.8894
  902MOL0     C21699   3.791   4.487   7.616  0.4721  0.4393  0.0376
  902MOL0     C21700   3.881   4.473   7.538 -0.1916  0.7050  0.0570
  902MOL0     C21701   3.042   4.341   7.990 -0.4672  0.3045 -0.0472
  902MOL0     C21702   2.921   4.263   7.986 -0.8065 -0.2126 -1.2965
  902MOL0     H21703   2.502   4.333   8.054  0.3426  0.3439 -1.3010
  902MOL0     H21704   2.278   4.306   8.082 -0.1368  1.2872 -1.5413
  902MOL0     H21705   2.125   4.216   8.201  2.0980 -3.7967 -0.2343
  902MOL0     H21706   2.053   4.266   8.049 -0.6162 -0.1029  0.7948
  902MOL0     H21707   1.867   4.126   8.077  2.2031 -1.3481 -2.0255
  902MOL0     H21708   1.938   4.064   8.234 -0.4514  0.7336 -1.5388
  902MOL0     H21709   1.917   4.255   8.351 -1.1675 -0.4505  0.2399
  902MOL0     H21710   1.899   4.364   8.213  0.5708  0.1027  1.1506
  902MOL0     H21711   1.671   4.269   8.179  0.0963  0.2646 -0.6251
  902MOL0     H21712   1.702   4.163   8.323  1.4706 -1.3712 -2.2860
  902MOL0     H21713   1.576   4.331   8.404 -1.0541 -1.2416 -3.2008
  902MOL0     H21714   1.746   4.390   8.435  1.4873 -2.2131 -0.7889
  902MOL0     H21715   1.713   4.551   8.245 -1.7724  1.4547 -0.2091
  902MOL0     H21716   1.562   4.466   8.209  1.0912 -0.4280 -0.2732
  902MOL0     H21717   1.588   4.599   8.480 -2.1284  1.6741 -0.0383
  902MOL0     H21718   1.575   4.688   8.337 -0.8995  1.7518  3.0696
  902MOL0     H21719   1.390   4.446   8.417 -0.7334 -0.6796 -2.5114
  902MOL0     H21720   1.349   4.561   8.299  0.7876  0.8182 -0.5948
  902MOL0     H21721   1.321   4.518   8.663  1.7600 -1.4299 -2.7801
  902MOL0     H21722   1.030   4.720   8.772 -0.2120  0.4210  0.1474
  902MOL0     H21723   1.176   4.650   8.855  1.9433  0.0263 -0.0367
  902MOL0     H21724   1.115   4.950   8.822  1.3619  1.1948  2.1141
  902MOL0     H21725   1.263   4.879   8.878 -0.0531  4.6883 -0.8473
  902MOL0     H21726   1.006   4.758   8.995 -0.2370  0.2965  0.9879
  902MOL0     H21727   1.037   4.923   9.034 -2.7926 -0.9581 -0.4946
  902MOL0     H21728   1.227   4.680   9.084 -1.2214 -0.8787  0.6504
  902MOL0     H21729   1.118   4.751   9.199  1.0746 -2.6193 -0.3146
  902MOL0     H21730   1.467   5.011   9.204  1.6814 -1.6030  0.1033
  902MOL0     H21731   1.785   4.929   9.355  0.2486 -1.3567  3.8898
  902MOL0     H21732   1.686   5.053   9.262 -0.7630  1.9218  1.6599
  902MOL0     H21733   1.678   5.040   9.446  0.5929  2.3600 -1.4038
  902MOL0     H21734   1.976   4.695   9.497  0.2285 -0.3250  3.1047
  902MOL0     H21735   2.171   4.563   9.528 -1.3099  1.1910 -1.0301
  902MOL0     H21736   2.309   4.281   9.707 -0.1348  0.3605 -2.2998
  902MOL0     H21737   2.156   4.276   9.781  0.8431  2.7505  0.1115
  902MOL0     H21738   2.274   4.036   9.632  2.0798 -0.2638  0.6987
  902MOL0     H21739   2.260   4.057   9.804 -1.3394  0.0562  0.6735
  902MOL0     H21740   2.036   4.023   9.614  0.9584  2.3353  1.0693
  902MOL0     H21741   2.001   4.107   9.760  0.1119  1.9602  0.0863
  902MOL0     H21742   2.071   3.923   9.905  1.1281  1.8780  0.8337
  902MOL0     H21743   1.965   3.855   9.775 -0.3966  1.8887 -1.4327
  902MOL0     H21744   2.257   3.795   9.826  1.9962  2.8394 -2.5807
  902MOL0     H21745   2.212   3.800   9.652  1.8316 -1.1603  0.5379
  902MOL0     H21746   2.006   3.638   9.711 -1.3151 -2.7570  1.2838
  902MOL0     H21747   2.163   3.578   9.686 -3.3176 -4.5583  0.6748
  902MOL0     H21748   2.016   3.625   9.940  0.4953  0.8258  2.5986
  902MOL0     H21749   2.199   3.630   9.935 -0.7691  2.5906 -2.0836
  902MOL0     H21750   2.126   3.393   9.982  1.2237 -0.4001 -0.4235
  902MOL0     H21751   2.175   3.404   9.813  0.4928  1.1597  0.0867
  902MOL0     H21752   1.919   4.208   9.540 -1.1495  0.7151  1.1549
  902MOL0     H21753   1.727   4.355   9.509  0.6664 -2.9755  2.2958
  902MOL0     H21754   1.481   4.581   9.431  1.6600  0.0817 -1.6841
  902MOL0     H21755   1.276   4.655   9.342  1.4735  0.1944  2.9409
  902MOL0     H21756   2.298   3.885   8.012  1.0905 -0.5950 -0.6307
  902MOL0     H21757   2.535   3.909   7.970  2.2890  1.4690 -0.4088
  902MOL0     H21758   2.991   4.042   7.739  1.3908  1.0041  0.6722
  902MOL0     H21759   3.178   4.179   7.723 -2.0023  1.7624 -1.5986
  902MOL0     H21760   3.392   4.248   7.857 -2.0968 -1.5304  0.8154
  902MOL0     H21761   3.310   4.345   7.725  1.7354 -1.1933 -1.0086
  902MOL0     H21762   3.508   4.457   7.920  1.8371 -0.0418 -0.9339
  902MOL0     H21763   3.424   4.552   7.792 -0.9005 -0.4306  0.2170
  902MOL0     H21764   3.555   4.401   7.609  1.7647 -0.7710 -0.5437
  902MOL0     H21765   3.617   4.320   7.751 -2.0730 -0.1305  1.2648
  902MOL0     H21766   3.742   4.546   7.814 -2.6207 -1.1860  0.7701
  902MOL0     H21767   3.652   4.621   7.694  1.0531  1.3648  0.6203
  902MOL0     H21768   3.954   4.483   7.461 -0.1102 -1.4487 -0.2045
  902MOL0     H21769   3.061   4.415   8.067  1.0667 -0.4668  0.3573
  902MOL0     H21770   2.844   4.304   8.051  1.3106  1.8161  0.1065
  903MOL0     O21771   9.268  11.300   7.550  0.1382  0.1462 -0.2923
  903MOL0     C21772   9.207  11.242   7.644  0.0264 -0.5404  0.1071
  903MOL0     O21773   9.247  11.254   7.769 -0.0268  0.4471 -0.1287
  903MOL0     C21774   9.333  11.348   7.800  0.5277 -0.2667  0.8622
  903MOL0     C21775   9.291  11.483   7.785 -0.3512 -0.7519  0.2521
  903MOL0     C21776   9.384  11.585   7.812  1.2631  0.5157  0.6646
  903MOL0     C21777   9.514  11.566   7.861  0.9211  0.5200 -0.6734
  903MOL0     O21778   9.605  11.668   7.892 -0.1250  0.0513 -0.1851
  903MOL0     C21779   9.584  11.793   7.816 -0.0060 -0.7121  0.1573
  903MOL0     C21780   9.721  11.863   7.818 -0.1516 -0.0328  0.0357
  903MOL0     C21781   9.694  12.010   7.786 -0.6328  0.3908 -0.2074
  903MOL0     C21782   9.818  12.091   7.752 -0.3090 -0.8516  0.7996
  903MOL0     C21783   9.810  12.247   7.736 -0.4870  0.1057 -0.3021
  903MOL0     C21784   9.721  12.293   7.623  1.2369  0.6304  0.9148
  903MOL0     C21785   9.734  12.440   7.595  0.9256  0.6363  0.5323
  903MOL0     C21786   9.656  12.527   7.693 -0.5721  0.2531  0.4636
  903MOL0     N21787   9.518  12.491   7.684 -0.5070 -0.3374  0.1508
  903MOL0     C21788   9.432  12.509   7.582 -0.0757 -1.0505 -0.9819
  903MOL0     C21789   9.309  12.487   7.637 -0.0034 -0.0096  0.2209
  903MOL0     C21790   9.174  12.496   7.585 -0.6306 -0.0631  0.7592
  903MOL0     C21791   9.160  12.475   7.431  0.8013  0.3981 -0.6731
  903MOL0     C21792   9.173  12.601   7.336 -0.6790 -0.1712 -0.0325
  903MOL0     C21793   9.058  12.707   7.343 -0.7398 -0.1806 -0.7354
  903MOL0     O21794   9.053  12.783   7.218  0.4270 -0.1013  0.5194
  903MOL0     C21795   8.994  12.722   7.113  1.0043  0.3041  0.6030
  903MOL0     C21796   8.957  12.817   7.019 -0.9159  0.0556  0.7959
  903MOL0     C21797   8.882  12.792   6.908  0.3427 -0.0604  0.9077
  903MOL0     C21798   8.847  12.905   6.809  1.0807  0.1163  0.4272
  903MOL0     C21799   8.856  12.661   6.875 -0.4325 -0.6756  0.7177
  903MOL0     C21800   8.801  12.626   6.746  0.6571 -0.0305 -0.1002
  903MOL0     O21801   8.694  12.535   6.748 -0.3682 -0.6958  0.0570
  903MOL0     C21802   8.658  12.477   6.631 -0.8751 -0.0345 -0.4883
  903MOL0     C21803   8.530  12.411   6.636  0.4958  0.5985  0.8223
  903MOL0     C21804   8.481  12.343   6.525 -0.2463 -0.3629 -1.0132
  903MOL0     C21805   8.563  12.315   6.411  0.3231  0.4503  0.5050
  903MOL0     O21806   8.523  12.232   6.308  0.5209  0.0873  0.9042
  903MOL0     C21807   8.380  12.215   6.281  0.5655 -0.3324 -0.1748
  903MOL0     C21808   8.364  12.116   6.161  0.4774  0.4117 -0.1620
  903MOL0     C21809   8.431  11.978   6.195  0.2125  0.7063 -0.1440
  903MOL0     C21810   8.388  11.916   6.330  0.0877 -0.4971  0.0789
  903MOL0     C21811   8.460  11.780   6.344 -0.6837 -0.7313  0.0412
  903MOL0     C21812   8.394  11.678   6.433 -0.1627  0.0217 -0.0670
  903MOL0     C21813   8.366  11.738   6.571  1.1479 -0.9149  0.0571
  903MOL0     C21814   8.332  11.637   6.668 -0.0147  0.4293  0.2309
  903MOL0    Cl21815   8.323  11.734   6.816  0.1378  0.4787 -0.6476
  903MOL0     C21816   8.691  12.363   6.407 -1.6670 -1.0116 -0.4284
  903MOL0     C21817   8.740  12.444   6.514 -0.2293  0.1524  0.1143
  903MOL0     O21818   8.851  12.675   6.647  0.3222  0.6183 -0.1494
  903MOL0     C21819   8.877  12.564   6.976  0.0112 -0.1398 -0.1491
  903MOL0     C21820   8.958  12.593   7.090 -0.4024 -0.6127  0.3249
  903MOL0     N21821   9.330  12.464   7.774 -0.1707 -0.8074 -0.5454
  903MOL0     N21822   9.453  12.462   7.799  0.1593  0.0672  0.0148
  903MOL0     C21823   9.554  11.429   7.870  0.7729 -0.1236  0.4167
  903MOL0     C21824   9.468  11.325   7.832  0.2846 -0.5507 -0.2766
  903MOL0     C21825   9.102  11.138   7.621 -0.0168 -0.6765 -0.1960
  903MOL0     C21826   9.046  11.112   7.496 -0.4502  0.0547  0.6699
  903MOL0     C21827   8.935  11.026   7.482 -0.4312 -0.3458  0.2512
  903MOL0     C21828   8.884  10.962   7.592 -0.1904 -0.3098 -0.5675
  903MOL0     O21829   8.782  10.882   7.557  0.2161 -0.2816  0.4449
  903MOL0     C21830   8.725  10.815   7.667  0.2965  0.0843 -0.4074
  903MOL0     C21831   8.629  10.720   7.610  0.7081  0.3196 -0.1945
  903MOL0     C21832   8.494  10.784   7.600 -0.5483 -0.5238 -0.0727
  903MOL0     C21833   8.380  10.682   7.585 -0.4247 -0.1229  0.8205
  903MOL0     C21834   8.380  10.628   7.453 -0.6363  0.1393 -0.0670
  903MOL0     C21835   8.373  10.577   7.338 -0.1299 -0.9396 -0.3473
  903MOL0     C21836   8.938  10.977   7.715 -0.4980 -0.9525 -0.0011
  903MOL0     C21837   9.050  11.066   7.730  0.3570  0.6955 -0.7943
  903MOL0     H21838   9.190  11.517   7.768 -0.2065 -0.6152 -0.3496
  903MOL0     H21839   9.333  11.680   7.818 -0.2495 -0.2346  0.1336
  903MOL0     H21840   9.552  11.780   7.712 -0.1676  1.3751 -0.0917
  903MOL0     H21841   9.504  11.850   7.865  0.8097  1.7276 -1.1885
  903MOL0     H21842   9.763  11.860   7.919  0.6776  2.2061 -0.1641
  903MOL0     H21843   9.792  11.816   7.749 -0.0307  0.3032 -0.0718
  903MOL0     H21844   9.619  12.021   7.707  0.5064  0.2267 -1.3565
  903MOL0     H21845   9.640  12.061   7.867  1.9854  0.2107  1.7930
  903MOL0     H21846   9.882  12.074   7.839 -0.4261  0.2542  1.1092
  903MOL0     H21847   9.870  12.051   7.665 -1.2617  0.5570 -0.4554
  903MOL0     H21848   9.791  12.305   7.827  0.5710 -0.9613  0.6417
  903MOL0     H21849   9.908  12.278   7.698  0.5049 -0.4965  1.6211
  903MOL0     H21850   9.743  12.244   7.528  0.7437  0.8116  0.7058
  903MOL0     H21851   9.617  12.268   7.646  0.4751 -0.4318 -2.9196
  903MOL0     H21852   9.839  12.472   7.596  1.4509 -0.7333 -1.6838
  903MOL0     H21853   9.703  12.465   7.493  1.2921  3.9869  1.1364
  903MOL0     H21854   9.668  12.628   7.653 -2.0710  0.9428  1.6288
  903MOL0     H21855   9.697  12.519   7.795 -0.5858 -0.2558  0.4325
  903MOL0     H21856   9.453  12.541   7.480  0.8151  0.4706 -0.3700
  903MOL0     H21857   9.119  12.412   7.629  0.4735 -1.1483  0.1033
  903MOL0     H21858   9.121  12.586   7.618 -1.4531 -0.6213  0.9939
  903MOL0     H21859   9.054  12.454   7.413  0.6289  2.0944 -1.7581
  903MOL0     H21860   9.224  12.393   7.397  1.6168 -0.7251  3.1004
  903MOL0     H21861   9.187  12.566   7.234 -2.8253 -0.7106 -0.1843
  903MOL0     H21862   9.261  12.657   7.372  0.0649 -0.7110 -0.9585
  903MOL0     H21863   9.078  12.773   7.427 -1.0815 -1.9066  0.7767
  903MOL0     H21864   8.969  12.645   7.357  0.9790 -2.2778  1.9370
  903MOL0     H21865   9.000  12.915   7.005  3.2778 -1.4673  1.6590
  903MOL0     H21866   8.742  12.893   6.783  0.6672 -0.6747  2.2929
  903MOL0     H21867   8.868  13.001   6.856 -1.3667  1.1524 -0.4590
  903MOL0     H21868   8.898  12.896   6.712  2.3312 -0.0713  1.0835
  903MOL0     H21869   8.464  12.425   6.721  0.9490  0.1728  1.2489
  903MOL0     H21870   8.376  12.316   6.526 -1.6757  4.0605  2.8974
  903MOL0     H21871   8.334  12.174   6.371 -0.4581 -1.6569 -1.2557
  903MOL0     H21872   8.339  12.314   6.261  2.3751  0.1240 -2.0517
  903MOL0     H21873   8.259  12.103   6.133  1.3797 -1.5781 -3.0093
  903MOL0     H21874   8.401  12.165   6.071 -2.2564  0.4390 -1.3846
  903MOL0     H21875   8.539  11.994   6.200  0.2857 -0.0999  1.7669
  903MOL0     H21876   8.403  11.900   6.123 -0.8338  2.5285 -1.8414
  903MOL0     H21877   8.418  11.976   6.416 -0.9405  0.7548 -0.3944
  903MOL0     H21878   8.281  11.894   6.332 -0.0273  0.1137  1.1930
  903MOL0     H21879   8.564  11.789   6.377 -0.3950 -2.3355 -0.3554
  903MOL0     H21880   8.482  11.739   6.245 -0.6748 -0.0889 -0.2285
  903MOL0     H21881   8.305  11.641   6.381 -0.9483 -0.0466  1.2999
  903MOL0     H21882   8.470  11.601   6.453 -1.8342 -1.1926  2.0526
  903MOL0     H21883   8.284  11.809   6.564  1.4974 -0.6009 -1.2294
  903MOL0     H21884   8.449  11.800   6.608 -0.8425  2.8432 -1.2428
  903MOL0     H21885   8.417  11.567   6.671 -0.5156 -0.1931  0.1323
  903MOL0     H21886   8.246  11.576   6.639  0.6400 -0.6167  0.4293
  903MOL0     H21887   8.754  12.339   6.322  0.5428 -0.2624  0.9142
  903MOL0     H21888   8.847  12.458   6.509  0.2807 -3.2471 -0.5714
  903MOL0     H21889   8.829  12.467   6.966  0.6204 -0.3186 -1.5369
  903MOL0     H21890   8.980  12.519   7.166  3.1624  1.0943  1.1392
  903MOL0     H21891   9.651  11.395   7.902 -0.0668 -0.6479  2.5708
  903MOL0     H21892   9.511  11.226   7.842  1.4515  0.0915  1.3422
  903MOL0     H21893   9.089  11.161   7.409 -3.8690  0.8175 -0.7672
  903MOL0     H21894   8.904  11.013   7.379  1.8045  3.5000 -1.1236
  903MOL0     H21895   8.803  10.751   7.711 -1.5905 -1.3808  0.9583
  903MOL0     H21896   8.691  10.880   7.748 -1.4779 -0.4180 -0.7086
  903MOL0     H21897   8.634  10.629   7.670 -4.0203  0.3591  0.6779
  903MOL0     H21898   8.649  10.705   7.504  3.2141 -0.5259  0.3411
  903MOL0     H21899   8.483  10.852   7.516  2.0204 -3.0599 -2.6789
  903MOL0     H21900   8.485  10.840   7.694 -0.6957 -2.2112  0.9814
  903MOL0     H21901   8.288  10.741   7.583 -0.6253 -0.2231 -3.8151
  903MOL0     H21902   8.387  10.604   7.661 -1.1948 -1.2689 -0.2458
  903MOL0     H21903   8.352  10.543   7.238  0.5517 -1.6236 -0.2641
  903MOL0     H21904   8.909  10.933   7.809  1.3697 -1.1786  0.5227
  903MOL0     H21905   9.094  11.074   7.828 -2.0191  1.7154  0.2818
  904MOL0     O21906   9.883   2.963   6.923  0.2282  0.2055  0.1457
  904MOL0     C21907   9.835   2.960   7.039  0.2928  0.3420  0.0388
  904MOL0     O21908   9.903   2.999   7.150  0.1586  1.5216 -0.0581
  904MOL0     C21909  10.034   3.030   7.140  0.2183  0.3969  0.6671
  904MOL0     C21910  10.066   3.163   7.175  0.4682  0.1995 -0.6106
  904MOL0     C21911  10.197   3.209   7.189 -0.5030 -1.0445  0.0049
  904MOL0     C21912  10.307   3.132   7.130 -0.2472  1.2569  0.8479
  904MOL0     O21913  10.440   3.167   7.123 -0.3619  0.5524 -0.0551
  904MOL0     C21914  10.477   3.293   7.192  0.3796  0.0721  0.2188
  904MOL0     C21915  10.626   3.305   7.202 -0.5192  0.8526  0.3450
  904MOL0     C21916  10.695   3.298   7.064 -0.2005  0.4376 -0.1268
  904MOL0     C21917  10.832   3.357   7.084  0.0643  0.1916  0.6448
  904MOL0     C21918  10.927   3.336   6.956 -0.5365  0.2522 -0.0164
  904MOL0     C21919  11.055   3.415   6.988 -0.2265 -0.2302  0.3821
  904MOL0     C21920  11.136   3.443   6.862  0.9582 -0.5163  1.3847
  904MOL0     C21921  11.202   3.321   6.796 -0.2385 -0.6512 -0.4807
  904MOL0     N21922  11.292   3.362   6.691  0.1691  0.1492  1.0632
  904MOL0     C21923  11.404   3.438   6.693 -1.3122 -0.0046 -0.0459
  904MOL0     C21924  11.459   3.440   6.564  0.7200  1.1146 -0.0165
  904MOL0     C21925  11.580   3.506   6.497  0.6285  0.3655  1.4040
  904MOL0     C21926  11.629   3.444   6.366 -0.5224  0.0819  0.6452
  904MOL0     C21927  11.736   3.525   6.298 -0.3861  0.5683 -0.8004
  904MOL0     C21928  11.688   3.668   6.264  0.0884 -1.2416  0.0853
  904MOL0     O21929  11.744   3.773   6.354  0.5570  0.0754  0.1423
  904MOL0     C21930  11.683   3.901   6.342 -0.1900 -0.6338  0.3641
  904MOL0     C21931  11.638   3.964   6.225  0.0052  0.5626  0.4327
  904MOL0     C21932  11.585   4.095   6.224  0.4192 -0.2368 -0.5534
  904MOL0     C21933  11.554   4.158   6.087  0.4581  0.1428 -0.7379
  904MOL0     C21934  11.578   4.166   6.346  0.4205  0.0536  0.3330
  904MOL0     C21935  11.497   4.296   6.361 -0.1089  0.0427  0.0458
  904MOL0     O21936  11.412   4.329   6.256 -1.0432 -0.4414 -0.6535
  904MOL0     C21937  11.338   4.445   6.258 -0.1742  0.6715  0.6178
  904MOL0     C21938  11.222   4.466   6.340  0.3213 -0.2451 -0.5396
  904MOL0     C21939  11.153   4.584   6.338 -1.0484  0.0316 -0.8239
  904MOL0     C21940  11.195   4.686   6.253  0.4772  0.3231 -0.1344
  904MOL0     O21941  11.121   4.800   6.241  0.1565 -0.1495  0.6104
  904MOL0     C21942  10.991   4.790   6.182 -0.7117  0.2324  0.0671
  904MOL0     C21943  10.885   4.748   6.293 -0.3841 -0.7295 -0.6753
  904MOL0     C21944  10.754   4.827   6.288  0.1016 -0.1520  0.6339
  904MOL0     C21945  10.784   4.973   6.324  0.6750 -1.0287  0.1120
  904MOL0     C21946  10.661   5.053   6.376 -0.2358  0.3231 -0.4107
  904MOL0     C21947  10.531   5.046   6.294  0.1556 -0.6231 -0.0398
  904MOL0     C21948  10.553   5.057   6.140 -0.2137  0.5714  0.7105
  904MOL0     C21949  10.431   5.038   6.056  0.7123 -0.4388  0.5801
  904MOL0    Cl21950  10.362   4.877   6.102  0.2128  0.4107 -0.0841
  904MOL0     C21951  11.306   4.668   6.173 -0.0990  0.1126  0.3065
  904MOL0     C21952  11.383   4.547   6.185 -0.0460 -0.7418 -0.0046
  904MOL0     O21953  11.516   4.371   6.462  0.4406 -0.5597 -0.0067
  904MOL0     C21954  11.628   4.110   6.456 -0.1967  0.1445  0.9473
  904MOL0     C21955  11.677   3.979   6.446  0.3064  0.4836 -0.5476
  904MOL0     N21956  11.367   3.368   6.490  0.4357 -0.8376 -0.3856
  904MOL0     N21957  11.266   3.324   6.559 -0.9809 -0.2302 -0.0685
  904MOL0     C21958  10.271   3.010   7.075 -0.2803  0.6209  0.3484
  904MOL0     C21959  10.139   2.958   7.078 -0.9245 -1.1171  0.3791
  904MOL0     C21960   9.690   2.922   7.070  0.1272  0.1602  1.4052
  904MOL0     C21961   9.640   2.959   7.197  0.1812 -0.1179  0.3007
  904MOL0     C21962   9.506   2.928   7.218  0.7631  0.3389  0.6712
  904MOL0     C21963   9.419   2.873   7.117 -0.9515 -0.8874  0.8066
  904MOL0     O21964   9.285   2.874   7.123  0.2667 -0.4307  0.3584
  904MOL0     C21965   9.232   2.963   7.225 -0.6757 -0.2633  0.0555
  904MOL0     C21966   9.091   2.987   7.193  0.3043 -0.4467 -0.5812
  904MOL0     C21967   9.035   3.080   7.307  0.2204 -0.3364  0.4369
  904MOL0     C21968   8.875   3.088   7.329 -1.2263 -0.0888  0.5104
  904MOL0     C21969   8.810   3.100   7.198 -0.3671  0.5434 -0.0272
  904MOL0     C21970   8.744   3.107   7.097  0.2416  0.2637  0.2616
  904MOL0     C21971   9.473   2.848   6.994 -1.1501 -0.7391 -0.6444
  904MOL0     C21972   9.606   2.876   6.967 -0.3929  0.1277  0.1031
  904MOL0     H21973   9.991   3.230   7.215 -0.1630  0.5247 -2.2727
  904MOL0     H21974  10.214   3.308   7.229  2.2388 -0.7499 -1.6186
  904MOL0     H21975  10.427   3.376   7.142 -0.8563 -1.3889 -1.0989
  904MOL0     H21976  10.439   3.289   7.294 -0.6368 -0.9970 -0.1755
  904MOL0     H21977  10.649   3.401   7.248  0.2400  1.5109 -1.3442
  904MOL0     H21978  10.659   3.231   7.276 -1.4099 -2.3495 -2.1988
  904MOL0     H21979  10.704   3.194   7.031  0.5319  0.0596  1.1988
  904MOL0     H21980  10.635   3.356   6.993  1.3013  1.5094 -0.5748
  904MOL0     H21981  10.810   3.463   7.098 -2.3431 -0.2709  0.7089
  904MOL0     H21982  10.885   3.329   7.175 -2.7339 -1.6541  1.8050
  904MOL0     H21983  10.952   3.229   6.951  1.8316  0.7862 -0.5515
  904MOL0     H21984  10.872   3.371   6.868 -0.2015  2.4285  0.5779
  904MOL0     H21985  11.024   3.499   7.051 -2.3651 -2.0882  1.9667
  904MOL0     H21986  11.119   3.356   7.054 -2.3168 -1.7157  1.2155
  904MOL0     H21987  11.072   3.480   6.781  4.0144  0.4945 -0.7151
  904MOL0     H21988  11.219   3.510   6.885 -1.0346  1.7471  2.4228
  904MOL0     H21989  11.127   3.251   6.760  0.2627 -2.3496  1.5873
  904MOL0     H21990  11.270   3.271   6.865 -0.3972  0.9966  0.9426
  904MOL0     H21991  11.448   3.484   6.781  1.9390  0.0996 -1.5847
  904MOL0     H21992  11.570   3.614   6.483 -2.6580  0.3754  3.0255
  904MOL0     H21993  11.665   3.499   6.566  2.0100 -3.6767 -0.3425
  904MOL0     H21994  11.547   3.432   6.294  1.6481 -1.5882 -1.7425
  904MOL0     H21995  11.676   3.348   6.389  1.5934  1.0724  0.7237
  904MOL0     H21996  11.778   3.470   6.214 -0.1998 -3.2045  1.5418
  904MOL0     H21997  11.819   3.528   6.369 -1.5164 -0.7709  0.6624
  904MOL0     H21998  11.581   3.686   6.269  0.2905 -0.3031  1.2033
  904MOL0     H21999  11.722   3.683   6.161  0.6203  2.1056  0.6587
  904MOL0     H22000  11.654   3.914   6.131  1.4160 -0.9456  1.4178
  904MOL0     H22001  11.446   4.149   6.074  0.3635 -2.1956  1.2237
  904MOL0     H22002  11.586   4.262   6.071  0.5767  0.2937  0.4245
  904MOL0     H22003  11.601   4.096   6.010 -2.5364 -2.0394 -0.9479
  904MOL0     H22004  11.185   4.384   6.401 -0.1086  0.9929  0.9352
  904MOL0     H22005  11.059   4.585   6.393 -0.4142 -0.5402  0.2958
  904MOL0     H22006  10.964   4.885   6.135  1.2153  0.3083 -0.9921
  904MOL0     H22007  10.996   4.716   6.102 -0.5638 -2.3487  2.3134
  904MOL0     H22008  10.863   4.643   6.276 -0.2641 -0.6863 -1.1051
  904MOL0     H22009  10.921   4.757   6.396 -3.1312 -0.1317  0.3252
  904MOL0     H22010  10.677   4.786   6.355  1.4443  0.4209  2.6133
  904MOL0     H22011  10.717   4.832   6.185  0.6159  2.1722  0.5018
  904MOL0     H22012  10.853   4.975   6.408  0.5849 -0.8863  0.1826
  904MOL0     H22013  10.826   5.033   6.242 -2.9532  1.4475 -0.1819
  904MOL0     H22014  10.702   5.154   6.372 -0.6576  0.5411  0.4866
  904MOL0     H22015  10.648   5.044   6.485 -0.3194  4.2360  0.0552
  904MOL0     H22016  10.489   4.948   6.319  2.5972 -1.4886  0.9069
  904MOL0     H22017  10.457   5.119   6.327 -0.8341 -0.7152 -1.9199
  904MOL0     H22018  10.627   4.990   6.094 -1.6588  1.2734 -2.9495
  904MOL0     H22019  10.600   5.156   6.131  1.7492 -0.4071 -0.5690
  904MOL0     H22020  10.452   5.056   5.950 -0.1051  0.6971  0.6029
  904MOL0     H22021  10.372   5.122   6.093 -0.2387 -1.1232  0.6392
  904MOL0     H22022  11.355   4.752   6.126 -1.3651  0.4110 -0.5036
  904MOL0     H22023  11.480   4.536   6.138 -0.4621 -0.2785 -0.9940
  904MOL0     H22024  11.632   4.150   6.556 -0.1137  0.1529  0.9403
  904MOL0     H22025  11.726   3.955   6.540  0.7508  1.2297 -0.5731
  904MOL0     H22026  10.343   2.950   7.021 -2.1807 -2.0491  0.6074
  904MOL0     H22027  10.127   2.859   7.035  1.1057 -0.3937 -2.0973
  904MOL0     H22028   9.707   3.002   7.270  1.5389 -1.9562  0.2023
  904MOL0     H22029   9.458   2.948   7.313 -1.7838 -0.8924 -0.2764
  904MOL0     H22030   9.238   2.912   7.321 -0.2025 -0.3896 -0.0434
  904MOL0     H22031   9.280   3.061   7.233 -2.9314  0.8587  0.7421
  904MOL0     H22032   9.034   2.894   7.198  1.3608 -1.0257  3.2427
  904MOL0     H22033   9.079   3.026   7.091  0.5488  3.1103  0.6193
  904MOL0     H22034   9.073   3.177   7.274  0.4159  0.5976  3.1461
  904MOL0     H22035   9.074   3.051   7.405 -2.1739 -1.3433  1.1666
  904MOL0     H22036   8.838   3.168   7.394 -1.4208 -0.5888  1.0317
  904MOL0     H22037   8.859   2.990   7.377  2.6420 -0.0096  2.3511
  904MOL0     H22038   8.679   3.112   7.012 -1.6744 -1.0044  1.5874
  904MOL0     H22039   9.396   2.822   6.922 -1.3977  2.6200 -1.7855
  904MOL0     H22040   9.640   2.862   6.865  1.1249 -3.9860  0.9747
  905MOL0     O22041  10.022   8.346   9.836 -0.4626 -0.6685 -0.3216
  905MOL0     C22042  10.120   8.336   9.769  0.7647 -0.2480  0.5061
  905MOL0     O22043  10.182   8.436   9.716 -0.7804 -0.0986 -0.0184
  905MOL0     C22044  10.105   8.546   9.689  0.1835  0.2288  0.2342
  905MOL0     C22045  10.106   8.583   9.550  0.0350  0.4793 -0.5289
  905MOL0     C22046  10.012   8.685   9.505 -0.1340  0.2656  0.2091
  905MOL0     C22047   9.938   8.753   9.597  0.4866 -0.1833 -0.6972
  905MOL0     O22048   9.875   8.866   9.562 -0.2711 -0.5370 -0.7066
  905MOL0     C22049   9.750   8.897   9.614 -0.0272  0.4690 -0.6846
  905MOL0     C22050   9.684   9.014   9.537 -0.4172  0.7047 -1.1511
  905MOL0     C22051   9.606   8.981   9.406 -0.2661  0.3129  0.0635
  905MOL0     C22052   9.710   8.954   9.280  0.1011 -0.7901  0.1092
  905MOL0     C22053   9.632   8.876   9.170  0.5395  0.3550 -0.2850
  905MOL0     C22054   9.720   8.851   9.048  0.6695 -0.5535 -1.0458
  905MOL0     C22055   9.638   8.815   8.920  0.4423 -0.0454  0.1271
  905MOL0     C22056   9.730   8.734   8.823  0.5097  0.7889  0.2497
  905MOL0     N22057   9.666   8.716   8.691 -0.6498 -0.0268 -1.5369
  905MOL0     C22058   9.725   8.718   8.569 -0.9314  0.4532 -0.5935
  905MOL0     C22059   9.619   8.704   8.477 -0.8485  0.5474 -0.0845
  905MOL0     C22060   9.654   8.679   8.328  0.5596  1.3219  0.4622
  905MOL0     C22061   9.554   8.581   8.267  0.7967  0.2764  0.0927
  905MOL0     C22062   9.540   8.582   8.111  0.0935  0.9395 -0.9537
  905MOL0     C22063   9.446   8.680   8.057 -0.1457 -0.3095 -0.1925
  905MOL0     O22064   9.361   8.756   8.149  0.1891 -0.0775  0.4365
  905MOL0     C22065   9.245   8.826   8.101 -0.6557  0.7184  0.0555
  905MOL0     C22066   9.242   8.886   7.971  0.4407 -0.7465  0.5059
  905MOL0     C22067   9.132   8.967   7.932  0.0251  0.9230  0.3916
  905MOL0     C22068   9.146   9.023   7.790 -0.1000 -0.8829 -0.4612
  905MOL0     C22069   9.023   8.991   8.017  0.5004  0.4505 -0.2647
  905MOL0     C22070   8.902   9.081   7.984  0.4289  0.6086 -0.4805
  905MOL0     O22071   8.826   9.125   8.096  0.3881 -0.3363  0.2678
  905MOL0     C22072   8.746   9.227   8.082  0.0876 -0.3544 -0.9265
  905MOL0     C22073   8.616   9.222   8.132 -0.4633  0.1080  0.3831
  905MOL0     C22074   8.517   9.318   8.111 -0.7413  1.0391  1.1269
  905MOL0     C22075   8.551   9.429   8.026  0.5164 -0.1769 -0.0637
  905MOL0     O22076   8.481   9.549   8.011 -0.5070 -0.4421  0.6510
  905MOL0     C22077   8.343   9.543   8.014  0.3774 -0.0639  0.4618
  905MOL0     C22078   8.290   9.675   7.982 -0.1735 -0.3519  0.8083
  905MOL0     C22079   8.297   9.713   7.832  0.4512  0.1805 -0.2569
  905MOL0     C22080   8.190   9.633   7.747 -0.7197  0.0612  0.8844
  905MOL0     C22081   8.171   9.690   7.606  0.0148  0.7216  0.3003
  905MOL0     C22082   8.291   9.663   7.506 -0.2839  0.9870  0.0414
  905MOL0     C22083   8.362   9.528   7.516  0.9361  0.1085  0.4454
  905MOL0     C22084   8.268   9.403   7.494 -0.6535 -0.2973 -0.5304
  905MOL0    Cl22085   8.201   9.413   7.334 -0.0152 -0.3610 -0.0025
  905MOL0     C22086   8.685   9.434   7.979  0.3524 -0.3991 -0.8346
  905MOL0     C22087   8.781   9.338   8.004 -0.4858 -0.8048  0.5169
  905MOL0     O22088   8.873   9.089   7.870 -0.0104  0.2053 -0.0484
  905MOL0     C22089   9.028   8.936   8.143  0.1583  0.2158 -0.4381
  905MOL0     C22090   9.140   8.859   8.185  0.2699 -0.0907  0.0298
  905MOL0     N22091   9.501   8.708   8.538 -0.1410 -0.2162 -0.5042
  905MOL0     N22092   9.537   8.687   8.663 -0.2141 -0.2118 -0.4789
  905MOL0     C22093   9.948   8.721   9.735 -0.5439 -0.1898 -0.0607
  905MOL0     C22094  10.037   8.626   9.781 -0.2561 -0.6768 -0.2943
  905MOL0     C22095  10.179   8.204   9.740  1.2171  0.2939  1.1662
  905MOL0     C22096  10.134   8.091   9.808 -0.6344 -0.1918  0.5976
  905MOL0     C22097  10.201   7.966   9.789 -0.7504  0.5760 -0.4179
  905MOL0     C22098  10.315   7.950   9.707 -0.5691 -1.0578 -0.4856
  905MOL0     O22099  10.381   7.836   9.681  0.8625  0.5419 -0.6856
  905MOL0     C22100  10.371   7.735   9.767  0.2095 -0.1557  0.3513
  905MOL0     C22101  10.472   7.636   9.720  0.1952 -0.1475 -0.1525
  905MOL0     C22102  10.457   7.511   9.795 -0.3342 -0.2044  0.4984
  905MOL0     C22103  10.567   7.408   9.776  0.0348  1.1678 -0.0984
  905MOL0     C22104  10.706   7.443   9.817  0.0930 -1.0354 -0.3420
  905MOL0     C22105  10.815   7.455   9.863 -0.9118 -0.1598 -0.3944
  905MOL0     C22106  10.356   8.072   9.647 -0.3736  0.2969 -0.0133
  905MOL0     C22107  10.281   8.190   9.644 -0.4426 -1.0512 -0.0090
  905MOL0     H22108  10.163   8.532   9.474  3.8859  0.3175  2.1876
  905MOL0     H22109  10.022   8.713   9.400 -1.4276  1.1228  0.2959
  905MOL0     H22110   9.676   8.816   9.612 -0.0198  0.4551 -2.9067
  905MOL0     H22111   9.769   8.933   9.716 -2.8757 -2.3470  1.0622
  905MOL0     H22112   9.622   9.073   9.605  1.3776  2.4816 -0.9303
  905MOL0     H22113   9.774   9.074   9.518  1.3341 -1.5657 -0.4390
  905MOL0     H22114   9.530   8.902   9.417 -0.8436  0.8525  0.0275
  905MOL0     H22115   9.551   9.075   9.393 -1.4300 -0.2287  0.8511
  905MOL0     H22116   9.744   9.048   9.236  2.7766 -0.9553  1.6154
  905MOL0     H22117   9.790   8.886   9.310 -0.1408  0.9345  5.8948
  905MOL0     H22118   9.586   8.783   9.202  1.3745  0.6005  1.7681
  905MOL0     H22119   9.541   8.931   9.143  0.4186  0.7373  0.8554
  905MOL0     H22120   9.766   8.947   9.024  2.0666 -0.8742  0.1855
  905MOL0     H22121   9.795   8.783   9.091 -1.0384 -0.6571  2.0908
  905MOL0     H22122   9.550   8.753   8.943 -0.0164 -0.7036 -2.9132
  905MOL0     H22123   9.602   8.910   8.881 -1.7224 -0.6360  0.5093
  905MOL0     H22124   9.753   8.641   8.877  0.3390  0.8536  0.4392
  905MOL0     H22125   9.830   8.778   8.816  0.6802  0.2364 -0.9604
  905MOL0     H22126   9.833   8.717   8.571 -0.9365  0.3610 -0.3140
  905MOL0     H22127   9.644   8.778   8.283  0.3324  1.2689  0.3940
  905MOL0     H22128   9.754   8.641   8.304 -0.8954 -3.6704  1.1665
  905MOL0     H22129   9.457   8.602   8.312  0.7078 -1.6938  0.9484
  905MOL0     H22130   9.601   8.489   8.305  0.8693  0.3534  0.1880
  905MOL0     H22131   9.501   8.484   8.084  0.0992  0.6676 -0.0039
  905MOL0     H22132   9.636   8.594   8.059 -1.0382 -0.2574 -3.4818
  905MOL0     H22133   9.376   8.637   7.985 -0.1317  1.2383 -1.1759
  905MOL0     H22134   9.516   8.747   8.006  1.8809 -1.7843  0.5252
  905MOL0     H22135   9.329   8.871   7.907  2.1176  1.4163  2.1325
  905MOL0     H22136   9.112   8.956   7.710 -0.5092 -0.0068 -1.0511
  905MOL0     H22137   9.087   9.116   7.784 -0.9159 -1.1536  2.2733
  905MOL0     H22138   9.246   9.061   7.768  0.4816 -1.7106  0.7112
  905MOL0     H22139   8.605   9.130   8.189  2.5919 -0.7368 -0.2406
  905MOL0     H22140   8.422   9.290   8.157 -0.3767 -1.0288  0.7042
  905MOL0     H22141   8.307   9.463   7.949 -0.7581  0.7904 -0.0133
  905MOL0     H22142   8.309   9.517   8.115 -2.4138  3.2742  0.5861
  905MOL0     H22143   8.185   9.694   8.007 -0.3163  0.7457 -0.5214
  905MOL0     H22144   8.345   9.747   8.045  0.5477  0.1352 -0.3531
  905MOL0     H22145   8.398   9.702   7.792  1.7092  5.1495  0.8808
  905MOL0     H22146   8.263   9.817   7.829 -0.4504 -0.1292 -2.7309
  905MOL0     H22147   8.203   9.525   7.745 -0.0966  0.1468 -0.2499
  905MOL0     H22148   8.087   9.637   7.786 -1.0201  3.0648  0.0443
  905MOL0     H22149   8.136   9.793   7.608  1.5904  1.3071 -0.1719
  905MOL0     H22150   8.091   9.629   7.565  2.2528 -1.8665 -0.5468
  905MOL0     H22151   8.243   9.682   7.409 -4.0955  1.2814  1.8320
  905MOL0     H22152   8.362   9.745   7.521  2.5224 -0.7644 -2.4522
  905MOL0     H22153   8.413   9.514   7.612 -3.1489 -2.2617  2.5571
  905MOL0     H22154   8.443   9.525   7.442  1.8705 -1.2824  1.4752
  905MOL0     H22155   8.197   9.376   7.573 -1.8137 -2.7426 -2.3027
  905MOL0     H22156   8.341   9.323   7.507  0.4299  1.0922  4.3512
  905MOL0     H22157   8.706   9.521   7.917 -1.3859  0.7348  0.0719
  905MOL0     H22158   8.884   9.344   7.970 -0.1294 -1.2651  1.4972
  905MOL0     H22159   8.964   8.958   8.227  1.7022 -3.6960  2.0377
  905MOL0     H22160   9.134   8.822   8.287  0.1557 -1.5384 -0.4824
  905MOL0     H22161   9.897   8.781   9.809 -0.4051 -1.4753  1.1125
  905MOL0     H22162  10.051   8.610   9.887  1.6434 -0.4762 -0.4848
  905MOL0     H22163  10.060   8.098   9.887 -0.7669 -1.5143  0.6222
  905MOL0     H22164  10.167   7.888   9.857 -1.3573  0.0517 -1.3088
  905MOL0     H22165  10.410   7.785   9.856  0.8988  3.8031 -1.8966
  905MOL0     H22166  10.270   7.697   9.780  0.1179  0.9152  3.8199
  905MOL0     H22167  10.572   7.674   9.739 -0.8762  1.6653  2.3595
  905MOL0     H22168  10.448   7.610   9.616 -0.5064 -0.9572  0.1966
  905MOL0     H22169  10.369   7.459   9.755 -0.9409  1.0290  0.1899
  905MOL0     H22170  10.460   7.537   9.901 -1.9429  0.0330  0.5019
  905MOL0     H22171  10.567   7.397   9.667 -0.8413  1.0493 -0.0867
  905MOL0     H22172  10.543   7.311   9.820 -1.5894  0.0123 -3.2424
  905MOL0     H22173  10.913   7.458   9.907 -1.3270 -1.6299  0.7158
  905MOL0     H22174  10.447   8.056   9.591 -0.1565 -0.8327  0.6324
  905MOL0     H22175  10.314   8.269   9.577 -0.3855 -1.1116 -0.0519
  906MOL0     O22176   3.637  10.910   9.373 -0.5853  0.2625  0.4095
  906MOL0     C22177   3.731  10.907   9.292  0.4195  0.5429  0.4682
  906MOL0     O22178   3.795  11.014   9.238  0.7336 -0.1108 -0.5669
  906MOL0     C22179   3.745  11.140   9.272 -0.0703 -0.1450 -0.1586
  906MOL0     C22180   3.655  11.212   9.184  0.2438  0.5386  0.0969
  906MOL0     C22181   3.603  11.334   9.230 -0.8575 -0.2089  0.3501
  906MOL0     C22182   3.626  11.382   9.363  0.7254  0.6234  1.4286
  906MOL0     O22183   3.572  11.491   9.425 -0.5534 -1.0596 -0.3482
  906MOL0     C22184   3.497  11.580   9.345 -0.4006 -0.6930  0.3160
  906MOL0     C22185   3.439  11.693   9.425 -0.8613  0.3302 -0.2570
  906MOL0     C22186   3.336  11.775   9.355  0.7397 -0.1571  0.1501
  906MOL0     C22187   3.284  11.886   9.450  0.6399  0.6153 -0.1569
  906MOL0     C22188   3.139  11.932   9.411  0.0871  0.1557  0.3122
  906MOL0     C22189   3.083  12.032   9.506 -0.3931 -0.1970  1.0550
  906MOL0     C22190   3.134  12.169   9.478 -0.2348 -0.0214  0.4079
  906MOL0     C22191   3.051  12.273   9.556  0.3389 -0.1006 -0.5013
  906MOL0     N22192   3.081  12.273   9.702 -0.3869  0.3666  0.9321
  906MOL0     C22193   3.007  12.203   9.791 -0.3353 -1.1019  0.5929
  906MOL0     C22194   3.090  12.211   9.905 -0.3641 -0.3070 -0.1222
  906MOL0     C22195   3.065  12.146  10.029  0.0754  0.0336 -0.4479
  906MOL0     C22196   3.157  12.017  10.067  1.3375  0.7149  0.7052
  906MOL0     C22197   3.137  11.899   9.964  0.7760 -0.4630 -0.2774
  906MOL0     C22198   3.011  11.815   9.971  0.1653  0.7245 -0.2009
  906MOL0     O22199   3.024  11.738   9.857  0.2623  0.4393  0.5264
  906MOL0     C22200   2.924  11.678   9.796  0.3919 -0.4705  0.3686
  906MOL0     C22201   2.957  11.610   9.676 -0.8243 -0.1360 -1.2442
  906MOL0     C22202   2.872  11.523   9.609 -0.3744 -0.2298 -0.1200
  906MOL0     C22203   2.922  11.460   9.489 -0.0277  1.1823 -0.5836
  906MOL0     C22204   2.743  11.505   9.664  0.8624 -0.2886  0.9284
  906MOL0     C22205   2.642  11.421   9.594 -0.3292  0.4131 -0.5215
  906MOL0     O22206   2.638  11.438   9.455 -0.3378  0.3503 -0.2939
  906MOL0     C22207   2.551  11.361   9.371 -0.5057 -1.0142 -0.0450
  906MOL0     C22208   2.431  11.299   9.411  0.9650  0.1677  0.6453
  906MOL0     C22209   2.346  11.233   9.319  0.2769  0.5870 -0.0961
  906MOL0     C22210   2.384  11.241   9.189 -0.2842  0.0156  0.5693
  906MOL0     O22211   2.302  11.167   9.109 -0.5010 -0.1359 -0.5615
  906MOL0     C22212   2.286  11.209   8.964 -0.1198 -0.6447  0.1689
  906MOL0     C22213   2.140  11.220   8.921 -0.2469 -0.2694  0.0012
  906MOL0     C22214   2.075  11.077   8.917 -0.1124  0.3034 -0.3804
  906MOL0     C22215   1.938  11.080   8.846 -0.2278 -0.0574 -1.1304
  906MOL0     C22216   1.869  10.948   8.843  0.0575  0.7111  0.7485
  906MOL0     C22217   1.727  10.939   8.883  0.1886 -1.2915  0.0152
  906MOL0     C22218   1.636  10.973   8.770  1.8039 -0.4471 -0.3812
  906MOL0     C22219   1.485  10.965   8.831  0.0213  0.6310  0.3605
  906MOL0    Cl22220   1.443  11.120   8.917  0.2809  0.1410 -0.1918
  906MOL0     C22221   2.506  11.298   9.144  0.8140  0.0015 -0.0376
  906MOL0     C22222   2.588  11.364   9.231 -0.0889 -0.5082 -0.8808
  906MOL0     O22223   2.573  11.347   9.665 -0.4699 -0.8771 -0.4323
  906MOL0     C22224   2.704  11.572   9.786 -0.1868 -0.2492  0.8712
  906MOL0     C22225   2.795  11.664   9.837  0.0065  0.0387  0.6448
  906MOL0     N22226   3.208  12.276   9.878  0.6345 -0.2739  0.0932
  906MOL0     N22227   3.202  12.314   9.757  0.2077 -0.3189  0.0729
  906MOL0     C22228   3.703  11.304   9.450 -0.1351  0.7244  0.1908
  906MOL0     C22229   3.768  11.197   9.402 -0.3436  1.1871 -0.6777
  906MOL0     C22230   3.786  10.775   9.273 -0.9312 -0.1073  1.0738
  906MOL0     C22231   3.855  10.738   9.160 -0.8605  1.0615  1.4460
  906MOL0     C22232   3.903  10.604   9.137  0.5572  0.4127 -0.6806
  906MOL0     C22233   3.870  10.504   9.239  0.0848 -0.3872  0.2884
  906MOL0     O22234   3.915  10.376   9.213  0.3414  0.3267  0.4439
  906MOL0     C22235   3.887  10.279   9.320  0.2887  0.3775 -0.3167
  906MOL0     C22236   3.976  10.154   9.284 -0.1761 -1.3468 -0.2871
  906MOL0     C22237   3.912  10.070   9.171  0.3107  0.7010 -0.3037
  906MOL0     C22238   3.991   9.942   9.141 -0.5359  0.5179  1.0558
  906MOL0     C22239   4.006   9.843   9.241  0.1634  0.1761 -1.2125
  906MOL0     C22240   4.016   9.754   9.316 -0.1823  0.1011  0.3575
  906MOL0     C22241   3.807  10.552   9.352 -0.2493 -0.0327 -0.1712
  906MOL0     C22242   3.760  10.678   9.369 -0.8362 -0.0869 -0.3733
  906MOL0     H22243   3.611  11.158   9.101 -4.3401  1.1875  1.7835
  906MOL0     H22244   3.540  11.386   9.158  1.3369  1.7543 -0.2775
  906MOL0     H22245   3.561  11.616   9.264  0.2686 -2.3897  0.0354
  906MOL0     H22246   3.418  11.519   9.300 -0.1351 -1.6519  1.1159
  906MOL0     H22247   3.402  11.645   9.517  0.4428  1.1563  0.7367
  906MOL0     H22248   3.517  11.765   9.451 -0.1134 -0.8286  0.8953
  906MOL0     H22249   3.368  11.826   9.264  0.0241 -1.2728 -0.7656
  906MOL0     H22250   3.250  11.710   9.333  0.5630 -0.7001  2.2116
  906MOL0     H22251   3.275  11.850   9.553  0.5464  1.6517  0.2093
  906MOL0     H22252   3.368  11.956   9.444  0.0432  1.3096 -0.4772
  906MOL0     H22253   3.132  11.967   9.307 -1.3603 -0.8108  0.0420
  906MOL0     H22254   3.075  11.843   9.415  0.3537 -0.0081  1.0837
  906MOL0     H22255   2.975  12.036   9.487 -0.2588  2.2384  0.4340
  906MOL0     H22256   3.105  12.002   9.609 -0.1099  0.5812  1.2291
  906MOL0     H22257   3.241  12.184   9.492 -0.4833  1.1583  1.2540
  906MOL0     H22258   3.105  12.182   9.373  1.0047  0.3941  0.0946
  906MOL0     H22259   2.945  12.249   9.546  0.4233 -0.2350 -1.0926
  906MOL0     H22260   3.070  12.375   9.522  0.0077  0.5359  1.1464
  906MOL0     H22261   2.914  12.147   9.788  0.2658 -2.1086 -0.3134
  906MOL0     H22262   3.088  12.217  10.109 -1.7210  1.8018 -1.4183
  906MOL0     H22263   2.960  12.116  10.033 -0.0644  0.5817  0.1138
  906MOL0     H22264   3.145  11.976  10.168  2.9329  1.8695  1.4056
  906MOL0     H22265   3.259  12.054  10.066  1.3148  0.9192  2.5560
  906MOL0     H22266   3.223  11.832   9.977  0.5114 -0.5611  1.1450
  906MOL0     H22267   3.145  11.946   9.865 -0.9728 -5.7064 -3.3229
  906MOL0     H22268   2.925  11.880   9.983  1.2146  1.6964  3.0547
  906MOL0     H22269   3.014  11.750  10.059  0.5820 -0.9915 -1.4178
  906MOL0     H22270   3.055  11.630   9.634 -0.8923 -1.9786 -2.3994
  906MOL0     H22271   2.892  11.355   9.488 -1.4789  1.5705 -0.7737
  906MOL0     H22272   2.882  11.516   9.404 -0.5615 -0.0888 -1.1900
  906MOL0     H22273   3.031  11.453   9.486  0.0299  0.0579  1.8476
  906MOL0     H22274   2.399  11.301   9.515 -0.6537 -1.2067  0.2204
  906MOL0     H22275   2.260  11.172   9.345  0.4426 -0.1236 -1.1420
  906MOL0     H22276   2.322  11.307   8.932 -3.8222  0.3349 -1.5540
  906MOL0     H22277   2.333  11.129   8.907  0.3960 -0.8918  0.9167
  906MOL0     H22278   2.079  11.284   8.986 -2.1263 -0.6430 -1.2987
  906MOL0     H22279   2.143  11.259   8.819 -0.3766 -0.4420 -0.0696
  906MOL0     H22280   2.064  11.047   9.022  2.5276  2.0365  0.4782
  906MOL0     H22281   2.139  11.005   8.865  2.2135  0.9966  1.3259
  906MOL0     H22282   1.872  11.160   8.881 -0.5196 -1.1164  0.8693
  906MOL0     H22283   1.966  11.101   8.743  0.0661  0.5727 -0.9220
  906MOL0     H22284   1.917  10.879   8.913 -0.9362 -0.9623 -0.1409
  906MOL0     H22285   1.869  10.906   8.742 -0.1282  0.6603  0.7691
  906MOL0     H22286   1.706  10.835   8.910 -2.4537 -0.5572  1.0952
  906MOL0     H22287   1.709  11.006   8.967  2.2403  2.5163 -2.2886
  906MOL0     H22288   1.643  10.899   8.690  1.0455 -0.2889 -0.6036
  906MOL0     H22289   1.649  11.069   8.719 -2.1783 -0.2208 -1.3603
  906MOL0     H22290   1.469  10.879   8.898 -6.1900 -0.5417 -1.9499
  906MOL0     H22291   1.412  10.964   8.750 -0.7459  1.0061  1.0367
  906MOL0     H22292   2.530  11.268   9.042  0.4417 -2.2415  0.4956
  906MOL0     H22293   2.671  11.418   9.188  0.2652  0.7227  1.2058
  906MOL0     H22294   2.602  11.570   9.822 -1.2571  4.7933 -1.0093
  906MOL0     H22295   2.759  11.711   9.928 -1.8758 -0.5860  0.2733
  906MOL0     H22296   3.715  11.336   9.553 -0.8601  1.7658 -0.0309
  906MOL0     H22297   3.834  11.146   9.472 -1.3643  1.8368  0.8213
  906MOL0     H22298   3.842  10.804   9.075  0.4142 -0.3446  0.0980
  906MOL0     H22299   3.969  10.584   9.053  4.2141 -0.5773  2.1961
  906MOL0     H22300   3.922  10.307   9.419 -0.9288 -2.8980  1.1819
  906MOL0     H22301   3.781  10.253   9.321  0.1841  0.7859  1.1170
  906MOL0     H22302   3.990  10.105   9.381 -2.0562 -0.4410  0.4872
  906MOL0     H22303   4.082  10.177   9.266  1.2365 -4.5135  2.7506
  906MOL0     H22304   3.920  10.117   9.072  2.6573 -0.8236 -0.9224
  906MOL0     H22305   3.809  10.040   9.190  0.6505 -0.0644  0.3810
  906MOL0     H22306   4.092   9.965   9.107 -2.2608  2.9618 -3.1930
  906MOL0     H22307   3.936   9.898   9.058 -3.2528  1.3319  2.2977
  906MOL0     H22308   4.033   9.663   9.370  1.0736  0.3888  0.4727
  906MOL0     H22309   3.779  10.480   9.429 -2.5612  0.1463 -0.7679
  906MOL0     H22310   3.702  10.689   9.460 -0.9496 -2.8480 -0.0277
  907MOL0     O22311  10.674  11.233   9.482 -0.1123 -0.3510 -0.0384
  907MOL0     C22312  10.736  11.153   9.557  0.6477 -0.0025 -0.1268
  907MOL0     O22313  10.766  11.026   9.511  0.3128 -1.2338 -0.1094
  907MOL0     C22314  10.666  10.957   9.435  0.8423  0.0377  0.1831
  907MOL0     C22315  10.533  10.968   9.461  0.0177  0.6830 -0.5882
  907MOL0     C22316  10.430  10.913   9.385 -0.5682  0.5844  0.0072
  907MOL0     C22317  10.466  10.837   9.270  0.6849  0.6409 -0.8278
  907MOL0     O22318  10.367  10.785   9.195  0.1468 -0.4432  0.1060
  907MOL0     C22319  10.393  10.773   9.048 -0.9231  0.2058 -0.2248
  907MOL0     C22320  10.275  10.750   8.952  0.8422 -0.2447  0.0569
  907MOL0     C22321  10.171  10.667   9.032 -0.4680  0.3886 -0.8870
  907MOL0     C22322  10.053  10.621   8.949 -0.7286 -0.4963 -0.4334
  907MOL0     C22323   9.929  10.577   9.033  1.1638  0.2541 -0.6139
  907MOL0     C22324   9.809  10.532   8.950  1.0759 -0.2141  0.4930
  907MOL0     C22325   9.743  10.638   8.865 -0.2338 -0.5604  0.3886
  907MOL0     C22326   9.670  10.576   8.745 -0.0543  0.1432 -0.4449
  907MOL0     N22327   9.565  10.493   8.788 -0.0088 -0.3122  0.4471
  907MOL0     C22328   9.586  10.360   8.800 -0.4761 -0.7267  0.2127
  907MOL0     C22329   9.462  10.307   8.812  0.9964 -0.9038 -0.3829
  907MOL0     C22330   9.412  10.165   8.816  0.3758 -0.2005 -0.7434
  907MOL0     C22331   9.524  10.067   8.838  0.5868 -0.2272  0.5286
  907MOL0     C22332   9.513   9.930   8.769  0.1293  0.4940 -0.4836
  907MOL0     C22333   9.393   9.842   8.809 -0.0780 -0.7746  0.3200
  907MOL0     O22334   9.388   9.804   8.948  0.1336  0.7103  0.0286
  907MOL0     C22335   9.407   9.667   8.959  0.3224 -0.5294 -1.0607
  907MOL0     C22336   9.509   9.617   9.036 -0.2833  1.2535 -0.3311
  907MOL0     C22337   9.515   9.481   9.067 -0.7177 -0.5644 -0.2875
  907MOL0     C22338   9.624   9.443   9.162  0.0186 -0.8892 -0.7426
  907MOL0     C22339   9.419   9.391   9.017  0.2534 -0.3580 -0.5019
  907MOL0     C22340   9.400   9.246   9.065 -0.1556  0.7057 -0.3434
  907MOL0     O22341   9.295   9.183   9.024 -0.5261  0.1523 -0.4897
  907MOL0     C22342   9.280   9.051   9.046 -0.0004  0.1349  0.4385
  907MOL0     C22343   9.233   9.003   9.171 -0.7098 -1.0305 -0.0839
  907MOL0     C22344   9.194   8.866   9.180 -0.4368  0.1561 -0.0677
  907MOL0     C22345   9.220   8.774   9.080  0.4955  0.0545 -0.9343
  907MOL0     O22346   9.176   8.643   9.079 -0.7717 -0.3760 -0.5326
  907MOL0     C22347   9.286   8.553   9.094  0.2374  0.3284 -0.7678
  907MOL0     C22348   9.354   8.544   9.234  0.2671 -0.6260  0.3286
  907MOL0     C22349   9.467   8.442   9.253  0.0286 -1.5032 -0.0068
  907MOL0     C22350   9.553   8.457   9.378 -0.0894 -0.0974  0.8786
  907MOL0     C22351   9.672   8.366   9.375 -0.2374  0.0948 -0.3869
  907MOL0     C22352   9.750   8.365   9.513 -0.3087 -0.1946 -0.5503
  907MOL0     C22353   9.861   8.255   9.516 -0.3479 -1.0103  0.3576
  907MOL0     C22354   9.970   8.274   9.403 -0.0257 -0.2876 -0.3881
  907MOL0    Cl22355   9.918   8.214   9.236 -0.6282  0.0510 -0.0538
  907MOL0     C22356   9.270   8.826   8.961  1.5242 -1.3121  0.4342
  907MOL0     C22357   9.296   8.961   8.941  0.1380 -1.3803 -0.1796
  907MOL0     O22358   9.504   9.189   9.109  0.3504 -0.3692  0.1127
  907MOL0     C22359   9.315   9.446   8.943 -0.0607  0.6084  0.3871
  907MOL0     C22360   9.305   9.581   8.916 -0.8613  0.4669 -0.9219
  907MOL0     N22361   9.379  10.416   8.819 -0.8409  0.1145 -0.3963
  907MOL0     N22362   9.433  10.528   8.795 -0.1666 -0.2801 -0.7832
  907MOL0     C22363  10.599  10.814   9.232 -0.7990 -0.3239 -0.2616
  907MOL0     C22364  10.698  10.878   9.322  0.5704 -0.5060  0.5920
  907MOL0     C22365  10.788  11.192   9.684  0.3019 -0.4833 -0.8839
  907MOL0     C22366  10.843  11.106   9.776  0.9466  0.0340  0.1729
  907MOL0     C22367  10.875  11.146   9.899 -0.2552  0.1399 -0.2327
  907MOL0     C22368  10.865  11.276   9.947  0.4784  0.0278 -0.3560
  907MOL0     O22369  10.900  11.317  10.078 -0.9318 -0.7433  0.6884
  907MOL0     C22370  10.795  11.300  10.176 -0.9330 -0.9200  0.5116
  907MOL0     C22371  10.858  11.330  10.319  0.9528  0.1969  0.9931
  907MOL0     C22372  10.753  11.351  10.431 -1.3129  0.5562  0.0391
  907MOL0     C22373  10.661  11.465  10.405  0.1863  0.1620  0.4918
  907MOL0     C22374  10.588  11.504  10.522  0.5329  0.2242 -1.0122
  907MOL0     C22375  10.522  11.525  10.620  1.0056  0.3711  0.4346
  907MOL0     C22376  10.815  11.370   9.850 -1.2628  0.6700 -0.2940
  907MOL0     C22377  10.775  11.329   9.725 -0.1008  0.1578  0.0748
  907MOL0     H22378  10.515  11.020   9.554  1.4433 -1.2164  0.8120
  907MOL0     H22379  10.323  10.927   9.390 -0.5635  0.2717  1.0541
  907MOL0     H22380  10.451  10.864   9.029 -0.7185  0.2696  0.6296
  907MOL0     H22381  10.452  10.681   9.040 -1.3415 -0.6753  4.1736
  907MOL0     H22382  10.233  10.849   8.934  1.7046  0.9063  3.4282
  907MOL0     H22383  10.309  10.713   8.855  0.9640  0.9332 -0.3732
  907MOL0     H22384  10.226  10.583   9.075  0.4501  1.8672  0.9642
  907MOL0     H22385  10.137  10.726   9.118 -1.5914  1.4307 -2.0085
  907MOL0     H22386  10.012  10.709   8.898 -0.0178  0.1213  0.0470
  907MOL0     H22387  10.081  10.535   8.888  3.5575  1.6098 -1.7903
  907MOL0     H22388   9.973  10.500   9.098 -1.7148 -0.3630  0.7577
  907MOL0     H22389   9.898  10.662   9.094  1.9857 -1.6121  2.6419
  907MOL0     H22390   9.835  10.447   8.885 -3.2197 -0.9373 -0.6054
  907MOL0     H22391   9.729  10.507   9.020 -0.1833  0.7815 -0.5552
  907MOL0     H22392   9.680  10.702   8.928 -1.5675  1.7479 -2.9746
  907MOL0     H22393   9.819  10.707   8.827 -0.3543 -1.6896 -2.1034
  907MOL0     H22394   9.726  10.514   8.675 -1.3206 -1.2143 -0.3037
  907MOL0     H22395   9.619  10.661   8.699 -1.2524 -0.5324 -0.4076
  907MOL0     H22396   9.674  10.298   8.784  0.7317  1.7192 -3.9121
  907MOL0     H22397   9.356  10.155   8.909  0.0437 -2.8248 -1.1463
  907MOL0     H22398   9.354  10.128   8.730 -1.9365  0.4240  0.4511
  907MOL0     H22399   9.533  10.057   8.946 -1.0941  0.9729  0.8234
  907MOL0     H22400   9.620  10.108   8.806  1.3039 -3.3325 -1.8388
  907MOL0     H22401   9.603   9.877   8.801 -1.2830 -1.2357  0.8563
  907MOL0     H22402   9.522   9.942   8.661 -1.0171  0.6238 -0.5750
  907MOL0     H22403   9.396   9.752   8.746 -1.0029 -2.1221  2.1252
  907MOL0     H22404   9.302   9.896   8.783  0.3680 -1.0752 -2.1596
  907MOL0     H22405   9.587   9.687   9.063  1.6087  0.2554 -2.7949
  907MOL0     H22406   9.586   9.448   9.264  1.8404  1.0051 -0.0707
  907MOL0     H22407   9.685   9.355   9.141  0.5573 -0.2978 -1.7699
  907MOL0     H22408   9.700   9.521   9.172  0.4422 -1.1806 -1.5497
  907MOL0     H22409   9.219   9.073   9.253  3.5128  2.6183 -2.0305
  907MOL0     H22410   9.146   8.844   9.274 -2.5451  0.9558 -0.8885
  907MOL0     H22411   9.257   8.450   9.073 -3.2017  0.2446  3.1358
  907MOL0     H22412   9.363   8.571   9.018  0.5705 -0.5976 -0.6524
  907MOL0     H22413   9.395   8.642   9.257 -0.9911 -0.0355  0.1560
  907MOL0     H22414   9.267   8.533   9.300 -1.1182  0.3896 -1.2402
  907MOL0     H22415   9.541   8.446   9.173  0.0936  1.5838  0.0801
  907MOL0     H22416   9.429   8.340   9.243  3.0206 -2.5901 -1.5924
  907MOL0     H22417   9.591   8.559   9.389  2.3815 -0.8740  0.3614
  907MOL0     H22418   9.477   8.441   9.455  1.4806 -0.8379  2.3508
  907MOL0     H22419   9.738   8.403   9.296  1.2304 -5.7644 -2.3775
  907MOL0     H22420   9.640   8.267   9.342 -1.1935  0.8136 -1.7397
  907MOL0     H22421   9.797   8.464   9.511  5.3187 -2.4344  1.0576
  907MOL0     H22422   9.679   8.358   9.596 -1.6613  2.7314 -1.3190
  907MOL0     H22423   9.826   8.151   9.516 -1.8340 -0.5302 -0.5912
  907MOL0     H22424   9.921   8.261   9.607  1.7626 -0.0211 -1.0295
  907MOL0     H22425  10.049   8.209   9.443 -0.4745  0.0268  1.0836
  907MOL0     H22426   9.992   8.381   9.400  2.4980 -0.6656  1.2393
  907MOL0     H22427   9.290   8.757   8.880  1.9584 -0.8846  0.1746
  907MOL0     H22428   9.340   8.998   8.848  1.3178  0.0476  0.8965
  907MOL0     H22429   9.238   9.385   8.895 -2.3107  4.1232 -0.9165
  907MOL0     H22430   9.213   9.614   8.869 -1.6668 -1.5672 -0.8807
  907MOL0     H22431  10.634  10.755   9.149  0.4042 -1.7947  1.2114
  907MOL0     H22432  10.794  10.861   9.273 -0.0153  1.0533 -1.2018
  907MOL0     H22433  10.839  10.997   9.768 -2.1364  0.1824 -2.2194
  907MOL0     H22434  10.902  11.087   9.987  0.9314  2.3276  0.9574
  907MOL0     H22435  10.707  11.359  10.151  1.8389  4.4841  1.9950
  907MOL0     H22436  10.789  11.191  10.180  2.5570 -1.2701 -0.5454
  907MOL0     H22437  10.914  11.423  10.311 -0.4142  1.2303  2.7227
  907MOL0     H22438  10.923  11.249  10.353  2.5244  1.0362  0.1335
  907MOL0     H22439  10.808  11.385  10.519 -0.2149 -0.1666 -0.3515
  907MOL0     H22440  10.695  11.261  10.454  1.5311 -1.3939  0.0501
  907MOL0     H22441  10.597  11.447  10.317  1.0254  0.2358 -0.1477
  907MOL0     H22442  10.715  11.557  10.382 -2.5323  1.1421 -2.9019
  907MOL0     H22443  10.474  11.542  10.715 -2.1174 -0.6390 -0.8173
  907MOL0     H22444  10.814  11.476   9.873 -0.6719  0.1937  2.2194
  907MOL0     H22445  10.735  11.394   9.647  3.0527  1.5984 -0.5238
  908MOL0     O22446   3.568   3.743   2.431  0.0350  0.5885  0.0425
  908MOL0     C22447   3.581   3.754   2.307  0.0289  0.2094 -0.4975
  908MOL0     O22448   3.613   3.647   2.222  0.2335  0.0530 -0.2498
  908MOL0     C22449   3.660   3.536   2.293  0.4525  0.0899  1.0387
  908MOL0     C22450   3.794   3.507   2.268 -0.6481  0.2967  0.6330
  908MOL0     C22451   3.858   3.391   2.334 -0.2922 -0.4258  0.1672
  908MOL0     C22452   3.779   3.311   2.417 -0.0210  1.1758 -0.4241
  908MOL0     O22453   3.829   3.201   2.483  0.1786  0.5275  0.6499
  908MOL0     C22454   3.819   3.200   2.624  0.5192  0.2628 -0.5873
  908MOL0     C22455   3.952   3.148   2.690 -0.0657 -0.4782  0.0888
  908MOL0     C22456   3.913   3.077   2.824  0.2594  1.1274  0.8479
  908MOL0     C22457   3.883   3.158   2.952  0.5622 -0.2132  0.7704
  908MOL0     C22458   3.891   3.068   3.070 -0.2977 -0.4664  0.8192
  908MOL0     C22459   3.774   2.972   3.072  0.0338 -0.7283  0.8184
  908MOL0     C22460   3.801   2.868   3.176  0.3624 -0.2010 -0.2906
  908MOL0     C22461   3.698   2.746   3.171 -1.1640 -0.5980  0.1959
  908MOL0     N22462   3.723   2.666   3.287  0.5187 -0.2628 -0.6116
  908MOL0     C22463   3.687   2.698   3.419 -0.3307 -0.2756  0.2574
  908MOL0     C22464   3.744   2.606   3.501 -0.5226  0.2772 -0.2134
  908MOL0     C22465   3.753   2.598   3.653  0.5046 -0.3906  0.2551
  908MOL0     C22466   3.896   2.563   3.709 -0.4283 -0.6970  0.5079
  908MOL0     C22467   3.907   2.414   3.727  0.4347  0.1538  0.0157
  908MOL0     C22468   4.060   2.370   3.719  0.4301 -0.4494  0.2549
  908MOL0     O22469   4.066   2.225   3.703  0.7220 -0.0277 -1.0859
  908MOL0     C22470   4.054   2.155   3.588  0.2729 -0.3263  0.7578
  908MOL0     C22471   4.046   2.220   3.460  0.2656 -0.3565  0.7827
  908MOL0     C22472   4.044   2.155   3.332 -0.5842  0.3945  0.6246
  908MOL0     C22473   4.038   2.245   3.213 -0.5003 -0.0727 -0.6770
  908MOL0     C22474   4.036   2.007   3.330  0.6561 -0.8828  0.2017
  908MOL0     C22475   3.993   1.934   3.211  0.3294 -0.2433  0.3655
  908MOL0     O22476   4.028   1.975   3.088 -0.0208  0.1857 -0.9207
  908MOL0     C22477   3.976   1.937   2.960 -0.2389 -0.3124 -0.7456
  908MOL0     C22478   4.050   1.983   2.849  0.7019 -0.0895  0.1877
  908MOL0     C22479   4.021   1.931   2.720  0.1000 -0.1670  0.4702
  908MOL0     C22480   3.912   1.856   2.697  0.5832 -0.2715 -0.7153
  908MOL0     O22481   3.879   1.810   2.577  0.6534  0.4446  0.2572
  908MOL0     C22482   3.744   1.832   2.537 -0.0795 -0.3863  0.0746
  908MOL0     C22483   3.726   1.767   2.398  0.7551 -0.5130 -0.4026
  908MOL0     C22484   3.783   1.863   2.285  0.9530  0.5663 -0.6095
  908MOL0     C22485   3.692   1.993   2.256 -0.0616 -0.6823  0.8431
  908MOL0     C22486   3.718   2.053   2.122 -1.0899  0.1816  0.2620
  908MOL0     C22487   3.863   2.091   2.090  0.7157  0.8281 -0.2170
  908MOL0     C22488   3.870   2.146   1.951  0.0642 -0.9652  0.0721
  908MOL0     C22489   4.008   2.175   1.903 -0.2915 -0.2253 -0.4988
  908MOL0    Cl22490   3.991   2.298   1.772  0.2696  0.0908  0.0999
  908MOL0     C22491   3.840   1.813   2.814 -0.0341 -0.2141 -0.4319
  908MOL0     C22492   3.864   1.861   2.941  0.2536 -0.5436  0.3838
  908MOL0     O22493   3.933   1.825   3.239 -1.3123 -0.5226 -0.1245
  908MOL0     C22494   4.034   1.946   3.459 -0.7025 -0.4929 -0.1044
  908MOL0     C22495   4.044   2.017   3.574  0.3705 -0.9798  0.0037
  908MOL0     N22496   3.827   2.527   3.420 -0.0446  0.1447 -0.5474
  908MOL0     N22497   3.821   2.567   3.294 -0.4159  0.2587 -0.3904
  908MOL0     C22498   3.648   3.351   2.454 -0.8414  1.3515  1.2870
  908MOL0     C22499   3.586   3.459   2.382  0.2208 -0.1666 -0.2995
  908MOL0     C22500   3.521   3.874   2.256 -0.4438 -0.6849 -0.3614
  908MOL0     C22501   3.457   3.881   2.129 -0.5716 -0.4427  0.2348
  908MOL0     C22502   3.384   3.994   2.099 -0.2528 -0.3009  0.3163
  908MOL0     C22503   3.383   4.108   2.173 -0.1609  0.3638  0.0363
  908MOL0     O22504   3.306   4.218   2.154 -0.4041  0.1126 -0.7196
  908MOL0     C22505   3.318   4.308   2.047  0.7577 -0.8988  0.4433
  908MOL0     C22506   3.322   4.448   2.113  0.6620  0.0182 -0.2905
  908MOL0     C22507   3.433   4.462   2.230 -0.0446  0.1633  0.3013
  908MOL0     C22508   3.478   4.606   2.260 -0.0830  0.2043 -0.1165
  908MOL0     C22509   3.428   4.676   2.375  0.3105 -0.9196  0.0375
  908MOL0     C22510   3.376   4.748   2.459 -0.2572 -0.3488 -0.3126
  908MOL0     C22511   3.455   4.102   2.297  0.6099 -0.7406  0.0008
  908MOL0     C22512   3.530   3.994   2.335  0.8422 -0.8075 -0.2490
  908MOL0     H22513   3.861   3.565   2.206 -2.4426 -1.2397 -3.0735
  908MOL0     H22514   3.963   3.366   2.317 -1.1357 -1.6574 -4.7815
  908MOL0     H22515   3.792   3.301   2.658 -2.2103 -0.8289  0.8102
  908MOL0     H22516   3.732   3.149   2.665  0.5547  1.2946  0.8885
  908MOL0     H22517   4.002   3.077   2.623  1.4034 -1.2462  1.9184
  908MOL0     H22518   4.018   3.233   2.703 -2.1850  1.4452 -0.9904
  908MOL0     H22519   3.832   3.008   2.797  2.7733 -2.1952  1.1587
  908MOL0     H22520   3.999   3.010   2.831  0.0329  0.0508 -3.4011
  908MOL0     H22521   3.950   3.244   2.964 -0.3392  0.6289 -0.0337
  908MOL0     H22522   3.782   3.200   2.946  0.2167 -1.1985 -2.3084
  908MOL0     H22523   3.986   3.014   3.060  0.3140  0.8537 -0.9913
  908MOL0     H22524   3.895   3.131   3.160  1.2187 -0.0004  0.4595
  908MOL0     H22525   3.681   3.029   3.081  0.5870  0.6578 -1.4725
  908MOL0     H22526   3.759   2.923   2.975 -0.5469 -1.1776  1.1283
  908MOL0     H22527   3.894   2.820   3.142  0.6562  0.1060  0.0674
  908MOL0     H22528   3.808   2.908   3.278  1.4715 -2.2124  0.4952
  908MOL0     H22529   3.724   2.705   3.073 -4.1734  0.3473 -1.1173
  908MOL0     H22530   3.591   2.771   3.173 -0.9908  0.1690  0.2336
  908MOL0     H22531   3.612   2.774   3.442 -1.0941 -1.1985  0.8811
  908MOL0     H22532   3.728   2.691   3.705  1.7019 -0.1177  0.3858
  908MOL0     H22533   3.682   2.528   3.698  1.7718 -1.1728  1.1099
  908MOL0     H22534   3.893   2.612   3.807  2.8568  0.8479 -0.0292
  908MOL0     H22535   3.973   2.602   3.643 -0.4425 -1.7982 -0.1692
  908MOL0     H22536   3.860   2.356   3.647 -2.5835  0.9606  1.0789
  908MOL0     H22537   3.860   2.378   3.819  2.6665  1.3997  1.7499
  908MOL0     H22538   4.113   2.407   3.807 -1.2729 -0.9328  1.5338
  908MOL0     H22539   4.108   2.417   3.633  1.8693 -4.0855 -1.0944
  908MOL0     H22540   4.042   2.329   3.460  0.6356 -0.2710 -1.9211
  908MOL0     H22541   3.941   2.296   3.206  1.0891  2.9917 -1.8822
  908MOL0     H22542   4.106   2.329   3.226  0.6033 -0.9658 -0.5610
  908MOL0     H22543   4.063   2.193   3.120 -2.4001  1.7898 -2.3483
  908MOL0     H22544   4.136   2.047   2.859  1.7995 -1.0774 -2.3039
  908MOL0     H22545   4.083   1.957   2.636 -0.4135 -0.8048 -0.1205
  908MOL0     H22546   3.669   1.791   2.605 -0.2927 -1.0951 -0.5720
  908MOL0     H22547   3.721   1.939   2.532 -0.4266 -0.3120  2.2192
  908MOL0     H22548   3.777   1.671   2.395 -0.9032 -1.4383 -0.4260
  908MOL0     H22549   3.618   1.762   2.379  0.9189 -1.1410 -1.2126
  908MOL0     H22550   3.796   1.803   2.195  0.8615  0.0430 -0.2762
  908MOL0     H22551   3.888   1.889   2.301  0.9037  1.4791 -1.6177
  908MOL0     H22552   3.584   1.979   2.265 -0.2309  0.1709  0.2062
  908MOL0     H22553   3.708   2.072   2.330 -0.7027  0.1114  0.1475
  908MOL0     H22554   3.659   2.145   2.115  1.2231  2.0077  2.8377
  908MOL0     H22555   3.689   1.972   2.054  2.2163 -0.6367 -0.3272
  908MOL0     H22556   3.894   2.164   2.165  1.7296 -1.1734  1.3904
  908MOL0     H22557   3.934   2.008   2.087  0.7618  0.8863 -1.0397
  908MOL0     H22558   3.795   2.225   1.940  0.0742  0.0508  4.9898
  908MOL0     H22559   3.840   2.057   1.894 -2.6686 -0.6799  0.9040
  908MOL0     H22560   4.049   2.086   1.856 -0.1881 -1.9842  2.6495
  908MOL0     H22561   4.079   2.212   1.977 -0.1274 -0.1993 -0.6711
  908MOL0     H22562   3.754   1.747   2.810 -1.0709  0.5701  3.7417
  908MOL0     H22563   3.805   1.831   3.027  0.0871 -2.4157 -0.3146
  908MOL0     H22564   4.019   1.840   3.470  0.7792 -0.6437  0.7318
  908MOL0     H22565   4.040   1.966   3.669  1.0680  0.3324  0.7611
  908MOL0     H22566   3.578   3.293   2.513 -2.3653 -0.9214 -2.4051
  908MOL0     H22567   3.492   3.498   2.420 -0.2961 -2.2741  0.7589
  908MOL0     H22568   3.460   3.786   2.076  1.1365 -0.8142  0.9405
  908MOL0     H22569   3.340   3.986   2.000  0.5341 -3.0544  0.1130
  908MOL0     H22570   3.413   4.299   1.994  2.5788  4.1104  2.2565
  908MOL0     H22571   3.227   4.300   1.988  2.4902 -0.9543 -2.3754
  908MOL0     H22572   3.225   4.455   2.164  0.1054 -2.3806 -0.8602
  908MOL0     H22573   3.337   4.518   2.031  0.5340  0.0074 -0.3225
  908MOL0     H22574   3.514   4.426   2.167 -0.1352  2.7482 -1.4434
  908MOL0     H22575   3.428   4.399   2.320  3.5350 -2.2491 -0.9585
  908MOL0     H22576   3.464   4.665   2.169  2.3072  0.2912 -0.5019
  908MOL0     H22577   3.581   4.611   2.297  0.2462  0.9148 -1.0642
  908MOL0     H22578   3.326   4.823   2.518 -2.0855 -0.3541 -1.7754
  908MOL0     H22579   3.445   4.191   2.359 -2.2916  0.1757 -1.5705
  908MOL0     H22580   3.568   3.988   2.436 -2.5509 -3.3022  1.0972
  909MOL0     O22581   4.399   0.244   7.838  0.2385 -0.0679  0.2107
  909MOL0     C22582   4.384   0.202   7.724 -0.1820 -1.0552  0.5013
  909MOL0     O22583   4.427   0.082   7.662 -0.0765  0.3705 -0.4394
  909MOL0     C22584   4.504  -0.000   7.738  1.1073 -0.1307 -0.3324
  909MOL0     C22585   4.619  -0.049   7.678  1.1924  0.1828  0.1643
  909MOL0     C22586   4.694  -0.139   7.751 -0.5407 -0.3242  0.3147
  909MOL0     C22587   4.678  -0.164   7.889 -0.6595  0.8594  0.9688
  909MOL0     O22588   4.758  -0.250   7.968 -0.0851  0.1226 -0.1445
  909MOL0     C22589   4.702  -0.367   8.038  0.5235  0.0413 -0.2272
  909MOL0     C22590   4.774  -0.502   8.010 -0.3383  0.5119  1.1357
  909MOL0     C22591   4.726  -0.547   7.868 -0.3410  0.9034  0.2614
  909MOL0     C22592   4.788  -0.677   7.821  0.1860 -0.1525 -0.3018
  909MOL0     C22593   4.727  -0.721   7.692 -0.1721  0.2789  0.1571
  909MOL0     C22594   4.585  -0.789   7.711  0.2002  0.0182 -0.8306
  909MOL0     C22595   4.522  -0.772   7.571  0.0942  0.3482 -1.0588
  909MOL0     C22596   4.398  -0.849   7.546 -0.5437 -0.8683  0.2501
  909MOL0     N22597   4.282  -0.792   7.607 -1.3919 -0.1959 -0.0080
  909MOL0     C22598   4.170  -0.856   7.653  0.2508  0.4431  0.6793
  909MOL0     C22599   4.091  -0.758   7.689 -1.2257  0.5034  0.4579
  909MOL0     C22600   3.963  -0.759   7.759  1.1952  0.0467  0.0409
  909MOL0     C22601   3.851  -0.659   7.708  0.3236  0.0095 -0.4860
  909MOL0     C22602   3.794  -0.683   7.562  0.4196 -0.3658  0.0333
  909MOL0     C22603   3.651  -0.738   7.553 -0.6987  0.0254 -0.1825
  909MOL0     O22604   3.558  -0.643   7.613  0.3337  0.5199 -0.3952
  909MOL0     C22605   3.453  -0.708   7.684  0.2566 -0.2097  0.4230
  909MOL0     C22606   3.462  -0.737   7.821  0.1441 -1.1892  0.1992
  909MOL0     C22607   3.351  -0.797   7.888  0.0612  0.0987  0.0972
  909MOL0     C22608   3.387  -0.836   8.030  0.1118  0.6921 -0.4084
  909MOL0     C22609   3.220  -0.810   7.832  0.0657  0.8457  0.6517
  909MOL0     C22610   3.101  -0.850   7.906  0.4541 -0.6899  0.7229
  909MOL0     O22611   2.993  -0.890   7.834 -0.3882 -0.7834  0.4236
  909MOL0     C22612   2.880  -0.925   7.901 -0.1068  0.0297 -0.7405
  909MOL0     C22613   2.868  -1.047   7.983  0.0913 -0.2038  0.4082
  909MOL0     C22614   2.759  -1.068   8.063  0.3317 -0.0107 -0.0916
  909MOL0     C22615   2.649  -0.985   8.058 -0.4380  0.5346  0.1167
  909MOL0     O22616   2.550  -1.013   8.150 -0.1522 -0.2466 -0.5366
  909MOL0     C22617   2.413  -1.001   8.118 -0.3842 -0.8695  1.0263
  909MOL0     C22618   2.332  -1.035   8.247 -0.0489 -0.6271 -0.2099
  909MOL0     C22619   2.274  -1.177   8.257  0.0743 -1.5346 -0.0251
  909MOL0     C22620   2.206  -1.206   8.395 -0.5123  0.3726  0.4538
  909MOL0     C22621   2.060  -1.144   8.409 -1.0260  0.0553  0.1571
  909MOL0     C22622   1.939  -1.188   8.319 -1.4613  0.4212 -0.1052
  909MOL0     C22623   1.815  -1.122   8.369 -0.2912  0.1456 -0.2741
  909MOL0     C22624   1.696  -1.183   8.286 -0.1849 -0.4166 -0.1640
  909MOL0    Cl22625   1.713  -1.141   8.109 -0.0464 -0.1399 -0.6783
  909MOL0     C22626   2.647  -0.877   7.969 -0.4265  0.6633  0.8421
  909MOL0     C22627   2.762  -0.839   7.898  0.2648  0.1787  0.6545
  909MOL0     O22628   3.106  -0.839   8.030  0.0616  0.2970 -0.4283
  909MOL0     C22629   3.213  -0.782   7.689 -0.4079  0.3359 -0.1936
  909MOL0     C22630   3.331  -0.739   7.618  0.7654 -0.2272  0.9144
  909MOL0     N22631   4.145  -0.639   7.657 -0.8318  0.8568  0.7213
  909MOL0     N22632   4.263  -0.662   7.605 -0.3449 -0.8419  0.4576
  909MOL0     C22633   4.561  -0.109   7.941 -0.5380 -0.3022 -0.4590
  909MOL0     C22634   4.470  -0.041   7.867  0.0367  0.5005  0.8254
  909MOL0     C22635   4.320   0.321   7.649  0.3078  0.2688 -0.1216
  909MOL0     C22636   4.288   0.303   7.518  0.1418  0.0770  0.8896
  909MOL0     C22637   4.231   0.401   7.436  0.5693 -0.9501 -0.4485
  909MOL0     C22638   4.211   0.532   7.481  0.3732  0.8574 -0.4936
  909MOL0     O22639   4.178   0.628   7.385 -0.0808 -1.2596  0.1235
  909MOL0     C22640   4.178   0.770   7.413 -0.0448 -0.3165 -0.0364
  909MOL0     C22641   4.328   0.797   7.433 -0.7185 -0.0114  0.1198
  909MOL0     C22642   4.416   0.786   7.309  0.6564 -0.1522  1.2354
  909MOL0     C22643   4.565   0.827   7.327 -0.6969  1.3167 -0.4802
  909MOL0     C22644   4.632   0.801   7.195 -1.1411  0.5616  0.5424
  909MOL0     C22645   4.704   0.788   7.092  0.1795 -0.3176 -0.6942
  909MOL0     C22646   4.238   0.556   7.622 -0.6726 -0.3410  0.2100
  909MOL0     C22647   4.302   0.452   7.699 -0.3270 -0.1104 -0.2714
  909MOL0     H22648   4.633  -0.019   7.575  0.1177  1.1589  0.2854
  909MOL0     H22649   4.781  -0.176   7.698  0.7293  1.2208  1.2212
  909MOL0     H22650   4.707  -0.364   8.147 -0.2489 -0.0943 -0.1837
  909MOL0     H22651   4.597  -0.376   8.006  0.6275  0.3117 -0.6589
  909MOL0     H22652   4.882  -0.483   8.008 -0.0080 -1.0573  2.2111
  909MOL0     H22653   4.751  -0.571   8.091 -1.1200 -0.7088 -0.0916
  909MOL0     H22654   4.618  -0.552   7.849 -0.0398 -2.1191 -1.2737
  909MOL0     H22655   4.774  -0.478   7.799 -0.6850 -1.2833 -2.3570
  909MOL0     H22656   4.896  -0.660   7.823  0.1620 -0.0579  1.5140
  909MOL0     H22657   4.766  -0.755   7.895  1.0231  0.3031  0.4504
  909MOL0     H22658   4.708  -0.636   7.627 -2.6319 -0.9566 -0.9082
  909MOL0     H22659   4.782  -0.797   7.634  1.1101  0.0653  1.5948
  909MOL0     H22660   4.598  -0.896   7.730  1.3231  0.1994 -0.4650
  909MOL0     H22661   4.533  -0.736   7.791 -0.9473 -0.1626 -1.4356
  909MOL0     H22662   4.502  -0.665   7.561  1.1259  0.6545 -0.1063
  909MOL0     H22663   4.595  -0.804   7.496  2.0685  2.2536 -0.0930
  909MOL0     H22664   4.399  -0.953   7.579 -2.1717 -1.1479 -0.4617
  909MOL0     H22665   4.369  -0.853   7.441 -0.5697  0.2525  0.2090
  909MOL0     H22666   4.148  -0.962   7.646  0.4193  0.4219 -6.0751
  909MOL0     H22667   3.924  -0.860   7.743 -1.8366  1.2500 -0.8186
  909MOL0     H22668   3.987  -0.748   7.865  2.0012  0.0856 -0.1336
  909MOL0     H22669   3.911  -0.569   7.723  3.2298 -1.9235  0.3561
  909MOL0     H22670   3.768  -0.647   7.779  0.9751 -0.7413  0.4470
  909MOL0     H22671   3.864  -0.751   7.513  1.6233 -0.4859  1.8196
  909MOL0     H22672   3.796  -0.586   7.513  0.4021 -2.3454 -4.3580
  909MOL0     H22673   3.648  -0.837   7.599 -2.7585 -0.2851 -0.8695
  909MOL0     H22674   3.628  -0.747   7.447 -0.4891  2.2578 -0.4564
  909MOL0     H22675   3.552  -0.723   7.880 -1.5941 -3.1285  3.6166
  909MOL0     H22676   3.340  -0.930   8.058  2.0750  0.3142  1.8951
  909MOL0     H22677   3.496  -0.840   8.046 -0.3446  0.3294  3.5119
  909MOL0     H22678   3.339  -0.778   8.109  0.9300  1.5330 -0.5053
  909MOL0     H22679   2.955  -1.112   7.986 -1.4534 -2.3796  0.3774
  909MOL0     H22680   2.753  -1.165   8.112  0.2516 -0.2459 -0.5526
  909MOL0     H22681   2.390  -0.904   8.072 -0.0092 -1.1786  0.1792
  909MOL0     H22682   2.380  -1.068   8.038 -0.0026 -0.2817  0.3677
  909MOL0     H22683   2.391  -1.013   8.336  1.6718 -1.8818 -0.9856
  909MOL0     H22684   2.248  -0.965   8.241 -0.2044 -0.9128 -1.8795
  909MOL0     H22685   2.351  -1.255   8.248 -0.9063 -2.5378  0.1705
  909MOL0     H22686   2.204  -1.186   8.174  1.2736 -0.1137 -1.2569
  909MOL0     H22687   2.194  -1.314   8.401  1.8073 -0.4486 -4.5554
  909MOL0     H22688   2.264  -1.162   8.477  1.5297 -0.0747 -0.6716
  909MOL0     H22689   2.073  -1.036   8.400  0.7442 -0.2289 -1.4455
  909MOL0     H22690   2.035  -1.155   8.515  2.7520 -0.4890  1.1377
  909MOL0     H22691   1.954  -1.150   8.217  3.2773  0.7027  0.4814
  909MOL0     H22692   1.918  -1.295   8.321 -1.0067  0.2050 -2.7208
  909MOL0     H22693   1.828  -1.017   8.342 -1.5744 -0.3706 -3.3209
  909MOL0     H22694   1.811  -1.121   8.478  0.6409 -1.0974 -0.2065
  909MOL0     H22695   1.604  -1.138   8.325 -2.3236 -1.7248 -3.3154
  909MOL0     H22696   1.690  -1.292   8.293  0.3559 -0.3696  1.3343
  909MOL0     H22697   2.569  -0.802   7.978 -0.4275  1.1237 -2.1188
  909MOL0     H22698   2.765  -0.746   7.841 -0.1621 -1.2028 -1.7307
  909MOL0     H22699   3.123  -0.788   7.628  0.9804 -0.3670 -2.2914
  909MOL0     H22700   3.323  -0.709   7.514  1.0359  1.6428  1.3868
  909MOL0     H22701   4.536  -0.124   8.046  0.9960  1.8490  0.2879
  909MOL0     H22702   4.389  -0.009   7.932 -1.5814 -1.3321 -0.1764
  909MOL0     H22703   4.321   0.209   7.474  0.3633 -1.0700  3.3304
  909MOL0     H22704   4.207   0.396   7.331 -2.9355  1.2085  0.0777
  909MOL0     H22705   4.136   0.822   7.327 -0.2925 -0.1812  0.1651
  909MOL0     H22706   4.113   0.785   7.500 -0.0393 -2.3295  0.3679
  909MOL0     H22707   4.370   0.718   7.496 -0.9746  0.7417  1.2651
  909MOL0     H22708   4.345   0.881   7.500 -1.4236 -1.2129  1.8759
  909MOL0     H22709   4.377   0.865   7.244  3.6478  0.8458  0.4998
  909MOL0     H22710   4.414   0.692   7.255 -0.1097  1.2785 -1.3809
  909MOL0     H22711   4.606   0.765   7.407  0.9896  0.4533 -1.9551
  909MOL0     H22712   4.584   0.932   7.351 -1.7118  1.5601 -0.6826
  909MOL0     H22713   4.756   0.780   6.999 -2.2661  0.7405 -2.2550
  909MOL0     H22714   4.218   0.653   7.666 -1.2094  0.0768 -0.9072
  909MOL0     H22715   4.316   0.478   7.803 -0.1301  1.6401 -0.7053
  910MOL0     O22716  10.632   2.488   6.912 -0.8412 -0.4536  0.4176
  910MOL0     C22717  10.608   2.474   7.032 -0.4366  0.0627  0.0415
  910MOL0     O22718  10.697   2.442   7.136  0.1468  0.4972  0.2016
  910MOL0     C22719  10.831   2.461   7.120 -0.7564 -0.1700 -0.1357
  910MOL0     C22720  10.898   2.566   7.059  0.6018 -0.3739  0.0514
  910MOL0     C22721  11.036   2.576   7.060  0.1378  0.6500  0.4787
  910MOL0     C22722  11.114   2.478   7.133 -0.6262 -0.8507 -0.6402
  910MOL0     O22723  11.250   2.497   7.155 -0.3942  0.5666 -0.3429
  910MOL0     C22724  11.333   2.382   7.154 -0.3611 -0.2701 -0.0983
  910MOL0     C22725  11.485   2.421   7.185 -0.4079 -0.1942 -0.4737
  910MOL0     C22726  11.578   2.298   7.177  0.2142  0.0727  0.1632
  910MOL0     C22727  11.723   2.319   7.222  0.2382 -0.6551 -0.0283
  910MOL0     C22728  11.809   2.192   7.244  0.0942 -0.2352  0.9793
  910MOL0     C22729  11.818   2.082   7.132 -0.0563 -0.0508  0.8929
  910MOL0     C22730  11.924   2.101   7.017  0.6758  0.3266 -0.6929
  910MOL0     C22731  11.967   2.237   6.962  0.0850 -0.2073  0.7431
  910MOL0     N22732  12.074   2.224   6.854 -0.3785  0.1395  0.0403
  910MOL0     C22733  12.200   2.169   6.869  1.1252 -0.3252  0.3552
  910MOL0     C22734  12.245   2.139   6.742 -0.0758 -0.2524 -0.6317
  910MOL0     C22735  12.393   2.081   6.715  0.6572  0.3598  0.4621
  910MOL0     C22736  12.498   2.141   6.810 -0.4734 -0.1405  0.4187
  910MOL0     C22737  12.634   2.064   6.793 -0.4518 -0.3282 -0.5922
  910MOL0     C22738  12.740   2.158   6.857  0.0789  1.5101 -0.1584
  910MOL0     O22739  12.864   2.086   6.851  0.2095 -0.5830 -0.0434
  910MOL0     C22740  12.971   2.173   6.845  0.3960  1.3784  0.3925
  910MOL0     C22741  13.021   2.225   6.728 -0.2417 -0.4964 -0.2090
  910MOL0     C22742  13.120   2.325   6.724  0.6591 -0.0016 -0.0136
  910MOL0     C22743  13.196   2.354   6.590 -0.1411 -0.3982  0.6068
  910MOL0     C22744  13.147   2.390   6.844  0.8012  0.0010 -0.7741
  910MOL0     C22745  13.238   2.506   6.851  0.7518 -0.2514 -0.5516
  910MOL0     O22746  13.171   2.629   6.864 -0.0045 -1.1006 -0.5052
  910MOL0     C22747  13.232   2.760   6.848 -0.3993  0.2290  0.1526
  910MOL0     C22748  13.177   2.865   6.912  0.0935 -0.0932  0.0210
  910MOL0     C22749  13.226   2.995   6.917  0.4660  0.7982  0.7703
  910MOL0     C22750  13.333   3.031   6.830  0.4841  0.9015 -0.6937
  910MOL0     O22751  13.383   3.154   6.812 -0.1184 -0.0042 -0.3346
  910MOL0     C22752  13.299   3.264   6.851 -0.4988 -0.0002 -0.5046
  910MOL0     C22753  13.357   3.384   6.788  0.0259  0.0463  1.0243
  910MOL0     C22754  13.297   3.518   6.832  0.8842  0.1817 -1.0069
  910MOL0     C22755  13.377   3.648   6.793 -0.0724  0.5322 -0.0962
  910MOL0     C22756  13.290   3.766   6.828 -0.9260  1.1100  0.4361
  910MOL0     C22757  13.354   3.895   6.809  0.3503 -0.6190 -0.1393
  910MOL0     C22758  13.294   3.998   6.898 -0.7994  0.0842  0.7548
  910MOL0     C22759  13.346   4.139   6.868  0.2619  0.0395  0.7539
  910MOL0    Cl22760  13.285   4.196   6.710  0.1694  0.5145  0.5932
  910MOL0     C22761  13.395   2.926   6.759 -0.2259 -0.1505 -0.5667
  910MOL0     C22762  13.340   2.795   6.767  0.8937 -0.2931  0.5567
  910MOL0     O22763  13.360   2.491   6.852 -0.5423 -0.5224 -0.1714
  910MOL0     C22764  13.097   2.337   6.965  0.9011 -0.0297 -0.1355
  910MOL0     C22765  13.012   2.228   6.965  0.0831 -0.5267 -0.3804
  910MOL0     N22766  12.161   2.200   6.652 -0.4417 -0.9643 -0.0333
  910MOL0     N22767  12.058   2.242   6.719  0.5360 -0.1378  0.6558
  910MOL0     C22768  11.043   2.376   7.197  0.9331 -0.0097 -0.4595
  910MOL0     C22769  10.911   2.364   7.181  1.5107  0.1879  0.5436
  910MOL0     C22770  10.463   2.486   7.051 -0.2731 -0.3047  0.4706
  910MOL0     C22771  10.403   2.438   7.165  0.1872  0.5653  0.5245
  910MOL0     C22772  10.267   2.445   7.187 -0.5986 -0.7412  1.0641
  910MOL0     C22773  10.174   2.476   7.095  0.3513  0.2486 -0.0063
  910MOL0     O22774  10.037   2.466   7.100  0.9204  0.3705 -0.2899
  910MOL0     C22775   9.975   2.413   7.221 -0.4775  0.3518  0.2556
  910MOL0     C22776   9.825   2.397   7.204  0.6925 -0.7697  0.3663
  910MOL0     C22777   9.752   2.534   7.166 -0.0645 -0.0704  1.5585
  910MOL0     C22778   9.646   2.580   7.263 -0.6016  0.1730  0.3932
  910MOL0     C22779   9.715   2.620   7.383 -0.5696  0.1073 -0.8184
  910MOL0     C22780   9.735   2.656   7.500  0.0073 -0.7834 -0.3393
  910MOL0     C22781  10.232   2.506   6.969  0.1490  0.1360 -0.6443
  910MOL0     C22782  10.368   2.520   6.958 -0.5459  0.2917  0.6170
  910MOL0     H22783  10.844   2.645   7.008 -1.1585  0.4912  3.0113
  910MOL0     H22784  11.086   2.654   7.003  0.8670 -1.3100 -1.7493
  910MOL0     H22785  11.310   2.318   7.239 -0.3904 -1.9516 -1.3314
  910MOL0     H22786  11.321   2.327   7.060 -0.5089  0.2400 -0.3811
  910MOL0     H22787  11.514   2.503   7.118  0.1939 -0.4722 -0.5578
  910MOL0     H22788  11.490   2.457   7.288 -2.0256 -0.4663 -0.2640
  910MOL0     H22789  11.535   2.216   7.233 -3.1506  0.1335 -2.0623
  910MOL0     H22790  11.593   2.255   7.077  0.2610 -1.8416  0.9672
  910MOL0     H22791  11.776   2.388   7.156 -0.2224 -1.2089 -0.9985
  910MOL0     H22792  11.709   2.360   7.323 -1.3564 -1.9294  0.3139
  910MOL0     H22793  11.910   2.225   7.268 -1.3721  3.7134  2.5606
  910MOL0     H22794  11.764   2.136   7.328 -0.7671  0.0326  0.7121
  910MOL0     H22795  11.852   1.993   7.186  2.4574 -0.2637 -0.8248
  910MOL0     H22796  11.719   2.063   7.089  1.2954 -3.2259 -1.2683
  910MOL0     H22797  12.014   2.051   7.055 -0.6834  0.7724  3.7201
  910MOL0     H22798  11.896   2.033   6.936  2.7454 -0.5155 -0.7642
  910MOL0     H22799  11.996   2.308   7.039  2.3671 -1.8543  1.5063
  910MOL0     H22800  11.880   2.285   6.915  1.3329  1.5204  0.1243
  910MOL0     H22801  12.240   2.137   6.965 -1.0904  1.1198  1.8430
  910MOL0     H22802  12.406   1.973   6.723  0.9380  0.4920  2.3042
  910MOL0     H22803  12.415   2.119   6.615 -0.2935  1.7788  0.7580
  910MOL0     H22804  12.462   2.130   6.913  0.6988 -1.6779  0.7073
  910MOL0     H22805  12.509   2.247   6.787 -3.0023 -0.7223 -4.8929
  910MOL0     H22806  12.656   2.044   6.688  2.0187  1.1105 -0.4007
  910MOL0     H22807  12.623   1.973   6.853 -2.9201  1.8311  2.6041
  910MOL0     H22808  12.708   2.172   6.960  3.2195  0.9913  0.9844
  910MOL0     H22809  12.731   2.251   6.801 -1.0920  0.0275 -2.6184
  910MOL0     H22810  12.981   2.188   6.634  1.7586 -0.0103 -1.3033
  910MOL0     H22811  13.129   2.388   6.511  3.1156  1.0975 -1.7507
  910MOL0     H22812  13.270   2.434   6.600 -1.2221  0.3087  5.2884
  910MOL0     H22813  13.242   2.260   6.556  1.6612  1.6361 -3.1829
  910MOL0     H22814  13.095   2.839   6.978 -1.3204  2.2713 -0.6893
  910MOL0     H22815  13.181   3.072   6.978  0.2463  1.4075 -0.1380
  910MOL0     H22816  13.199   3.236   6.816 -1.0526 -1.3980  2.0273
  910MOL0     H22817  13.290   3.281   6.958 -1.9939  0.2835 -0.6548
  910MOL0     H22818  13.460   3.379   6.824 -0.3204 -4.4821  1.9682
  910MOL0     H22819  13.355   3.367   6.680 -0.7567 -2.0294  1.3197
  910MOL0     H22820  13.295   3.523   6.941  1.0313  1.4948 -1.0557
  910MOL0     H22821  13.197   3.522   6.788 -0.1693  1.0350  1.3111
  910MOL0     H22822  13.475   3.652   6.841  0.0563 -3.7314  0.3295
  910MOL0     H22823  13.406   3.654   6.687 -3.6721  1.1521 -1.1763
  910MOL0     H22824  13.264   3.765   6.935  1.7569  3.7494  1.2447
  910MOL0     H22825  13.203   3.759   6.762 -0.5533  0.5238 -0.0003
  910MOL0     H22826  13.463   3.895   6.825 -0.0988  0.7714  4.7523
  910MOL0     H22827  13.329   3.928   6.708 -0.8775  1.5355  0.7992
  910MOL0     H22828  13.330   3.972   6.998  1.6216 -2.8746 -0.7328
  910MOL0     H22829  13.184   3.993   6.899 -0.7409 -2.1791  0.1232
  910MOL0     H22830  13.453   4.154   6.851  0.3981 -0.9359  0.6699
  910MOL0     H22831  13.321   4.201   6.955 -0.9303 -2.2656  2.1647
  910MOL0     H22832  13.486   2.935   6.700 -0.2831 -2.2151 -1.0520
  910MOL0     H22833  13.376   2.707   6.715 -1.7655 -4.0479  4.3705
  910MOL0     H22834  13.133   2.369   7.062  1.0334 -2.3916  0.6545
  910MOL0     H22835  12.976   2.200   7.063  0.5644 -1.8141 -0.5506
  910MOL0     H22836  11.094   2.302   7.258  0.3171 -0.7417 -0.8116
  910MOL0     H22837  10.854   2.280   7.219 -1.0988  0.7727 -1.7524
  910MOL0     H22838  10.457   2.402   7.252 -1.3530 -2.0399  0.5351
  910MOL0     H22839  10.243   2.400   7.283  2.4993  0.2281  2.3883
  910MOL0     H22840  10.013   2.312   7.236 -2.1429 -0.1357  1.4098
  910MOL0     H22841  10.004   2.469   7.311  0.3718 -3.3341  2.4729
  910MOL0     H22842   9.779   2.354   7.293 -2.6685 -1.9147 -1.7575
  910MOL0     H22843   9.804   2.320   7.130 -0.0916 -1.3310  1.1492
  910MOL0     H22844   9.705   2.513   7.069  2.0136  2.4729 -0.1436
  910MOL0     H22845   9.819   2.617   7.142 -2.8174  1.7786 -0.3804
  910MOL0     H22846   9.584   2.492   7.284 -3.3159  2.4029  2.4169
  910MOL0     H22847   9.597   2.673   7.234  1.8464  1.3040 -0.4318
  910MOL0     H22848   9.751   2.699   7.597  2.4102  0.4382 -1.1959
  910MOL0     H22849  10.162   2.530   6.889 -2.3674 -0.0024  1.3741
  910MOL0     H22850  10.406   2.558   6.864  1.4929 -1.3354  0.7233
  911MOL0     O22851   7.313   3.125  10.508  0.5911 -0.8417 -0.5092
  911MOL0     C22852   7.300   3.107  10.631  0.7193  0.1710  0.4377
  911MOL0     O22853   7.194   3.051  10.694 -0.2844  0.1301 -0.3565
  911MOL0     C22854   7.073   3.039  10.633 -0.0561 -0.7175  0.3806
  911MOL0     C22855   6.996   3.156  10.627  0.5304  0.1974 -0.2415
  911MOL0     C22856   6.864   3.144  10.579  0.1351  0.3595  0.7009
  911MOL0     C22857   6.792   3.028  10.546 -0.2915 -0.0275 -0.8492
  911MOL0     O22858   6.662   3.012  10.507  0.0684 -0.1561 -0.3325
  911MOL0     C22859   6.603   3.135  10.453 -0.6210 -0.4260  0.3745
  911MOL0     C22860   6.453   3.118  10.426  0.0529 -0.2890  0.0959
  911MOL0     C22861   6.374   3.143  10.552  0.2469 -0.6086 -0.9688
  911MOL0     C22862   6.223   3.166  10.518 -0.5674 -0.5522 -0.5661
  911MOL0     C22863   6.153   3.050  10.448  0.1785 -0.1136 -0.0219
  911MOL0     C22864   6.003   3.050  10.441 -0.4946 -0.4455 -1.6515
  911MOL0     C22865   5.943   2.922  10.380  0.3177 -1.0252 -1.2571
  911MOL0     C22866   5.871   2.857  10.495  0.1519 -0.0610 -0.7700
  911MOL0     N22867   5.954   2.824  10.615  0.4271  0.2795 -0.1009
  911MOL0     C22868   6.052   2.744  10.617  0.0203 -0.2790 -0.6485
  911MOL0     C22869   6.085   2.727  10.751 -0.5841 -0.4625 -0.2096
  911MOL0     C22870   6.203   2.644  10.796 -1.3220 -1.4889  0.5013
  911MOL0     C22871   6.305   2.754  10.835 -0.6783 -0.0081  0.2190
  911MOL0     C22872   6.432   2.726  10.753 -0.2917  0.6803 -0.2229
  911MOL0     C22873   6.552   2.786  10.801  0.7865 -0.1762 -0.0595
  911MOL0     O22874   6.527   2.924  10.816 -0.4692 -0.0429  0.1299
  911MOL0     C22875   6.626   2.982  10.902  0.6223 -0.2734 -0.6166
  911MOL0     C22876   6.763   2.945  10.910 -0.1286  0.5088 -0.3872
  911MOL0     C22877   6.852   2.999  11.003  0.4254 -0.0961  0.3936
  911MOL0     C22878   6.999   2.956  10.999 -0.5662  0.0830  0.1856
  911MOL0     C22879   6.806   3.100  11.088  0.8494  0.4785 -0.8523
  911MOL0     C22880   6.884   3.152  11.207 -0.9319  1.1174  0.1926
  911MOL0     O22881   7.019   3.143  11.202 -0.9909  0.3638  0.4692
  911MOL0     C22882   7.099   3.189  11.307  0.7488  0.6499 -0.1194
  911MOL0     C22883   7.118   3.106  11.422  0.1329  0.5923  0.0096
  911MOL0     C22884   7.195   3.139  11.529 -0.0013  0.1642  0.0404
  911MOL0     C22885   7.247   3.269  11.530  0.6391  0.8443  0.4968
  911MOL0     O22886   7.316   3.313  11.636 -1.2850 -0.5308  0.5717
  911MOL0     C22887   7.283   3.276  11.772 -0.0822 -0.3943 -0.0811
  911MOL0     C22888   7.406   3.330  11.852  0.3142  0.6840 -0.4994
  911MOL0     C22889   7.440   3.277  11.998 -0.4818  0.2399 -0.0199
  911MOL0     C22890   7.488   3.130  12.013 -0.5447  0.0645  0.3228
  911MOL0     C22891   7.609   3.083  11.927 -0.2649 -0.3434 -0.0497
  911MOL0     C22892   7.654   2.940  11.953 -0.2123  0.0706  0.2540
  911MOL0     C22893   7.753   2.885  11.849 -0.4841 -0.9105 -0.4616
  911MOL0     C22894   7.888   2.958  11.856 -0.0920 -0.5769  0.0928
  911MOL0    Cl22895   7.973   2.912  12.010 -0.0245  0.0662  0.4584
  911MOL0     C22896   7.231   3.350  11.416 -0.1015 -0.5706  0.3283
  911MOL0     C22897   7.161   3.311  11.304 -0.3473 -0.5656 -0.3615
  911MOL0     O22898   6.831   3.183  11.311  0.0211  0.1590  0.1311
  911MOL0     C22899   6.677   3.146  11.072 -0.9208 -0.5158  0.3209
  911MOL0     C22900   6.588   3.088  10.982 -0.0612 -0.0518  0.6843
  911MOL0     N22901   5.986   2.793  10.832 -0.4292  0.3774 -0.0638
  911MOL0     N22902   5.907   2.843  10.743 -0.1006  0.2000 -0.2490
  911MOL0     C22903   6.869   2.914  10.564 -0.1311  1.1611 -0.3031
  911MOL0     C22904   7.012   2.918  10.593  1.0928  0.0975 -0.7176
  911MOL0     C22905   7.410   3.132  10.731  0.1957 -0.1365 -0.9093
  911MOL0     C22906   7.536   3.159  10.692  0.4242  0.0671  1.3268
  911MOL0     C22907   7.639   3.186  10.783  0.0679 -1.8206  1.1267
  911MOL0     C22908   7.600   3.220  10.912  0.0525 -0.8215 -0.0127
  911MOL0     O22909   7.681   3.260  11.011 -0.0235  0.3909 -0.7356
  911MOL0     C22910   7.776   3.365  10.990  0.2916  0.5450  0.8288
  911MOL0     C22911   7.840   3.388  11.124 -0.8639 -0.0797  0.1317
  911MOL0     C22912   7.924   3.516  11.135  0.3505 -0.1165  0.5134
  911MOL0     C22913   8.057   3.496  11.059  0.2972  0.8157 -0.2757
  911MOL0     C22914   8.123   3.608  11.109  0.2263 -1.2157  0.2348
  911MOL0     C22915   8.188   3.703  11.139  0.0329  0.1978  0.4976
  911MOL0     C22916   7.470   3.212  10.955 -0.4462  0.0232 -0.1924
  911MOL0     C22917   7.373   3.166  10.863 -0.2664 -0.8656 -0.8158
  911MOL0     H22918   7.035   3.253  10.656 -0.5114  1.7133 -3.4704
  911MOL0     H22919   6.804   3.234  10.591 -0.7437 -0.0368 -0.5175
  911MOL0     H22920   6.628   3.225  10.510 -0.4647  0.5643 -1.1914
  911MOL0     H22921   6.648   3.152  10.355  0.4841 -0.5959  0.8398
  911MOL0     H22922   6.405   3.186  10.354 -2.0694  1.4713  2.9575
  911MOL0     H22923   6.444   3.012  10.401 -3.4948 -0.2091  0.5570
  911MOL0     H22924   6.379   3.066  10.629 -4.0323 -1.9207 -1.6769
  911MOL0     H22925   6.415   3.237  10.591 -0.9858 -1.0983  1.7304
  911MOL0     H22926   6.185   3.175  10.620 -1.6148 -2.5290 -0.7313
  911MOL0     H22927   6.216   3.264  10.469  1.2224 -0.1897 -0.1351
  911MOL0     H22928   6.181   3.056  10.342  0.8341 -1.9775  0.0048
  911MOL0     H22929   6.187   2.952  10.485 -0.9844 -0.4046  0.2916
  911MOL0     H22930   5.960   3.075  10.539  1.4855  0.7175 -1.0189
  911MOL0     H22931   5.971   3.133  10.377 -2.1718  0.2553 -0.0037
  911MOL0     H22932   5.873   2.947  10.300  0.0636 -1.1920 -1.0868
  911MOL0     H22933   6.015   2.849  10.341 -0.7092 -2.5042 -0.4897
  911MOL0     H22934   5.824   2.764  10.462  1.7850 -0.5464 -1.8627
  911MOL0     H22935   5.801   2.939  10.513  1.2308  1.3559 -2.6046
  911MOL0     H22936   6.113   2.700  10.539  2.7143  0.0513  1.1044
  911MOL0     H22937   6.172   2.592  10.887 -2.5404  0.7040  1.4348
  911MOL0     H22938   6.231   2.573  10.717 -0.0113 -0.7431  0.2765
  911MOL0     H22939   6.336   2.742  10.939 -0.4732 -2.1374 -0.0384
  911MOL0     H22940   6.268   2.855  10.812 -0.4175  0.0856  0.2087
  911MOL0     H22941   6.420   2.746  10.646 -1.5982  0.8117 -0.0695
  911MOL0     H22942   6.440   2.617  10.758 -3.4531  0.2318 -2.1161
  911MOL0     H22943   6.633   2.774  10.730 -0.6753  0.5116 -1.9281
  911MOL0     H22944   6.591   2.740  10.893 -1.0285 -4.7831 -1.3020
  911MOL0     H22945   6.795   2.863  10.847  0.2019 -0.7866  1.3842
  911MOL0     H22946   7.053   3.041  10.958  0.3464 -0.2771  0.5993
  911MOL0     H22947   7.040   2.923  11.095 -4.0383 -2.4821  0.9771
  911MOL0     H22948   7.020   2.879  10.924  1.8642  3.3877 -2.8382
  911MOL0     H22949   7.067   3.011  11.438  1.4917  0.0706  1.5589
  911MOL0     H22950   7.199   3.066  11.610  1.2950 -0.6873 -0.7456
  911MOL0     H22951   7.192   3.326  11.808  1.7950  2.0668  1.6359
  911MOL0     H22952   7.272   3.168  11.783 -0.8174 -0.3501 -0.3251
  911MOL0     H22953   7.490   3.318  11.783  0.1126  3.9671 -1.4790
  911MOL0     H22954   7.404   3.439  11.860 -1.2164  0.5433  2.7161
  911MOL0     H22955   7.357   3.287  12.069  1.5166 -2.6004  3.0030
  911MOL0     H22956   7.512   3.342  12.050  0.4458  0.0427 -1.0338
  911MOL0     H22957   7.520   3.123  12.117  0.9034 -2.1479 -0.2060
  911MOL0     H22958   7.404   3.065  11.987 -0.9176  1.0221 -0.9847
  911MOL0     H22959   7.687   3.155  11.952  0.4564 -0.9863 -0.4180
  911MOL0     H22960   7.579   3.096  11.822 -2.9497  0.0260  0.6687
  911MOL0     H22961   7.698   2.935  12.053 -1.6400 -3.1149  0.8709
  911MOL0     H22962   7.566   2.874  11.955  0.8475 -1.6200 -2.5322
  911MOL0     H22963   7.709   2.910  11.752 -2.9557  2.2022  1.2490
  911MOL0     H22964   7.764   2.778  11.866 -0.3464 -0.6334  1.4197
  911MOL0     H22965   7.874   3.066  11.843 -1.8215 -1.1043 -4.3859
  911MOL0     H22966   7.939   2.919  11.767  1.7155  3.2672 -0.7733
  911MOL0     H22967   7.289   3.442  11.425 -1.2101  0.1635  0.2313
  911MOL0     H22968   7.163   3.376  11.216 -2.3650  0.3215  0.1726
  911MOL0     H22969   6.645   3.231  11.130 -1.7295 -1.0973  0.7577
  911MOL0     H22970   6.487   3.127  10.982 -0.2831 -0.0349 -4.2378
  911MOL0     H22971   6.826   2.814  10.563  1.5293  0.3925  0.4481
  911MOL0     H22972   7.064   2.823  10.601 -2.0246 -1.5744  1.2891
  911MOL0     H22973   7.553   3.131  10.588 -0.8436 -2.8735  1.8117
  911MOL0     H22974   7.744   3.178  10.755  0.1944 -0.7427  1.2780
  911MOL0     H22975   7.840   3.326  10.910  1.3647  0.3815  1.7589
  911MOL0     H22976   7.719   3.449  10.948  1.0742  0.5614 -0.2545
  911MOL0     H22977   7.898   3.296  11.134 -0.6984  0.2679  3.1349
  911MOL0     H22978   7.766   3.393  11.204 -0.9177  2.5575  0.0244
  911MOL0     H22979   7.939   3.531  11.243  1.3404  0.4437  0.3115
  911MOL0     H22980   7.878   3.610  11.105  2.6963  1.0156  0.2408
  911MOL0     H22981   8.045   3.485  10.951  1.5114 -1.2837 -0.2476
  911MOL0     H22982   8.096   3.403  11.103 -1.6102  0.3025  0.4500
  911MOL0     H22983   8.234   3.795  11.168 -1.9441  2.1392 -2.0553
  911MOL0     H22984   7.434   3.242  11.053 -3.5942 -0.1688 -1.1589
  911MOL0     H22985   7.269   3.168  10.895  0.4756 -0.0391  1.7694
  912MOL0     O22986   4.223  10.559   0.681  0.6238 -0.4970  0.3262
  912MOL0     C22987   4.310  10.643   0.692  0.8656 -1.0027 -0.3250
  912MOL0     O22988   4.389  10.654   0.801  0.5406  0.7707  0.3755
  912MOL0     C22989   4.411  10.550   0.890  0.3683 -0.1540 -0.7295
  912MOL0     C22990   4.486  10.585   1.000 -0.4629 -0.6283  0.0205
  912MOL0     C22991   4.517  10.497   1.100 -0.4315 -1.0385  0.3529
  912MOL0     C22992   4.469  10.366   1.104 -0.1413  0.6430 -1.1789
  912MOL0     O22993   4.479  10.279   1.212 -0.1920 -0.3675 -0.3135
  912MOL0     C22994   4.476  10.324   1.347 -0.6354  0.1522 -0.5723
  912MOL0     C22995   4.435  10.217   1.457  0.6717 -0.1420 -0.3355
  912MOL0     C22996   4.294  10.197   1.463  0.3962  1.0893  0.5224
  912MOL0     C22997   4.235  10.059   1.417 -0.0745  0.1907 -0.8536
  912MOL0     C22998   4.207  10.083   1.268 -0.2635  0.1647 -0.1002
  912MOL0     C22999   4.072  10.149   1.250  0.3393  0.2994  0.4661
  912MOL0     C23000   4.071  10.220   1.118  0.5554  0.0579  0.4582
  912MOL0     C23001   3.934  10.292   1.100  0.7869  0.4705  0.6154
  912MOL0     N23002   3.896  10.354   0.972  0.6278 -0.8816  0.2090
  912MOL0     C23003   3.933  10.478   0.927  0.2809  0.2094 -1.2112
  912MOL0     C23004   3.879  10.487   0.804  0.3231  0.0519 -0.6760
  912MOL0     C23005   3.894  10.606   0.721 -0.3101 -0.2118  0.1709
  912MOL0     C23006   3.759  10.679   0.699  0.6271 -0.3931 -0.2746
  912MOL0     C23007   3.680  10.699   0.830 -0.6470 -0.3072  0.2671
  912MOL0     C23008   3.557  10.798   0.801  0.5239 -0.8492  0.6498
  912MOL0     O23009   3.566  10.906   0.707 -0.2352 -0.1910 -0.2585
  912MOL0     C23010   3.471  11.004   0.706 -0.9725  0.6905  0.1356
  912MOL0     C23011   3.339  10.988   0.747 -0.9988 -0.5669 -0.0256
  912MOL0     C23012   3.247  11.091   0.737  0.0375 -0.1789  0.2863
  912MOL0     C23013   3.100  11.052   0.771  0.2096  0.3427 -0.6803
  912MOL0     C23014   3.284  11.223   0.695  0.9803  0.3638  0.1468
  912MOL0     C23015   3.197  11.339   0.686 -0.1779 -0.0239 -0.6578
  912MOL0     O23016   3.250  11.447   0.612 -0.1673 -0.1083  0.0517
  912MOL0     C23017   3.167  11.552   0.597  0.6521 -1.0302 -0.0067
  912MOL0     C23018   3.194  11.691   0.626  0.1476 -0.0051 -0.3532
  912MOL0     C23019   3.089  11.791   0.616 -0.3166 -0.3848 -0.4455
  912MOL0     C23020   2.968  11.765   0.557  0.8333 -0.6206  0.7484
  912MOL0     O23021   2.872  11.861   0.535  0.3111  0.3849 -0.3701
  912MOL0     C23022   2.816  11.930   0.645  0.5925 -0.9287 -0.3229
  912MOL0     C23023   2.777  11.825   0.753  0.3295 -0.0717  0.0078
  912MOL0     C23024   2.663  11.878   0.842 -0.1317  0.6499 -0.3894
  912MOL0     C23025   2.711  11.971   0.963 -0.1738  0.4911 -0.2263
  912MOL0     C23026   2.582  12.049   1.022 -0.0261 -0.2307  0.2297
  912MOL0     C23027   2.622  12.130   1.145  0.0898  0.5813  0.8437
  912MOL0     C23028   2.632  12.050   1.271  0.2171  0.4211  0.2432
  912MOL0     C23029   2.668  12.136   1.386 -0.1417  0.1898 -0.4246
  912MOL0    Cl23030   2.666  12.038   1.531  0.1963 -0.4883 -0.3971
  912MOL0     C23031   2.948  11.636   0.517 -0.7659 -0.5589  0.7847
  912MOL0     C23032   3.043  11.540   0.525  0.4397  1.4532 -0.7732
  912MOL0     O23033   3.090  11.338   0.739 -0.0440  0.9273  0.3343
  912MOL0     C23034   3.417  11.231   0.651 -0.3207  0.6220  0.6736
  912MOL0     C23035   3.509  11.125   0.655 -0.0055  1.2014  0.0544
  912MOL0     N23036   3.811  10.369   0.773 -0.5706  0.6460  0.8015
  912MOL0     N23037   3.826  10.287   0.877 -0.2903  0.3411  0.9887
  912MOL0     C23038   4.395  10.329   0.997  0.0828  0.0665 -0.4977
  912MOL0     C23039   4.362  10.421   0.893  0.8835 -0.8088 -0.2304
  912MOL0     C23040   4.319  10.749   0.583 -0.1916  0.9911  0.2718
  912MOL0     C23041   4.417  10.843   0.598 -1.0614 -0.5718  0.5644
  912MOL0     C23042   4.436  10.931   0.494 -0.2035  0.7982 -0.0304
  912MOL0     C23043   4.360  10.924   0.379  0.5939  0.2802 -0.3533
  912MOL0     O23044   4.388  11.019   0.285  0.0666 -0.2464  0.1423
  912MOL0     C23045   4.341  11.007   0.150  0.5798 -0.0794  0.3872
  912MOL0     C23046   4.189  11.060   0.119 -0.5001 -0.3745 -0.0721
  912MOL0     C23047   4.178  11.103  -0.027  0.0297  0.1041  1.1608
  912MOL0     C23048   4.036  11.147  -0.047 -0.2797  0.2504 -0.6085
  912MOL0     C23049   3.941  11.040  -0.056  0.3830  0.6314 -1.4816
  912MOL0     C23050   3.847  10.959  -0.057 -0.2032  0.5739  0.1461
  912MOL0     C23051   4.273  10.813   0.356  0.8065 -0.1734 -0.8048
  912MOL0     C23052   4.247  10.724   0.462 -0.5124  0.4445 -0.4390
  912MOL0     H23053   4.521  10.687   1.010 -2.7299  0.4367 -1.7703
  912MOL0     H23054   4.579  10.531   1.182 -1.9197  0.2075  1.0124
  912MOL0     H23055   4.577  10.356   1.375 -0.5221 -1.7662  1.5161
  912MOL0     H23056   4.411  10.409   1.369 -0.9319  0.1190 -1.2884
  912MOL0     H23057   4.496  10.127   1.450  3.0406  1.2089  1.1608
  912MOL0     H23058   4.465  10.262   1.552  0.0093  0.6684 -0.4913
  912MOL0     H23059   4.270  10.204   1.570  0.7290 -0.4441  0.7277
  912MOL0     H23060   4.235  10.275   1.414 -0.6856  0.4027  0.6815
  912MOL0     H23061   4.297   9.971   1.436 -1.0426  0.0398  1.9929
  912MOL0     H23062   4.146  10.054   1.479 -0.3183  3.7400 -0.6984
  912MOL0     H23063   4.287  10.129   1.209  1.8970 -2.7493  0.3202
  912MOL0     H23064   4.193   9.981   1.230  1.6775 -0.2675  0.2685
  912MOL0     H23065   3.998  10.070   1.234  0.8426 -0.5748  2.1724
  912MOL0     H23066   4.044  10.207   1.339 -1.5115  0.2831 -0.0676
  912MOL0     H23067   4.148  10.297   1.105 -1.0174  1.4573 -0.8753
  912MOL0     H23068   4.075  10.142   1.041  1.0050  1.4732 -1.0221
  912MOL0     H23069   3.938  10.368   1.179  0.0943  0.0319  1.0821
  912MOL0     H23070   3.853  10.233   1.143  0.8931  0.4042  0.7273
  912MOL0     H23071   3.998  10.554   0.970  1.4372 -0.3530 -1.9157
  912MOL0     H23072   3.969  10.669   0.770 -0.9006  0.4845  0.1986
  912MOL0     H23073   3.930  10.570   0.625  1.2511  1.3466  0.1220
  912MOL0     H23074   3.696  10.623   0.629  2.6314  1.0638 -3.5236
  912MOL0     H23075   3.774  10.766   0.635 -2.7061 -0.7397 -1.7022
  912MOL0     H23076   3.754  10.736   0.902  0.2364 -0.8733 -0.3380
  912MOL0     H23077   3.637  10.606   0.869 -0.7796 -0.0177  0.8263
  912MOL0     H23078   3.527  10.830   0.901 -0.1672 -0.6958  0.3990
  912MOL0     H23079   3.482  10.724   0.770  1.3199 -1.3803 -0.0622
  912MOL0     H23080   3.320  10.887   0.783  0.0764 -1.2786 -1.3331
  912MOL0     H23081   3.037  11.094   0.692 -0.7144  0.9572  0.3606
  912MOL0     H23082   3.093  10.943   0.771  1.6912  0.2047  1.3459
  912MOL0     H23083   3.062  11.097   0.863 -4.1500 -0.0751 -2.0111
  912MOL0     H23084   3.284  11.720   0.680  0.2434 -1.9659  0.6420
  912MOL0     H23085   3.102  11.894   0.646  0.6525 -0.8083  0.6511
  912MOL0     H23086   2.884  12.008   0.680 -1.6215 -0.0983  2.4674
  912MOL0     H23087   2.731  11.990   0.610  2.6281  0.1071 -4.1205
  912MOL0     H23088   2.748  11.741   0.690  1.5859 -0.4246 -0.1241
  912MOL0     H23089   2.862  11.783   0.808 -0.4640 -0.6473  0.8313
  912MOL0     H23090   2.604  11.796   0.885 -0.3421  2.5670  3.4879
  912MOL0     H23091   2.602  11.936   0.773  2.4650  3.7675 -0.2825
  912MOL0     H23092   2.768  11.929   1.047 -1.7323  0.7080  0.9923
  912MOL0     H23093   2.772  12.047   0.914  2.0735 -2.1241 -1.7628
  912MOL0     H23094   2.512  11.969   1.046  2.8306 -2.2748  2.4342
  912MOL0     H23095   2.546  12.114   0.942 -0.6840  0.0561  0.7424
  912MOL0     H23096   2.709  12.191   1.119 -0.8257  0.9418 -1.7011
  912MOL0     H23097   2.547  12.208   1.156 -0.1768  0.5374 -0.4970
  912MOL0     H23098   2.699  11.964   1.270  0.8091  0.8006 -3.1399
  912MOL0     H23099   2.529  12.024   1.297  0.6973 -2.2061 -0.2922
  912MOL0     H23100   2.601  12.222   1.385  1.5536  1.5681 -0.7932
  912MOL0     H23101   2.767  12.182   1.375 -0.6612  1.4779  0.1014
  912MOL0     H23102   2.849  11.617   0.479 -1.6890  2.2167  1.5234
  912MOL0     H23103   3.017  11.440   0.490  0.0955  2.0250 -2.2370
  912MOL0     H23104   3.468  11.322   0.624  1.4325  0.3187  2.6869
  912MOL0     H23105   3.611  11.140   0.619  0.3597 -0.6623  0.1739
  912MOL0     H23106   4.348  10.231   0.995 -0.5594  0.2623  2.1985
  912MOL0     H23107   4.302  10.373   0.816  1.2038 -2.4207  0.4738
  912MOL0     H23108   4.485  10.844   0.682 -0.1473 -1.2793 -0.1560
  912MOL0     H23109   4.519  11.000   0.484 -0.0924  0.3953 -2.5066
  912MOL0     H23110   4.414  11.064   0.091  2.6632 -1.7123  1.2382
  912MOL0     H23111   4.356  10.910   0.101 -1.0119  1.1366 -2.7623
  912MOL0     H23112   4.166  11.145   0.185  0.8018  2.3359 -2.8581
  912MOL0     H23113   4.112  10.984   0.134  1.2741 -1.9246  1.8974
  912MOL0     H23114   4.208  11.032  -0.105  1.9785  1.2771  0.7896
  912MOL0     H23115   4.246  11.188  -0.032 -1.8852  1.7698  2.1546
  912MOL0     H23116   4.032  11.186  -0.149 -1.8779  1.5459 -0.0844
  912MOL0     H23117   4.011  11.224   0.027  0.8802 -1.1984  1.3856
  912MOL0     H23118   3.760  10.899  -0.076  0.7790 -0.9796  0.3343
  912MOL0     H23119   4.217  10.788   0.266  3.8003 -0.7628 -2.6530
  912MOL0     H23120   4.179  10.641   0.445 -1.5444  1.1799  0.0274
  913MOL0     O23121   9.914   4.507   9.362 -0.5719  0.0163  0.5433
  913MOL0     C23122   9.811   4.570   9.398 -0.4125 -0.5527  0.0496
  913MOL0     O23123   9.751   4.682   9.343 -0.3930  0.0373 -0.2697
  913MOL0     C23124   9.834   4.741   9.248 -1.0204  0.1461 -0.4156
  913MOL0     C23125   9.875   4.684   9.131  0.4165  0.1610 -0.6615
  913MOL0     C23126   9.955   4.755   9.046 -0.5184  0.3634  0.3358
  913MOL0     C23127  10.003   4.878   9.080 -0.4143 -0.8428 -0.1471
  913MOL0     O23128  10.089   4.931   8.992 -0.2292 -0.4603 -0.3604
  913MOL0     C23129  10.134   5.071   9.015  0.1828  0.8931 -0.1513
  913MOL0     C23130  10.254   5.103   8.917  0.2317  0.7719 -0.7339
  913MOL0     C23131  10.217   5.107   8.766 -0.6736 -0.7863 -0.4560
  913MOL0     C23132  10.164   4.976   8.710 -0.3392  0.1102 -0.4384
  913MOL0     C23133  10.161   4.985   8.559  0.0629 -0.7748  0.6383
  913MOL0     C23134  10.292   4.960   8.488  0.5555 -0.2956 -0.0176
  913MOL0     C23135  10.278   4.988   8.343 -0.0696  0.2525  0.4051
  913MOL0     C23136  10.411   4.978   8.270 -0.6020 -0.4657 -0.0882
  913MOL0     N23137  10.400   4.911   8.136 -0.7378 -1.0151  0.6708
  913MOL0     C23138  10.348   4.783   8.118 -0.1969 -0.1143 -0.2012
  913MOL0     C23139  10.336   4.778   7.979  0.1573  0.2389  0.3725
  913MOL0     C23140  10.268   4.660   7.909  0.0278  0.3355 -0.1775
  913MOL0     C23141  10.279   4.681   7.754 -0.2893 -0.2012 -0.2269
  913MOL0     C23142  10.246   4.557   7.674  0.5943 -0.6424  1.0098
  913MOL0     C23143  10.107   4.511   7.709 -0.6334 -0.0817 -0.1430
  913MOL0     O23144  10.031   4.458   7.598  0.3951  0.8283 -0.4389
  913MOL0     C23145   9.920   4.380   7.616  0.3246  0.5055  0.9064
  913MOL0     C23146   9.949   4.249   7.609 -0.2378  0.7395  1.1579
  913MOL0     C23147   9.851   4.153   7.627 -0.8575 -0.7836 -0.5510
  913MOL0     C23148   9.898   4.016   7.601  0.3640 -0.2386 -0.6693
  913MOL0     C23149   9.724   4.192   7.662 -0.4403 -0.0596 -0.0181
  913MOL0     C23150   9.618   4.094   7.699 -0.1843  0.3863 -0.6817
  913MOL0     O23151   9.619   3.962   7.657 -1.3245  0.1348  0.0585
  913MOL0     C23152   9.531   3.874   7.715  1.0466  1.0410  1.0367
  913MOL0     C23153   9.392   3.871   7.682  0.6086 -0.4000  0.9426
  913MOL0     C23154   9.308   3.782   7.744 -0.3904 -0.1766 -0.4784
  913MOL0     C23155   9.349   3.695   7.855  0.8526 -0.6849 -0.6417
  913MOL0     O23156   9.271   3.618   7.933 -0.0922 -0.0867 -0.3443
  913MOL0     C23157   9.131   3.589   7.886 -0.5351 -0.3528 -0.0599
  913MOL0     C23158   9.067   3.517   7.998  1.0797 -0.6892 -0.2457
  913MOL0     C23159   9.085   3.365   7.981  0.9495  0.0583 -0.6953
  913MOL0     C23160   9.028   3.281   8.094 -0.5738  0.1719 -0.9125
  913MOL0     C23161   9.120   3.274   8.214  0.3342 -0.2331  0.4432
  913MOL0     C23162   9.238   3.202   8.192 -1.2641  0.6622 -0.5512
  913MOL0     C23163   9.205   3.056   8.215  0.2726  0.0441 -0.2497
  913MOL0     C23164   9.340   2.981   8.185 -0.2052 -0.3130  0.3799
  913MOL0    Cl23165   9.365   3.000   8.004 -0.5003  0.0225  0.4082
  913MOL0     C23166   9.488   3.694   7.886 -0.5849  0.0036  0.7795
  913MOL0     C23167   9.575   3.779   7.810 -0.0652  0.0536  0.8288
  913MOL0     O23168   9.520   4.138   7.766 -0.9624 -0.7201 -0.0609
  913MOL0     C23169   9.695   4.328   7.666  0.0185 -0.3474  0.1843
  913MOL0     C23170   9.801   4.422   7.651 -0.4932  0.0360 -0.2188
  913MOL0     N23171  10.397   4.890   7.919 -0.2988 -0.4635  0.5995
  913MOL0     N23172  10.420   4.971   8.013  1.1498  0.3313 -0.1491
  913MOL0     C23173   9.967   4.934   9.205 -0.2590  0.5160 -0.0780
  913MOL0     C23174   9.878   4.871   9.287 -0.5800  1.3164  0.1876
  913MOL0     C23175   9.750   4.521   9.513  0.2381 -0.1944  0.2579
  913MOL0     C23176   9.744   4.382   9.542 -0.8947  0.4440 -0.5070
  913MOL0     C23177   9.672   4.330   9.654 -0.9218  0.4374  0.4739
  913MOL0     C23178   9.605   4.420   9.742 -0.1328 -0.3942  0.3536
  913MOL0     O23179   9.529   4.357   9.846 -0.5652  0.2225  0.5816
  913MOL0     C23180   9.430   4.435   9.922 -0.9163 -0.4168 -0.1541
  913MOL0     C23181   9.322   4.358   9.989 -0.4575  0.2890  0.1396
  913MOL0     C23182   9.356   4.223  10.056  0.0143  0.0819  0.0291
  913MOL0     C23183   9.412   4.249  10.196  0.1324 -0.5906  0.1066
  913MOL0     C23184   9.306   4.301  10.283 -0.6240 -0.0684 -0.1894
  913MOL0     C23185   9.224   4.346  10.368 -0.0354 -0.0605  0.4725
  913MOL0     C23186   9.607   4.554   9.710  0.7547  0.4413  0.6384
  913MOL0     C23187   9.679   4.605   9.599 -0.2537  0.6953  0.0284
  913MOL0     H23188   9.824   4.593   9.102 -0.8075  0.7904 -0.5706
  913MOL0     H23189   9.979   4.710   8.950 -0.5795 -1.5021  1.1582
  913MOL0     H23190  10.056   5.149   9.018  1.3544  2.1019 -0.1776
  913MOL0     H23191  10.174   5.075   9.117  1.1299  1.5405 -0.5333
  913MOL0     H23192  10.305   5.196   8.944  0.0451  0.9821 -1.1034
  913MOL0     H23193  10.320   5.019   8.939 -1.3273 -0.0872  0.8593
  913MOL0     H23194  10.137   5.180   8.755  0.0293 -0.0665 -0.9136
  913MOL0     H23195  10.297   5.153   8.708 -1.2273 -1.4251 -1.7518
  913MOL0     H23196  10.236   4.898   8.734  0.0358  0.1274 -1.4508
  913MOL0     H23197  10.060   4.967   8.741 -0.6321  2.9492 -0.3422
  913MOL0     H23198  10.084   4.915   8.523 -1.4445  0.6158  1.0322
  913MOL0     H23199  10.116   5.081   8.533  0.2829 -0.9847 -0.6247
  913MOL0     H23200  10.364   5.016   8.549 -1.7393 -0.7937  3.4508
  913MOL0     H23201  10.317   4.854   8.501 -2.5813 -1.1587 -0.2065
  913MOL0     H23202  10.199   4.919   8.312 -0.6263  2.2008 -2.9175
  913MOL0     H23203  10.244   5.091   8.336  0.4892  0.4345  0.3366
  913MOL0     H23204  10.478   4.916   8.331 -2.7871 -0.8429  2.0676
  913MOL0     H23205  10.458   5.076   8.262  0.5349 -1.1213 -2.2974
  913MOL0     H23206  10.287   4.726   8.187 -2.6069  0.9702 -1.2922
  913MOL0     H23207  10.325   4.574   7.944  0.1613  0.4499 -0.1083
  913MOL0     H23208  10.168   4.655   7.953  0.1472  0.7228  0.1465
  913MOL0     H23209  10.383   4.705   7.732 -0.2643 -0.8512 -0.8238
  913MOL0     H23210  10.230   4.773   7.720 -1.3955 -1.2472 -1.5536
  913MOL0     H23211  10.327   4.485   7.689  2.4719  0.1524 -3.6286
  913MOL0     H23212  10.247   4.578   7.567  1.0088 -1.8784  0.7640
  913MOL0     H23213  10.053   4.588   7.766  3.0782  0.4133  3.1502
  913MOL0     H23214  10.127   4.425   7.773 -0.9409  0.4778  0.7304
  913MOL0     H23215  10.047   4.217   7.577 -0.1793  0.9306  1.1459
  913MOL0     H23216   9.986   4.014   7.536  1.0426 -1.0201  0.2378
  913MOL0     H23217   9.930   3.972   7.696 -0.3163 -2.7273 -1.4904
  913MOL0     H23218   9.824   3.949   7.555 -0.3764 -0.9371  1.3877
  913MOL0     H23219   9.347   3.940   7.612 -3.0859 -2.5485  0.9152
  913MOL0     H23220   9.202   3.789   7.725 -1.1242  0.7210  3.1250
  913MOL0     H23221   9.081   3.684   7.865 -3.1649 -1.4638  0.7817
  913MOL0     H23222   9.122   3.528   7.796  0.6074 -2.5340  1.2201
  913MOL0     H23223   9.099   3.554   8.096  1.9925  1.1638 -1.1989
  913MOL0     H23224   8.961   3.544   7.998  1.6349  2.3435  3.5003
  913MOL0     H23225   9.191   3.340   7.967  1.6572  1.5041  1.5194
  913MOL0     H23226   9.033   3.339   7.889  1.0206 -0.2223 -0.6590
  913MOL0     H23227   8.938   3.337   8.123  0.6536  0.7148  2.3017
  913MOL0     H23228   9.011   3.180   8.057 -0.9677 -1.3888  3.0918
  913MOL0     H23229   9.054   3.243   8.295 -0.9411  3.4008  1.0123
  913MOL0     H23230   9.151   3.379   8.225  3.4267 -0.4791 -3.6871
  913MOL0     H23231   9.277   3.217   8.091 -0.8294 -0.3893 -0.5480
  913MOL0     H23232   9.317   3.216   8.266  1.2149 -0.0884 -2.9076
  913MOL0     H23233   9.126   3.013   8.153 -2.5434 -1.3436  3.8555
  913MOL0     H23234   9.167   3.025   8.313 -0.7764 -0.5314 -0.8137
  913MOL0     H23235   9.327   2.875   8.210 -1.8350 -0.2349 -0.0541
  913MOL0     H23236   9.427   3.011   8.244  1.4835  0.0961 -2.1389
  913MOL0     H23237   9.507   3.626   7.968 -1.3178 -0.2154  0.7683
  913MOL0     H23238   9.681   3.764   7.824 -0.3307 -1.3841  1.4641
  913MOL0     H23239   9.597   4.364   7.696 -0.5967  0.6631 -2.6541
  913MOL0     H23240   9.781   4.525   7.682  0.5531  0.6945 -1.6427
  913MOL0     H23241  10.026   5.012   9.252  2.9616 -1.5053 -0.5181
  913MOL0     H23242   9.851   4.896   9.389  1.9869  0.3238  1.1807
  913MOL0     H23243   9.791   4.317   9.469  0.6460 -1.7713  2.2731
  913MOL0     H23244   9.670   4.224   9.676  2.1007  0.1510 -0.2111
  913MOL0     H23245   9.483   4.501   9.992  0.8297  0.3368 -2.0624
  913MOL0     H23246   9.382   4.504   9.852 -0.9939  1.1654  1.3929
  913MOL0     H23247   9.246   4.339   9.912  0.7402  3.7129 -2.1138
  913MOL0     H23248   9.282   4.422  10.068  1.9717 -0.6521  2.2711
  913MOL0     H23249   9.438   4.177  10.001 -1.6655 -1.8479 -1.0365
  913MOL0     H23250   9.266   4.160  10.064 -2.6328  3.3553 -1.4525
  913MOL0     H23251   9.488   4.328  10.194  0.3057 -0.6499  1.9774
  913MOL0     H23252   9.470   4.161  10.228  2.4843  1.1455  0.8888
  913MOL0     H23253   9.166   4.405  10.436  0.3717 -1.6948  2.3063
  913MOL0     H23254   9.553   4.630   9.766  1.4992 -0.1636  2.2275
  913MOL0     H23255   9.676   4.712   9.584  0.4458  0.7778  0.4205
  914MOL0     O23256   0.979   7.507  10.708 -0.2369  0.6629  0.0772
  914MOL0     C23257   0.959   7.393  10.668  0.3072  1.0963  0.6812
  914MOL0     O23258   1.007   7.340  10.553  0.0338 -0.2966  0.1260
  914MOL0     C23259   1.077   7.410  10.463  0.9340 -0.5908  0.5628
  914MOL0     C23260   1.117   7.545  10.462  0.8298  0.1826 -0.1644
  914MOL0     C23261   1.191   7.590  10.357 -0.3590 -0.2335  0.9697
  914MOL0     C23262   1.248   7.511  10.262  0.9246  0.0431  1.2162
  914MOL0     O23263   1.336   7.567  10.169 -0.0590  0.0398  0.0547
  914MOL0     C23264   1.347   7.498  10.038 -0.1964  0.6445  0.0387
  914MOL0     C23265   1.432   7.574   9.931 -0.3797 -0.2024 -0.5927
  914MOL0     C23266   1.438   7.495   9.802  1.1876 -0.6799  0.6304
  914MOL0     C23267   1.537   7.539   9.697 -0.0034  0.4999 -0.2006
  914MOL0     C23268   1.539   7.692   9.685  1.2926 -1.1520  0.3781
  914MOL0     C23269   1.618   7.736   9.556  0.5012  0.0538 -0.4648
  914MOL0     C23270   1.586   7.879   9.497  0.5136  0.3126 -0.2029
  914MOL0     C23271   1.682   7.981   9.549 -0.3230 -0.0082  1.2932
  914MOL0     N23272   1.652   8.123   9.516  0.8707 -0.1233  0.3860
  914MOL0     C23273   1.606   8.169   9.393  0.1049  0.3744 -0.3482
  914MOL0     C23274   1.547   8.287   9.420  0.0307 -0.2040 -0.5632
  914MOL0     C23275   1.476   8.378   9.324 -0.5472  0.1723 -0.3333
  914MOL0     C23276   1.581   8.421   9.224  0.3325 -0.4423  0.9415
  914MOL0     C23277   1.524   8.480   9.100  0.1235 -1.0008 -0.0953
  914MOL0     C23278   1.616   8.600   9.052 -0.2079  0.1051 -0.6110
  914MOL0     O23279   1.550   8.649   8.942 -0.2333 -1.0436 -0.7774
  914MOL0     C23280   1.611   8.735   8.849  0.0012 -0.1066  0.4177
  914MOL0     C23281   1.745   8.717   8.818 -0.6085 -0.1648 -0.3503
  914MOL0     C23282   1.813   8.791   8.723  0.2111  0.3380  0.4875
  914MOL0     C23283   1.956   8.750   8.699  0.4535 -0.1521 -0.3180
  914MOL0     C23284   1.746   8.889   8.645  0.3630 -0.7061  0.2248
  914MOL0     C23285   1.811   8.973   8.534 -0.1588  0.2530 -0.1244
  914MOL0     O23286   1.760   9.093   8.502  0.3119 -0.3840 -0.1849
  914MOL0     C23287   1.826   9.163   8.405 -0.1803  0.4255 -0.0148
  914MOL0     C23288   1.930   9.251   8.432  0.5445  0.2608  0.1651
  914MOL0     C23289   1.977   9.339   8.332  0.4981 -0.0551 -0.2710
  914MOL0     C23290   1.924   9.338   8.204 -0.5063 -0.4834  0.0239
  914MOL0     O23291   1.979   9.424   8.103  0.0610 -0.0105 -0.0714
  914MOL0     C23292   2.112   9.473   8.113  0.9730 -0.1810 -0.5786
  914MOL0     C23293   2.124   9.595   8.031  0.6542 -0.1735 -0.3342
  914MOL0     C23294   2.064   9.572   7.899 -0.3296  1.0020  0.2583
  914MOL0     C23295   2.096   9.703   7.824  0.6574  0.0852  0.0692
  914MOL0     C23296   2.052   9.681   7.679 -0.6241 -1.1556  0.3701
  914MOL0     C23297   2.158   9.768   7.591 -0.1868  0.4693  1.0087
  914MOL0     C23298   2.155   9.916   7.624 -0.1241  0.7662 -0.0654
  914MOL0     C23299   2.217  10.001   7.516 -0.4099 -0.3210  1.3576
  914MOL0    Cl23300   2.373   9.946   7.451  0.1260 -0.1642 -0.3551
  914MOL0     C23301   1.821   9.242   8.175  0.5330 -0.2020  0.1296
  914MOL0     C23302   1.773   9.160   8.273 -0.4132 -0.2071 -0.1187
  914MOL0     O23303   1.909   8.921   8.485  0.9355 -0.2707  0.5155
  914MOL0     C23304   1.608   8.906   8.675  0.5362  0.0678  0.2540
  914MOL0     C23305   1.539   8.834   8.776 -0.3459  0.4000  0.6236
  914MOL0     N23306   1.548   8.298   9.559  0.3204 -1.2876 -1.1250
  914MOL0     N23307   1.606   8.200   9.615  0.3402 -0.0816 -0.5691
  914MOL0     C23308   1.214   7.379  10.274 -0.1778  0.2391 -0.0758
  914MOL0     C23309   1.117   7.327  10.363 -0.2283 -0.6512 -0.4282
  914MOL0     C23310   0.902   7.295  10.768 -0.1665  0.4166  0.7901
  914MOL0     C23311   0.885   7.321  10.904  0.5933  0.3881 -0.1779
  914MOL0     C23312   0.837   7.220  10.989 -0.1705  0.5926 -0.0086
  914MOL0     C23313   0.794   7.099  10.941 -0.5730  0.5071  0.1225
  914MOL0     O23314   0.753   7.008  11.029  0.0553 -0.4432 -0.6979
  914MOL0     C23315   0.733   6.871  10.998  0.1801  0.0924  0.4552
  914MOL0     C23316   0.861   6.799  11.017 -0.2200 -0.3091  0.1212
  914MOL0     C23317   0.894   6.784  11.165  0.3447 -0.1550 -0.6409
  914MOL0     C23318   1.020   6.721  11.197 -0.3637 -0.0238 -0.2334
  914MOL0     C23319   1.028   6.569  11.175  0.0796 -0.1396 -0.3111
  914MOL0     C23320   1.035   6.452  11.150  0.2057 -0.0126 -0.1867
  914MOL0     C23321   0.801   7.078  10.798  0.1349 -0.1794 -0.4352
  914MOL0     C23322   0.861   7.171  10.716  0.1054 -0.2843  0.0327
  914MOL0     H23323   1.074   7.619  10.529 -1.9886 -1.3058 -0.1839
  914MOL0     H23324   1.234   7.689  10.344  2.4091 -1.5608 -1.1286
  914MOL0     H23325   1.395   7.402  10.058 -0.3755  0.3082 -1.0930
  914MOL0     H23326   1.249   7.477   9.995  0.0785  1.6327 -1.1400
  914MOL0     H23327   1.393   7.675   9.918  0.3434  0.3952  1.5462
  914MOL0     H23328   1.535   7.588   9.964 -1.6146  0.9308  3.2677
  914MOL0     H23329   1.450   7.390   9.829 -1.4480 -1.2587 -0.1035
  914MOL0     H23330   1.338   7.491   9.758  1.2741 -0.8182  0.4462
  914MOL0     H23331   1.635   7.495   9.717 -0.8529 -1.8206 -0.7393
  914MOL0     H23332   1.501   7.505   9.599  0.1909  0.4552 -0.2562
  914MOL0     H23333   1.436   7.730   9.682  0.7264 -2.6419 -0.2826
  914MOL0     H23334   1.586   7.742   9.770  0.5937 -0.1067  0.1709
  914MOL0     H23335   1.725   7.718   9.560  1.0915  1.8950 -3.8384
  914MOL0     H23336   1.578   7.679   9.470 -0.9344 -0.5779  0.5694
  914MOL0     H23337   1.585   7.882   9.387 -0.1817 -0.8259 -0.2373
  914MOL0     H23338   1.488   7.919   9.525  0.4543  0.2463 -0.3152
  914MOL0     H23339   1.776   7.964   9.497 -1.1718 -0.6536 -0.0858
  914MOL0     H23340   1.695   7.966   9.657 -0.1908 -0.4461  1.2130
  914MOL0     H23341   1.626   8.116   9.300  0.5755  2.4679 -1.5198
  914MOL0     H23342   1.403   8.329   9.259  1.3278 -1.1270 -1.5602
  914MOL0     H23343   1.436   8.461   9.384 -1.1176  1.7374 -2.7260
  914MOL0     H23344   1.652   8.352   9.178  0.9158  1.8472 -1.8765
  914MOL0     H23345   1.652   8.497   9.258  0.2855  1.4379 -2.7019
  914MOL0     H23346   1.421   8.510   9.119  0.2605 -0.7741  0.2960
  914MOL0     H23347   1.531   8.404   9.021  0.0611  0.7055 -1.8137
  914MOL0     H23348   1.702   8.542   9.016 -0.7869 -1.5783  0.6091
  914MOL0     H23349   1.640   8.684   9.118  3.5628  1.4384 -3.3205
  914MOL0     H23350   1.802   8.639   8.868 -1.0693 -2.8060 -3.6063
  914MOL0     H23351   1.983   8.658   8.752 -2.1874 -1.2460 -0.7253
  914MOL0     H23352   1.968   8.722   8.595 -0.3563  0.4780 -0.5922
  914MOL0     H23353   2.022   8.834   8.724  0.8503 -0.3407 -0.7239
  914MOL0     H23354   1.976   9.245   8.530  0.9102 -0.5939 -0.0479
  914MOL0     H23355   2.055   9.406   8.366  0.5700  0.4479 -1.3937
  914MOL0     H23356   2.136   9.509   8.214 -1.1729  2.3606 -0.8562
  914MOL0     H23357   2.173   9.389   8.079  1.1284  0.0398 -0.8483
  914MOL0     H23358   2.082   9.684   8.079  0.6383 -0.8917  1.0485
  914MOL0     H23359   2.228   9.624   8.017  1.1466 -0.5342  2.0816
  914MOL0     H23360   1.955   9.579   7.900 -0.2326  3.3679  1.6751
  914MOL0     H23361   2.104   9.479   7.859 -0.9108  0.7180  0.3292
  914MOL0     H23362   2.036   9.782   7.870  1.6560  1.5558 -1.0218
  914MOL0     H23363   2.202   9.728   7.833  1.5705 -3.2980 -0.1135
  914MOL0     H23364   1.950   9.716   7.664 -0.6759 -1.4462  0.0331
  914MOL0     H23365   2.044   9.576   7.649 -3.1267 -0.6625 -0.8849
  914MOL0     H23366   2.256   9.722   7.598 -0.5565 -0.3669  0.8438
  914MOL0     H23367   2.124   9.754   7.487 -0.8618 -2.9782  1.5684
  914MOL0     H23368   2.213   9.935   7.716  0.3814 -0.2771 -0.1531
  914MOL0     H23369   2.053   9.948   7.647 -0.8069 -0.8759 -0.6359
  914MOL0     H23370   2.237  10.100   7.556  1.2432  0.2898 -0.7971
  914MOL0     H23371   2.143  10.021   7.438  1.0043  2.9683  0.7241
  914MOL0     H23372   1.772   9.256   8.079 -0.4061  1.3886  0.7879
  914MOL0     H23373   1.704   9.081   8.247 -1.7669  0.9096 -0.0007
  914MOL0     H23374   1.547   8.972   8.615 -1.9542 -0.9643  1.5327
  914MOL0     H23375   1.430   8.831   8.783 -0.3568  1.2054  0.8971
  914MOL0     H23376   1.258   7.307  10.206 -0.7677 -0.3069  0.1170
  914MOL0     H23377   1.091   7.222  10.350  0.4702 -1.0628  1.1836
  914MOL0     H23378   0.908   7.417  10.950 -1.5375  1.1421 -0.5266
  914MOL0     H23379   0.826   7.249  11.093 -0.2505  0.3884  0.0424
  914MOL0     H23380   0.659   6.832  11.068 -2.1478  4.1871  0.6529
  914MOL0     H23381   0.693   6.867  10.896  1.8987 -0.0196 -0.2439
  914MOL0     H23382   0.944   6.845  10.962  2.6383 -2.7133  2.0919
  914MOL0     H23383   0.849   6.701  10.969  1.3769 -0.9239  0.8910
  914MOL0     H23384   0.813   6.729  11.214  0.6079  0.5226  0.6001
  914MOL0     H23385   0.886   6.885  11.207 -2.0856 -0.1648 -0.9402
  914MOL0     H23386   1.055   6.727  11.301 -1.0848  0.0632  0.0080
  914MOL0     H23387   1.096   6.752  11.125 -2.4795 -1.2979 -3.2218
  914MOL0     H23388   1.045   6.345  11.148  3.0951  0.1847 -0.0570
  914MOL0     H23389   0.766   6.989  10.747  2.2306  0.0401 -2.4424
  914MOL0     H23390   0.862   7.157  10.608 -0.3373  1.6352 -0.2525
  915MOL0     O23391   8.100   3.760  10.769  0.0506 -0.0050  0.1834
  915MOL0     C23392   8.123   3.883  10.787 -0.5524 -0.1379  0.5816
  915MOL0     O23393   8.211   3.961  10.714 -0.2988 -0.1850  0.0815
  915MOL0     C23394   8.284   3.904  10.616 -0.1219 -0.2267  0.1214
  915MOL0     C23395   8.268   3.962  10.495  0.0162  0.4885  0.4381
  915MOL0     C23396   8.330   3.914  10.385 -0.9870  0.2429  0.5817
  915MOL0     C23397   8.400   3.793  10.388  0.0020  0.9529  0.2286
  915MOL0     O23398   8.439   3.727  10.267 -0.0538 -0.4235 -0.4067
  915MOL0     C23399   8.501   3.599  10.272 -1.1232  0.0723  0.5977
  915MOL0     C23400   8.651   3.612  10.267  1.2390  0.8354  0.4411
  915MOL0     C23401   8.716   3.678  10.145  0.5411  0.0178  0.2664
  915MOL0     C23402   8.698   3.830  10.140  0.6298  0.5645  0.4189
  915MOL0     C23403   8.601   3.869  10.026 -0.6536 -0.3597  0.4936
  915MOL0     C23404   8.504   3.983  10.066  0.1036  0.5303  0.0977
  915MOL0     C23405   8.436   4.062   9.952 -0.2468 -0.2464  0.2155
  915MOL0     C23406   8.436   4.205   9.985  0.6372 -0.5317  0.7791
  915MOL0     N23407   8.340   4.243  10.090 -0.3949  0.3353 -0.6165
  915MOL0     C23408   8.213   4.283  10.066  0.4773 -0.5721  0.2892
  915MOL0     C23409   8.178   4.327  10.187  0.2011 -0.0753  1.1465
  915MOL0     C23410   8.042   4.367  10.219 -0.3481  0.6100  0.9149
  915MOL0     C23411   7.954   4.268  10.309  0.5219  0.0699  0.4246
  915MOL0     C23412   7.851   4.185  10.236 -0.1625  0.0750  0.4640
  915MOL0     C23413   7.743   4.271  10.166 -0.4840  0.5000 -0.2207
  915MOL0     O23414   7.628   4.191  10.164 -0.2181  0.3732 -0.0760
  915MOL0     C23415   7.524   4.216  10.252 -0.1268  0.7501 -0.0322
  915MOL0     C23416   7.394   4.174  10.206  0.2076  0.5962 -0.6402
  915MOL0     C23417   7.282   4.206  10.285 -1.0312 -0.1051  0.8995
  915MOL0     C23418   7.151   4.160  10.220  0.5266 -1.0612  0.0363
  915MOL0     C23419   7.297   4.277  10.406  0.7771 -1.4857  0.2176
  915MOL0     C23420   7.180   4.342  10.484 -0.5798 -0.8325 -0.5946
  915MOL0     O23421   7.197   4.454  10.567 -0.3727  0.6512 -0.4306
  915MOL0     C23422   7.115   4.455  10.679  0.3620 -0.5739 -0.7613
  915MOL0     C23423   7.160   4.412  10.811  0.1424  0.1149 -0.1010
  915MOL0     C23424   7.075   4.420  10.924 -0.4633  0.4067 -0.2176
  915MOL0     C23425   6.954   4.481  10.907 -0.5328 -0.1742 -0.1920
  915MOL0     O23426   6.873   4.489  11.006  0.6478  0.0408 -0.3791
  915MOL0     C23427   6.922   4.550  11.128 -0.2289  0.1665  0.2210
  915MOL0     C23428   6.814   4.655  11.178 -0.9064  0.2075  1.0677
  915MOL0     C23429   6.687   4.587  11.216 -0.3388  0.0216  0.0372
  915MOL0     C23430   6.592   4.664  11.307 -0.0575  0.1582  1.2996
  915MOL0     C23431   6.451   4.690  11.246  0.2826 -0.5128 -0.0485
  915MOL0     C23432   6.461   4.774  11.118  0.1874 -0.2303 -0.7249
  915MOL0     C23433   6.519   4.912  11.137 -0.5235 -0.2470 -0.8133
  915MOL0     C23434   6.532   4.984  10.999 -0.5636 -0.7274  0.0736
  915MOL0    Cl23435   6.647   4.893  10.896 -0.3701 -0.4374 -0.1034
  915MOL0     C23436   6.908   4.534  10.785  0.1861 -0.3345  0.8109
  915MOL0     C23437   6.991   4.518  10.667 -0.1170 -0.4770 -0.7953
  915MOL0     O23438   7.074   4.284  10.482  0.1179 -0.0908  0.1049
  915MOL0     C23439   7.429   4.306  10.445  0.1729 -1.2436  0.9062
  915MOL0     C23440   7.545   4.276  10.373  0.0229 -1.4318 -0.2555
  915MOL0     N23441   8.280   4.332  10.282  0.6571  0.1339  0.1845
  915MOL0     N23442   8.375   4.265  10.224 -0.5776  0.4592  0.7649
  915MOL0     C23443   8.419   3.731  10.513 -0.4430  1.3418 -0.5546
  915MOL0     C23444   8.365   3.795  10.620  0.5811  0.9374  0.1821
  915MOL0     C23445   8.044   3.958  10.894  0.3071  0.4343  0.2357
  915MOL0     C23446   7.958   3.886  10.972 -0.2027  0.2910  0.7303
  915MOL0     C23447   7.888   3.941  11.077 -0.6366 -0.0459  0.1388
  915MOL0     C23448   7.915   4.069  11.121 -0.3739 -0.8475 -0.0407
  915MOL0     O23449   7.832   4.132  11.209  0.2873 -0.2152 -0.3276
  915MOL0     C23450   7.820   4.075  11.333 -0.1680 -0.5455 -0.2891
  915MOL0     C23451   7.953   4.077  11.402  0.1356  0.4376  0.1996
  915MOL0     C23452   7.949   4.009  11.532 -0.0113 -0.2572 -0.3328
  915MOL0     C23453   7.963   3.858  11.535  0.0641 -0.1339  0.8475
  915MOL0     C23454   7.904   3.800  11.664  0.2074 -0.3749 -0.1351
  915MOL0     C23455   7.845   3.744  11.745  0.1544  0.7131 -0.5765
  915MOL0     C23456   8.008   4.144  11.047 -1.2527  0.0795  0.4914
  915MOL0     C23457   8.070   4.089  10.930  0.6181 -0.6805 -0.2140
  915MOL0     H23458   8.190   4.036  10.481  1.9885  2.8549  1.1690
  915MOL0     H23459   8.308   3.968  10.294  1.6757  1.8642  0.8150
  915MOL0     H23460   8.467   3.537  10.355 -1.5921 -0.6445 -0.1097
  915MOL0     H23461   8.481   3.541  10.181 -0.9710  0.2141  0.4712
  915MOL0     H23462   8.676   3.673  10.355 -0.1306  1.1703  0.6218
  915MOL0     H23463   8.694   3.512  10.260  2.6144  1.4982 -4.0657
  915MOL0     H23464   8.821   3.649  10.154  1.2299  2.5875  1.4603
  915MOL0     H23465   8.671   3.624  10.061 -0.1509 -0.2427  0.7940
  915MOL0     H23466   8.662   3.874  10.234  0.5651  0.5574  0.3977
  915MOL0     H23467   8.796   3.870  10.114  1.6195 -0.3703  2.5107
  915MOL0     H23468   8.662   3.902   9.942 -2.5119 -0.8821 -1.1420
  915MOL0     H23469   8.533   3.785  10.005 -0.8954  0.6243 -3.5506
  915MOL0     H23470   8.422   3.939  10.125 -0.5988  2.3212  0.5171
  915MOL0     H23471   8.561   4.056  10.125  0.5324 -1.3380  2.1237
  915MOL0     H23472   8.499   4.051   9.863 -1.8858 -2.2945 -0.7872
  915MOL0     H23473   8.350   4.021   9.900  0.8720  1.2969 -3.1442
  915MOL0     H23474   8.421   4.258   9.890  0.1867 -4.0815 -1.3289
  915MOL0     H23475   8.534   4.237  10.020  0.9631 -1.2966  0.5745
  915MOL0     H23476   8.160   4.274   9.971  1.2537  0.6640 -0.3029
  915MOL0     H23477   8.033   4.465  10.267  0.5216  1.0408  0.2262
  915MOL0     H23478   7.989   4.372  10.123 -2.5378 -2.0265  1.8389
  915MOL0     H23479   7.902   4.349  10.362  0.9853  1.4230 -1.0908
  915MOL0     H23480   8.010   4.204  10.377 -0.6831 -1.1609  0.2952
  915MOL0     H23481   7.800   4.129  10.315 -0.0616 -0.3800  0.2067
  915MOL0     H23482   7.908   4.125  10.165 -1.7934  0.0636 -0.8891
  915MOL0     H23483   7.773   4.305  10.066 -0.5675 -2.1730 -1.2272
  915MOL0     H23484   7.718   4.356  10.230  0.9023  0.1004  0.9196
  915MOL0     H23485   7.394   4.118  10.113 -0.7869  0.9249 -0.8537
  915MOL0     H23486   7.091   4.246  10.188  2.7867  1.4371  2.0027
  915MOL0     H23487   7.166   4.090  10.138 -3.1196  0.4762 -2.1634
  915MOL0     H23488   7.094   4.104  10.295 -1.2669  1.6792  0.8669
  915MOL0     H23489   7.260   4.371  10.816  0.9501  1.7689 -1.3690
  915MOL0     H23490   7.114   4.391  11.022 -0.0847  0.7521 -0.2625
  915MOL0     H23491   6.941   4.478  11.208  2.1756 -0.2976 -0.6962
  915MOL0     H23492   7.017   4.598  11.105 -0.0299 -0.3964 -0.1527
  915MOL0     H23493   6.860   4.697  11.268 -2.0089 -0.6712  2.0572
  915MOL0     H23494   6.806   4.732  11.100  0.5607  0.3831  1.0495
  915MOL0     H23495   6.720   4.492  11.258 -1.0032 -0.1608  0.1632
  915MOL0     H23496   6.639   4.551  11.125  0.6157 -0.4737 -0.2808
  915MOL0     H23497   6.591   4.620  11.407 -1.3104  1.8842  2.0975
  915MOL0     H23498   6.643   4.759  11.327 -0.6385  0.0089  3.8363
  915MOL0     H23499   6.393   4.748  11.318  0.1033 -1.4438  0.5814
  915MOL0     H23500   6.406   4.592  11.227  3.4813 -2.1570  0.2586
  915MOL0     H23501   6.513   4.730  11.033  3.5314  1.0416  0.5185
  915MOL0     H23502   6.357   4.796  11.091 -0.6125 -3.0719 -0.3645
  915MOL0     H23503   6.610   4.926  11.196  0.5234  1.1875 -2.6564
  915MOL0     H23504   6.448   4.967  11.200  2.1604  1.0916  1.2750
  915MOL0     H23505   6.551   5.092  11.008 -0.8544 -0.6311 -0.4640
  915MOL0     H23506   6.434   4.984  10.952 -1.0056  0.8005  0.9015
  915MOL0     H23507   6.818   4.594  10.777  1.0750  0.8640 -0.6270
  915MOL0     H23508   6.955   4.567  10.577  1.3554  2.2959  0.0041
  915MOL0     H23509   7.423   4.352  10.543 -4.3159  0.6840 -0.0230
  915MOL0     H23510   7.644   4.303  10.407 -1.1865 -0.0383  2.6032
  915MOL0     H23511   8.481   3.644  10.533 -2.1393  0.0875 -0.4529
  915MOL0     H23512   8.394   3.741  10.709  0.6623 -2.4424 -1.7341
  915MOL0     H23513   7.932   3.790  10.929  2.3426  0.4673 -1.4657
  915MOL0     H23514   7.830   3.875  11.140  1.2470  2.1662  4.6173
  915MOL0     H23515   7.756   4.142  11.391  0.1204 -2.1732  2.0623
  915MOL0     H23516   7.772   3.977  11.330  1.0817 -1.2139  0.4307
  915MOL0     H23517   7.987   4.179  11.417  1.3949 -0.0710  0.9960
  915MOL0     H23518   8.029   4.023  11.346  0.2942  0.0184  0.8098
  915MOL0     H23519   7.857   4.047  11.577  1.2556  1.8554  0.6453
  915MOL0     H23520   8.035   4.037  11.593 -1.4980  0.7156  1.4144
  915MOL0     H23521   8.068   3.829  11.525 -0.2383 -0.5414 -1.9301
  915MOL0     H23522   7.916   3.815  11.446  0.2196 -0.8892  1.1198
  915MOL0     H23523   7.781   3.677  11.801  0.6524  0.2173 -0.5911
  915MOL0     H23524   8.035   4.247  11.069 -2.0793  0.2048  0.9487
  915MOL0     H23525   8.131   4.150  10.864  0.3067 -1.9383 -1.7228
  916MOL0     O23526   4.600   6.345   8.105  0.0524 -0.3129 -0.1558
  916MOL0     C23527   4.605   6.333   8.230  0.6344 -0.8189 -1.4280
  916MOL0     O23528   4.606   6.220   8.310  0.2254  0.2073  0.3928
  916MOL0     C23529   4.590   6.095   8.254  0.1219  0.4001  0.2280
  916MOL0     C23530   4.470   6.026   8.287 -0.0457 -0.0208  0.3207
  916MOL0     C23531   4.441   5.904   8.221  0.2831  0.1421 -0.6990
  916MOL0     C23532   4.528   5.848   8.126 -0.1077 -0.6356  0.2826
  916MOL0     O23533   4.498   5.728   8.065  0.5567  0.2403 -0.5056
  916MOL0     C23534   4.566   5.680   7.946 -0.7362  0.3098  1.1315
  916MOL0     C23535   4.676   5.572   7.968  0.2057 -0.2581 -0.3546
  916MOL0     C23536   4.730   5.511   7.835  0.1582 -0.0523  0.3557
  916MOL0     C23537   4.627   5.418   7.766  0.1604 -0.3917 -0.5512
  916MOL0     C23538   4.683   5.328   7.651 -0.1888  0.2941 -1.1200
  916MOL0     C23539   4.571   5.245   7.587 -0.0281  0.3776  1.3811
  916MOL0     C23540   4.546   5.124   7.669 -0.5440 -0.6124 -0.5427
  916MOL0     C23541   4.415   5.061   7.637  0.8149 -0.8810 -0.9921
  916MOL0     N23542   4.400   4.933   7.708 -0.3783  0.7847 -0.3180
  916MOL0     C23543   4.501   4.835   7.718 -0.2111  0.4175  0.4125
  916MOL0     C23544   4.457   4.752   7.817 -0.1667 -0.8494 -0.7134
  916MOL0     C23545   4.560   4.661   7.885 -0.3422  0.3706  1.0934
  916MOL0     C23546   4.522   4.511   7.891  0.2038  1.0592 -1.0029
  916MOL0     C23547   4.426   4.478   7.999  0.6576 -0.6218 -0.3714
  916MOL0     C23548   4.385   4.334   7.984 -0.1503 -0.3029 -0.2068
  916MOL0     O23549   4.312   4.297   8.102  0.1390 -0.4407 -0.0740
  916MOL0     C23550   4.211   4.203   8.095  0.8503 -0.0009 -1.1312
  916MOL0     C23551   4.114   4.216   8.208  0.7306  0.6593 -0.3549
  916MOL0     C23552   4.014   4.113   8.214 -0.0683 -0.4006 -0.3519
  916MOL0     C23553   3.923   4.119   8.335  0.3201 -0.6505 -0.4756
  916MOL0     C23554   4.011   4.008   8.115 -1.3322 -1.2536  0.0558
  916MOL0     C23555   3.904   3.910   8.116 -0.0890 -0.0726 -0.2745
  916MOL0     O23556   3.780   3.935   8.172 -0.5596  0.0710  0.2299
  916MOL0     C23557   3.703   3.827   8.206  0.2218 -0.0258 -0.0168
  916MOL0     C23558   3.601   3.780   8.119 -0.1593 -0.7048 -0.2036
  916MOL0     C23559   3.532   3.665   8.155  0.5540  0.0481  0.4657
  916MOL0     C23560   3.550   3.603   8.281 -0.1696 -0.3937  0.3683
  916MOL0     O23561   3.466   3.507   8.320 -0.4969  0.2912  0.1983
  916MOL0     C23562   3.352   3.567   8.385  0.3011 -0.3473 -0.5568
  916MOL0     C23563   3.234   3.482   8.327 -0.1067 -0.1795 -0.9291
  916MOL0     C23564   3.100   3.541   8.366  1.0198 -0.8121 -1.1105
  916MOL0     C23565   2.987   3.437   8.380  0.4039  0.6348 -0.2517
  916MOL0     C23566   2.948   3.357   8.249  0.0667 -0.0319 -0.5825
  916MOL0     C23567   2.810   3.288   8.259  0.0221  0.7548 -0.7897
  916MOL0     C23568   2.761   3.215   8.140 -0.3071  0.0486  0.0478
  916MOL0     C23569   2.819   3.075   8.119 -0.3739 -1.2175 -0.4253
  916MOL0    Cl23570   2.955   3.097   7.999 -0.1066  0.1668 -0.0828
  916MOL0     C23571   3.637   3.661   8.369  0.1550 -0.6791 -0.6241
  916MOL0     C23572   3.716   3.765   8.334 -1.0651 -0.2164  0.1005
  916MOL0     O23573   3.927   3.812   8.051 -1.0269 -0.1611 -0.6891
  916MOL0     C23574   4.111   4.001   8.008  0.6911 -0.8406 -0.2223
  916MOL0     C23575   4.204   4.104   7.997 -0.7439 -0.9653  0.2007
  916MOL0     N23576   4.332   4.792   7.850  0.3714  0.0470  0.9821
  916MOL0     N23577   4.296   4.904   7.789  0.5852  0.7025  0.3028
  916MOL0     C23578   4.650   5.919   8.103 -0.0264  0.5156  0.1547
  916MOL0     C23579   4.675   6.046   8.154 -0.4061 -0.1034 -0.4929
  916MOL0     C23580   4.619   6.460   8.307 -0.0385  0.7203 -0.4420
  916MOL0     C23581   4.590   6.463   8.449 -0.7911  0.2060  0.8980
  916MOL0     C23582   4.607   6.590   8.516 -0.2682 -0.2231 -0.8457
  916MOL0     C23583   4.637   6.703   8.446  0.4322 -0.2094  0.0258
  916MOL0     O23584   4.642   6.817   8.523  0.1312 -0.0980 -1.1027
  916MOL0     C23585   4.710   6.936   8.475 -0.5029 -0.2192  0.2079
  916MOL0     C23586   4.728   7.047   8.578  0.0676 -0.1021  0.4074
  916MOL0     C23587   4.836   7.036   8.681  0.0954 -0.6488  0.4792
  916MOL0     C23588   4.825   7.148   8.790  0.1282 -0.2007  1.4210
  916MOL0     C23589   4.795   7.282   8.732  0.2590  0.1028  0.2369
  916MOL0     C23590   4.785   7.386   8.672  0.3450  0.0556 -0.2143
  916MOL0     C23591   4.647   6.699   8.308  0.5715  0.6572  0.2592
  916MOL0     C23592   4.653   6.579   8.235  0.4091  0.0544 -1.3970
  916MOL0     H23593   4.404   6.075   8.358  1.0723  1.8720  0.1211
  916MOL0     H23594   4.342   5.871   8.250  1.6155 -2.6446  1.0744
  916MOL0     H23595   4.488   5.615   7.905  1.4778 -2.4203  0.9390
  916MOL0     H23596   4.580   5.756   7.868 -3.0590  1.9628  2.2015
  916MOL0     H23597   4.754   5.614   8.033 -1.5587 -0.8883  2.3619
  916MOL0     H23598   4.627   5.495   8.028  0.0853  0.2337  0.1884
  916MOL0     H23599   4.742   5.587   7.758 -2.4275  2.2820  2.0787
  916MOL0     H23600   4.820   5.455   7.864 -2.0853 -3.4672  1.2539
  916MOL0     H23601   4.585   5.354   7.844  1.8008  0.9014  1.5122
  916MOL0     H23602   4.549   5.483   7.725  0.5452  0.9497  0.7603
  916MOL0     H23603   4.729   5.407   7.591  0.5425 -0.0388 -1.0105
  916MOL0     H23604   4.759   5.259   7.689 -2.2192 -1.7199 -0.4876
  916MOL0     H23605   4.481   5.307   7.585 -0.5164 -0.3124  1.3460
  916MOL0     H23606   4.598   5.204   7.489  1.0432  3.8346  0.1135
  916MOL0     H23607   4.633   5.060   7.652 -0.4195 -0.7526  0.5079
  916MOL0     H23608   4.549   5.136   7.778 -1.1755 -0.9835 -0.4751
  916MOL0     H23609   4.407   5.048   7.529  3.8641 -0.7049 -1.3112
  916MOL0     H23610   4.333   5.129   7.663  0.8521 -0.9046 -0.8089
  916MOL0     H23611   4.600   4.840   7.674 -0.0837  0.4531  0.6978
  916MOL0     H23612   4.644   4.644   7.817 -2.0434 -0.4717 -0.9233
  916MOL0     H23613   4.587   4.699   7.984  1.3608  4.1230 -0.5854
  916MOL0     H23614   4.613   4.451   7.905  0.3171  1.2770 -0.8051
  916MOL0     H23615   4.485   4.484   7.792  2.1020  2.4145 -2.1390
  916MOL0     H23616   4.342   4.547   8.015  1.6145  0.7774 -1.2169
  916MOL0     H23617   4.485   4.475   8.091 -2.0399  1.1599  1.5704
  916MOL0     H23618   4.473   4.270   7.982  0.5127  0.3314  2.8807
  916MOL0     H23619   4.317   4.319   7.900 -1.2414  2.3265  0.1172
  916MOL0     H23620   4.143   4.301   8.268 -1.8102  1.0881  0.3618
  916MOL0     H23621   3.949   4.210   8.390  1.5683 -0.9665 -0.5167
  916MOL0     H23622   3.819   4.127   8.303  0.6330  0.1904 -1.3366
  916MOL0     H23623   3.936   4.033   8.401  0.5389 -0.4961 -0.3139
  916MOL0     H23624   3.589   3.835   8.026  1.4030  0.7583  0.3882
  916MOL0     H23625   3.443   3.641   8.098  0.1005 -0.9015  1.5412
  916MOL0     H23626   3.348   3.548   8.493 -1.4629  1.1066 -0.3030
  916MOL0     H23627   3.333   3.670   8.353 -0.3239 -0.4312 -0.4788
  916MOL0     H23628   3.232   3.485   8.218 -3.0695  0.4779 -0.9400
  916MOL0     H23629   3.238   3.380   8.366  0.1797  1.0753  2.7592
  916MOL0     H23630   3.071   3.624   8.301 -0.9549 -0.5257  0.0374
  916MOL0     H23631   3.110   3.579   8.468 -0.2373 -2.8519 -0.1438
  916MOL0     H23632   3.018   3.358   8.448  0.1730 -0.6293 -1.5613
  916MOL0     H23633   2.899   3.476   8.432  0.1106 -2.1004  1.5097
  916MOL0     H23634   3.034   3.297   8.221 -0.8582 -2.2262  0.9886
  916MOL0     H23635   2.937   3.439   8.177  0.1277  0.0226 -0.5306
  916MOL0     H23636   2.815   3.220   8.345  0.9790 -0.0046 -1.4124
  916MOL0     H23637   2.730   3.359   8.281 -0.8953  0.1088 -1.9349
  916MOL0     H23638   2.780   3.271   8.048  1.0345  0.9400  0.8388
  916MOL0     H23639   2.655   3.188   8.143  0.0592 -1.7404 -1.5044
  916MOL0     H23640   2.760   3.001   8.065 -0.2549 -2.7359  1.4133
  916MOL0     H23641   2.847   3.032   8.215 -0.7471  1.5496  1.0322
  916MOL0     H23642   3.634   3.618   8.469 -3.2941 -1.0627 -0.7971
  916MOL0     H23643   3.786   3.800   8.408 -0.1768 -2.7485  0.5564
  916MOL0     H23644   4.100   3.926   7.930  0.0313 -0.1946 -0.7687
  916MOL0     H23645   4.255   4.112   7.902 -2.6112 -1.9644 -0.9625
  916MOL0     H23646   4.721   5.868   8.038 -2.5009 -2.2024 -0.6293
  916MOL0     H23647   4.769   6.098   8.137  0.4767 -2.1915 -2.5916
  916MOL0     H23648   4.563   6.369   8.495 -1.7812 -0.0273 -0.1326
  916MOL0     H23649   4.586   6.588   8.622  0.2577 -1.3134 -0.7465
  916MOL0     H23650   4.804   6.908   8.426  0.7035  1.4975  1.4102
  916MOL0     H23651   4.650   6.979   8.393  1.5045  0.0827 -1.1910
  916MOL0     H23652   4.626   7.048   8.619 -1.4454  0.4564 -3.0826
  916MOL0     H23653   4.740   7.141   8.524  0.3546  0.9355  2.1813
  916MOL0     H23654   4.930   7.038   8.626 -0.5524  3.6538 -0.8221
  916MOL0     H23655   4.831   6.939   8.732 -0.5994 -0.1161  1.4741
  916MOL0     H23656   4.921   7.132   8.841  1.7865 -1.8571 -1.9137
  916MOL0     H23657   4.743   7.115   8.854 -1.8254  1.1714 -0.2605
  916MOL0     H23658   4.790   7.482   8.624  0.2606 -0.5636 -1.5033
  916MOL0     H23659   4.660   6.798   8.266  2.0386 -0.3288 -1.7253
  916MOL0     H23660   4.668   6.587   8.128 -1.8972  0.3848 -1.7428
  917MOL0     O23661   2.076  10.114   0.126 -0.6445  1.7101 -0.3590
  917MOL0     C23662   2.103  10.042   0.026  0.4656  0.0189  0.0434
  917MOL0     O23663   2.197   9.945   0.023 -0.5062 -0.5570 -0.1397
  917MOL0     C23664   2.282   9.934   0.133 -0.1805 -0.2520 -1.4206
  917MOL0     C23665   2.333   9.808   0.158  0.4858 -0.2513  0.5169
  917MOL0     C23666   2.433   9.785   0.255  0.5053 -0.4190  0.3701
  917MOL0     C23667   2.471   9.893   0.340 -0.0660  0.8276  1.0045
  917MOL0     O23668   2.561   9.894   0.442  0.3784 -0.3477 -0.2876
  917MOL0     C23669   2.623   9.775   0.481  0.8288  0.4111 -0.4942
  917MOL0     C23670   2.762   9.747   0.435  0.3316  0.2028  0.7715
  917MOL0     C23671   2.859   9.857   0.446 -0.9066  0.4462 -0.5277
  917MOL0     C23672   2.983   9.840   0.350 -0.2466 -0.5035  0.5649
  917MOL0     C23673   3.107   9.908   0.397 -0.1673  0.2378 -0.3922
  917MOL0     C23674   3.114  10.053   0.374 -0.0293  0.3959 -0.3459
  917MOL0     C23675   3.191  10.129   0.489 -0.0411 -0.0598  0.0776
  917MOL0     C23676   3.341  10.083   0.514  0.9876  0.8471 -0.0911
  917MOL0     N23677   3.403  10.069   0.385  0.2983  0.9754 -0.0969
  917MOL0     C23678   3.413  10.167   0.289  0.7677 -0.1025 -0.6817
  917MOL0     C23679   3.501  10.123   0.194  0.5692 -0.1994  0.0411
  917MOL0     C23680   3.542  10.202   0.071 -0.2447  0.0345 -0.3950
  917MOL0     C23681   3.667  10.150  -0.009 -0.8124  0.4829  1.0299
  917MOL0     C23682   3.799  10.214   0.025 -1.1083  0.3385  0.1117
  917MOL0     C23683   3.902  10.181  -0.075  0.1092 -0.6374  0.4173
  917MOL0     O23684   4.034  10.227  -0.033  0.2870 -0.0269  0.8184
  917MOL0     C23685   4.146  10.176  -0.080 -0.6526 -0.1204  0.9237
  917MOL0     C23686   4.156  10.082  -0.187 -0.0403 -0.1911  0.4297
  917MOL0     C23687   4.290  10.027  -0.216 -0.0087 -0.3967 -1.4922
  917MOL0     C23688   4.278   9.906  -0.315  1.1077 -0.0859 -0.9407
  917MOL0     C23689   4.408  10.072  -0.155  0.2593  0.1579 -0.6742
  917MOL0     C23690   4.545  10.021  -0.179  0.3054 -0.7443 -0.0932
  917MOL0     O23691   4.557   9.952  -0.298  0.3091 -0.6936  0.1190
  917MOL0     C23692   4.679   9.940  -0.354 -0.2632  0.2151 -1.2979
  917MOL0     C23693   4.765   9.834  -0.301 -0.3215 -0.0435  0.6583
  917MOL0     C23694   4.900   9.820  -0.352  0.6763  0.2861 -0.3165
  917MOL0     C23695   4.948   9.914  -0.450 -0.8655 -0.4851  0.1380
  917MOL0     O23696   5.069   9.910  -0.509 -1.0634  0.3567  0.3642
  917MOL0     C23697   5.174   9.835  -0.442 -0.2169  0.2229 -0.0176
  917MOL0     C23698   5.298   9.822  -0.541  1.0759  0.0656  0.5211
  917MOL0     C23699   5.374   9.694  -0.535 -0.7567  1.4042 -0.4935
  917MOL0     C23700   5.466   9.686  -0.409 -0.0469  0.5994 -0.5777
  917MOL0     C23701   5.533   9.543  -0.398  0.7002 -0.7271  0.4256
  917MOL0     C23702   5.446   9.443  -0.317  0.1511  0.1488  0.1826
  917MOL0     C23703   5.495   9.300  -0.305  0.2406 -0.1241 -0.4346
  917MOL0     C23704   5.403   9.190  -0.232 -0.1305 -0.3088 -1.3591
  917MOL0    Cl23705   5.262   9.151  -0.343 -0.3073 -0.3098 -0.8748
  917MOL0     C23706   4.861  10.013  -0.493  0.0947 -0.4690 -0.4099
  917MOL0     C23707   4.722  10.015  -0.459  0.5515  0.4835  0.5525
  917MOL0     O23708   4.642  10.050  -0.107 -0.3758  0.3670 -0.1627
  917MOL0     C23709   4.391  10.182  -0.059 -0.0574  0.6367  0.2032
  917MOL0     C23710   4.261  10.228  -0.023  1.1042 -0.3256 -0.3078
  917MOL0     N23711   3.538  10.000   0.241 -0.1306 -0.0903 -0.7583
  917MOL0     N23712   3.478   9.968   0.348 -0.4015  0.4596  0.5335
  917MOL0     C23713   2.423  10.018   0.320  1.2412  0.1503 -0.0615
  917MOL0     C23714   2.328  10.039   0.217  0.1012  0.3621 -0.1148
  917MOL0     C23715   2.033  10.068  -0.105  0.2928  0.4640 -0.9468
  917MOL0     C23716   1.925  10.156  -0.122  0.3311 -0.1622  0.3018
  917MOL0     C23717   1.845  10.163  -0.235 -0.1182 -0.1136  0.4369
  917MOL0     C23718   1.886  10.113  -0.359  0.2182 -0.3861 -0.9180
  917MOL0     O23719   1.809  10.153  -0.469 -0.0754 -0.3699  0.4325
  917MOL0     C23720   1.871  10.102  -0.598  0.5097 -0.7170 -0.2401
  917MOL0     C23721   1.854   9.953  -0.621  0.1461 -0.1671 -0.9088
  917MOL0     C23722   1.947   9.919  -0.738 -0.3006 -0.1661  0.2529
  917MOL0     C23723   1.959   9.772  -0.774  0.2920  0.5492 -0.3145
  917MOL0     C23724   2.052   9.753  -0.882  0.4328  0.4173 -0.0007
  917MOL0     C23725   2.122   9.722  -0.976 -0.0213  0.1254 -0.6723
  917MOL0     C23726   2.004  10.035  -0.346  0.0754  0.3086  0.1081
  917MOL0     C23727   2.071  10.010  -0.224  0.1884 -0.3675  0.3242
  917MOL0     H23728   2.290   9.721   0.109  0.6098 -0.8193  1.4015
  917MOL0     H23729   2.462   9.681   0.269 -3.5326 -1.7902 -0.1708
  917MOL0     H23730   2.640   9.767   0.589  1.8434 -0.8473 -0.7240
  917MOL0     H23731   2.560   9.692   0.447 -3.0761  2.4150  1.2093
  917MOL0     H23732   2.790   9.660   0.495 -3.8668  0.6908  3.8995
  917MOL0     H23733   2.762   9.730   0.327  2.8877 -0.7897  0.8577
  917MOL0     H23734   2.816   9.955   0.424 -0.9438  0.2008 -1.5967
  917MOL0     H23735   2.895   9.863   0.549  0.4648  3.5530 -1.0940
  917MOL0     H23736   3.011   9.737   0.326 -1.5213 -0.5749 -0.7371
  917MOL0     H23737   2.945   9.890   0.260 -2.2752  0.3648  1.8495
  917MOL0     H23738   3.104   9.867   0.498 -0.8547 -0.4836 -0.6895
  917MOL0     H23739   3.195   9.866   0.347 -0.4153  0.1040 -0.7242
  917MOL0     H23740   3.158  10.061   0.275  0.0434 -1.6061 -0.5155
  917MOL0     H23741   3.018  10.103   0.358 -0.2982 -0.5262 -1.7337
  917MOL0     H23742   3.180  10.236   0.468 -0.4932  0.0376  0.7878
  917MOL0     H23743   3.141  10.113   0.585 -4.8920 -3.3398 -2.5880
  917MOL0     H23744   3.335   9.995   0.578 -4.8448  0.1050 -1.0259
  917MOL0     H23745   3.398  10.155   0.573  3.3194  0.7484 -2.0648
  917MOL0     H23746   3.351  10.256   0.295  0.4369 -0.2735 -1.5283
  917MOL0     H23747   3.453  10.195   0.008 -0.9582  1.5977  0.3766
  917MOL0     H23748   3.561  10.305   0.100  1.6422 -0.9486  2.2688
  917MOL0     H23749   3.646  10.155  -0.116  0.2026 -1.0684  0.7256
  917MOL0     H23750   3.675  10.042   0.007 -0.1352  0.5965  1.5182
  917MOL0     H23751   3.834  10.172   0.120 -1.3409  2.8693  1.4087
  917MOL0     H23752   3.788  10.323   0.024 -0.0250  0.4591  0.0652
  917MOL0     H23753   3.878  10.228  -0.171 -0.0409 -1.6239 -0.0368
  917MOL0     H23754   3.909  10.073  -0.090 -1.3407 -0.6747 -0.2593
  917MOL0     H23755   4.068  10.060  -0.247  1.1121  1.2114 -1.8944
  917MOL0     H23756   4.174   9.879  -0.335  0.2316  2.9657 -1.0695
  917MOL0     H23757   4.317   9.946  -0.409  3.0937  0.6220  0.1102
  917MOL0     H23758   4.342   9.820  -0.293  2.1609  0.9760  0.4015
  917MOL0     H23759   4.736   9.778  -0.213 -2.5441 -1.7177 -1.0084
  917MOL0     H23760   4.964   9.739  -0.318 -0.7115 -1.0412 -0.7471
  917MOL0     H23761   5.203   9.898  -0.357  2.6383  0.0448 -0.7591
  917MOL0     H23762   5.143   9.734  -0.412 -1.7534  0.2803 -1.2816
  917MOL0     H23763   5.250   9.818  -0.640  0.9011 -1.0183  0.6374
  917MOL0     H23764   5.366   9.907  -0.528 -0.2751  0.9440  2.1935
  917MOL0     H23765   5.439   9.688  -0.623 -1.9438 -0.5106 -1.3015
  917MOL0     H23766   5.308   9.607  -0.543 -0.4932  1.3616 -4.4055
  917MOL0     H23767   5.541   9.766  -0.410  1.0216 -0.2441 -4.1210
  917MOL0     H23768   5.400   9.685  -0.322  0.1312 -1.1333 -0.4302
  917MOL0     H23769   5.632   9.563  -0.354  1.2621 -0.7735 -0.7867
  917MOL0     H23770   5.540   9.507  -0.501 -4.1057  0.2087 -0.4431
  917MOL0     H23771   5.419   9.483  -0.219 -0.2745 -3.8633  1.9243
  917MOL0     H23772   5.354   9.431  -0.374 -1.0360  2.5756  1.4281
  917MOL0     H23773   5.598   9.302  -0.268 -0.3585  2.4317  1.3565
  917MOL0     H23774   5.503   9.263  -0.408  2.0042 -0.2782 -0.2715
  917MOL0     H23775   5.372   9.215  -0.131  0.9821 -0.4443 -0.9724
  917MOL0     H23776   5.461   9.097  -0.234  1.6878  0.6668  1.4583
  917MOL0     H23777   4.884  10.077  -0.578 -0.1706  0.3312  0.1092
  917MOL0     H23778   4.646  10.075  -0.508  1.1119 -0.0125 -0.9752
  917MOL0     H23779   4.477  10.217  -0.004 -0.5878 -0.8179  2.0555
  917MOL0     H23780   4.245  10.298   0.058 -2.6327 -0.2488 -0.9366
  917MOL0     H23781   2.468  10.094   0.384  1.0800 -1.9443  2.7591
  917MOL0     H23782   2.293  10.139   0.198  1.2192  1.1703  1.7837
  917MOL0     H23783   1.892  10.204  -0.030  2.2963  0.2897  0.8240
  917MOL0     H23784   1.761  10.232  -0.232 -1.0964 -1.2911  2.2760
  917MOL0     H23785   1.842  10.164  -0.683 -0.3326 -0.9232 -0.1090
  917MOL0     H23786   1.978  10.124  -0.592  0.3671 -0.4701  2.2086
  917MOL0     H23787   1.749   9.929  -0.638  0.2479  0.0460 -1.8700
  917MOL0     H23788   1.895   9.902  -0.533  2.1709  1.3129 -0.9241
  917MOL0     H23789   2.051   9.947  -0.721  0.0808 -0.7714 -0.9647
  917MOL0     H23790   1.916   9.975  -0.827  2.2216  1.2889  0.2037
  917MOL0     H23791   1.860   9.735  -0.804 -0.2048  1.7995 -0.2746
  917MOL0     H23792   1.987   9.717  -0.684 -2.4127  0.2435  0.4428
  917MOL0     H23793   2.186   9.704  -1.060 -1.5155 -0.1571 -1.7934
  917MOL0     H23794   2.057   9.994  -0.431 -0.9146  0.2375 -0.4839
  917MOL0     H23795   2.162   9.950  -0.221  0.2017 -0.3186  1.2805
  918MOL0     O23796   8.134   0.384  11.440  0.8463 -0.0429 -0.4281
  918MOL0     C23797   8.077   0.470  11.362  0.5597 -0.1720  0.2836
  918MOL0     O23798   8.131   0.510  11.240 -0.3388  0.7803 -0.3083
  918MOL0     C23799   8.236   0.433  11.176  0.9540 -0.6432  1.3082
  918MOL0     C23800   8.197   0.307  11.143 -0.3925 -0.0841 -0.2095
  918MOL0     C23801   8.276   0.209  11.085  0.6927  0.4697  0.3652
  918MOL0     C23802   8.415   0.235  11.063  0.3572  0.2883 -0.5344
  918MOL0     O23803   8.496   0.130  11.018 -0.2967 -0.0577 -0.1191
  918MOL0     C23804   8.615   0.173  10.946 -0.8688 -0.3757 -1.0080
  918MOL0     C23805   8.580   0.249  10.816  0.1716 -0.7139  0.3823
  918MOL0     C23806   8.707   0.273  10.729 -0.1549 -0.0444 -0.0385
  918MOL0     C23807   8.669   0.305  10.589 -0.6145  0.2331 -0.1088
  918MOL0     C23808   8.786   0.367  10.513  0.6633  0.1698 -0.2388
  918MOL0     C23809   8.915   0.280  10.498  0.4761 -0.4608  0.3519
  918MOL0     C23810   9.047   0.361  10.486 -0.0239  0.5090  0.5381
  918MOL0     C23811   9.158   0.262  10.420  0.4022  0.4495  0.7361
  918MOL0     N23812   9.285   0.311  10.357  0.4365 -1.2100 -1.3389
  918MOL0     C23813   9.388   0.224  10.320  0.2530  0.0948  0.1157
  918MOL0     C23814   9.474   0.311  10.278 -0.7450  0.0053  0.6862
  918MOL0     C23815   9.614   0.270  10.234 -0.2458 -0.7105 -0.3393
  918MOL0     C23816   9.669   0.329  10.105 -0.1242 -0.1000 -1.1329
  918MOL0     C23817   9.667   0.494  10.094  0.7728  1.0743 -0.4597
  918MOL0     C23818   9.768   0.542   9.993 -0.6167  0.1627  0.6159
  918MOL0     O23819   9.901   0.496  10.024  0.1890  0.4178 -0.2497
  918MOL0     C23820  10.005   0.563   9.972  1.5094  0.1389 -0.4654
  918MOL0     C23821  10.121   0.573  10.052 -0.3496  0.5272  1.0110
  918MOL0     C23822  10.240   0.624   9.997 -1.1292  0.5961  0.1830
  918MOL0     C23823  10.359   0.629  10.099 -0.3617 -0.4152  0.7318
  918MOL0     C23824  10.240   0.685   9.866  0.4809  0.3068 -0.1830
  918MOL0     C23825  10.363   0.743   9.804 -0.8736 -0.4271  0.7768
  918MOL0     O23826  10.341   0.806   9.687 -0.3823 -0.3876 -0.2880
  918MOL0     C23827  10.439   0.896   9.653 -0.5003 -0.3344  0.1822
  918MOL0     C23828  10.461   1.020   9.716  0.2115  1.2703  0.0278
  918MOL0     C23829  10.556   1.109   9.675 -0.2718  0.5662  0.0922
  918MOL0     C23830  10.660   1.062   9.582 -0.3642 -0.3067  0.3700
  918MOL0     O23831  10.778   1.129   9.574  0.1525 -0.2996 -0.5497
  918MOL0     C23832  10.875   1.079   9.484 -0.3381  0.6331  0.0042
  918MOL0     C23833  10.995   1.180   9.471  0.4387  0.3860  0.0614
  918MOL0     C23834  10.961   1.314   9.398 -0.2623 -0.5998  1.0746
  918MOL0     C23835  10.877   1.403   9.505 -0.0676 -0.3203  0.4777
  918MOL0     C23836  10.851   1.535   9.430 -0.4201 -1.3525 -0.7842
  918MOL0     C23837  10.821   1.645   9.536  0.6341 -0.3835 -0.1291
  918MOL0     C23838  10.825   1.783   9.475  0.2066 -0.0479  0.7216
  918MOL0     C23839  10.819   1.901   9.573  0.7659  0.0366 -0.5254
  918MOL0    Cl23840  10.789   2.056   9.495 -0.2757 -0.1893  0.4970
  918MOL0     C23841  10.628   0.946   9.508 -0.2118 -0.2592 -0.4449
  918MOL0     C23842  10.518   0.872   9.540 -0.3377  1.2910  0.0429
  918MOL0     O23843  10.473   0.721   9.852 -0.5011  0.1680 -0.0453
  918MOL0     C23844  10.121   0.679   9.797  0.2838 -0.2660  0.6851
  918MOL0     C23845  10.008   0.621   9.845  0.8484  0.0351 -0.4918
  918MOL0     N23846   9.432   0.440  10.285 -0.1267 -0.5752 -0.5190
  918MOL0     N23847   9.302   0.442  10.322  0.0271 -0.2616 -0.6009
  918MOL0     C23848   8.457   0.370  11.097 -0.1488 -0.2863 -1.0063
  918MOL0     C23849   8.368   0.470  11.138 -0.5682 -0.4353 -0.4046
  918MOL0     C23850   7.957   0.536  11.414 -0.3202  0.0327 -0.6648
  918MOL0     C23851   7.845   0.569  11.338 -1.0245  0.5657 -0.0407
  918MOL0     C23852   7.731   0.622  11.394 -0.1125 -0.1886  0.0634
  918MOL0     C23853   7.715   0.632  11.534  0.4286  0.1119 -0.0321
  918MOL0     O23854   7.604   0.686  11.591  0.3039  0.3703 -0.0841
  918MOL0     C23855   7.607   0.720  11.731 -0.0559 -0.4966 -0.2314
  918MOL0     C23856   7.489   0.799  11.780 -0.0781 -1.2311  0.1695
  918MOL0     C23857   7.361   0.715  11.793 -0.1536 -0.5504  0.8340
  918MOL0     C23858   7.373   0.597  11.884 -1.1552  0.1473 -0.0830
  918MOL0     C23859   7.262   0.507  11.868 -0.2351 -0.3554 -0.1691
  918MOL0     C23860   7.178   0.421  11.866  0.0607  0.8376 -0.4819
  918MOL0     C23861   7.827   0.590  11.606 -0.1600 -0.2968 -0.7453
  918MOL0     C23862   7.944   0.541  11.549  0.2661  0.8822 -0.0786
  918MOL0     H23863   8.092   0.286  11.162  0.1503 -0.2047  3.1563
  918MOL0     H23864   8.242   0.118  11.037 -2.7336  0.3304  2.7262
  918MOL0     H23865   8.684   0.224  11.015  1.6354 -2.9133 -1.4332
  918MOL0     H23866   8.669   0.080  10.925  2.1454  0.3570  2.4243
  918MOL0     H23867   8.512   0.182  10.762  1.8959 -0.5391 -2.1873
  918MOL0     H23868   8.528   0.343  10.834  1.1595 -0.7489  4.1803
  918MOL0     H23869   8.761   0.361  10.766 -0.3239 -0.5235  1.4384
  918MOL0     H23870   8.765   0.180  10.730  0.3993  0.2911 -0.2163
  918MOL0     H23871   8.641   0.217  10.531  0.1822  2.1714 -3.6987
  918MOL0     H23872   8.587   0.377  10.597 -0.9829 -0.2551  0.6589
  918MOL0     H23873   8.760   0.384  10.408  2.9778  1.0976 -0.7382
  918MOL0     H23874   8.812   0.462  10.561 -0.9884 -0.2674  1.6550
  918MOL0     H23875   8.915   0.215  10.586 -0.9805 -1.2939 -0.2396
  918MOL0     H23876   8.920   0.213  10.413 -3.2013  0.8757 -1.1080
  918MOL0     H23877   9.042   0.451  10.424 -4.4791  0.1609  0.1168
  918MOL0     H23878   9.075   0.386  10.589 -0.0298 -0.1901  0.7153
  918MOL0     H23879   9.112   0.209  10.336 -1.2277  0.8091  1.3529
  918MOL0     H23880   9.189   0.176  10.480  3.4647 -0.9053 -2.4113
  918MOL0     H23881   9.406   0.117  10.321 -0.8354 -0.1331 -1.6579
  918MOL0     H23882   9.678   0.294  10.319 -1.0136  1.1851 -0.2546
  918MOL0     H23883   9.605   0.162  10.219 -0.6410 -0.5933 -0.9978
  918MOL0     H23884   9.625   0.275  10.021 -0.7464 -3.2572  1.0704
  918MOL0     H23885   9.777   0.310  10.114  0.3703  1.3643 -3.2055
  918MOL0     H23886   9.694   0.541  10.189 -2.1049 -0.6668  1.3868
  918MOL0     H23887   9.569   0.538  10.074  0.4451  0.7166  0.3128
  918MOL0     H23888   9.773   0.651   9.989  0.2844  0.1194  0.3818
  918MOL0     H23889   9.735   0.505   9.896 -3.2968  0.8445  1.1831
  918MOL0     H23890  10.125   0.547  10.158  1.0218  0.5548  0.9747
  918MOL0     H23891  10.370   0.736  10.122 -0.8040 -0.1138 -0.3942
  918MOL0     H23892  10.338   0.563  10.184 -2.6367 -1.5701 -0.6155
  918MOL0     H23893  10.446   0.585  10.050  0.8013 -1.5764  3.6259
  918MOL0     H23894  10.391   1.040   9.796  0.3732  0.6710  0.3256
  918MOL0     H23895  10.556   1.207   9.721  2.9390  1.9232 -2.4234
  918MOL0     H23896  10.895   0.975   9.511  1.3070  0.5198 -1.5090
  918MOL0     H23897  10.832   1.064   9.385  1.3610 -0.8715 -0.5741
  918MOL0     H23898  11.038   1.202   9.569 -1.3622  0.5104  0.8748
  918MOL0     H23899  11.064   1.134   9.400 -0.2338  0.3132 -0.5572
  918MOL0     H23900  10.910   1.302   9.301 -1.7143 -2.8120  2.0262
  918MOL0     H23901  11.056   1.365   9.382 -0.0710 -1.1012  0.5996
  918MOL0     H23902  10.785   1.362   9.550  1.5479 -0.8565  3.5671
  918MOL0     H23903  10.933   1.411   9.598  0.2654 -1.3216  0.3747
  918MOL0     H23904  10.762   1.539   9.366 -1.3800 -5.4648  0.0050
  918MOL0     H23905  10.939   1.570   9.375 -0.5015  1.4223  0.6271
  918MOL0     H23906  10.719   1.633   9.572  0.3218  1.6962 -0.1993
  918MOL0     H23907  10.882   1.635   9.627 -0.6330  0.4524  0.8454
  918MOL0     H23908  10.741   1.797   9.406  1.1279  0.3143 -0.3607
  918MOL0     H23909  10.913   1.801   9.412 -0.6664  3.5656  0.2820
  918MOL0     H23910  10.913   1.908   9.629  1.0340 -0.3957 -0.9092
  918MOL0     H23911  10.739   1.872   9.641  2.0180 -2.1780  0.1080
  918MOL0     H23912  10.701   0.912   9.434  0.9081 -0.5588  0.7649
  918MOL0     H23913  10.500   0.776   9.492 -4.3395  1.9479 -0.1605
  918MOL0     H23914  10.115   0.734   9.704 -0.4785 -1.0803  0.2371
  918MOL0     H23915   9.918   0.609   9.787  1.4503  1.1258 -1.7081
  918MOL0     H23916   8.562   0.398  11.087 -0.1508 -0.7756 -2.7657
  918MOL0     H23917   8.413   0.562  11.176 -1.3659 -0.3492  0.3575
  918MOL0     H23918   7.851   0.570  11.230  0.5586  1.7247  0.0210
  918MOL0     H23919   7.654   0.642  11.321 -1.5879 -2.0140  1.0274
  918MOL0     H23920   7.627   0.632  11.793  2.7999  0.9588  1.1074
  918MOL0     H23921   7.695   0.782  11.751 -1.9264  2.8402 -1.5870
  918MOL0     H23922   7.465   0.879  11.709 -1.0217 -1.3775  0.3184
  918MOL0     H23923   7.509   0.844  11.878  1.6966 -0.2642 -0.5922
  918MOL0     H23924   7.330   0.689  11.691  2.7208  0.8392 -0.5255
  918MOL0     H23925   7.288   0.789  11.825 -0.5623  1.0117 -3.1069
  918MOL0     H23926   7.384   0.626  11.989  2.1977 -0.6453 -0.0895
  918MOL0     H23927   7.473   0.552  11.873 -1.9610 -1.8996  0.4250
  918MOL0     H23928   7.089   0.362  11.875  0.1065  0.9987  1.5283
  918MOL0     H23929   7.818   0.595  11.714  0.7731  1.3532 -0.7075
  918MOL0     H23930   8.029   0.503  11.605 -1.1641 -0.1269  1.4804
  919MOL0     O23931   2.667   6.733   0.813  0.5610  0.3413 -0.2837
  919MOL0     C23932   2.659   6.619   0.784  0.5523  0.4172 -1.4234
  919MOL0     O23933   2.755   6.530   0.812  0.3205 -0.0071  0.0740
  919MOL0     C23934   2.851   6.572   0.890  0.7049 -0.1754  0.8483
  919MOL0     C23935   2.829   6.568   1.024 -0.1210  0.1453 -0.2001
  919MOL0     C23936   2.934   6.599   1.110  1.0011  0.2816 -0.3965
  919MOL0     C23937   3.054   6.644   1.059 -0.2939 -0.4304 -0.5514
  919MOL0     O23938   3.165   6.695   1.128 -0.0383  0.5905  0.1217
  919MOL0     C23939   3.166   6.671   1.272 -0.3426 -0.3814  0.8069
  919MOL0     C23940   3.319   6.680   1.307 -0.0255  0.1192 -0.8497
  919MOL0     C23941   3.355   6.818   1.361 -0.5749 -0.6472 -0.2271
  919MOL0     C23942   3.304   6.845   1.506 -0.0907  0.0225 -0.5576
  919MOL0     C23943   3.383   6.973   1.553  0.3010 -0.0623  0.0040
  919MOL0     C23944   3.486   6.941   1.651  0.2584  0.1940  0.3906
  919MOL0     C23945   3.543   7.049   1.748 -0.3177  0.5608  0.1849
  919MOL0     C23946   3.599   7.167   1.666  0.2935  0.0730  0.5884
  919MOL0     N23947   3.699   7.235   1.742  0.0278  0.9049 -0.2776
  919MOL0     C23948   3.679   7.285   1.866  0.7370 -0.1862  1.2902
  919MOL0     C23949   3.786   7.361   1.894 -0.3144  0.2567  0.1153
  919MOL0     C23950   3.804   7.426   2.027 -0.9427 -0.0368  0.7075
  919MOL0     C23951   3.725   7.552   2.043 -0.3682  0.6023  0.1505
  919MOL0     C23952   3.754   7.607   2.175  0.4862 -0.5997  0.2337
  919MOL0     C23953   3.693   7.747   2.199  0.3385  0.2286 -0.4729
  919MOL0     O23954   3.548   7.724   2.210 -0.5538  0.1882  0.2199
  919MOL0     C23955   3.467   7.835   2.214 -0.2415  0.0411  0.3113
  919MOL0     C23956   3.500   7.954   2.269 -0.4497 -0.7103  0.1189
  919MOL0     C23957   3.411   8.062   2.277 -0.4908  0.2524  0.0183
  919MOL0     C23958   3.461   8.193   2.345 -0.2266 -0.6785 -0.1982
  919MOL0     C23959   3.274   8.044   2.229  0.1851 -0.4209 -0.5696
  919MOL0     C23960   3.165   8.148   2.232 -0.5165 -0.2365  0.0842
  919MOL0     O23961   3.033   8.095   2.223  0.9752 -1.0200 -0.6801
  919MOL0     C23962   2.943   8.201   2.213  0.3431 -0.0202  0.1924
  919MOL0     C23963   2.854   8.209   2.316 -0.2627  0.1237  0.6939
  919MOL0     C23964   2.756   8.316   2.318 -0.6490  0.0001  0.3701
  919MOL0     C23965   2.769   8.415   2.209  0.4931 -0.4239 -0.5512
  919MOL0     O23966   2.685   8.517   2.196 -0.3214 -0.1524  0.1813
  919MOL0     C23967   2.630   8.565   2.317 -0.2320  0.2472  0.2765
  919MOL0     C23968   2.479   8.540   2.307 -0.3369 -0.0076  0.1125
  919MOL0     C23969   2.387   8.600   2.418 -0.4007 -0.6154  0.3394
  919MOL0     C23970   2.422   8.590   2.561 -0.1641 -0.0167 -0.0564
  919MOL0     C23971   2.323   8.667   2.650  0.4618 -0.1789 -1.1772
  919MOL0     C23972   2.344   8.820   2.624  0.2228  0.6364  1.2200
  919MOL0     C23973   2.266   8.890   2.738  0.0027 -0.6544 -0.1630
  919MOL0     C23974   2.265   9.034   2.688  0.6220 -0.1037  0.0771
  919MOL0    Cl23975   2.156   9.128   2.793  0.0759 -0.1892  0.0012
  919MOL0     C23976   2.852   8.400   2.100  0.3777  0.4098  0.0622
  919MOL0     C23977   2.947   8.291   2.104 -0.0171  0.4921 -0.7362
  919MOL0     O23978   3.204   8.261   2.274  0.2406  0.7144  1.2537
  919MOL0     C23979   3.238   7.917   2.184 -0.0703  0.0310 -0.1614
  919MOL0     C23980   3.329   7.811   2.173  0.1500  0.1426 -0.2518
  919MOL0     N23981   3.876   7.344   1.793 -0.1061 -0.4557 -0.2902
  919MOL0     N23982   3.819   7.286   1.694  0.2102  0.6964 -0.1161
  919MOL0     C23983   3.062   6.657   0.919 -0.4073  0.2387  0.4545
  919MOL0     C23984   2.959   6.624   0.830 -0.2862  0.4661 -0.2475
  919MOL0     C23985   2.528   6.560   0.734  0.6678  0.2672  1.0090
  919MOL0     C23986   2.412   6.634   0.732 -0.1754  0.7498  0.7458
  919MOL0     C23987   2.299   6.584   0.657  0.8674 -0.0805 -0.2944
  919MOL0     C23988   2.285   6.457   0.615 -0.7544  0.4770  0.1234
  919MOL0     O23989   2.170   6.406   0.549  0.5433 -0.3763  0.1926
  919MOL0     C23990   2.055   6.483   0.533 -0.5166 -0.2987 -0.4975
  919MOL0     C23991   2.067   6.573   0.408  0.2073  0.7538 -0.1925
  919MOL0     C23992   1.925   6.595   0.344 -0.0607  0.0413 -0.4136
  919MOL0     C23993   1.862   6.701   0.430  0.0093  0.0433 -0.4382
  919MOL0     C23994   1.721   6.716   0.397  0.1280  0.3016  0.9147
  919MOL0     C23995   1.599   6.717   0.373  0.4516  1.2487  1.0978
  919MOL0     C23996   2.400   6.377   0.631 -0.3715 -1.0237  1.1917
  919MOL0     C23997   2.515   6.425   0.700 -1.1311  0.8107  0.2594
  919MOL0     H23998   2.734   6.534   1.063 -0.2970  1.1294  0.2655
  919MOL0     H23999   2.916   6.596   1.217 -2.8372  1.0444 -0.8828
  919MOL0     H24000   3.115   6.752   1.324  0.4187  0.0845  0.8435
  919MOL0     H24001   3.120   6.576   1.303 -0.7740 -0.2827  0.4774
  919MOL0     H24002   3.343   6.600   1.377  3.7122  0.6120 -1.3846
  919MOL0     H24003   3.367   6.660   1.211 -0.6527  1.2670 -1.4244
  919MOL0     H24004   3.464   6.827   1.358 -0.5122 -1.4400 -0.4918
  919MOL0     H24005   3.308   6.886   1.288  0.8555 -1.8938 -2.4342
  919MOL0     H24006   3.196   6.863   1.501 -0.0144  0.3278 -1.1885
  919MOL0     H24007   3.335   6.765   1.574 -1.8405  1.1242  1.6727
  919MOL0     H24008   3.419   7.036   1.471 -1.1797  1.2646  0.2990
  919MOL0     H24009   3.311   7.044   1.595  1.5533  1.4390 -0.2795
  919MOL0     H24010   3.452   6.855   1.709  1.7318 -1.0814 -0.5700
  919MOL0     H24011   3.566   6.900   1.589  1.1455 -0.5085  1.9322
  919MOL0     H24012   3.454   7.082   1.802 -0.5590  2.8340 -1.4655
  919MOL0     H24013   3.621   6.994   1.801  0.4143 -2.5934 -3.6932
  919MOL0     H24014   3.513   7.230   1.646  0.8611  0.5219 -0.5053
  919MOL0     H24015   3.641   7.140   1.569 -1.7669  0.1935 -0.3802
  919MOL0     H24016   3.585   7.275   1.921 -0.8532 -1.0648 -1.4068
  919MOL0     H24017   3.774   7.352   2.102  1.8612  0.9003  2.9373
  919MOL0     H24018   3.911   7.444   2.037 -1.2833  2.3289  0.5518
  919MOL0     H24019   3.618   7.532   2.034 -0.5092 -0.3069  2.8901
  919MOL0     H24020   3.771   7.625   1.975  3.2914  1.7194  3.4298
  919MOL0     H24021   3.859   7.635   2.178  0.0634  1.1480 -0.2190
  919MOL0     H24022   3.728   7.531   2.249  0.0007  0.1589  0.8534
  919MOL0     H24023   3.715   7.824   2.125 -1.9763  1.2641 -0.1936
  919MOL0     H24024   3.727   7.791   2.293  2.3588 -0.4534 -0.8504
  919MOL0     H24025   3.600   7.978   2.305  0.5922 -0.5061 -2.6439
  919MOL0     H24026   3.401   8.216   2.434  0.9599  4.8769 -0.4749
  919MOL0     H24027   3.566   8.181   2.372 -0.3406 -0.3191  0.4293
  919MOL0     H24028   3.451   8.270   2.268  0.4190 -0.0761  0.3054
  919MOL0     H24029   2.863   8.133   2.392 -0.5226 -1.7164 -1.0422
  919MOL0     H24030   2.687   8.320   2.402 -2.5044 -0.3035 -1.0742
  919MOL0     H24031   2.666   8.528   2.414 -0.2095 -2.9206 -0.8555
  919MOL0     H24032   2.650   8.673   2.323  3.3801 -0.3003  0.4735
  919MOL0     H24033   2.441   8.569   2.208  2.3392  1.2578 -0.6372
  919MOL0     H24034   2.461   8.433   2.306  0.1893 -0.1070  0.7580
  919MOL0     H24035   2.287   8.557   2.403 -0.4409 -0.3041 -0.3313
  919MOL0     H24036   2.367   8.705   2.394  1.7050  0.0775  1.4206
  919MOL0     H24037   2.422   8.482   2.580  2.2515 -0.4745 -2.1171
  919MOL0     H24038   2.522   8.632   2.579 -0.3049  0.0695  0.5837
  919MOL0     H24039   2.316   8.615   2.746  0.3909 -5.6913 -3.7753
  919MOL0     H24040   2.221   8.641   2.621 -0.3919  1.5496  0.0938
  919MOL0     H24041   2.452   8.832   2.612  0.2861 -0.5844  0.3756
  919MOL0     H24042   2.301   8.848   2.527 -1.6044  1.6731  2.2811
  919MOL0     H24043   2.311   8.890   2.838 -1.9146 -0.1538  0.7441
  919MOL0     H24044   2.166   8.848   2.751 -0.0621 -1.2867 -2.3768
  919MOL0     H24045   2.237   9.045   2.583  0.2305  0.8322  0.2672
  919MOL0     H24046   2.364   9.080   2.690  0.5629  0.1271  3.1633
  919MOL0     H24047   2.862   8.469   2.017  3.3392  0.3030  0.2415
  919MOL0     H24048   3.024   8.274   2.029 -1.4862  1.2304 -2.4692
  919MOL0     H24049   3.134   7.890   2.169  0.0061  0.0486 -0.7364
  919MOL0     H24050   3.295   7.715   2.135  0.1954  0.3620 -0.8590
  919MOL0     H24051   3.156   6.701   0.891 -0.9910  0.3771 -1.4716
  919MOL0     H24052   2.964   6.630   0.722 -0.8558  0.6769 -0.2641
  919MOL0     H24053   2.416   6.739   0.760 -0.1573  0.9602 -0.0158
  919MOL0     H24054   2.214   6.650   0.660  0.8560 -0.1219  2.6889
  919MOL0     H24055   1.973   6.414   0.514 -0.4182 -1.5976  3.0526
  919MOL0     H24056   2.029   6.528   0.629  0.9932 -1.9971  0.7757
  919MOL0     H24057   2.128   6.525   0.330 -0.9061  2.2359 -2.0828
  919MOL0     H24058   2.115   6.667   0.435  0.9452  1.0382 -2.2564
  919MOL0     H24059   1.858   6.510   0.329  1.9465 -1.3606 -2.0087
  919MOL0     H24060   1.941   6.628   0.241 -4.5771  2.7701 -0.4870
  919MOL0     H24061   1.913   6.798   0.429 -2.3176  1.3470  0.0251
  919MOL0     H24062   1.847   6.670   0.533  3.2808 -0.1587  0.0789
  919MOL0     H24063   1.493   6.703   0.367  0.3280  1.9747  1.5604
  919MOL0     H24064   2.407   6.282   0.580  1.1959 -0.0676 -0.5402
  919MOL0     H24065   2.597   6.360   0.727 -3.1116  0.0290  5.5192
  920MOL0     O24066   0.144   0.024   9.289  0.2254  0.4851  0.1028
  920MOL0     C24067   0.051  -0.052   9.295  0.4911 -0.2026  0.5338
  920MOL0     O24068   0.022  -0.133   9.399 -0.2500  0.6338 -0.2173
  920MOL0     C24069   0.096  -0.134   9.517 -0.0978 -1.1708  0.1080
  920MOL0     C24070   0.234  -0.166   9.521 -0.7642  0.1973  0.8245
  920MOL0     C24071   0.296  -0.178   9.643  0.1072  0.9532  0.2358
  920MOL0     C24072   0.225  -0.162   9.759  0.4031  0.3526  0.8434
  920MOL0     O24073   0.274  -0.167   9.888  0.1951 -0.8077  0.1697
  920MOL0     C24074   0.417  -0.168   9.899  0.1350  0.0826  0.5331
  920MOL0     C24075   0.453  -0.194  10.035 -0.8231  1.0668 -0.0259
  920MOL0     C24076   0.601  -0.233  10.067 -0.0016 -0.7121  0.0697
  920MOL0     C24077   0.618  -0.291  10.209 -0.8226  0.1214  0.6225
  920MOL0     C24078   0.767  -0.336  10.221  0.2226  0.3058 -0.0780
  920MOL0     C24079   0.781  -0.394  10.370 -0.2039 -0.5028 -0.0166
  920MOL0     C24080   0.925  -0.420  10.405 -1.4969  1.0172 -0.7332
  920MOL0     C24081   0.950  -0.447  10.555  0.1337  0.4870  0.4429
  920MOL0     N24082   1.081  -0.502  10.591  0.9369 -0.1732  0.8207
  920MOL0     C24083   1.191  -0.428  10.560  0.7494  0.0215 -0.2121
  920MOL0     C24084   1.288  -0.522  10.559  1.1486 -0.0366  0.2445
  920MOL0     C24085   1.427  -0.519  10.500 -0.4328  0.7232 -0.4458
  920MOL0     C24086   1.446  -0.380  10.447 -0.1296 -0.4829  0.6871
  920MOL0     C24087   1.584  -0.368  10.378  0.1835 -0.5504  1.0933
  920MOL0     C24088   1.602  -0.237  10.299  0.3154  0.5639  0.1991
  920MOL0     O24089   1.553  -0.134  10.378  0.2743 -0.0796 -0.5341
  920MOL0     C24090   1.619  -0.066  10.478  0.4162 -0.2162 -0.2747
  920MOL0     C24091   1.754  -0.060  10.493  0.1919  1.3481  0.5494
  920MOL0     C24092   1.823  -0.005  10.600  0.6806  0.3769 -1.1463
  920MOL0     C24093   1.974  -0.004  10.607 -0.2549 -0.3249  0.0697
  920MOL0     C24094   1.740   0.065  10.700 -0.6605 -0.4754  0.7673
  920MOL0     C24095   1.796   0.138  10.822 -0.6623  0.9464 -0.1663
  920MOL0     O24096   1.796   0.273  10.826 -0.6454 -0.1249  0.3096
  920MOL0     C24097   1.742   0.339  10.935  0.4471  0.1288  1.3087
  920MOL0     C24098   1.761   0.473  10.927 -0.1575 -0.6406  0.2045
  920MOL0     C24099   1.730   0.553  11.031  0.1057 -1.5191  0.2568
  920MOL0     C24100   1.661   0.507  11.135 -0.7592  0.0991 -0.7211
  920MOL0     O24101   1.621   0.598  11.233  0.3499 -0.7455  0.1886
  920MOL0     C24102   1.728   0.667  11.301 -0.6696 -0.7235 -0.2740
  920MOL0     C24103   1.663   0.792  11.374  0.4254 -0.0125 -0.1878
  920MOL0     C24104   1.595   0.889  11.275 -0.7600  0.4006  0.2265
  920MOL0     C24105   1.563   1.018  11.342  0.2053 -0.1728  0.5249
  920MOL0     C24106   1.527   1.132  11.248 -0.5297 -0.5019 -0.3329
  920MOL0     C24107   1.412   1.112  11.147  0.3995  0.6510  0.3636
  920MOL0     C24108   1.343   1.234  11.088  0.0491  0.9434  0.9020
  920MOL0     C24109   1.273   1.195  10.960 -0.3508 -0.7631  0.5714
  920MOL0    Cl24110   1.217   1.352  10.897 -0.2173 -0.4281 -0.0443
  920MOL0     C24111   1.635   0.369  11.145 -0.3993  0.1883  0.6088
  920MOL0     C24112   1.681   0.282  11.048  0.4909  0.7878  0.4125
  920MOL0     O24113   1.856   0.067  10.899 -0.4367 -0.5907  0.1326
  920MOL0     C24114   1.607   0.079  10.674 -0.4703 -0.2846 -0.6642
  920MOL0     C24115   1.547   0.024  10.559  0.3425  0.7589 -0.0313
  920MOL0     N24116   1.228  -0.640  10.599  0.0382 -1.4079 -0.4794
  920MOL0     N24117   1.104  -0.631  10.628  0.0799 -0.3747  0.4482
  920MOL0     C24118   0.086  -0.161   9.762 -1.5514 -0.0027 -0.0551
  920MOL0     C24119   0.022  -0.147   9.636  0.1248 -1.1238 -0.6187
  920MOL0     C24120  -0.020  -0.071   9.165  0.6809 -0.3540  0.2313
  920MOL0     C24121   0.037  -0.026   9.039  0.5346 -0.6787 -0.2928
  920MOL0     C24122  -0.043  -0.041   8.929 -1.1502  0.0427  0.2010
  920MOL0     C24123  -0.160  -0.116   8.919  0.2353 -0.2189 -0.3445
  920MOL0     O24124  -0.228  -0.129   8.803  0.5869  0.2851 -0.9493
  920MOL0     C24125  -0.349  -0.205   8.799  0.1613 -0.2480  0.2145
  920MOL0     C24126  -0.380  -0.213   8.647  1.8074  0.2152 -0.3388
  920MOL0     C24127  -0.335  -0.340   8.575  0.2941 -0.4422  0.2285
  920MOL0     C24128  -0.255  -0.303   8.444  0.1764  0.3871 -0.6161
  920MOL0     C24129  -0.183  -0.421   8.396 -0.3067 -0.9320 -0.8597
  920MOL0     C24130  -0.131  -0.517   8.340 -0.1797 -0.6812  0.1551
  920MOL0     C24131  -0.213  -0.160   9.044  0.0039 -0.4157 -1.0404
  920MOL0     C24132  -0.146  -0.126   9.159 -0.0031 -0.7401  0.0375
  920MOL0     H24133   0.303  -0.184   9.439 -0.7286  1.1896  0.6262
  920MOL0     H24134   0.404  -0.179   9.646  0.0868  0.5305  1.3555
  920MOL0     H24135   0.465  -0.237   9.829  1.3684  1.6095 -0.1681
  920MOL0     H24136   0.453  -0.067   9.877 -1.2428  0.5869  0.5039
  920MOL0     H24137   0.414  -0.108  10.090 -1.1467  1.5636 -1.0200
  920MOL0     H24138   0.389  -0.276  10.068 -0.9767  0.6832 -1.2278
  920MOL0     H24139   0.639  -0.302   9.991  0.9001  1.3711 -1.4568
  920MOL0     H24140   0.655  -0.140  10.049 -0.3007 -0.8758 -1.8914
  920MOL0     H24141   0.602  -0.214  10.285  3.8786  2.9884 -0.8375
  920MOL0     H24142   0.555  -0.377  10.230 -3.0030  1.7683  1.1584
  920MOL0     H24143   0.790  -0.411  10.145 -2.3578  0.1972 -0.8396
  920MOL0     H24144   0.834  -0.250  10.222  3.6861 -2.1401  1.3604
  920MOL0     H24145   0.742  -0.326  10.446  1.7704  1.5230 -0.6953
  920MOL0     H24146   0.723  -0.486  10.377 -2.1748  0.7521  1.1254
  920MOL0     H24147   0.961  -0.515  10.365 -0.7081  0.4663  1.1375
  920MOL0     H24148   1.006  -0.354  10.372  0.6640  1.1836  4.0384
  920MOL0     H24149   0.862  -0.505  10.585  0.9341 -0.0120  1.9050
  920MOL0     H24150   0.936  -0.352  10.609 -2.9266 -0.5065  1.5911
  920MOL0     H24151   1.190  -0.328  10.518 -2.1178 -0.5585 -1.8188
  920MOL0     H24152   1.494  -0.546  10.582 -1.1656 -2.1307 -0.6962
  920MOL0     H24153   1.441  -0.601  10.430 -5.1198 -0.6487 -0.1090
  920MOL0     H24154   1.434  -0.312  10.531 -1.4884  1.8634 -1.2600
  920MOL0     H24155   1.383  -0.352  10.362  2.1026 -2.4809 -1.8005
  920MOL0     H24156   1.599  -0.457  10.316 -0.2278 -1.2807  2.0214
  920MOL0     H24157   1.660  -0.377  10.456  1.7621  1.4489 -0.1280
  920MOL0     H24158   1.546  -0.244  10.206 -0.0972  0.3157  0.4611
  920MOL0     H24159   1.707  -0.221  10.277 -0.1163  1.3595 -1.3853
  920MOL0     H24160   1.817  -0.111  10.421 -0.8388 -0.5279  0.9157
  920MOL0     H24161   2.013  -0.033  10.705  0.5828 -2.4447 -0.8261
  920MOL0     H24162   2.006  -0.075  10.531  2.0506  0.6944  0.0125
  920MOL0     H24163   2.007   0.094  10.571 -0.2972 -0.1080  0.6110
  920MOL0     H24164   1.799   0.514  10.834 -0.2674 -1.7488 -0.3404
  920MOL0     H24165   1.756   0.656  11.009  0.7368 -2.0459 -1.5910
  920MOL0     H24166   1.774   0.596  11.372 -5.5914 -3.4129  0.7045
  920MOL0     H24167   1.806   0.718  11.244  1.0392  0.8189  3.0860
  920MOL0     H24168   1.584   0.764  11.445  1.3366  0.3151  0.9844
  920MOL0     H24169   1.749   0.838  11.424  2.2984 -1.9630 -1.4386
  920MOL0     H24170   1.503   0.848  11.232  0.7267 -0.4772 -2.4029
  920MOL0     H24171   1.665   0.892  11.191  3.0867 -1.1709  3.0645
  920MOL0     H24172   1.480   1.004  11.412  0.4726 -2.7756  0.4111
  920MOL0     H24173   1.652   1.054  11.394  0.6923  1.0303 -1.0649
  920MOL0     H24174   1.621   1.167  11.204 -0.1728 -0.4242  0.4830
  920MOL0     H24175   1.486   1.210  11.312 -1.7174 -1.3533 -0.0305
  920MOL0     H24176   1.468   1.053  11.073  1.6837  0.4467  1.4676
  920MOL0     H24177   1.329   1.054  11.188 -0.3454 -0.5800 -2.5900
  920MOL0     H24178   1.429   1.287  11.048  2.2573 -3.5874 -1.1326
  920MOL0     H24179   1.285   1.298  11.156 -0.2770  0.2093  1.3351
  920MOL0     H24180   1.191   1.122  10.958 -0.0524 -1.1984 -3.3089
  920MOL0     H24181   1.348   1.159  10.890 -1.3023 -1.2622 -0.2224
  920MOL0     H24182   1.575   0.335  11.229 -1.6391  3.8355  1.3794
  920MOL0     H24183   1.650   0.180  11.069 -4.2462  1.4747 -1.8375
  920MOL0     H24184   1.554   0.147  10.741 -0.3526  1.7018 -2.4664
  920MOL0     H24185   1.443   0.054  10.558 -1.2745 -4.0453 -0.1087
  920MOL0     H24186   0.033  -0.173   9.856 -2.7734  2.6565 -0.3212
  920MOL0     H24187  -0.086  -0.140   9.631  0.2619  0.3782 -3.6840
  920MOL0     H24188   0.138   0.009   9.056 -0.2869  1.0457  1.4857
  920MOL0     H24189  -0.008   0.002   8.836 -0.3064 -1.0930 -0.0368
  920MOL0     H24190  -0.328  -0.302   8.845 -0.9996 -0.3085  0.6687
  920MOL0     H24191  -0.422  -0.154   8.863 -0.1919 -2.3162  1.5547
  920MOL0     H24192  -0.344  -0.122   8.599  0.6771  1.7036  1.4805
  920MOL0     H24193  -0.489  -0.203   8.647  1.7174 -0.6043 -1.1172
  920MOL0     H24194  -0.412  -0.406   8.535  1.6070 -2.8912  1.4743
  920MOL0     H24195  -0.281  -0.406   8.644  1.6588 -2.9159 -2.9010
  920MOL0     H24196  -0.179  -0.231   8.478 -0.0818  0.5554 -0.3858
  920MOL0     H24197  -0.316  -0.270   8.359 -0.4467 -2.7704 -1.5013
  920MOL0     H24198  -0.101  -0.608   8.292  0.5212 -0.9046  0.9959
  920MOL0     H24199  -0.312  -0.199   9.063  0.8848 -1.1653  2.7981
  920MOL0     H24200  -0.205  -0.144   9.249 -1.6164 -1.3200 -1.1028
  921MOL0     O24201   1.506   9.437   2.673  0.2815 -0.4676 -0.5380
  921MOL0     C24202   1.539   9.333   2.734  0.0588  0.6081  0.1743
  921MOL0     O24203   1.639   9.249   2.704  0.2698 -0.0873 -0.2039
  921MOL0     C24204   1.716   9.284   2.596  0.7091 -0.3328  0.5175
  921MOL0     C24205   1.665   9.288   2.463 -0.1313 -1.4853  0.7217
  921MOL0     C24206   1.738   9.344   2.359  0.4748  0.3614 -0.2035
  921MOL0     C24207   1.869   9.372   2.378 -1.2086  0.3791 -0.6128
  921MOL0     O24208   1.957   9.403   2.274 -0.4621 -0.6135 -0.4401
  921MOL0     C24209   2.081   9.483   2.296  0.7707  0.3208  0.8326
  921MOL0     C24210   2.153   9.477   2.153  0.5038  1.4895  1.1459
  921MOL0     C24211   2.068   9.520   2.039  0.1195 -0.0771  0.2260
  921MOL0     C24212   2.051   9.668   2.049  0.1393  0.4433 -0.2497
  921MOL0     C24213   1.975   9.726   1.927 -0.0741  0.9519 -0.9859
  921MOL0     C24214   1.825   9.727   1.963  0.7865  0.3310  0.3702
  921MOL0     C24215   1.754   9.853   1.910  0.2847  0.4735 -0.2460
  921MOL0     C24216   1.607   9.814   1.911 -0.3317  0.1925 -0.7463
  921MOL0     N24217   1.557   9.816   2.047 -0.2755 -0.5297 -0.3069
  921MOL0     C24218   1.520   9.706   2.122  0.3919 -0.9004 -0.4717
  921MOL0     C24219   1.496   9.756   2.245  0.4003 -0.0166 -0.2316
  921MOL0     C24220   1.472   9.674   2.376 -0.4391  0.2557 -0.0403
  921MOL0     C24221   1.328   9.623   2.384  0.6092  0.7682  0.5952
  921MOL0     C24222   1.273   9.532   2.266  0.3697  0.8292 -0.4020
  921MOL0     C24223   1.124   9.516   2.278 -0.5438  0.3514 -0.4330
  921MOL0     O24224   1.062   9.642   2.239 -0.0992  0.3326  0.5891
  921MOL0     C24225   1.106   9.706   2.120  0.4046 -0.0589 -0.3120
  921MOL0     C24226   1.159   9.839   2.120 -0.2559  0.7224  0.1049
  921MOL0     C24227   1.200   9.908   2.004 -0.2829 -0.4063  0.4773
  921MOL0     C24228   1.253  10.042   2.012  0.3071 -0.2105 -0.0824
  921MOL0     C24229   1.195   9.839   1.876  0.4052 -0.5987  0.0142
  921MOL0     C24230   1.233   9.902   1.746 -0.6738 -0.1383  0.5486
  921MOL0     O24231   1.293   9.817   1.664  0.0463  0.7990  0.1054
  921MOL0     C24232   1.358   9.849   1.545 -0.0154 -0.0205 -0.2339
  921MOL0     C24233   1.383   9.740   1.460 -0.1990  0.8548  0.0968
  921MOL0     C24234   1.453   9.751   1.344  0.1939 -0.1274 -0.1832
  921MOL0     C24235   1.470   9.885   1.302  0.4398 -0.9279  0.5473
  921MOL0     O24236   1.519   9.922   1.177 -0.1402 -0.0876 -0.4205
  921MOL0     C24237   1.555   9.809   1.084  0.3960  0.0386  0.0724
  921MOL0     C24238   1.575   9.866   0.936  0.0095  0.5799 -0.4418
  921MOL0     C24239   1.448   9.939   0.892  0.5776  0.5783 -0.7259
  921MOL0     C24240   1.446   9.970   0.741 -0.6841 -0.8980 -0.8167
  921MOL0     C24241   1.320  10.048   0.703  0.1510 -0.0797  0.2403
  921MOL0     C24242   1.182   9.990   0.749 -0.1376 -0.2393 -0.3230
  921MOL0     C24243   1.069  10.064   0.681 -0.4714 -0.3565  0.4856
  921MOL0     C24244   0.938  10.083   0.757 -0.3345  0.5416 -0.1987
  921MOL0    Cl24245   0.957  10.219   0.883  0.3553 -0.3871 -0.4068
  921MOL0     C24246   1.443  10.002   1.373  0.3799  0.8998 -0.1981
  921MOL0     C24247   1.396   9.976   1.504  1.0085 -0.8202  0.3386
  921MOL0     O24248   1.212  10.020   1.723 -0.2603  0.0263  0.2347
  921MOL0     C24249   1.151   9.703   1.877 -0.3062  0.3561  1.0557
  921MOL0     C24250   1.114   9.636   1.996 -0.3930 -0.2251 -0.4018
  921MOL0     N24251   1.503   9.899   2.238  0.2767 -0.5522 -0.4050
  921MOL0     N24252   1.554   9.924   2.125  0.2164 -0.1872  0.4966
  921MOL0     C24253   1.924   9.342   2.513 -0.1426 -0.4091  0.1546
  921MOL0     C24254   1.845   9.303   2.622  0.0030  0.0411 -1.0683
  921MOL0     C24255   1.437   9.274   2.829  0.4008 -0.6074  0.4097
  921MOL0     C24256   1.308   9.324   2.852 -0.0171  0.1166 -0.8421
  921MOL0     C24257   1.224   9.279   2.953 -0.0947 -0.9560 -0.3808
  921MOL0     C24258   1.256   9.171   3.034 -0.3724  0.6744  0.4201
  921MOL0     O24259   1.172   9.119   3.127  0.8886 -0.3678 -0.1863
  921MOL0     C24260   1.020   9.142   3.121 -0.8846 -0.1564 -0.8335
  921MOL0     C24261   0.950   9.070   3.234 -0.2170  0.3548 -0.3049
  921MOL0     C24262   0.911   8.918   3.214 -0.3795 -0.1751 -1.1313
  921MOL0     C24263   0.999   8.830   3.115  0.0596  0.4162  0.0869
  921MOL0     C24264   0.937   8.855   2.984 -0.0549 -0.5244  0.3936
  921MOL0     C24265   0.887   8.880   2.876  0.4285 -0.0055 -0.4803
  921MOL0     C24266   1.383   9.114   3.007  0.1445  0.0288 -0.4600
  921MOL0     C24267   1.465   9.160   2.905 -0.9101 -0.7962 -0.9403
  921MOL0     H24268   1.565   9.247   2.455  0.8463 -3.7958 -1.0366
  921MOL0     H24269   1.696   9.360   2.260  1.2547 -3.4984 -1.3325
  921MOL0     H24270   2.068   9.588   2.322  1.7899  1.0116 -1.2487
  921MOL0     H24271   2.150   9.436   2.366  1.1359 -0.6015 -0.1220
  921MOL0     H24272   2.251   9.527   2.149  1.2308  0.0365 -1.3325
  921MOL0     H24273   2.176   9.372   2.133 -1.5978  0.9069  1.6214
  921MOL0     H24274   2.116   9.504   1.942 -2.2030  0.0249 -1.0196
  921MOL0     H24275   1.971   9.469   2.033  0.1301 -0.0583 -0.1699
  921MOL0     H24276   1.999   9.681   2.144  2.7122  2.1379  1.0663
  921MOL0     H24277   2.149   9.716   2.056  1.2565 -1.2848 -2.7815
  921MOL0     H24278   2.026   9.821   1.908 -0.7002  1.5781  0.2973
  921MOL0     H24279   1.989   9.652   1.848 -3.3439 -0.0691 -0.7625
  921MOL0     H24280   1.789   9.639   1.910 -0.7320  1.4157 -0.4886
  921MOL0     H24281   1.789   9.717   2.066 -1.3117  4.2389  0.1996
  921MOL0     H24282   1.771   9.939   1.976  0.9986  0.0911  0.0894
  921MOL0     H24283   1.793   9.885   1.813 -0.7844 -2.2925 -1.6853
  921MOL0     H24284   1.595   9.711   1.877 -0.3483  0.1008 -0.4655
  921MOL0     H24285   1.550   9.869   1.835 -0.7947 -0.4238 -0.8527
  921MOL0     H24286   1.532   9.605   2.082  2.1601 -1.0166  0.2640
  921MOL0     H24287   1.536   9.587   2.359 -1.9688 -1.2598  1.5037
  921MOL0     H24288   1.499   9.734   2.464 -2.7760  2.8686 -0.9552
  921MOL0     H24289   1.266   9.714   2.388  1.0009  1.0069  1.8105
  921MOL0     H24290   1.320   9.559   2.473 -0.4545  0.2343  0.1324
  921MOL0     H24291   1.315   9.435   2.296  0.2728  0.1475 -2.3354
  921MOL0     H24292   1.305   9.552   2.164 -1.7166 -2.5413 -1.9143
  921MOL0     H24293   1.096   9.488   2.380 -3.0290 -2.7000 -1.7960
  921MOL0     H24294   1.086   9.436   2.214 -1.1821 -0.3983  0.8379
  921MOL0     H24295   1.154   9.891   2.215 -0.3679  1.7540 -0.4562
  921MOL0     H24296   1.188  10.130   2.009  0.6979  0.0744 -2.6237
  921MOL0     H24297   1.309  10.042   2.106 -2.2060  3.2388  1.6349
  921MOL0     H24298   1.324  10.060   1.931 -1.0139 -1.1345 -1.5173
  921MOL0     H24299   1.347   9.647   1.503  2.4504  0.1762  1.0902
  921MOL0     H24300   1.478   9.658   1.294  0.3422 -1.1114  1.6318
  921MOL0     H24301   1.652   9.776   1.120  0.2098  0.0545  0.6058
  921MOL0     H24302   1.474   9.735   1.077 -0.0385  0.5828 -0.9806
  921MOL0     H24303   1.668   9.924   0.932 -1.2461  2.9886  2.0455
  921MOL0     H24304   1.581   9.779   0.869  0.6790  2.0098 -2.3355
  921MOL0     H24305   1.436  10.036   0.940 -3.5369  0.4424 -1.0690
  921MOL0     H24306   1.367   9.869   0.916  1.7608 -0.6524 -0.1944
  921MOL0     H24307   1.527  10.037   0.712 -0.3413 -0.8107  0.3015
  921MOL0     H24308   1.465   9.875   0.689  3.3722  0.1374 -1.5728
  921MOL0     H24309   1.327  10.042   0.594 -2.2122  0.7534 -0.0055
  921MOL0     H24310   1.328  10.154   0.726 -0.7874 -0.1511  0.9319
  921MOL0     H24311   1.160   9.890   0.711  0.5302  0.5978 -3.1419
  921MOL0     H24312   1.185   9.992   0.859  0.7822 -1.8657 -0.2862
  921MOL0     H24313   1.050  10.026   0.580  1.0817  1.5889 -0.6005
  921MOL0     H24314   1.102  10.167   0.671  0.0559 -0.5252  0.4376
  921MOL0     H24315   0.896   9.995   0.806 -1.7886  2.0189  1.3616
  921MOL0     H24316   0.860  10.103   0.683  1.3250  1.5281 -1.7791
  921MOL0     H24317   1.457  10.100   1.328  1.4797  0.7768 -0.1329
  921MOL0     H24318   1.387  10.061   1.571  1.3461 -0.6381  0.1535
  921MOL0     H24319   1.136   9.654   1.781 -0.6550 -0.5973  1.5804
  921MOL0     H24320   1.078   9.535   1.980 -1.4134 -0.0276  0.5155
  921MOL0     H24321   2.031   9.344   2.530  0.1939  3.7907 -1.2269
  921MOL0     H24322   1.888   9.281   2.719 -2.0295  0.7554  0.0538
  921MOL0     H24323   1.276   9.410   2.793  1.2327 -0.3824 -2.3103
  921MOL0     H24324   1.131   9.335   2.959 -0.0642 -0.6266 -2.4798
  921MOL0     H24325   1.004   9.247   3.147  1.5688 -0.0391  0.5112
  921MOL0     H24326   0.983   9.127   3.019  2.5644 -1.4206 -2.0518
  921MOL0     H24327   0.863   9.129   3.264  0.4960  1.2343  0.0601
  921MOL0     H24328   1.021   9.072   3.318 -0.5707 -2.1305  0.1499
  921MOL0     H24329   0.803   8.911   3.198 -0.7450 -0.3682  1.1135
  921MOL0     H24330   0.917   8.868   3.311  1.0348  2.1716  0.0778
  921MOL0     H24331   1.003   8.729   3.155  0.8201 -0.1656 -1.3714
  921MOL0     H24332   1.103   8.864   3.123  1.3292 -3.3181  1.6183
  921MOL0     H24333   0.832   8.926   2.796 -0.5652  5.0477  2.6396
  921MOL0     H24334   1.426   9.033   3.064 -1.8651 -0.3905  0.5509
  921MOL0     H24335   1.563   9.114   2.895 -1.2277 -1.1672 -2.6260
  922MOL0     O24336   8.199   2.584   1.074 -0.1694 -0.1515  0.4278
  922MOL0     C24337   8.203   2.702   1.112 -1.0984 -0.9892  0.8318
  922MOL0     O24338   8.289   2.810   1.066  0.0453  0.5762  0.1182
  922MOL0     C24339   8.369   2.787   0.962  0.6831 -0.1201 -0.5638
  922MOL0     C24340   8.472   2.699   0.980 -0.8770 -0.7553 -0.8572
  922MOL0     C24341   8.547   2.673   0.873 -0.3642 -0.2056  0.3205
  922MOL0     C24342   8.526   2.731   0.748  0.6034 -0.0370  0.4901
  922MOL0     O24343   8.593   2.681   0.644  0.4509  0.0158  0.9286
  922MOL0     C24344   8.534   2.549   0.606 -0.0638  0.2781 -0.6221
  922MOL0     C24345   8.564   2.514   0.460 -0.4615 -0.2569  0.2797
  922MOL0     C24346   8.711   2.493   0.440 -0.1375  1.1987  0.7366
  922MOL0     C24347   8.730   2.412   0.315 -0.6824  1.2113 -0.8710
  922MOL0     C24348   8.861   2.431   0.254 -0.7534 -0.6595 -0.4180
  922MOL0     C24349   8.884   2.548   0.156  0.0870  0.1498  0.4631
  922MOL0     C24350   9.038   2.569   0.127  1.0138 -0.6981  0.6868
  922MOL0     C24351   9.061   2.658   0.006  1.6988  0.2734 -0.2767
  922MOL0     N24352   9.186   2.727   0.016  0.2526 -0.3036 -0.1721
  922MOL0     C24353   9.198   2.861  -0.004 -0.0426 -0.3905  1.2752
  922MOL0     C24354   9.326   2.894   0.003  0.2966  0.5093 -0.2256
  922MOL0     C24355   9.375   3.032   0.012 -0.3327  0.2977  0.4417
  922MOL0     C24356   9.454   3.055   0.142  0.7987  0.8617 -0.0464
  922MOL0     C24357   9.365   3.013   0.273  0.6290  0.3139  0.4422
  922MOL0     C24358   9.431   3.061   0.395 -0.9838 -0.3363  0.0105
  922MOL0     O24359   9.380   2.996   0.517 -0.1161  0.3032 -1.3977
  922MOL0     C24360   9.368   3.070   0.632  0.0024  0.1953  0.0481
  922MOL0     C24361   9.406   3.204   0.655 -0.5759 -0.1082  0.2335
  922MOL0     C24362   9.376   3.274   0.775  0.2849 -0.3080  0.1704
  922MOL0     C24363   9.405   3.424   0.783  0.5495  0.3016  0.0507
  922MOL0     C24364   9.323   3.193   0.884  0.0594 -0.2250 -0.1767
  922MOL0     C24365   9.287   3.243   1.015  0.4033 -1.3132  0.7683
  922MOL0     O24366   9.333   3.368   1.041 -0.4840 -0.0300 -0.7021
  922MOL0     C24367   9.344   3.417   1.171  0.8835  0.1698  0.1302
  922MOL0     C24368   9.348   3.343   1.296  0.0774 -0.3551 -0.0193
  922MOL0     C24369   9.379   3.415   1.413  0.4203  0.5168 -0.0584
  922MOL0     C24370   9.404   3.554   1.421 -0.5453 -0.0012  0.3966
  922MOL0     O24371   9.427   3.625   1.533 -0.3109  0.0936 -0.2714
  922MOL0     C24372   9.436   3.564   1.665 -0.1085  0.0189 -0.9579
  922MOL0     C24373   9.490   3.643   1.781  0.0258  0.0758 -0.4172
  922MOL0     C24374   9.396   3.742   1.835  0.0337 -0.0995 -0.3772
  922MOL0     C24375   9.438   3.771   1.981  0.1484  0.8047 -0.5384
  922MOL0     C24376   9.348   3.893   2.030 -0.6264  1.0097 -0.6034
  922MOL0     C24377   9.353   3.908   2.182 -0.6014 -1.1723 -0.3925
  922MOL0     C24378   9.240   3.994   2.238  0.0448  0.1907  0.5458
  922MOL0     C24379   9.202   4.111   2.160 -0.0583 -0.9401  0.4364
  922MOL0    Cl24380   9.344   4.206   2.107 -0.2419  0.4535  0.1784
  922MOL0     C24381   9.405   3.617   1.298  0.4317  0.0732  0.5852
  922MOL0     C24382   9.376   3.555   1.175  0.3915  0.8596  0.1971
  922MOL0     O24383   9.209   3.179   1.078 -0.0053  0.1499  0.8539
  922MOL0     C24384   9.284   3.062   0.851  0.0016 -0.3036 -0.0483
  922MOL0     C24385   9.300   3.003   0.727  0.4980  0.4239  0.0207
  922MOL0     N24386   9.399   2.773   0.021  0.0791 -0.7109  1.0322
  922MOL0     N24387   9.311   2.674   0.022 -0.7543  0.6650 -0.4762
  922MOL0     C24388   8.426   2.829   0.729 -1.0690 -0.0824 -0.4857
  922MOL0     C24389   8.339   2.844   0.834  0.2441 -0.2676 -0.5088
  922MOL0     C24390   8.117   2.746   1.230 -0.9745 -0.3141  0.0539
  922MOL0     C24391   8.116   2.878   1.287 -1.1501  1.0704  0.6713
  922MOL0     C24392   8.028   2.905   1.386 -0.1639  0.4251  0.4167
  922MOL0     C24393   7.958   2.813   1.456 -0.0963  0.3010  0.6123
  922MOL0     O24394   7.889   2.858   1.568 -0.8048 -0.5970 -0.2855
  922MOL0     C24395   7.770   2.942   1.536  0.3204  0.2143 -0.1642
  922MOL0     C24396   7.755   3.041   1.650 -0.1098  0.7915  0.0641
  922MOL0     C24397   7.646   3.151   1.634  0.0860  0.4159 -0.4847
  922MOL0     C24398   7.644   3.248   1.758 -0.3758 -1.1283  0.5679
  922MOL0     C24399   7.770   3.309   1.788  0.8160 -0.2095 -0.0452
  922MOL0     C24400   7.871   3.369   1.806  0.2394  0.1509 -0.0395
  922MOL0     C24401   7.970   2.679   1.414 -0.3438 -0.5160 -0.2055
  922MOL0     C24402   8.034   2.648   1.294 -0.1919 -0.0996 -1.0024
  922MOL0     H24403   8.479   2.654   1.078 -2.4383  4.2164  1.8621
  922MOL0     H24404   8.624   2.596   0.879 -2.4875 -2.3906  2.1536
  922MOL0     H24405   8.588   2.473   0.662  2.0212  1.7959 -0.4184
  922MOL0     H24406   8.425   2.545   0.612  0.0207 -0.7683  0.4146
  922MOL0     H24407   8.533   2.413   0.433  3.0083 -1.1851 -0.7430
  922MOL0     H24408   8.525   2.587   0.390 -1.4349 -0.9368  0.0850
  922MOL0     H24409   8.765   2.587   0.422  0.3536  0.4658 -2.0594
  922MOL0     H24410   8.758   2.447   0.528  1.3389  3.3939  1.1786
  922MOL0     H24411   8.740   2.308   0.348  1.1223  0.2528 -4.0051
  922MOL0     H24412   8.643   2.421   0.249 -2.6571 -2.4206  0.9473
  922MOL0     H24413   8.935   2.441   0.334 -1.2315  0.0259 -0.0444
  922MOL0     H24414   8.875   2.340   0.195 -1.1030 -1.4726  0.7364
  922MOL0     H24415   8.837   2.528   0.059 -1.3517 -2.6358  1.5962
  922MOL0     H24416   8.845   2.640   0.199 -2.1525 -0.7820  0.5741
  922MOL0     H24417   9.102   2.595   0.212  0.8378  0.8294  0.3808
  922MOL0     H24418   9.067   2.472   0.085  1.0744  0.7461 -2.9390
  922MOL0     H24419   8.979   2.729   0.004 -0.0102 -1.5127  1.3725
  922MOL0     H24420   9.051   2.598  -0.084 -0.5544 -0.6518  0.5110
  922MOL0     H24421   9.115   2.931  -0.009  1.1707  1.0407  0.3866
  922MOL0     H24422   9.437   3.042  -0.078  0.8031 -0.1839  1.1535
  922MOL0     H24423   9.300   3.111   0.009 -0.6278  0.0724  1.6193
  922MOL0     H24424   9.491   3.158   0.142 -0.0509  1.2116 -2.1888
  922MOL0     H24425   9.540   2.987   0.143  0.7586  0.8034  0.8099
  922MOL0     H24426   9.357   2.904   0.270  0.1276  0.3663 -0.4899
  922MOL0     H24427   9.267   3.060   0.260  0.8848  0.4933 -1.0473
  922MOL0     H24428   9.411   3.169   0.390  3.4926  0.6138 -2.3319
  922MOL0     H24429   9.539   3.051   0.381 -0.3116 -0.1820  3.8972
  922MOL0     H24430   9.464   3.265   0.588  0.7693 -0.3936  1.0906
  922MOL0     H24431   9.490   3.425   0.852 -0.0515  1.8033  0.7919
  922MOL0     H24432   9.435   3.466   0.686  2.2307 -3.0487 -1.0651
  922MOL0     H24433   9.326   3.489   0.818  0.8699  0.1814  1.0112
  922MOL0     H24434   9.332   3.235   1.298  0.6238 -0.5687 -2.8713
  922MOL0     H24435   9.376   3.354   1.504  2.3945  0.8961  0.2937
  922MOL0     H24436   9.332   3.543   1.691  0.4575  1.3331  3.0536
  922MOL0     H24437   9.512   3.486   1.656 -0.9791 -0.8748 -0.7053
  922MOL0     H24438   9.513   3.574   1.863  2.0588  0.6944 -0.4238
  922MOL0     H24439   9.579   3.701   1.755  0.6933 -1.0274 -0.6321
  922MOL0     H24440   9.295   3.700   1.835  0.5254 -1.3496  0.6853
  922MOL0     H24441   9.388   3.826   1.766 -1.7134  0.3225  0.2694
  922MOL0     H24442   9.400   3.683   2.034  0.9117  1.1530  0.6463
  922MOL0     H24443   9.542   3.787   2.009  0.3801 -3.3805  1.8494
  922MOL0     H24444   9.242   3.873   2.011 -1.0989  2.8462 -0.0717
  922MOL0     H24445   9.374   3.979   1.968 -1.0073 -0.2585 -2.6043
  922MOL0     H24446   9.358   3.813   2.235  1.8546 -1.5928 -1.2524
  922MOL0     H24447   9.446   3.964   2.197  0.1135 -2.4662  0.1281
  922MOL0     H24448   9.286   4.035   2.328  0.5438  1.0311 -0.0747
  922MOL0     H24449   9.146   3.938   2.246  1.2092 -2.3451 -1.6344
  922MOL0     H24450   9.134   4.176   2.216 -1.2656 -0.7534 -1.1959
  922MOL0     H24451   9.157   4.093   2.062 -2.3890  3.9485  0.2613
  922MOL0     H24452   9.429   3.722   1.313  1.4208  0.2648 -1.9074
  922MOL0     H24453   9.381   3.607   1.080  2.1605  0.3305 -0.0314
  922MOL0     H24454   9.228   3.003   0.922 -0.7792  1.9525  1.3032
  922MOL0     H24455   9.270   2.900   0.709  0.1529  0.8890 -2.4075
  922MOL0     H24456   8.431   2.874   0.631  3.8272 -1.8329 -1.3514
  922MOL0     H24457   8.252   2.907   0.816  0.7968  1.5322  2.3448
  922MOL0     H24458   8.171   2.965   1.254  1.6378 -0.6792  0.3799
  922MOL0     H24459   8.009   3.007   1.418  0.7685  0.5714  0.5504
  922MOL0     H24460   7.779   2.984   1.435  0.0828 -0.8380 -0.6320
  922MOL0     H24461   7.682   2.878   1.528 -1.3639  2.2449  0.9819
  922MOL0     H24462   7.857   3.075   1.667  1.3022 -2.9189 -0.0556
  922MOL0     H24463   7.733   2.978   1.737 -0.5561  3.4775  2.0193
  922MOL0     H24464   7.547   3.106   1.621  0.1396 -0.3314  1.3672
  922MOL0     H24465   7.674   3.214   1.549  0.3467 -1.5479 -1.9393
  922MOL0     H24466   7.621   3.187   1.846  0.8829 -1.6711  0.5372
  922MOL0     H24467   7.571   3.329   1.750  1.3030  0.4228  0.5645
  922MOL0     H24468   7.959   3.426   1.830  1.4689 -2.7049  3.1289
  922MOL0     H24469   7.922   2.603   1.474  0.2417 -0.2512  0.6152
  922MOL0     H24470   8.026   2.547   1.255 -2.4160  0.9892 -3.7593
  923MOL0     O24471   2.605   2.937  10.827  0.5364 -0.8155 -0.0648
  923MOL0     C24472   2.723   2.927  10.790  0.8750  0.4997  0.0030
  923MOL0     O24473   2.827   2.959  10.864  0.1491 -0.1003 -0.6037
  923MOL0     C24474   2.833   3.083  10.919 -0.5583 -0.2741 -0.2459
  923MOL0     C24475   2.942   3.102  11.006 -0.2683  0.1612  0.5873
  923MOL0     C24476   2.954   3.221  11.084  0.0165 -0.6351  0.8044
  923MOL0     C24477   2.873   3.325  11.057 -0.6970 -0.3851 -1.3260
  923MOL0     O24478   2.890   3.436  11.144  0.0131  0.2776  0.4608
  923MOL0     C24479   2.903   3.552  11.064 -0.1266  0.2517 -0.7304
  923MOL0     C24480   2.951   3.675  11.142 -0.2792  0.1642  0.4431
  923MOL0     C24481   3.067   3.640  11.243  0.5895 -0.1144  0.4925
  923MOL0     C24482   3.107   3.767  11.313 -0.3408 -0.0533 -0.1209
  923MOL0     C24483   3.219   3.751  11.413 -0.4285  1.1953  0.5007
  923MOL0     C24484   3.220   3.861  11.512  0.0712 -0.9385  0.7953
  923MOL0     C24485   3.283   3.996  11.453  0.5527  0.1639 -1.4297
  923MOL0     C24486   3.297   4.091  11.576  0.6824  1.1619  0.1577
  923MOL0     N24487   3.404   4.063  11.669 -0.6335  0.1395 -0.2341
  923MOL0     C24488   3.526   3.998  11.641 -0.4320 -0.5423 -0.2113
  923MOL0     C24489   3.592   4.004  11.758  0.6822 -0.5899 -0.5053
  923MOL0     C24490   3.719   3.932  11.794 -0.0721 -0.0108 -0.3865
  923MOL0     C24491   3.842   3.982  11.701  1.0086 -0.2446  0.2349
  923MOL0     C24492   3.828   4.114  11.626  0.2456 -0.0660  0.5618
  923MOL0     C24493   3.963   4.134  11.541 -0.0003  0.4466 -0.0012
  923MOL0     O24494   3.956   4.264  11.473  0.6436  0.4221 -0.0533
  923MOL0     C24495   4.055   4.289  11.382  0.7329 -0.5864  0.5881
  923MOL0     C24496   4.176   4.222  11.361 -0.2168 -0.4604  0.2629
  923MOL0     C24497   4.266   4.260  11.260 -0.2886 -0.9026 -0.3592
  923MOL0     C24498   4.391   4.175  11.258  0.2684  0.0408 -0.0670
  923MOL0     C24499   4.218   4.357  11.169 -0.3302 -0.4070  0.0506
  923MOL0     C24500   4.304   4.398  11.053 -0.5251 -0.0597  0.7113
  923MOL0     O24501   4.244   4.480  10.957  0.2548  0.2844 -0.0887
  923MOL0     C24502   4.334   4.542  10.877 -1.1254 -0.1602 -0.4877
  923MOL0     C24503   4.366   4.676  10.905  0.1060 -0.3896 -0.0599
  923MOL0     C24504   4.482   4.731  10.840 -0.5458 -0.6770 -0.9312
  923MOL0     C24505   4.565   4.659  10.754 -0.8345 -0.6975  0.3829
  923MOL0     O24506   4.684   4.703  10.710 -0.6107  0.0306  0.1183
  923MOL0     C24507   4.778   4.737  10.813 -0.2348 -0.7389  0.2419
  923MOL0     C24508   4.908   4.776  10.756  0.1020  0.4400  0.5920
  923MOL0     C24509   4.988   4.655  10.709  0.6381  0.2444  0.2874
  923MOL0     C24510   5.099   4.705  10.615 -0.4675  0.2047  0.0031
  923MOL0     C24511   5.173   4.588  10.542  0.4950 -0.3766  0.1755
  923MOL0     C24512   5.257   4.636  10.418 -0.2165  0.0017  0.4461
  923MOL0     C24513   5.304   4.515  10.333 -0.0647 -0.2460 -0.8716
  923MOL0     C24514   5.414   4.548  10.234 -0.1288  0.1322 -0.3915
  923MOL0    Cl24515   5.548   4.639  10.315 -0.5901  0.1802 -0.0726
  923MOL0     C24516   4.537   4.530  10.723 -0.3139 -0.2173 -0.4959
  923MOL0     C24517   4.424   4.471  10.788  0.2997 -0.5637 -1.1150
  923MOL0     O24518   4.426   4.367  11.063 -0.5432 -0.0921 -0.4212
  923MOL0     C24519   4.101   4.435  11.192  0.1319 -0.4379 -0.1303
  923MOL0     C24520   4.025   4.399  11.300  0.5093 -0.0700  0.3949
  923MOL0     N24521   3.513   4.085  11.839 -0.8026 -0.3654  0.5705
  923MOL0     N24522   3.400   4.111  11.791  0.2130  0.4151 -0.4855
  923MOL0     C24523   2.766   3.313  10.964 -0.1972 -0.7619 -0.8765
  923MOL0     C24524   2.754   3.195  10.896  0.0318 -0.0286  0.6933
  923MOL0     C24525   2.737   2.844  10.666 -0.4585  0.0085  0.8031
  923MOL0     C24526   2.858   2.781  10.643  0.6318 -0.2638 -0.7345
  923MOL0     C24527   2.882   2.707  10.538 -0.3153 -0.9145  0.7562
  923MOL0     C24528   2.782   2.696  10.439  0.5362 -0.5293  0.2311
  923MOL0     O24529   2.816   2.627  10.327 -0.3947  0.3135 -0.0592
  923MOL0     C24530   2.721   2.620  10.223  0.5118  0.7322 -0.5258
  923MOL0     C24531   2.778   2.543  10.103 -0.2251 -0.1058 -1.2880
  923MOL0     C24532   2.926   2.586  10.067 -0.1924 -0.2493  0.8783
  923MOL0     C24533   2.921   2.730  10.009  0.5311  1.4734 -0.3512
  923MOL0     C24534   3.038   2.760   9.932  0.6811  0.0841 -0.0126
  923MOL0     C24535   3.149   2.785   9.884 -0.1970  1.1496  0.2974
  923MOL0     C24536   2.652   2.754  10.460 -0.6356  0.6149 -0.1478
  923MOL0     C24537   2.629   2.819  10.576 -0.6890 -0.0833 -0.5686
  923MOL0     H24538   3.023   3.033  11.029  1.0194  1.7816  1.1089
  923MOL0     H24539   3.033   3.230  11.158 -0.8679 -1.9706  1.9669
  923MOL0     H24540   2.962   3.540  10.972 -0.5834  1.4032 -1.1790
  923MOL0     H24541   2.806   3.574  11.020 -1.4858  1.7428  2.7001
  923MOL0     H24542   2.978   3.757  11.074 -0.4792 -1.1378 -1.2962
  923MOL0     H24543   2.865   3.717  11.194 -0.3326  1.4524 -0.6289
  923MOL0     H24544   3.038   3.560  11.313  0.2827  1.1183  1.8179
  923MOL0     H24545   3.150   3.612  11.178 -1.0520  1.7207 -2.6632
  923MOL0     H24546   3.130   3.847  11.242 -1.6391 -1.7940 -2.6790
  923MOL0     H24547   3.019   3.792  11.373 -0.4111 -0.7802  0.0867
  923MOL0     H24548   3.199   3.657  11.465 -2.1079  0.5663 -1.1675
  923MOL0     H24549   3.315   3.733  11.363 -1.3842 -1.2104 -0.6093
  923MOL0     H24550   3.116   3.882  11.537  0.0968  1.6283 -0.7883
  923MOL0     H24551   3.275   3.831  11.601  2.3058 -0.0663 -0.2108
  923MOL0     H24552   3.385   3.983  11.416  0.7204 -3.9713 -0.0169
  923MOL0     H24553   3.216   4.033  11.376  0.1686  2.7298  0.0155
  923MOL0     H24554   3.211   4.093  11.644 -2.4777  2.3818 -3.5114
  923MOL0     H24555   3.320   4.192  11.540 -0.3057  2.1831  2.1695
  923MOL0     H24556   3.555   3.950  11.548 -2.1961  0.2285 -1.2174
  923MOL0     H24557   3.745   3.949  11.899  1.2492  0.0901 -0.7079
  923MOL0     H24558   3.710   3.825  11.778  4.5562 -0.5359 -0.9563
  923MOL0     H24559   3.850   3.902  11.627  1.5126  0.4772 -0.5041
  923MOL0     H24560   3.932   3.974  11.763  0.0743 -5.2512  1.4064
  923MOL0     H24561   3.797   4.199  11.687 -0.2736 -1.0300  1.6752
  923MOL0     H24562   3.746   4.103  11.555  2.3563 -0.7421 -1.9363
  923MOL0     H24563   3.988   4.049  11.477 -1.3916 -2.0025  2.4995
  923MOL0     H24564   4.045   4.136  11.613 -1.4014 -1.3913  1.7318
  923MOL0     H24565   4.202   4.132  11.417  0.0261  0.2367  1.2954
  923MOL0     H24566   4.477   4.229  11.298  1.2405 -1.3469 -0.2237
  923MOL0     H24567   4.383   4.086  11.321 -2.5107 -1.0118 -1.7564
  923MOL0     H24568   4.396   4.140  11.155 -0.3171  0.7492 -0.3489
  923MOL0     H24569   4.324   4.753  10.969  1.6231  1.2080 -0.8824
  923MOL0     H24570   4.514   4.834  10.854 -0.8243 -0.1506 -3.5634
  923MOL0     H24571   4.733   4.819  10.870  0.0763  0.3477 -1.0293
  923MOL0     H24572   4.800   4.643  10.865 -0.4815 -2.1194 -2.0051
  923MOL0     H24573   4.902   4.853  10.679 -0.5369  0.3545  0.5517
  923MOL0     H24574   4.960   4.823  10.840  0.7504 -0.1053  0.5056
  923MOL0     H24575   4.922   4.587  10.654 -0.6710  0.8205  1.0991
  923MOL0     H24576   5.033   4.600  10.793 -2.6690  0.3897  2.3195
  923MOL0     H24577   5.064   4.767  10.533  0.9875 -0.3211 -1.0506
  923MOL0     H24578   5.167   4.773  10.668 -1.4498  0.9561  0.3328
  923MOL0     H24579   5.087   4.525  10.517  1.3237 -0.3106 -3.2334
  923MOL0     H24580   5.235   4.523  10.605  1.7378 -0.0485 -0.6661
  923MOL0     H24581   5.190   4.695  10.354 -4.5395 -2.6453  2.0964
  923MOL0     H24582   5.330   4.697  10.471  0.2549 -0.7136  0.6417
  923MOL0     H24583   5.215   4.487  10.276 -1.9987 -0.0672  1.8479
  923MOL0     H24584   5.345   4.445  10.406 -1.2991 -0.2694 -0.1659
  923MOL0     H24585   5.377   4.608  10.150  1.8334  1.9210 -0.0544
  923MOL0     H24586   5.438   4.449  10.193 -1.8824 -0.1383 -0.8627
  923MOL0     H24587   4.605   4.469  10.665 -1.8968 -1.7372 -0.8234
  923MOL0     H24588   4.417   4.368  10.756  1.4078 -0.5121 -1.5770
  923MOL0     H24589   4.075   4.522  11.133  0.5418 -0.0031  0.3188
  923MOL0     H24590   3.945   4.466  11.330  0.0870  0.4345 -1.6835
  923MOL0     H24591   2.687   3.387  10.963  0.5320  0.0166 -1.0963
  923MOL0     H24592   2.663   3.190  10.836 -1.1208 -0.8845  2.4290
  923MOL0     H24593   2.944   2.810  10.702 -1.1023  3.0561  0.4581
  923MOL0     H24594   2.982   2.666  10.530  1.2941  3.0109 -2.9100
  923MOL0     H24595   2.628   2.575  10.259  1.8932 -2.9588 -1.1171
  923MOL0     H24596   2.698   2.721  10.190 -0.2197  0.5818 -0.4858
  923MOL0     H24597   2.712   2.568  10.020 -2.2809  1.4276  0.6688
  923MOL0     H24598   2.754   2.441  10.133 -2.9051  1.0495  0.9432
  923MOL0     H24599   2.964   2.518   9.990 -0.6949  2.7095 -2.2218
  923MOL0     H24600   2.987   2.576  10.157  0.3769 -0.1003  0.5071
  923MOL0     H24601   2.892   2.809  10.079 -1.0383  1.5924 -1.1031
  923MOL0     H24602   2.840   2.728   9.936 -1.1153 -2.5861  1.2933
  923MOL0     H24603   3.244   2.813   9.842 -0.8806  0.6530 -1.6761
  923MOL0     H24604   2.574   2.757  10.384 -0.9160 -1.8921 -0.0188
  923MOL0     H24605   2.534   2.868  10.597 -0.0816  0.5621  0.8000
  924MOL0     O24606   7.054   1.073   5.032  0.2689  0.9290 -0.0020
  924MOL0     C24607   7.045   1.074   5.154 -0.2958 -0.2729 -0.5080
  924MOL0     O24608   7.068   0.967   5.238  0.3469  0.2121 -0.4468
  924MOL0     C24609   7.080   0.841   5.188  0.5291 -0.1005 -0.4337
  924MOL0     C24610   7.030   0.788   5.072 -0.3948 -0.1665 -0.1375
  924MOL0     C24611   7.062   0.656   5.024  0.0928  0.0769 -0.0826
  924MOL0     C24612   7.171   0.593   5.081 -0.1966 -0.1822 -0.4733
  924MOL0     O24613   7.254   0.497   5.025 -0.3320  0.2348 -0.4072
  924MOL0     C24614   7.222   0.456   4.890 -0.1410  0.3880 -0.1029
  924MOL0     C24615   7.346   0.370   4.839 -0.0394  0.5630 -0.1991
  924MOL0     C24616   7.470   0.449   4.788 -0.3381  0.5430  0.1453
  924MOL0     C24617   7.605   0.375   4.808  0.2551  1.0364 -0.3485
  924MOL0     C24618   7.721   0.471   4.774  0.3030 -0.4830 -0.2321
  924MOL0     C24619   7.861   0.417   4.814  0.5952 -0.3807 -0.0792
  924MOL0     C24620   7.976   0.508   4.769 -1.3508 -0.0913 -1.5401
  924MOL0     C24621   7.989   0.651   4.832  0.6062 -0.3425  0.2689
  924MOL0     N24622   8.122   0.703   4.788 -0.0906  0.7454 -0.1766
  924MOL0     C24623   8.162   0.732   4.658 -0.1483  0.4363  0.5283
  924MOL0     C24624   8.294   0.754   4.676 -0.6174  0.0777 -0.8091
  924MOL0     C24625   8.389   0.795   4.571  0.0122 -0.8120 -0.0483
  924MOL0     C24626   8.494   0.898   4.609 -0.4199  0.3423 -1.2193
  924MOL0     C24627   8.426   1.019   4.682  0.0282 -0.1747 -0.5421
  924MOL0     C24628   8.348   1.122   4.589  0.4163 -0.6173  0.3023
  924MOL0     O24629   8.227   1.059   4.521  0.3154 -0.3581  0.0120
  924MOL0     C24630   8.096   1.037   4.574 -0.0067 -0.3646  0.4416
  924MOL0     C24631   8.045   1.058   4.705  0.0476 -0.5770  0.8524
  924MOL0     C24632   7.912   1.031   4.741 -1.1434 -0.0994 -0.4219
  924MOL0     C24633   7.887   1.066   4.889 -0.4288  0.1676 -0.0881
  924MOL0     C24634   7.822   0.995   4.638 -1.2291  0.4435 -0.8219
  924MOL0     C24635   7.685   0.949   4.680  0.1039  0.2800 -0.3162
  924MOL0     O24636   7.587   0.934   4.579  0.3493  0.7061 -0.7467
  924MOL0     C24637   7.464   0.885   4.614 -0.1911 -1.2987 -0.0592
  924MOL0     C24638   7.394   0.812   4.522 -1.0992 -0.1802 -0.4820
  924MOL0     C24639   7.260   0.776   4.545  0.9274 -1.0849 -0.4987
  924MOL0     C24640   7.194   0.795   4.669 -1.1360  0.4765 -1.0298
  924MOL0     O24641   7.069   0.750   4.708 -0.8770  0.0036 -0.1567
  924MOL0     C24642   6.977   0.690   4.610 -1.0466  0.4818  1.3911
  924MOL0     C24643   6.834   0.654   4.662 -0.1585 -0.6864 -1.1571
  924MOL0     C24644   6.795   0.547   4.561 -0.1646  0.0384 -0.3472
  924MOL0     C24645   6.681   0.474   4.622  0.5531  0.2726 -0.7700
  924MOL0     C24646   6.671   0.324   4.579 -0.3030 -0.1001  0.6516
  924MOL0     C24647   6.644   0.302   4.429  0.2088  0.4524  0.2734
  924MOL0     C24648   6.621   0.159   4.378  0.6284  0.5778 -0.4072
  924MOL0     C24649   6.520   0.086   4.469 -0.3120 -0.5106  0.4683
  924MOL0    Cl24650   6.471  -0.060   4.394 -0.0146  0.1539  0.3604
  924MOL0     C24651   7.269   0.867   4.769  0.2564  0.2928  0.4645
  924MOL0     C24652   7.392   0.917   4.734  0.1451  0.3069  0.1383
  924MOL0     O24653   7.673   0.895   4.788 -1.1276  0.0916 -0.1823
  924MOL0     C24654   7.868   0.974   4.512 -0.3974  0.0354  0.3683
  924MOL0     C24655   8.002   0.988   4.476  1.3877 -0.5241  0.2176
  924MOL0     N24656   8.332   0.737   4.807 -0.3502  0.4567  0.4304
  924MOL0     N24657   8.227   0.726   4.871  0.3180 -0.5779  0.2373
  924MOL0     C24658   7.223   0.649   5.207  0.5214  0.4768 -0.0717
  924MOL0     C24659   7.171   0.768   5.249 -0.4369 -0.2329 -0.3997
  924MOL0     C24660   6.991   1.192   5.214 -0.7507 -0.5076  0.2114
  924MOL0     C24661   6.935   1.194   5.344 -0.1656  1.0612  0.0755
  924MOL0     C24662   6.874   1.307   5.398 -0.3769 -0.4709 -0.6446
  924MOL0     C24663   6.852   1.417   5.320  0.6526 -0.8113 -0.3245
  924MOL0     O24664   6.779   1.515   5.386 -0.2360 -0.2697 -0.0378
  924MOL0     C24665   6.791   1.656   5.341  0.1171 -0.8747 -0.9513
  924MOL0     C24666   6.913   1.718   5.398  0.6668  0.4105  0.4857
  924MOL0     C24667   6.916   1.873   5.361 -0.5629 -0.2803 -0.0175
  924MOL0     C24668   7.045   1.955   5.430  0.1878  0.0276  0.6411
  924MOL0     C24669   7.034   2.101   5.423  0.0603 -0.1623 -0.3186
  924MOL0     C24670   7.014   2.217   5.405 -0.0986  0.9488  0.2922
  924MOL0     C24671   6.915   1.427   5.190 -0.3208 -0.5876  0.1001
  924MOL0     C24672   6.992   1.312   5.142 -0.4314 -0.1365 -0.4286
  924MOL0     H24673   6.966   0.854   5.014  2.1064 -0.8434 -4.0422
  924MOL0     H24674   7.029   0.628   4.924 -2.9827 -0.3425  0.9406
  924MOL0     H24675   7.143   0.381   4.892  2.6847 -2.9206 -1.4760
  924MOL0     H24676   7.200   0.542   4.826  2.3585  0.1078 -1.4798
  924MOL0     H24677   7.388   0.329   4.931  0.1308  0.1953 -0.4382
  924MOL0     H24678   7.321   0.281   4.781  2.2018 -1.8968  2.3024
  924MOL0     H24679   7.442   0.460   4.683 -4.0015  0.7514  1.0036
  924MOL0     H24680   7.489   0.541   4.843  3.5504  2.0821 -3.2562
  924MOL0     H24681   7.621   0.338   4.909  1.5435  0.8300 -0.6126
  924MOL0     H24682   7.613   0.289   4.740 -1.2015  2.7616 -2.8930
  924MOL0     H24683   7.731   0.475   4.665 -1.8902 -0.7361 -0.4849
  924MOL0     H24684   7.716   0.564   4.831  3.1257 -1.6169  2.1181
  924MOL0     H24685   7.874   0.398   4.920 -1.3570  0.8423  0.4324
  924MOL0     H24686   7.877   0.321   4.763  0.1678 -1.0974  1.1039
  924MOL0     H24687   8.076   0.470   4.794 -0.4178  2.7164 -0.6712
  924MOL0     H24688   7.982   0.523   4.661  0.1184 -1.3432 -1.6827
  924MOL0     H24689   7.985   0.646   4.941 -0.9685  1.6022  0.3514
  924MOL0     H24690   7.908   0.714   4.795 -1.3603 -2.8916 -0.1114
  924MOL0     H24691   8.103   0.745   4.568  0.9616 -1.7188 -0.5757
  924MOL0     H24692   8.442   0.703   4.542 -2.5767 -2.8220  1.2057
  924MOL0     H24693   8.340   0.830   4.480  0.7916  2.3820  0.6368
  924MOL0     H24694   8.550   0.935   4.522 -0.3543  0.0837 -1.2912
  924MOL0     H24695   8.572   0.858   4.674 -1.7367  1.1964  0.9815
  924MOL0     H24696   8.518   1.069   4.716  0.7771  0.6157 -3.4567
  924MOL0     H24697   8.364   0.981   4.764 -1.2578  0.6070 -1.1261
  924MOL0     H24698   8.420   1.164   4.519  0.5798  3.7962  2.7424
  924MOL0     H24699   8.318   1.215   4.639  2.5591 -0.3831  1.2676
  924MOL0     H24700   8.119   1.111   4.763 -0.8104  0.5977  0.9155
  924MOL0     H24701   7.967   1.127   4.932  0.0019  0.0585 -0.7201
  924MOL0     H24702   7.787   1.110   4.892 -1.0557 -1.0001 -1.8072
  924MOL0     H24703   7.872   0.976   4.949  2.7096  0.1215  0.7697
  924MOL0     H24704   7.429   0.792   4.422 -1.4101 -0.4712 -0.5346
  924MOL0     H24705   7.208   0.721   4.467  3.2644 -0.6971 -2.4679
  924MOL0     H24706   6.959   0.759   4.527  1.7947 -0.5827 -0.2265
  924MOL0     H24707   7.033   0.606   4.568 -1.7299  0.4828  0.4414
  924MOL0     H24708   6.842   0.627   4.768  3.9474  1.1289 -0.8084
  924MOL0     H24709   6.770   0.741   4.645  0.4627  0.1560  0.6158
  924MOL0     H24710   6.883   0.483   4.546 -0.5295 -0.2647 -1.2154
  924MOL0     H24711   6.764   0.599   4.470  0.5068  2.6987  0.8247
  924MOL0     H24712   6.691   0.467   4.730 -0.4205  0.0162 -0.6864
  924MOL0     H24713   6.593   0.531   4.588  0.7223  1.2890  0.4368
  924MOL0     H24714   6.579   0.286   4.625 -0.6246 -1.2669 -0.8696
  924MOL0     H24715   6.755   0.264   4.615  0.5635  1.1378  0.7385
  924MOL0     H24716   6.561   0.366   4.400  0.5764 -0.1234 -2.2602
  924MOL0     H24717   6.733   0.337   4.375 -1.1885  3.7159 -0.1012
  924MOL0     H24718   6.721   0.118   4.392  0.1172 -0.8481 -0.7903
  924MOL0     H24719   6.593   0.171   4.273  1.9194  1.0345 -0.7244
  924MOL0     H24720   6.428   0.144   4.482 -1.2311 -1.2052 -2.2716
  924MOL0     H24721   6.553   0.085   4.573  1.1216  3.3774  0.2150
  924MOL0     H24722   7.224   0.882   4.866  2.1075  0.7875  1.3052
  924MOL0     H24723   7.430   0.991   4.804  3.5972 -0.5159 -0.7032
  924MOL0     H24724   7.807   0.935   4.430  2.3252  0.9989 -2.3041
  924MOL0     H24725   8.032   0.966   4.374 -0.2445 -1.5974 -0.0741
  924MOL0     H24726   7.291   0.581   5.257  1.9707  0.5027 -1.8881
  924MOL0     H24727   7.233   0.817   5.324 -1.1500  2.7206 -1.5682
  924MOL0     H24728   6.938   1.103   5.403  0.0466 -0.2652 -1.9018
  924MOL0     H24729   6.829   1.307   5.497 -0.3602 -0.0223 -0.6384
  924MOL0     H24730   6.794   1.653   5.232  1.5688  4.1811 -1.3231
  924MOL0     H24731   6.712   1.721   5.381  1.8885  0.3174  0.8277
  924MOL0     H24732   7.005   1.665   5.372 -0.3926 -0.7051 -1.1392
  924MOL0     H24733   6.905   1.699   5.505 -1.1224  0.7448  0.4296
  924MOL0     H24734   6.828   1.916   5.411 -1.0000 -0.4614 -0.6078
  924MOL0     H24735   6.918   1.893   5.253  0.5023 -2.7656 -0.5314
  924MOL0     H24736   7.137   1.937   5.373  0.2225 -0.2967  0.7943
  924MOL0     H24737   7.049   1.924   5.535  0.7100 -1.0444  0.3254
  924MOL0     H24738   7.013   2.323   5.417 -2.5524  1.1427 -0.9591
  924MOL0     H24739   6.921   1.520   5.134  1.8910 -0.5133  0.3576
  924MOL0     H24740   7.042   1.318   5.046  2.2471  0.3087  0.8989
  925MOL0     O24741   6.084   0.233   5.079 -0.3477 -0.0367 -0.3485
  925MOL0     C24742   6.208   0.228   5.089  0.4067  0.2917  0.0345
  925MOL0     O24743   6.303   0.221   4.979  0.1898  0.5791 -0.4646
  925MOL0     C24744   6.256   0.254   4.853  0.0404 -0.9608 -0.2122
  925MOL0     C24745   6.173   0.158   4.791 -0.3881 -0.4146  0.6155
  925MOL0     C24746   6.162   0.178   4.648 -0.0715 -0.2841 -0.0944
  925MOL0     C24747   6.211   0.296   4.581  0.4583  0.2370  0.4703
  925MOL0     O24748   6.209   0.312   4.438 -0.8299  0.2212 -0.0153
  925MOL0     C24749   6.124   0.229   4.361 -0.4255  1.2742  0.7605
  925MOL0     C24750   6.155   0.251   4.216 -0.2045 -0.6826  0.9511
  925MOL0     C24751   6.097   0.380   4.156  0.0445 -0.0204  0.5560
  925MOL0     C24752   6.153   0.401   4.014  0.1760 -0.2004  0.1038
  925MOL0     C24753   6.044   0.390   3.901  0.0019 -0.5161 -0.2144
  925MOL0     C24754   5.999   0.239   3.892  0.2721  0.3479  0.5896
  925MOL0     C24755   6.105   0.139   3.827 -0.0045  0.3935 -0.2662
  925MOL0     C24756   6.074   0.114   3.671  0.4164  0.9771  0.2064
  925MOL0     N24757   6.099   0.237   3.597  0.0084  0.2168 -1.1534
  925MOL0     C24758   6.004   0.330   3.549  0.2682  0.0537 -0.3459
  925MOL0     C24759   6.081   0.415   3.484 -0.4870 -1.0246  0.5220
  925MOL0     C24760   6.031   0.522   3.383  0.0234  0.2808 -0.8456
  925MOL0     C24761   6.055   0.481   3.237 -0.4453 -0.0188  0.0250
  925MOL0     C24762   6.198   0.522   3.195 -0.6144  0.4963  0.7943
  925MOL0     C24763   6.209   0.495   3.046  0.9115  1.0340 -0.7498
  925MOL0     O24764   6.138   0.596   2.972  0.6028  0.8228 -1.0857
  925MOL0     C24765   6.109   0.562   2.845 -0.7948 -0.2435  0.7660
  925MOL0     C24766   6.069   0.433   2.807  1.7508 -0.1828 -0.1674
  925MOL0     C24767   6.033   0.402   2.673  0.7218  0.1186 -1.0075
  925MOL0     C24768   5.945   0.272   2.648 -0.1668 -0.0986 -0.8496
  925MOL0     C24769   6.072   0.491   2.566 -0.1014 -0.6374 -0.2914
  925MOL0     C24770   6.077   0.451   2.426 -0.0869  0.3088  0.8042
  925MOL0     O24771   6.107   0.551   2.337  0.0781  0.2334 -0.7854
  925MOL0     C24772   6.098   0.529   2.203 -0.2389 -0.1178 -0.2647
  925MOL0     C24773   5.971   0.522   2.139 -0.5441  0.1329 -0.3181
  925MOL0     C24774   5.970   0.473   2.005 -0.3292  1.1021 -0.1967
  925MOL0     C24775   6.087   0.425   1.941  0.4973  0.4397  0.1845
  925MOL0     O24776   6.080   0.380   1.812  0.0397 -0.0725 -0.1749
  925MOL0     C24777   5.965   0.403   1.734 -0.2314  0.1135 -0.0736
  925MOL0     C24778   6.002   0.331   1.602 -0.8335  0.1592  0.5362
  925MOL0     C24779   6.127   0.390   1.521  0.9327 -0.5705 -0.5165
  925MOL0     C24780   6.189   0.268   1.447 -0.0546  0.0684 -0.2294
  925MOL0     C24781   6.263   0.322   1.317  0.1866 -0.5476 -0.4886
  925MOL0     C24782   6.416   0.327   1.328 -0.6515 -0.0029  0.2018
  925MOL0     C24783   6.500   0.306   1.198 -0.3334 -0.2073 -0.7887
  925MOL0     C24784   6.446   0.400   1.096 -0.2188  0.4299 -0.9364
  925MOL0    Cl24785   6.565   0.393   0.954 -0.5389  0.6421  0.1845
  925MOL0     C24786   6.208   0.446   2.003  0.5158 -0.4067  0.4333
  925MOL0     C24787   6.215   0.494   2.134 -0.2725  0.2258  0.5977
  925MOL0     O24788   6.016   0.354   2.395  0.4064  0.4088 -0.8081
  925MOL0     C24789   6.126   0.612   2.607  0.1258 -0.1693  0.1269
  925MOL0     C24790   6.139   0.644   2.738  0.5809  0.1567 -0.0590
  925MOL0     N24791   6.216   0.387   3.498 -1.1177  0.8559 -1.2858
  925MOL0     N24792   6.222   0.278   3.567 -0.0727  0.8804  0.1078
  925MOL0     C24793   6.278   0.395   4.654  0.3232 -0.3671 -0.2517
  925MOL0     C24794   6.299   0.372   4.795  0.3992  0.3931  0.8994
  925MOL0     C24795   6.257   0.198   5.227 -0.2094  1.1460 -0.4756
  925MOL0     C24796   6.177   0.223   5.335 -0.8462 -0.9154  0.3318
  925MOL0     C24797   6.223   0.203   5.463 -0.3124  0.4750 -0.1187
  925MOL0     C24798   6.352   0.155   5.494 -0.2246  0.2778 -1.0739
  925MOL0     O24799   6.409   0.148   5.621  0.9184  0.3781  0.7907
  925MOL0     C24800   6.335   0.196   5.729 -0.0682  0.4045  1.2425
  925MOL0     C24801   6.405   0.169   5.851 -0.1356  0.2609 -0.8018
  925MOL0     C24802   6.449   0.024   5.878 -0.4663  0.7710 -0.4802
  925MOL0     C24803   6.354  -0.083   5.825  0.8214 -0.2687 -0.1293
  925MOL0     C24804   6.241  -0.081   5.905  0.2303 -0.1006 -0.8982
  925MOL0     C24805   6.151  -0.090   5.990 -0.3975 -0.2517 -0.0778
  925MOL0     C24806   6.437   0.130   5.381 -0.3126  0.0457  0.2165
  925MOL0     C24807   6.386   0.148   5.251  0.5851  0.6291 -0.6446
  925MOL0     H24808   6.142   0.061   4.830  0.6396 -0.1135  2.2863
  925MOL0     H24809   6.125   0.094   4.590 -0.8207 -2.4527  3.2870
  925MOL0     H24810   6.139   0.125   4.392  0.9543  1.1027 -0.3574
  925MOL0     H24811   6.022   0.267   4.373  0.3712  3.1827  1.9487
  925MOL0     H24812   6.263   0.250   4.198 -0.5052 -2.5388 -1.1420
  925MOL0     H24813   6.115   0.169   4.155 -1.8575  0.9075 -0.2248
  925MOL0     H24814   5.988   0.375   4.153 -0.2384  1.1506  4.3403
  925MOL0     H24815   6.112   0.465   4.222 -1.0793 -0.9916  2.1142
  925MOL0     H24816   6.168   0.508   3.997 -0.3680 -0.4940 -2.7234
  925MOL0     H24817   6.247   0.352   3.988  0.4775 -0.1749  1.1121
  925MOL0     H24818   5.959   0.450   3.936  1.3764  0.3367  1.8604
  925MOL0     H24819   6.090   0.437   3.814  1.7990  1.3391  1.6226
  925MOL0     H24820   5.971   0.210   3.994 -4.2032  1.6222 -0.0758
  925MOL0     H24821   5.907   0.235   3.833  1.3051  0.5280 -1.1054
  925MOL0     H24822   6.203   0.185   3.845  0.3520 -0.4043 -0.1432
  925MOL0     H24823   6.109   0.044   3.880  5.0429  2.0820  3.1646
  925MOL0     H24824   5.968   0.095   3.650  0.3273  2.9963 -1.4684
  925MOL0     H24825   6.133   0.034   3.626 -1.7549  0.4215 -1.8746
  925MOL0     H24826   5.896   0.320   3.552  0.2791 -1.0611 -2.3250
  925MOL0     H24827   5.923   0.525   3.400  0.1598  3.6482 -0.0097
  925MOL0     H24828   6.064   0.625   3.400  0.6828  0.0068 -0.4119
  925MOL0     H24829   5.979   0.530   3.176 -2.7710 -1.4183  1.5968
  925MOL0     H24830   6.025   0.376   3.245 -3.0580  0.7733  2.1639
  925MOL0     H24831   6.272   0.459   3.245 -2.8666 -1.0067  2.4689
  925MOL0     H24832   6.214   0.629   3.214  0.5628  0.9431 -2.1708
  925MOL0     H24833   6.164   0.397   3.028  2.9551 -0.4791  1.7285
  925MOL0     H24834   6.314   0.507   3.019  0.9312 -0.8899 -1.7179
  925MOL0     H24835   6.031   0.356   2.872 -0.9240 -0.4857 -1.9207
  925MOL0     H24836   5.843   0.311   2.634 -0.7144  0.5997  3.5911
  925MOL0     H24837   5.983   0.201   2.575 -2.4329 -2.8496  0.4482
  925MOL0     H24838   5.930   0.216   2.740  0.2188  1.2008  0.0423
  925MOL0     H24839   5.883   0.549   2.196  0.0861  3.8360 -0.8648
  925MOL0     H24840   5.871   0.445   1.969  0.8215 -5.0934  0.3625
  925MOL0     H24841   5.871   0.363   1.772  0.2344 -0.3007  0.6612
  925MOL0     H24842   5.958   0.511   1.721 -0.0836  0.0273 -0.9544
  925MOL0     H24843   6.011   0.225   1.626 -1.1361 -0.1091 -0.5047
  925MOL0     H24844   5.908   0.334   1.546 -0.3052 -0.9653 -0.4464
  925MOL0     H24845   6.212   0.431   1.575  1.9685  1.6544 -3.5648
  925MOL0     H24846   6.089   0.467   1.454  1.9142 -0.2816 -0.7607
  925MOL0     H24847   6.255   0.206   1.509 -0.0618  0.6719  0.3976
  925MOL0     H24848   6.107   0.207   1.407  1.1361 -0.9038 -1.2354
  925MOL0     H24849   6.222   0.419   1.288  3.6056  0.3745 -2.9279
  925MOL0     H24850   6.232   0.266   1.228 -1.6211  0.2659 -0.4133
  925MOL0     H24851   6.449   0.425   1.364 -0.0731  0.0488 -0.4577
  925MOL0     H24852   6.459   0.260   1.403 -5.2224 -3.5720  0.1018
  925MOL0     H24853   6.502   0.200   1.171 -2.7628 -1.0223  1.6683
  925MOL0     H24854   6.601   0.340   1.220  0.2180 -3.2100  2.3520
  925MOL0     H24855   6.443   0.500   1.141  5.0351  0.1473  0.7641
  925MOL0     H24856   6.346   0.365   1.070 -0.3263 -2.0927  2.2647
  925MOL0     H24857   6.300   0.416   1.954  1.5070 -0.7788  2.4137
  925MOL0     H24858   6.305   0.522   2.188 -1.6402  1.4692  2.3340
  925MOL0     H24859   6.167   0.685   2.537  1.0640 -0.2582  0.5668
  925MOL0     H24860   6.184   0.739   2.765 -2.0762  1.2784  0.7543
  925MOL0     H24861   6.318   0.482   4.602 -2.8013 -0.1277 -2.5391
  925MOL0     H24862   6.373   0.439   4.838  2.0703 -1.6612  1.3655
  925MOL0     H24863   6.074   0.256   5.325 -0.4256  0.5735  0.7200
  925MOL0     H24864   6.154   0.209   5.547  1.8406 -0.2720  1.8087
  925MOL0     H24865   6.308   0.300   5.712 -3.5342 -0.6438 -0.5587
  925MOL0     H24866   6.240   0.142   5.733 -0.4419  1.0440  1.0724
  925MOL0     H24867   6.345   0.204   5.935  1.7556 -0.5367  0.9535
  925MOL0     H24868   6.500   0.224   5.859  1.4279 -2.5974  3.2666
  925MOL0     H24869   6.477   0.010   5.983  2.8350 -0.3251 -1.3925
  925MOL0     H24870   6.545  -0.001   5.831 -1.2296  0.0296 -1.6712
  925MOL0     H24871   6.403  -0.180   5.840  0.5216  0.0848  4.8432
  925MOL0     H24872   6.341  -0.075   5.717  1.9384  2.0789 -0.1647
  925MOL0     H24873   6.063  -0.111   6.048 -0.3797  0.2303  0.1223
  925MOL0     H24874   6.538   0.091   5.395 -1.1530 -1.6740  1.9449
  925MOL0     H24875   6.448   0.115   5.168  1.4325 -3.1291  1.2585
  926MOL0     O24876   7.931   8.229   5.225  0.3323 -0.1717  0.4772
  926MOL0     C24877   8.037   8.230   5.161  0.0225 -0.7188  0.5488
  926MOL0     O24878   8.064   8.312   5.046 -0.0477  0.2223  0.5055
  926MOL0     C24879   7.975   8.411   5.010 -0.6848 -0.4330 -0.0041
  926MOL0     C24880   7.939   8.419   4.874 -0.5906 -0.6533  0.2188
  926MOL0     C24881   7.848   8.516   4.827 -0.3324  0.7008 -0.4018
  926MOL0     C24882   7.806   8.616   4.919  1.2195  0.3548 -0.1030
  926MOL0     O24883   7.734   8.726   4.869 -0.7374 -0.4773  0.1824
  926MOL0     C24884   7.736   8.854   4.943 -0.2746  0.6554 -0.5995
  926MOL0     C24885   7.644   8.948   4.868 -0.0814 -0.2792  0.3124
  926MOL0     C24886   7.495   8.908   4.883 -0.9084  0.3364 -0.0552
  926MOL0     C24887   7.420   8.988   4.777  0.7796 -0.5854  0.0768
  926MOL0     C24888   7.262   8.976   4.795  1.0286 -0.1038  0.5451
  926MOL0     C24889   7.200   9.100   4.730  0.9216 -0.4758 -0.3319
  926MOL0     C24890   7.042   9.088   4.717 -0.0927  0.4454  0.1211
  926MOL0     C24891   7.007   9.119   4.564  0.1556 -0.0252  0.8698
  926MOL0     N24892   6.868   9.128   4.517  0.5343  0.2771 -0.2113
  926MOL0     C24893   6.782   9.021   4.510  0.1402  0.4118 -0.0764
  926MOL0     C24894   6.662   9.069   4.467  0.3292 -0.2418  0.2679
  926MOL0     C24895   6.535   8.982   4.439  0.2172 -0.5971  0.7186
  926MOL0     C24896   6.538   8.915   4.298 -0.2247 -0.5133  0.0973
  926MOL0     C24897   6.638   8.800   4.286 -0.2959 -0.1576  0.0816
  926MOL0     C24898   6.615   8.717   4.148  0.5091 -0.1304 -0.3905
  926MOL0     O24899   6.477   8.700   4.143  0.1483  0.2199  0.2936
  926MOL0     C24900   6.414   8.617   4.052  0.6708  0.2096  0.4505
  926MOL0     C24901   6.474   8.569   3.932  0.5128 -0.2901 -1.1057
  926MOL0     C24902   6.397   8.491   3.849 -0.8219  0.2140 -0.5939
  926MOL0     C24903   6.476   8.448   3.728  1.1814 -0.8220 -0.4235
  926MOL0     C24904   6.263   8.454   3.884 -0.1040 -0.5868  1.1121
  926MOL0     C24905   6.181   8.357   3.810 -0.1890 -0.4718  0.1828
  926MOL0     O24906   6.051   8.350   3.853 -0.0154 -0.6012 -0.5235
  926MOL0     C24907   5.973   8.283   3.764 -0.0643 -0.4724 -0.9636
  926MOL0     C24908   5.984   8.145   3.743  0.5872  0.2731  0.5408
  926MOL0     C24909   5.915   8.084   3.640 -0.3822 -0.4034  0.4062
  926MOL0     C24910   5.815   8.155   3.566  0.5278 -0.0504  0.7078
  926MOL0     O24911   5.740   8.100   3.470 -0.0336 -1.1179 -0.1737
  926MOL0     C24912   5.804   7.992   3.393  0.6236  0.5138  0.6584
  926MOL0     C24913   5.739   7.995   3.257  0.5790  0.3892 -0.4559
  926MOL0     C24914   5.770   8.122   3.180  0.5542  0.2675  0.3931
  926MOL0     C24915   5.734   8.124   3.036 -0.2921 -1.1403  0.5437
  926MOL0     C24916   5.726   8.275   2.994 -0.0049  0.0879 -0.2722
  926MOL0     C24917   5.684   8.286   2.846  0.3959  0.9922  0.3502
  926MOL0     C24918   5.536   8.269   2.804 -0.7423 -0.2172  0.6538
  926MOL0     C24919   5.511   8.314   2.662  0.3795 -0.1819 -0.5249
  926MOL0    Cl24920   5.636   8.229   2.559 -0.0700  0.5105  0.3226
  926MOL0     C24921   5.792   8.293   3.587 -0.7843 -0.2476 -0.0183
  926MOL0     C24922   5.873   8.362   3.691 -0.0974 -0.7096 -0.4708
  926MOL0     O24923   6.232   8.302   3.714  0.3763  0.5307 -0.8806
  926MOL0     C24924   6.208   8.511   4.005  0.1200  0.7210 -0.4825
  926MOL0     C24925   6.282   8.585   4.088  0.1790  0.3681  1.0174
  926MOL0     N24926   6.677   9.209   4.479 -0.7232  0.2504 -0.2010
  926MOL0     N24927   6.794   9.246   4.509 -1.2663  0.4643  0.6728
  926MOL0     C24928   7.828   8.596   5.054 -0.1693 -0.7907 -0.6988
  926MOL0     C24929   7.917   8.504   5.103  0.1968  1.0305  0.1123
  926MOL0     C24930   8.139   8.125   5.183  0.8870 -0.0443 -0.7082
  926MOL0     C24931   8.138   8.054   5.311  0.4553 -0.7409  0.0634
  926MOL0     C24932   8.226   7.949   5.338  0.3556  0.0651 -0.2961
  926MOL0     C24933   8.327   7.922   5.247  0.6724  0.7119  0.6380
  926MOL0     O24934   8.418   7.829   5.286  0.5971 -0.0720  0.3878
  926MOL0     C24935   8.464   7.724   5.206 -0.6912  0.5301 -0.0039
  926MOL0     C24936   8.429   7.597   5.273  0.5760 -0.2759 -0.5950
  926MOL0     C24937   8.533   7.571   5.391  0.6372 -0.0633 -0.3886
  926MOL0     C24938   8.463   7.455   5.471  0.1140 -0.2622  0.2180
  926MOL0     C24939   8.330   7.480   5.524  1.5069 -0.0590  1.3229
  926MOL0     C24940   8.215   7.504   5.564  0.1489  0.5652 -0.3443
  926MOL0     C24941   8.320   7.982   5.124  0.9841 -0.9530  0.4630
  926MOL0     C24942   8.235   8.089   5.090 -0.6656  0.1103  0.2261
  926MOL0     H24943   7.995   8.361   4.801 -0.2211 -0.9248  0.7076
  926MOL0     H24944   7.835   8.524   4.720  0.6876  1.2980 -0.5051
  926MOL0     H24945   7.709   8.843   5.049  1.1324 -0.2321 -0.3034
  926MOL0     H24946   7.841   8.883   4.948  0.9789 -3.3381  3.3719
  926MOL0     H24947   7.649   9.053   4.900  1.2573 -0.2085 -0.0750
  926MOL0     H24948   7.676   8.957   4.764 -3.3083 -0.1439 -0.7800
  926MOL0     H24949   7.486   8.799   4.880  1.3036  0.1156 -1.2437
  926MOL0     H24950   7.471   8.937   4.986  2.3834  1.0843  0.6226
  926MOL0     H24951   7.456   9.089   4.795  1.9172 -0.2828 -3.1993
  926MOL0     H24952   7.455   8.945   4.683 -1.9330  0.5600 -1.5937
  926MOL0     H24953   7.221   8.886   4.748  0.4102 -1.5519  3.6125
  926MOL0     H24954   7.246   8.973   4.903  2.2844 -0.7339  0.7321
  926MOL0     H24955   7.218   9.184   4.798 -0.9776  3.8762 -4.6394
  926MOL0     H24956   7.249   9.107   4.633 -0.6355 -0.5045 -1.1418
  926MOL0     H24957   7.011   8.986   4.744  1.3728 -0.1578 -0.3450
  926MOL0     H24958   6.988   9.152   4.787  0.0662 -0.2348  0.8824
  926MOL0     H24959   7.046   9.036   4.504 -0.0495 -0.0184  0.7273
  926MOL0     H24960   7.049   9.216   4.536 -0.6572  0.6067  1.7799
  926MOL0     H24961   6.811   8.918   4.525 -4.0292 -1.1776 -1.4526
  926MOL0     H24962   6.543   8.898   4.510  1.9909 -1.2360 -0.1741
  926MOL0     H24963   6.445   9.041   4.459  1.1229  0.8577  0.6740
  926MOL0     H24964   6.558   8.999   4.231 -2.7059  2.6500  2.9238
  926MOL0     H24965   6.433   8.886   4.284 -0.0566 -1.7866  1.2504
  926MOL0     H24966   6.628   8.738   4.375  3.4028  0.9616  1.4842
  926MOL0     H24967   6.741   8.834   4.300 -1.0217  0.7705  4.5243
  926MOL0     H24968   6.675   8.626   4.140 -1.4943 -1.3529 -3.7576
  926MOL0     H24969   6.636   8.781   4.062  1.0094  0.7214  0.3539
  926MOL0     H24970   6.581   8.584   3.918  1.0142 -2.5562 -0.0951
  926MOL0     H24971   6.427   8.377   3.661  1.3313 -2.1395  0.8062
  926MOL0     H24972   6.498   8.542   3.677 -2.0368  1.7747  2.4716
  926MOL0     H24973   6.564   8.396   3.766  0.7235 -1.5339 -0.3118
  926MOL0     H24974   6.052   8.089   3.807  1.8391  3.1296  1.9036
  926MOL0     H24975   5.915   7.977   3.624  0.2953 -0.1498 -1.6729
  926MOL0     H24976   5.912   8.005   3.403  0.5935 -0.2630  2.3688
  926MOL0     H24977   5.781   7.896   3.439  1.0661  0.3135  0.4626
  926MOL0     H24978   5.767   7.903   3.205  2.7038  2.3110 -2.9602
  926MOL0     H24979   5.632   7.986   3.280  0.4421  0.1777 -1.1556
  926MOL0     H24980   5.876   8.151   3.182  0.9374 -1.0974  2.1698
  926MOL0     H24981   5.703   8.193   3.229 -0.5449  1.1682 -2.2179
  926MOL0     H24982   5.809   8.064   2.983 -0.3092 -0.4609 -0.2742
  926MOL0     H24983   5.637   8.080   3.013 -1.3831  1.9242 -1.3553
  926MOL0     H24984   5.823   8.319   3.017  0.1084 -0.7533  0.9799
  926MOL0     H24985   5.662   8.338   3.057 -0.7416 -1.0098  0.1161
  926MOL0     H24986   5.725   8.381   2.812  0.5911  0.4929 -0.8610
  926MOL0     H24987   5.731   8.203   2.793 -2.4740 -0.8212  0.4134
  926MOL0     H24988   5.472   8.323   2.874 -2.9502  0.8276 -1.9899
  926MOL0     H24989   5.505   8.165   2.818  4.4143 -2.0430  0.6522
  926MOL0     H24990   5.523   8.422   2.674  1.1419 -0.4368  1.4808
  926MOL0     H24991   5.408   8.293   2.633  0.0787  0.7776 -0.1798
  926MOL0     H24992   5.722   8.351   3.529  0.7922  2.0300  0.2588
  926MOL0     H24993   5.863   8.469   3.703  3.4123 -0.1107 -1.7991
  926MOL0     H24994   6.113   8.475   4.044  0.1931  1.3313  0.3036
  926MOL0     H24995   6.223   8.616   4.174  0.6174 -0.4079  1.6069
  926MOL0     H24996   7.787   8.656   5.134 -1.0327 -4.0607  1.5318
  926MOL0     H24997   7.953   8.510   5.205 -0.1390  2.2483  0.1736
  926MOL0     H24998   8.058   8.083   5.378 -0.5114  1.1725 -1.8041
  926MOL0     H24999   8.231   7.887   5.427 -0.2672  1.7952  1.0030
  926MOL0     H25000   8.432   7.716   5.102  1.0308 -1.7177 -0.4450
  926MOL0     H25001   8.573   7.729   5.197 -0.6214  2.5686  1.3656
  926MOL0     H25002   8.428   7.517   5.198 -4.2548  0.0555 -1.2112
  926MOL0     H25003   8.328   7.612   5.314  2.8886  3.5877  4.8868
  926MOL0     H25004   8.553   7.656   5.456 -0.7845 -1.8207  2.5740
  926MOL0     H25005   8.628   7.530   5.356  3.2599  3.2931  2.1232
  926MOL0     H25006   8.521   7.429   5.559 -0.3069 -2.0320  0.0051
  926MOL0     H25007   8.466   7.367   5.406  2.3910  0.7798 -1.2307
  926MOL0     H25008   8.124   7.541   5.608  2.3830  1.2522  4.3054
  926MOL0     H25009   8.397   7.952   5.054  1.5443 -1.8442  1.4243
  926MOL0     H25010   8.263   8.130   4.994  2.0577  2.0478  1.6957
  927MOL0     O25011   2.230   4.805   6.538 -0.8529 -0.1516  0.3892
  927MOL0     C25012   2.302   4.891   6.584 -0.1122 -0.2776  0.7405
  927MOL0     O25013   2.393   4.868   6.685 -1.0706  0.0524 -0.0582
  927MOL0     C25014   2.435   4.741   6.709 -0.9531 -0.3780 -0.3838
  927MOL0     C25015   2.492   4.665   6.607 -0.5556  0.1501  0.1122
  927MOL0     C25016   2.571   4.553   6.638 -0.4360  0.0770 -0.2310
  927MOL0     C25017   2.561   4.499   6.767  0.3732 -0.1588  0.0449
  927MOL0     O25018   2.631   4.378   6.788  0.2519 -0.5220 -0.0486
  927MOL0     C25019   2.581   4.263   6.720  0.5859  0.4563  0.0161
  927MOL0     C25020   2.442   4.212   6.760 -0.1330 -0.1441  0.5750
  927MOL0     C25021   2.455   4.137   6.895  0.4472 -1.1998 -0.7738
  927MOL0     C25022   2.355   4.045   6.925  0.4246  0.1059 -0.2697
  927MOL0     C25023   2.367   3.999   7.066 -0.0470  0.5118 -0.2575
  927MOL0     C25024   2.273   3.871   7.098 -0.3036 -0.0342 -0.0016
  927MOL0     C25025   2.300   3.820   7.241  1.1133  0.0208 -0.6162
  927MOL0     C25026   2.198   3.712   7.288 -0.1915 -0.3968  0.8615
  927MOL0     N25027   2.066   3.771   7.300 -0.0615  0.0460  0.8755
  927MOL0     C25028   2.034   3.893   7.366 -0.2534 -0.3148 -0.2698
  927MOL0     C25029   1.911   3.932   7.315  1.1880 -1.2676 -0.3558
  927MOL0     C25030   1.826   4.053   7.348 -0.3551 -0.2241  0.4602
  927MOL0     C25031   1.684   4.029   7.405  0.3528 -0.6769  0.1706
  927MOL0     C25032   1.602   4.152   7.373 -0.1532  0.0577  0.1473
  927MOL0     C25033   1.470   4.156   7.446  0.2339  0.0421 -0.2707
  927MOL0     O25034   1.477   4.250   7.550 -0.2847 -0.4891  0.3689
  927MOL0     C25035   1.374   4.240   7.644  0.5388 -0.1040 -0.0125
  927MOL0     C25036   1.390   4.292   7.763 -0.0560  0.0884  0.5483
  927MOL0     C25037   1.292   4.308   7.855 -0.0826  0.9375 -0.3214
  927MOL0     C25038   1.323   4.332   8.010 -0.6599  0.0813  0.4816
  927MOL0     C25039   1.160   4.282   7.812  0.3388 -0.0185  0.6538
  927MOL0     C25040   1.053   4.316   7.899  0.6055 -0.8004  0.1121
  927MOL0     O25041   0.955   4.221   7.921 -0.2415 -0.6273 -0.6403
  927MOL0     C25042   0.866   4.234   8.027 -1.1606 -0.7057  0.2124
  927MOL0     C25043   0.842   4.126   8.108  0.0518  0.0782  0.3022
  927MOL0     C25044   0.743   4.128   8.198  0.1118  0.0215 -0.9570
  927MOL0     C25045   0.672   4.246   8.227  0.1540 -0.6750 -0.1258
  927MOL0     O25046   0.588   4.276   8.331  0.6690 -0.0081 -0.0968
  927MOL0     C25047   0.623   4.248   8.466 -0.6419  1.2557 -0.5633
  927MOL0     C25048   0.533   4.288   8.578  0.1916 -0.3988 -0.1778
  927MOL0     C25049   0.509   4.438   8.575  0.8778 -0.3965  0.8920
  927MOL0     C25050   0.402   4.472   8.679 -1.2897  0.0811 -0.9173
  927MOL0     C25051   0.271   4.524   8.608  0.5557 -0.0268 -0.3392
  927MOL0     C25052   0.162   4.561   8.708  1.0817 -0.3913 -0.7649
  927MOL0     C25053   0.046   4.654   8.647  0.1227  0.8609 -0.4021
  927MOL0     C25054  -0.035   4.720   8.766 -0.4986  1.0617  1.2184
  927MOL0    Cl25055  -0.172   4.810   8.716  0.0851 -0.3857  0.0888
  927MOL0     C25056   0.695   4.360   8.151 -0.4563 -0.2414  0.5386
  927MOL0     C25057   0.789   4.348   8.042  0.6576  0.4132  0.5691
  927MOL0     O25058   1.054   4.429   7.948  0.0237 -0.5132  0.3428
  927MOL0     C25059   1.131   4.227   7.690 -0.4522  2.0752 -0.9264
  927MOL0     C25060   1.242   4.204   7.605 -0.0883 -0.5087 -0.1216
  927MOL0     N25061   1.868   3.828   7.234 -0.4281 -0.6109 -0.1470
  927MOL0     N25062   1.961   3.739   7.226  0.5722 -0.6518 -0.4456
  927MOL0     C25063   2.494   4.560   6.868 -0.8323 -0.9957  0.1585
  927MOL0     C25064   2.439   4.685   6.838  0.7315 -0.7599 -0.0388
  927MOL0     C25065   2.301   5.027   6.520  0.0785  1.0348  0.2168
  927MOL0     C25066   2.206   5.055   6.426  0.6005  0.0960 -0.1872
  927MOL0     C25067   2.198   5.186   6.379 -0.8255  0.4589  0.1477
  927MOL0     C25068   2.272   5.296   6.426  0.1831  0.4024 -0.5318
  927MOL0     O25069   2.236   5.421   6.386 -0.2459  0.4627 -0.3803
  927MOL0     C25070   2.317   5.533   6.432  0.2773  0.1512 -0.0802
  927MOL0     C25071   2.291   5.629   6.318  0.0604 -0.2934  0.3495
  927MOL0     C25072   2.344   5.768   6.337  0.0845 -0.2949  0.0909
  927MOL0     C25073   2.501   5.762   6.375 -0.9027 -0.2617  0.6491
  927MOL0     C25074   2.543   5.735   6.513  0.8947  0.5978  0.0358
  927MOL0     C25075   2.579   5.716   6.627 -0.6926 -0.2233 -0.2393
  927MOL0     C25076   2.367   5.269   6.518 -0.3562  0.3796  0.0661
  927MOL0     C25077   2.380   5.133   6.560  0.4257 -0.4689 -0.0923
  927MOL0     H25078   2.494   4.707   6.507  1.4775  0.2435  0.1461
  927MOL0     H25079   2.626   4.500   6.561 -0.6698 -2.6661  1.3307
  927MOL0     H25080   2.575   4.282   6.613  1.5135 -1.2865 -0.3764
  927MOL0     H25081   2.640   4.172   6.730 -1.1728 -0.7603 -0.3527
  927MOL0     H25082   2.368   4.292   6.751 -0.0652 -0.2822 -2.0718
  927MOL0     H25083   2.418   4.142   6.680 -0.3831  2.6441 -1.9602
  927MOL0     H25084   2.545   4.076   6.889  1.4309  0.1614 -0.3328
  927MOL0     H25085   2.466   4.205   6.980 -0.3375 -0.8685 -0.9290
  927MOL0     H25086   2.255   4.081   6.900  0.6928  0.0593 -1.5155
  927MOL0     H25087   2.370   3.958   6.860 -0.2699 -0.5860  0.4826
  927MOL0     H25088   2.471   3.982   7.096  0.5718  4.0110  0.0996
  927MOL0     H25089   2.336   4.084   7.128 -2.4333  1.0086 -2.0178
  927MOL0     H25090   2.168   3.901   7.096 -0.1448  0.5698 -2.5143
  927MOL0     H25091   2.285   3.788   7.028  1.8998 -1.3565  1.7644
  927MOL0     H25092   2.390   3.757   7.237 -0.2655 -2.0274 -0.9539
  927MOL0     H25093   2.305   3.902   7.313 -1.4532  2.1721 -2.6726
  927MOL0     H25094   2.234   3.676   7.384 -0.1268  0.4234  1.1514
  927MOL0     H25095   2.198   3.629   7.216 -2.5318  1.3187 -1.3260
  927MOL0     H25096   2.096   3.946   7.437  0.4247  0.0133 -1.0902
  927MOL0     H25097   1.881   4.098   7.432  0.1437 -3.5433  2.0915
  927MOL0     H25098   1.822   4.116   7.259 -0.8672  1.2806  1.4986
  927MOL0     H25099   1.697   4.004   7.510  1.3196 -0.4125  0.1194
  927MOL0     H25100   1.633   3.943   7.359 -1.1991  0.4295 -0.2559
  927MOL0     H25101   1.581   4.165   7.266  0.1047 -0.9081 -0.0409
  927MOL0     H25102   1.654   4.241   7.407  3.1903 -2.3856  2.0718
  927MOL0     H25103   1.443   4.056   7.482 -0.6610 -0.0265 -1.0970
  927MOL0     H25104   1.397   4.184   7.369 -0.1497  2.0490  0.7632
  927MOL0     H25105   1.495   4.297   7.789  0.3435 -0.0984 -0.9157
  927MOL0     H25106   1.414   4.281   8.041  0.7828  0.2028 -3.0815
  927MOL0     H25107   1.343   4.439   8.019 -1.1179  0.5149 -2.5238
  927MOL0     H25108   1.240   4.302   8.075  1.5432 -1.5830  2.7284
  927MOL0     H25109   0.891   4.031   8.091  0.6541  0.4656 -0.1708
  927MOL0     H25110   0.725   4.043   8.264  3.3235 -0.9333 -1.1397
  927MOL0     H25111   0.636   4.139   8.471  1.6253  1.5025 -0.2210
  927MOL0     H25112   0.719   4.299   8.478  0.0327  1.1299 -4.2561
  927MOL0     H25113   0.435   4.250   8.549 -0.0960 -0.4845  0.8579
  927MOL0     H25114   0.559   4.260   8.681 -1.0945 -0.7190  0.0880
  927MOL0     H25115   0.479   4.469   8.474  1.6864 -0.0050  0.7611
  927MOL0     H25116   0.603   4.482   8.608  1.2691 -1.5820  1.4169
  927MOL0     H25117   0.376   4.381   8.734  0.8099 -0.3158 -0.4984
  927MOL0     H25118   0.440   4.545   8.750 -0.6574 -1.0777 -0.0241
  927MOL0     H25119   0.236   4.441   8.545 -0.3014  0.8438 -1.0418
  927MOL0     H25120   0.288   4.611   8.545  1.7524 -0.3835 -0.5328
  927MOL0     H25121   0.115   4.489   8.776  0.1578  4.3990  4.4541
  927MOL0     H25122   0.214   4.627   8.779 -2.2903  3.5744 -1.5497
  927MOL0     H25123  -0.018   4.590   8.587  1.5178 -1.3528  0.3298
  927MOL0     H25124   0.075   4.723   8.567  2.0861 -2.5377 -2.8640
  927MOL0     H25125   0.023   4.797   8.818 -0.9574  1.2965  1.3832
  927MOL0     H25126  -0.073   4.657   8.847 -0.7818 -0.0487  0.2554
  927MOL0     H25127   0.627   4.445   8.150  0.3960  0.5144 -2.3633
  927MOL0     H25128   0.812   4.439   7.986  3.7083  0.5368  1.8307
  927MOL0     H25129   1.033   4.206   7.650 -0.2484  4.3311 -2.8447
  927MOL0     H25130   1.221   4.179   7.501 -0.8227  1.9472 -0.6331
  927MOL0     H25131   2.498   4.528   6.972  2.8197  0.9917  0.8133
  927MOL0     H25132   2.382   4.738   6.914 -2.2456 -2.7796 -0.6835
  927MOL0     H25133   2.142   4.973   6.397  3.3927 -2.4814  0.4467
  927MOL0     H25134   2.125   5.214   6.304  0.1008  0.5215 -0.7403
  927MOL0     H25135   2.268   5.566   6.525 -1.4536  3.2860 -1.9321
  927MOL0     H25136   2.425   5.513   6.439  0.5393  1.2116 -0.9192
  927MOL0     H25137   2.187   5.625   6.283  1.1848 -3.0350 -3.3184
  927MOL0     H25138   2.351   5.605   6.230  1.1950  5.4280 -0.8433
  927MOL0     H25139   2.283   5.804   6.421  1.4415  1.4426  0.3827
  927MOL0     H25140   2.330   5.830   6.249  1.9264  0.6090  0.3701
  927MOL0     H25141   2.542   5.857   6.341  0.2411 -0.8599  0.3204
  927MOL0     H25142   2.539   5.680   6.313  0.1235  2.3135 -2.3922
  927MOL0     H25143   2.617   5.698   6.726  0.3599 -3.1909 -1.0798
  927MOL0     H25144   2.428   5.340   6.574 -0.1156 -1.2172  1.9492
  927MOL0     H25145   2.452   5.116   6.639  2.2011 -0.1223 -1.5621
  928MOL0     O25146   5.806   4.102   1.159 -0.2235 -0.5795 -0.3999
  928MOL0     C25147   5.824   4.154   1.050 -0.7747 -0.8937 -0.1124
  928MOL0     O25148   5.760   4.264   0.994 -0.7753 -0.3698 -0.0627
  928MOL0     C25149   5.670   4.334   1.066 -0.5355 -0.2318 -0.3684
  928MOL0     C25150   5.691   4.371   1.204 -0.3981  0.1421 -0.0197
  928MOL0     C25151   5.595   4.453   1.272 -0.4716  0.5091  0.3911
  928MOL0     C25152   5.500   4.518   1.197  1.0181  0.4001  0.1552
  928MOL0     O25153   5.413   4.601   1.265 -0.9351 -0.6793  0.1311
  928MOL0     C25154   5.410   4.734   1.213  1.0423 -0.7397 -0.1789
  928MOL0     C25155   5.306   4.830   1.263  0.2636  0.0343 -0.2229
  928MOL0     C25156   5.155   4.797   1.252  0.8227  0.4628  0.7981
  928MOL0     C25157   5.120   4.772   1.105  0.4469 -0.2007 -0.6343
  928MOL0     C25158   4.965   4.787   1.092 -0.3085 -0.1442 -0.3628
  928MOL0     C25159   4.929   4.936   1.085  0.3686 -0.0917 -0.1875
  928MOL0     C25160   4.784   4.936   1.037  0.0417 -0.2391 -0.1409
  928MOL0     C25161   4.725   5.072   1.020  0.6193  0.4794  0.2517
  928MOL0     N25162   4.580   5.070   1.015 -0.4507 -0.1546 -0.1180
  928MOL0     C25163   4.496   4.968   0.973  0.1014  0.2499  0.0354
  928MOL0     C25164   4.372   5.010   0.986 -0.1006 -0.1531  0.3598
  928MOL0     C25165   4.247   4.935   0.933  0.8529 -0.3108  0.6817
  928MOL0     C25166   4.118   4.982   1.006  0.5192 -0.9057  0.1129
  928MOL0     C25167   4.023   4.867   1.038  0.7309  0.4237 -0.0491
  928MOL0     C25168   3.907   4.922   1.125  0.8975 -0.0491  0.1771
  928MOL0     O25169   3.953   4.978   1.252 -0.0146  0.0647 -0.0541
  928MOL0     C25170   3.868   5.028   1.341  0.1077 -1.1099  0.0464
  928MOL0     C25171   3.728   5.007   1.344 -0.1894  0.2522 -0.3597
  928MOL0     C25172   3.652   5.077   1.442  0.0754  0.5490 -0.5270
  928MOL0     C25173   3.499   5.071   1.430  0.3553 -0.4520  0.6734
  928MOL0     C25174   3.713   5.170   1.531 -0.2340 -0.3865 -0.3855
  928MOL0     C25175   3.642   5.267   1.629 -0.7421  0.8358  0.7034
  928MOL0     O25176   3.674   5.244   1.755 -0.1965 -0.4942  0.6298
  928MOL0     C25177   3.627   5.320   1.859 -0.6502 -0.4244  0.3442
  928MOL0     C25178   3.607   5.259   1.988 -0.0440  0.2017  0.2074
  928MOL0     C25179   3.581   5.338   2.100 -0.0360 -0.0596  0.5094
  928MOL0     C25180   3.571   5.478   2.089 -0.3515  0.5866  0.3792
  928MOL0     O25181   3.548   5.560   2.187  0.8695 -0.7942  0.0580
  928MOL0     C25182   3.467   5.492   2.295 -1.1669 -0.5204 -0.3357
  928MOL0     C25183   3.427   5.593   2.405  0.2385 -0.4205 -0.0697
  928MOL0     C25184   3.528   5.702   2.433  0.3821  0.0917  0.1168
  928MOL0     C25185   3.665   5.657   2.481  0.7537 -1.1517  0.8877
  928MOL0     C25186   3.676   5.562   2.591  0.3652 -0.4356  0.0608
  928MOL0     C25187   3.823   5.544   2.623  0.0301 -0.1486  1.3658
  928MOL0     C25188   3.850   5.419   2.699  0.4554  0.1006 -0.4807
  928MOL0     C25189   3.947   5.327   2.630 -0.3963 -0.5561 -0.1319
  928MOL0    Cl25190   3.888   5.283   2.467  0.1165  0.1865 -0.5121
  928MOL0     C25191   3.576   5.539   1.966  0.3790  0.9677  0.4832
  928MOL0     C25192   3.604   5.462   1.851 -0.8287  0.0314  0.9401
  928MOL0     O25193   3.559   5.344   1.580 -0.3575 -0.1956  0.7061
  928MOL0     C25194   3.852   5.177   1.528  0.3828 -0.5137 -0.4176
  928MOL0     C25195   3.928   5.115   1.437  0.3598 -0.1359  0.8193
  928MOL0     N25196   4.387   5.148   1.036 -0.2807  0.6057  0.3390
  928MOL0     N25197   4.512   5.183   1.046  0.3896  0.3500 -0.1023
  928MOL0     C25198   5.475   4.479   1.066  0.8313 -0.2065 -0.5347
  928MOL0     C25199   5.551   4.388   1.002 -1.0114 -0.7126 -0.4399
  928MOL0     C25200   5.941   4.098   0.975  0.9147 -0.3076  0.1567
  928MOL0     C25201   5.965   4.155   0.851  0.3394 -0.5919  0.4333
  928MOL0     C25202   6.062   4.104   0.770 -0.8555  0.6123 -0.1653
  928MOL0     C25203   6.132   3.987   0.802 -0.2133 -1.3493 -0.0647
  928MOL0     O25204   6.230   3.926   0.722  0.0879  0.2111  0.2413
  928MOL0     C25205   6.339   4.005   0.672  0.3754  0.2316 -0.8658
  928MOL0     C25206   6.317   4.017   0.522  0.2522 -0.1913  0.4623
  928MOL0     C25207   6.279   3.894   0.436  0.3017 -0.7052 -0.1322
  928MOL0     C25208   6.347   3.766   0.472  0.4990 -0.1028  0.2352
  928MOL0     C25209   6.495   3.773   0.484  1.3616 -0.1297  0.7010
  928MOL0     C25210   6.611   3.790   0.489  0.6893  0.4365  0.5490
  928MOL0     C25211   6.122   3.932   0.930  1.0093 -0.4425 -0.9266
  928MOL0     C25212   6.028   3.996   1.015 -0.0739  0.7046 -1.3209
  928MOL0     H25213   5.768   4.346   1.276 -0.9249  1.9784  1.2720
  928MOL0     H25214   5.606   4.481   1.377 -2.4669 -1.7095  1.2888
  928MOL0     H25215   5.512   4.774   1.214  0.3378  1.3515 -2.3533
  928MOL0     H25216   5.379   4.717   1.110 -0.5965  0.8568 -0.0068
  928MOL0     H25217   5.329   4.857   1.367 -0.3544  2.5807 -0.6626
  928MOL0     H25218   5.320   4.928   1.215 -2.0953  0.3171 -0.4919
  928MOL0     H25219   5.128   4.705   1.305  2.0036  1.3741  3.1272
  928MOL0     H25220   5.084   4.872   1.289 -2.3944 -1.8910 -0.0926
  928MOL0     H25221   5.157   4.856   1.045  0.3405 -0.7794 -1.5360
  928MOL0     H25222   5.159   4.676   1.069 -1.2158 -2.5650  3.2560
  928MOL0     H25223   4.943   4.733   1.000 -1.8599 -1.9061  0.9681
  928MOL0     H25224   4.912   4.719   1.159 -0.1905 -1.4626 -1.5676
  928MOL0     H25225   4.924   4.989   1.181 -0.6569 -1.6951  0.6864
  928MOL0     H25226   4.988   4.988   1.009  1.3927 -0.3754  0.3979
  928MOL0     H25227   4.785   4.897   0.935 -0.6008  1.3970 -0.8148
  928MOL0     H25228   4.734   4.870   1.108 -0.9294  0.2127 -0.3881
  928MOL0     H25229   4.774   5.110   0.930  2.8611 -1.7498  0.4474
  928MOL0     H25230   4.754   5.137   1.103 -2.1176  0.9858  0.9254
  928MOL0     H25231   4.513   4.870   0.930  0.4701  0.8276 -1.1770
  928MOL0     H25232   4.230   4.958   0.828 -1.0209 -0.0960  1.0006
  928MOL0     H25233   4.255   4.827   0.944  0.9636 -0.3758 -0.0205
  928MOL0     H25234   4.060   5.057   0.952  0.2553 -1.8439 -0.9516
  928MOL0     H25235   4.151   5.025   1.101  0.7811  0.4747 -0.5845
  928MOL0     H25236   4.081   4.793   1.094  0.0707 -0.5251 -0.5936
  928MOL0     H25237   3.987   4.827   0.943 -1.1539 -1.3467  1.3103
  928MOL0     H25238   3.848   4.834   1.154 -1.2266  1.1042 -0.4171
  928MOL0     H25239   3.839   4.999   1.088 -0.7058 -0.2392  2.5158
  928MOL0     H25240   3.671   4.944   1.276  1.5178  2.0065 -3.6707
  928MOL0     H25241   3.464   5.023   1.522  3.7289 -0.2251  2.2354
  928MOL0     H25242   3.471   5.177   1.423  3.9082  0.5707  0.2922
  928MOL0     H25243   3.458   5.016   1.345 -3.4646  0.6829  1.5551
  928MOL0     H25244   3.613   5.151   1.980  1.4412  0.0345  2.5571
  928MOL0     H25245   3.560   5.276   2.187 -1.6071  0.5924  0.6311
  928MOL0     H25246   3.379   5.440   2.256 -0.0103 -1.2941 -2.0363
  928MOL0     H25247   3.539   5.422   2.340  3.1800  3.9215  0.4494
  928MOL0     H25248   3.331   5.631   2.370  0.8498  0.9019 -0.3872
  928MOL0     H25249   3.399   5.546   2.500  4.2446  0.1464  1.5972
  928MOL0     H25250   3.478   5.776   2.496  1.3770  1.7232 -0.9555
  928MOL0     H25251   3.530   5.762   2.342 -1.0963  2.2803  1.4410
  928MOL0     H25252   3.720   5.616   2.396 -0.3262  3.2691 -2.2822
  928MOL0     H25253   3.723   5.745   2.510 -1.2726  0.1947  1.0691
  928MOL0     H25254   3.631   5.464   2.572 -2.6557  0.4959  1.6663
  928MOL0     H25255   3.621   5.604   2.676 -4.0659 -2.5797 -1.4715
  928MOL0     H25256   3.884   5.542   2.532 -1.1074 -1.2630  0.5681
  928MOL0     H25257   3.861   5.626   2.684  2.0996 -0.2921  0.3617
  928MOL0     H25258   3.761   5.356   2.709 -1.3231  2.5710  0.2137
  928MOL0     H25259   3.885   5.458   2.795  0.3582  3.9463 -1.8257
  928MOL0     H25260   3.952   5.236   2.692 -2.1424  1.9467  4.1206
  928MOL0     H25261   4.043   5.378   2.622 -1.2800  0.7936 -3.6805
  928MOL0     H25262   3.552   5.645   1.958 -3.4872  0.0914 -2.5748
  928MOL0     H25263   3.601   5.513   1.755  2.0707  0.6715  1.1051
  928MOL0     H25264   3.903   5.233   1.606  0.3686 -2.0530  0.7298
  928MOL0     H25265   4.033   5.139   1.443  0.4986 -0.7480  0.8883
  928MOL0     H25266   5.381   4.512   1.024  0.7320 -3.0535 -2.8598
  928MOL0     H25267   5.528   4.374   0.896  0.7609 -2.4911 -0.6462
  928MOL0     H25268   5.919   4.247   0.816  1.4695  0.5055  1.6722
  928MOL0     H25269   6.091   4.165   0.685 -0.6401  0.2603 -0.3460
  928MOL0     H25270   6.341   4.103   0.720  3.5905 -0.3474  0.3945
  928MOL0     H25271   6.426   3.947   0.702  1.4904  1.1819 -2.1668
  928MOL0     H25272   6.408   4.063   0.484  0.5539 -2.8778 -2.4720
  928MOL0     H25273   6.226   4.074   0.501 -0.2281 -2.0281 -3.4302
  928MOL0     H25274   6.302   3.923   0.333 -1.7955  1.2242 -0.1560
  928MOL0     H25275   6.170   3.886   0.448  0.6616 -2.1359  3.1820
  928MOL0     H25276   6.313   3.687   0.404 -1.8641  1.3036 -0.3430
  928MOL0     H25277   6.312   3.731   0.570 -0.1353  0.3845  0.1944
  928MOL0     H25278   6.718   3.792   0.503  1.2144 -1.3254 -2.3032
  928MOL0     H25279   6.190   3.860   0.976 -0.0975 -0.6338  0.4764
  928MOL0     H25280   6.019   3.956   1.115  1.4116 -0.0932 -1.4908
  929MOL0     O25281   1.413   4.294   1.341 -0.2928  0.2376 -1.1349
  929MOL0     C25282   1.486   4.202   1.298 -1.6993 -0.1028  0.2202
  929MOL0     O25283   1.611   4.231   1.262 -0.1999  0.7797  0.5704
  929MOL0     C25284   1.671   4.350   1.259 -0.0447 -0.3763 -0.0315
  929MOL0     C25285   1.610   4.469   1.212 -0.2430 -0.9889 -0.2228
  929MOL0     C25286   1.681   4.588   1.220  0.0932  0.1423  1.2946
  929MOL0     C25287   1.809   4.592   1.268 -0.2822 -0.1328 -1.1060
  929MOL0     O25288   1.857   4.720   1.290  0.2569 -0.3415  0.1478
  929MOL0     C25289   1.993   4.734   1.250  0.0015 -0.7104  0.0844
  929MOL0     C25290   1.998   4.875   1.174 -0.0919 -0.8135  0.5427
  929MOL0     C25291   2.141   4.902   1.117  0.4666 -0.1434  0.8334
  929MOL0     C25292   2.241   4.930   1.224  0.1202  0.3884 -0.5050
  929MOL0     C25293   2.252   5.086   1.243 -0.9315 -0.4522 -0.3258
  929MOL0     C25294   2.333   5.154   1.128 -0.4041  0.6627  0.6837
  929MOL0     C25295   2.377   5.297   1.157  0.7578 -0.3439 -0.2826
  929MOL0     C25296   2.500   5.284   1.247  0.0448  0.6227  0.1382
  929MOL0     N25297   2.628   5.223   1.206 -0.0626 -1.0613  0.1957
  929MOL0     C25298   2.689   5.254   1.085 -0.1581 -0.4289  0.2491
  929MOL0     C25299   2.780   5.160   1.066  0.1706 -0.1478  0.7923
  929MOL0     C25300   2.889   5.155   0.956 -0.5529  0.3375 -0.6211
  929MOL0     C25301   2.832   5.104   0.811 -0.0648  0.2034  0.0188
  929MOL0     C25302   2.943   5.138   0.708 -0.4541  0.1069  0.0669
  929MOL0     C25303   2.912   5.072   0.570  0.1010 -0.0407  0.4450
  929MOL0     O25304   2.780   5.119   0.532  0.3369 -0.3334 -0.1997
  929MOL0     C25305   2.720   5.068   0.420 -0.0701 -0.3415  0.1386
  929MOL0     C25306   2.582   5.085   0.399  0.4921  0.3071 -0.5985
  929MOL0     C25307   2.503   5.037   0.291 -0.4163 -0.8202 -0.0845
  929MOL0     C25308   2.352   5.049   0.299 -0.8468 -0.3793  0.4200
  929MOL0     C25309   2.571   4.975   0.188  0.6136  0.5948 -0.4360
  929MOL0     C25310   2.499   4.934   0.074 -0.3653  0.1810  0.2150
  929MOL0     O25311   2.477   5.030  -0.025  0.2967  0.3406 -0.2766
  929MOL0     C25312   2.398   4.985  -0.132  0.5283 -0.4099 -0.5029
  929MOL0     C25313   2.446   4.903  -0.235 -0.0749 -0.8871  0.0197
  929MOL0     C25314   2.351   4.844  -0.324 -0.1410  0.0574  0.0323
  929MOL0     C25315   2.206   4.843  -0.293  0.0596  0.0853  0.1656
  929MOL0     O25316   2.103   4.788  -0.374 -0.1230 -0.4397 -0.2769
  929MOL0     C25317   2.140   4.677  -0.453  0.0532  0.2552 -0.0038
  929MOL0     C25318   2.102   4.678  -0.601  0.5364 -0.0660  0.1712
  929MOL0     C25319   1.944   4.675  -0.618 -0.9079 -0.1791  0.4218
  929MOL0     C25320   1.896   4.674  -0.763 -0.7188  0.8967  0.7215
  929MOL0     C25321   1.895   4.809  -0.837  0.0930 -0.0064  0.1193
  929MOL0     C25322   1.859   4.808  -0.988 -0.4107  0.5455  1.0987
  929MOL0     C25323   1.722   4.747  -1.020 -1.3554 -0.3155 -0.2810
  929MOL0     C25324   1.685   4.759  -1.163  0.3998 -0.5852 -0.2275
  929MOL0    Cl25325   1.801   4.678  -1.261  0.1604  0.4976  0.2723
  929MOL0     C25326   2.167   4.924  -0.186  0.1576 -0.5030 -0.9372
  929MOL0     C25327   2.262   4.983  -0.097  0.3879 -0.7014  0.6260
  929MOL0     O25328   2.474   4.815   0.065  0.5490 -0.4457  0.3554
  929MOL0     C25329   2.711   4.952   0.200 -0.1475 -0.2392  0.9037
  929MOL0     C25330   2.773   4.991   0.314 -1.2897 -0.0657 -0.2282
  929MOL0     N25331   2.773   5.062   1.168  0.9989  1.1951  0.3315
  929MOL0     N25332   2.673   5.102   1.253  0.7830 -0.1972  0.7023
  929MOL0     C25333   1.872   4.472   1.305 -0.9530  0.1467  0.2049
  929MOL0     C25334   1.808   4.348   1.291  1.0532 -0.3218  0.4722
  929MOL0     C25335   1.435   4.066   1.292  0.1713 -0.6849 -0.7215
  929MOL0     C25336   1.296   4.039   1.298  1.2131  0.7755  0.7551
  929MOL0     C25337   1.247   3.910   1.283  0.5328 -0.2111 -0.4320
  929MOL0     C25338   1.336   3.814   1.242  1.4640 -0.0635  0.1819
  929MOL0     O25339   1.278   3.696   1.237 -0.4511  0.7080  0.1777
  929MOL0     C25340   1.354   3.584   1.187  0.4113  0.0545 -0.6257
  929MOL0     C25341   1.273   3.457   1.188  0.2684 -0.2853  0.6872
  929MOL0     C25342   1.180   3.448   1.071 -0.6358  0.5826  0.1684
  929MOL0     C25343   1.117   3.305   1.080  0.1007  0.1453  0.7241
  929MOL0     C25344   1.018   3.294   0.972  0.5966 -0.5025 -0.3008
  929MOL0     C25345   0.950   3.267   0.872 -0.6641  0.0216 -0.4266
  929MOL0     C25346   1.468   3.841   1.213 -0.8158 -0.0553  0.2378
  929MOL0     C25347   1.522   3.974   1.247  0.4955  0.2750 -0.4453
  929MOL0     H25348   1.506   4.469   1.180 -0.2545  2.1890 -0.5426
  929MOL0     H25349   1.629   4.676   1.183 -0.1777 -0.2066  0.8342
  929MOL0     H25350   2.061   4.730   1.336 -0.7071  1.6559  0.8497
  929MOL0     H25351   2.026   4.659   1.178  1.4176  0.9167 -1.0525
  929MOL0     H25352   1.923   4.871   1.096  0.6500  2.3980 -0.4885
  929MOL0     H25353   1.965   4.960   1.234 -0.7340  1.6099 -2.9848
  929MOL0     H25354   2.168   4.810   1.065  2.1851  0.1881  1.0937
  929MOL0     H25355   2.142   4.984   1.046 -0.6363 -0.4808  0.4070
  929MOL0     H25356   2.207   4.892   1.320  0.2509  0.4636 -0.4294
  929MOL0     H25357   2.341   4.901   1.192  1.0008  0.7973  1.7531
  929MOL0     H25358   2.154   5.134   1.254 -1.0131 -0.4795 -0.8976
  929MOL0     H25359   2.288   5.116   1.341 -2.1097  2.7588 -0.7660
  929MOL0     H25360   2.425   5.098   1.111 -1.1322 -0.2738 -0.3186
  929MOL0     H25361   2.280   5.136   1.034  1.4772 -0.0204 -0.3041
  929MOL0     H25362   2.403   5.367   1.077 -0.3796  2.8336  1.9257
  929MOL0     H25363   2.307   5.352   1.220  2.9088  0.6053  1.4122
  929MOL0     H25364   2.476   5.243   1.346  1.6812  2.7974  1.5393
  929MOL0     H25365   2.520   5.389   1.273 -1.4888  0.9173  0.2305
  929MOL0     H25366   2.670   5.352   1.041 -1.0657 -0.1994  1.1222
  929MOL0     H25367   2.918   5.260   0.950  0.3702  0.0731 -0.9833
  929MOL0     H25368   2.971   5.093   0.994 -1.5812  0.0001  1.1760
  929MOL0     H25369   2.737   5.147   0.778 -1.5375 -2.7678  0.0616
  929MOL0     H25370   2.830   4.995   0.804 -0.5975  0.3268 -3.6004
  929MOL0     H25371   3.043   5.100   0.733 -0.5056 -1.3789 -1.7281
  929MOL0     H25372   2.940   5.247   0.700  1.6930  0.2967  0.9185
  929MOL0     H25373   2.914   4.964   0.587 -1.1303 -0.4370 -1.5907
  929MOL0     H25374   2.980   5.105   0.491 -1.1392  0.4274 -0.4585
  929MOL0     H25375   2.526   5.143   0.471 -2.0223 -2.4554 -0.1531
  929MOL0     H25376   2.328   5.093   0.396  1.3858  0.8736  0.4806
  929MOL0     H25377   2.322   5.114   0.216  3.5355 -2.7457 -3.4992
  929MOL0     H25378   2.286   4.964   0.281 -1.3110  0.2952 -1.2894
  929MOL0     H25379   2.551   4.893  -0.259 -0.4313 -1.2320 -1.5188
  929MOL0     H25380   2.378   4.787  -0.412 -1.2490 -3.5559  1.8494
  929MOL0     H25381   2.243   4.644  -0.441 -0.8660 -1.9733  3.4777
  929MOL0     H25382   2.081   4.601  -0.401 -2.4829  2.2947  0.3474
  929MOL0     H25383   2.145   4.767  -0.649  2.6115 -0.8056  0.5941
  929MOL0     H25384   2.153   4.592  -0.645  1.2502  0.6299 -0.3914
  929MOL0     H25385   1.896   4.755  -0.559  0.6555  0.3044  1.0866
  929MOL0     H25386   1.911   4.583  -0.570  0.9930 -2.0610 -1.7003
  929MOL0     H25387   1.957   4.611  -0.829  0.7592  1.3234  1.6274
  929MOL0     H25388   1.799   4.626  -0.748 -0.8549  0.7700 -0.5314
  929MOL0     H25389   1.986   4.866  -0.816 -0.5224  1.2995 -0.6719
  929MOL0     H25390   1.819   4.869  -0.787  0.9010  1.7300 -0.6710
  929MOL0     H25391   1.862   4.911  -1.024 -0.5215 -0.4199 -1.9655
  929MOL0     H25392   1.931   4.748  -1.044  0.2401  0.5858  1.8675
  929MOL0     H25393   1.646   4.799  -0.960 -1.1180 -0.9698  0.6133
  929MOL0     H25394   1.726   4.644  -0.983  0.1853  0.3777  1.6204
  929MOL0     H25395   1.690   4.867  -1.182 -1.6808  0.1487  2.6691
  929MOL0     H25396   1.582   4.726  -1.178 -0.1969  0.7760  0.6585
  929MOL0     H25397   2.062   4.938  -0.160 -0.0040 -3.2690  0.2309
  929MOL0     H25398   2.232   5.045  -0.014 -0.2183 -1.4490  0.9775
  929MOL0     H25399   2.762   4.899   0.120 -1.4446 -3.2283  1.9245
  929MOL0     H25400   2.880   4.978   0.320 -1.2222 -1.8202 -3.1980
  929MOL0     H25401   1.974   4.491   1.337 -0.2520  0.6481 -2.0967
  929MOL0     H25402   1.845   4.255   1.333  0.5024 -0.5164  0.5414
  929MOL0     H25403   1.230   4.119   1.331 -0.8608 -0.2286 -0.7912
  929MOL0     H25404   1.143   3.897   1.310  0.0780  2.1458 -0.8679
  929MOL0     H25405   1.397   3.607   1.089  2.9750 -0.0275  0.3872
  929MOL0     H25406   1.429   3.561   1.263  2.6903 -2.9823 -3.5188
  929MOL0     H25407   1.204   3.458   1.273 -1.2366  5.3587 -0.1941
  929MOL0     H25408   1.344   3.374   1.195  0.8542  0.1435  0.0244
  929MOL0     H25409   1.225   3.467   0.973  1.3803  1.4107  1.1878
  929MOL0     H25410   1.097   3.520   1.070 -1.3838 -0.2684 -1.1758
  929MOL0     H25411   1.063   3.291   1.174  0.2659 -1.9566  0.5382
  929MOL0     H25412   1.197   3.231   1.076  0.7030  0.7139  1.8075
  929MOL0     H25413   0.895   3.246   0.782  0.0363  0.0422 -0.8704
  929MOL0     H25414   1.542   3.769   1.182 -0.3727  1.0238 -1.3407
  929MOL0     H25415   1.627   3.996   1.240  0.4445  0.4840 -0.5499
  930MOL0     O25416   0.744   7.746  10.347  0.2222  0.4599  0.4797
  930MOL0     C25417   0.775   7.859  10.378 -0.3183  0.4103 -0.5556
  930MOL0     O25418   0.816   7.946  10.289 -0.7989 -1.2488  0.0992
  930MOL0     C25419   0.854   7.907  10.166  0.3498  0.3785  0.8913
  930MOL0     C25420   0.971   7.836  10.157  0.5540  0.8827 -0.0310
  930MOL0     C25421   1.016   7.804  10.034 -0.0661  0.4511  1.0063
  930MOL0     C25422   0.938   7.829   9.915 -0.4344 -0.0617  0.6485
  930MOL0     O25423   0.969   7.796   9.782  0.6134  0.4402  0.4317
  930MOL0     C25424   1.066   7.693   9.762  0.7025  0.1772  1.0849
  930MOL0     C25425   1.036   7.563   9.834 -0.2405  0.3648  0.3770
  930MOL0     C25426   0.906   7.498   9.768 -0.5244 -0.3997  0.2089
  930MOL0     C25427   0.870   7.350   9.809  0.6247 -0.6522 -0.4659
  930MOL0     C25428   0.868   7.323   9.963 -0.3252  0.3709  0.2494
  930MOL0     C25429   0.766   7.412  10.033  1.4779 -0.1086  0.2400
  930MOL0     C25430   0.814   7.442  10.178  0.5446 -1.2073  0.3706
  930MOL0     C25431   0.696   7.452  10.278  0.2208 -0.2435  0.3163
  930MOL0     N25432   0.647   7.314  10.318  0.1092  0.5308  0.6160
  930MOL0     C25433   0.559   7.234  10.246  0.8426  0.0127 -0.6130
  930MOL0     C25434   0.511   7.138  10.334 -0.1774 -0.9105  0.6143
  930MOL0     C25435   0.420   7.028  10.284 -0.0681  0.1920 -0.3991
  930MOL0     C25436   0.491   6.906  10.229 -1.3247  1.0780 -0.0002
  930MOL0     C25437   0.391   6.796  10.196  0.3917  0.9936  0.7686
  930MOL0     C25438   0.306   6.831  10.080  0.1451  0.5148 -0.2955
  930MOL0     O25439   0.174   6.859  10.142 -0.7270  0.0137 -0.6478
  930MOL0     C25440   0.083   6.932  10.069  0.1840 -0.1860  0.0747
  930MOL0     C25441  -0.002   7.025  10.139  1.0454 -1.4371  0.5689
  930MOL0     C25442  -0.111   7.093  10.074  0.4496  0.2436 -0.2111
  930MOL0     C25443  -0.196   7.190  10.147 -0.2926  0.1408  0.7503
  930MOL0     C25444  -0.123   7.066   9.931 -0.6270  0.6438  0.1903
  930MOL0     C25445  -0.245   7.099   9.856 -0.2949 -0.3774  0.2079
  930MOL0     O25446  -0.212   7.140   9.731 -0.4039 -0.1450 -0.3993
  930MOL0     C25447  -0.296   7.179   9.634  0.0147  0.4592 -0.1108
  930MOL0     C25448  -0.432   7.197   9.654 -0.5825 -0.3684 -0.5694
  930MOL0     C25449  -0.511   7.241   9.553  0.6382 -0.9167 -0.5645
  930MOL0     C25450  -0.451   7.266   9.421  0.2148 -0.6377 -0.3647
  930MOL0     O25451  -0.538   7.275   9.315  0.2152 -0.3685 -0.1182
  930MOL0     C25452  -0.499   7.227   9.190  0.7373  0.0911  0.7040
  930MOL0     C25453  -0.455   7.340   9.097 -0.0425 -0.1573  0.5555
  930MOL0     C25454  -0.564   7.430   9.037  0.7104 -1.2958  0.4454
  930MOL0     C25455  -0.629   7.523   9.139  0.1517  0.3585 -0.2764
  930MOL0     C25456  -0.638   7.666   9.098  0.4067 -0.2469 -0.7234
  930MOL0     C25457  -0.711   7.753   9.206  0.9642  0.1437 -0.9583
  930MOL0     C25458  -0.728   7.903   9.146 -0.0605  0.7546 -0.4439
  930MOL0     C25459  -0.767   7.990   9.267 -0.3555 -0.1641  0.1252
  930MOL0    Cl25460  -0.802   8.149   9.205  0.1964  0.2984  0.2968
  930MOL0     C25461  -0.317   7.258   9.410  0.2007  0.4985  0.5947
  930MOL0     C25462  -0.241   7.209   9.517  0.8231 -0.0635  0.4197
  930MOL0     O25463  -0.356   7.078   9.897 -0.1971 -0.3081 -0.5569
  930MOL0     C25464  -0.029   6.990   9.860 -0.0996  0.1178  0.0181
  930MOL0     C25465   0.073   6.915   9.929  0.4652 -0.3661  0.8773
  930MOL0     N25466   0.580   7.151  10.451 -0.2155  0.4004  0.1733
  930MOL0     N25467   0.670   7.253  10.442  0.1541  0.9049  0.8856
  930MOL0     C25468   0.818   7.895   9.925 -0.2504  0.5556  0.6292
  930MOL0     C25469   0.778   7.939  10.052  0.2029  0.6515  0.0322
  930MOL0     C25470   0.798   7.896  10.515  0.2398 -1.1357  1.0331
  930MOL0     C25471   0.806   7.799  10.623 -0.0959 -0.8851  0.8560
  930MOL0     C25472   0.836   7.840  10.753 -0.3472 -0.3321 -0.4385
  930MOL0     C25473   0.843   7.979  10.790 -0.2249 -0.3561  0.4973
  930MOL0     O25474   0.874   8.030  10.914  0.9979  0.6423 -0.6534
  930MOL0     C25475   0.868   7.938  11.022 -0.5827 -0.4770 -0.0754
  930MOL0     C25476   0.895   7.998  11.156  0.3742  0.1231 -0.0874
  930MOL0     C25477   0.770   8.019  11.221 -0.4538  0.3615  0.4955
  930MOL0     C25478   0.776   8.141  11.309 -0.1422 -0.3248  0.1703
  930MOL0     C25479   0.884   8.133  11.416  1.0194  0.6866 -0.1362
  930MOL0     C25480   0.980   8.133  11.491  0.0871 -0.1706 -0.8581
  930MOL0     C25481   0.838   8.074  10.688  0.8752  0.2068 -0.2338
  930MOL0     C25482   0.807   8.030  10.554 -0.7663 -0.2081 -0.7882
  930MOL0     H25483   1.040   7.832  10.241 -1.2443 -1.1970  1.4318
  930MOL0     H25484   1.110   7.752  10.050 -1.5626 -1.5978  3.9742
  930MOL0     H25485   1.056   7.679   9.654  1.2630  2.8927  0.5975
  930MOL0     H25486   1.164   7.733   9.790  0.8661 -0.9958  2.2241
  930MOL0     H25487   1.126   7.506   9.810  1.7483  3.0686  0.9717
  930MOL0     H25488   1.030   7.584   9.942  1.0217  1.9666  0.1643
  930MOL0     H25489   0.821   7.560   9.798 -1.2163 -0.8766 -0.7305
  930MOL0     H25490   0.906   7.502   9.659  0.8279  0.9182  0.2174
  930MOL0     H25491   0.780   7.315   9.758  0.9043 -0.6787 -0.9535
  930MOL0     H25492   0.958   7.292   9.779  3.6713 -1.3070  7.2673
  930MOL0     H25493   0.845   7.219   9.986 -1.8374  0.9306  1.4453
  930MOL0     H25494   0.969   7.349   9.996 -0.6119 -0.1644  1.5952
  930MOL0     H25495   0.752   7.513   9.993 -1.1007  0.7301  2.9096
  930MOL0     H25496   0.671   7.357  10.033 -0.3839  2.8258  1.9875
  930MOL0     H25497   0.892   7.374  10.213  2.0274 -0.9696 -2.1555
  930MOL0     H25498   0.870   7.537  10.174  1.4894 -1.7298  0.8252
  930MOL0     H25499   0.613   7.508  10.236  0.3530 -0.3791 -0.1285
  930MOL0     H25500   0.744   7.502  10.363 -0.2977  1.4563 -0.3518
  930MOL0     H25501   0.512   7.246  10.149  0.7523 -1.2010 -0.7446
  930MOL0     H25502   0.374   6.996  10.378  1.3786 -1.0498 -0.0705
  930MOL0     H25503   0.351   7.077  10.215  1.6970  3.9786  0.2665
  930MOL0     H25504   0.573   6.861  10.287 -0.8457  0.3895 -1.1711
  930MOL0     H25505   0.533   6.940  10.134 -3.5889  1.0904 -1.0545
  930MOL0     H25506   0.330   6.749  10.273  0.0696 -1.4506 -0.8591
  930MOL0     H25507   0.453   6.713  10.161 -0.0055  1.3988 -0.9947
  930MOL0     H25508   0.294   6.742  10.018 -0.2232  1.1669 -1.1850
  930MOL0     H25509   0.346   6.906  10.012 -0.1658 -1.9981 -3.4891
  930MOL0     H25510  -0.010   7.035  10.247 -1.7971 -0.0283  0.3193
  930MOL0     H25511  -0.295   7.143  10.141 -0.1370  0.0053 -1.7920
  930MOL0     H25512  -0.161   7.194  10.250 -0.6780 -0.0954  0.8944
  930MOL0     H25513  -0.198   7.286  10.093  0.2939 -0.0791  0.3305
  930MOL0     H25514  -0.489   7.179   9.744 -0.3832  1.6120 -0.0119
  930MOL0     H25515  -0.618   7.244   9.569  0.1397 -0.4243 -3.4799
  930MOL0     H25516  -0.425   7.147   9.190  0.0109 -0.7406 -2.8122
  930MOL0     H25517  -0.587   7.186   9.140  2.1404 -1.7005 -0.4180
  930MOL0     H25518  -0.383   7.410   9.142 -0.9404  0.1992  1.4668
  930MOL0     H25519  -0.413   7.298   9.005 -0.3665  0.2559  0.2138
  930MOL0     H25520  -0.630   7.360   8.984 -3.6115  2.6578  0.0503
  930MOL0     H25521  -0.516   7.491   8.960  0.5793 -0.6341  0.8840
  930MOL0     H25522  -0.727   7.490   9.176  0.9799 -1.0747  0.6906
  930MOL0     H25523  -0.564   7.518   9.226  0.2025 -3.2431 -0.3794
  930MOL0     H25524  -0.692   7.662   9.003  2.8733 -1.9066 -2.1882
  930MOL0     H25525  -0.535   7.702   9.086 -0.0062  2.4769  2.3671
  930MOL0     H25526  -0.811   7.719   9.235 -0.2503  3.5287 -0.6877
  930MOL0     H25527  -0.661   7.768   9.303  1.1341  0.2545 -1.0629
  930MOL0     H25528  -0.807   7.890   9.072 -2.5813  0.2785  2.1610
  930MOL0     H25529  -0.637   7.941   9.099 -0.6914  3.4304  0.2939
  930MOL0     H25530  -0.683   7.989   9.337  0.8392  0.7387 -1.2193
  930MOL0     H25531  -0.852   7.957   9.327 -1.5193  0.9001 -0.8929
  930MOL0     H25532  -0.261   7.274   9.318 -2.5190  0.8155 -1.1143
  930MOL0     H25533  -0.137   7.190   9.491  0.1106  1.9066 -5.1064
  930MOL0     H25534  -0.036   6.973   9.753  2.9200 -2.0510  0.0397
  930MOL0     H25535   0.132   6.840   9.878 -0.8918 -0.9925  0.1803
  930MOL0     H25536   0.747   7.910   9.845  0.0896  1.0399  0.4157
  930MOL0     H25537   0.679   7.983  10.061 -0.6264  0.0767 -4.2283
  930MOL0     H25538   0.791   7.696  10.595  1.5492 -0.9917  0.2747
  930MOL0     H25539   0.833   7.767  10.834  0.3484  1.3635  1.2068
  930MOL0     H25540   0.772   7.887  11.020  0.1914 -1.9952 -0.3580
  930MOL0     H25541   0.950   7.866  11.010  1.0703  0.9295  1.9494
  930MOL0     H25542   0.950   8.088  11.126  2.6519 -1.1909 -0.0976
  930MOL0     H25543   0.969   7.939  11.211 -0.1326 -0.3572  0.0872
  930MOL0     H25544   0.740   7.931  11.279  1.2150 -0.9359 -0.5261
  930MOL0     H25545   0.694   8.040  11.145  0.0388 -1.7689 -0.6490
  930MOL0     H25546   0.680   8.153  11.360 -0.2864  1.3290 -0.4343
  930MOL0     H25547   0.799   8.229  11.249 -2.0561 -1.1585 -1.9038
  930MOL0     H25548   1.055   8.142  11.567 -1.8455  0.5908  1.0818
  930MOL0     H25549   0.835   8.179  10.717  1.7407  0.2357 -0.2211
  930MOL0     H25550   0.793   8.116  10.488 -1.1639  0.0633 -0.3517
  931MOL0     O25551   8.568   7.101   2.172  0.2430  1.4387 -0.3199
  931MOL0     C25552   8.616   7.095   2.286  0.2663  0.1805 -0.2029
  931MOL0     O25553   8.728   7.149   2.332 -0.6381  0.0317 -0.1396
  931MOL0     C25554   8.827   7.164   2.235 -0.3341 -0.4547 -0.3616
  931MOL0     C25555   8.881   7.292   2.215  0.8361  0.0629  0.1210
  931MOL0     C25556   8.988   7.310   2.129  0.4074 -0.0855  0.6127
  931MOL0     C25557   9.043   7.197   2.068 -0.2700  0.5552 -0.0369
  931MOL0     O25558   9.155   7.211   1.990 -0.3371 -0.4942  0.0630
  931MOL0     C25559   9.183   7.123   1.873 -0.5736  0.8492 -0.3827
  931MOL0     C25560   9.084   7.136   1.756 -0.9382  0.0739  0.8341
  931MOL0     C25561   9.097   7.256   1.662 -0.5033 -0.8582  0.5713
  931MOL0     C25562   9.078   7.387   1.734  0.5825  0.1642 -0.7052
  931MOL0     C25563   9.073   7.494   1.626  0.3528  0.1387  1.6552
  931MOL0     C25564   9.148   7.620   1.666 -0.6825 -0.1690 -0.1860
  931MOL0     C25565   9.142   7.735   1.560  0.3205 -0.6737  0.3245
  931MOL0     C25566   9.004   7.764   1.502  0.5938  0.7238 -0.3146
  931MOL0     N25567   8.986   7.891   1.424 -0.9456  1.1824 -0.3513
  931MOL0     C25568   9.018   8.017   1.469  1.3241  0.1172  0.1767
  931MOL0     C25569   9.002   8.094   1.362  0.7306 -0.9413 -0.1929
  931MOL0     C25570   9.016   8.244   1.355 -0.3687 -0.0001  0.5920
  931MOL0     C25571   9.046   8.316   1.492  0.4613 -0.3963 -0.3312
  931MOL0     C25572   9.022   8.475   1.486  0.2386  0.0757  0.7619
  931MOL0     C25573   9.085   8.555   1.372  0.3254  0.4350  0.2889
  931MOL0     O25574   9.030   8.523   1.234 -0.2103 -1.0469 -0.0179
  931MOL0     C25575   9.042   8.625   1.142  0.0159 -0.5329  0.2174
  931MOL0     C25576   8.982   8.591   1.027  0.4833 -0.6059  0.5415
  931MOL0     C25577   8.979   8.672   0.910  0.0294 -0.4548 -0.0800
  931MOL0     C25578   8.917   8.614   0.780 -0.1711  0.5461  0.3849
  931MOL0     C25579   9.045   8.793   0.911  0.8763  0.7888  0.1627
  931MOL0     C25580   9.032   8.884   0.794 -1.0378  0.6570 -0.0891
  931MOL0     O25581   9.039   8.847   0.662  0.0891  0.2271  0.1119
  931MOL0     C25582   8.961   8.914   0.562  0.5967 -0.0799 -0.1762
  931MOL0     C25583   8.841   8.992   0.569  0.1297  0.5412 -0.6697
  931MOL0     C25584   8.776   9.046   0.454 -0.1374 -0.5233  0.4057
  931MOL0     C25585   8.822   9.009   0.329 -0.1099 -0.3129 -0.1418
  931MOL0     O25586   8.735   9.043   0.223 -0.9134 -0.0501 -0.6840
  931MOL0     C25587   8.732   8.945   0.115 -0.5299 -0.6319 -0.1343
  931MOL0     C25588   8.614   8.981   0.011  0.3630 -0.0713  0.1780
  931MOL0     C25589   8.649   9.081  -0.100 -0.3912 -0.6260  0.4753
  931MOL0     C25590   8.513   9.152  -0.139 -0.9218 -0.5836  0.4375
  931MOL0     C25591   8.537   9.231  -0.269  0.0061 -0.4524 -0.2606
  931MOL0     C25592   8.404   9.291  -0.325 -0.2971  0.6459  0.2525
  931MOL0     C25593   8.424   9.380  -0.452  0.1101  0.5775 -0.4198
  931MOL0     C25594   8.305   9.354  -0.544  0.3725 -0.1068  0.0057
  931MOL0    Cl25595   8.174   9.436  -0.499  0.3710  0.5784 -0.4647
  931MOL0     C25596   8.942   8.933   0.321  0.2658  1.0403  1.1385
  931MOL0     C25597   9.017   8.891   0.433 -0.2850 -0.2050  1.1407
  931MOL0     O25598   9.017   8.994   0.833 -0.3883  0.0447  0.7651
  931MOL0     C25599   9.109   8.829   1.033  0.3414  0.1502 -0.3951
  931MOL0     C25600   9.110   8.744   1.145 -0.7710 -0.7053  0.4433
  931MOL0     N25601   8.957   8.017   1.257 -0.3099  0.1445 -0.2861
  931MOL0     N25602   8.943   7.896   1.298  0.0436 -0.4743 -1.2932
  931MOL0     C25603   8.986   7.070   2.082 -1.1142  0.0016  0.1558
  931MOL0     C25604   8.881   7.051   2.172  0.3565  0.4684  0.5710
  931MOL0     C25605   8.524   7.030   2.382 -0.0495 -0.0159  0.0440
  931MOL0     C25606   8.389   7.011   2.359  0.0889  0.0841 -0.4064
  931MOL0     C25607   8.297   6.956   2.447 -0.0794  0.2034 -0.5353
  931MOL0     C25608   8.357   6.907   2.567 -0.7412 -0.4712 -1.5038
  931MOL0     O25609   8.288   6.849   2.670  0.3349  0.4243 -0.0231
  931MOL0     C25610   8.157   6.899   2.698 -0.5229 -0.4050 -0.9673
  931MOL0     C25611   8.160   7.043   2.744  0.7481  0.6886  0.6275
  931MOL0     C25612   8.245   7.081   2.869  0.3460 -0.7539 -0.4462
  931MOL0     C25613   8.237   6.992   2.993  0.4207  1.0928 -0.8171
  931MOL0     C25614   8.340   6.888   3.006 -0.6020 -0.0948  0.1665
  931MOL0     C25615   8.411   6.805   3.048  0.0496  0.4926  0.2449
  931MOL0     C25616   8.493   6.931   2.592 -0.6099  0.8072 -0.3461
  931MOL0     C25617   8.574   6.997   2.506  0.2029 -1.0575 -0.0246
  931MOL0     H25618   8.837   7.385   2.251 -0.6395 -1.3095  2.0349
  931MOL0     H25619   9.031   7.408   2.108 -0.2497 -0.5935 -4.0336
  931MOL0     H25620   9.286   7.137   1.837 -0.8427  1.4099 -0.9630
  931MOL0     H25621   9.177   7.019   1.905  0.7044  1.6725  2.9674
  931MOL0     H25622   9.102   7.049   1.692 -0.9149  0.5979  0.1163
  931MOL0     H25623   8.984   7.126   1.799  0.2776 -2.7078  3.3839
  931MOL0     H25624   9.188   7.244   1.603 -0.4997  1.7590 -0.0671
  931MOL0     H25625   9.021   7.250   1.584  0.3930 -1.2899 -0.2842
  931MOL0     H25626   8.993   7.402   1.802  1.0528 -1.1223  0.2186
  931MOL0     H25627   9.158   7.415   1.803 -1.5898  0.4138  1.9154
  931MOL0     H25628   9.118   7.463   1.531  0.9629  3.1337  0.8513
  931MOL0     H25629   8.975   7.514   1.583  0.9852 -0.3192 -0.0953
  931MOL0     H25630   9.100   7.660   1.756  3.0444 -1.0018  2.4484
  931MOL0     H25631   9.247   7.588   1.700 -1.9129 -2.6112  1.4249
  931MOL0     H25632   9.188   7.821   1.609  0.1370 -0.8851  0.8746
  931MOL0     H25633   9.207   7.696   1.480  0.7222  1.2429 -0.3317
  931MOL0     H25634   8.940   7.773   1.590 -0.3970 -1.9107 -0.6888
  931MOL0     H25635   8.959   7.680   1.448 -0.7871  2.4126 -1.9085
  931MOL0     H25636   9.050   8.063   1.562  3.0880 -0.6992  0.0033
  931MOL0     H25637   9.093   8.266   1.280 -4.3796  1.2881 -3.5899
  931MOL0     H25638   8.926   8.288   1.313 -0.9926 -1.5693  0.2172
  931MOL0     H25639   9.149   8.293   1.523  0.5593  3.3755  2.9913
  931MOL0     H25640   8.979   8.273   1.567  1.2554 -2.0383 -0.5191
  931MOL0     H25641   9.061   8.511   1.582  0.6105  1.0415  0.2559
  931MOL0     H25642   8.913   8.487   1.480  0.3662  1.0386  0.2717
  931MOL0     H25643   9.194   8.545   1.375  0.2391 -0.7790 -0.0458
  931MOL0     H25644   9.047   8.652   1.405 -1.0304 -1.2256  4.3063
  931MOL0     H25645   8.910   8.512   1.046  1.8995 -1.9455  0.5309
  931MOL0     H25646   8.857   8.527   0.807 -1.8598  2.1166  2.0132
  931MOL0     H25647   8.860   8.691   0.727 -1.3474  0.8720  2.0480
  931MOL0     H25648   9.001   8.579   0.720  0.7868 -0.0162  1.9826
  931MOL0     H25649   8.795   9.022   0.663 -1.2404 -1.9972 -0.4309
  931MOL0     H25650   8.687   9.108   0.454 -0.9296 -1.6117 -0.2884
  931MOL0     H25651   8.829   8.933   0.066 -0.4049 -1.4711  0.3045
  931MOL0     H25652   8.700   8.848   0.155  1.7335 -0.7427  1.5645
  931MOL0     H25653   8.587   8.890  -0.044  1.0933 -2.5268  3.5453
  931MOL0     H25654   8.526   9.007   0.070  1.2561  1.8926  0.7279
  931MOL0     H25655   8.694   9.027  -0.184  1.0932  2.9509 -1.2687
  931MOL0     H25656   8.730   9.149  -0.069 -0.2149 -1.9610  3.1791
  931MOL0     H25657   8.441   9.076  -0.168  0.0327 -1.7616  1.0949
  931MOL0     H25658   8.478   9.222  -0.063 -0.9553  1.8508 -1.6603
  931MOL0     H25659   8.578   9.163  -0.344  0.8392  0.9669 -1.1377
  931MOL0     H25660   8.600   9.318  -0.248  0.1850 -0.4960 -0.6040
  931MOL0     H25661   8.340   9.205  -0.344 -0.6978  0.9160  0.3672
  931MOL0     H25662   8.359   9.363  -0.257 -2.2499  2.7881 -3.0139
  931MOL0     H25663   8.518   9.354  -0.502 -1.4781 -1.7702 -2.4116
  931MOL0     H25664   8.439   9.485  -0.426  0.7624  0.7742 -1.5329
  931MOL0     H25665   8.285   9.247  -0.546 -0.6946  0.0494  1.2355
  931MOL0     H25666   8.322   9.387  -0.647 -1.1629  2.4776  0.4881
  931MOL0     H25667   8.983   8.915   0.222 -2.0336  1.4559  0.0446
  931MOL0     H25668   9.104   8.827   0.427  0.9394  1.2039  2.6612
  931MOL0     H25669   9.162   8.923   1.043  2.3134 -1.0340  1.0619
  931MOL0     H25670   9.173   8.774   1.228 -0.7767 -1.2369  0.6448
  931MOL0     H25671   9.010   6.983   2.022 -1.6626 -1.2319  1.6628
  931MOL0     H25672   8.851   6.952   2.202  1.0466  0.9248  3.0081
  931MOL0     H25673   8.343   7.045   2.267 -1.0103 -1.2739 -0.3857
  931MOL0     H25674   8.195   6.938   2.412 -0.8518  1.3169  1.0378
  931MOL0     H25675   8.098   6.889   2.606 -0.0225  2.2358 -1.6385
  931MOL0     H25676   8.118   6.838   2.781 -1.4498 -1.8031 -2.3713
  931MOL0     H25677   8.055   7.070   2.753  0.5611  0.0783  0.3610
  931MOL0     H25678   8.196   7.103   2.661  1.9634 -2.3703 -1.2347
  931MOL0     H25679   8.217   7.183   2.897  0.7240 -0.3386 -1.5536
  931MOL0     H25680   8.345   7.088   2.826 -1.3772  2.9328 -4.6740
  931MOL0     H25681   8.140   6.941   3.002  2.2487 -2.6401 -0.3772
  931MOL0     H25682   8.248   7.064   3.075 -1.8761  0.4278  0.1518
  931MOL0     H25683   8.471   6.728   3.093 -0.1304 -0.5963 -1.2950
  931MOL0     H25684   8.528   6.892   2.688  0.2418  1.2742 -0.4572
  931MOL0     H25685   8.682   7.009   2.516 -0.2059  2.2975  1.5453
  932MOL0     O25686  10.023   0.194   2.515  0.8235  0.1085  0.5151
  932MOL0     C25687  10.050   0.301   2.454  1.0272  0.8383 -0.0067
  932MOL0     O25688  10.070   0.426   2.518 -0.7043  0.8951 -0.4103
  932MOL0     C25689  10.098   0.410   2.658 -0.2173 -0.0588 -1.5963
  932MOL0     C25690  10.037   0.487   2.755 -0.3753  0.1164  0.1507
  932MOL0     C25691  10.053   0.451   2.892 -0.4489  0.8525  0.0977
  932MOL0     C25692  10.149   0.361   2.937 -0.1054 -0.1816  0.4321
  932MOL0     O25693  10.153   0.341   3.065 -0.1263  0.1445 -0.5494
  932MOL0     C25694  10.235   0.234   3.113 -0.5169  0.1251 -0.3244
  932MOL0     C25695  10.223   0.208   3.266  0.5735  0.0641 -0.9842
  932MOL0     C25696  10.293   0.079   3.319 -0.2685  0.4680  0.0320
  932MOL0     C25697  10.450   0.090   3.304 -0.0552 -0.2152 -0.2485
  932MOL0     C25698  10.500  -0.028   3.383 -0.7104 -0.8299  0.1055
  932MOL0     C25699  10.647  -0.058   3.343 -0.0555  0.8538 -0.3781
  932MOL0     C25700  10.666  -0.162   3.231 -0.5396  0.9158 -0.7318
  932MOL0     C25701  10.811  -0.217   3.202  1.2746  0.3660  0.7645
  932MOL0     N25702  10.795  -0.329   3.107 -0.2001 -0.3003  0.5076
  932MOL0     C25703  10.795  -0.318   2.974 -1.0688  0.2180  0.3680
  932MOL0     C25704  10.782  -0.446   2.934  0.3037  0.5428  0.6007
  932MOL0     C25705  10.798  -0.479   2.788 -0.7650 -0.6245  0.5712
  932MOL0     C25706  10.734  -0.393   2.675  0.5325 -0.2591  0.3511
  932MOL0     C25707  10.807  -0.419   2.539 -0.5894 -0.1787 -1.0784
  932MOL0     C25708  10.713  -0.385   2.427  0.5802  0.6245 -0.2492
  932MOL0     O25709  10.780  -0.388   2.305  0.7890  0.0235  0.4790
  932MOL0     C25710  10.714  -0.332   2.196 -0.5771 -0.0747  0.3371
  932MOL0     C25711  10.790  -0.259   2.109  0.9693 -0.3905  0.2716
  932MOL0     C25712  10.739  -0.223   1.983 -0.4687 -0.0810 -0.0915
  932MOL0     C25713  10.831  -0.152   1.885 -0.4592 -0.9435 -1.2248
  932MOL0     C25714  10.600  -0.249   1.943  0.5711 -0.3721 -0.0204
  932MOL0     C25715  10.532  -0.206   1.819  0.3502  0.2618 -1.0961
  932MOL0     O25716  10.395  -0.208   1.816  0.3640  0.1406 -0.5881
  932MOL0     C25717  10.325  -0.148   1.712 -0.3117  1.4052 -0.1146
  932MOL0     C25718  10.363  -0.043   1.638  0.4876  0.0352  0.2116
  932MOL0     C25719  10.287  -0.018   1.520  0.3683 -0.4247 -1.4357
  932MOL0     C25720  10.170  -0.089   1.487  0.8811 -0.9764  0.2012
  932MOL0     O25721  10.093  -0.045   1.376 -1.4400 -0.0787 -0.6974
  932MOL0     C25722   9.976  -0.120   1.345 -0.3509 -0.7756  0.9861
  932MOL0     C25723   9.893  -0.030   1.238 -0.2434 -0.0076 -0.7868
  932MOL0     C25724   9.971   0.066   1.146 -0.0753  0.0186 -0.1967
  932MOL0     C25725  10.070  -0.019   1.065  0.3637 -0.0056 -0.6488
  932MOL0     C25726  10.068   0.030   0.927  0.5036  1.2044 -0.6669
  932MOL0     C25727  10.125   0.165   0.899 -0.1260  0.1609  0.0374
  932MOL0     C25728  10.279   0.170   0.914  0.2491 -0.0168 -0.0652
  932MOL0     C25729  10.329   0.267   1.015 -0.0235  0.7696  0.4443
  932MOL0    Cl25730  10.276   0.423   0.974  0.4931 -0.2798  0.3842
  932MOL0     C25731  10.137  -0.202   1.567  0.0023 -0.4566 -0.4270
  932MOL0     C25732  10.218  -0.225   1.668  0.7766  0.2208  0.4051
  932MOL0     O25733  10.596  -0.163   1.724  0.2455 -0.1085 -0.6340
  932MOL0     C25734  10.528  -0.336   2.031  0.4375 -0.1026  0.2093
  932MOL0     C25735  10.585  -0.366   2.155 -0.1567  0.3544 -1.3540
  932MOL0     N25736  10.783  -0.527   3.044  0.4049  0.2880  0.2818
  932MOL0     N25737  10.793  -0.456   3.154 -0.9599 -0.1608  0.7037
  932MOL0     C25738  10.230   0.309   2.834  0.0597 -0.8692  0.0326
  932MOL0     C25739  10.205   0.325   2.701  0.2092 -0.8966  0.3724
  932MOL0     C25740  10.052   0.291   2.314 -0.2998 -0.4062 -0.4475
  932MOL0     C25741  10.046   0.168   2.248  0.4290  0.7232  0.3042
  932MOL0     C25742  10.051   0.164   2.110  0.0191  0.0585  1.3159
  932MOL0     C25743  10.056   0.283   2.027  0.0867 -0.6826  0.7894
  932MOL0     O25744  10.055   0.285   1.882  0.1557 -0.8601  0.1175
  932MOL0     C25745   9.994   0.184   1.804 -0.7721  0.3506 -1.0431
  932MOL0     C25746   9.965   0.238   1.659 -0.3131  0.7475 -0.3008
  932MOL0     C25747  10.081   0.319   1.597  0.1505  0.3808 -0.6483
  932MOL0     C25748  10.090   0.299   1.443 -0.2907  0.3137  0.2907
  932MOL0     C25749  10.172   0.406   1.394 -0.2335 -0.0300  0.1636
  932MOL0     C25750  10.248   0.489   1.345 -0.0029  0.2275 -0.5822
  932MOL0     C25751  10.070   0.397   2.099  0.4220 -0.0568 -0.2038
  932MOL0     C25752  10.068   0.410   2.239  0.4824 -0.0392  0.5200
  932MOL0     H25753   9.959   0.561   2.740  1.9152  2.2489 -2.2954
  932MOL0     H25754   9.992   0.511   2.959  1.2391  1.7749  0.8744
  932MOL0     H25755  10.211   0.138   3.067  0.9803  0.3736 -1.7259
  932MOL0     H25756  10.342   0.238   3.092  0.0209  0.0126  2.1214
  932MOL0     H25757  10.254   0.295   3.324 -2.2990  0.3019  0.3639
  932MOL0     H25758  10.115   0.208   3.280  0.4568  4.7564 -0.2736
  932MOL0     H25759  10.274   0.069   3.426  3.1390 -0.0851  0.7020
  932MOL0     H25760  10.247  -0.009   3.273 -1.6888 -0.6515  3.3033
  932MOL0     H25761  10.480   0.076   3.200 -3.8463 -1.2376 -1.3535
  932MOL0     H25762  10.496   0.186   3.332  2.5276 -1.9064  1.8116
  932MOL0     H25763  10.494  -0.009   3.490 -1.4437 -0.8366  0.0718
  932MOL0     H25764  10.441  -0.118   3.366 -0.8683 -1.0266  1.6000
  932MOL0     H25765  10.703   0.034   3.325  0.2020  1.2816  2.1917
  932MOL0     H25766  10.702  -0.104   3.426  0.0715  0.2645 -0.7798
  932MOL0     H25767  10.599  -0.245   3.254  0.7437  0.5317  1.9632
  932MOL0     H25768  10.612  -0.123   3.144  0.0616  1.4906 -0.8608
  932MOL0     H25769  10.842  -0.272   3.291 -2.7911 -0.0805  2.1131
  932MOL0     H25770  10.882  -0.145   3.161  2.5063 -1.5399 -0.6488
  932MOL0     H25771  10.806  -0.236   2.904 -1.3353 -0.1381 -0.1066
  932MOL0     H25772  10.907  -0.483   2.778 -0.8139 -2.0179  0.3602
  932MOL0     H25773  10.752  -0.577   2.771 -2.4403  0.4735 -1.9240
  932MOL0     H25774  10.735  -0.288   2.705 -1.4317 -0.0627 -0.1263
  932MOL0     H25775  10.628  -0.420   2.670  0.6257 -0.8207  1.2461
  932MOL0     H25776  10.834  -0.523   2.520 -0.9710  0.0169 -2.7980
  932MOL0     H25777  10.900  -0.363   2.534 -0.3811 -0.6130 -2.4210
  932MOL0     H25778  10.681  -0.282   2.446 -1.0705  0.1117 -0.1083
  932MOL0     H25779  10.627  -0.450   2.446  0.7540  0.6445  0.6392
  932MOL0     H25780  10.893  -0.245   2.140  1.6642 -3.0290 -0.5845
  932MOL0     H25781  10.780  -0.061   1.855  1.6181  0.6053 -0.3088
  932MOL0     H25782  10.928  -0.110   1.915  1.0757 -4.8701 -0.0436
  932MOL0     H25783  10.849  -0.223   1.803  1.6395 -1.3028 -0.5178
  932MOL0     H25784  10.448   0.020   1.663  0.9139 -0.6102  0.4038
  932MOL0     H25785  10.306   0.069   1.458  2.3801  0.8241  0.7337
  932MOL0     H25786  10.017  -0.217   1.314 -4.3248 -2.8762  1.6914
  932MOL0     H25787   9.918  -0.127   1.438 -1.2209 -2.1117  0.3671
  932MOL0     H25788   9.829  -0.091   1.174 -3.1319  1.4405  0.5415
  932MOL0     H25789   9.811   0.014   1.295 -0.8705 -2.1882  0.0858
  932MOL0     H25790  10.009   0.153   1.200 -0.0558 -1.4200  2.2222
  932MOL0     H25791   9.889   0.107   1.085 -1.5378 -1.8919  0.3778
  932MOL0     H25792  10.171  -0.003   1.104 -0.9517  2.5480  2.1335
  932MOL0     H25793  10.039  -0.124   1.061 -1.1499  0.2835  1.6206
  932MOL0     H25794   9.962   0.033   0.901 -0.6747 -1.1052  3.1247
  932MOL0     H25795  10.122  -0.046   0.869  4.7141  0.9145  3.0747
  932MOL0     H25796  10.103   0.190   0.795 -0.5863  0.9509  0.3159
  932MOL0     H25797  10.082   0.237   0.969  1.2977  0.0845  1.0478
  932MOL0     H25798  10.319   0.204   0.818  2.0785 -0.0762  0.6271
  932MOL0     H25799  10.324   0.072   0.931  0.8332  0.4058  0.9111
  932MOL0     H25800  10.438   0.267   1.003 -0.1463 -0.2128 -0.9454
  932MOL0     H25801  10.290   0.252   1.116  1.6705 -0.7106  0.9404
  932MOL0     H25802  10.058  -0.276   1.557  0.3181 -1.1128  1.4457
  932MOL0     H25803  10.199  -0.306   1.738  3.9359 -1.8643 -0.9463
  932MOL0     H25804  10.430  -0.371   2.000 -0.7516  3.4639 -0.5447
  932MOL0     H25805  10.532  -0.440   2.215  1.0790 -0.3564 -1.1117
  932MOL0     H25806  10.320   0.254   2.859  0.6712  0.4666  0.8556
  932MOL0     H25807  10.252   0.271   2.619  0.6430 -0.5563  0.3883
  932MOL0     H25808  10.043   0.074   2.303  0.5628  1.1066  0.9709
  932MOL0     H25809  10.055   0.070   2.056 -0.0788 -0.2212  1.7938
  932MOL0     H25810  10.070   0.106   1.797  2.2528  3.1186 -1.7428
  932MOL0     H25811   9.898   0.146   1.838 -0.5308  2.1077  1.9088
  932MOL0     H25812   9.871   0.292   1.671 -0.9809 -0.8692  3.1032
  932MOL0     H25813   9.939   0.154   1.593 -1.0010 -0.7510  1.7540
  932MOL0     H25814  10.180   0.289   1.633 -0.8780 -2.3893  0.1630
  932MOL0     H25815  10.076   0.427   1.614 -0.1771  0.3099 -0.2735
  932MOL0     H25816   9.986   0.306   1.412 -0.8237  0.0121  1.9089
  932MOL0     H25817  10.129   0.204   1.406  2.0663  2.2740 -2.7017
  932MOL0     H25818  10.321   0.564   1.321 -1.3322  2.1883  1.1542
  932MOL0     H25819  10.067   0.487   2.037 -1.1305 -1.0927 -1.6950
  932MOL0     H25820  10.099   0.506   2.277 -2.0419  1.2953 -0.5783
  933MOL0     O25821   2.728  10.364   4.801  0.6217 -0.4515  0.5808
  933MOL0     C25822   2.833  10.297   4.824  0.1265 -0.3341 -0.2204
  933MOL0     O25823   2.938  10.328   4.907  0.2798 -0.5166 -0.1278
  933MOL0     C25824   2.942  10.453   4.970 -0.1661  0.2105  0.6439
  933MOL0     C25825   2.892  10.570   4.897 -1.2676 -0.5424 -0.3169
  933MOL0     C25826   2.932  10.696   4.942 -0.1685 -0.1402 -0.0633
  933MOL0     C25827   3.006  10.714   5.061  0.7986 -0.5701 -0.7939
  933MOL0     O25828   3.046  10.843   5.108  0.7974  0.8375  0.4396
  933MOL0     C25829   2.942  10.938   5.106 -0.4325 -1.1319 -0.4699
  933MOL0     C25830   2.959  11.039   5.219 -0.1861 -0.3243 -0.5171
  933MOL0     C25831   2.846  11.144   5.229 -0.7950 -0.4491 -0.4321
  933MOL0     C25832   2.880  11.258   5.332 -0.9725  0.0327 -0.1912
  933MOL0     C25833   2.768  11.358   5.337 -0.5488  0.7539 -0.4361
  933MOL0     C25834   2.641  11.301   5.403 -0.4232  0.4552 -0.1233
  933MOL0     C25835   2.569  11.406   5.492 -0.2061  0.3428  0.5924
  933MOL0     C25836   2.639  11.426   5.632  0.0511  0.0657 -0.6616
  933MOL0     N25837   2.586  11.549   5.700  0.2684 -0.0583  0.4969
  933MOL0     C25838   2.584  11.666   5.626  0.0597 -0.5363  0.1924
  933MOL0     C25839   2.536  11.765   5.713  0.6090 -0.2993  0.6412
  933MOL0     C25840   2.510  11.908   5.671  0.3227 -0.1978 -0.2689
  933MOL0     C25841   2.447  11.912   5.529 -0.0226  0.2613 -0.7091
  933MOL0     C25842   2.389  12.047   5.490 -1.0465  1.0401 -0.0575
  933MOL0     C25843   2.288  12.055   5.370  0.5266  0.6027 -0.8789
  933MOL0     O25844   2.378  12.036   5.261 -0.3639  0.0668 -0.7555
  933MOL0     C25845   2.327  12.026   5.135 -0.8951  0.6610  0.0037
  933MOL0     C25846   2.383  12.086   5.018 -0.2807  0.0057 -0.1009
  933MOL0     C25847   2.311  12.082   4.894  0.0420  0.3005 -0.1310
  933MOL0     C25848   2.374  12.150   4.770  0.2410 -0.2370 -0.5615
  933MOL0     C25849   2.188  12.006   4.880  0.2908 -0.0111  0.5094
  933MOL0     C25850   2.103  12.009   4.757 -1.3941 -0.6104  0.6896
  933MOL0     O25851   2.041  11.892   4.719 -0.1292 -0.1572 -0.1758
  933MOL0     C25852   1.983  11.870   4.597 -0.2811  0.4392  0.1032
  933MOL0     C25853   2.006  11.940   4.483 -1.2264 -0.3459 -0.3774
  933MOL0     C25854   1.969  11.905   4.356 -0.3175  1.2370 -0.1354
  933MOL0     C25855   1.905  11.786   4.333 -0.7161 -0.2568  0.2538
  933MOL0     O25856   1.893  11.744   4.209 -0.0842  0.9529 -0.0181
  933MOL0     C25857   1.997  11.651   4.165 -0.7229  0.2220 -0.3537
  933MOL0     C25858   2.051  11.674   4.021  0.0798 -0.7307  0.9079
  933MOL0     C25859   2.059  11.540   3.939  0.0958  0.6627 -0.0405
  933MOL0     C25860   2.157  11.436   4.009 -0.1307  0.2255  1.6196
  933MOL0     C25861   2.199  11.328   3.917 -1.0479 -0.2258  0.8764
  933MOL0     C25862   2.327  11.247   3.950 -0.2044  0.0863  0.1330
  933MOL0     C25863   2.296  11.160   4.071 -0.1970 -0.1054 -1.1631
  933MOL0     C25864   2.411  11.130   4.174  0.6791  0.4218 -0.3975
  933MOL0    Cl25865   2.358  10.997   4.273 -0.2835 -0.1985 -0.2110
  933MOL0     C25866   1.878  11.707   4.447  0.2443 -0.3564 -0.1058
  933MOL0     C25867   1.917  11.754   4.581 -0.2763  0.0226  0.7907
  933MOL0     O25868   2.077  12.125   4.715  0.1474 -0.0023 -0.7929
  933MOL0     C25869   2.156  11.918   4.984 -0.7779 -0.0158 -0.5733
  933MOL0     C25870   2.231  11.925   5.106 -0.5755 -0.3762 -0.2347
  933MOL0     N25871   2.499  11.711   5.836  0.1899 -0.8320  0.6180
  933MOL0     N25872   2.534  11.579   5.827 -0.7807 -0.2903  0.1454
  933MOL0     C25873   3.046  10.599   5.126  0.0608 -0.3685  0.8947
  933MOL0     C25874   3.022  10.467   5.081  0.0582 -0.3176 -0.8956
  933MOL0     C25875   2.841  10.164   4.765 -0.3841 -0.2995 -0.0352
  933MOL0     C25876   2.777  10.134   4.642 -0.5382 -0.4646  0.3575
  933MOL0     C25877   2.812  10.008   4.589 -0.0312 -0.2389  0.1642
  933MOL0     C25878   2.887   9.907   4.658 -0.7712  0.1284 -0.2707
  933MOL0     O25879   2.906   9.791   4.593  0.1137  0.0156 -0.0968
  933MOL0     C25880   2.998   9.693   4.647  0.2419  0.2362  0.8680
  933MOL0     C25881   3.024   9.603   4.519 -0.6541  0.1954  0.2089
  933MOL0     C25882   2.905   9.536   4.446  0.3951 -0.7580 -0.1166
  933MOL0     C25883   2.944   9.421   4.346 -0.8301  0.1329 -0.9363
  933MOL0     C25884   2.815   9.374   4.307 -0.1012 -0.5826  0.7301
  933MOL0     C25885   2.710   9.343   4.270 -0.4250  1.3251  0.7942
  933MOL0     C25886   2.940   9.931   4.790 -0.9679 -1.0473 -0.3433
  933MOL0     C25887   2.910  10.065   4.839 -0.8488  0.7542  0.2821
  933MOL0     H25888   2.829  10.569   4.809 -2.7933  3.2496  0.5110
  933MOL0     H25889   2.886  10.781   4.893 -0.0486  0.2509  0.4924
  933MOL0     H25890   2.932  10.980   5.006 -3.2581 -0.0025  0.1946
  933MOL0     H25891   2.854  10.880   5.137 -1.0903  1.2029  2.5140
  933MOL0     H25892   2.967  10.982   5.312  0.3163  1.3516  0.5082
  933MOL0     H25893   3.054  11.092   5.210  0.4659 -1.6333 -1.8758
  933MOL0     H25894   2.837  11.187   5.129 -2.0352 -1.9759 -1.0179
  933MOL0     H25895   2.753  11.095   5.261 -0.6470  0.5611  1.7113
  933MOL0     H25896   2.891  11.206   5.427 -0.7737 -2.2797 -1.4138
  933MOL0     H25897   2.970  11.314   5.306 -0.1467  0.3140  2.9481
  933MOL0     H25898   2.812  11.439   5.395  2.1827  0.3033 -1.7532
  933MOL0     H25899   2.746  11.385   5.234 -1.6288  0.8542 -0.1919
  933MOL0     H25900   2.576  11.260   5.326  1.7326 -2.2628 -0.6636
  933MOL0     H25901   2.661  11.216   5.470  2.2324 -0.9961 -2.5354
  933MOL0     H25902   2.565  11.498   5.434 -2.1721  0.0846  0.2234
  933MOL0     H25903   2.464  11.375   5.506 -0.4515  0.2855 -1.1900
  933MOL0     H25904   2.746  11.430   5.611  0.0858 -1.3465 -0.7985
  933MOL0     H25905   2.606  11.347   5.700 -1.1921  2.8185  2.2210
  933MOL0     H25906   2.616  11.687   5.524 -0.9108  2.4063  0.3988
  933MOL0     H25907   2.428  11.942   5.735  1.7085  0.1032  1.4118
  933MOL0     H25908   2.592  11.976   5.691 -0.2305  0.3900  0.0362
  933MOL0     H25909   2.362  11.843   5.523  0.6464 -1.3040  3.7538
  933MOL0     H25910   2.521  11.869   5.461 -0.6902 -1.2546 -0.5225
  933MOL0     H25911   2.472  12.118   5.484  1.0871 -1.2650  0.4380
  933MOL0     H25912   2.332  12.075   5.579  1.0801  1.1543  1.3543
  933MOL0     H25913   2.232  12.149   5.366  0.2469  0.4442 -0.6998
  933MOL0     H25914   2.213  11.975   5.373 -0.8043  1.8314  0.1793
  933MOL0     H25915   2.467  12.151   5.038 -1.3492  1.9408 -1.4976
  933MOL0     H25916   2.476  12.184   4.785 -2.0818  7.3571  2.9053
  933MOL0     H25917   2.359  12.089   4.680 -2.0287 -0.9947  0.2467
  933MOL0     H25918   2.323  12.246   4.754 -1.0537 -0.7283  0.4496
  933MOL0     H25919   2.051  12.038   4.488  0.9454 -1.3189  0.3529
  933MOL0     H25920   2.008  11.969   4.277  0.2599 -2.2169 -2.9014
  933MOL0     H25921   2.082  11.654   4.234  1.2354 -0.4682 -2.5999
  933MOL0     H25922   1.955  11.551   4.175 -1.0495  0.1492 -2.1528
  933MOL0     H25923   1.990  11.747   3.967  1.1919 -0.7062 -0.3703
  933MOL0     H25924   2.153  11.712   4.028 -0.8591  1.7139  2.9430
  933MOL0     H25925   2.102  11.569   3.843 -0.7287  0.1204 -0.5932
  933MOL0     H25926   1.960  11.498   3.919  1.4990 -3.3432  0.5233
  933MOL0     H25927   2.248  11.495   4.027  0.4268  0.8528 -2.3356
  933MOL0     H25928   2.123  11.384   4.100 -2.7541 -2.9397 -0.9126
  933MOL0     H25929   2.211  11.362   3.814  2.5192 -2.5442  0.3273
  933MOL0     H25930   2.119  11.253   3.916  0.4646 -1.9806  2.2853
  933MOL0     H25931   2.369  11.187   3.869  0.6148  1.4634 -0.4879
  933MOL0     H25932   2.404  11.318   3.983 -1.2772  0.0757  2.9523
  933MOL0     H25933   2.267  11.062   4.032  1.1871 -2.3008  2.8390
  933MOL0     H25934   2.217  11.204   4.132  0.6003 -0.9018  0.5057
  933MOL0     H25935   2.433  11.225   4.224  0.7228 -0.5493  1.5198
  933MOL0     H25936   2.503  11.108   4.118  2.5315  0.5284  2.4245
  933MOL0     H25937   1.834  11.612   4.419 -3.3472  0.3275  2.4256
  933MOL0     H25938   1.904  11.674   4.653 -1.4132 -0.4625  0.0722
  933MOL0     H25939   2.081  11.840   4.974 -0.0727 -0.9144  0.7780
  933MOL0     H25940   2.217  11.858   5.190 -1.3043 -0.6950 -0.6004
  933MOL0     H25941   3.110  10.627   5.210  0.5044  2.0253 -0.1488
  933MOL0     H25942   3.059  10.381   5.135  0.2062 -0.4658 -1.2292
  933MOL0     H25943   2.716  10.199   4.579 -0.3799  0.2744  0.9513
  933MOL0     H25944   2.783   9.985   4.487  1.8073 -0.6958 -0.2967
  933MOL0     H25945   3.092   9.740   4.678 -0.5302  2.6321 -0.1328
  933MOL0     H25946   2.961   9.635   4.732  4.0204  0.0133  2.5658
  933MOL0     H25947   3.069   9.517   4.569 -4.7527 -1.3892  1.6564
  933MOL0     H25948   3.071   9.664   4.442 -0.5977  0.5268  0.5046
  933MOL0     H25949   2.852   9.614   4.390  2.3690  0.1328 -0.8334
  933MOL0     H25950   2.850   9.493   4.530  2.7216  0.2581  2.0624
  933MOL0     H25951   3.014   9.350   4.391 -0.7988 -0.1342 -1.4018
  933MOL0     H25952   2.996   9.476   4.267 -0.4863  4.2007  1.7648
  933MOL0     H25953   2.609   9.315   4.246 -0.1132  0.8186  0.0208
  933MOL0     H25954   2.992   9.864   4.858 -0.2869  0.1246  0.3446
  933MOL0     H25955   2.959  10.092   4.932 -2.9511 -0.7441  1.9458
  934MOL0     O25956   3.428  10.169   4.762  0.1494  0.2557 -0.4006
  934MOL0     C25957   3.359  10.246   4.833  0.8188 -0.0813 -0.8013
  934MOL0     O25958   3.263  10.212   4.922  0.7369  0.2004 -0.1325
  934MOL0     C25959   3.252  10.085   4.978  0.7512  0.5519  0.2760
  934MOL0     C25960   3.198  10.063   5.111  0.0255 -0.7200  0.4553
  934MOL0     C25961   3.201   9.936   5.169  0.0489 -0.6488 -0.4470
  934MOL0     C25962   3.239   9.825   5.102  0.9464  0.8018  0.2144
  934MOL0     O25963   3.238   9.689   5.146  0.1731 -1.2321  0.1404
  934MOL0     C25964   3.276   9.668   5.279  0.0635 -0.1996 -0.2115
  934MOL0     C25965   3.394   9.570   5.290  0.2070  0.8824 -0.4053
  934MOL0     C25966   3.421   9.532   5.439  0.1330 -0.3577  1.0258
  934MOL0     C25967   3.478   9.655   5.512 -0.2545  0.1049 -0.9678
  934MOL0     C25968   3.467   9.630   5.683 -0.2343 -0.1548  0.0238
  934MOL0     C25969   3.539   9.505   5.733 -0.1036 -0.5651  0.0178
  934MOL0     C25970   3.688   9.501   5.705  0.5114 -0.6854  0.0876
  934MOL0     C25971   3.763   9.617   5.759 -0.0887 -0.2386  0.8914
  934MOL0     N25972   3.903   9.595   5.764  0.3367 -1.0082 -0.0318
  934MOL0     C25973   3.990   9.586   5.664  0.3592  1.5663  0.7217
  934MOL0     C25974   4.112   9.575   5.727  0.2832  0.0822  0.4386
  934MOL0     C25975   4.247   9.558   5.659 -1.3153  0.6090 -0.7542
  934MOL0     C25976   4.288   9.706   5.623 -0.5401  0.3261  0.4397
  934MOL0     C25977   4.407   9.700   5.527  0.3840 -1.4354  0.3443
  934MOL0     C25978   4.433   9.847   5.490  0.4105 -0.0680 -1.4553
  934MOL0     O25979   4.555   9.859   5.418 -0.8380 -0.8569  0.1375
  934MOL0     C25980   4.607   9.977   5.378  0.2240 -0.5009 -0.4707
  934MOL0     C25981   4.749  10.000   5.375 -0.4240  0.4731  0.0467
  934MOL0     C25982   4.803  10.119   5.342 -0.8538 -0.5952  0.3418
  934MOL0     C25983   4.957  10.129   5.352  0.9533 -0.2600  0.4294
  934MOL0     C25984   4.718  10.224   5.289 -0.3730 -0.4485 -0.5463
  934MOL0     C25985   4.763  10.352   5.233  0.4449  0.2471  0.0854
  934MOL0     O25986   4.664  10.443   5.213  1.6733  0.5429 -0.3350
  934MOL0     C25987   4.686  10.551   5.131 -0.3835  0.4688 -0.2576
  934MOL0     C25988   4.795  10.642   5.138 -0.9102  0.5272  0.1659
  934MOL0     C25989   4.800  10.756   5.065  0.1332 -0.5305  0.5483
  934MOL0     C25990   4.707  10.775   4.955  0.0563 -0.0362 -0.3180
  934MOL0     O25991   4.703  10.872   4.860  0.1185  0.2630  0.1709
  934MOL0     C25992   4.743  11.002   4.899 -0.1611 -0.4797  0.5122
  934MOL0     C25993   4.675  11.124   4.833  0.6469  0.0058  0.3077
  934MOL0     C25994   4.682  11.119   4.675 -0.2037  0.4027 -1.0757
  934MOL0     C25995   4.581  11.205   4.612 -0.3458 -0.5261  0.1425
  934MOL0     C25996   4.591  11.219   4.456  1.0022 -0.0422 -0.0875
  934MOL0     C25997   4.528  11.351   4.415  0.3050 -0.4529 -0.1978
  934MOL0     C25998   4.477  11.358   4.273  0.3518  0.0399 -0.2989
  934MOL0     C25999   4.560  11.292   4.155 -0.1276  0.4813 -0.0861
  934MOL0    Cl26000   4.726  11.359   4.142  0.1556  0.2739  0.3794
  934MOL0     C26001   4.605  10.684   4.944 -0.1903  0.4323  0.0748
  934MOL0     C26002   4.591  10.577   5.033  0.0281 -0.1200  0.3636
  934MOL0     O26003   4.879  10.355   5.179 -0.2555  0.4560  0.3861
  934MOL0     C26004   4.581  10.203   5.297  0.2043 -1.2559  0.4154
  934MOL0     C26005   4.524  10.089   5.349  0.5829  0.8732 -0.3109
  934MOL0     N26006   4.093   9.586   5.868  0.4817  0.0504 -0.0038
  934MOL0     N26007   3.967   9.598   5.886  0.1947 -0.5025  0.6360
  934MOL0     C26008   3.268   9.841   4.965  0.4844  0.0587 -0.1260
  934MOL0     C26009   3.277   9.965   4.910  0.5072 -0.8366  0.1496
  934MOL0     C26010   3.386  10.395   4.821 -0.2525  0.4531  0.5386
  934MOL0     C26011   3.492  10.433   4.745  0.8497  0.0306 -0.0083
  934MOL0     C26012   3.528  10.567   4.733 -0.0910  0.0666  0.3984
  934MOL0     C26013   3.454  10.661   4.799 -0.3976  0.1013 -0.6439
  934MOL0     O26014   3.462  10.791   4.772 -0.0143 -0.3218  1.0906
  934MOL0     C26015   3.473  10.885   4.871 -0.4449 -0.4485 -0.2474
  934MOL0     C26016   3.369  10.995   4.858  0.0473  0.7516  0.8694
  934MOL0     C26017   3.391  11.123   4.932  0.5033 -0.1949 -0.5912
  934MOL0     C26018   3.269  11.214   4.932  0.4738 -0.5658 -0.1831
  934MOL0     C26019   3.239  11.269   4.796  0.1572  0.5358  0.8523
  934MOL0     C26020   3.176  11.296   4.694 -0.0543 -0.5573  0.8382
  934MOL0     C26021   3.341  10.629   4.883 -0.0565 -0.1634 -0.2780
  934MOL0     C26022   3.321  10.488   4.901 -0.2938 -0.8281  0.3867
  934MOL0     H26023   3.163  10.147   5.171 -4.6196 -1.7756 -0.3794
  934MOL0     H26024   3.182   9.919   5.274 -0.9688 -4.1876 -1.0576
  934MOL0     H26025   3.309   9.768   5.310 -0.5612  0.1188 -0.5386
  934MOL0     H26026   3.187   9.633   5.332 -1.1342  2.2371 -0.4460
  934MOL0     H26027   3.368   9.477   5.238 -0.0328  1.0521 -0.5875
  934MOL0     H26028   3.483   9.620   5.251 -0.0921  3.4372  1.9121
  934MOL0     H26029   3.322   9.525   5.485 -0.2869  2.0965  0.6105
  934MOL0     H26030   3.486   9.443   5.437  2.9834  1.6111 -0.2749
  934MOL0     H26031   3.583   9.668   5.483  0.3715 -0.3657  1.0027
  934MOL0     H26032   3.429   9.751   5.493 -1.7924 -0.6403 -0.9755
  934MOL0     H26033   3.508   9.716   5.736 -0.4294  0.2888 -0.5299
  934MOL0     H26034   3.362   9.622   5.713 -0.5652  4.0095  0.5017
  934MOL0     H26035   3.516   9.510   5.840 -0.5505  1.4963 -0.1229
  934MOL0     H26036   3.494   9.412   5.696  0.0989 -0.7416  0.2135
  934MOL0     H26037   3.713   9.408   5.757 -0.8858 -0.9310  0.3514
  934MOL0     H26038   3.716   9.491   5.599 -2.2085 -1.3238 -0.6461
  934MOL0     H26039   3.710   9.648   5.849 -0.6861  1.3233  0.0367
  934MOL0     H26040   3.763   9.709   5.699 -1.5790  0.5813  2.0675
  934MOL0     H26041   3.967   9.581   5.558 -0.8505 -0.0934  1.0214
  934MOL0     H26042   4.316   9.518   5.734 -1.0460  2.3932  0.0184
  934MOL0     H26043   4.240   9.495   5.570 -1.6604  1.5044 -1.3811
  934MOL0     H26044   4.292   9.776   5.706  2.7746  0.9647 -0.0970
  934MOL0     H26045   4.206   9.751   5.567 -0.9748 -0.5985  0.3164
  934MOL0     H26046   4.369   9.648   5.439  2.7954 -1.5523 -0.7157
  934MOL0     H26047   4.491   9.640   5.565  1.7239 -0.2459 -0.6312
  934MOL0     H26048   4.445   9.910   5.579 -1.7626 -0.6783 -0.6762
  934MOL0     H26049   4.350   9.885   5.430 -1.3589 -0.1540  0.8084
  934MOL0     H26050   4.820   9.922   5.401  1.1957  1.9702  0.3126
  934MOL0     H26051   4.987  10.027   5.326 -2.5301 -1.1985 -0.4646
  934MOL0     H26052   5.017  10.195   5.288 -2.2090  1.0846 -1.3980
  934MOL0     H26053   4.979  10.140   5.458 -1.9460 -3.7956  1.6045
  934MOL0     H26054   4.872  10.612   5.208 -1.7454 -0.5473  0.6668
  934MOL0     H26055   4.887  10.821   5.070 -2.8417  3.8217  1.7077
  934MOL0     H26056   4.732  11.020   5.006  1.2517  1.9207  0.3398
  934MOL0     H26057   4.851  11.007   4.884 -0.1779 -2.0670 -0.2858
  934MOL0     H26058   4.570  11.111   4.858 -0.0211  1.9839 -1.2389
  934MOL0     H26059   4.707  11.220   4.873  1.1834 -0.2533  0.5180
  934MOL0     H26060   4.656  11.017   4.645 -1.5213  0.3474  0.1110
  934MOL0     H26061   4.784  11.139   4.644 -0.3828  1.2984 -1.1181
  934MOL0     H26062   4.481  11.168   4.635  0.3902  0.0137  5.5212
  934MOL0     H26063   4.597  11.307   4.649 -1.5945 -0.6029  0.9371
  934MOL0     H26064   4.522  11.148   4.411  0.9013  0.6493 -1.0531
  934MOL0     H26065   4.694  11.212   4.418  0.3190  1.1405 -2.3498
  934MOL0     H26066   4.439  11.368   4.477 -2.4958  0.9169 -4.1953
  934MOL0     H26067   4.595  11.435   4.433  1.0518 -1.4025  1.8212
  934MOL0     H26068   4.450  11.462   4.248 -2.7765 -0.9534 -1.5433
  934MOL0     H26069   4.384  11.302   4.260  1.8172 -2.2466 -1.7084
  934MOL0     H26070   4.506  11.322   4.065 -0.5602  2.7723  0.8756
  934MOL0     H26071   4.570  11.185   4.177 -3.1400  0.4859  1.9216
  934MOL0     H26072   4.541  10.700   4.858  1.9049  2.6025 -1.2039
  934MOL0     H26073   4.499  10.522   5.015 -2.0207  3.9311 -3.1791
  934MOL0     H26074   4.506  10.279   5.280 -1.4788 -3.1221 -1.0859
  934MOL0     H26075   4.416  10.084   5.345  0.5887  0.8564 -0.4561
  934MOL0     H26076   3.300   9.761   4.899  1.1776  0.0488  0.2017
  934MOL0     H26077   3.305   9.962   4.805  4.5393  0.2631  1.0030
  934MOL0     H26078   3.556  10.363   4.693  0.9782  0.7759 -0.8830
  934MOL0     H26079   3.624  10.597   4.693  0.0770  0.5669  1.1525
  934MOL0     H26080   3.475  10.840   4.971  0.8201 -1.7754 -0.8267
  934MOL0     H26081   3.564  10.944   4.859 -0.6203 -0.2814 -0.7602
  934MOL0     H26082   3.277  10.958   4.905 -2.2029  3.1035 -1.3761
  934MOL0     H26083   3.356  11.020   4.753 -1.2169  0.6296  0.9753
  934MOL0     H26084   3.476  11.176   4.889  1.7353  0.0449  1.9235
  934MOL0     H26085   3.428  11.112   5.034  2.4896 -1.5935 -1.3932
  934MOL0     H26086   3.302  11.298   4.994 -1.4261 -0.2867  0.5079
  934MOL0     H26087   3.182  11.159   4.969  0.7219 -0.1142  1.1145
  934MOL0     H26088   3.132  11.307   4.597  4.1400  1.5074 -1.0986
  934MOL0     H26089   3.288  10.713   4.926 -0.4533  0.4265 -1.8531
  934MOL0     H26090   3.233  10.447   4.949 -1.4730 -2.9405 -3.1876
  935MOL0     O26091  10.643   0.078   6.304  0.2173 -0.2651 -0.1866
  935MOL0     C26092  10.718  -0.018   6.298  0.9316  1.1452 -0.7227
  935MOL0     O26093  10.824  -0.050   6.375  0.2515  0.4679 -1.3215
  935MOL0     C26094  10.887   0.033   6.463 -0.6458  0.3561 -0.6169
  935MOL0     C26095  10.937  -0.023   6.584  0.5244  0.1959  0.3295
  935MOL0     C26096  10.991   0.064   6.675  0.5910  0.4171 -0.2148
  935MOL0     C26097  10.985   0.206   6.665  0.7904 -0.0807  0.5758
  935MOL0     O26098  11.015   0.295   6.765  0.7731  0.2598 -0.3322
  935MOL0     C26099  11.077   0.253   6.891 -0.4994  0.2524 -0.4603
  935MOL0     C26100  11.164   0.359   6.964  0.8583  0.3728 -0.0277
  935MOL0     C26101  11.105   0.504   6.946 -0.1233 -0.3752 -0.4677
  935MOL0     C26102  10.986   0.524   7.041  0.9817 -0.1234 -0.1143
  935MOL0     C26103  10.943   0.674   7.040  0.0956  0.7037  0.1217
  935MOL0     C26104  10.869   0.726   6.907  0.1384 -0.8626 -0.3502
  935MOL0     C26105  10.745   0.652   6.873 -0.1043 -0.3010  0.4372
  935MOL0     C26106  10.674   0.733   6.767 -0.5567  0.0874 -0.1004
  935MOL0     N26107  10.541   0.681   6.737 -0.1566  0.3959  0.6872
  935MOL0     C26108  10.518   0.572   6.665 -0.4356 -0.2952  0.8422
  935MOL0     C26109  10.383   0.539   6.686 -0.3184 -0.2723  0.3154
  935MOL0     C26110  10.300   0.444   6.608  0.2211  0.2182  0.3162
  935MOL0     C26111  10.203   0.370   6.705 -0.4300  0.2276  0.3070
  935MOL0     C26112  10.065   0.438   6.701  0.7103  1.0013 -0.8912
  935MOL0     C26113   9.962   0.349   6.773  0.3339  0.1867 -0.4940
  935MOL0     O26114  10.003   0.312   6.907  0.0600  0.4993 -0.2500
  935MOL0     C26115   9.976   0.186   6.950 -0.1663  0.3230  0.7655
  935MOL0     C26116  10.080   0.107   7.007  0.6156 -0.3154  0.6807
  935MOL0     C26117  10.064  -0.026   7.060 -0.0449  0.3663 -0.0300
  935MOL0     C26118  10.184  -0.076   7.134  0.5618  0.4597  0.9843
  935MOL0     C26119   9.943  -0.085   7.030 -0.2061 -0.4875 -0.0472
  935MOL0     C26120   9.902  -0.228   7.066 -0.9446 -0.8463 -0.8569
  935MOL0     O26121   9.771  -0.261   7.056  0.1354  0.1607  0.0000
  935MOL0     C26122   9.752  -0.399   7.028  0.5241  0.1846  0.1644
  935MOL0     C26123   9.762  -0.497   7.130  0.5707  0.4450 -0.5354
  935MOL0     C26124   9.747  -0.633   7.103  0.1835 -0.0770 -0.1494
  935MOL0     C26125   9.719  -0.677   6.969 -0.4874  0.6375  0.7522
  935MOL0     O26126   9.711  -0.814   6.940  0.4792 -0.5716 -0.1953
  935MOL0     C26127   9.773  -0.849   6.816  0.2342  0.1316  0.3877
  935MOL0     C26128   9.826  -0.992   6.802 -0.8823 -1.0853 -0.4805
  935MOL0     C26129   9.717  -1.075   6.729 -0.7191  0.2938 -0.3467
  935MOL0     C26130   9.748  -1.087   6.576 -1.3016  0.8251 -0.3374
  935MOL0     C26131   9.647  -1.167   6.495 -0.1641 -0.6984 -0.2065
  935MOL0     C26132   9.695  -1.202   6.352 -0.1446  0.3198  0.6370
  935MOL0     C26133   9.827  -1.286   6.335 -0.6868 -0.3302 -0.8549
  935MOL0     C26134   9.835  -1.340   6.189  0.8482 -0.2572 -0.4409
  935MOL0    Cl26135   9.991  -1.418   6.170 -0.3868  0.0788  0.5530
  935MOL0     C26136   9.694  -0.579   6.876 -0.4768 -0.0700  0.3349
  935MOL0     C26137   9.714  -0.441   6.900 -0.1763 -0.3725  0.0058
  935MOL0     O26138   9.990  -0.308   7.100 -0.3889  0.5629 -0.1791
  935MOL0     C26139   9.833  -0.008   6.973 -0.7202  0.4788  0.0656
  935MOL0     C26140   9.855   0.122   6.930 -0.4576  0.3657  0.2286
  935MOL0     N26141  10.327   0.642   6.762  0.7707 -0.3530 -0.2510
  935MOL0     N26142  10.422   0.723   6.789  0.4284  0.1265  0.3733
  935MOL0     C26143  10.928   0.255   6.549  0.6328 -0.1367 -0.9733
  935MOL0     C26144  10.887   0.173   6.450 -0.6937 -0.3598  0.4687
  935MOL0     C26145  10.672  -0.116   6.192  0.2360  0.4440  0.4881
  935MOL0     C26146  10.748  -0.228   6.152 -0.2860 -0.8603 -0.7049
  935MOL0     C26147  10.703  -0.297   6.035  0.3728  0.2600 -0.7477
  935MOL0     C26148  10.584  -0.278   5.971  0.6116  0.6264  0.8381
  935MOL0     O26149  10.566  -0.349   5.854  0.1389 -0.1356  0.4152
  935MOL0     C26150  10.443  -0.429   5.853  0.0826  0.0839  0.1551
  935MOL0     C26151  10.456  -0.509   5.729 -0.2639 -0.8400 -0.8145
  935MOL0     C26152  10.340  -0.580   5.674  0.0555 -1.0643 -0.9098
  935MOL0     C26153  10.203  -0.504   5.675 -0.0506  0.7591 -0.6891
  935MOL0     C26154  10.212  -0.387   5.585  1.2698  0.0614 -0.0172
  935MOL0     C26155  10.218  -0.295   5.501  0.9943  0.3499  0.2566
  935MOL0     C26156  10.501  -0.176   6.022  0.3819  1.5161 -0.3850
  935MOL0     C26157  10.548  -0.093   6.125 -0.7174  0.1548  0.9946
  935MOL0     H26158  10.931  -0.131   6.597  0.8402 -0.3926 -3.3120
  935MOL0     H26159  11.020   0.016   6.768  1.5372 -0.3707 -0.8890
  935MOL0     H26160  10.994   0.249   6.962  0.1187 -0.3814  0.2496
  935MOL0     H26161  11.120   0.152   6.891 -2.4709 -0.6386 -1.1461
  935MOL0     H26162  11.163   0.346   7.073  0.0572  0.3036 -0.0400
  935MOL0     H26163  11.262   0.362   6.916  0.1704 -1.1632 -1.6318
  935MOL0     H26164  11.177   0.583   6.967 -2.2448  2.0955 -1.8487
  935MOL0     H26165  11.078   0.531   6.843  0.5913  1.6445 -0.1629
  935MOL0     H26166  10.897   0.465   7.018 -0.0227  1.0485  0.5923
  935MOL0     H26167  11.027   0.496   7.139 -0.1098 -0.0698  0.3693
  935MOL0     H26168  10.871   0.698   7.119 -0.6932 -0.4202 -0.2317
  935MOL0     H26169  11.035   0.733   7.049  2.0002 -1.5737 -2.7123
  935MOL0     H26170  10.836   0.831   6.915 -0.5640 -0.8162 -2.7733
  935MOL0     H26171  10.942   0.732   6.825  1.2283  0.3377  0.6568
  935MOL0     H26172  10.757   0.546   6.847 -0.8942 -0.8128  2.0375
  935MOL0     H26173  10.676   0.664   6.957  1.1331  2.0053  1.2160
  935MOL0     H26174  10.729   0.732   6.673 -0.2158  2.0298  0.0325
  935MOL0     H26175  10.657   0.836   6.801  0.2869 -0.8087  3.5478
  935MOL0     H26176  10.592   0.512   6.614 -1.4857 -1.0957  0.2031
  935MOL0     H26177  10.231   0.496   6.541 -1.0529  1.2745  2.3425
  935MOL0     H26178  10.370   0.378   6.557  1.2651  0.2102  1.7045
  935MOL0     H26179  10.253   0.376   6.802 -0.7519  0.6995  0.4473
  935MOL0     H26180  10.206   0.266   6.673 -1.0278  0.4416 -0.4653
  935MOL0     H26181  10.025   0.447   6.599  0.2613  0.1598 -0.8104
  935MOL0     H26182  10.067   0.535   6.750 -0.3130 -0.2916  1.9125
  935MOL0     H26183   9.937   0.257   6.721 -1.0868 -0.5025  1.2869
  935MOL0     H26184   9.870   0.408   6.763 -0.9800 -1.8286 -0.8888
  935MOL0     H26185  10.180   0.148   7.012  1.4249 -2.1453  0.2726
  935MOL0     H26186  10.157  -0.092   7.239 -0.7343 -1.6039  0.4064
  935MOL0     H26187  10.205  -0.174   7.090 -3.0596 -0.3287  0.6943
  935MOL0     H26188  10.271  -0.012   7.121  0.5304  0.0828 -1.6907
  935MOL0     H26189   9.781  -0.471   7.234 -0.6169 -1.6014  0.2670
  935MOL0     H26190   9.747  -0.718   7.170 -1.1789 -2.5395 -3.0142
  935MOL0     H26191   9.704  -0.820   6.736  1.5068  0.6996 -0.5466
  935MOL0     H26192   9.853  -0.777   6.795 -0.9517  1.2414 -0.4586
  935MOL0     H26193   9.911  -0.975   6.736 -2.1051  1.4741 -1.5283
  935MOL0     H26194   9.859  -1.032   6.898  1.0233  2.6996  0.6349
  935MOL0     H26195   9.616  -1.037   6.746 -1.2134  0.5077 -3.2210
  935MOL0     H26196   9.717  -1.174   6.776  2.1383  0.6942  0.6603
  935MOL0     H26197   9.752  -0.993   6.520  0.3912 -0.5746 -2.7628
  935MOL0     H26198   9.849  -1.128   6.573  0.0709  3.8526  0.4467
  935MOL0     H26199   9.559  -1.103   6.499  2.2679  2.9294 -0.4582
  935MOL0     H26200   9.621  -1.246   6.567  0.7151  0.0932  1.0180
  935MOL0     H26201   9.615  -1.260   6.305  1.6027  0.5491 -2.9087
  935MOL0     H26202   9.700  -1.112   6.290 -0.2400 -0.5018 -0.5937
  935MOL0     H26203   9.816  -1.373   6.400 -1.0823 -0.7458 -1.4649
  935MOL0     H26204   9.914  -1.222   6.351 -0.9504  0.7238 -3.2078
  935MOL0     H26205   9.807  -1.263   6.116 -3.0168 -2.0753 -1.1078
  935MOL0     H26206   9.751  -1.402   6.159  0.7333 -0.5634  0.4612
  935MOL0     H26207   9.662  -0.606   6.776  1.9306  0.0860 -0.5389
  935MOL0     H26208   9.690  -0.370   6.822 -2.4126 -1.1490 -0.0917
  935MOL0     H26209   9.737  -0.055   6.957  0.2860 -1.1019 -1.8722
  935MOL0     H26210   9.775   0.182   6.889  0.5420  3.4291  2.4176
  935MOL0     H26211  10.905   0.360   6.544  0.9006  0.0169  0.5726
  935MOL0     H26212  10.844   0.226   6.365 -0.7551  3.5412  2.6532
  935MOL0     H26213  10.850  -0.236   6.190  0.1838  3.3315 -0.5559
  935MOL0     H26214  10.767  -0.369   5.984 -0.8191 -1.0394 -0.4792
  935MOL0     H26215  10.435  -0.499   5.936  4.6034  2.3373  2.8721
  935MOL0     H26216  10.364  -0.355   5.837  0.0284 -0.3603 -2.0571
  935MOL0     H26217  10.535  -0.585   5.735  1.8853  1.2004 -1.8153
  935MOL0     H26218  10.497  -0.448   5.648 -0.0014  1.0558  0.6843
  935MOL0     H26219  10.331  -0.659   5.749  1.5809  0.5065  1.0491
  935MOL0     H26220  10.373  -0.616   5.577  0.4039  0.9790 -1.5907
  935MOL0     H26221  10.192  -0.468   5.777  0.3179  1.9226 -1.0560
  935MOL0     H26222  10.115  -0.570   5.667  0.3726 -0.0562  0.8844
  935MOL0     H26223  10.211  -0.230   5.416  0.5038  0.8268  0.6553
  935MOL0     H26224  10.406  -0.154   5.973 -0.5410  1.0500  1.1111
  935MOL0     H26225  10.481  -0.013   6.153 -1.1089 -0.3950  1.6697
  936MOL0     O26226  11.006   8.123   8.673 -0.0868  0.4056  0.5662
  936MOL0     C26227  10.928   8.137   8.769 -0.2794 -0.2961  0.8874
  936MOL0     O26228  10.861   8.031   8.830 -0.6664 -1.0410 -0.5527
  936MOL0     C26229  10.881   7.909   8.763 -0.3539  0.0567  0.3124
  936MOL0     C26230  10.996   7.826   8.784  0.3561  1.0322 -0.2528
  936MOL0     C26231  11.000   7.699   8.722  0.6658  0.5519 -0.0918
  936MOL0     C26232  10.879   7.644   8.670 -0.2095  0.3869 -0.3715
  936MOL0     O26233  10.884   7.517   8.622 -0.3378  0.9129 -0.5466
  936MOL0     C26234  10.774   7.434   8.684 -0.4560  0.0441  0.4118
  936MOL0     C26235  10.782   7.299   8.620 -0.2396 -0.0332  0.2446
  936MOL0     C26236  10.666   7.213   8.663 -0.2579 -0.2809  0.5368
  936MOL0     C26237  10.670   7.157   8.802  1.3618  0.6783 -0.4688
  936MOL0     C26238  10.556   7.062   8.830 -1.3655  0.7712 -1.1170
  936MOL0     C26239  10.431   7.130   8.850  0.5690  0.6751  0.0694
  936MOL0     C26240  10.315   7.036   8.874  0.8832  0.0646 -0.1694
  936MOL0     C26241  10.323   6.986   9.017  0.4650 -0.0153 -0.4203
  936MOL0     N26242  10.246   6.861   9.031  0.4485 -0.5921  0.3888
  936MOL0     C26243  10.278   6.737   9.000 -0.4248  1.3848  0.7519
  936MOL0     C26244  10.173   6.657   9.038  0.4254  0.4319  0.6885
  936MOL0     C26245  10.164   6.506   9.050 -0.5051 -0.1137  0.7609
  936MOL0     C26246  10.135   6.445   8.917  0.0543  0.0778 -0.2565
  936MOL0     C26247  10.120   6.292   8.918  0.1566 -0.1460 -1.0351
  936MOL0     C26248  10.251   6.225   8.959  0.4592  0.2076  0.1224
  936MOL0     O26249  10.354   6.252   8.867  0.0607 -0.3370  0.8717
  936MOL0     C26250  10.461   6.161   8.865 -0.0469 -0.2074  0.1695
  936MOL0     C26251  10.483   6.090   8.747  0.5387 -0.6758  1.5497
  936MOL0     C26252  10.585   5.999   8.728 -0.6847  0.4046 -0.0355
  936MOL0     C26253  10.588   5.924   8.596  0.4621 -0.5590  0.2812
  936MOL0     C26254  10.666   5.965   8.835  0.3259  0.7256 -0.6915
  936MOL0     C26255  10.783   5.865   8.825  0.3459 -0.1826  0.8312
  936MOL0     O26256  10.859   5.851   8.717  0.4620 -0.3832  0.1649
  936MOL0     C26257  10.989   5.824   8.741 -0.2410 -0.9311 -0.3111
  936MOL0     C26258  11.026   5.702   8.794 -0.1628  0.2806  0.8070
  936MOL0     C26259  11.159   5.674   8.811  0.2373  0.0336 -0.5798
  936MOL0     C26260  11.248   5.770   8.786 -0.0118 -0.2240  1.0228
  936MOL0     O26261  11.374   5.735   8.808  0.0949  0.1052 -0.2991
  936MOL0     C26262  11.493   5.818   8.777  0.0027 -0.1090 -0.1868
  936MOL0     C26263  11.615   5.758   8.848 -1.1677  0.0614 -0.7833
  936MOL0     C26264  11.743   5.835   8.819  0.0637  1.0463 -0.4750
  936MOL0     C26265  11.760   5.963   8.909 -0.2202  0.1657  0.1011
  936MOL0     C26266  11.873   6.052   8.856  0.2318  0.4326  0.7237
  936MOL0     C26267  12.019   6.005   8.873 -0.2242 -0.6098 -0.9141
  936MOL0     C26268  12.127   6.115   8.851 -0.2144  0.3968 -0.4891
  936MOL0     C26269  12.175   6.176   8.988  0.0491  0.5750 -0.2172
  936MOL0    Cl26270  12.046   6.286   9.049  0.7154 -0.3688  0.1354
  936MOL0     C26271  11.216   5.904   8.737 -0.3342  0.8332 -0.1177
  936MOL0     C26272  11.079   5.927   8.711 -0.0257  0.8807 -1.2452
  936MOL0     O26273  10.787   5.796   8.922  0.6723 -0.3835 -0.2635
  936MOL0     C26274  10.637   6.024   8.963  0.3027  0.6780  0.2019
  936MOL0     C26275  10.538   6.122   8.973  0.1858  0.6157 -0.8250
  936MOL0     N26276  10.074   6.746   9.061  1.1149 -0.3023 -0.2036
  936MOL0     N26277  10.109   6.867   9.041 -0.0437 -0.0009  0.2992
  936MOL0     C26278  10.769   7.720   8.658  1.3804 -0.5039  0.5540
  936MOL0     C26279  10.767   7.852   8.702  0.6222  0.4299 -0.3120
  936MOL0     C26280  10.917   8.268   8.827 -0.2398  0.0201 -0.5305
  936MOL0     C26281  10.813   8.299   8.913 -0.0207 -0.0573 -0.7684
  936MOL0     C26282  10.801   8.425   8.966  0.4811 -0.0676  0.1226
  936MOL0     C26283  10.900   8.529   8.937 -0.4210 -0.2030 -0.3000
  936MOL0     O26284  10.883   8.658   8.989  0.1830  0.1326 -1.2863
  936MOL0     C26285  10.980   8.759   8.958  1.0819  0.0203 -0.7807
  936MOL0     C26286  10.950   8.857   9.075 -0.3077 -0.6686 -1.0576
  936MOL0     C26287  11.057   8.970   9.067  0.2538 -0.1578 -0.2461
  936MOL0     C26288  11.087   9.048   8.936  0.4157 -0.1070 -0.1608
  936MOL0     C26289  10.977   9.144   8.909  0.0633  0.1262 -0.4486
  936MOL0     C26290  10.884   9.218   8.892 -0.1966 -0.4128  0.3134
  936MOL0     C26291  11.007   8.495   8.854  0.0992  0.1879  0.2989
  936MOL0     C26292  11.012   8.363   8.795  0.9026  0.1068 -0.3889
  936MOL0     H26293  11.076   7.849   8.853 -0.3522 -1.6296  1.6359
  936MOL0     H26294  11.092   7.643   8.728  1.1757  1.5135  2.8060
  936MOL0     H26295  10.785   7.433   8.793 -2.3159  0.9706  0.6360
  936MOL0     H26296  10.676   7.478   8.665 -0.4395 -0.3465 -0.6290
  936MOL0     H26297  10.771   7.308   8.512  4.0647 -0.6212 -0.4266
  936MOL0     H26298  10.878   7.249   8.638 -0.4469 -2.4436 -3.9613
  936MOL0     H26299  10.567   7.253   8.637 -1.1237 -2.0463  0.9566
  936MOL0     H26300  10.677   7.133   8.589  0.7300  0.0068  0.3657
  936MOL0     H26301  10.761   7.097   8.814  0.1619 -1.4017 -1.3392
  936MOL0     H26302  10.663   7.236   8.878  1.2456 -1.9589  2.4610
  936MOL0     H26303  10.537   6.983   8.757 -1.4296 -1.6300  1.3234
  936MOL0     H26304  10.587   7.003   8.917 -1.7111 -1.1371 -2.2399
  936MOL0     H26305  10.437   7.210   8.923 -2.2171  1.1542 -0.1175
  936MOL0     H26306  10.399   7.195   8.768  0.2043 -0.0830 -0.3980
  936MOL0     H26307  10.221   7.086   8.851  0.7755 -0.4981 -0.9873
  936MOL0     H26308  10.316   6.946   8.811 -1.0016 -0.1317  0.0021
  936MOL0     H26309  10.270   7.065   9.072  0.9325  0.8278 -1.1430
  936MOL0     H26310  10.425   6.986   9.056  0.0132  3.7056  1.1703
  936MOL0     H26311  10.368   6.702   8.952 -2.4245  0.1093 -2.3485
  936MOL0     H26312  10.263   6.477   9.088  0.2870  1.8696  0.3556
  936MOL0     H26313  10.085   6.487   9.122  0.1405 -0.3169  1.4309
  936MOL0     H26314  10.223   6.466   8.856  2.5172 -1.9360  2.3608
  936MOL0     H26315  10.046   6.493   8.875 -0.7979 -1.4987 -0.3618
  936MOL0     H26316  10.076   6.269   8.821 -1.6029  0.4525 -0.4173
  936MOL0     H26317  10.029   6.266   8.974 -1.2954 -0.9556 -3.5845
  936MOL0     H26318  10.229   6.119   8.968  1.3450 -0.1598 -1.6278
  936MOL0     H26319  10.274   6.273   9.055  0.1123  2.1651 -0.7203
  936MOL0     H26320  10.411   6.106   8.667  3.2126 -0.1567 -0.9456
  936MOL0     H26321  10.494   5.928   8.541 -0.8047  1.2123  2.4317
  936MOL0     H26322  10.662   5.971   8.529 -1.2467  0.0927 -1.2288
  936MOL0     H26323  10.620   5.822   8.617  0.3279 -0.0679  3.3415
  936MOL0     H26324  10.957   5.622   8.816  0.1313 -0.0188  0.6462
  936MOL0     H26325  11.194   5.577   8.845 -2.8237 -1.5896 -1.6982
  936MOL0     H26326  11.506   5.829   8.669  1.9519 -0.8266 -0.0673
  936MOL0     H26327  11.479   5.925   8.795  2.2895  0.0944  0.7217
  936MOL0     H26328  11.594   5.740   8.954 -3.7814 -1.0475 -1.4248
  936MOL0     H26329  11.615   5.658   8.803 -0.8928  0.0759 -0.8159
  936MOL0     H26330  11.755   5.862   8.714  1.5312 -2.5834 -1.3989
  936MOL0     H26331  11.829   5.770   8.841  1.0655  2.5008  0.0549
  936MOL0     H26332  11.671   6.026   8.916  1.7709  3.3526 -1.1881
  936MOL0     H26333  11.775   5.929   9.012 -1.5864  0.2272  0.3361
  936MOL0     H26334  11.871   6.148   8.907 -0.2000 -0.3895  2.3044
  936MOL0     H26335  11.870   6.082   8.751  2.8354  0.7363  0.6699
  936MOL0     H26336  12.040   5.971   8.975  3.5946 -0.1955 -1.4364
  936MOL0     H26337  12.015   5.918   8.807  1.3581 -3.0978  1.9978
  936MOL0     H26338  12.097   6.192   8.780  0.1442  2.7225  1.7508
  936MOL0     H26339  12.206   6.056   8.803  1.1879  3.2986 -1.9599
  936MOL0     H26340  12.273   6.224   8.985  0.4946 -0.3691 -0.9617
  936MOL0     H26341  12.187   6.093   9.058  1.0153  0.2359 -0.7713
  936MOL0     H26342  11.294   5.978   8.727  2.0081 -1.1962  1.6578
  936MOL0     H26343  11.052   6.021   8.664 -1.0565  2.1451  1.6569
  936MOL0     H26344  10.686   6.007   9.058 -0.1752  2.2892  0.7565
  936MOL0     H26345  10.504   6.183   9.056  0.4615  0.5972 -0.6963
  936MOL0     H26346  10.686   7.677   8.603  2.4589  0.1531 -1.6810
  936MOL0     H26347  10.672   7.903   8.692  0.0103 -0.1967  1.6797
  936MOL0     H26348  10.738   8.228   8.946 -0.6641  1.1458  0.4000
  936MOL0     H26349  10.722   8.442   9.038  0.7529  3.2269 -0.1651
  936MOL0     H26350  11.085   8.730   8.966  0.6676 -1.6668 -1.1292
  936MOL0     H26351  10.965   8.784   8.853  1.4718  1.4152 -0.5233
  936MOL0     H26352  10.954   8.816   9.176 -0.2004  1.7845  0.0087
  936MOL0     H26353  10.855   8.904   9.046 -0.1779 -2.0671 -4.1847
  936MOL0     H26354  11.152   8.922   9.091 -0.6606 -1.5378  0.7578
  936MOL0     H26355  11.056   9.038   9.153  0.9726 -1.0406  0.4824
  936MOL0     H26356  11.101   8.971   8.860  1.3343 -1.2791  1.1328
  936MOL0     H26357  11.181   9.104   8.949  0.7016 -0.9579  2.0106
  936MOL0     H26358  10.793   9.271   8.871 -0.3571 -2.0979 -4.3823
  936MOL0     H26359  11.079   8.571   8.825 -2.6767  1.6924 -3.3881
  936MOL0     H26360  11.092   8.331   8.729  1.1043  2.6152 -1.4734
  937MOL0     O26361   1.533   9.423   4.636  0.5328 -0.7363 -0.0492
  937MOL0     C26362   1.581   9.424   4.752 -1.2285 -0.2203  0.1106
  937MOL0     O26363   1.647   9.317   4.817 -0.0592  0.2751 -0.2534
  937MOL0     C26364   1.698   9.212   4.747  0.2758 -0.2045  0.0322
  937MOL0     C26365   1.828   9.164   4.763  0.4563  0.4097 -0.3972
  937MOL0     C26366   1.866   9.056   4.695 -0.3014  0.6136 -0.2546
  937MOL0     C26367   1.773   8.975   4.615  0.3975  0.4106 -0.6880
  937MOL0     O26368   1.804   8.867   4.543 -0.3248  0.0382  0.4238
  937MOL0     C26369   1.945   8.838   4.509 -0.5049  1.0277  0.8515
  937MOL0     C26370   1.998   8.724   4.592  0.1658  0.2689  0.1255
  937MOL0     C26371   2.090   8.762   4.705 -0.2514  0.4511  0.1993
  937MOL0     C26372   2.111   8.644   4.813 -0.0982 -0.1221  0.7058
  937MOL0     C26373   2.143   8.692   4.965  0.1600 -0.2638  1.0804
  937MOL0     C26374   2.178   8.568   5.051 -0.1245 -0.3953 -0.2514
  937MOL0     C26375   2.236   8.618   5.185 -0.0645  0.2259 -0.6569
  937MOL0     C26376   2.219   8.490   5.276  0.1029 -0.9299 -0.8753
  937MOL0     N26377   2.286   8.498   5.415  0.0352 -0.4394  0.1849
  937MOL0     C26378   2.239   8.458   5.544  0.0752  0.4136  0.4382
  937MOL0     C26379   2.337   8.490   5.638 -0.0690 -0.3813  0.7100
  937MOL0     C26380   2.332   8.483   5.784  0.1209 -0.3113  0.4603
  937MOL0     C26381   2.456   8.426   5.857  0.3543 -0.8378  1.0718
  937MOL0     C26382   2.430   8.447   6.003 -0.4154  0.9748 -0.0098
  937MOL0     C26383   2.496   8.569   6.064 -0.8347 -0.8748 -0.3716
  937MOL0     O26384   2.523   8.549   6.201  0.4908 -0.4672  0.0237
  937MOL0     C26385   2.514   8.657   6.285 -0.3308 -0.1723  0.4270
  937MOL0     C26386   2.499   8.611   6.423  0.4225 -0.1073 -0.4040
  937MOL0     C26387   2.523   8.697   6.528  1.2057 -0.6082  0.0372
  937MOL0     C26388   2.522   8.646   6.669 -0.4812  0.5612 -0.9028
  937MOL0     C26389   2.558   8.830   6.487  0.2421  0.8056  0.6776
  937MOL0     C26390   2.598   8.940   6.586  0.4033  1.3393  0.2899
  937MOL0     O26391   2.630   8.900   6.711 -0.2833 -0.2673 -0.5933
  937MOL0     C26392   2.688   8.993   6.789 -0.7266 -0.5871  0.2109
  937MOL0     C26393   2.617   9.037   6.904 -0.1090  0.5031  0.8575
  937MOL0     C26394   2.670   9.141   6.988  0.4142 -0.7653 -0.2210
  937MOL0     C26395   2.789   9.209   6.961 -0.9601  0.1965 -0.1660
  937MOL0     O26396   2.838   9.314   7.029 -0.7041  0.1954  0.2596
  937MOL0     C26397   2.835   9.314   7.171 -0.1824  0.1017 -0.5246
  937MOL0     C26398   2.949   9.247   7.252 -0.2233 -0.0999 -0.4867
  937MOL0     C26399   3.071   9.325   7.200  0.4927 -0.0023  0.1924
  937MOL0     C26400   3.202   9.261   7.259  0.2182  0.2488 -0.0951
  937MOL0     C26401   3.325   9.306   7.169  0.7389 -0.7512 -0.9509
  937MOL0     C26402   3.362   9.187   7.067  0.0608  0.0181 -0.4661
  937MOL0     C26403   3.451   9.083   7.135  0.4503 -0.2944 -0.3424
  937MOL0     C26404   3.448   8.954   7.060  0.5191  0.4331 -0.3598
  937MOL0    Cl26405   3.518   8.809   7.147 -0.4510  0.2550 -0.0260
  937MOL0     C26406   2.863   9.158   6.849 -0.5807 -0.6197  0.8549
  937MOL0     C26407   2.815   9.054   6.766  0.0020 -1.0365  0.1655
  937MOL0     O26408   2.614   9.055   6.543  0.0809  0.1267  0.1608
  937MOL0     C26409   2.564   8.870   6.351  0.7969  0.5611  0.4271
  937MOL0     C26410   2.539   8.782   6.252  0.3109  0.4719 -0.3432
  937MOL0     N26411   2.437   8.544   5.570 -0.0081  0.3192  0.5489
  937MOL0     N26412   2.407   8.549   5.444 -0.6986 -0.4167 -0.1998
  937MOL0     C26413   1.645   9.006   4.614 -0.0465 -0.3241  0.2135
  937MOL0     C26414   1.607   9.126   4.671  0.5449  0.1343 -0.3249
  937MOL0     C26415   1.522   9.521   4.841 -0.3706  0.0222 -0.5353
  937MOL0     C26416   1.398   9.581   4.829  0.1532 -0.3844  0.1556
  937MOL0     C26417   1.363   9.691   4.906  0.0432  0.6479  0.2302
  937MOL0     C26418   1.456   9.751   4.991  0.1969 -0.1144  0.0499
  937MOL0     O26419   1.431   9.872   5.066  0.3528 -0.0005  0.1299
  937MOL0     C26420   1.314   9.941   5.036  0.2008 -0.4433  0.4553
  937MOL0     C26421   1.329  10.085   5.100 -0.3334  0.4640  0.5790
  937MOL0     C26422   1.199  10.164   5.092 -0.6422  0.2729  0.6447
  937MOL0     C26423   1.197  10.283   5.180  0.2476  0.1995 -0.0498
  937MOL0     C26424   1.085  10.367   5.148  0.1550  0.6265 -0.1906
  937MOL0     C26425   0.981  10.419   5.113  0.4202 -0.6075  0.0525
  937MOL0     C26426   1.574   9.683   5.009  0.4025 -0.5598 -0.8600
  937MOL0     C26427   1.607   9.568   4.940  0.3162 -0.9095 -0.3573
  937MOL0     H26428   1.901   9.208   4.830 -1.2861  0.0060  1.9014
  937MOL0     H26429   1.967   9.017   4.701 -0.9405 -1.6194 -2.4652
  937MOL0     H26430   1.961   8.795   4.410  3.7146  1.5234  1.1139
  937MOL0     H26431   2.018   8.920   4.516 -0.5564  1.0246  1.4611
  937MOL0     H26432   1.923   8.663   4.644 -1.2787  1.1325 -0.8645
  937MOL0     H26433   2.065   8.664   4.530 -1.6756 -0.5200 -1.1895
  937MOL0     H26434   2.183   8.785   4.651  0.5930 -0.4345  1.2196
  937MOL0     H26435   2.057   8.851   4.759 -2.9561  0.4440 -1.3049
  937MOL0     H26436   2.021   8.583   4.808  1.2309 -2.2910  1.6862
  937MOL0     H26437   2.195   8.591   4.766  1.7191  2.9324  0.1772
  937MOL0     H26438   2.227   8.763   4.963 -0.0569 -0.0008  1.2016
  937MOL0     H26439   2.061   8.750   5.009 -0.8803 -0.3574 -0.6641
  937MOL0     H26440   2.088   8.507   5.062  0.3242 -1.2539 -1.2389
  937MOL0     H26441   2.252   8.511   4.995 -0.3215 -0.3168 -0.5946
  937MOL0     H26442   2.341   8.643   5.169 -0.1791  1.4429  0.2897
  937MOL0     H26443   2.180   8.690   5.245  0.1544 -2.2634  2.8799
  937MOL0     H26444   2.242   8.392   5.231 -0.6755  0.2960 -4.2626
  937MOL0     H26445   2.112   8.493   5.300  0.1873  1.2766 -0.5886
  937MOL0     H26446   2.136   8.425   5.556  0.2946 -0.1586  0.7913
  937MOL0     H26447   2.331   8.586   5.822  1.7430  1.0914 -2.8410
  937MOL0     H26448   2.250   8.423   5.823 -0.1850 -0.4662 -0.4112
  937MOL0     H26449   2.538   8.482   5.810 -1.4230  0.4292 -0.7346
  937MOL0     H26450   2.466   8.318   5.846 -2.6411 -1.3393  2.2893
  937MOL0     H26451   2.469   8.355   6.047  0.4149 -0.5610 -3.6188
  937MOL0     H26452   2.323   8.446   6.028 -0.2321 -0.7248  0.8870
  937MOL0     H26453   2.438   8.657   6.036  0.0283 -0.3233 -0.4754
  937MOL0     H26454   2.589   8.579   6.007 -1.0324  3.5793 -0.1963
  937MOL0     H26455   2.485   8.507   6.453 -0.3885 -0.7037 -2.6257
  937MOL0     H26456   2.507   8.537   6.670  1.6184  0.1668  2.3564
  937MOL0     H26457   2.622   8.657   6.711 -1.0978 -0.9537  1.1186
  937MOL0     H26458   2.446   8.693   6.732  0.7870  0.9745  0.3535
  937MOL0     H26459   2.531   8.980   6.936 -0.0755  0.4092  0.7778
  937MOL0     H26460   2.617   9.192   7.068 -1.4617 -0.0430 -1.8731
  937MOL0     H26461   2.823   9.415   7.210  1.1540  0.9144 -2.0963
  937MOL0     H26462   2.739   9.276   7.209  1.2628 -1.9319  1.3407
  937MOL0     H26463   2.936   9.264   7.360 -0.9076  1.6560 -0.8168
  937MOL0     H26464   2.951   9.140   7.231 -0.7528 -0.4113  0.8976
  937MOL0     H26465   3.057   9.430   7.223  2.0021  0.6147 -1.4416
  937MOL0     H26466   3.076   9.306   7.092  0.8881 -1.3299  0.4146
  937MOL0     H26467   3.211   9.292   7.364 -1.1006  0.8405 -0.1470
  937MOL0     H26468   3.190   9.154   7.243 -0.3270  0.4376 -1.0106
  937MOL0     H26469   3.407   9.349   7.226 -1.2210 -1.4110  2.6449
  937MOL0     H26470   3.280   9.383   7.105 -1.3171 -1.5030 -0.5157
  937MOL0     H26471   3.267   9.155   7.024  0.5488  0.8939 -2.2688
  937MOL0     H26472   3.430   9.223   6.990  1.6267 -1.2958  0.2511
  937MOL0     H26473   3.416   9.045   7.232 -1.8473  0.2614 -0.9120
  937MOL0     H26474   3.550   9.131   7.129  0.3115  0.0045 -0.2638
  937MOL0     H26475   3.504   8.977   6.969  2.0087  2.2387  0.9286
  937MOL0     H26476   3.342   8.929   7.047  0.4649 -0.7852  2.0726
  937MOL0     H26477   2.954   9.214   6.831 -1.1850  0.3787  0.8309
  937MOL0     H26478   2.886   9.007   6.700  0.6108  1.7533 -1.2996
  937MOL0     H26479   2.583   8.969   6.310  1.1105  0.1986 -0.3131
  937MOL0     H26480   2.551   8.807   6.147 -2.0790  1.3633 -0.4820
  937MOL0     H26481   1.579   8.936   4.564 -2.4279  0.2412  2.3217
  937MOL0     H26482   1.501   9.147   4.678  0.7079  0.7767  0.3898
  937MOL0     H26483   1.320   9.550   4.761  0.7964 -2.0279  0.1287
  937MOL0     H26484   1.260   9.725   4.906 -1.3945 -3.1566  2.5024
  937MOL0     H26485   1.296   9.943   4.928 -2.0347 -0.8339  0.7766
  937MOL0     H26486   1.222   9.897   5.077 -0.4470  1.6057  1.3243
  937MOL0     H26487   1.400  10.137   5.035 -1.1293  0.0269 -0.6684
  937MOL0     H26488   1.375  10.084   5.200  0.0553 -0.6838  0.3958
  937MOL0     H26489   1.111  10.101   5.100  0.3709 -1.2991 -0.1930
  937MOL0     H26490   1.204  10.202   4.990 -2.7828 -1.4641 -0.1725
  937MOL0     H26491   1.287  10.345   5.170 -0.3444  1.1955  0.5819
  937MOL0     H26492   1.174  10.249   5.282 -1.6351  1.5975  0.0635
  937MOL0     H26493   0.888  10.466   5.088 -0.2186 -1.2878  1.1107
  937MOL0     H26494   1.636   9.724   5.088  0.9701 -0.1000 -1.5365
  937MOL0     H26495   1.700   9.522   4.973  0.6653  0.4693  0.6524
  938MOL0     O26496  10.459   3.778   3.392  0.0403  0.1042 -0.0508
  938MOL0     C26497  10.563   3.812   3.441 -0.3341  1.0694 -0.0758
  938MOL0     O26498  10.665   3.850   3.367 -0.3503  1.3004 -0.0672
  938MOL0     C26499  10.658   3.872   3.229 -0.2155  1.1146 -0.1999
  938MOL0     C26500  10.678   4.005   3.183  0.1474 -0.2411  0.0764
  938MOL0     C26501  10.668   4.031   3.053  0.2038  0.3592 -0.0046
  938MOL0     C26502  10.639   3.929   2.954  0.3030 -0.6798 -0.2035
  938MOL0     O26503  10.627   3.961   2.825  0.6664 -0.4391  0.1409
  938MOL0     C26504  10.646   4.103   2.782 -0.3011 -0.2169 -1.3090
  938MOL0     C26505  10.643   4.103   2.627  0.0582 -0.1057  0.5487
  938MOL0     C26506  10.645   4.242   2.559 -0.7541  0.8072  0.4526
  938MOL0     C26507  10.525   4.328   2.572  0.4211  0.8767 -0.1119
  938MOL0     C26508  10.529   4.469   2.507  0.1355  0.5217  0.1288
  938MOL0     C26509  10.590   4.558   2.613  1.0733  0.5874  0.9507
  938MOL0     C26510  10.598   4.710   2.566 -0.4726  0.3556 -0.4649
  938MOL0     C26511  10.658   4.799   2.677 -0.7394 -0.8442 -0.1809
  938MOL0     N26512  10.685   4.938   2.624 -0.4221  1.0920  1.0179
  938MOL0     C26513  10.802   5.004   2.585 -1.1052  0.1377  0.4440
  938MOL0     C26514  10.763   5.099   2.498  0.7215  0.1239 -0.1549
  938MOL0     C26515  10.848   5.194   2.426 -0.8711  0.9151  0.4052
  938MOL0     C26516  10.907   5.126   2.310  0.1810  0.7956  0.1772
  938MOL0     C26517  10.970   5.217   2.205  0.1315 -0.0073 -0.2270
  938MOL0     C26518  11.084   5.312   2.250  0.4698  0.0348  0.6923
  938MOL0     O26519  11.081   5.421   2.149 -0.0611  0.5268 -0.4897
  938MOL0     C26520  11.173   5.526   2.152 -0.0113  0.0372 -0.7941
  938MOL0     C26521  11.253   5.569   2.260  0.4899  0.0611 -0.8206
  938MOL0     C26522  11.322   5.683   2.262 -0.7516 -0.6780  0.7727
  938MOL0     C26523  11.399   5.729   2.390  0.2277  1.1558 -0.6109
  938MOL0     C26524  11.326   5.769   2.147  0.1460  0.5692 -0.7709
  938MOL0     C26525  11.380   5.910   2.147 -1.4161 -0.2385  0.3152
  938MOL0     O26526  11.392   5.970   2.031 -0.8266 -0.3817  0.0742
  938MOL0     C26527  11.481   6.073   2.025  0.2565 -0.2146 -0.5524
  938MOL0     C26528  11.617   6.049   2.012  0.1983 -0.0734 -0.1014
  938MOL0     C26529  11.711   6.150   1.996 -0.3797 -0.2993 -0.3897
  938MOL0     C26530  11.665   6.283   2.013  0.0627  0.0677  0.2310
  938MOL0     O26531  11.762   6.370   2.029 -0.0658  0.1460  0.1086
  938MOL0     C26532  11.736   6.510   2.042  0.1682 -1.0314  0.6041
  938MOL0     C26533  11.712   6.582   1.912 -0.0756 -0.5618  0.5552
  938MOL0     C26534  11.748   6.732   1.909 -0.3530 -0.0036  0.0736
  938MOL0     C26535  11.682   6.799   1.786  0.3871 -0.1071  0.6430
  938MOL0     C26536  11.720   6.944   1.765  0.6755 -0.4783 -0.1952
  938MOL0     C26537  11.677   7.000   1.634  0.3526 -0.3309 -0.4433
  938MOL0     C26538  11.733   7.148   1.611  0.3849  0.6448 -0.0430
  938MOL0     C26539  11.637   7.250   1.560  0.2561 -0.0232 -0.8853
  938MOL0    Cl26540  11.562   7.165   1.432  0.0660  0.0037  0.1734
  938MOL0     C26541  11.523   6.310   2.032  0.1198 -0.8588  0.6226
  938MOL0     C26542  11.441   6.204   2.034 -0.0435 -0.7471 -0.4537
  938MOL0     O26543  11.393   5.980   2.252 -0.1564  0.0374  0.5596
  938MOL0     C26544  11.247   5.727   2.040  0.3551  0.3462  0.3563
  938MOL0     C26545  11.186   5.599   2.034 -0.5379 -0.5052  0.3100
  938MOL0     N26546  10.628   5.077   2.470 -0.7429 -0.5886  0.9402
  938MOL0     N26547  10.581   4.994   2.563 -0.0273  0.1126 -0.3939
  938MOL0     C26548  10.626   3.800   2.998  0.5323 -0.8648  0.0358
  938MOL0     C26549  10.638   3.767   3.130  0.3726 -0.1381 -0.0855
  938MOL0     C26550  10.586   3.822   3.586  0.3327 -0.2870 -0.2536
  938MOL0     C26551  10.704   3.862   3.656 -0.5644 -0.6238  0.1987
  938MOL0     C26552  10.716   3.869   3.797 -0.4671  0.1136 -0.4484
  938MOL0     C26553  10.613   3.808   3.874 -0.5693 -0.1535  0.2597
  938MOL0     O26554  10.629   3.837   4.011 -0.1015 -0.2747  0.9236
  938MOL0     C26555  10.551   3.778   4.110 -0.1553  0.2419 -0.3923
  938MOL0     C26556  10.601   3.811   4.252  0.2474  0.6122 -0.5523
  938MOL0     C26557  10.753   3.806   4.265  0.3786 -0.8518  0.9615
  938MOL0     C26558  10.803   3.825   4.400  0.6451 -0.7158 -0.6662
  938MOL0     C26559  10.949   3.850   4.395 -0.8918 -0.2555  1.2306
  938MOL0     C26560  11.065   3.868   4.383 -0.3975  1.0860 -0.2091
  938MOL0     C26561  10.507   3.755   3.811  0.4438  0.4744 -0.1221
  938MOL0     C26562  10.496   3.756   3.668 -0.0939  0.3612  0.0129
  938MOL0     H26563  10.712   4.081   3.253  0.6717 -2.5218  2.4635
  938MOL0     H26564  10.668   4.138   3.034  1.7556  0.7385  1.8538
  938MOL0     H26565  10.579   4.170   2.835  0.9873 -0.1107  0.2836
  938MOL0     H26566  10.747   4.128   2.816  0.1590 -2.2198 -1.0679
  938MOL0     H26567  10.731   4.052   2.586 -0.3506  0.6819 -1.4152
  938MOL0     H26568  10.557   4.047   2.589  1.6045 -1.1971 -1.6000
  938MOL0     H26569  10.729   4.295   2.605 -0.0110  0.2627 -0.2368
  938MOL0     H26570  10.657   4.227   2.451  3.8770  2.7092  0.4568
  938MOL0     H26571  10.447   4.280   2.512  1.6580 -1.7243  0.2402
  938MOL0     H26572  10.491   4.330   2.675 -2.0152  1.3516 -0.8595
  938MOL0     H26573  10.589   4.471   2.416  0.9926  0.0941  0.6696
  938MOL0     H26574  10.428   4.502   2.482  0.3130  3.0308  2.2188
  938MOL0     H26575  10.509   4.545   2.686  0.2860 -1.6882 -0.2274
  938MOL0     H26576  10.683   4.517   2.652  0.1844 -0.1894  2.3032
  938MOL0     H26577  10.663   4.714   2.478 -1.0041 -1.6903 -1.0012
  938MOL0     H26578  10.497   4.742   2.538 -0.8198  0.0905  0.4608
  938MOL0     H26579  10.752   4.744   2.688  0.3055  1.2853  2.7711
  938MOL0     H26580  10.595   4.797   2.767 -2.5265 -2.5901 -1.3769
  938MOL0     H26581  10.894   4.972   2.632  1.1784  2.6413 -1.9751
  938MOL0     H26582  10.792   5.281   2.390  0.5601  0.3025 -3.8280
  938MOL0     H26583  10.920   5.229   2.501  0.5213 -1.3254  0.2051
  938MOL0     H26584  10.829   5.070   2.256  0.2150  0.4514  0.4795
  938MOL0     H26585  10.979   5.047   2.332 -0.3887 -1.0744 -3.7050
  938MOL0     H26586  10.889   5.285   2.176 -0.0280 -1.2249 -3.0366
  938MOL0     H26587  10.997   5.182   2.104 -0.7077  1.7940 -1.1252
  938MOL0     H26588  11.176   5.256   2.236  0.5840  0.7854 -2.2869
  938MOL0     H26589  11.063   5.347   2.352 -1.3183  0.0095  0.3755
  938MOL0     H26590  11.261   5.511   2.352  0.5158 -2.5321 -2.3693
  938MOL0     H26591  11.417   5.638   2.449  0.5989 -0.0292 -2.4840
  938MOL0     H26592  11.499   5.770   2.375  0.2564  0.4580 -2.6206
  938MOL0     H26593  11.344   5.804   2.448 -1.7030 -0.2011 -0.5964
  938MOL0     H26594  11.649   5.945   2.009 -0.6492 -0.5005  2.7654
  938MOL0     H26595  11.816   6.122   1.987 -0.2682  0.0652 -0.2738
  938MOL0     H26596  11.653   6.527   2.111  1.9496 -0.3073  2.6825
  938MOL0     H26597  11.812   6.565   2.099 -1.7885 -1.3141  3.6895
  938MOL0     H26598  11.764   6.527   1.832  1.2598 -0.9782  1.6732
  938MOL0     H26599  11.606   6.569   1.886 -0.3056 -1.3963  1.8443
  938MOL0     H26600  11.856   6.737   1.894  0.0369 -2.5978  1.3512
  938MOL0     H26601  11.721   6.788   1.999  0.5225 -0.2192  0.4813
  938MOL0     H26602  11.709   6.736   1.700 -0.5164 -2.8815  2.2467
  938MOL0     H26603  11.576   6.788   1.810  0.1002 -1.8596 -1.0812
  938MOL0     H26604  11.827   6.958   1.781  0.2637  1.7683  0.9456
  938MOL0     H26605  11.680   7.004   1.847 -1.7522 -3.8234  1.3418
  938MOL0     H26606  11.701   6.940   1.546  0.2601  0.4584 -1.0158
  938MOL0     H26607  11.569   7.013   1.644  0.1721 -2.0566  0.2407
  938MOL0     H26608  11.815   7.146   1.539  1.2570  0.3124  0.9347
  938MOL0     H26609  11.786   7.177   1.702  1.3525 -1.9628  0.3017
  938MOL0     H26610  11.687   7.340   1.524  1.5578 -0.0853  0.6235
  938MOL0     H26611  11.571   7.271   1.645  3.4368  0.6842  1.6611
  938MOL0     H26612  11.487   6.413   2.032  1.6316 -0.2871  1.6682
  938MOL0     H26613  11.334   6.218   2.038  0.3342  3.4445 -1.0861
  938MOL0     H26614  11.235   5.801   1.962 -0.6539  0.8173  0.9336
  938MOL0     H26615  11.121   5.554   1.960  2.8859 -2.6291 -1.6896
  938MOL0     H26616  10.605   3.727   2.921 -0.4323 -1.1180  0.5234
  938MOL0     H26617  10.628   3.660   3.146 -2.5095 -0.3616 -2.5033
  938MOL0     H26618  10.788   3.903   3.600  0.9021  3.4157  4.6509
  938MOL0     H26619  10.793   3.917   3.855  0.0502 -1.2529  0.0271
  938MOL0     H26620  10.448   3.815   4.107 -0.2405  0.1397  0.8445
  938MOL0     H26621  10.560   3.669   4.105  2.4302  0.4602 -2.1015
  938MOL0     H26622  10.556   3.738   4.320 -0.8656  2.8272  1.1785
  938MOL0     H26623  10.567   3.910   4.282 -0.4689  0.1572  0.1905
  938MOL0     H26624  10.803   3.870   4.192  0.9112 -3.0864 -0.7558
  938MOL0     H26625  10.791   3.706   4.242  0.0964 -0.2312 -2.8547
  938MOL0     H26626  10.799   3.738   4.467 -0.7278 -0.0867  0.1172
  938MOL0     H26627  10.740   3.901   4.447  1.8938 -0.7865  1.2471
  938MOL0     H26628  11.170   3.870   4.359  0.0780 -2.7732  0.9956
  938MOL0     H26629  10.422   3.715   3.866  1.6586 -4.1090 -1.2178
  938MOL0     H26630  10.404   3.707   3.637  1.0805  0.4331 -4.1814
  939MOL0     O26631  10.660   4.050   5.380 -0.1432 -0.8513 -0.6604
  939MOL0     C26632  10.582   4.025   5.472  0.1035 -0.6581 -0.0432
  939MOL0     O26633  10.479   4.100   5.515 -0.2473  0.1923 -0.3785
  939MOL0     C26634  10.475   4.241   5.478  0.4029  0.1090 -0.5598
  939MOL0     C26635  10.598   4.311   5.506 -0.4284  0.2684  0.8031
  939MOL0     C26636  10.605   4.448   5.515  0.3322  0.1579 -0.0860
  939MOL0     C26637  10.493   4.522   5.494  0.1759  0.3103 -0.5846
  939MOL0     O26638  10.488   4.659   5.505  0.1934 -0.3154 -0.5188
  939MOL0     C26639  10.586   4.724   5.578 -0.8384  0.3553 -0.0830
  939MOL0     C26640  10.532   4.866   5.606  0.1341  0.5040 -0.1129
  939MOL0     C26641  10.618   4.946   5.709  1.4164 -0.5396  0.7794
  939MOL0     C26642  10.744   5.012   5.665  0.8587  0.1298 -0.4668
  939MOL0     C26643  10.825   5.069   5.779 -1.1645 -0.0563  0.1529
  939MOL0     C26644  10.930   4.979   5.848  0.0863  0.6562 -0.6673
  939MOL0     C26645  11.063   4.947   5.772 -0.3341 -0.1279  0.1991
  939MOL0     C26646  11.153   4.846   5.842 -0.5125 -0.4097 -0.0979
  939MOL0     N26647  11.284   4.846   5.766  0.0158 -0.6338  0.2406
  939MOL0     C26648  11.375   4.948   5.776 -0.1467  0.3294  0.5898
  939MOL0     C26649  11.476   4.913   5.689 -1.2424 -0.4868 -0.2057
  939MOL0     C26650  11.598   4.992   5.659  0.3785 -0.3496 -1.3486
  939MOL0     C26651  11.674   5.019   5.789  0.1383  0.3372  0.9205
  939MOL0     C26652  11.714   4.890   5.873  0.3971  0.1354  0.3196
  939MOL0     C26653  11.834   4.813   5.811  0.7001 -0.0603 -0.0614
  939MOL0     O26654  11.942   4.905   5.793  0.4231 -0.2375 -0.1000
  939MOL0     C26655  12.067   4.847   5.779 -0.7010  0.4255 -0.4937
  939MOL0     C26656  12.097   4.717   5.758 -0.2285 -0.1720 -0.0686
  939MOL0     C26657  12.228   4.676   5.731  0.1589 -0.2038 -0.5798
  939MOL0     C26658  12.240   4.522   5.712  0.6739 -0.4387 -0.0199
  939MOL0     C26659  12.335   4.763   5.752  0.1542 -0.5056 -0.3237
  939MOL0     C26660  12.474   4.736   5.741 -0.4630  0.0527  0.1623
  939MOL0     O26661  12.517   4.601   5.754  0.2656 -0.2829 -0.0885
  939MOL0     C26662  12.644   4.566   5.770 -0.3830 -1.0019  0.0293
  939MOL0     C26663  12.656   4.455   5.851  0.6343  0.2626 -0.2178
  939MOL0     C26664  12.773   4.403   5.893 -0.5146 -0.4062 -0.2501
  939MOL0     C26665  12.890   4.472   5.849 -1.2175  0.7277  0.0236
  939MOL0     O26666  13.016   4.444   5.888  0.1373  0.5992 -0.0324
  939MOL0     C26667  13.048   4.316   5.946 -0.5661  0.5073  0.8035
  939MOL0     C26668  13.205   4.309   5.957  0.4616  0.0192 -0.2628
  939MOL0     C26669  13.263   4.424   6.043  0.2150 -0.1244  0.7094
  939MOL0     C26670  13.183   4.448   6.177 -0.0282 -0.0253  0.5871
  939MOL0     C26671  13.239   4.552   6.266  0.9150 -0.9640 -0.5185
  939MOL0     C26672  13.293   4.682   6.198  0.0819  0.5714  0.2276
  939MOL0     C26673  13.340   4.806   6.284 -0.1996  0.2646  0.3056
  939MOL0     C26674  13.400   4.922   6.201  0.6241  0.5267  0.8741
  939MOL0    Cl26675  13.282   4.984   6.081  0.0456 -0.0098 -0.2530
  939MOL0     C26676  12.887   4.576   5.755  0.1587 -0.0126 -0.6142
  939MOL0     C26677  12.764   4.625   5.721 -0.6938  0.3844  0.1234
  939MOL0     O26678  12.548   4.830   5.735  0.2091 -0.3875 -0.5740
  939MOL0     C26679  12.306   4.894   5.774  0.2322 -0.1991  0.8226
  939MOL0     C26680  12.170   4.938   5.778  0.3544 -0.6036  0.5442
  939MOL0     N26681  11.444   4.796   5.633 -0.4097  0.6226  0.1898
  939MOL0     N26682  11.329   4.755   5.680  0.0469 -0.1863 -1.3144
  939MOL0     C26683  10.371   4.458   5.461  0.2226  0.7670 -0.4881
  939MOL0     C26684  10.359   4.315   5.465  0.9773  0.0322  0.1934
  939MOL0     C26685  10.599   3.886   5.531 -0.6093  0.2586  0.4704
  939MOL0     C26686  10.724   3.811   5.514 -0.3227 -0.2828 -0.2450
  939MOL0     C26687  10.735   3.691   5.565  0.1780  1.1469  0.5415
  939MOL0     C26688  10.632   3.629   5.634 -0.1925  0.3231  0.5782
  939MOL0     O26689  10.669   3.510   5.680  0.0542  0.6000  0.6452
  939MOL0     C26690  10.576   3.429   5.747 -0.0096 -0.9645 -0.1544
  939MOL0     C26691  10.657   3.321   5.836 -0.3323 -0.1687 -0.2680
  939MOL0     C26692  10.738   3.399   5.948  0.7727  0.9260  0.3693
  939MOL0     C26693  10.877   3.346   5.936 -0.6226  0.1880 -0.0248
  939MOL0     C26694  10.955   3.371   6.060 -0.0311 -1.2922 -0.6486
  939MOL0     C26695  11.004   3.390   6.169 -0.0573  0.1486 -0.3828
  939MOL0     C26696  10.513   3.693   5.644 -0.1234  0.5511  0.5263
  939MOL0     C26697  10.493   3.819   5.582  0.3015  0.3589 -0.6279
  939MOL0     H26698  10.689   4.255   5.523 -1.5639 -2.1556 -0.4883
  939MOL0     H26699  10.699   4.491   5.548  0.2372  0.9859 -0.8490
  939MOL0     H26700  10.609   4.677   5.674  0.3994 -2.1125 -1.4793
  939MOL0     H26701  10.678   4.731   5.519 -0.9924 -3.6251 -1.0760
  939MOL0     H26702  10.521   4.925   5.515 -1.3930 -0.0160 -0.3011
  939MOL0     H26703  10.428   4.855   5.640 -0.1344  1.2713 -0.6763
  939MOL0     H26704  10.546   5.022   5.738  1.1827 -0.7492  0.7602
  939MOL0     H26705  10.629   4.890   5.802 -0.2957 -0.2874  1.1704
  939MOL0     H26706  10.806   4.945   5.605  0.6161 -0.6455  0.1401
  939MOL0     H26707  10.721   5.102   5.607  0.5403  1.5848  1.7607
  939MOL0     H26708  10.872   5.155   5.731  0.5788 -0.7103  0.6446
  939MOL0     H26709  10.756   5.106   5.856 -0.9474  1.1642 -0.2245
  939MOL0     H26710  10.977   5.048   5.919 -0.1654  3.5312 -3.0827
  939MOL0     H26711  10.882   4.890   5.889 -0.4014 -0.6995 -3.8795
  939MOL0     H26712  11.027   4.913   5.674 -0.3685  0.5574 -0.0292
  939MOL0     H26713  11.115   5.043   5.773  1.2178 -0.8923  2.6900
  939MOL0     H26714  11.118   4.742   5.845 -1.7787  0.0051 -0.0709
  939MOL0     H26715  11.171   4.865   5.949  2.6749  1.6392 -0.8630
  939MOL0     H26716  11.376   5.044   5.827  0.7753  1.9220 -2.2215
  939MOL0     H26717  11.670   4.956   5.585  0.8426 -2.8057  0.1824
  939MOL0     H26718  11.553   5.080   5.613 -0.0284 -0.4516 -1.1474
  939MOL0     H26719  11.613   5.090   5.846 -2.1184 -0.9837  0.2900
  939MOL0     H26720  11.760   5.080   5.761 -0.4207  0.2098 -1.2456
  939MOL0     H26721  11.621   4.835   5.887 -0.1692  0.8752 -0.4105
  939MOL0     H26722  11.738   4.927   5.973 -0.9269  1.7370  0.0939
  939MOL0     H26723  11.804   4.802   5.706  1.0061  4.1069 -0.7615
  939MOL0     H26724  11.854   4.725   5.872 -1.3469 -0.1494  0.5560
  939MOL0     H26725  12.018   4.643   5.755 -2.5864  1.8883  3.1738
  939MOL0     H26726  12.141   4.475   5.711 -0.5539  1.9797 -1.0614
  939MOL0     H26727  12.298   4.516   5.619  1.6420 -1.0344  0.6119
  939MOL0     H26728  12.303   4.480   5.791  0.9426 -0.1073 -0.0549
  939MOL0     H26729  12.571   4.399   5.889  1.9604 -0.0196  2.5778
  939MOL0     H26730  12.778   4.324   5.967  0.5112  0.0236  0.1570
  939MOL0     H26731  13.001   4.295   6.043  2.4736 -1.1829  2.0647
  939MOL0     H26732  13.023   4.234   5.878  1.0363  1.7426 -1.3890
  939MOL0     H26733  13.250   4.216   5.995  2.9248  2.5694  3.8752
  939MOL0     H26734  13.252   4.322   5.859 -3.2555 -0.4838 -2.2880
  939MOL0     H26735  13.280   4.511   5.978 -0.8770 -2.0622 -2.4521
  939MOL0     H26736  13.364   4.385   6.061 -0.3266 -2.9187 -1.5429
  939MOL0     H26737  13.089   4.495   6.147  0.1768  1.2787  1.8891
  939MOL0     H26738  13.175   4.352   6.229  0.7177  0.9364  2.5843
  939MOL0     H26739  13.319   4.508   6.324 -0.9323 -1.6606  1.6284
  939MOL0     H26740  13.152   4.567   6.331  1.0190  0.2713 -0.6369
  939MOL0     H26741  13.372   4.664   6.124 -1.7367  0.3472 -1.7576
  939MOL0     H26742  13.213   4.716   6.132 -1.0367  0.7193  1.6049
  939MOL0     H26743  13.419   4.782   6.355  0.4302  3.7890  0.9600
  939MOL0     H26744  13.252   4.836   6.341  0.1636  0.6484  0.6663
  939MOL0     H26745  13.496   4.888   6.161 -0.9331 -0.5662 -2.2224
  939MOL0     H26746  13.428   5.000   6.273 -3.1305 -0.0749  3.2226
  939MOL0     H26747  12.970   4.640   5.728 -1.2033  1.9208 -0.3937
  939MOL0     H26748  12.760   4.718   5.664 -0.2292  0.6451  0.5111
  939MOL0     H26749  12.370   4.982   5.772 -0.4205  0.2843  0.5874
  939MOL0     H26750  12.153   5.043   5.798 -0.8813 -0.9435  1.4419
  939MOL0     H26751  10.286   4.518   5.435  0.3312  0.1406 -2.4289
  939MOL0     H26752  10.264   4.267   5.444  1.2169 -0.1026 -0.6351
  939MOL0     H26753  10.809   3.860   5.467 -1.3819  1.7662 -0.1542
  939MOL0     H26754  10.815   3.622   5.540 -0.7145 -0.1985  1.2746
  939MOL0     H26755  10.523   3.493   5.819  1.0551 -0.9919  0.6939
  939MOL0     H26756  10.508   3.381   5.677 -0.6875  2.0520 -1.7490
  939MOL0     H26757  10.714   3.263   5.763 -3.9100 -0.2716 -3.2812
  939MOL0     H26758  10.586   3.252   5.881 -1.3583 -0.3280 -2.0248
  939MOL0     H26759  10.701   3.386   6.051 -1.4791 -1.7315 -0.6112
  939MOL0     H26760  10.747   3.503   5.919  2.6699 -0.2350 -3.9088
  939MOL0     H26761  10.939   3.400   5.863  1.9886 -3.0940 -0.5085
  939MOL0     H26762  10.882   3.241   5.905 -0.8898  0.6547 -1.7963
  939MOL0     H26763  11.056   3.419   6.258  2.5576  0.4742 -1.9193
  939MOL0     H26764  10.428   3.644   5.692  0.0068  0.5291  0.7377
  939MOL0     H26765  10.393   3.859   5.589 -1.0221 -2.8621  0.9338
  940MOL0     O26766   8.694   7.063   7.857 -0.2332 -0.5547  0.1466
  940MOL0     C26767   8.818   7.044   7.847 -0.5531 -0.4048 -0.1178
  940MOL0     O26768   8.907   7.108   7.752  0.3210  0.4954 -0.5027
  940MOL0     C26769   8.851   7.176   7.644  0.3356 -0.7862 -0.2266
  940MOL0     C26770   8.886   7.139   7.513  0.1182  0.7038  0.0055
  940MOL0     C26771   8.836   7.209   7.398  0.0403  0.0975 -0.5587
  940MOL0     C26772   8.762   7.324   7.419  0.3361 -0.0922  0.1480
  940MOL0     O26773   8.715   7.391   7.299 -0.9649  0.3292 -0.2446
  940MOL0     C26774   8.720   7.535   7.299  0.5551 -0.2482  0.3287
  940MOL0     C26775   8.750   7.570   7.152 -0.2639  0.4821 -0.0794
  940MOL0     C26776   8.752   7.725   7.135 -0.7389 -0.0465 -0.0421
  940MOL0     C26777   8.733   7.785   6.992 -0.3214  0.9355  0.5984
  940MOL0     C26778   8.585   7.772   6.958  0.5591 -0.0126  0.9455
  940MOL0     C26779   8.554   7.828   6.810 -0.7271  0.7129 -0.2269
  940MOL0     C26780   8.589   7.976   6.791  0.4158 -0.6097  0.0953
  940MOL0     C26781   8.497   8.078   6.861 -0.1164  0.6378 -0.5372
  940MOL0     N26782   8.532   8.215   6.831  0.0632  0.5526 -0.4566
  940MOL0     C26783   8.487   8.327   6.898  0.1873 -0.2651 -0.4900
  940MOL0     C26784   8.495   8.431   6.808 -0.3294  0.8926 -0.4106
  940MOL0     C26785   8.463   8.580   6.831  1.0098  0.0290 -0.6928
  940MOL0     C26786   8.326   8.610   6.899  0.3264 -0.3562  0.9255
  940MOL0     C26787   8.194   8.602   6.810  0.4290  0.4546 -1.1329
  940MOL0     C26788   8.176   8.711   6.715  0.7614 -0.0290  0.0578
  940MOL0     O26789   8.088   8.661   6.617 -0.2210  0.2236  0.8252
  940MOL0     C26790   8.022   8.745   6.534  0.5480  0.4556  0.6623
  940MOL0     C26791   8.041   8.881   6.522 -0.5564 -0.3872  0.5029
  940MOL0     C26792   7.973   8.966   6.431 -0.1353  0.2884 -0.3153
  940MOL0     C26793   8.006   9.117   6.432 -0.6000 -0.3099 -0.3863
  940MOL0     C26794   7.868   8.912   6.348 -1.4813 -0.5621 -0.8040
  940MOL0     C26795   7.793   8.993   6.253 -0.6885  0.8491  0.7605
  940MOL0     O26796   7.726   8.912   6.170  0.4049 -0.2045 -0.1683
  940MOL0     C26797   7.626   8.964   6.091 -0.1511 -0.1328  0.9167
  940MOL0     C26798   7.603   8.902   5.963  0.8215 -0.7052 -0.1274
  940MOL0     C26799   7.500   8.943   5.875 -0.4699 -0.3284 -0.3316
  940MOL0     C26800   7.418   9.046   5.917 -0.0973 -0.4340  0.2081
  940MOL0     O26801   7.310   9.090   5.837  0.1681 -0.4485 -1.1189
  940MOL0     C26802   7.175   9.083   5.899 -0.2006 -0.5874 -0.2023
  940MOL0     C26803   7.078   9.041   5.793 -0.3265 -0.2503  0.4419
  940MOL0     C26804   7.060   9.124   5.665 -0.9494 -0.6928  0.0938
  940MOL0     C26805   7.025   9.266   5.687 -0.9698 -0.5948  0.8903
  940MOL0     C26806   7.120   9.357   5.615  0.6020  0.6601 -0.4119
  940MOL0     C26807   7.266   9.388   5.659 -0.4316 -0.0799 -0.1502
  940MOL0     C26808   7.259   9.501   5.765  0.4021  0.2358 -0.5148
  940MOL0     C26809   7.407   9.539   5.815 -0.5121  0.4143 -0.7520
  940MOL0    Cl26810   7.515   9.568   5.684 -0.1195 -0.1543 -0.4649
  940MOL0     C26811   7.431   9.096   6.048  0.2222 -0.3222 -0.7103
  940MOL0     C26812   7.528   9.054   6.139 -0.2105 -0.9342 -0.2068
  940MOL0     O26813   7.784   9.116   6.263  0.6368  0.1844  0.3474
  940MOL0     C26814   7.858   8.767   6.353  0.7432 -0.3647  0.1645
  940MOL0     C26815   7.922   8.686   6.451 -0.8010 -0.0441  0.1911
  940MOL0     N26816   8.551   8.383   6.689  0.6126  0.6987  0.0855
  940MOL0     N26817   8.573   8.255   6.714  0.0093  0.4482  0.3766
  940MOL0     C26818   8.720   7.355   7.547  0.2716  0.4990  0.2569
  940MOL0     C26819   8.762   7.277   7.656  0.5389  0.7878  0.0303
  940MOL0     C26820   8.878   6.928   7.918  0.5514 -0.3367 -0.0159
  940MOL0     C26821   9.018   6.918   7.917 -0.0027 -0.7737 -1.0411
  940MOL0     C26822   9.088   6.819   7.977 -0.2305  0.4733  0.3119
  940MOL0     C26823   9.014   6.713   8.042 -1.5211  0.1579  0.4253
  940MOL0     O26824   9.064   6.603   8.101  0.2547 -0.1901  0.0224
  940MOL0     C26825   9.186   6.621   8.166 -0.0492  0.3959  0.6265
  940MOL0     C26826   9.219   6.490   8.249  0.0870 -0.4025 -0.3647
  940MOL0     C26827   9.359   6.499   8.320  1.0637 -1.3064 -0.4079
  940MOL0     C26828   9.359   6.606   8.432  0.4060  0.2785  0.5132
  940MOL0     C26829   9.283   6.561   8.550 -0.1856  0.1411  0.2135
  940MOL0     C26830   9.232   6.488   8.631  0.6005 -0.0537  0.3233
  940MOL0     C26831   8.874   6.720   8.055 -0.6789 -0.7643 -0.0395
  940MOL0     C26832   8.806   6.830   7.995 -0.6264 -0.8806 -0.0237
  940MOL0     H26833   8.949   7.052   7.496 -1.1326 -0.3335  0.4374
  940MOL0     H26834   8.865   7.181   7.297 -2.2380  0.3578 -1.3349
  940MOL0     H26835   8.626   7.584   7.329 -2.1198 -3.2753 -2.3402
  940MOL0     H26836   8.797   7.579   7.362  0.5299  0.1579  0.0766
  940MOL0     H26837   8.845   7.530   7.116  0.0973  0.2739  1.0782
  940MOL0     H26838   8.665   7.530   7.096 -0.6241 -1.5110  1.7471
  940MOL0     H26839   8.676   7.768   7.200 -1.7421  3.7348 -3.3284
  940MOL0     H26840   8.844   7.762   7.181 -1.0564 -2.7614  3.1739
  940MOL0     H26841   8.778   7.884   6.989  3.0786 -0.4737  0.9601
  940MOL0     H26842   8.794   7.720   6.929  0.1756 -1.2274  3.1025
  940MOL0     H26843   8.558   7.666   6.956 -0.0112  0.0138 -3.8492
  940MOL0     H26844   8.515   7.826   7.023 -0.9774 -1.6406  0.7238
  940MOL0     H26845   8.623   7.774   6.744  0.4115 -1.6537  2.6460
  940MOL0     H26846   8.451   7.815   6.775 -0.2661 -3.5275 -0.6052
  940MOL0     H26847   8.689   7.999   6.829  0.5488 -2.2684  0.8196
  940MOL0     H26848   8.596   8.001   6.685  2.8169  1.2187  0.5805
  940MOL0     H26849   8.509   8.069   6.969  0.0264  1.3494 -0.4910
  940MOL0     H26850   8.390   8.060   6.846 -0.6199  1.5992  1.5339
  940MOL0     H26851   8.437   8.348   6.992  2.2964 -0.4978  0.7451
  940MOL0     H26852   8.547   8.614   6.893 -1.6511 -1.2898  4.1985
  940MOL0     H26853   8.458   8.616   6.728  0.2700  2.2490  0.0730
  940MOL0     H26854   8.332   8.712   6.937 -1.3486  1.0053 -2.1251
  940MOL0     H26855   8.325   8.539   6.982  4.0703 -0.3992  1.0952
  940MOL0     H26856   8.113   8.619   6.882 -0.7056  2.1067 -2.7209
  940MOL0     H26857   8.196   8.511   6.748  1.5789  1.8644 -3.2856
  940MOL0     H26858   8.262   8.740   6.653  0.1265 -0.0373 -0.8338
  940MOL0     H26859   8.140   8.799   6.767 -3.1479 -0.9975 -0.7224
  940MOL0     H26860   8.126   8.917   6.580  0.1767 -0.4676 -0.4894
  940MOL0     H26861   8.088   9.142   6.500 -1.7399 -0.3212  1.0486
  940MOL0     H26862   8.011   9.156   6.330  1.6490  0.5732 -0.0064
  940MOL0     H26863   7.923   9.166   6.484  0.3521  2.0489 -0.9524
  940MOL0     H26864   7.672   8.828   5.923  3.8229  2.7443 -1.9635
  940MOL0     H26865   7.461   8.908   5.781 -2.4279  1.9582 -0.4839
  940MOL0     H26866   7.174   9.015   5.984 -1.3408 -0.8028 -0.3694
  940MOL0     H26867   7.141   9.181   5.936 -0.9601 -1.0303  0.3001
  940MOL0     H26868   7.114   8.943   5.759 -0.7460 -0.1629 -0.2718
  940MOL0     H26869   6.983   9.023   5.845  0.2655 -4.4079  0.4060
  940MOL0     H26870   6.981   9.066   5.616  0.4631 -2.3631 -0.3192
  940MOL0     H26871   7.146   9.110   5.599  0.2764 -1.3395  1.7530
  940MOL0     H26872   6.927   9.301   5.652  1.7149  5.7407 -1.8819
  940MOL0     H26873   7.032   9.293   5.792  0.2514 -1.9189  1.1850
  940MOL0     H26874   7.071   9.454   5.625 -2.3417 -0.5561 -1.8404
  940MOL0     H26875   7.133   9.333   5.509  1.9103 -3.0678  0.4280
  940MOL0     H26876   7.310   9.299   5.704 -1.3742 -0.2845  0.4058
  940MOL0     H26877   7.323   9.419   5.571 -1.4952 -0.1784 -0.8955
  940MOL0     H26878   7.194   9.480   5.851  2.0226  2.8288  1.5172
  940MOL0     H26879   7.212   9.590   5.721 -1.2282  1.2685  2.9194
  940MOL0     H26880   7.443   9.450   5.867  0.9009  1.4187  0.0411
  940MOL0     H26881   7.412   9.628   5.878 -1.0864  0.9375 -1.4302
  940MOL0     H26882   7.370   9.179   6.082  1.4496  0.2131  0.2655
  940MOL0     H26883   7.529   9.099   6.238  0.4000 -0.7484 -0.2931
  940MOL0     H26884   7.819   8.705   6.273  1.5259 -0.1451 -0.4091
  940MOL0     H26885   7.910   8.578   6.453 -1.0527 -0.0159  0.2238
  940MOL0     H26886   8.637   7.422   7.568 -2.2427 -2.9847  2.5315
  940MOL0     H26887   8.729   7.312   7.754 -0.4581  0.1464 -0.0607
  940MOL0     H26888   9.078   6.998   7.875 -0.3384 -0.1635 -0.3898
  940MOL0     H26889   9.196   6.815   7.980 -0.0863  1.7004 -1.3573
  940MOL0     H26890   9.271   6.648   8.103 -0.3561 -1.1827 -0.5330
  940MOL0     H26891   9.179   6.704   8.236  1.2207 -1.5111  3.1891
  940MOL0     H26892   9.232   6.405   8.182  1.0820  0.5126 -1.4003
  940MOL0     H26893   9.130   6.470   8.309 -2.2643  0.6688 -3.2307
  940MOL0     H26894   9.429   6.539   8.246  0.6869 -1.0768 -0.6470
  940MOL0     H26895   9.398   6.404   8.357  1.5169 -0.7262  0.6527
  940MOL0     H26896   9.318   6.700   8.392 -2.3631 -1.8199 -2.0510
  940MOL0     H26897   9.463   6.621   8.463  0.6644  0.8452 -0.5862
  940MOL0     H26898   9.163   6.429   8.688 -1.6562  0.0075 -2.1549
  940MOL0     H26899   8.813   6.648   8.108  0.9594 -1.2573  1.2730
  940MOL0     H26900   8.698   6.833   7.998 -0.7352  2.4502 -2.5181
  941MOL0     O26901   0.417   5.652   4.801 -0.1974 -0.1806  1.1557
  941MOL0     C26902   0.347   5.559   4.817 -0.1168  1.8762 -0.2677
  941MOL0     O26903   0.223   5.564   4.864  0.6126  0.3201 -0.1408
  941MOL0     C26904   0.180   5.676   4.927  0.4263 -0.6662  0.1184
  941MOL0     C26905   0.211   5.693   5.056 -0.4166  0.1682 -0.0808
  941MOL0     C26906   0.152   5.789   5.135  0.5050 -0.2008  0.2307
  941MOL0     C26907   0.032   5.843   5.094 -0.0825  0.2025 -0.0881
  941MOL0     O26908  -0.043   5.921   5.177  0.2429 -0.8802  0.4364
  941MOL0     C26909  -0.036   6.065   5.149 -0.1946  0.5513 -0.9945
  941MOL0     C26910  -0.088   6.131   5.275  0.4072  0.5901  0.0950
  941MOL0     C26911  -0.230   6.077   5.298  0.2544  0.2154  0.3617
  941MOL0     C26912  -0.295   6.152   5.421 -0.8550  0.0038 -0.3498
  941MOL0     C26913  -0.451   6.115   5.435 -0.3405  0.3597 -0.3428
  941MOL0     C26914  -0.507   6.135   5.572  0.5788  0.0646  0.1763
  941MOL0     C26915  -0.498   6.286   5.620 -1.4937  0.7018  0.2112
  941MOL0     C26916  -0.583   6.299   5.750  0.0905  0.9372  0.3215
  941MOL0     N26917  -0.507   6.274   5.867 -0.0076  0.7163 -0.7432
  941MOL0     C26918  -0.544   6.303   5.994  0.3588 -0.4574 -0.0665
  941MOL0     C26919  -0.465   6.237   6.078  1.1482 -0.7970 -0.7354
  941MOL0     C26920  -0.506   6.203   6.223 -1.0932 -0.5254 -0.4043
  941MOL0     C26921  -0.430   6.291   6.320 -0.2941 -0.6560 -0.6356
  941MOL0     C26922  -0.482   6.453   6.308  0.4478  0.0647 -0.0807
  941MOL0     C26923  -0.483   6.523   6.449 -0.1048 -0.0206  1.1036
  941MOL0     O26924  -0.593   6.462   6.507  0.7027  0.1361 -0.4498
  941MOL0     C26925  -0.592   6.437   6.646  0.2403 -0.3148 -0.1393
  941MOL0     C26926  -0.480   6.400   6.721  0.1218 -0.1065 -0.2429
  941MOL0     C26927  -0.488   6.403   6.862 -0.1040 -0.6025  0.1782
  941MOL0     C26928  -0.357   6.385   6.933  0.0306  0.3385 -0.4942
  941MOL0     C26929  -0.607   6.432   6.935 -0.1535  0.5025  0.6065
  941MOL0     C26930  -0.627   6.449   7.084 -0.5816  0.1426 -0.9365
  941MOL0     O26931  -0.749   6.434   7.140 -0.5870 -0.0463  0.1687
  941MOL0     C26932  -0.771   6.492   7.263 -0.6804  0.8389 -0.0552
  941MOL0     C26933  -0.790   6.625   7.289 -0.3032 -0.0191  0.6212
  941MOL0     C26934  -0.825   6.672   7.421 -0.2339  0.3246  0.5413
  941MOL0     C26935  -0.838   6.582   7.531  0.4394 -1.3184  0.5063
  941MOL0     O26936  -0.885   6.607   7.659  0.5704 -0.8449  0.1034
  941MOL0     C26937  -0.889   6.744   7.705 -0.6738  0.1866 -1.2133
  941MOL0     C26938  -0.867   6.749   7.858  0.5630  0.1626 -0.3111
  941MOL0     C26939  -0.987   6.676   7.916 -0.5165 -0.0671  0.2300
  941MOL0     C26940  -0.969   6.649   8.070  0.1846  0.1092 -0.2523
  941MOL0     C26941  -1.067   6.539   8.130 -1.0131  0.0362 -0.2102
  941MOL0     C26942  -1.200   6.613   8.162  0.0929  0.0860  0.2624
  941MOL0     C26943  -1.328   6.530   8.147 -0.1204 -0.1763  0.2651
  941MOL0     C26944  -1.339   6.424   8.257  0.3290  0.0993 -0.9027
  941MOL0    Cl26945  -1.353   6.506   8.426 -0.2677  0.1463  0.3568
  941MOL0     C26946  -0.805   6.453   7.503 -0.6650  0.4828  0.1331
  941MOL0     C26947  -0.758   6.406   7.373 -0.4578  0.3634 -0.2528
  941MOL0     O26948  -0.523   6.484   7.149  0.1240  0.1057  0.3962
  941MOL0     C26949  -0.721   6.446   6.857  0.6144  0.5222 -0.0328
  941MOL0     C26950  -0.713   6.451   6.714 -0.0477 -0.1492  0.9089
  941MOL0     N26951  -0.369   6.170   5.996  0.3510 -0.0014  0.2711
  941MOL0     N26952  -0.399   6.199   5.875  0.1676  0.8035  0.2069
  941MOL0     C26953  -0.002   5.831   4.957  1.0277  0.1633 -0.4844
  941MOL0     C26954   0.067   5.749   4.874 -0.2879  0.2091  0.1521
  941MOL0     C26955   0.393   5.423   4.762 -0.0156  0.3404  2.0564
  941MOL0     C26956   0.509   5.421   4.675 -0.2291 -1.0776  0.5939
  941MOL0     C26957   0.548   5.298   4.618  0.1662  0.5349  0.0395
  941MOL0     C26958   0.470   5.181   4.628 -0.7775 -0.2659  0.4977
  941MOL0     O26959   0.506   5.061   4.572 -1.0123  0.1120  1.0624
  941MOL0     C26960   0.583   5.058   4.456  0.1846  0.1673 -0.5786
  941MOL0     C26961   0.579   4.914   4.438  0.9345 -0.5844  0.3138
  941MOL0     C26962   0.444   4.858   4.402  0.3680 -0.7076  0.5412
  941MOL0     C26963   0.454   4.737   4.313 -0.1941 -0.5916  0.1720
  941MOL0     C26964   0.496   4.620   4.383 -0.1767 -0.8499 -0.3293
  941MOL0     C26965   0.528   4.524   4.451  0.8824  0.1924 -0.7663
  941MOL0     C26966   0.358   5.183   4.701 -0.1284 -0.2206 -0.4846
  941MOL0     C26967   0.321   5.300   4.770  0.2378 -0.0662 -0.2506
  941MOL0     H26968   0.291   5.645   5.113 -0.2192  2.4325  1.7076
  941MOL0     H26969   0.198   5.804   5.232 -2.4646 -2.7672  2.2304
  941MOL0     H26970   0.067   6.100   5.135  0.3461 -0.9080 -0.7693
  941MOL0     H26971  -0.096   6.084   5.059 -0.3409 -4.5515 -2.3035
  941MOL0     H26972  -0.022   6.108   5.359 -2.9665  0.9259  3.0897
  941MOL0     H26973  -0.092   6.239   5.255 -3.7355  0.4175 -1.0889
  941MOL0     H26974  -0.303   6.097   5.220 -0.9489 -0.4204  1.2990
  941MOL0     H26975  -0.245   5.970   5.316 -0.2962  0.0821 -0.8651
  941MOL0     H26976  -0.236   6.139   5.513 -0.5016  1.4795 -0.3510
  941MOL0     H26977  -0.286   6.260   5.407  1.9763 -0.1161 -0.1410
  941MOL0     H26978  -0.510   6.181   5.369 -0.9695  3.4287  2.9707
  941MOL0     H26979  -0.460   6.010   5.406 -1.0350  1.0600 -2.9740
  941MOL0     H26980  -0.612   6.106   5.571  0.7459 -0.7065 -2.5110
  941MOL0     H26981  -0.465   6.063   5.643  1.2122  2.4026  2.3274
  941MOL0     H26982  -0.396   6.321   5.634 -1.7561  1.1193  1.1556
  941MOL0     H26983  -0.535   6.348   5.539  0.4205  1.7415  0.0815
  941MOL0     H26984  -0.673   6.237   5.749  1.3215 -0.9080  0.1099
  941MOL0     H26985  -0.613   6.404   5.755 -0.4673  0.8625 -1.1027
  941MOL0     H26986  -0.636   6.347   6.032  1.7098  2.1248  0.4024
  941MOL0     H26987  -0.612   6.217   6.242 -0.5347  2.5986  1.0158
  941MOL0     H26988  -0.467   6.102   6.236 -1.3163 -0.2771  3.0174
  941MOL0     H26989  -0.323   6.293   6.298 -0.7409  2.0269 -3.2663
  941MOL0     H26990  -0.450   6.257   6.422 -1.1480  0.6308 -0.3512
  941MOL0     H26991  -0.580   6.474   6.265  0.0623  1.8831  1.5252
  941MOL0     H26992  -0.413   6.503   6.239 -1.7831  1.0735 -1.6886
  941MOL0     H26993  -0.495   6.631   6.435  3.8925  0.1650 -4.1573
  941MOL0     H26994  -0.387   6.513   6.501  0.6269  3.5329  0.7022
  941MOL0     H26995  -0.388   6.370   6.671 -1.3767 -0.6789 -2.8356
  941MOL0     H26996  -0.378   6.315   7.015 -0.0317 -2.6153 -2.8575
  941MOL0     H26997  -0.286   6.344   6.861  0.3771 -0.6842  0.4032
  941MOL0     H26998  -0.321   6.482   6.967  0.3700  0.9663 -2.4917
  941MOL0     H26999  -0.773   6.692   7.206  1.2160  0.3263  1.1679
  941MOL0     H27000  -0.857   6.773   7.446 -2.3938 -0.7723  2.5414
  941MOL0     H27001  -0.819   6.813   7.657 -0.1549  0.5766  0.0627
  941MOL0     H27002  -0.987   6.791   7.689  0.7504  3.0532 -2.1833
  941MOL0     H27003  -0.770   6.704   7.884 -0.6337 -1.0330  2.5183
  941MOL0     H27004  -0.859   6.848   7.903 -0.3896 -0.8139  2.1508
  941MOL0     H27005  -0.999   6.578   7.870  3.0489 -1.2542  1.4896
  941MOL0     H27006  -1.073   6.742   7.903  1.1050  1.9526 -0.7275
  941MOL0     H27007  -0.871   6.601   8.072  0.7899  0.6005 -5.2055
  941MOL0     H27008  -0.973   6.736   8.136 -2.3691 -0.6145  0.6551
  941MOL0     H27009  -1.029   6.498   8.224 -2.0829  0.6456  0.4999
  941MOL0     H27010  -1.082   6.461   8.054 -1.5824 -0.4087  0.3532
  941MOL0     H27011  -1.191   6.664   8.259  0.7053  1.2986 -0.3995
  941MOL0     H27012  -1.215   6.703   8.101  3.9458 -0.4229 -1.7471
  941MOL0     H27013  -1.327   6.472   8.054 -1.2661 -2.4843  1.6072
  941MOL0     H27014  -1.415   6.595   8.134  1.0238  1.2822 -0.4569
  941MOL0     H27015  -1.249   6.362   8.251  1.3221  1.2063  1.1417
  941MOL0     H27016  -1.421   6.353   8.243  2.7460 -3.3803  1.1363
  941MOL0     H27017  -0.803   6.380   7.583 -0.6708  2.5276  2.0935
  941MOL0     H27018  -0.727   6.303   7.363  0.2638  0.4567  0.8709
  941MOL0     H27019  -0.822   6.451   6.897  0.2137 -3.4989 -0.1405
  941MOL0     H27020  -0.800   6.451   6.649 -0.5090  0.5104  1.4903
  941MOL0     H27021  -0.093   5.875   4.917  0.6393 -0.0385  0.1632
  941MOL0     H27022   0.040   5.731   4.770  1.9691 -0.0362 -0.4384
  941MOL0     H27023   0.560   5.516   4.661 -1.0996 -0.6567  0.1984
  941MOL0     H27024   0.625   5.283   4.543  0.2070  1.5177 -0.1234
  941MOL0     H27025   0.539   5.118   4.376  1.1308  3.9561  1.5205
  941MOL0     H27026   0.681   5.105   4.467 -1.1149  2.9769 -0.2686
  941MOL0     H27027   0.620   4.863   4.526 -1.5392 -0.0605  1.8591
  941MOL0     H27028   0.655   4.883   4.366  3.4887 -1.9398  3.3221
  941MOL0     H27029   0.386   4.931   4.345  0.1742  0.1374  1.7825
  941MOL0     H27030   0.387   4.833   4.492 -3.6878 -1.0127 -1.8621
  941MOL0     H27031   0.510   4.745   4.219  0.2583  1.3430  0.5589
  941MOL0     H27032   0.352   4.722   4.278 -0.2268 -0.2819  0.1389
  941MOL0     H27033   0.550   4.435   4.506 -1.3204  0.5560  0.8542
  941MOL0     H27034   0.308   5.088   4.691 -0.5450 -0.1109  0.4568
  941MOL0     H27035   0.227   5.286   4.822  0.7504 -2.3905  0.1512
  942MOL0     O27036   5.992   5.406   1.020 -0.7144 -0.4228  0.5379
  942MOL0     C27037   6.077   5.469   0.959  0.3834 -0.0110  0.5000
  942MOL0     O27038   6.116   5.461   0.825  0.5901  1.2372 -0.4165
  942MOL0     C27039   6.074   5.351   0.747  0.2238  0.2352  0.4168
  942MOL0     C27040   6.152   5.235   0.743  0.8497  0.0392  0.2813
  942MOL0     C27041   6.099   5.135   0.669  0.4429 -0.4663  0.9259
  942MOL0     C27042   5.985   5.153   0.589 -0.3591 -0.3611 -0.1702
  942MOL0     O27043   5.950   5.037   0.524 -0.4703  0.5345  0.4928
  942MOL0     C27044   5.834   5.032   0.442  0.8948  0.8963  0.4093
  942MOL0     C27045   5.814   4.889   0.401  0.6684  0.2325  0.4131
  942MOL0     C27046   5.918   4.829   0.308  0.2954 -0.0505  0.8450
  942MOL0     C27047   5.902   4.863   0.157 -1.4117 -0.0011  0.1517
  942MOL0     C27048   5.983   4.766   0.067  0.2044  1.0665 -0.1821
  942MOL0     C27049   6.019   4.834  -0.062 -0.4657 -0.4806 -0.9310
  942MOL0     C27050   5.896   4.854  -0.146  0.3129 -0.4147 -0.8533
  942MOL0     C27051   5.944   4.896  -0.282 -1.0401 -0.7211  0.7213
  942MOL0     N27052   6.021   5.024  -0.297  0.3148 -0.2307 -0.3670
  942MOL0     C27053   5.980   5.153  -0.273 -0.3630  0.4238 -0.0766
  942MOL0     C27054   6.085   5.241  -0.301  0.8234  0.7127 -0.1481
  942MOL0     C27055   6.090   5.386  -0.288 -0.0253 -0.9048 -0.0090
  942MOL0     C27056   5.978   5.448  -0.383  0.9544 -1.0883  0.4114
  942MOL0     C27057   6.008   5.421  -0.543  0.1479  0.5414 -0.6210
  942MOL0     C27058   5.891   5.499  -0.624  0.2902  1.0099  0.8529
  942MOL0     O27059   5.951   5.626  -0.641  0.0720  0.0308  0.4226
  942MOL0     C27060   5.903   5.704  -0.741  0.2756 -0.1548  0.4245
  942MOL0     C27061   5.999   5.765  -0.813 -0.0699  0.3734  0.7757
  942MOL0     C27062   5.976   5.841  -0.930 -0.6771  0.3920 -1.0011
  942MOL0     C27063   6.099   5.893  -0.998 -0.3340  0.5716 -0.8287
  942MOL0     C27064   5.842   5.847  -0.980 -0.4230  0.8768 -0.3501
  942MOL0     C27065   5.812   5.920  -1.104  1.1454  0.1312 -0.4085
  942MOL0     O27066   5.684   5.916  -1.154 -0.2699 -0.2015 -1.9655
  942MOL0     C27067   5.661   5.971  -1.273  0.3345  0.3975  0.3548
  942MOL0     C27068   5.638   5.889  -1.392 -0.5771  0.5079  0.5608
  942MOL0     C27069   5.593   5.945  -1.513 -0.1424  0.0622 -0.6246
  942MOL0     C27070   5.584   6.082  -1.528 -0.5564  0.0226  0.2373
  942MOL0     O27071   5.543   6.132  -1.641  0.8205 -0.4190  0.0208
  942MOL0     C27072   5.600   6.247  -1.690  0.1739 -0.3177 -0.2307
  942MOL0     C27073   5.738   6.219  -1.756  0.9459 -0.3631 -0.1017
  942MOL0     C27074   5.725   6.171  -1.896 -0.6981 -1.0390 -0.2713
  942MOL0     C27075   5.835   6.083  -1.944 -0.1571 -0.3373 -0.3844
  942MOL0     C27076   5.976   6.145  -1.931 -0.6246  0.0375 -1.1342
  942MOL0     C27077   6.074   6.064  -2.021 -0.5943  0.0040 -0.2292
  942MOL0     C27078   6.206   6.145  -2.032 -0.2952 -0.9440  0.4613
  942MOL0     C27079   6.324   6.058  -2.090 -0.1303 -0.3948 -0.4223
  942MOL0    Cl27080   6.294   6.004  -2.259 -0.0909  0.1282 -0.5579
  942MOL0     C27081   5.614   6.166  -1.414  1.6822  0.2131 -0.8290
  942MOL0     C27082   5.647   6.104  -1.284 -0.1377  0.2757  0.2121
  942MOL0     O27083   5.906   5.985  -1.153  1.0720 -0.4228 -0.5377
  942MOL0     C27084   5.738   5.780  -0.902 -0.2549  0.0102  1.8449
  942MOL0     C27085   5.768   5.717  -0.784 -0.5069  0.9139 -0.0486
  942MOL0     N27086   6.194   5.160  -0.333 -0.5602  0.0250  0.8452
  942MOL0     N27087   6.150   5.038  -0.337 -0.6808 -0.2525 -0.1561
  942MOL0     C27088   5.927   5.282   0.580 -0.0684  0.7798 -0.1379
  942MOL0     C27089   5.964   5.379   0.671  0.2985  0.5407  0.4554
  942MOL0     C27090   6.154   5.588   1.028  0.5153  0.2352 -0.4817
  942MOL0     C27091   6.103   5.638   1.147 -0.0804  0.1643 -0.7261
  942MOL0     C27092   6.175   5.744   1.208  0.2805  0.3980 -0.0389
  942MOL0     C27093   6.290   5.803   1.149  0.9286  1.2051 -0.4056
  942MOL0     O27094   6.329   5.927   1.213  0.0495  0.0979 -0.3190
  942MOL0     C27095   6.450   5.989   1.160  0.5360  0.3896 -0.5393
  942MOL0     C27096   6.489   6.105   1.268 -0.8673  0.5799 -0.4911
  942MOL0     C27097   6.577   6.212   1.210 -0.2555 -0.6720 -0.3921
  942MOL0     C27098   6.730   6.190   1.186  0.7565  1.0650 -0.5297
  942MOL0     C27099   6.793   6.147   1.313  0.4945 -0.7858  0.0632
  942MOL0     C27100   6.848   6.126   1.422 -0.0416  1.0530  0.4268
  942MOL0     C27101   6.340   5.749   1.031 -0.0256 -0.5055 -0.4261
  942MOL0     C27102   6.267   5.645   0.965  0.1219 -0.0963 -0.9331
  942MOL0     H27103   6.242   5.210   0.799  1.5190  2.3798  0.3366
  942MOL0     H27104   6.138   5.034   0.674  1.3141 -0.0794  3.7263
  942MOL0     H27105   5.755   5.073   0.505 -0.3933 -1.8224  0.6815
  942MOL0     H27106   5.834   5.088   0.348 -1.1316  3.0288  1.5751
  942MOL0     H27107   5.819   4.815   0.482  0.0248 -1.4446 -1.0136
  942MOL0     H27108   5.717   4.892   0.350  0.9923  1.4304 -0.1770
  942MOL0     H27109   6.017   4.866   0.336  0.3316  0.5847 -0.0814
  942MOL0     H27110   5.916   4.720   0.313  0.6994 -0.1382 -0.5396
  942MOL0     H27111   5.795   4.843   0.145 -1.3581  0.5831 -1.4416
  942MOL0     H27112   5.922   4.966   0.126 -1.6746 -0.5340 -1.8955
  942MOL0     H27113   6.068   4.726   0.124 -0.2526 -0.4796 -0.5568
  942MOL0     H27114   5.917   4.680   0.054  1.7142 -0.1594  0.0253
  942MOL0     H27115   6.061   4.932  -0.040 -2.1506 -0.0544  0.6716
  942MOL0     H27116   6.090   4.766  -0.110  0.2050  0.4191 -1.2251
  942MOL0     H27117   5.845   4.757  -0.141 -0.7329  0.1209 -1.0355
  942MOL0     H27118   5.828   4.929  -0.106  1.1194  1.0625 -2.1393
  942MOL0     H27119   5.859   4.911  -0.349  0.4848 -0.7857 -1.3074
  942MOL0     H27120   5.999   4.812  -0.325 -1.8027  0.0526 -1.9202
  942MOL0     H27121   5.880   5.185  -0.245 -1.2787  0.8762 -3.3743
  942MOL0     H27122   6.069   5.420  -0.187  1.1514 -0.8964  0.2493
  942MOL0     H27123   6.192   5.415  -0.315  0.8043 -3.5480  0.0491
  942MOL0     H27124   5.981   5.557  -0.373 -1.3561 -0.9785  0.5595
  942MOL0     H27125   5.876   5.426  -0.350  0.8959  2.4553  3.1715
  942MOL0     H27126   6.002   5.313  -0.560  2.6591  0.6821 -3.2648
  942MOL0     H27127   6.108   5.454  -0.574  0.9789 -1.8215 -0.5928
  942MOL0     H27128   5.790   5.510  -0.583 -0.7768  0.7968 -1.5487
  942MOL0     H27129   5.870   5.449  -0.719  1.9395  0.3118  0.8154
  942MOL0     H27130   6.102   5.760  -0.780 -0.6783 -0.5945  2.6967
  942MOL0     H27131   6.196   5.863  -0.955  0.1599 -1.3569 -3.0821
  942MOL0     H27132   6.100   5.857  -1.101  1.0291  0.4433 -0.7919
  942MOL0     H27133   6.097   6.002  -0.997 -1.6408  0.5817  0.9555
  942MOL0     H27134   5.646   5.782  -1.381  1.9090  0.3202 -1.8783
  942MOL0     H27135   5.571   5.872  -1.591  1.7978 -2.9137  1.3928
  942MOL0     H27136   5.549   6.294  -1.775 -2.2165 -0.1164  1.2085
  942MOL0     H27137   5.608   6.321  -1.610 -2.6421  2.2236 -2.0735
  942MOL0     H27138   5.787   6.317  -1.746  0.8602 -0.3496  0.2047
  942MOL0     H27139   5.807   6.152  -1.704 -0.2655 -1.5622  0.0125
  942MOL0     H27140   5.731   6.269  -1.946 -0.9148 -1.2250 -0.6707
  942MOL0     H27141   5.631   6.117  -1.912  0.2678 -2.4113 -1.6487
  942MOL0     H27142   5.814   5.988  -1.895 -1.3631  0.5040  0.8047
  942MOL0     H27143   5.825   6.078  -2.053 -0.8626  0.4507 -0.3702
  942MOL0     H27144   6.010   6.161  -1.828  2.8158  2.5369 -2.4786
  942MOL0     H27145   5.963   6.250  -1.961 -0.9297  0.8577  1.5336
  942MOL0     H27146   6.089   5.969  -1.968 -2.6627  0.4513  1.2672
  942MOL0     H27147   6.033   6.042  -2.120 -0.9679  3.2203 -0.9137
  942MOL0     H27148   6.231   6.192  -1.937 -2.6355  0.8600  0.2807
  942MOL0     H27149   6.201   6.231  -2.100  1.9211 -0.9968  0.1559
  942MOL0     H27150   6.328   5.970  -2.025  0.7841 -0.0080  0.0551
  942MOL0     H27151   6.416   6.116  -2.087  0.3297 -1.1215 -0.1559
  942MOL0     H27152   5.594   6.271  -1.429  1.0926  0.4978  1.4652
  942MOL0     H27153   5.663   6.173  -1.201  1.2096  1.8353 -1.2520
  942MOL0     H27154   5.637   5.789  -0.940  0.8751  1.4536 -1.0939
  942MOL0     H27155   5.688   5.663  -0.733 -1.2324  0.1384 -1.9267
  942MOL0     H27156   5.847   5.303   0.510 -1.6730 -1.6445  0.8354
  942MOL0     H27157   5.898   5.465   0.668  0.1391  0.4138 -2.1569
  942MOL0     H27158   6.015   5.590   1.188  0.9636 -0.0538  1.4104
  942MOL0     H27159   6.138   5.800   1.293  2.9423  0.8071  0.9491
  942MOL0     H27160   6.533   5.918   1.166  2.4904  2.3878 -2.0617
  942MOL0     H27161   6.450   6.033   1.060  2.1540  2.1401  0.1716
  942MOL0     H27162   6.548   6.054   1.344 -0.1128  1.8137 -0.2265
  942MOL0     H27163   6.398   6.141   1.317 -0.2077  0.1608  1.0766
  942MOL0     H27164   6.562   6.308   1.259  1.6359  0.5869 -2.1157
  942MOL0     H27165   6.540   6.231   1.109 -0.9103  1.1584  0.1566
  942MOL0     H27166   6.771   6.286   1.155 -0.5530  1.6394 -0.5375
  942MOL0     H27167   6.746   6.111   1.112 -0.1118  0.9269 -0.5872
  942MOL0     H27168   6.879   6.101   1.521 -0.2428 -2.2576 -0.1971
  942MOL0     H27169   6.430   5.785   0.981 -0.8374 -1.1524 -2.4716
  942MOL0     H27170   6.291   5.611   0.864 -1.2742 -0.0195 -1.3067
  943MOL0     O27171   0.420   1.370   8.508 -0.5160 -0.7173 -0.3981
  943MOL0     C27172   0.326   1.333   8.440 -0.0354  0.0896  0.3695
  943MOL0     O27173   0.311   1.366   8.307 -0.5855 -0.0009 -0.0829
  943MOL0     C27174   0.396   1.464   8.262  0.1278 -0.1146  0.5503
  943MOL0     C27175   0.489   1.432   8.160  0.4934 -0.2449 -0.5790
  943MOL0     C27176   0.570   1.535   8.110  0.1984 -0.9010 -0.0803
  943MOL0     C27177   0.579   1.657   8.168  0.9893 -0.3309  0.4022
  943MOL0     O27178   0.658   1.753   8.122 -0.2025  0.4229  0.5780
  943MOL0     C27179   0.777   1.729   8.054  0.0096  0.6635 -0.0757
  943MOL0     C27180   0.875   1.663   8.159  0.1816  0.0240  0.4026
  943MOL0     C27181   0.892   1.744   8.292 -0.1105 -0.2530  0.0005
  943MOL0     C27182   0.937   1.885   8.277  0.2699 -0.9095 -0.3725
  943MOL0     C27183   0.927   1.963   8.412  0.0767  0.3219 -0.1667
  943MOL0     C27184   0.973   2.119   8.412 -0.6829  0.4319 -0.0052
  943MOL0     C27185   0.910   2.201   8.295 -0.2451  0.4173 -0.0300
  943MOL0     C27186   0.924   2.349   8.314 -0.2294  0.1895 -0.1737
  943MOL0     N27187   0.930   2.411   8.183  0.5867 -0.8448 -0.2233
  943MOL0     C27188   0.821   2.436   8.097 -0.6203  0.5894 -0.3137
  943MOL0     C27189   0.874   2.502   7.992 -0.1972  0.2064 -0.6421
  943MOL0     C27190   0.804   2.539   7.860 -0.8440 -0.0337 -0.8475
  943MOL0     C27191   0.690   2.451   7.811  0.3994 -1.3863 -0.3152
  943MOL0     C27192   0.595   2.510   7.709  0.2157 -0.2881 -0.5072
  943MOL0     C27193   0.476   2.433   7.672  0.1473  0.1955 -0.9678
  943MOL0     O27194   0.501   2.302   7.613 -0.3518  0.0541 -0.1994
  943MOL0     C27195   0.383   2.224   7.606 -0.6866  1.3184  0.9804
  943MOL0     C27196   0.405   2.081   7.614  0.5677 -0.0401 -0.3278
  943MOL0     C27197   0.301   1.994   7.618  0.1095 -0.3789  0.7202
  943MOL0     C27198   0.340   1.851   7.635 -0.6296 -0.3590 -0.1015
  943MOL0     C27199   0.165   2.043   7.602  0.5001 -0.8229 -0.0563
  943MOL0     C27200   0.044   1.960   7.596  0.1079  0.0033 -0.5031
  943MOL0     O27201   0.068   1.825   7.592  0.9682 -0.0581  0.0114
  943MOL0     C27202  -0.046   1.737   7.574 -1.0631 -0.0900 -0.1113
  943MOL0     C27203  -0.050   1.618   7.643  0.5000 -0.8618 -0.0360
  943MOL0     C27204  -0.157   1.536   7.652  0.8815  0.9452  0.9837
  943MOL0     C27205  -0.270   1.566   7.576  0.1137 -0.2844 -0.2625
  943MOL0     O27206  -0.390   1.504   7.571 -0.5965  0.1281 -1.2322
  943MOL0     C27207  -0.443   1.452   7.693  0.4090 -0.2158  0.2689
  943MOL0     C27208  -0.435   1.295   7.706  0.1634 -0.0459 -0.7364
  943MOL0     C27209  -0.526   1.209   7.619 -0.0035  0.2445 -1.0586
  943MOL0     C27210  -0.661   1.196   7.696 -0.5471  0.4254 -0.1857
  943MOL0     C27211  -0.770   1.138   7.606 -0.1071  0.7560 -0.7081
  943MOL0     C27212  -0.890   1.101   7.690  0.0744  0.4545 -0.2886
  943MOL0     C27213  -1.003   1.035   7.598  0.3600 -0.6525  0.9462
  943MOL0     C27214  -0.970   0.921   7.500  0.0089  1.0978  0.1099
  943MOL0    Cl27215  -1.119   0.865   7.419  0.0186  0.1406 -0.3954
  943MOL0     C27216  -0.276   1.690   7.506 -0.1766  0.8494 -0.0692
  943MOL0     C27217  -0.164   1.770   7.498  0.0437 -0.6305  0.6491
  943MOL0     O27218  -0.063   2.022   7.579 -0.2049 -0.4812  0.0413
  943MOL0     C27219   0.144   2.183   7.597  0.5361  0.2968  0.1148
  943MOL0     C27220   0.257   2.271   7.591  0.7267 -0.6882 -0.4536
  943MOL0     N27221   1.009   2.525   8.026 -0.8975 -0.2141 -0.1702
  943MOL0     N27222   1.042   2.469   8.140 -0.0653  0.1322 -0.2514
  943MOL0     C27223   0.486   1.689   8.267  0.7178  0.0986  0.7974
  943MOL0     C27224   0.392   1.593   8.311  0.7861  0.3024  0.5974
  943MOL0     C27225   0.241   1.221   8.486  0.8946  0.0240 -0.5301
  943MOL0     C27226   0.149   1.139   8.414  0.0130 -0.7636 -0.0195
  943MOL0     C27227   0.057   1.049   8.476 -0.4115  0.0049  0.0154
  943MOL0     C27228   0.055   1.051   8.617 -0.4225 -0.0715  0.4649
  943MOL0     O27229  -0.035   0.987   8.693  0.3434 -0.9247 -0.5202
  943MOL0     C27230  -0.171   0.992   8.654  0.1428  0.3267 -0.6624
  943MOL0     C27231  -0.240   1.120   8.597  0.2962 -0.2856 -0.8285
  943MOL0     C27232  -0.379   1.076   8.561 -0.9166 -0.4601  0.4318
  943MOL0     C27233  -0.473   1.177   8.506 -0.0318  0.0270  0.2562
  943MOL0     C27234  -0.488   1.297   8.591 -0.0056 -0.2677 -0.2719
  943MOL0     C27235  -0.485   1.391   8.675 -0.3405  1.0151  0.0370
  943MOL0     C27236   0.156   1.103   8.691 -0.3149  0.0290 -0.2530
  943MOL0     C27237   0.251   1.192   8.632  1.2385  0.5005  0.8211
  943MOL0     H27238   0.500   1.330   8.123 -0.4997 -1.1018  1.3200
  943MOL0     H27239   0.633   1.503   8.029  1.3602 -0.8341  0.7786
  943MOL0     H27240   0.768   1.679   7.957 -0.2987  0.2046  0.1860
  943MOL0     H27241   0.825   1.824   8.030 -0.2307  0.4200 -1.5941
  943MOL0     H27242   0.834   1.564   8.184 -1.6848 -0.2731 -3.1382
  943MOL0     H27243   0.971   1.643   8.112 -1.0338 -2.2035 -1.3365
  943MOL0     H27244   0.799   1.751   8.349  1.6486 -1.3046  3.2747
  943MOL0     H27245   0.961   1.702   8.366  1.4840  0.7702 -0.8363
  943MOL0     H27246   1.045   1.886   8.262  0.5315  1.4329  1.2108
  943MOL0     H27247   0.879   1.944   8.206 -3.8170 -0.9212  2.5764
  943MOL0     H27248   0.820   1.961   8.434 -0.2633  3.0687 -1.2359
  943MOL0     H27249   0.988   1.899   8.478  0.1189  0.9830  0.4479
  943MOL0     H27250   0.938   2.163   8.506  2.2445  1.6086  0.6559
  943MOL0     H27251   1.081   2.134   8.415 -0.8414  2.2063 -1.5086
  943MOL0     H27252   0.960   2.168   8.204  0.7684 -3.8189  1.7899
  943MOL0     H27253   0.801   2.186   8.292 -0.3006  0.6467  0.6270
  943MOL0     H27254   1.012   2.371   8.375 -1.8141  3.2850  1.1778
  943MOL0     H27255   0.837   2.393   8.362  1.3522  2.0162  1.1602
  943MOL0     H27256   0.719   2.403   8.114  0.0183 -1.3592 -0.0906
  943MOL0     H27257   0.757   2.638   7.858  0.8694  0.8398 -0.0273
  943MOL0     H27258   0.884   2.553   7.786  2.9234 -1.3072  2.6434
  943MOL0     H27259   0.628   2.424   7.898  0.9088 -0.5786  0.3079
  943MOL0     H27260   0.726   2.356   7.770 -0.4969 -0.3912 -3.7358
  943MOL0     H27261   0.655   2.518   7.617  0.1260 -1.4507 -0.6862
  943MOL0     H27262   0.570   2.602   7.762 -0.9622 -1.0919  0.3667
  943MOL0     H27263   0.428   2.498   7.598 -0.5287 -0.1965 -0.8830
  943MOL0     H27264   0.404   2.426   7.755  1.1014 -2.0078 -0.2676
  943MOL0     H27265   0.511   2.068   7.632  0.9743  3.7521  1.0675
  943MOL0     H27266   0.285   1.797   7.712 -2.5401 -1.3237 -2.0369
  943MOL0     H27267   0.320   1.786   7.549  0.5829 -2.0138  0.8201
  943MOL0     H27268   0.448   1.844   7.652 -0.1810 -1.3011 -2.8012
  943MOL0     H27269   0.040   1.594   7.698  1.1936  2.2614  0.3977
  943MOL0     H27270  -0.160   1.439   7.701  1.1343  0.2220 -0.3596
  943MOL0     H27271  -0.398   1.496   7.782  4.3972  0.4534 -1.8478
  943MOL0     H27272  -0.548   1.482   7.684  0.0386 -1.3629  0.5171
  943MOL0     H27273  -0.334   1.269   7.674  0.0778 -1.6449  0.1838
  943MOL0     H27274  -0.453   1.272   7.811 -1.0331  1.5570 -0.5500
  943MOL0     H27275  -0.472   1.115   7.604  2.5252  1.0837  1.7370
  943MOL0     H27276  -0.541   1.271   7.530  0.0959  2.3051  0.2801
  943MOL0     H27277  -0.639   1.121   7.773 -0.3314 -2.0549 -2.4883
  943MOL0     H27278  -0.690   1.295   7.732  3.6275  1.2186  1.5235
  943MOL0     H27279  -0.724   1.062   7.543 -0.0530 -0.8949  1.2133
  943MOL0     H27280  -0.799   1.218   7.537 -0.5324 -0.1133 -1.5578
  943MOL0     H27281  -0.872   1.028   7.770  1.5963  0.3819 -0.6735
  943MOL0     H27282  -0.927   1.189   7.742 -0.0046 -1.0338  2.3474
  943MOL0     H27283  -1.059   1.107   7.538 -2.0607 -1.7515  1.7550
  943MOL0     H27284  -1.072   1.006   7.678 -0.6008  0.7996  0.6791
  943MOL0     H27285  -0.936   0.837   7.560 -2.5058 -0.1229 -0.0639
  943MOL0     H27286  -0.888   0.943   7.431  0.4513  2.7178  1.0960
  943MOL0     H27287  -0.351   1.727   7.437  1.4768  1.5011 -1.5935
  943MOL0     H27288  -0.169   1.859   7.436  0.3156 -2.0633 -1.5534
  943MOL0     H27289   0.047   2.230   7.587  0.2060 -0.3339  0.2933
  943MOL0     H27290   0.244   2.379   7.587  1.8846 -0.5157  0.0151
  943MOL0     H27291   0.478   1.789   8.310 -0.9033  0.3687 -0.0427
  943MOL0     H27292   0.311   1.610   8.381 -2.1780  1.0025 -2.7010
  943MOL0     H27293   0.157   1.152   8.306  0.7188  1.2934  0.2332
  943MOL0     H27294  -0.008   0.983   8.420 -0.3592 -1.5173  1.6677
  943MOL0     H27295  -0.178   0.911   8.581  3.1665  0.6907 -1.4966
  943MOL0     H27296  -0.225   0.964   8.745 -1.2200  1.3780 -1.1043
  943MOL0     H27297  -0.189   1.157   8.507 -1.4287  0.8595 -1.3964
  943MOL0     H27298  -0.234   1.201   8.670 -0.4252 -0.3822 -0.6561
  943MOL0     H27299  -0.424   1.037   8.653  0.6439 -0.5903  1.1643
  943MOL0     H27300  -0.365   0.997   8.486  0.0288 -1.6416  1.7807
  943MOL0     H27301  -0.572   1.131   8.496 -0.6274  0.8169  2.0916
  943MOL0     H27302  -0.449   1.219   8.408 -2.2471  0.6175 -0.0868
  943MOL0     H27303  -0.495   1.486   8.724 -0.8644  1.0485 -0.1294
  943MOL0     H27304   0.161   1.070   8.794 -3.1121 -0.6104 -0.2315
  943MOL0     H27305   0.326   1.246   8.688  0.3308  3.9430 -0.9406
  944MOL0     O27306   5.245   1.533   4.662 -0.2692 -0.3128  0.4707
  944MOL0     C27307   5.335   1.506   4.586 -0.3271  0.0246 -0.3450
  944MOL0     O27308   5.467   1.510   4.616 -0.1500 -0.4815 -0.0570
  944MOL0     C27309   5.515   1.540   4.738  0.2375 -0.6806  0.2548
  944MOL0     C27310   5.458   1.622   4.834 -0.6052  0.0672  0.6863
  944MOL0     C27311   5.524   1.634   4.954 -0.2375 -0.7100 -0.0421
  944MOL0     C27312   5.624   1.549   4.998 -0.1185  0.0589  0.2395
  944MOL0     O27313   5.692   1.586   5.122  0.0373 -0.1885  0.0251
  944MOL0     C27314   5.809   1.517   5.176  0.1015 -0.1328 -0.0894
  944MOL0     C27315   5.829   1.532   5.321 -0.2227 -0.3480 -0.0191
  944MOL0     C27316   5.750   1.435   5.403  0.2130  0.4352  0.3370
  944MOL0     C27317   5.799   1.432   5.545  1.5412  0.0981  0.4464
  944MOL0     C27318   5.781   1.568   5.619 -0.0753  0.4961  0.1758
  944MOL0     C27319   5.839   1.588   5.769 -0.8358  0.3152  1.0311
  944MOL0     C27320   5.849   1.465   5.858  0.1227  0.5679 -0.5295
  944MOL0     C27321   5.948   1.483   5.974 -0.9386  0.0194  0.4337
  944MOL0     N27322   6.076   1.421   5.919  0.4821  0.4278 -0.0689
  944MOL0     C27323   6.155   1.490   5.830 -0.1354 -0.1995 -0.4781
  944MOL0     C27324   6.264   1.414   5.807 -0.0274  0.3319 -0.3457
  944MOL0     C27325   6.388   1.455   5.731 -0.1823 -0.7895  0.8808
  944MOL0     C27326   6.345   1.511   5.594 -0.9631  0.4680  0.2354
  944MOL0     C27327   6.465   1.558   5.511  0.7136  0.4565 -0.6562
  944MOL0     C27328   6.420   1.555   5.361  0.8530 -0.1064  0.1516
  944MOL0     O27329   6.319   1.664   5.346 -0.1868  0.5856 -0.3903
  944MOL0     C27330   6.271   1.680   5.228  0.0671 -0.1638 -0.2822
  944MOL0     C27331   6.164   1.762   5.212 -0.3109  0.1169 -0.2727
  944MOL0     C27332   6.112   1.791   5.088 -0.4166 -0.0737  0.4793
  944MOL0     C27333   5.987   1.870   5.092  0.4540 -0.1400 -0.4645
  944MOL0     C27334   6.169   1.733   4.967 -1.0310 -0.2836  0.5848
  944MOL0     C27335   6.116   1.744   4.826  0.4188  1.1917 -0.3221
  944MOL0     O27336   6.017   1.843   4.812 -0.0791 -0.0540  0.5243
  944MOL0     C27337   5.941   1.849   4.698  1.0412 -0.5262 -0.4455
  944MOL0     C27338   5.988   1.893   4.575  0.1442 -0.7013  0.5137
  944MOL0     C27339   5.908   1.907   4.462 -0.5104  0.7797 -0.1612
  944MOL0     C27340   5.781   1.857   4.472  0.3281 -1.0640 -0.2943
  944MOL0     O27341   5.715   1.869   4.350 -0.0560  0.2435  0.7552
  944MOL0     C27342   5.626   1.770   4.314 -0.7418  0.2741 -1.2863
  944MOL0     C27343   5.609   1.770   4.165 -0.0290  0.9659  1.5386
  944MOL0     C27344   5.476   1.830   4.119  0.7724 -0.4413  1.0667
  944MOL0     C27345   5.448   1.986   4.146  0.2887  0.0416 -0.2052
  944MOL0     C27346   5.367   2.047   4.028 -0.9199  0.2500  0.6044
  944MOL0     C27347   5.283   2.174   4.069 -0.0321  0.2045  0.3509
  944MOL0     C27348   5.204   2.234   3.950  0.9904 -0.2094 -0.5133
  944MOL0     C27349   5.133   2.354   3.996 -1.4989  0.3748  0.2205
  944MOL0    Cl27350   5.238   2.479   4.102  0.1803 -0.5737  0.1092
  944MOL0     C27351   5.729   1.804   4.592  0.8209  0.6015 -0.2043
  944MOL0     C27352   5.809   1.804   4.709  0.5710  0.7923  0.1168
  944MOL0     O27353   6.163   1.678   4.737 -0.2240 -0.4986  0.4862
  944MOL0     C27354   6.273   1.637   4.983  0.6095  0.4150 -0.3165
  944MOL0     C27355   6.319   1.608   5.110  0.4374 -0.0252 -0.7573
  944MOL0     N27356   6.246   1.299   5.873  0.9649 -1.1513 -0.2942
  944MOL0     N27357   6.141   1.304   5.950  1.0145 -0.2230  0.1915
  944MOL0     C27358   5.678   1.459   4.909 -0.0519  0.1015  0.1439
  944MOL0     C27359   5.628   1.461   4.779 -0.1589  0.0134  0.2738
  944MOL0     C27360   5.302   1.491   4.441 -0.4531 -0.0495  0.0039
  944MOL0     C27361   5.406   1.494   4.351  0.7776 -0.5043 -0.2310
  944MOL0     C27362   5.380   1.478   4.218  0.0989  0.0881 -0.5102
  944MOL0     C27363   5.252   1.464   4.171 -0.2745 -0.8515  0.4680
  944MOL0     O27364   5.223   1.435   4.037  0.0939  0.3599  0.0773
  944MOL0     C27365   5.123   1.501   3.975  0.0001 -0.3813 -0.8748
  944MOL0     C27366   5.131   1.471   3.825 -0.2360 -0.4179 -0.2183
  944MOL0     C27367   5.228   1.554   3.734 -0.0180  0.3207  0.9380
  944MOL0     C27368   5.205   1.711   3.758 -0.3670 -0.3086  0.1661
  944MOL0     C27369   5.254   1.794   3.653 -0.8862  0.3876 -0.1450
  944MOL0     C27370   5.307   1.859   3.567 -0.3497  1.1903 -0.6474
  944MOL0     C27371   5.145   1.484   4.260  1.2978 -0.2290  0.2660
  944MOL0     C27372   5.170   1.482   4.394  0.2236  0.1477  1.2726
  944MOL0     H27373   5.374   1.685   4.806 -1.9288 -0.6881  2.7480
  944MOL0     H27374   5.490   1.708   5.026  0.0141 -1.1553  0.5453
  944MOL0     H27375   5.799   1.414   5.140 -6.2726 -0.4622  1.3910
  944MOL0     H27376   5.900   1.563   5.135 -0.3843  2.8160  1.8537
  944MOL0     H27377   5.937   1.538   5.337 -0.1518  0.6908 -0.7641
  944MOL0     H27378   5.789   1.630   5.345  2.6485  1.6814 -2.6891
  944MOL0     H27379   5.650   1.478   5.405 -0.3535 -0.8867  1.4330
  944MOL0     H27380   5.761   1.336   5.357 -0.5309  0.6902 -0.4033
  944MOL0     H27381   5.749   1.352   5.600  1.6835 -0.5802 -0.3859
  944MOL0     H27382   5.904   1.403   5.538  1.1369 -1.3052 -0.5596
  944MOL0     H27383   5.821   1.652   5.562  0.9807  0.7687  1.2774
  944MOL0     H27384   5.674   1.592   5.620 -0.1278  0.2889 -0.1614
  944MOL0     H27385   5.938   1.625   5.740 -0.9120  0.0247  0.3763
  944MOL0     H27386   5.789   1.667   5.825 -0.4391  1.7388 -0.5518
  944MOL0     H27387   5.752   1.456   5.907  0.0760 -0.8778 -0.8395
  944MOL0     H27388   5.874   1.374   5.803  0.2636  0.5034 -0.3606
  944MOL0     H27389   5.909   1.435   6.064  0.0390 -2.6611 -0.4690
  944MOL0     H27390   5.974   1.585   6.001  0.0775  0.7612 -2.8636
  944MOL0     H27391   6.139   1.592   5.797  2.2961  0.1965 -0.6345
  944MOL0     H27392   6.443   1.534   5.783 -0.9302  0.5180 -0.2474
  944MOL0     H27393   6.453   1.368   5.721 -0.8203 -1.0638 -1.3233
  944MOL0     H27394   6.273   1.593   5.597 -2.9225 -1.0820 -1.4128
  944MOL0     H27395   6.280   1.437   5.548 -3.7950  2.0649  1.4439
  944MOL0     H27396   6.548   1.496   5.545  0.2990  2.2138  4.3050
  944MOL0     H27397   6.498   1.659   5.536  0.2548  1.1064 -2.4934
  944MOL0     H27398   6.377   1.461   5.327 -0.1824  0.7145 -0.9010
  944MOL0     H27399   6.498   1.585   5.290 -0.8888  1.0091 -1.3910
  944MOL0     H27400   6.125   1.807   5.303  2.0556 -1.7372  1.7703
  944MOL0     H27401   6.002   1.975   5.065 -0.6039  0.7763  2.1484
  944MOL0     H27402   5.906   1.834   5.028 -0.3115 -0.3924  0.6166
  944MOL0     H27403   5.955   1.872   5.197  3.0552 -2.1203  0.4745
  944MOL0     H27404   6.093   1.918   4.568 -0.0216  0.2973  1.4198
  944MOL0     H27405   5.951   1.932   4.365 -1.1645 -0.0422 -0.6835
  944MOL0     H27406   5.661   1.671   4.345  3.1679  0.8685 -3.1883
  944MOL0     H27407   5.527   1.785   4.360 -0.1501 -3.0812  1.5065
  944MOL0     H27408   5.690   1.837   4.132 -0.9756  2.1084  1.4773
  944MOL0     H27409   5.619   1.669   4.124 -0.7503  1.1804  0.8208
  944MOL0     H27410   5.394   1.782   4.173  1.0345  1.0046  2.8573
  944MOL0     H27411   5.475   1.811   4.011 -1.0452 -1.9666  1.3100
  944MOL0     H27412   5.400   1.994   4.243  3.8648  2.4147  1.5715
  944MOL0     H27413   5.538   2.045   4.165  0.5467 -0.8077  1.3234
  944MOL0     H27414   5.305   1.968   3.987 -0.4072  0.4957 -0.6921
  944MOL0     H27415   5.424   2.078   3.940 -2.1354  0.8628  0.0040
  944MOL0     H27416   5.218   2.151   4.154 -0.0437  1.3114  0.6490
  944MOL0     H27417   5.355   2.244   4.113  0.2620  0.0191  0.1748
  944MOL0     H27418   5.138   2.168   3.893 -1.1341  1.7969 -0.5406
  944MOL0     H27419   5.283   2.272   3.884  1.3855  0.4018  0.2998
  944MOL0     H27420   5.041   2.323   4.047 -0.2418  2.7100  4.3012
  944MOL0     H27421   5.092   2.409   3.910 -2.4976 -1.1067 -0.2943
  944MOL0     H27422   5.627   1.769   4.604  1.0350 -1.0918 -2.5140
  944MOL0     H27423   5.764   1.764   4.799 -0.9228 -2.5752 -1.8942
  944MOL0     H27424   6.322   1.592   4.897  1.1035  0.5092 -0.0919
  944MOL0     H27425   6.396   1.533   5.101 -0.6456 -0.9593 -3.2397
  944MOL0     H27426   5.769   1.404   4.931  1.4355  2.6656  0.9011
  944MOL0     H27427   5.694   1.408   4.712  1.2235  1.2652  0.5909
  944MOL0     H27428   5.508   1.511   4.384  1.0920 -2.5917 -0.0010
  944MOL0     H27429   5.464   1.457   4.154 -0.2157 -2.3235 -0.2388
  944MOL0     H27430   5.025   1.475   4.016  0.4599  1.0563  1.3403
  944MOL0     H27431   5.120   1.609   3.989 -1.0887 -0.1969 -2.3889
  944MOL0     H27432   5.030   1.482   3.784 -0.3804 -2.1504 -0.4156
  944MOL0     H27433   5.156   1.365   3.810  1.1438 -0.2394  0.6451
  944MOL0     H27434   5.224   1.522   3.629  1.0498  0.9964  0.6780
  944MOL0     H27435   5.326   1.517   3.765 -0.4967 -0.5937  1.4027
  944MOL0     H27436   5.257   1.734   3.851 -0.0794 -1.8017  0.4072
  944MOL0     H27437   5.099   1.732   3.771 -0.6208 -1.9758  1.0377
  944MOL0     H27438   5.357   1.924   3.498 -2.5032  2.4112 -1.1573
  944MOL0     H27439   5.039   1.486   4.235  1.6221  2.5713 -1.2893
  944MOL0     H27440   5.079   1.500   4.451  0.4044 -0.0283  1.6163
  945MOL0     O27441   2.176   3.403   7.516 -0.3398 -0.3521  0.6222
  945MOL0     C27442   2.112   3.369   7.415  0.1471 -0.2318 -0.0923
  945MOL0     O27443   2.170   3.334   7.299 -0.8477  0.4555  0.0845
  945MOL0     C27444   2.308   3.323   7.289  0.2033 -0.9024  0.2425
  945MOL0     C27445   2.380   3.396   7.194  0.5390  0.1394 -0.4990
  945MOL0     C27446   2.516   3.384   7.191  0.5641  0.6035 -0.3144
  945MOL0     C27447   2.587   3.305   7.282 -0.4501 -0.9977 -0.7041
  945MOL0     O27448   2.722   3.324   7.277 -0.2120  0.4844  0.2466
  945MOL0     C27449   2.796   3.207   7.293 -0.4157  0.9647  0.2785
  945MOL0     C27450   2.885   3.199   7.173 -0.9505 -0.1726  0.6192
  945MOL0     C27451   2.969   3.070   7.164  1.2103 -0.3828 -1.3032
  945MOL0     C27452   3.047   3.041   7.040  1.0383 -0.2064  0.1282
  945MOL0     C27453   3.124   2.902   7.054  0.7954 -0.3674 -0.9645
  945MOL0     C27454   3.217   2.868   6.938 -0.0893  0.2068  0.2419
  945MOL0     C27455   3.305   2.756   6.989  0.1026 -0.1050  0.2746
  945MOL0     C27456   3.405   2.715   6.882 -0.6757 -0.6159 -0.1325
  945MOL0     N27457   3.500   2.609   6.934 -0.3817 -0.3222 -0.3845
  945MOL0     C27458   3.634   2.608   6.920  0.3701  0.8976  0.9509
  945MOL0     C27459   3.680   2.498   7.001 -0.5860  0.3019  1.3115
  945MOL0     C27460   3.830   2.453   7.012  0.2012  0.0447 -0.6140
  945MOL0     C27461   3.856   2.317   7.082  0.0225 -0.5952 -0.3164
  945MOL0     C27462   3.990   2.246   7.057 -0.2001 -0.5888  0.2256
  945MOL0     C27463   4.107   2.341   7.104 -0.4649 -0.8886 -0.2878
  945MOL0     O27464   4.241   2.314   7.052  0.2172  0.3154  0.6270
  945MOL0     C27465   4.313   2.208   7.085  0.2809 -0.1499 -0.6676
  945MOL0     C27466   4.275   2.097   7.166 -0.0997  0.5595 -0.0441
  945MOL0     C27467   4.372   2.001   7.179 -0.5554 -0.2233 -0.4214
  945MOL0     C27468   4.336   1.877   7.262  0.3546 -0.9875  0.0488
  945MOL0     C27469   4.504   2.017   7.135  0.5012  0.2605  0.6775
  945MOL0     C27470   4.606   1.913   7.150 -0.1695  0.0604  0.3784
  945MOL0     O27471   4.623   1.860   7.270 -0.1403 -0.0142  0.4300
  945MOL0     C27472   4.714   1.751   7.294  0.7199  0.2230  0.4485
  945MOL0     C27473   4.859   1.754   7.266  0.2132  0.0362  0.3217
  945MOL0     C27474   4.946   1.647   7.287 -0.1398  0.5442 -0.7126
  945MOL0     C27475   4.895   1.537   7.349 -1.1072 -0.2209 -0.1225
  945MOL0     O27476   4.975   1.433   7.401  1.0214  0.6486 -0.2853
  945MOL0     C27477   5.119   1.431   7.374 -0.0696  0.1574  1.2794
  945MOL0     C27478   5.161   1.395   7.230  0.6817  0.7968 -0.2610
  945MOL0     C27479   5.187   1.245   7.222 -0.5347  0.1115 -0.3354
  945MOL0     C27480   5.333   1.199   7.257 -0.1419  1.1737 -0.2199
  945MOL0     C27481   5.330   1.097   7.377 -0.7105 -0.8051  0.5646
  945MOL0     C27482   5.474   1.098   7.438 -0.5653 -0.6775 -0.7059
  945MOL0     C27483   5.518   0.962   7.509  0.2439  0.6246 -0.0946
  945MOL0     C27484   5.658   0.914   7.465  0.6251  0.3009  0.5065
  945MOL0    Cl27485   5.694   0.773   7.570 -0.2558 -0.1134 -0.4832
  945MOL0     C27486   4.754   1.528   7.371 -0.2334 -0.2454  0.1917
  945MOL0     C27487   4.668   1.633   7.342 -0.2105 -0.2262 -0.5445
  945MOL0     O27488   4.690   1.899   7.055 -0.3574 -0.5694 -0.5111
  945MOL0     C27489   4.528   2.121   7.055 -0.3473  0.2545 -1.1615
  945MOL0     C27490   4.434   2.220   7.026  0.1726 -0.4624 -0.0637
  945MOL0     N27491   3.565   2.443   7.056 -0.4454  0.3052 -0.1579
  945MOL0     N27492   3.458   2.506   7.022 -0.0357 -0.3314 -0.4381
  945MOL0     C27493   2.518   3.234   7.373 -0.6578 -0.2196  0.2471
  945MOL0     C27494   2.380   3.243   7.379  0.1555 -0.0949 -0.7376
  945MOL0     C27495   1.966   3.411   7.402 -0.5300  0.4208  0.0503
  945MOL0     C27496   1.913   3.512   7.484 -0.4399 -0.0656  0.6849
  945MOL0     C27497   1.776   3.534   7.477 -0.4190 -0.2113  0.0569
  945MOL0     C27498   1.699   3.489   7.375  0.2488  0.6434  0.0619
  945MOL0     O27499   1.565   3.537   7.362  0.3274  0.5205 -0.3740
  945MOL0     C27500   1.547   3.678   7.327  0.2846 -0.9318 -0.3752
  945MOL0     C27501   1.444   3.678   7.204 -0.3783  0.4385  0.0351
  945MOL0     C27502   1.466   3.794   7.093 -1.2411 -0.5186  0.5789
  945MOL0     C27503   1.397   3.758   6.958  0.3854  0.7343 -0.4669
  945MOL0     C27504   1.254   3.721   6.957 -0.0168 -0.4746 -0.0912
  945MOL0     C27505   1.139   3.679   6.965  0.3980 -0.5052  0.7527
  945MOL0     C27506   1.756   3.388   7.294 -1.6788  0.3464  0.1215
  945MOL0     C27507   1.893   3.350   7.304  0.2617  0.4083  0.0625
  945MOL0     H27508   2.333   3.469   7.128  0.8320  1.6811  0.9278
  945MOL0     H27509   2.567   3.438   7.112  2.3228 -0.3933  0.0932
  945MOL0     H27510   2.852   3.225   7.385  2.8568 -0.8964 -1.1612
  945MOL0     H27511   2.738   3.115   7.307  0.0390  0.4333 -1.1419
  945MOL0     H27512   2.826   3.198   7.081  1.3962 -1.8743 -0.9893
  945MOL0     H27513   2.945   3.291   7.178 -1.8376  0.4514  0.0386
  945MOL0     H27514   3.049   3.084   7.237  2.9380  4.0538 -3.6720
  945MOL0     H27515   2.901   2.984   7.173 -0.9394  1.3414 -0.2117
  945MOL0     H27516   2.975   3.036   6.958 -0.1701  0.8293  1.0862
  945MOL0     H27517   3.114   3.124   7.019  2.2905 -1.1096  0.4422
  945MOL0     H27518   3.184   2.918   7.144  0.5819  1.2576 -1.0774
  945MOL0     H27519   3.058   2.817   7.071  2.5288 -1.8930 -1.5471
  945MOL0     H27520   3.160   2.836   6.851  0.9849 -1.9448  0.2572
  945MOL0     H27521   3.278   2.953   6.904 -0.3294  0.2762 -0.0133
  945MOL0     H27522   3.374   2.788   7.067  0.7199  5.7618 -2.1213
  945MOL0     H27523   3.235   2.673   7.003  0.7719 -0.6449  0.4276
  945MOL0     H27524   3.457   2.799   6.836  1.0103 -1.1392  0.7362
  945MOL0     H27525   3.339   2.674   6.805 -3.8329 -0.9066  2.5011
  945MOL0     H27526   3.680   2.663   6.838 -2.0127 -0.6127 -1.6161
  945MOL0     H27527   3.879   2.450   6.914  2.2724 -1.9229  0.3647
  945MOL0     H27528   3.893   2.521   7.070 -0.0437 -1.0980  1.0906
  945MOL0     H27529   3.770   2.261   7.044 -1.3033  1.5621 -0.6978
  945MOL0     H27530   3.843   2.329   7.190 -2.8645 -1.7900 -0.4372
  945MOL0     H27531   3.991   2.229   6.949  1.4642  3.1572 -0.4947
  945MOL0     H27532   4.006   2.154   7.114 -0.2614 -0.9007 -0.2535
  945MOL0     H27533   4.107   2.363   7.211 -0.3133 -0.8339 -0.2985
  945MOL0     H27534   4.081   2.438   7.059 -0.0179 -0.1108  1.0636
  945MOL0     H27535   4.179   2.095   7.217 -0.0052 -0.4648  0.1062
  945MOL0     H27536   4.351   1.784   7.207  0.9121 -1.0265  0.2666
  945MOL0     H27537   4.399   1.873   7.351  0.1704 -2.9364  0.1278
  945MOL0     H27538   4.228   1.896   7.272 -0.0605  0.2154 -4.4528
  945MOL0     H27539   4.889   1.846   7.217 -1.6078 -0.2897 -1.5648
  945MOL0     H27540   5.052   1.654   7.268  0.7027  2.9506  3.6807
  945MOL0     H27541   5.167   1.525   7.403 -0.0048  0.5479 -0.0259
  945MOL0     H27542   5.165   1.361   7.444 -0.2806 -2.7762 -1.3008
  945MOL0     H27543   5.077   1.425   7.166 -2.4214 -1.7608  2.2190
  945MOL0     H27544   5.243   1.459   7.198 -1.6448  3.5622 -1.1074
  945MOL0     H27545   5.177   1.206   7.120  2.5434 -2.4559  0.2014
  945MOL0     H27546   5.110   1.192   7.280 -0.0375 -0.7668 -0.4598
  945MOL0     H27547   5.361   1.147   7.165 -0.2651 -0.5666  0.6903
  945MOL0     H27548   5.398   1.286   7.274  1.2200  0.4661 -1.6114
  945MOL0     H27549   5.298   0.995   7.356  0.6800 -1.2553  0.5751
  945MOL0     H27550   5.257   1.134   7.451  0.5312  1.9709  0.5373
  945MOL0     H27551   5.543   1.114   7.354  2.4443 -0.6261  1.6011
  945MOL0     H27552   5.498   1.184   7.501 -0.8970 -2.4682  2.0145
  945MOL0     H27553   5.443   0.889   7.476  0.5798  1.3596 -2.7603
  945MOL0     H27554   5.517   0.979   7.617  2.8508  0.6719 -0.0362
  945MOL0     H27555   5.745   0.977   7.483  1.5164 -1.2436  1.8193
  945MOL0     H27556   5.650   0.885   7.359  0.4033  2.1150 -0.0072
  945MOL0     H27557   4.710   1.436   7.408  0.9032 -1.0095 -0.2863
  945MOL0     H27558   4.561   1.623   7.357 -0.1274  1.2577  1.4420
  945MOL0     H27559   4.634   2.139   7.036  0.5167 -1.2031  1.6693
  945MOL0     H27560   4.451   2.303   6.959 -3.9565 -0.5744 -1.5261
  945MOL0     H27561   2.563   3.173   7.450  0.1679 -1.8033 -1.4142
  945MOL0     H27562   2.349   3.177   7.459  5.8789 -1.2322  0.9776
  945MOL0     H27563   1.982   3.552   7.558 -0.6508  1.2262  0.2223
  945MOL0     H27564   1.726   3.608   7.539  2.4913  4.1658 -2.2451
  945MOL0     H27565   1.517   3.746   7.407  2.1742  1.0619 -1.2575
  945MOL0     H27566   1.646   3.710   7.294  1.4241 -1.9289  1.8603
  945MOL0     H27567   1.341   3.675   7.241 -0.8636  0.8882 -1.2270
  945MOL0     H27568   1.450   3.581   7.155 -2.1499  0.7615 -0.9101
  945MOL0     H27569   1.571   3.818   7.077 -1.6691 -0.1184 -2.1124
  945MOL0     H27570   1.403   3.880   7.119 -0.3334  0.5840 -0.6856
  945MOL0     H27571   1.449   3.668   6.924 -0.7792  0.4039 -1.4525
  945MOL0     H27572   1.406   3.838   6.884 -3.3269  1.6347 -0.1844
  945MOL0     H27573   1.051   3.619   6.973  1.4329 -1.8344  3.1844
  945MOL0     H27574   1.710   3.352   7.202  0.0309 -1.1682 -0.2243
  945MOL0     H27575   1.932   3.290   7.223  0.0341 -2.8186  2.1836
  946MOL0     O27576   2.832   6.022  10.209 -0.5074 -0.0588 -0.9129
  946MOL0     C27577   2.912   6.063  10.298  0.2912 -0.3775  0.3859
  946MOL0     O27578   3.046   6.083  10.285  0.4043 -0.2491 -0.5648
  946MOL0     C27579   3.097   6.099  10.161 -0.3339 -0.1720 -0.3558
  946MOL0     C27580   3.226   6.053  10.132 -0.5003 -0.8510 -0.5479
  946MOL0     C27581   3.275   6.057   9.999 -0.0977  0.9582  0.1242
  946MOL0     C27582   3.202   6.120   9.900  0.2229  0.0630  0.4250
  946MOL0     O27583   3.242   6.131   9.771 -0.1701  0.3622  0.2626
  946MOL0     C27584   3.373   6.084   9.735  0.1586 -0.3431 -0.2455
  946MOL0     C27585   3.407   6.123   9.595 -0.1528 -0.1622  0.4790
  946MOL0     C27586   3.400   6.276   9.559  0.0781  0.5260 -0.1642
  946MOL0     C27587   3.388   6.290   9.407  0.7973 -0.6780  0.4774
  946MOL0     C27588   3.283   6.392   9.371 -0.1962 -0.9060  0.4619
  946MOL0     C27589   3.283   6.435   9.219  0.1804 -0.7041  0.5106
  946MOL0     C27590   3.160   6.497   9.150  0.8833  0.1306  0.0152
  946MOL0     C27591   3.031   6.407   9.165 -0.3266  0.4591 -0.7579
  946MOL0     N27592   3.052   6.275   9.089 -0.5420  0.5356 -0.2031
  946MOL0     C27593   3.054   6.250   8.949 -0.3515  0.5273 -0.3342
  946MOL0     C27594   3.121   6.132   8.935 -0.1782  0.7387  1.5626
  946MOL0     C27595   3.163   6.051   8.814  0.5956  0.3208 -0.6543
  946MOL0     C27596   3.045   6.031   8.725  0.2712  0.0064  0.8841
  946MOL0     C27597   2.921   5.986   8.810 -0.8019 -0.7446  1.0036
  946MOL0     C27598   2.944   5.845   8.881  0.0092 -0.3417  0.5802
  946MOL0     O27599   3.024   5.759   8.798 -1.2102  0.4170 -0.0693
  946MOL0     C27600   3.042   5.634   8.856 -0.4077 -0.0434  0.7731
  946MOL0     C27601   2.932   5.547   8.849  0.3238 -0.7640  0.7651
  946MOL0     C27602   2.940   5.421   8.890 -0.9833 -0.1142 -0.0156
  946MOL0     C27603   2.812   5.347   8.889 -0.2889 -0.3318 -0.4545
  946MOL0     C27604   3.063   5.373   8.958  0.0049  0.3313 -0.5194
  946MOL0     C27605   3.072   5.253   9.041  0.4388  0.1066  0.3066
  946MOL0     O27606   3.193   5.235   9.109  0.2024 -0.9021 -0.2318
  946MOL0     C27607   3.222   5.111   9.155  0.1032  0.2669  0.4859
  946MOL0     C27608   3.309   5.030   9.076 -0.4416 -0.4131 -0.5834
  946MOL0     C27609   3.361   4.909   9.134  1.5456 -0.3293 -0.3734
  946MOL0     C27610   3.301   4.860   9.251 -0.0693 -0.1443  0.2264
  946MOL0     O27611   3.331   4.740   9.312 -0.2226 -0.1054 -1.0379
  946MOL0     C27612   3.427   4.637   9.261  0.3407 -0.0640 -0.1512
  946MOL0     C27613   3.423   4.513   9.343  0.0506 -0.3376  0.3382
  946MOL0     C27614   3.548   4.430   9.334 -0.1831 -0.7652 -0.2861
  946MOL0     C27615   3.663   4.497   9.401  0.1825 -0.2220 -0.1136
  946MOL0     C27616   3.787   4.408   9.391 -1.0273  0.2251  0.9224
  946MOL0     C27617   3.904   4.449   9.486 -0.6942  0.5690  0.5193
  946MOL0     C27618   3.871   4.468   9.627  0.6263  0.5071 -0.0066
  946MOL0     C27619   3.992   4.453   9.724  0.0361  0.5939 -0.4176
  946MOL0    Cl27620   4.034   4.282   9.772 -0.6928 -0.3863  0.5245
  946MOL0     C27621   3.212   4.933   9.325  0.1880 -0.6741  0.1571
  946MOL0     C27622   3.169   5.061   9.274 -0.0715  0.1384 -0.1037
  946MOL0     O27623   2.976   5.176   9.036  0.4647  0.4925  0.4776
  946MOL0     C27624   3.177   5.457   8.961  0.3444 -0.5173 -0.0223
  946MOL0     C27625   3.163   5.590   8.906 -0.1787  0.0523  0.0449
  946MOL0     N27626   3.140   6.085   9.064 -0.0934 -0.2562  0.7030
  946MOL0     N27627   3.104   6.175   9.152 -0.4312  0.7546  0.0275
  946MOL0     C27628   3.084   6.179   9.939  0.3570 -0.4225  0.6844
  946MOL0     C27629   3.025   6.162  10.063 -0.3047 -0.3251  0.0352
  946MOL0     C27630   2.869   6.091  10.442 -0.0948 -0.0314 -0.5701
  946MOL0     C27631   2.952   6.080  10.551  0.4288  0.2826 -0.6531
  946MOL0     C27632   2.900   6.108  10.674  0.0331 -0.7937  0.1572
  946MOL0     C27633   2.763   6.136  10.702  1.0736 -0.9851  0.7146
  946MOL0     O27634   2.711   6.167  10.828 -0.3149 -0.2758 -0.4052
  946MOL0     C27635   2.730   6.046  10.897 -0.0821 -0.0130 -0.1926
  946MOL0     C27636   2.592   5.996  10.959  0.2015 -0.4443 -0.1327
  946MOL0     C27637   2.523   5.890  10.866  0.4307  0.0528 -1.2386
  946MOL0     C27638   2.397   5.838  10.938  0.5158 -0.3690 -0.0736
  946MOL0     C27639   2.348   5.742  10.842  0.7239  0.0820  0.7154
  946MOL0     C27640   2.308   5.672  10.749  0.5600 -0.1720 -0.3340
  946MOL0     C27641   2.677   6.133  10.589  0.0158  0.0906 -0.4214
  946MOL0     C27642   2.729   6.122  10.461  0.3499  0.5222 -0.5515
  946MOL0     H27643   3.288   6.001  10.205 -1.1419  3.2055  3.3389
  946MOL0     H27644   3.375   6.022   9.977 -0.1873  1.8517 -1.9219
  946MOL0     H27645   3.437   6.153   9.792 -0.5727  1.0962 -1.1126
  946MOL0     H27646   3.383   5.981   9.769  1.4601 -0.0907  0.2226
  946MOL0     H27647   3.512   6.097   9.578 -0.0194 -0.8705  2.1853
  946MOL0     H27648   3.348   6.062   9.526  2.0707 -1.6945 -0.1797
  946MOL0     H27649   3.315   6.319   9.612 -1.7028 -3.5725  0.6753
  946MOL0     H27650   3.493   6.322   9.594  1.4359 -1.7047 -0.5879
  946MOL0     H27651   3.488   6.327   9.385  0.1000  2.5341  2.1436
  946MOL0     H27652   3.361   6.200   9.350 -0.2871 -0.3921  0.5062
  946MOL0     H27653   3.184   6.349   9.389 -2.2228  3.3127  0.5327
  946MOL0     H27654   3.302   6.482   9.429 -0.8705  0.3947 -1.2303
  946MOL0     H27655   3.368   6.502   9.205 -1.4623  1.6985  1.5035
  946MOL0     H27656   3.309   6.350   9.154  1.4700 -0.0208  0.0927
  946MOL0     H27657   3.129   6.588   9.203 -1.6533  0.8148 -2.3876
  946MOL0     H27658   3.178   6.529   9.047 -2.5012  1.3045 -0.3488
  946MOL0     H27659   2.938   6.458   9.136  1.0299  2.8196 -1.2411
  946MOL0     H27660   3.012   6.376   9.268  3.8247 -1.0615 -0.2661
  946MOL0     H27661   3.054   6.318   8.864 -1.8411  2.1072  0.8416
  946MOL0     H27662   3.254   6.092   8.771  0.2974  2.2859  0.4334
  946MOL0     H27663   3.185   5.953   8.856  1.9415  0.4745 -0.9552
  946MOL0     H27664   3.066   5.962   8.642  0.4181 -1.5991  2.2238
  946MOL0     H27665   3.025   6.124   8.671 -1.0561 -1.2458 -0.9455
  946MOL0     H27666   2.839   5.990   8.737  0.7793  1.0174 -0.8099
  946MOL0     H27667   2.892   6.060   8.884  0.6335 -0.0895  0.9430
  946MOL0     H27668   2.850   5.800   8.913  0.5011 -1.1400  0.9208
  946MOL0     H27669   3.015   5.866   8.962  1.3061  4.0101 -1.3617
  946MOL0     H27670   2.836   5.574   8.807  0.8295 -0.6308 -0.3403
  946MOL0     H27671   2.837   5.247   8.852 -0.3989 -0.9182  0.9604
  946MOL0     H27672   2.759   5.330   8.983 -0.6714  2.5104 -0.0658
  946MOL0     H27673   2.736   5.385   8.820  1.0826  0.2028 -1.7063
  946MOL0     H27674   3.344   5.078   8.985  2.0655  0.8472  0.9616
  946MOL0     H27675   3.424   4.862   9.059  1.5532 -0.3433 -0.3577
  946MOL0     H27676   3.402   4.622   9.156 -1.7750  1.3751  0.0877
  946MOL0     H27677   3.525   4.685   9.271 -0.2288  0.7543  2.0795
  946MOL0     H27678   3.395   4.545   9.444 -0.7360  2.1348 -0.5831
  946MOL0     H27679   3.334   4.460   9.305 -0.8645  0.8674  0.7355
  946MOL0     H27680   3.570   4.409   9.228 -1.9174 -0.1610 -0.8039
  946MOL0     H27681   3.530   4.332   9.379 -0.2206 -0.7766 -0.3245
  946MOL0     H27682   3.690   4.596   9.363  4.0764 -1.3752 -0.8767
  946MOL0     H27683   3.645   4.520   9.507 -0.6670  6.0712 -1.2303
  946MOL0     H27684   3.824   4.408   9.288  0.4152  1.2979  1.4189
  946MOL0     H27685   3.767   4.304   9.419 -2.3419 -0.1123 -1.0639
  946MOL0     H27686   3.975   4.367   9.473  0.3711  1.9205 -3.4187
  946MOL0     H27687   3.952   4.542   9.455 -0.1239  0.2426  0.4115
  946MOL0     H27688   3.788   4.402   9.650  0.1235  0.7346 -1.1236
  946MOL0     H27689   3.812   4.561   9.629 -2.7927 -1.5088  0.1693
  946MOL0     H27690   3.966   4.490   9.823 -0.9812 -3.6470  1.0845
  946MOL0     H27691   4.080   4.505   9.685  0.1508 -0.2748 -1.3671
  946MOL0     H27692   3.169   4.890   9.414 -2.1859  2.4109  0.6689
  946MOL0     H27693   3.107   5.118   9.342  2.3227  2.1864  0.4874
  946MOL0     H27694   3.271   5.424   9.003 -0.8918 -0.2626  3.3149
  946MOL0     H27695   3.249   5.655   8.895  0.4968 -1.0214 -1.1910
  946MOL0     H27696   3.034   6.233   9.859  3.6805  0.8664 -0.6848
  946MOL0     H27697   2.919   6.186  10.070 -1.1326 -2.7313 -2.4224
  946MOL0     H27698   3.060   6.069  10.545  0.7709  2.1627  1.0140
  946MOL0     H27699   2.958   6.118  10.765 -1.3853  0.1576  0.9994
  946MOL0     H27700   2.765   5.962  10.836 -0.3699 -0.3392  0.0846
  946MOL0     H27701   2.808   6.067  10.971  1.9137  1.2303 -2.5415
  946MOL0     H27702   2.516   6.075  10.965 -0.5090 -0.9148 -1.9325
  946MOL0     H27703   2.611   5.951  11.056 -0.6598 -0.7311 -0.0815
  946MOL0     H27704   2.593   5.807  10.852  0.4167 -0.4549  1.3054
  946MOL0     H27705   2.506   5.935  10.768 -0.3066  0.6346 -0.8559
  946MOL0     H27706   2.327   5.922  10.941  2.4916  1.3626  0.6381
  946MOL0     H27707   2.409   5.785  11.033 -0.2482 -3.8815 -1.7809
  946MOL0     H27708   2.271   5.608  10.672 -2.3232  0.9212  0.0076
  946MOL0     H27709   2.570   6.151  10.599  0.5670  3.0229  1.5387
  946MOL0     H27710   2.655   6.116  10.382  1.2549  1.5623 -1.5107
  947MOL0     O27711   4.012   9.134   6.426  0.3716 -0.0968 -0.1848
  947MOL0     C27712   4.130   9.098   6.435 -0.0536  0.7128 -0.6025
  947MOL0     O27713   4.178   8.974   6.392 -0.0087  0.1500  0.6159
  947MOL0     C27714   4.090   8.870   6.380 -0.5722  0.1191 -0.3351
  947MOL0     C27715   4.110   8.768   6.279 -0.0271 -0.2502  0.9219
  947MOL0     C27716   4.023   8.659   6.281 -0.3738  1.1946  0.5029
  947MOL0     C27717   3.924   8.638   6.368  0.4920  1.0760 -0.1340
  947MOL0     O27718   3.842   8.531   6.353 -0.2589  0.2159 -0.6457
  947MOL0     C27719   3.842   8.441   6.473  0.8484 -0.7674  0.0211
  947MOL0     C27720   3.961   8.348   6.463  1.0852 -0.6924 -0.4132
  947MOL0     C27721   3.944   8.230   6.557  1.4492  0.5963  0.0314
  947MOL0     C27722   3.979   8.256   6.709  0.0523 -0.7206 -1.0494
  947MOL0     C27723   3.988   8.120   6.785  0.4051  1.1639 -1.1372
  947MOL0     C27724   4.043   8.137   6.928  0.0603  0.2252  0.4073
  947MOL0     C27725   3.929   8.188   7.016  0.3678  0.1195  0.5636
  947MOL0     C27726   3.980   8.243   7.148  0.2718 -0.2103 -0.3793
  947MOL0     N27727   4.023   8.134   7.235 -0.3128 -0.6248  0.3287
  947MOL0     C27728   4.145   8.065   7.235 -1.2635  0.5916 -0.4611
  947MOL0     C27729   4.143   7.981   7.335  0.5658  0.0152 -0.3073
  947MOL0     C27730   4.261   7.901   7.391  0.5653  0.1683 -0.5675
  947MOL0     C27731   4.335   7.987   7.500  0.7415 -0.6588 -0.1699
  947MOL0     C27732   4.408   8.106   7.436  0.3454 -0.8650  0.3391
  947MOL0     C27733   4.506   8.178   7.533  0.0590  0.4477 -0.1875
  947MOL0     O27734   4.620   8.246   7.472  0.0541 -1.0531 -0.4601
  947MOL0     C27735   4.722   8.168   7.429  0.7017  0.4044  0.3348
  947MOL0     C27736   4.839   8.230   7.392 -0.9967 -0.5242  0.0269
  947MOL0     C27737   4.950   8.167   7.323 -0.8734  0.8740 -0.3064
  947MOL0     C27738   5.060   8.269   7.269  0.7908 -0.6642 -0.5600
  947MOL0     C27739   4.941   8.024   7.310  0.0067 -0.7707  1.8158
  947MOL0     C27740   5.046   7.945   7.253  0.2898  0.3045  0.0673
  947MOL0     O27741   5.069   7.816   7.311 -0.3269 -0.1264 -1.0504
  947MOL0     C27742   5.170   7.746   7.253 -0.1639  0.3498 -0.7712
  947MOL0     C27743   5.250   7.683   7.348 -0.8167  0.2779  0.3029
  947MOL0     C27744   5.342   7.583   7.311  0.5312  0.2743 -0.2890
  947MOL0     C27745   5.348   7.555   7.175 -0.5370 -0.0147  0.3778
  947MOL0     O27746   5.408   7.443   7.119 -0.7844 -0.5525 -0.6381
  947MOL0     C27747   5.476   7.338   7.194  0.6636 -0.1261  0.2825
  947MOL0     C27748   5.513   7.222   7.091  0.5180 -0.7670  0.6949
  947MOL0     C27749   5.560   7.094   7.170  0.1683  1.2055  0.2565
  947MOL0     C27750   5.576   6.971   7.076 -0.3725 -0.4550  0.6450
  947MOL0     C27751   5.589   6.841   7.166  0.5601  0.2729 -0.7296
  947MOL0     C27752   5.457   6.808   7.236 -0.4991 -0.0785  0.1778
  947MOL0     C27753   5.454   6.677   7.310  0.2526  0.0595 -0.8221
  947MOL0     C27754   5.321   6.673   7.386 -0.0429  0.4005  0.1094
  947MOL0    Cl27755   5.284   6.507   7.446 -0.3233 -0.0317 -0.2135
  947MOL0     C27756   5.271   7.627   7.082  0.5230  0.4864 -0.6425
  947MOL0     C27757   5.177   7.709   7.122  0.4673  0.1383  0.2456
  947MOL0     O27758   5.112   7.997   7.164  0.1445 -0.5319 -0.5040
  947MOL0     C27759   4.835   7.958   7.363  0.4314 -0.4087  0.4210
  947MOL0     C27760   4.724   8.028   7.424  0.2418  0.2344  0.0235
  947MOL0     N27761   4.012   7.998   7.400 -0.6839  0.6344 -0.8565
  947MOL0     N27762   3.944   8.089   7.340  0.5602  0.2781  0.1504
  947MOL0     C27763   3.909   8.727   6.468 -0.2095 -0.9866 -0.4388
  947MOL0     C27764   3.993   8.845   6.471  0.5879 -0.2183  0.4355
  947MOL0     C27765   4.228   9.202   6.455  0.6973 -0.2847  0.4785
  947MOL0     C27766   4.359   9.180   6.420 -0.6240  0.9811  0.2608
  947MOL0     C27767   4.464   9.275   6.432  0.1496 -0.1320  1.0620
  947MOL0     C27768   4.438   9.402   6.470 -0.4620 -0.0525 -0.5204
  947MOL0     O27769   4.531   9.510   6.484  0.1914 -0.3788 -0.3890
  947MOL0     C27770   4.622   9.532   6.374 -0.2496  0.3026 -0.0498
  947MOL0     C27771   4.610   9.660   6.298  0.2199 -0.7638 -0.3920
  947MOL0     C27772   4.660   9.797   6.362  0.2929  0.5203 -1.1005
  947MOL0     C27773   4.607   9.911   6.281 -0.1205  0.4321 -0.4060
  947MOL0     C27774   4.616  10.034   6.362 -1.4746 -0.1277  0.3641
  947MOL0     C27775   4.634  10.128   6.440  0.1408 -0.4715  0.3135
  947MOL0     C27776   4.305   9.433   6.513  0.8782 -0.6481  0.8048
  947MOL0     C27777   4.204   9.334   6.506 -0.2950  0.7162  0.0939
  947MOL0     H27778   4.198   8.764   6.217  1.2906 -3.5956  2.7270
  947MOL0     H27779   4.049   8.566   6.231 -0.9411  0.6376  1.2361
  947MOL0     H27780   3.849   8.500   6.564  2.6950 -0.9187  0.0165
  947MOL0     H27781   3.749   8.383   6.469  1.8099 -2.4266  0.6378
  947MOL0     H27782   3.960   8.309   6.360 -5.1915  0.8517 -1.3843
  947MOL0     H27783   4.055   8.400   6.481  0.6481 -0.1021  0.2458
  947MOL0     H27784   3.840   8.201   6.542  1.4073  0.9799 -0.4193
  947MOL0     H27785   4.015   8.154   6.524  3.2586  2.5546 -0.8369
  947MOL0     H27786   4.076   8.305   6.715  0.6050 -1.7740 -1.2149
  947MOL0     H27787   3.898   8.324   6.738  1.2752  1.5463 -2.6423
  947MOL0     H27788   3.891   8.069   6.776  1.6705 -1.9596  1.1062
  947MOL0     H27789   4.054   8.050   6.733 -0.6897 -0.3554 -0.5682
  947MOL0     H27790   4.080   8.046   6.976  0.4612  0.7128  1.0411
  947MOL0     H27791   4.126   8.208   6.938 -1.1764  1.4122  4.5888
  947MOL0     H27792   3.874   8.268   6.965  0.0778 -0.1389  0.4712
  947MOL0     H27793   3.858   8.108   7.039  0.0341  0.4124  0.5617
  947MOL0     H27794   3.917   8.314   7.203  2.2753  0.5001  1.1510
  947MOL0     H27795   4.070   8.304   7.132  1.6205 -1.8000  0.7202
  947MOL0     H27796   4.225   8.095   7.168 -0.3876  0.3111  0.4241
  947MOL0     H27797   4.219   7.808   7.430  0.1395 -0.3334 -2.1372
  947MOL0     H27798   4.329   7.869   7.312  2.4023  0.8365  0.6811
  947MOL0     H27799   4.405   7.919   7.550 -0.6245 -1.7839  0.2695
  947MOL0     H27800   4.267   8.018   7.580 -0.8651 -2.0558 -0.9260
  947MOL0     H27801   4.335   8.182   7.404 -0.1743 -1.6606 -0.4041
  947MOL0     H27802   4.467   8.063   7.355 -0.6811 -1.1470 -0.2866
  947MOL0     H27803   4.530   8.113   7.618 -0.7570  2.4598  1.6539
  947MOL0     H27804   4.451   8.259   7.582  2.4431  0.5514  2.5636
  947MOL0     H27805   4.835   8.339   7.395 -0.6193 -0.4267 -1.9302
  947MOL0     H27806   5.065   8.367   7.318 -0.5883  0.0828 -1.8160
  947MOL0     H27807   5.159   8.224   7.260  0.9636 -0.5063  0.4671
  947MOL0     H27808   5.027   8.281   7.165 -1.1980 -0.2710  0.0768
  947MOL0     H27809   5.242   7.705   7.454 -1.8393  1.0474  0.0813
  947MOL0     H27810   5.396   7.527   7.386 -1.2155 -0.4396  0.4943
  947MOL0     H27811   5.568   7.377   7.238  1.2252 -0.6270 -0.4183
  947MOL0     H27812   5.405   7.297   7.266 -1.4324  0.9471 -1.0647
  947MOL0     H27813   5.423   7.204   7.032 -1.1309  1.9584  2.1661
  947MOL0     H27814   5.586   7.264   7.021 -1.5674 -1.2843 -1.9571
  947MOL0     H27815   5.484   7.086   7.249  0.3194  0.7534  0.3596
  947MOL0     H27816   5.654   7.109   7.224  0.2252  1.2824  0.1350
  947MOL0     H27817   5.492   6.962   7.007 -0.0622 -2.0361  0.4313
  947MOL0     H27818   5.669   6.971   7.019  0.3617  0.1872  1.8167
  947MOL0     H27819   5.670   6.849   7.239 -0.4681 -0.0650  0.4905
  947MOL0     H27820   5.619   6.762   7.097 -2.3452 -0.3562 -1.4340
  947MOL0     H27821   5.436   6.884   7.312 -0.6206 -0.1009  0.1674
  947MOL0     H27822   5.381   6.803   7.158  1.4671 -0.0016 -1.8289
  947MOL0     H27823   5.543   6.665   7.373  0.2243 -3.2449 -1.2447
  947MOL0     H27824   5.444   6.590   7.245  0.4433  0.0706 -0.8669
  947MOL0     H27825   5.241   6.703   7.317  0.7403 -1.6572 -1.7977
  947MOL0     H27826   5.317   6.747   7.466  1.6213  0.9440 -0.2791
  947MOL0     H27827   5.284   7.588   6.981 -0.5108  0.9945 -0.9878
  947MOL0     H27828   5.112   7.738   7.040  0.4822  1.9060  0.8159
  947MOL0     H27829   4.826   7.850   7.348 -1.1723 -0.0072 -2.3506
  947MOL0     H27830   4.642   7.960   7.449  1.6392 -0.0351  4.9073
  947MOL0     H27831   3.835   8.719   6.547  0.0226  0.7023  0.0014
  947MOL0     H27832   3.964   8.910   6.553 -1.4464 -0.4234 -0.0794
  947MOL0     H27833   4.393   9.086   6.377  0.2907  1.5898 -0.4017
  947MOL0     H27834   4.570   9.256   6.419  1.1593  3.3478  2.9856
  947MOL0     H27835   4.726   9.524   6.408 -0.7798 -0.3865  1.4960
  947MOL0     H27836   4.604   9.453   6.301  0.2597 -0.2153  0.3756
  947MOL0     H27837   4.502   9.669   6.285  0.0917 -2.5985 -0.8297
  947MOL0     H27838   4.651   9.652   6.197 -0.2518 -1.2755 -0.5498
  947MOL0     H27839   4.767   9.815   6.375 -0.1682  2.4164  0.7671
  947MOL0     H27840   4.624   9.793   6.465  2.5688 -2.3891 -0.2766
  947MOL0     H27841   4.504   9.877   6.266  1.1783 -4.9479  0.6980
  947MOL0     H27842   4.669   9.922   6.192  2.0870  2.3331  1.2305
  947MOL0     H27843   4.633  10.206   6.513 -0.5359 -0.6391  0.4858
  947MOL0     H27844   4.276   9.535   6.535  0.3964  0.4436 -3.9039
  947MOL0     H27845   4.105   9.367   6.533  0.1496  3.4809 -1.2591
  948MOL0     O27846   0.204   1.282   7.192 -0.0180  0.4922 -0.2506
  948MOL0     C27847   0.150   1.369   7.122  0.7683  0.2842  0.6424
  948MOL0     O27848   0.205   1.445   7.025 -0.8046  0.2153  0.1806
  948MOL0     C27849   0.341   1.432   7.010  0.0956 -0.4117 -0.0155
  948MOL0     C27850   0.404   1.412   6.878  0.3785 -0.0808  0.2715
  948MOL0     C27851   0.539   1.404   6.865 -0.2951  0.3644  0.6544
  948MOL0     C27852   0.619   1.407   6.977  0.5998  0.3717 -0.0840
  948MOL0     O27853   0.755   1.394   6.974 -0.6386  0.7852  0.2235
  948MOL0     C27854   0.814   1.386   6.841 -1.3974 -0.6320 -0.3145
  948MOL0     C27855   0.966   1.358   6.845  0.2158 -0.5203 -0.6264
  948MOL0     C27856   1.049   1.471   6.899  0.2943  0.7090  0.3082
  948MOL0     C27857   1.195   1.426   6.919 -0.3451 -0.3252  0.0431
  948MOL0     C27858   1.281   1.552   6.910 -0.3848  0.1889  1.3010
  948MOL0     C27859   1.432   1.516   6.931 -0.1575  0.4469  0.4682
  948MOL0     C27860   1.522   1.643   6.916  0.6004 -0.9530 -0.5260
  948MOL0     C27861   1.666   1.622   6.953 -0.1950 -0.1954  1.3770
  948MOL0     N27862   1.691   1.650   7.093  0.5214 -0.9131 -0.0971
  948MOL0     C27863   1.783   1.746   7.138  0.7560  0.6012  0.5371
  948MOL0     C27864   1.808   1.705   7.269  0.6637 -0.4317 -0.1378
  948MOL0     C27865   1.896   1.784   7.362  0.3617 -0.7057 -1.0713
  948MOL0     C27866   1.999   1.681   7.425  0.4835  0.0390 -0.3445
  948MOL0     C27867   2.130   1.673   7.336 -0.6265 -0.5342 -0.0727
  948MOL0     C27868   2.246   1.622   7.417 -0.2456  0.3560  0.9969
  948MOL0     O27869   2.361   1.598   7.332  0.8283 -0.4184 -0.6089
  948MOL0     C27870   2.387   1.472   7.279  1.3318 -0.3084  0.9046
  948MOL0     C27871   2.314   1.350   7.293 -0.2728  0.9737 -0.7460
  948MOL0     C27872   2.355   1.229   7.234  0.2729 -0.2500  0.0043
  948MOL0     C27873   2.261   1.117   7.275 -0.3161  0.0330 -1.1606
  948MOL0     C27874   2.458   1.222   7.132  0.2227  0.0077  0.8593
  948MOL0     C27875   2.502   1.099   7.069 -0.0858 -0.1687 -0.9104
  948MOL0     O27876   2.527   1.113   6.934  0.3599 -0.2771 -0.2608
  948MOL0     C27877   2.577   1.016   6.864 -0.4837 -0.0059  0.7134
  948MOL0     C27878   2.509   0.894   6.831 -0.1654  0.5345 -0.2044
  948MOL0     C27879   2.571   0.799   6.752 -0.5224  0.0698 -0.0039
  948MOL0     C27880   2.701   0.813   6.707  1.1410 -0.3332  0.9613
  948MOL0     O27881   2.750   0.720   6.614 -0.1962  0.2642  0.8687
  948MOL0     C27882   2.766   0.783   6.480 -1.0377  0.4496 -0.5913
  948MOL0     C27883   2.783   0.678   6.366 -0.4472  0.5552 -0.1400
  948MOL0     C27884   2.829   0.542   6.412  0.6536  0.0619 -0.5020
  948MOL0     C27885   2.962   0.553   6.480 -0.6611  0.1348 -0.4436
  948MOL0     C27886   3.018   0.413   6.506 -0.6506  0.2667 -0.2246
  948MOL0     C27887   2.920   0.301   6.564  0.0847 -0.0516 -0.5455
  948MOL0     C27888   2.994   0.163   6.569 -0.6412 -0.4207 -0.2707
  948MOL0     C27889   3.125   0.152   6.661  0.5314 -0.5143 -0.2511
  948MOL0    Cl27890   3.280   0.237   6.618  0.5578 -0.5986 -0.0243
  948MOL0     C27891   2.771   0.925   6.740 -0.5737 -1.1377  0.4985
  948MOL0     C27892   2.713   1.024   6.824 -0.0126 -0.0295  0.4715
  948MOL0     O27893   2.515   0.995   7.133 -0.2977  0.2001  0.6413
  948MOL0     C27894   2.515   1.349   7.100 -0.7376 -0.1372  1.0468
  948MOL0     C27895   2.481   1.465   7.173 -0.1513  0.5587 -0.4462
  948MOL0     N27896   1.734   1.598   7.298  0.5345 -0.1506 -1.1870
  948MOL0     N27897   1.676   1.555   7.193  0.4055  0.5326  0.4524
  948MOL0     C27898   0.558   1.427   7.100 -0.5086  0.1008 -0.3722
  948MOL0     C27899   0.424   1.445   7.126  0.1046  0.8385  0.2662
  948MOL0     C27900   0.007   1.396   7.144 -1.0934 -0.7215  0.7938
  948MOL0     C27901  -0.063   1.366   7.264 -0.2592 -1.0791  0.7693
  948MOL0     C27902  -0.210   1.397   7.246 -0.3170  0.5131 -0.5152
  948MOL0     C27903  -0.273   1.459   7.138 -0.0908  0.8808 -0.1042
  948MOL0     O27904  -0.405   1.481   7.136  0.0487  0.8710 -0.8890
  948MOL0     C27905  -0.484   1.482   7.263  0.5528  0.5105  1.0562
  948MOL0     C27906  -0.631   1.494   7.227 -0.1603  0.1781 -0.1487
  948MOL0     C27907  -0.710   1.482   7.358  0.0365  0.1231 -0.0366
  948MOL0     C27908  -0.861   1.505   7.329 -0.0291 -0.3525  0.1937
  948MOL0     C27909  -0.903   1.635   7.380 -0.6367  0.9045 -0.1400
  948MOL0     C27910  -0.937   1.744   7.410  0.4082 -0.9595 -0.1111
  948MOL0     C27911  -0.189   1.481   7.026  0.4453 -1.3523 -0.6087
  948MOL0     C27912  -0.059   1.440   7.028 -0.3782 -1.2048  0.5249
  948MOL0     H27913   0.348   1.406   6.785 -0.2168 -2.7872  0.7113
  948MOL0     H27914   0.582   1.390   6.766  0.0349 -0.6887  0.9368
  948MOL0     H27915   0.777   1.300   6.784  0.7834 -2.5123  0.9275
  948MOL0     H27916   0.805   1.482   6.789  0.6538 -0.7301 -0.9429
  948MOL0     H27917   0.974   1.266   6.905  0.0321 -0.0454  0.1438
  948MOL0     H27918   0.986   1.337   6.740 -0.3453 -1.5654 -0.5406
  948MOL0     H27919   1.053   1.545   6.818 -4.0740 -1.5220 -2.3187
  948MOL0     H27920   0.999   1.529   6.978 -2.3921  1.0402 -1.5060
  948MOL0     H27921   1.214   1.369   7.011  0.5719  0.0566  0.0982
  948MOL0     H27922   1.228   1.364   6.835 -2.1496 -0.3957 -0.6553
  948MOL0     H27923   1.266   1.595   6.810 -1.7412 -1.5034  0.7138
  948MOL0     H27924   1.238   1.620   6.984  0.2584  0.9398  0.9950
  948MOL0     H27925   1.444   1.469   7.029  0.3307 -2.9608 -1.0895
  948MOL0     H27926   1.464   1.450   6.849  0.8704  1.8650 -0.3138
  948MOL0     H27927   1.521   1.698   6.822  1.9838 -0.8393 -0.4948
  948MOL0     H27928   1.476   1.707   6.992  3.2003  0.6744 -0.1797
  948MOL0     H27929   1.729   1.691   6.895  1.0615 -1.2661  1.4317
  948MOL0     H27930   1.696   1.522   6.924 -2.3601  0.3834 -4.0355
  948MOL0     H27931   1.838   1.812   7.072  0.8141 -2.0488 -2.3353
  948MOL0     H27932   1.941   1.877   7.325  0.0270  0.2157  0.7536
  948MOL0     H27933   1.835   1.817   7.446 -0.1408 -1.7176 -1.0325
  948MOL0     H27934   1.952   1.583   7.440  2.2241 -1.1736 -2.2298
  948MOL0     H27935   2.023   1.723   7.523 -1.6064  2.4004 -0.7495
  948MOL0     H27936   2.144   1.773   7.295  0.4515 -0.1354  1.2072
  948MOL0     H27937   2.123   1.609   7.247  3.1669  0.2385 -1.0973
  948MOL0     H27938   2.224   1.530   7.471 -0.7123 -0.0130  0.1957
  948MOL0     H27939   2.267   1.698   7.493  1.3213  0.2588  0.6801
  948MOL0     H27940   2.229   1.337   7.359 -1.3880  0.1905 -2.2711
  948MOL0     H27941   2.242   1.116   7.382  0.2124  3.0757 -0.9414
  948MOL0     H27942   2.159   1.122   7.234  0.1434 -1.4610 -2.5835
  948MOL0     H27943   2.299   1.019   7.246  1.9328  0.4581  0.0915
  948MOL0     H27944   2.408   0.868   6.861  1.0247 -3.2031  1.1125
  948MOL0     H27945   2.514   0.716   6.710 -3.2081  1.9384 -0.3303
  948MOL0     H27946   2.680   0.846   6.455 -1.8122 -0.6262 -0.7042
  948MOL0     H27947   2.861   0.836   6.491 -0.3099 -0.8856 -0.2558
  948MOL0     H27948   2.698   0.674   6.298  1.1181 -3.5397 -2.1613
  948MOL0     H27949   2.863   0.720   6.304 -0.0567  2.5255  1.5618
  948MOL0     H27950   2.823   0.468   6.332  0.6979  1.9143 -2.3002
  948MOL0     H27951   2.753   0.513   6.485  1.9578 -2.7246 -0.1413
  948MOL0     H27952   3.031   0.605   6.414 -0.2474  0.1148 -0.0338
  948MOL0     H27953   2.953   0.610   6.573 -1.5053 -1.4522  0.5167
  948MOL0     H27954   3.102   0.430   6.573 -0.6287  2.4963 -0.7344
  948MOL0     H27955   3.057   0.373   6.412  0.8778  2.3176 -0.5292
  948MOL0     H27956   2.867   0.335   6.654 -1.2604 -0.5924 -1.1057
  948MOL0     H27957   2.833   0.296   6.498 -0.7132  1.1081  0.3704
  948MOL0     H27958   3.020   0.145   6.464  0.9090 -1.0633  0.1896
  948MOL0     H27959   2.931   0.078   6.595 -0.0054 -2.2082 -3.8627
  948MOL0     H27960   3.139   0.044   6.649  0.1032 -0.5290 -0.6311
  948MOL0     H27961   3.111   0.187   6.764  0.4984  1.9516 -1.0439
  948MOL0     H27962   2.876   0.935   6.712 -1.3166 -2.0535 -3.1110
  948MOL0     H27963   2.766   1.115   6.850  0.1171  0.0431 -0.0395
  948MOL0     H27964   2.599   1.338   7.032 -1.9323 -1.2681 -0.3002
  948MOL0     H27965   2.531   1.554   7.137  1.6149 -0.0405  0.4419
  948MOL0     H27966   0.622   1.447   7.185  2.0233  1.2528 -2.3895
  948MOL0     H27967   0.382   1.459   7.225 -1.1403 -2.3432  0.2852
  948MOL0     H27968  -0.013   1.327   7.353  1.1988 -3.2637 -0.9156
  948MOL0     H27969  -0.266   1.364   7.332 -0.5684  0.1894 -0.7984
  948MOL0     H27970  -0.464   1.394   7.324 -0.5475 -0.0337  0.6712
  948MOL0     H27971  -0.445   1.574   7.308  2.5125 -0.1348  0.7704
  948MOL0     H27972  -0.655   1.414   7.156 -0.1040  1.5474 -1.7758
  948MOL0     H27973  -0.651   1.592   7.183  2.6405  0.5472 -0.7291
  948MOL0     H27974  -0.671   1.551   7.432  1.8858 -1.4242  0.5102
  948MOL0     H27975  -0.680   1.387   7.404  0.8714  0.5305  0.2644
  948MOL0     H27976  -0.915   1.426   7.383 -2.3365 -0.6239 -2.3053
  948MOL0     H27977  -0.884   1.514   7.223  2.2156  1.2026 -0.2225
  948MOL0     H27978  -0.971   1.828   7.467  0.1064 -1.4129  0.3821
  948MOL0     H27979  -0.238   1.524   6.939 -1.3697 -1.4487  0.3154
  948MOL0     H27980  -0.010   1.435   6.932 -1.6506  0.7715 -0.2797
  949MOL0     O27981   2.556   3.380   8.733 -0.8370 -0.1093 -0.4399
  949MOL0     C27982   2.675   3.392   8.685  0.7971 -0.0850  0.0725
  949MOL0     O27983   2.734   3.282   8.621 -0.7568  0.3877  0.4015
  949MOL0     C27984   2.652   3.175   8.581 -0.2796 -0.2628  0.3286
  949MOL0     C27985   2.684   3.056   8.647 -0.9255 -1.0309 -0.6676
  949MOL0     C27986   2.608   2.948   8.631  0.0920  0.3819 -0.4346
  949MOL0     C27987   2.525   2.930   8.530  0.2222  0.2042 -0.0613
  949MOL0     O27988   2.479   2.806   8.491 -0.5023  1.0374  0.0141
  949MOL0     C27989   2.349   2.798   8.434 -0.7054  1.0768  0.9802
  949MOL0     C27990   2.300   2.655   8.416  0.1343 -0.0733 -0.8950
  949MOL0     C27991   2.300   2.571   8.548  0.2927  0.3268 -0.4062
  949MOL0     C27992   2.253   2.424   8.525 -0.4424  0.3491 -0.4385
  949MOL0     C27993   2.109   2.403   8.466 -0.1767  0.4170  0.8975
  949MOL0     C27994   2.085   2.250   8.472 -0.6136 -0.4258  0.3299
  949MOL0     C27995   1.998   2.200   8.357 -0.5691 -0.0449  0.7114
  949MOL0     C27996   1.974   2.052   8.342  0.9452 -0.3037 -0.4640
  949MOL0     N27997   1.864   2.031   8.242  0.3526  0.2800  0.4098
  949MOL0     C27998   1.888   2.035   8.105  0.4710 -0.2110  0.1936
  949MOL0     C27999   1.768   1.995   8.057  1.1768  0.4827  1.0081
  949MOL0     C28000   1.726   1.990   7.912  0.2622 -0.6713  0.7854
  949MOL0     C28001   1.708   1.848   7.864 -0.3587 -0.0214 -0.6836
  949MOL0     C28002   1.835   1.771   7.820 -0.3376 -0.2423  0.1625
  949MOL0     C28003   1.797   1.642   7.760  0.1747 -0.5785  0.0920
  949MOL0     O28004   1.911   1.556   7.738 -0.3320 -0.7046  0.7693
  949MOL0     C28005   1.898   1.435   7.670 -0.7165 -0.3573 -0.3613
  949MOL0     C28006   1.772   1.384   7.621  0.6848  0.2531 -0.1801
  949MOL0     C28007   1.757   1.245   7.578  0.7604 -0.2253  0.8253
  949MOL0     C28008   1.615   1.205   7.524  0.4572  0.0818  0.0735
  949MOL0     C28009   1.874   1.153   7.585  0.0356  0.7421  1.1842
  949MOL0     C28010   1.862   1.003   7.559 -1.3720  0.6155 -0.5168
  949MOL0     O28011   1.747   0.954   7.588  0.1414  0.3468 -0.4108
  949MOL0     C28012   1.719   0.816   7.604  0.0292 -0.4853  0.7966
  949MOL0     C28013   1.822   0.721   7.619  0.1597 -0.4821  0.3595
  949MOL0     C28014   1.793   0.586   7.632  0.4190 -0.3451  0.1429
  949MOL0     C28015   1.660   0.537   7.632  0.2171 -1.0959 -0.0040
  949MOL0     O28016   1.646   0.404   7.656 -0.0775 -0.3828  0.1750
  949MOL0     C28017   1.514   0.344   7.640  0.7418 -0.0060  0.6812
  949MOL0     C28018   1.417   0.368   7.758 -0.5409 -0.0022 -0.8393
  949MOL0     C28019   1.275   0.305   7.726  0.8359  0.2041 -0.3415
  949MOL0     C28020   1.281   0.154   7.701 -0.3307 -0.5667  1.2309
  949MOL0     C28021   1.288   0.088   7.836 -0.1279 -0.2747 -0.0178
  949MOL0     C28022   1.274  -0.070   7.807 -0.2692  0.2531  0.0378
  949MOL0     C28023   1.279  -0.171   7.935  0.0124 -0.2208  0.1804
  949MOL0     C28024   1.214  -0.307   7.908 -0.4631  0.7597 -0.0529
  949MOL0    Cl28025   1.083  -0.318   7.791  0.5436  0.6067  0.2724
  949MOL0     C28026   1.553   0.631   7.614 -0.2407 -0.0127 -0.0339
  949MOL0     C28027   1.585   0.766   7.599  0.4157  0.5555  1.1224
  949MOL0     O28028   1.965   0.940   7.527 -0.4797  0.1574 -0.0903
  949MOL0     C28029   1.994   1.219   7.605  0.9187 -0.9883 -0.4758
  949MOL0     C28030   2.006   1.354   7.647  0.4762  0.0729  0.8751
  949MOL0     N28031   1.693   1.946   8.161 -0.0545  0.4660 -0.0429
  949MOL0     N28032   1.738   1.977   8.272  0.3140 -0.7196 -0.3994
  949MOL0     C28033   2.486   3.043   8.462  0.4172  0.1174  0.1477
  949MOL0     C28034   2.549   3.171   8.484 -0.3410  0.2577  0.2591
  949MOL0     C28035   2.749   3.521   8.690 -0.4066 -0.2108  0.8079
  949MOL0     C28036   2.675   3.648   8.697  0.6703  0.2193  0.0382
  949MOL0     C28037   2.740   3.769   8.704  0.2329  0.4390 -0.6120
  949MOL0     C28038   2.877   3.768   8.716 -0.0583 -1.0663 -0.9056
  949MOL0     O28039   2.946   3.878   8.762  0.1344 -0.0392 -0.3069
  949MOL0     C28040   2.917   4.013   8.712  0.8613  0.3104  0.6475
  949MOL0     C28041   3.012   4.127   8.739 -1.0099 -0.2984  0.0007
  949MOL0     C28042   2.975   4.274   8.699 -0.3817  0.6761 -0.3537
  949MOL0     C28043   3.003   4.306   8.552 -0.0857 -0.4924  0.5777
  949MOL0     C28044   2.926   4.433   8.508 -0.0914 -0.3080  0.2271
  949MOL0     C28045   2.883   4.539   8.479 -0.2017  0.1921 -0.4867
  949MOL0     C28046   2.950   3.655   8.709 -0.3550  0.2325  1.0855
  949MOL0     C28047   2.888   3.529   8.694 -0.2526 -0.1315 -0.4221
  949MOL0     H28048   2.758   3.064   8.725  0.6325 -3.6446 -1.7322
  949MOL0     H28049   2.624   2.864   8.697 -2.2802  0.7319  0.6925
  949MOL0     H28050   2.293   2.873   8.491  2.6204  1.8816  3.4487
  949MOL0     H28051   2.357   2.843   8.334 -0.0265 -0.3957  0.3550
  949MOL0     H28052   2.196   2.667   8.383  0.1238  1.9677 -0.2310
  949MOL0     H28053   2.352   2.596   8.340  1.5711  1.9920 -1.6016
  949MOL0     H28054   2.404   2.572   8.583  0.4886 -2.3757 -0.6378
  949MOL0     H28055   2.231   2.621   8.615 -0.6165 -1.9891  0.5000
  949MOL0     H28056   2.325   2.377   8.456 -0.1789  1.4564 -0.9357
  949MOL0     H28057   2.263   2.379   8.624  2.7005 -2.1889 -1.7053
  949MOL0     H28058   2.038   2.469   8.516  0.1029  1.5125 -0.1194
  949MOL0     H28059   2.087   2.434   8.364 -0.5923 -5.1724 -1.0266
  949MOL0     H28060   2.180   2.197   8.461 -0.6003 -0.9021  2.4027
  949MOL0     H28061   2.051   2.223   8.572  0.1456  0.3445  0.8114
  949MOL0     H28062   1.899   2.248   8.354 -0.9100 -0.5221 -3.8523
  949MOL0     H28063   2.054   2.227   8.267 -0.5086 -1.9267  0.1457
  949MOL0     H28064   1.950   2.018   8.443 -2.4402  2.7897 -0.0386
  949MOL0     H28065   2.063   2.003   8.302  0.0550 -2.1601 -0.2557
  949MOL0     H28066   1.973   2.082   8.056  1.0566 -0.8776  0.5534
  949MOL0     H28067   1.630   2.043   7.913 -0.5186 -2.0393  1.1485
  949MOL0     H28068   1.789   2.054   7.850  2.1832  0.2917  3.5013
  949MOL0     H28069   1.630   1.842   7.788 -0.0803  1.0338 -1.0763
  949MOL0     H28070   1.675   1.787   7.949  2.8172  0.4832  1.0980
  949MOL0     H28071   1.907   1.765   7.902 -1.0158  0.4302  0.8231
  949MOL0     H28072   1.882   1.834   7.743 -1.8691  0.3151 -0.3704
  949MOL0     H28073   1.750   1.656   7.662  1.0209  2.1007 -0.0081
  949MOL0     H28074   1.732   1.596   7.836 -1.5692 -0.7582 -1.4366
  949MOL0     H28075   1.682   1.444   7.622 -1.6384 -2.8167 -3.3502
  949MOL0     H28076   1.565   1.297   7.492  1.1250 -0.0093 -1.2818
  949MOL0     H28077   1.617   1.139   7.436 -1.9603 -1.0511  0.7685
  949MOL0     H28078   1.559   1.153   7.603  2.0259 -2.3819 -0.3264
  949MOL0     H28079   1.924   0.749   7.642  0.3389  1.1568 -2.0141
  949MOL0     H28080   1.875   0.516   7.645  0.2767 -0.2420  1.8554
  949MOL0     H28081   1.464   0.370   7.547  1.4450  2.8006  0.9998
  949MOL0     H28082   1.536   0.237   7.633 -4.2387 -1.3070  1.1269
  949MOL0     H28083   1.448   0.330   7.855 -0.1118 -1.1747 -1.4197
  949MOL0     H28084   1.406   0.476   7.771  0.0341 -0.1547  1.2503
  949MOL0     H28085   1.244   0.347   7.629  0.8886 -2.2153 -1.4828
  949MOL0     H28086   1.203   0.345   7.798 -0.3217  0.1194 -1.4233
  949MOL0     H28087   1.188   0.123   7.652 -0.6004  2.1409 -0.2042
  949MOL0     H28088   1.361   0.133   7.629 -0.9671  2.0017 -0.4057
  949MOL0     H28089   1.202   0.128   7.888  0.2178  1.2433 -0.5720
  949MOL0     H28090   1.378   0.108   7.896 -0.2882 -1.5844  0.7129
  949MOL0     H28091   1.182  -0.090   7.751  0.5265 -2.8270 -0.3455
  949MOL0     H28092   1.363  -0.104   7.753 -0.9354 -1.4843 -0.0309
  949MOL0     H28093   1.244  -0.120   8.026  5.0307  1.6270  1.3751
  949MOL0     H28094   1.381  -0.184   7.971 -0.2544  1.6809  1.8450
  949MOL0     H28095   1.181  -0.344   8.006 -3.6888  0.4192 -1.1523
  949MOL0     H28096   1.297  -0.368   7.870 -0.3844 -1.0977  2.7566
  949MOL0     H28097   1.448   0.605   7.624 -0.8639  2.0508 -0.7833
  949MOL0     H28098   1.502   0.833   7.580  0.3109  0.0193 -0.4603
  949MOL0     H28099   2.092   1.173   7.611  0.5984 -1.4299  2.3536
  949MOL0     H28100   2.102   1.396   7.675  0.7463 -1.3975  2.2996
  949MOL0     H28101   2.414   3.036   8.381 -1.3770  1.3522  1.5498
  949MOL0     H28102   2.516   3.256   8.426  0.8994  0.3319 -0.3698
  949MOL0     H28103   2.568   3.647   8.683  0.5472 -0.2108  0.9742
  949MOL0     H28104   2.679   3.858   8.718 -1.0719 -0.8020  2.7677
  949MOL0     H28105   2.921   4.010   8.603 -1.7448 -1.1166  0.5057
  949MOL0     H28106   2.811   4.036   8.731  0.1946  0.5636 -2.7899
  949MOL0     H28107   3.111   4.101   8.702 -0.8682  0.0651  0.1179
  949MOL0     H28108   3.042   4.138   8.844  2.8479  0.1981 -1.0127
  949MOL0     H28109   3.028   4.338   8.769 -1.5762  1.6972 -0.3566
  949MOL0     H28110   2.867   4.290   8.711 -0.2842 -0.5966  3.8792
  949MOL0     H28111   2.987   4.218   8.490  0.9379  0.4332 -1.0594
  949MOL0     H28112   3.112   4.317   8.542  0.5275 -3.8674  2.0058
  949MOL0     H28113   2.841   4.636   8.458 -0.6242  0.3912  1.1163
  949MOL0     H28114   3.057   3.657   8.727 -0.4896 -1.3614  2.2331
  949MOL0     H28115   2.948   3.440   8.679 -0.0146  0.4814 -3.8139
  950MOL0     O28116   3.189   3.001   6.179  1.0890 -0.3554 -0.4356
  950MOL0     C28117   3.127   2.897   6.206  0.0911 -0.4405  0.4016
  950MOL0     O28118   3.163   2.774   6.164 -0.6809 -0.8808  0.3101
  950MOL0     C28119   3.291   2.743   6.115  0.2542  0.2225  0.5883
  950MOL0     C28120   3.301   2.619   6.052 -0.0502 -0.9794  0.1498
  950MOL0     C28121   3.430   2.579   6.001  0.5563  0.4569  0.8211
  950MOL0     C28122   3.544   2.652   6.024  0.3758  0.4646  0.5051
  950MOL0     O28123   3.662   2.614   5.971  0.2427 -0.1745  0.7041
  950MOL0     C28124   3.676   2.533   5.855 -0.5424  0.1894 -0.1891
  950MOL0     C28125   3.824   2.512   5.814 -0.1392  0.0815  0.2411
  950MOL0     C28126   3.908   2.630   5.781  0.5418 -0.4168  0.7765
  950MOL0     C28127   3.974   2.717   5.889 -1.0098 -0.2531  0.6637
  950MOL0     C28128   4.052   2.839   5.830  0.6217  0.5058 -0.5534
  950MOL0     C28129   4.137   2.915   5.930 -0.1468 -0.2417 -0.4746
  950MOL0     C28130   4.205   3.044   5.883 -0.1283 -0.0467  0.2802
  950MOL0     C28131   4.226   3.051   5.730 -0.3960  0.3481 -0.7637
  950MOL0     N28132   4.346   2.980   5.680 -0.5133  0.7125  1.0264
  950MOL0     C28133   4.456   3.052   5.640  0.5434  0.2141 -0.4151
  950MOL0     C28134   4.535   2.954   5.599  0.3899 -0.1242  0.3073
  950MOL0     C28135   4.673   2.964   5.553 -0.4969 -0.7352  0.0491
  950MOL0     C28136   4.760   3.061   5.645 -0.3033 -0.3544  0.3398
  950MOL0     C28137   4.861   3.132   5.551 -0.0868  1.3324  0.0532
  950MOL0     C28138   4.973   3.204   5.628 -0.0076  0.5022 -0.1556
  950MOL0     O28139   4.917   3.275   5.741 -0.3941  0.1388  0.1059
  950MOL0     C28140   4.843   3.392   5.716 -0.7460  0.6465 -0.0876
  950MOL0     C28141   4.861   3.481   5.607 -0.2818  1.1055  0.3568
  950MOL0     C28142   4.791   3.598   5.597  0.8030 -0.0228 -0.2155
  950MOL0     C28143   4.824   3.682   5.475 -0.1533  0.3626  0.4369
  950MOL0     C28144   4.694   3.626   5.698  0.1948 -0.1726  0.4594
  950MOL0     C28145   4.603   3.755   5.703 -0.1514  0.1356 -0.0226
  950MOL0     O28146   4.506   3.753   5.797  0.0567 -0.8386  0.5671
  950MOL0     C28147   4.408   3.850   5.788  0.5601  0.2800  0.3579
  950MOL0     C28148   4.357   3.899   5.910  0.3527 -0.2807 -0.9222
  950MOL0     C28149   4.259   3.999   5.905 -0.5429 -0.4114  0.3210
  950MOL0     C28150   4.212   4.062   5.788 -0.0493 -0.8144 -0.8019
  950MOL0     O28151   4.120   4.161   5.791  0.0538 -0.3630  0.0184
  950MOL0     C28152   4.077   4.209   5.917 -0.4125  0.0267 -0.6498
  950MOL0     C28153   3.986   4.324   5.916 -0.3443 -0.3838 -0.1359
  950MOL0     C28154   3.844   4.275   5.882 -0.0852  0.1450 -1.0416
  950MOL0     C28155   3.758   4.266   6.009  0.3539 -1.1935  0.5674
  950MOL0     C28156   3.656   4.154   5.999  0.2797 -0.2111 -0.0656
  950MOL0     C28157   3.584   4.113   6.131 -0.9865 -0.3412 -0.0105
  950MOL0     C28158   3.512   3.985   6.102  0.0284 -0.4509 -0.4605
  950MOL0     C28159   3.407   3.959   6.216 -0.3331 -0.7180 -0.7529
  950MOL0    Cl28160   3.249   4.042   6.182  0.5609 -0.2334 -0.2200
  950MOL0     C28161   4.253   4.008   5.663 -0.3595 -0.0750  0.3629
  950MOL0     C28162   4.349   3.897   5.666  0.1136 -0.6602 -0.8684
  950MOL0     O28163   4.634   3.848   5.625 -0.3866  0.8443  0.0604
  950MOL0     C28164   4.667   3.532   5.800  1.0721  0.3838 -0.3101
  950MOL0     C28165   4.745   3.418   5.810 -0.2449 -0.7125 -0.2020
  950MOL0     N28166   4.481   2.832   5.633  0.2654  0.6587 -0.0722
  950MOL0     N28167   4.361   2.843   5.669  0.2497  0.6651  0.0396
  950MOL0     C28168   3.541   2.765   6.100 -0.5376 -0.8843 -0.2766
  950MOL0     C28169   3.408   2.812   6.133 -0.5561 -1.2063  0.9870
  950MOL0     C28170   2.992   2.904   6.247  0.3729 -0.1727 -0.3458
  950MOL0     C28171   2.916   3.032   6.263 -0.2186  0.0026  1.6215
  950MOL0     C28172   2.788   3.024   6.319 -0.9676 -0.3976  0.1094
  950MOL0     C28173   2.728   2.906   6.362 -0.6659 -0.0133 -0.3354
  950MOL0     O28174   2.594   2.909   6.388 -0.4941  0.5200 -0.1898
  950MOL0     C28175   2.519   2.794   6.420  0.8655  0.5954 -0.6028
  950MOL0     C28176   2.376   2.849   6.432 -0.6476  0.0550  0.3308
  950MOL0     C28177   2.368   2.953   6.550  0.0438  0.1232 -0.8934
  950MOL0     C28178   2.227   3.005   6.586 -0.3421  0.6040  0.2284
  950MOL0     C28179   2.224   3.112   6.675  0.9152  0.2949 -0.1796
  950MOL0     C28180   2.223   3.195   6.765 -0.1722 -0.2521 -0.7884
  950MOL0     C28181   2.803   2.786   6.357 -0.0320 -0.9461  0.2463
  950MOL0     C28182   2.931   2.784   6.311  0.2423 -0.7211  0.1433
  950MOL0     H28183   3.212   2.559   6.037 -0.1533 -0.8880  0.3948
  950MOL0     H28184   3.421   2.478   5.963 -0.5548 -0.7025  3.8945
  950MOL0     H28185   3.636   2.435   5.881 -1.9437  0.8021  0.0732
  950MOL0     H28186   3.614   2.572   5.774  0.6484  0.3751 -1.0446
  950MOL0     H28187   3.882   2.461   5.891  2.1773  1.5060 -0.4847
  950MOL0     H28188   3.822   2.435   5.737  2.6338  1.5059 -1.4007
  950MOL0     H28189   3.990   2.598   5.717  1.7522  3.0623  0.3605
  950MOL0     H28190   3.863   2.704   5.713 -1.6024  0.8607  3.3919
  950MOL0     H28191   3.899   2.759   5.957 -1.0326  3.0994 -1.2150
  950MOL0     H28192   4.040   2.649   5.944 -0.7819 -1.8430 -1.4528
  950MOL0     H28193   4.120   2.814   5.748 -1.2470  0.8440 -2.3054
  950MOL0     H28194   3.977   2.898   5.775 -0.2514 -0.2460 -0.1912
  950MOL0     H28195   4.073   2.943   6.015  0.4743  3.1755 -1.0074
  950MOL0     H28196   4.207   2.847   5.981 -0.7699 -1.9839 -1.8352
  950MOL0     H28197   4.141   3.130   5.904  0.7028  1.3439 -2.3855
  950MOL0     H28198   4.297   3.068   5.936  0.5178  1.5937 -1.4653
  950MOL0     H28199   4.248   3.155   5.706  0.2223  1.1270  2.7152
  950MOL0     H28200   4.138   3.014   5.676 -0.2442 -1.0879 -0.1012
  950MOL0     H28201   4.484   3.156   5.647 -2.9191  1.1669  1.1307
  950MOL0     H28202   4.715   2.864   5.559 -0.8935 -0.7996  2.9942
  950MOL0     H28203   4.676   2.995   5.448  1.2827  0.3389  0.3717
  950MOL0     H28204   4.808   3.021   5.735  0.1029 -0.4904  0.0604
  950MOL0     H28205   4.691   3.133   5.690  2.1273  0.7561  2.5424
  950MOL0     H28206   4.802   3.199   5.487 -0.8504 -1.1390 -1.9815
  950MOL0     H28207   4.905   3.069   5.473 -4.2236  0.8194 -2.1578
  950MOL0     H28208   5.027   3.271   5.560 -1.7937  2.0424 -0.1454
  950MOL0     H28209   5.037   3.122   5.661 -1.9257 -1.0621 -0.1640
  950MOL0     H28210   4.914   3.457   5.516 -1.6265 -1.2712  0.1088
  950MOL0     H28211   4.845   3.619   5.388  0.3693  0.4288  0.5157
  950MOL0     H28212   4.739   3.745   5.445  1.0338  0.7981 -2.3744
  950MOL0     H28213   4.907   3.749   5.498  1.5378 -1.6555  0.4902
  950MOL0     H28214   4.404   3.870   6.003  2.2634  1.6535 -1.1734
  950MOL0     H28215   4.242   4.042   6.004  0.7537 -1.3941  0.9969
  950MOL0     H28216   4.030   4.130   5.977  1.5882  0.9328  2.3745
  950MOL0     H28217   4.172   4.247   5.957 -0.2126 -0.9092 -0.1944
  950MOL0     H28218   3.984   4.362   6.019 -1.5437 -0.8993  0.0606
  950MOL0     H28219   4.029   4.398   5.848 -1.5466 -0.2642 -0.7956
  950MOL0     H28220   3.862   4.184   5.824  0.9526  0.2428 -0.9012
  950MOL0     H28221   3.795   4.342   5.811 -2.3224 -1.8229 -1.4771
  950MOL0     H28222   3.821   4.255   6.097 -0.2231 -0.6886  1.0510
  950MOL0     H28223   3.706   4.360   6.026 -1.2174 -1.7513 -0.7976
  950MOL0     H28224   3.701   4.074   5.940  2.4214  2.3107 -2.0553
  950MOL0     H28225   3.583   4.189   5.925  4.0172  0.6248 -3.7066
  950MOL0     H28226   3.660   4.089   6.206  1.0319 -0.1715 -1.8805
  950MOL0     H28227   3.506   4.185   6.158  0.1965  1.8356 -1.9348
  950MOL0     H28228   3.586   3.904   6.109 -1.2774 -1.6192  0.5956
  950MOL0     H28229   3.454   3.996   6.010 -2.3825  0.4686  1.0872
  950MOL0     H28230   3.445   3.994   6.313 -0.4035  0.2854 -1.0740
  950MOL0     H28231   3.378   3.854   6.211 -1.3795 -0.4484 -0.5023
  950MOL0     H28232   4.214   4.035   5.565  2.8984 -0.7097 -1.2327
  950MOL0     H28233   4.386   3.847   5.578  1.2938  1.6935 -1.7681
  950MOL0     H28234   4.591   3.548   5.875  2.7443 -0.4931  1.7046
  950MOL0     H28235   4.719   3.368   5.903 -3.1597  0.4427 -0.2731
  950MOL0     H28236   3.638   2.806   6.128 -1.4260 -1.4330  4.5451
  950MOL0     H28237   3.403   2.908   6.183  0.0196 -0.4794 -0.2995
  950MOL0     H28238   2.962   3.128   6.242  0.6923 -0.3159  2.1008
  950MOL0     H28239   2.731   3.115   6.314 -0.0927  0.0829 -2.5610
  950MOL0     H28240   2.522   2.719   6.341 -3.9805  0.4053 -0.9064
  950MOL0     H28241   2.554   2.747   6.513 -3.4268 -1.3674  0.2790
  950MOL0     H28242   2.316   2.760   6.452  2.8419 -2.5495  0.0520
  950MOL0     H28243   2.353   2.901   6.338 -0.1790  1.4839  0.9719
  950MOL0     H28244   2.438   3.032   6.521 -0.8179  0.1289 -3.1817
  950MOL0     H28245   2.404   2.898   6.638  0.2219 -2.4503 -2.4575
  950MOL0     H28246   2.170   2.919   6.624  0.8214  0.0206  0.6821
  950MOL0     H28247   2.169   3.047   6.503 -2.4658 -1.6860  0.4156
  950MOL0     H28248   2.211   3.266   6.844  1.1265 -2.8004  1.9341
  950MOL0     H28249   2.757   2.690   6.380  2.2359 -1.7395  1.9020
  950MOL0     H28250   2.981   2.688   6.315  2.4422  0.3037 -1.2097
  951MOL0     O28251   6.193   3.140   7.165 -0.0656 -0.4133 -0.2857
  951MOL0     C28252   6.221   3.046   7.240  0.6342  0.2977 -0.6045
  951MOL0     O28253   6.138   2.999   7.339  0.0280  0.0250 -0.3926
  951MOL0     C28254   6.021   3.066   7.373 -0.2626 -0.8463 -0.9226
  951MOL0     C28255   5.904   3.014   7.323  0.0826 -0.3072  0.8075
  951MOL0     C28256   5.777   3.063   7.362  0.3880  0.3583  0.1931
  951MOL0     C28257   5.777   3.175   7.454  0.1309 -0.6396  0.3750
  951MOL0     O28258   5.654   3.230   7.498  0.3627  0.1152 -0.8077
  951MOL0     C28259   5.531   3.202   7.439  0.4625  0.7457  0.0049
  951MOL0     C28260   5.438   3.323   7.463  0.3062  1.0606  0.2583
  951MOL0     C28261   5.296   3.270   7.448 -0.0507  0.1488  0.2653
  951MOL0     C28262   5.194   3.362   7.508  0.3504 -0.6142 -0.8433
  951MOL0     C28263   5.056   3.301   7.496 -0.3568 -0.7225 -0.1526
  951MOL0     C28264   5.008   3.304   7.351  0.3588  0.0143 -0.3741
  951MOL0     C28265   4.850   3.293   7.321  0.4253  0.4801 -0.0312
  951MOL0     C28266   4.800   3.175   7.402  0.7435  0.3761 -0.5092
  951MOL0     N28267   4.655   3.143   7.387 -0.7810 -0.0691  0.0264
  951MOL0     C28268   4.544   3.183   7.458 -0.1572  0.1005 -0.4382
  951MOL0     C28269   4.439   3.112   7.408  0.5906  0.7170 -0.6070
  951MOL0     C28270   4.290   3.114   7.454 -0.6613  1.2989 -0.0351
  951MOL0     C28271   4.225   3.211   7.362 -0.3161 -0.3003 -0.0561
  951MOL0     C28272   4.085   3.244   7.415  0.1728  0.1433 -0.2728
  951MOL0     C28273   3.988   3.124   7.400 -1.0168  0.1358  0.8453
  951MOL0     O28274   3.856   3.164   7.445  0.3322  0.5063  0.4034
  951MOL0     C28275   3.782   3.247   7.363  0.7877  0.0060 -0.4895
  951MOL0     C28276   3.656   3.282   7.414  0.0447 -1.3393  0.1045
  951MOL0     C28277   3.553   3.351   7.341 -0.7327  0.3915 -0.8524
  951MOL0     C28278   3.421   3.352   7.408 -0.3006 -1.1845  0.2525
  951MOL0     C28279   3.580   3.378   7.202 -0.1876  0.1190  0.4491
  951MOL0     C28280   3.486   3.455   7.113 -0.6257  0.2477 -0.4731
  951MOL0     O28281   3.500   3.449   6.973 -0.4764 -0.5365 -0.6919
  951MOL0     C28282   3.403   3.518   6.908 -1.0719 -0.4262  0.5284
  951MOL0     C28283   3.266   3.473   6.921 -0.4104  0.4192 -0.5931
  951MOL0     C28284   3.165   3.538   6.855 -0.0903 -0.6152  0.7115
  951MOL0     C28285   3.203   3.653   6.784  0.1679 -0.1184 -0.1106
  951MOL0     O28286   3.101   3.708   6.708 -0.2028 -0.2473  0.1175
  951MOL0     C28287   3.087   3.857   6.708 -0.5131  0.3735 -0.2281
  951MOL0     C28288   3.106   3.905   6.572 -0.0291 -0.0081  0.0311
  951MOL0     C28289   3.074   4.050   6.534  0.1134 -0.7484 -0.0475
  951MOL0     C28290   2.926   4.073   6.489 -0.2798 -0.3533 -0.2081
  951MOL0     C28291   2.906   4.216   6.439  0.3256  0.5232  0.2314
  951MOL0     C28292   2.905   4.325   6.546 -0.7223  0.3790  0.3119
  951MOL0     C28293   2.918   4.460   6.489 -0.1196 -1.0557  0.6408
  951MOL0     C28294   3.055   4.502   6.439 -0.2391  0.1009  0.1366
  951MOL0    Cl28295   3.147   4.587   6.575 -0.0262  0.5545  0.4317
  951MOL0     C28296   3.336   3.706   6.780 -0.6911  0.5789  0.7584
  951MOL0     C28297   3.436   3.630   6.835 -0.4348 -0.0503 -0.5553
  951MOL0     O28298   3.397   3.506   7.177 -0.2354 -0.4162 -0.9658
  951MOL0     C28299   3.716   3.363   7.156  0.2790  0.6487 -0.5237
  951MOL0     C28300   3.812   3.290   7.231  0.6088 -0.3742  0.4891
  951MOL0     N28301   4.484   3.033   7.304  0.5912 -0.1726 -0.8838
  951MOL0     N28302   4.607   3.051   7.297  0.2482 -0.2521  0.0461
  951MOL0     C28303   5.890   3.232   7.501  0.0878  0.0505 -0.5506
  951MOL0     C28304   6.012   3.182   7.458  0.8909  0.2867 -0.7870
  951MOL0     C28305   6.350   2.977   7.219  0.0524  0.2300 -0.6276
  951MOL0     C28306   6.461   3.028   7.145 -0.4880 -0.2963  0.3089
  951MOL0     C28307   6.579   2.954   7.142  0.6707 -0.1213 -0.4249
  951MOL0     C28308   6.591   2.832   7.205  0.3352 -0.9428  1.2521
  951MOL0     O28309   6.712   2.774   7.184 -0.4864 -0.2982  0.7547
  951MOL0     C28310   6.758   2.666   7.262  0.5698 -0.6186 -0.4056
  951MOL0     C28311   6.699   2.531   7.205  0.4101  0.5786 -0.5342
  951MOL0     C28312   6.718   2.420   7.308 -0.2701  0.4948  0.5651
  951MOL0     C28313   6.866   2.369   7.314 -0.4210 -0.0181 -0.0884
  951MOL0     C28314   6.863   2.238   7.378 -0.6528  0.1936 -0.1901
  951MOL0     C28315   6.872   2.134   7.435  0.1947 -0.8497 -0.6110
  951MOL0     C28316   6.485   2.785   7.280  0.4993 -0.2922 -0.0767
  951MOL0     C28317   6.362   2.848   7.276 -0.2790 -0.3645  0.1174
  951MOL0     H28318   5.905   2.921   7.268 -1.3620 -0.1297  0.4297
  951MOL0     H28319   5.684   3.021   7.325 -0.9131  2.2433  1.1679
  951MOL0     H28320   5.539   3.180   7.332  0.2363  2.0756 -0.3101
  951MOL0     H28321   5.492   3.115   7.492 -0.7242  1.1713 -0.1371
  951MOL0     H28322   5.463   3.349   7.566 -0.2088  2.5422  0.0431
  951MOL0     H28323   5.455   3.414   7.404 -2.3893  0.8643 -0.9963
  951MOL0     H28324   5.274   3.253   7.342  1.2888 -0.0049 -0.0146
  951MOL0     H28325   5.295   3.176   7.504  4.6281 -0.4379 -0.1532
  951MOL0     H28326   5.208   3.375   7.615 -0.1025 -2.8178 -0.4826
  951MOL0     H28327   5.201   3.461   7.461  1.9728  0.0078  0.6148
  951MOL0     H28328   5.056   3.203   7.545  2.7668  0.8462  3.4651
  951MOL0     H28329   4.997   3.365   7.562 -1.9203 -4.0804  2.0276
  951MOL0     H28330   5.052   3.394   7.305  0.5026  0.8572  1.3410
  951MOL0     H28331   5.068   3.228   7.299  0.6223 -1.0627  1.4399
  951MOL0     H28332   4.804   3.385   7.359 -0.5634  0.2475 -0.6232
  951MOL0     H28333   4.824   3.280   7.216  1.0462 -0.0227 -0.1215
  951MOL0     H28334   4.815   3.204   7.506 -1.4735 -0.7382  0.1813
  951MOL0     H28335   4.862   3.090   7.373  0.1209 -0.3218  0.1522
  951MOL0     H28336   4.534   3.257   7.536  2.0542 -2.1697  2.1847
  951MOL0     H28337   4.245   3.015   7.445 -0.9837  1.3705  0.7432
  951MOL0     H28338   4.276   3.145   7.558  0.9062 -2.4448  1.4641
  951MOL0     H28339   4.208   3.163   7.265 -6.4239 -0.5914  0.7713
  951MOL0     H28340   4.283   3.303   7.354 -1.5943  0.3783 -2.4493
  951MOL0     H28341   4.055   3.327   7.351  0.4836  0.8569  0.5043
  951MOL0     H28342   4.086   3.281   7.517 -1.8474  0.7084 -0.4300
  951MOL0     H28343   4.019   3.040   7.462  1.2793 -1.0903 -1.6940
  951MOL0     H28344   3.982   3.090   7.296 -0.9902  3.9969 -0.6183
  951MOL0     H28345   3.641   3.252   7.517 -1.1050  2.1789  1.1099
  951MOL0     H28346   3.349   3.300   7.344 -1.1120  0.5944 -0.3500
  951MOL0     H28347   3.423   3.295   7.502  2.8753 -2.3281 -0.3761
  951MOL0     H28348   3.401   3.458   7.422  1.3868 -1.2407  4.5899
  951MOL0     H28349   3.245   3.389   6.986 -6.2801  2.8785  1.3836
  951MOL0     H28350   3.061   3.511   6.840 -0.0183  0.2259 -1.6470
  951MOL0     H28351   2.987   3.876   6.749 -0.2913 -0.2981  0.6515
  951MOL0     H28352   3.161   3.907   6.771  1.1256 -1.9360 -0.2086
  951MOL0     H28353   3.203   3.875   6.531 -0.1983 -0.8902  0.2518
  951MOL0     H28354   3.040   3.838   6.517 -2.3677  1.8430  0.4472
  951MOL0     H28355   3.156   4.088   6.471  1.1028 -1.5490  0.7143
  951MOL0     H28356   3.081   4.110   6.625  3.5166 -0.3629 -0.4067
  951MOL0     H28357   2.904   4.000   6.410 -0.3126 -1.4318  0.7698
  951MOL0     H28358   2.859   4.051   6.573  1.9875 -0.3661  1.6757
  951MOL0     H28359   2.807   4.216   6.391  0.9641 -0.9086 -1.1705
  951MOL0     H28360   2.974   4.224   6.355  0.2877  1.2282  0.2661
  951MOL0     H28361   2.818   4.320   6.613 -0.7187  1.4610  0.4215
  951MOL0     H28362   2.989   4.297   6.611  0.5485 -3.3217 -2.5839
  951MOL0     H28363   2.894   4.539   6.561 -1.1615 -2.1097  1.4808
  951MOL0     H28364   2.861   4.470   6.396 -0.9694  1.8274  1.3798
  951MOL0     H28365   3.048   4.563   6.349 -0.5183 -0.7108 -0.4022
  951MOL0     H28366   3.097   4.409   6.400  1.2222  0.4211  0.8895
  951MOL0     H28367   3.355   3.798   6.726 -2.3175 -0.2473 -1.3507
  951MOL0     H28368   3.543   3.645   6.826 -0.5505  2.1456  1.0198
  951MOL0     H28369   3.741   3.391   7.054  0.5999  0.2510 -0.5550
  951MOL0     H28370   3.904   3.267   7.177 -1.6776  0.0978 -4.0674
  951MOL0     H28371   5.881   3.321   7.562 -0.4587  0.3919 -1.1111
  951MOL0     H28372   6.108   3.223   7.489  1.3017 -1.2023  0.0428
  951MOL0     H28373   6.458   3.125   7.096  1.2052  0.1830  1.0614
  951MOL0     H28374   6.664   3.002   7.095  0.3214  1.8478  0.8611
  951MOL0     H28375   6.867   2.656   7.248  0.2007 -3.2935 -2.1405
  951MOL0     H28376   6.736   2.688   7.367 -0.0537  1.2165 -0.8779
  951MOL0     H28377   6.744   2.498   7.112  3.2877  0.1649  0.9035
  951MOL0     H28378   6.593   2.545   7.182  0.5545  2.2495 -0.2807
  951MOL0     H28379   6.658   2.330   7.291 -1.4040  1.2929  0.2563
  951MOL0     H28380   6.681   2.461   7.402 -0.4223  0.1197  0.6712
  951MOL0     H28381   6.932   2.433   7.373  2.8688  0.7251 -4.0948
  951MOL0     H28382   6.913   2.356   7.216  0.6046 -2.2792  0.6411
  951MOL0     H28383   6.874   2.046   7.497  0.1297 -0.3534  0.1100
  951MOL0     H28384   6.484   2.688   7.329 -2.4032 -0.1825  0.2580
  951MOL0     H28385   6.274   2.813   7.329 -1.3180  2.6238  0.5219
  952MOL0     O28386   1.176   0.531   3.101 -0.1333  0.1655  0.0179
  952MOL0     C28387   1.300   0.525   3.111  0.3346 -0.4874  0.3995
  952MOL0     O28388   1.390   0.627   3.092 -0.3998  0.2881 -0.9487
  952MOL0     C28389   1.343   0.740   3.030  0.2335  0.9395  0.3719
  952MOL0     C28390   1.419   0.779   2.920  0.0128 -0.6925  0.8139
  952MOL0     C28391   1.383   0.897   2.850  0.6834  0.4364 -0.4938
  952MOL0     C28392   1.261   0.959   2.880  0.3116  0.3441 -0.2356
  952MOL0     O28393   1.203   1.047   2.800  0.0560  0.9692  0.0779
  952MOL0     C28394   1.289   1.160   2.782  0.9736  0.1749 -0.2932
  952MOL0     C28395   1.212   1.296   2.764 -0.6524  0.6116  0.2067
  952MOL0     C28396   1.092   1.313   2.856 -0.1296  0.4893  0.5130
  952MOL0     C28397   1.011   1.431   2.801 -0.1728  0.6141  0.7248
  952MOL0     C28398   0.882   1.436   2.886 -0.2527 -0.1415  0.4025
  952MOL0     C28399   0.763   1.534   2.835  0.0440 -0.3993 -0.1823
  952MOL0     C28400   0.778   1.694   2.847  1.2516  0.0639 -0.0854
  952MOL0     C28401   0.842   1.739   2.975 -0.5821  0.2059 -0.4454
  952MOL0     N28402   0.747   1.834   3.019 -0.3139 -0.2960 -0.1840
  952MOL0     C28403   0.620   1.803   3.070  0.2298  0.1002  0.5442
  952MOL0     C28404   0.551   1.917   3.046  0.8924  0.5524 -0.8710
  952MOL0     C28405   0.400   1.938   3.072 -0.3385  0.1155 -0.1360
  952MOL0     C28406   0.318   1.874   2.971 -0.4024  0.0093  0.5398
  952MOL0     C28407   0.181   1.942   2.947 -0.7102 -0.0718 -0.3609
  952MOL0     C28408   0.083   1.934   3.063  0.6063  0.1611  0.7414
  952MOL0     O28409   0.084   1.793   3.107  0.1489  0.1343  0.4248
  952MOL0     C28410   0.083   1.782   3.247 -0.5955 -0.3269  0.1991
  952MOL0     C28411  -0.017   1.842   3.319 -0.5387  0.1807 -0.3777
  952MOL0     C28412  -0.030   1.820   3.463 -0.4632  0.1481  0.6720
  952MOL0     C28413  -0.129   1.909   3.534 -0.0580  0.5585  0.1186
  952MOL0     C28414   0.057   1.724   3.518  0.1928 -0.6644  0.1036
  952MOL0     C28415   0.044   1.696   3.665 -0.3898 -0.6731  1.2530
  952MOL0     O28416   0.090   1.574   3.713 -0.0350 -0.0954 -0.4083
  952MOL0     C28417   0.046   1.537   3.832 -0.8746 -0.5752 -0.8551
  952MOL0     C28418  -0.086   1.519   3.875  0.2524 -0.2377 -0.1511
  952MOL0     C28419  -0.124   1.468   3.993 -1.3062  0.1882 -1.2034
  952MOL0     C28420  -0.023   1.431   4.085  0.5350 -0.5050  0.6783
  952MOL0     O28421  -0.067   1.391   4.204  0.5631 -0.0101 -0.0224
  952MOL0     C28422   0.028   1.295   4.273 -0.5093 -1.4658 -0.3668
  952MOL0     C28423  -0.043   1.225   4.387 -0.1220 -0.2661 -0.8867
  952MOL0     C28424  -0.172   1.145   4.357  0.0981  0.6872  0.0389
  952MOL0     C28425  -0.176   1.016   4.445 -0.6664  0.5550  0.0123
  952MOL0     C28426  -0.283   0.920   4.396 -0.0081  0.1979  0.2421
  952MOL0     C28427  -0.427   0.960   4.436 -0.2992 -0.3240 -0.4870
  952MOL0     C28428  -0.534   0.865   4.381 -0.3317 -0.9157 -0.0697
  952MOL0     C28429  -0.572   0.759   4.479  0.1778 -0.5426 -1.2413
  952MOL0    Cl28430  -0.613   0.618   4.383 -0.0321  0.2986  0.6862
  952MOL0     C28431   0.112   1.463   4.056  0.0759 -0.6404 -0.0146
  952MOL0     C28432   0.144   1.511   3.926 -0.8048 -0.7251 -0.8945
  952MOL0     O28433   0.015   1.793   3.736 -0.4093 -0.7500  0.5893
  952MOL0     C28434   0.144   1.648   3.438  0.5378  0.1487  0.7155
  952MOL0     C28435   0.166   1.686   3.304  0.3881  0.1840  0.5441
  952MOL0     N28436   0.640   2.022   3.025 -1.2247 -0.0698  0.2148
  952MOL0     N28437   0.759   1.970   2.995 -0.1248 -0.6923  0.0200
  952MOL0     C28438   1.190   0.919   2.992 -0.3636  0.6849 -0.5439
  952MOL0     C28439   1.242   0.818   3.078  0.7635 -0.5861  0.3357
  952MOL0     C28440   1.352   0.405   3.158  0.2614  0.3367  0.4445
  952MOL0     C28441   1.274   0.312   3.232 -0.1139  1.0969  0.2944
  952MOL0     C28442   1.329   0.191   3.282  1.3953 -0.2312  0.4910
  952MOL0     C28443   1.461   0.157   3.260 -1.0525  0.4373 -0.8247
  952MOL0     O28444   1.532   0.045   3.309 -0.6957 -0.1858  0.7534
  952MOL0     C28445   1.468  -0.068   3.363  0.4519 -0.5699  0.5184
  952MOL0     C28446   1.400  -0.158   3.255 -0.5553 -0.2520 -0.0053
  952MOL0     C28447   1.506  -0.242   3.173 -0.8090  0.1118 -0.2800
  952MOL0     C28448   1.608  -0.311   3.264 -1.1855 -0.6388 -0.3265
  952MOL0     C28449   1.670  -0.427   3.198  0.6258 -0.1149 -0.6864
  952MOL0     C28450   1.728  -0.528   3.166 -0.6316 -0.0064  0.2106
  952MOL0     C28451   1.537   0.252   3.177  0.2911 -0.5313  0.1352
  952MOL0     C28452   1.483   0.366   3.122 -0.1675  0.0175  0.1510
  952MOL0     H28453   1.488   0.707   2.878  0.2718 -0.0375  0.0853
  952MOL0     H28454   1.438   0.921   2.760  2.1124  1.1678  0.5197
  952MOL0     H28455   1.344   1.189   2.872  1.1632  2.1415 -0.9781
  952MOL0     H28456   1.368   1.140   2.709  1.1490 -1.7676  0.3905
  952MOL0     H28457   1.276   1.385   2.767 -0.0329  0.1591  1.8275
  952MOL0     H28458   1.169   1.286   2.664 -1.9143 -3.9872  0.9634
  952MOL0     H28459   1.024   1.228   2.846 -0.4838  0.5176  2.3428
  952MOL0     H28460   1.111   1.329   2.963  0.6973  1.5624  0.2162
  952MOL0     H28461   1.073   1.521   2.807 -0.8333  1.1520 -0.1363
  952MOL0     H28462   0.984   1.419   2.695  2.0055 -1.2601  0.3105
  952MOL0     H28463   0.841   1.335   2.877 -0.8880  0.1387  0.1142
  952MOL0     H28464   0.909   1.438   2.992  0.4874  0.9796  0.2055
  952MOL0     H28465   0.745   1.513   2.729  1.4568  1.8124 -0.9651
  952MOL0     H28466   0.678   1.509   2.898  0.0950 -1.2824 -0.4595
  952MOL0     H28467   0.835   1.744   2.768  1.2604 -1.0449 -0.8084
  952MOL0     H28468   0.677   1.735   2.839  0.4836 -1.9723 -2.0460
  952MOL0     H28469   0.943   1.776   2.953 -0.2014 -0.4505  0.1372
  952MOL0     H28470   0.852   1.656   3.045  0.7047 -1.1232 -2.1267
  952MOL0     H28471   0.578   1.707   3.099  0.0982 -0.1287 -0.3697
  952MOL0     H28472   0.370   1.896   3.169  1.1091 -2.0891 -0.5951
  952MOL0     H28473   0.378   2.045   3.077 -1.4346  0.0951 -2.9183
  952MOL0     H28474   0.318   1.768   2.996  0.0389  0.2467  1.5984
  952MOL0     H28475   0.365   1.882   2.872 -1.4607 -3.8339 -0.4425
  952MOL0     H28476   0.137   1.905   2.854  1.2476  0.2198 -1.4786
  952MOL0     H28477   0.203   2.048   2.930 -0.1821 -0.3019 -1.1681
  952MOL0     H28478  -0.015   1.969   3.029  1.1008  0.8780  0.0009
  952MOL0     H28479   0.113   2.006   3.140  0.9554  0.0911  0.6727
  952MOL0     H28480  -0.076   1.922   3.274 -1.3537  1.5989  2.9373
  952MOL0     H28481  -0.083   2.000   3.572  1.0566 -0.4216  1.2341
  952MOL0     H28482  -0.205   1.936   3.460  0.6466  2.7713  0.1318
  952MOL0     H28483  -0.171   1.854   3.618 -0.4639  0.9954  0.2035
  952MOL0     H28484  -0.167   1.517   3.803  1.8016 -2.8083 -1.9834
  952MOL0     H28485  -0.225   1.451   4.031 -1.2914  0.0958 -1.2046
  952MOL0     H28486   0.081   1.221   4.214 -0.0468  1.3151 -3.8040
  952MOL0     H28487   0.105   1.360   4.316  1.3928 -2.1738 -2.5146
  952MOL0     H28488   0.025   1.159   4.441 -3.6629 -3.4278  0.1883
  952MOL0     H28489  -0.074   1.296   4.464  0.6959 -1.0691  0.2006
  952MOL0     H28490  -0.189   1.125   4.251  1.0187  0.2317 -0.0351
  952MOL0     H28491  -0.255   1.207   4.389 -0.3830  0.1738 -0.2029
  952MOL0     H28492  -0.077   0.971   4.436  0.8923  3.9430 -1.4338
  952MOL0     H28493  -0.188   1.033   4.552  2.0252  0.6625  0.3556
  952MOL0     H28494  -0.247   0.836   4.456  0.0223  1.7932  2.5512
  952MOL0     H28495  -0.266   0.896   4.290 -0.4454  1.3254 -0.0914
  952MOL0     H28496  -0.428   0.973   4.544  1.1180  0.3278 -0.5263
  952MOL0     H28497  -0.454   1.059   4.397 -0.5491  0.6230  1.9552
  952MOL0     H28498  -0.492   0.835   4.285  3.4191 -0.2449  1.1571
  952MOL0     H28499  -0.624   0.923   4.358 -0.6944 -1.8315 -1.0090
  952MOL0     H28500  -0.655   0.786   4.545  1.1700  0.6910 -0.4549
  952MOL0     H28501  -0.497   0.731   4.553 -1.0660  0.3385  0.4151
  952MOL0     H28502   0.189   1.446   4.130  0.5387 -3.7455 -1.0610
  952MOL0     H28503   0.246   1.521   3.888 -0.1276 -3.3271  0.0141
  952MOL0     H28504   0.200   1.563   3.476  3.4329  1.1889 -0.8763
  952MOL0     H28505   0.224   1.613   3.249 -2.1051  0.7347 -3.1570
  952MOL0     H28506   1.103   0.980   3.015  0.3899  1.2161  1.1005
  952MOL0     H28507   1.188   0.797   3.170 -0.8547 -0.4460 -0.5434
  952MOL0     H28508   1.173   0.338   3.261 -0.3364  2.2298 -1.3312
  952MOL0     H28509   1.261   0.128   3.339  0.4863 -1.7943 -2.1654
  952MOL0     H28510   1.521  -0.120   3.443 -1.9215  1.6447  3.7514
  952MOL0     H28511   1.394  -0.027   3.431  0.0301 -1.1255  0.4025
  952MOL0     H28512   1.332  -0.098   3.194  0.8365  1.4622  0.0572
  952MOL0     H28513   1.343  -0.234   3.310 -0.7045  0.0857  0.3062
  952MOL0     H28514   1.549  -0.182   3.092 -0.7964 -1.0252 -1.1494
  952MOL0     H28515   1.443  -0.311   3.117 -0.7037  0.7920 -1.2621
  952MOL0     H28516   1.565  -0.328   3.363  0.7708  0.8164  0.8616
  952MOL0     H28517   1.692  -0.245   3.289 -0.5851 -2.7411  4.1122
  952MOL0     H28518   1.764  -0.622   3.130  1.7850  1.8230 -2.6157
  952MOL0     H28519   1.643   0.238   3.161  0.1138 -2.5219  0.4957
  952MOL0     H28520   1.548   0.433   3.068  0.9811 -1.8499 -0.8864
  953MOL0     O28521   3.781  10.906   5.588 -0.2563  0.0758 -0.3517
  953MOL0     C28522   3.872  10.971   5.549 -0.5250 -0.3612  0.9267
  953MOL0     O28523   3.924  10.955   5.420 -0.2442  0.2023 -0.1931
  953MOL0     C28524   3.865  10.890   5.314  0.5246  0.9456 -0.5039
  953MOL0     C28525   3.845  10.954   5.200 -0.0896  0.5270  0.4825
  953MOL0     C28526   3.795  10.891   5.082  0.0993 -0.6053 -0.6952
  953MOL0     C28527   3.774  10.754   5.086  0.8542  0.3932 -0.5472
  953MOL0     O28528   3.743  10.686   4.974 -0.4379 -0.6610  0.1448
  953MOL0     C28529   3.860  10.676   4.889 -0.1412  0.4066  0.1336
  953MOL0     C28530   3.875  10.543   4.819  1.1836 -0.4443  0.6626
  953MOL0     C28531   3.848  10.427   4.922 -0.2997 -0.3527 -0.8723
  953MOL0     C28532   3.849  10.291   4.848  0.5138 -0.4533 -0.6067
  953MOL0     C28533   3.848  10.167   4.933  0.6753 -0.1612 -0.2128
  953MOL0     C28534   3.715  10.136   5.001  0.5527 -0.1282 -0.2643
  953MOL0     C28535   3.755  10.110   5.155  0.3447  0.9129  0.1031
  953MOL0     C28536   3.642  10.038   5.225  0.0775 -0.1795  0.2741
  953MOL0     N28537   3.688   9.997   5.359  0.2578 -0.2127  0.0338
  953MOL0     C28538   3.706  10.085   5.459  0.9983 -1.0612  0.2221
  953MOL0     C28539   3.747  10.013   5.568 -1.5562 -0.2924  0.3241
  953MOL0     C28540   3.765  10.070   5.707 -0.5781 -0.2989 -0.4996
  953MOL0     C28541   3.894  10.133   5.740  0.1849 -0.3082 -0.1097
  953MOL0     C28542   4.011  10.033   5.769  0.2902  0.2171 -0.2121
  953MOL0     C28543   4.026   9.979   5.905 -0.3552 -0.0873 -0.0840
  953MOL0     O28544   4.070  10.072   5.993  0.1160 -0.0319  0.3760
  953MOL0     C28545   4.127  10.033   6.116  0.6965 -0.0674 -0.4207
  953MOL0     C28546   4.142   9.896   6.150  1.0813  0.2970  0.3259
  953MOL0     C28547   4.162   9.848   6.276  0.3848 -0.6871  0.0338
  953MOL0     C28548   4.163   9.701   6.297 -0.5654  0.7573  0.1723
  953MOL0     C28549   4.192   9.951   6.376 -0.3354  0.1712  0.1181
  953MOL0     C28550   4.236   9.908   6.514  0.5505  0.3188  0.4323
  953MOL0     O28551   4.303  10.012   6.580 -0.5017 -0.3943 -0.5212
  953MOL0     C28552   4.379   9.991   6.690  0.0829  0.9836 -0.0870
  953MOL0     C28553   4.437   9.874   6.737 -0.1711  0.4675  0.1009
  953MOL0     C28554   4.544   9.880   6.838  0.2236  0.4993  0.0924
  953MOL0     C28555   4.586  10.003   6.887 -0.3830  0.4548  1.2037
  953MOL0     O28556   4.703  10.004   6.960 -0.4519  0.8063 -0.3882
  953MOL0     C28557   4.688   9.934   7.087 -0.0493 -0.3108 -0.6198
  953MOL0     C28558   4.769  10.008   7.186  0.1335 -0.7232 -0.1330
  953MOL0     C28559   4.749   9.949   7.316  0.2781  0.2858 -0.1078
  953MOL0     C28560   4.771  10.051   7.432 -0.6492  0.1029 -0.2406
  953MOL0     C28561   4.904  10.138   7.431  0.1837 -0.6721  0.5413
  953MOL0     C28562   5.032  10.081   7.466 -0.3990  0.4523 -0.7422
  953MOL0     C28563   5.036  10.036   7.615 -0.2442 -0.5197  0.9149
  953MOL0     C28564   5.033   9.881   7.632  0.4998  0.1801  0.3243
  953MOL0    Cl28565   5.200   9.820   7.584 -0.0121 -0.3301 -0.0279
  953MOL0     C28566   4.521  10.119   6.840 -0.6445  0.4748 -0.4345
  953MOL0     C28567   4.420  10.107   6.751  0.7837  1.0965 -0.4293
  953MOL0     O28568   4.212   9.800   6.562  0.5244  0.7124  0.6980
  953MOL0     C28569   4.176  10.092   6.343 -1.5076 -0.0084  0.2891
  953MOL0     C28570   4.156  10.132   6.215 -0.0311  0.5373  0.0886
  953MOL0     N28571   3.772   9.883   5.532 -0.0874 -0.3178  0.1855
  953MOL0     N28572   3.734   9.877   5.409  0.0898  0.0118 -0.0907
  953MOL0     C28573   3.791  10.685   5.206 -1.3440 -0.1940 -0.7508
  953MOL0     C28574   3.837  10.754   5.319 -0.2611 -0.3335 -1.0257
  953MOL0     C28575   3.924  11.082   5.626 -0.1866 -1.3196 -0.3081
  953MOL0     C28576   4.002  11.188   5.571  0.0904  0.8049 -0.0488
  953MOL0     C28577   4.057  11.294   5.648  0.2239 -0.4056  0.6161
  953MOL0     C28578   4.026  11.294   5.781  0.4237 -0.0186 -0.8582
  953MOL0     O28579   4.057  11.399   5.867 -0.3289 -0.8077  0.7303
  953MOL0     C28580   3.981  11.519   5.842  0.1820  1.1390 -1.0226
  953MOL0     C28581   4.051  11.614   5.747  0.0344  1.0100 -0.1460
  953MOL0     C28582   4.010  11.753   5.754  0.2308  0.5862 -0.1464
  953MOL0     C28583   3.860  11.780   5.710 -0.4082 -1.0534 -0.4094
  953MOL0     C28584   3.828  11.921   5.743  0.6853 -0.3476  0.1668
  953MOL0     C28585   3.799  12.038   5.752 -0.6162 -0.6300  0.1928
  953MOL0     C28586   3.956  11.184   5.837 -0.2549  0.5373 -1.2439
  953MOL0     C28587   3.914  11.084   5.759 -0.6307  0.4517  0.2196
  953MOL0     H28588   3.866  11.061   5.196 -0.9652  0.6556 -2.4954
  953MOL0     H28589   3.786  10.936   4.984  0.5670  1.0914 -0.0075
  953MOL0     H28590   3.859  10.756   4.814  2.2160 -0.8661 -1.3771
  953MOL0     H28591   3.949  10.682   4.951 -0.5879 -0.6406  0.9143
  953MOL0     H28592   3.800  10.535   4.739  2.0364 -3.3976  0.0316
  953MOL0     H28593   3.974  10.533   4.773  1.5226  2.5356  0.5318
  953MOL0     H28594   3.929  10.429   4.995 -0.1068 -1.0069 -1.0664
  953MOL0     H28595   3.754  10.449   4.974 -0.0338  2.2147 -1.3256
  953MOL0     H28596   3.768  10.276   4.776 -1.0214 -4.1203  1.6006
  953MOL0     H28597   3.945  10.288   4.796  0.5696  0.5570 -0.5890
  953MOL0     H28598   3.859  10.092   4.854  1.8661  1.2983 -1.4927
  953MOL0     H28599   3.930  10.146   5.002  0.9531 -1.5141 -0.9214
  953MOL0     H28600   3.642  10.217   4.999  1.4751  0.7180 -1.0988
  953MOL0     H28601   3.660  10.048   4.966 -1.3296  1.1323 -0.5864
  953MOL0     H28602   3.828  10.029   5.157  1.6540  2.0534  0.7372
  953MOL0     H28603   3.786  10.202   5.205  1.0244  0.1444  1.1365
  953MOL0     H28604   3.608   9.959   5.156 -3.1096  1.7693 -0.6039
  953MOL0     H28605   3.555  10.099   5.247  0.3840  0.2138  0.3953
  953MOL0     H28606   3.702  10.193   5.458 -0.4177 -1.0197  2.4322
  953MOL0     H28607   3.698  10.157   5.706 -0.6560 -0.1810 -5.2718
  953MOL0     H28608   3.730  10.006   5.789  0.1207 -1.0415 -0.7729
  953MOL0     H28609   3.878  10.193   5.830  0.6955  0.6444 -0.6392
  953MOL0     H28610   3.928  10.205   5.665 -2.7878  1.8583  0.4026
  953MOL0     H28611   4.105  10.086   5.749 -0.1210  1.5055  1.1138
  953MOL0     H28612   3.998   9.950   5.699  0.4963 -1.0609  1.2075
  953MOL0     H28613   4.095   9.895   5.892  0.3452  0.3177  0.9171
  953MOL0     H28614   3.937   9.928   5.944  0.4889 -1.1859  0.4499
  953MOL0     H28615   4.136   9.837   6.060  3.4957  1.5563 -0.7492
  953MOL0     H28616   4.262   9.680   6.338  0.5447  0.7801 -2.3608
  953MOL0     H28617   4.085   9.661   6.363  1.5814 -2.4775  0.9658
  953MOL0     H28618   4.174   9.647   6.203 -1.5565 -2.8537  1.9527
  953MOL0     H28619   4.418   9.781   6.684 -0.4627  1.7337 -2.0968
  953MOL0     H28620   4.617   9.802   6.859  2.9603  3.5060  2.7274
  953MOL0     H28621   4.583   9.937   7.116  0.3385 -1.5957  1.1411
  953MOL0     H28622   4.707   9.826   7.080  1.0640 -0.2696  1.0078
  953MOL0     H28623   4.876  10.003   7.163  0.5015 -0.3502  1.3702
  953MOL0     H28624   4.742  10.114   7.183 -2.2107 -1.0561 -6.4931
  953MOL0     H28625   4.819   9.868   7.339  0.1801  0.0142 -0.7424
  953MOL0     H28626   4.647   9.911   7.328 -0.7660  3.0602  0.4524
  953MOL0     H28627   4.692  10.127   7.426  0.0904  0.8520 -0.6876
  953MOL0     H28628   4.755  10.003   7.529 -0.0404 -1.3995 -0.8563
  953MOL0     H28629   4.873  10.218   7.499 -1.8289  0.6257 -1.7107
  953MOL0     H28630   4.915  10.196   7.339  1.3580 -2.0103 -0.1975
  953MOL0     H28631   5.050   9.990   7.408 -0.5046 -0.1581  0.1717
  953MOL0     H28632   5.111  10.156   7.456 -0.1045  0.3522  0.5915
  953MOL0     H28633   4.951  10.076   7.669 -0.8575  1.6947 -1.5027
  953MOL0     H28634   5.127  10.071   7.664 -0.5865  0.5344  0.8096
  953MOL0     H28635   4.950   9.839   7.574  1.2004  0.8467 -1.2072
  953MOL0     H28636   5.026   9.851   7.737 -0.5689 -0.9290 -0.0308
  953MOL0     H28637   4.547  10.219   6.873 -0.1429 -0.1194  1.0728
  953MOL0     H28638   4.369  10.192   6.706  0.4162  0.0164 -2.1704
  953MOL0     H28639   4.180  10.164   6.423 -0.2765  0.0404  0.1940
  953MOL0     H28640   4.141  10.232   6.175  2.8819  1.0420  0.0062
  953MOL0     H28641   3.789  10.577   5.207  1.7194 -0.3439  0.1664
  953MOL0     H28642   3.855  10.700   5.412  1.4889  2.6534  0.5040
  953MOL0     H28643   4.039  11.204   5.470 -1.9957  0.2429 -0.9406
  953MOL0     H28644   4.114  11.373   5.599 -0.5392 -0.0778  0.2440
  953MOL0     H28645   3.892  11.482   5.792 -1.1964  2.3843  0.4143
  953MOL0     H28646   3.952  11.561   5.939  2.8922 -1.1483  0.9611
  953MOL0     H28647   4.049  11.569   5.647  1.4715 -2.0849  1.0855
  953MOL0     H28648   4.159  11.606   5.767  0.0270  2.0050  0.3523
  953MOL0     H28649   4.077  11.813   5.692  1.4603 -1.8845 -1.3871
  953MOL0     H28650   4.029  11.792   5.854  0.4557 -1.7613  0.7879
  953MOL0     H28651   3.801  11.712   5.773 -0.8019  1.8397  2.5636
  953MOL0     H28652   3.855  11.759   5.602 -0.5826 -0.4596 -0.5159
  953MOL0     H28653   3.757  12.136   5.756  1.4969  0.3376 -0.0538
  953MOL0     H28654   3.935  11.190   5.943  3.6248  1.6029 -0.3790
  953MOL0     H28655   3.850  11.007   5.802 -1.8308  2.0249  1.4089
  954MOL0     O28656   4.434   3.724   3.119 -0.0174 -0.1797 -0.7013
  954MOL0     C28657   4.489   3.797   3.038 -1.1027 -0.1750 -0.4052
  954MOL0     O28658   4.616   3.826   3.034 -0.4128 -0.2119 -0.3465
  954MOL0     C28659   4.705   3.828   3.144  0.2509  0.3239  0.4812
  954MOL0     C28660   4.781   3.943   3.154  0.4084 -0.2626 -0.4194
  954MOL0     C28661   4.874   3.940   3.252 -0.6666  0.2230  0.4440
  954MOL0     C28662   4.906   3.819   3.332 -0.0668 -1.0760  0.0871
  954MOL0     O28663   4.997   3.817   3.435  0.1614  0.0857 -0.7497
  954MOL0     C28664   5.118   3.889   3.436  0.0957 -0.6160  0.3141
  954MOL0     C28665   5.204   3.872   3.303  0.2622  0.0290 -0.0548
  954MOL0     C28666   5.354   3.913   3.336 -0.5092  0.6150 -0.3277
  954MOL0     C28667   5.416   3.814   3.423  0.0301  0.1921  0.1823
  954MOL0     C28668   5.563   3.791   3.387 -0.6679 -0.0737 -0.6878
  954MOL0     C28669   5.645   3.694   3.477 -0.1403 -0.5427 -0.3468
  954MOL0     C28670   5.687   3.754   3.617 -0.7845 -0.8806  0.1258
  954MOL0     C28671   5.788   3.666   3.704  0.3323  0.3174  0.1853
  954MOL0     N28672   5.713   3.552   3.767  0.2825  0.1769 -0.9423
  954MOL0     C28673   5.641   3.566   3.887 -0.2109 -0.1851  0.5315
  954MOL0     C28674   5.566   3.455   3.891  0.5491 -1.0896 -0.2132
  954MOL0     C28675   5.467   3.430   4.007 -0.9098 -0.2511 -0.2161
  954MOL0     C28676   5.489   3.300   4.085  0.6908 -0.7624 -0.1411
  954MOL0     C28677   5.630   3.270   4.152  0.5134  0.1828  0.4571
  954MOL0     C28678   5.636   3.340   4.288  0.1315  0.7799 -0.6066
  954MOL0     O28679   5.779   3.360   4.347  0.4261  0.2211 -0.2821
  954MOL0     C28680   5.845   3.248   4.393  1.3987  0.3555  0.0414
  954MOL0     C28681   5.792   3.124   4.402  1.2520 -1.0113  0.0502
  954MOL0     C28682   5.854   3.018   4.456 -0.8463  0.4240  0.1691
  954MOL0     C28683   5.776   2.892   4.459 -0.9479 -0.5156 -0.0649
  954MOL0     C28684   5.977   3.037   4.513 -1.4048 -0.5141  0.4223
  954MOL0     C28685   6.053   2.931   4.589  0.2812 -0.4751 -0.4226
  954MOL0     O28686   6.126   2.981   4.694 -0.2249 -0.0256 -0.2384
  954MOL0     C28687   6.224   2.895   4.757  0.6138 -1.0406 -0.4827
  954MOL0     C28688   6.356   2.906   4.715 -0.1458 -0.8388 -0.2796
  954MOL0     C28689   6.454   2.820   4.776 -0.4697 -0.7518 -0.6702
  954MOL0     C28690   6.428   2.734   4.872 -0.0640 -0.3823 -0.2444
  954MOL0     O28691   6.540   2.664   4.928 -0.7679  0.1734 -0.5157
  954MOL0     C28692   6.516   2.548   5.005 -0.3863 -0.3114  0.0456
  954MOL0     C28693   6.644   2.482   5.045 -0.7320  0.1773 -0.1961
  954MOL0     C28694   6.726   2.558   5.145 -0.7707 -0.1301 -0.3476
  954MOL0     C28695   6.845   2.471   5.183  0.5117  1.6047  0.0264
  954MOL0     C28696   6.976   2.537   5.202 -0.3667 -0.3197 -0.0002
  954MOL0     C28697   7.070   2.505   5.091 -0.8228 -0.3558  1.4067
  954MOL0     C28698   7.196   2.600   5.120  0.8441 -0.4695 -1.2027
  954MOL0     C28699   7.317   2.547   5.043  0.3794  0.7192  0.2386
  954MOL0    Cl28700   7.446   2.676   5.071 -0.0715  0.1859 -0.1410
  954MOL0     C28701   6.295   2.715   4.905  0.0923  0.0209 -1.2729
  954MOL0     C28702   6.197   2.796   4.853  0.8826  0.8924 -0.0141
  954MOL0     O28703   6.038   2.809   4.556 -0.4364  0.7309  0.2231
  954MOL0     C28704   6.041   3.165   4.500 -0.4406  0.0800 -0.5344
  954MOL0     C28705   5.974   3.267   4.437  0.5862 -0.7728  0.2604
  954MOL0     N28706   5.584   3.378   3.784  0.3385  0.1549  0.4125
  954MOL0     N28707   5.674   3.434   3.712 -0.0856 -0.4813 -0.3373
  954MOL0     C28708   4.835   3.703   3.312 -0.7281 -0.3128  0.4797
  954MOL0     C28709   4.724   3.709   3.220  0.2279 -0.3096  0.7976
  954MOL0     C28710   4.415   3.844   2.922 -0.0919 -0.9441  1.0458
  954MOL0     C28711   4.272   3.854   2.911 -0.3781 -0.5602 -0.1806
  954MOL0     C28712   4.214   3.882   2.787  0.6037  0.5289  0.4536
  954MOL0     C28713   4.288   3.896   2.672  0.0480 -0.0702 -0.0121
  954MOL0     O28714   4.228   3.902   2.551 -1.0292 -0.0573  0.2881
  954MOL0     C28715   4.091   3.877   2.525  0.3110 -1.0127  0.7893
  954MOL0     C28716   4.082   3.900   2.366  0.0701  0.8920 -0.3258
  954MOL0     C28717   3.945   3.850   2.302 -0.2025 -0.0134 -0.1403
  954MOL0     C28718   3.898   3.932   2.192 -0.1362  0.4676  0.0559
  954MOL0     C28719   3.990   3.917   2.076 -0.6924  0.4417  0.4867
  954MOL0     C28720   4.067   3.921   1.978  0.2815 -0.3670  0.3966
  954MOL0     C28721   4.428   3.892   2.678  0.1811  0.6948 -0.8610
  954MOL0     C28722   4.484   3.872   2.804 -0.0512  0.5643  0.3206
  954MOL0     H28723   4.761   4.024   3.085  2.1125  0.4361 -0.1475
  954MOL0     H28724   4.936   4.027   3.270 -0.2531 -0.4264  2.4514
  954MOL0     H28725   5.096   3.995   3.454 -2.9388 -0.9745 -0.7194
  954MOL0     H28726   5.181   3.859   3.520 -0.3681 -1.8113  0.2531
  954MOL0     H28727   5.202   3.767   3.272  3.4002  0.0419 -0.6723
  954MOL0     H28728   5.164   3.924   3.215  2.0376  1.4997 -0.0567
  954MOL0     H28729   5.412   3.918   3.243 -0.5868  2.6997 -0.2909
  954MOL0     H28730   5.361   4.013   3.378  3.8476  0.2785  0.2035
  954MOL0     H28731   5.402   3.845   3.527  1.1011  1.4014 -0.0062
  954MOL0     H28732   5.374   3.717   3.397  4.8706 -2.1301  0.0208
  954MOL0     H28733   5.565   3.742   3.289  0.4897 -6.0280  1.8940
  954MOL0     H28734   5.600   3.894   3.380 -0.6027 -0.0950 -0.6604
  954MOL0     H28735   5.578   3.608   3.490 -0.8872 -0.1676 -1.6564
  954MOL0     H28736   5.741   3.663   3.434 -1.5655 -2.7134 -2.1611
  954MOL0     H28737   5.739   3.847   3.593 -2.8715  0.0124 -1.2378
  954MOL0     H28738   5.593   3.779   3.667 -0.4373  1.8906 -0.4147
  954MOL0     H28739   5.835   3.734   3.775  1.2929  0.1718 -0.2905
  954MOL0     H28740   5.862   3.625   3.635 -1.0749 -1.3937 -0.4132
  954MOL0     H28741   5.648   3.653   3.953  0.4831  1.6561 -1.8249
  954MOL0     H28742   5.482   3.510   4.080 -1.2096  0.4406 -0.8953
  954MOL0     H28743   5.362   3.433   3.975 -1.0537  0.4006  0.2988
  954MOL0     H28744   5.479   3.215   4.017  1.6172 -0.4990 -0.6166
  954MOL0     H28745   5.413   3.305   4.164 -0.0229 -1.6961 -0.7450
  954MOL0     H28746   5.708   3.296   4.080 -1.1066 -2.5928 -2.5477
  954MOL0     H28747   5.638   3.162   4.168  0.4113  0.3968  2.1288
  954MOL0     H28748   5.577   3.288   4.363 -0.9464 -1.2617 -2.7132
  954MOL0     H28749   5.585   3.433   4.261 -0.9026  0.5554  0.5170
  954MOL0     H28750   5.684   3.115   4.394  1.2692 -2.2369  0.8945
  954MOL0     H28751   5.688   2.903   4.396 -0.4688 -0.8522 -0.8165
  954MOL0     H28752   5.832   2.807   4.418 -0.3713  1.1673 -3.0536
  954MOL0     H28753   5.745   2.871   4.561  1.1928  1.1332  1.0100
  954MOL0     H28754   6.382   2.978   4.639  2.1608 -2.3026 -0.9800
  954MOL0     H28755   6.560   2.839   4.760  0.0562 -0.0736  2.9168
  954MOL0     H28756   6.451   2.560   5.092 -1.5143 -0.9237 -0.6746
  954MOL0     H28757   6.467   2.470   4.945  1.6348 -1.0295 -0.7389
  954MOL0     H28758   6.616   2.387   5.091  1.6198  0.3421  1.7651
  954MOL0     H28759   6.701   2.479   4.951  1.9669  0.7073  1.3085
  954MOL0     H28760   6.680   2.584   5.241 -0.6108  0.1419 -0.3431
  954MOL0     H28761   6.772   2.644   5.096 -0.5015  1.0737  1.8794
  954MOL0     H28762   6.814   2.427   5.279  1.0732 -0.6935 -0.7897
  954MOL0     H28763   6.852   2.388   5.112  0.8267  1.3654  0.3348
  954MOL0     H28764   7.020   2.495   5.293  0.3574 -2.6493 -1.3253
  954MOL0     H28765   6.956   2.644   5.206 -0.3503 -0.2078 -2.0181
  954MOL0     H28766   7.091   2.399   5.077 -0.8905 -0.1581 -0.4021
  954MOL0     H28767   7.028   2.542   4.998  0.0542 -1.6303  0.4713
  954MOL0     H28768   7.230   2.605   5.224  0.2366  0.3593 -1.0352
  954MOL0     H28769   7.171   2.701   5.085 -0.8763 -0.3867  0.1243
  954MOL0     H28770   7.300   2.548   4.935 -0.1064  0.5405  0.3105
  954MOL0     H28771   7.342   2.451   5.089 -1.8917 -0.5363 -0.9534
  954MOL0     H28772   6.277   2.664   4.999  3.4071  1.3614  0.2558
  954MOL0     H28773   6.096   2.778   4.889  1.3087  1.8504  1.8058
  954MOL0     H28774   6.145   3.186   4.526 -0.0664 -2.6689  0.4802
  954MOL0     H28775   6.003   3.372   4.434 -2.1679  0.2327  2.9871
  954MOL0     H28776   4.842   3.615   3.376 -1.7249 -1.6058 -1.1210
  954MOL0     H28777   4.660   3.626   3.191 -0.0822 -0.0919  0.8463
  954MOL0     H28778   4.223   3.837   3.006 -0.0653  1.6074  0.4049
  954MOL0     H28779   4.107   3.872   2.794  0.6990 -2.7163 -0.7053
  954MOL0     H28780   4.055   3.779   2.557 -0.1865 -1.5176 -1.1743
  954MOL0     H28781   4.032   3.954   2.576  1.1293  1.2123 -1.4155
  954MOL0     H28782   4.161   3.830   2.338  1.1296  0.3211  3.5727
  954MOL0     H28783   4.099   4.003   2.334 -0.9571  2.0629  2.5911
  954MOL0     H28784   3.869   3.864   2.380  1.2103  1.3884  1.0411
  954MOL0     H28785   3.935   3.744   2.276 -1.4069  0.1623 -0.4804
  954MOL0     H28786   3.874   4.032   2.227 -2.0384 -0.2031  0.7756
  954MOL0     H28787   3.798   3.895   2.166 -0.2933  1.4183 -0.7080
  954MOL0     H28788   4.142   3.938   1.904  0.4705  3.6631  1.2775
  954MOL0     H28789   4.489   3.898   2.589  0.4650 -0.6608 -0.7831
  954MOL0     H28790   4.592   3.856   2.807  0.1590  1.9858  0.9870
  955MOL0     O28791   0.874   4.908   3.875  0.1172  0.4897 -0.2264
  955MOL0     C28792   0.826   4.827   3.959  0.2315  0.3166 -0.1329
  955MOL0     O28793   0.837   4.837   4.092  0.0019 -0.1675  0.7247
  955MOL0     C28794   0.942   4.910   4.148 -0.7434 -0.3913 -0.0887
  955MOL0     C28795   1.073   4.903   4.098  0.8422  0.2215  0.0236
  955MOL0     C28796   1.175   4.974   4.159  0.1566 -0.4140 -0.8379
  955MOL0     C28797   1.157   5.071   4.260 -0.0609 -0.0274 -0.1731
  955MOL0     O28798   1.262   5.135   4.316 -0.7274  0.5495 -0.2223
  955MOL0     C28799   1.236   5.209   4.439 -0.2416 -0.4200  0.2306
  955MOL0     C28800   1.366   5.277   4.483  0.3910  0.1645 -0.8002
  955MOL0     C28801   1.357   5.317   4.625  0.1505  0.6320 -0.8639
  955MOL0     C28802   1.489   5.386   4.672 -0.5017  0.0397  0.1372
  955MOL0     C28803   1.466   5.480   4.794  0.5334  0.5739 -0.0791
  955MOL0     C28804   1.594   5.565   4.812  0.2165  0.2190  0.2587
  955MOL0     C28805   1.580   5.673   4.924  0.1178 -0.7271  0.2033
  955MOL0     C28806   1.620   5.602   5.050  0.1819 -0.2041 -1.0976
  955MOL0     N28807   1.640   5.690   5.168  0.2371 -0.0720 -0.5614
  955MOL0     C28808   1.766   5.758   5.183  0.4432  0.7716  1.2732
  955MOL0     C28809   1.734   5.836   5.288 -0.5253 -0.3425  0.1735
  955MOL0     C28810   1.823   5.944   5.351 -0.1485  0.0655 -0.4269
  955MOL0     C28811   1.837   5.897   5.499 -0.1617  0.1215 -0.4192
  955MOL0     C28812   1.758   5.973   5.602 -0.0934 -0.0911  0.2872
  955MOL0     C28813   1.723   5.884   5.717 -0.3225 -0.2757 -0.1026
  955MOL0     O28814   1.841   5.836   5.781  0.2592 -0.6347  0.5386
  955MOL0     C28815   1.830   5.729   5.869  0.2959  0.1127  0.7397
  955MOL0     C28816   1.710   5.687   5.933 -1.1535  0.6643  0.3173
  955MOL0     C28817   1.715   5.590   6.030  0.0128  0.7100 -0.2293
  955MOL0     C28818   1.577   5.532   6.080 -0.3330  0.2799 -0.1696
  955MOL0     C28819   1.843   5.534   6.076 -0.1266  1.1002 -0.0150
  955MOL0     C28820   1.851   5.438   6.184  0.3652  0.2674  0.4011
  955MOL0     O28821   1.750   5.432   6.278 -0.1363  0.1200 -0.4627
  955MOL0     C28822   1.752   5.319   6.352  0.6807 -0.2031 -0.0236
  955MOL0     C28823   1.815   5.303   6.477  0.2052 -0.8451 -0.3174
  955MOL0     C28824   1.796   5.190   6.558 -0.9817  0.2749  0.3738
  955MOL0     C28825   1.719   5.080   6.509  0.0799 -0.6617 -0.0274
  955MOL0     O28826   1.707   4.966   6.568  0.2676  0.4672  0.0431
  955MOL0     C28827   1.810   4.939   6.664 -0.1946  0.1787 -0.7974
  955MOL0     C28828   1.782   4.798   6.724  0.4548  1.5403 -0.7139
  955MOL0     C28829   1.911   4.729   6.768  0.0763 -0.7447 -0.7900
  955MOL0     C28830   1.894   4.576   6.755 -0.8357  0.6741 -0.2630
  955MOL0     C28831   2.000   4.507   6.846  1.2503 -0.4077 -0.3847
  955MOL0     C28832   2.141   4.526   6.795 -0.0011 -0.5878  0.5845
  955MOL0     C28833   2.176   4.481   6.659  0.0139  1.3357  0.1398
  955MOL0     C28834   2.125   4.343   6.629 -0.7320  0.7537  0.3004
  955MOL0    Cl28835   2.242   4.286   6.507 -0.1323 -0.2200  0.2082
  955MOL0     C28836   1.661   5.095   6.386  0.1376  0.5467  0.1990
  955MOL0     C28837   1.672   5.213   6.316 -1.3557 -0.7200 -0.0841
  955MOL0     O28838   1.942   5.356   6.177  0.1481  0.0756  0.1880
  955MOL0     C28839   1.957   5.579   6.011 -0.0107 -0.1643  0.4266
  955MOL0     C28840   1.950   5.668   5.902 -0.6643 -0.7863 -0.2927
  955MOL0     N28841   1.609   5.809   5.333  1.1020 -0.0268  0.5497
  955MOL0     N28842   1.549   5.733   5.257  0.4055 -0.0212 -0.1213
  955MOL0     C28843   1.026   5.078   4.310  0.0112  1.1194  0.4517
  955MOL0     C28844   0.923   4.997   4.255  0.0098  0.7799 -0.9103
  955MOL0     C28845   0.735   4.722   3.915  0.1224 -0.9411 -0.0611
  955MOL0     C28846   0.711   4.596   3.979 -1.3236  0.3703  0.4178
  955MOL0     C28847   0.607   4.518   3.937  0.1698  0.8849 -0.2179
  955MOL0     C28848   0.546   4.531   3.808 -0.5770 -0.8662  0.3309
  955MOL0     O28849   0.462   4.430   3.773 -0.3942 -0.7705 -0.5647
  955MOL0     C28850   0.369   4.459   3.669  0.6952 -0.7845 -0.2971
  955MOL0     C28851   0.417   4.415   3.527  0.0836 -0.3486 -0.6459
  955MOL0     C28852   0.313   4.463   3.420 -0.7804  0.7571  0.4229
  955MOL0     C28853   0.363   4.544   3.302 -0.4170 -0.3431 -1.0840
  955MOL0     C28854   0.258   4.554   3.204 -0.0747  0.1022  0.3564
  955MOL0     C28855   0.154   4.552   3.149 -0.0127 -0.4163  0.0615
  955MOL0     C28856   0.597   4.633   3.738 -0.2422  0.3813 -0.3610
  955MOL0     C28857   0.679   4.735   3.782  1.3797  0.8003 -0.2015
  955MOL0     H28858   1.094   4.829   4.021  0.3687 -1.3991  1.4048
  955MOL0     H28859   1.278   4.977   4.123  0.1969  1.0247 -0.6568
  955MOL0     H28860   1.176   5.298   4.416  1.2292 -0.0210 -2.5579
  955MOL0     H28861   1.189   5.139   4.508 -3.3653 -2.8146 -3.8210
  955MOL0     H28862   1.428   5.189   4.464  0.3733  0.0730 -0.4395
  955MOL0     H28863   1.406   5.351   4.414 -0.8861  0.5023 -1.1996
  955MOL0     H28864   1.277   5.391   4.623 -2.4894 -2.0274 -0.2479
  955MOL0     H28865   1.314   5.242   4.691  2.4575  0.8315  0.9857
  955MOL0     H28866   1.548   5.298   4.700 -2.3894 -1.3630 -0.0761
  955MOL0     H28867   1.523   5.441   4.584 -2.2230  1.0226  0.0500
  955MOL0     H28868   1.382   5.549   4.783  0.6959  1.3409  2.6583
  955MOL0     H28869   1.453   5.427   4.888  1.9408  0.7138  0.2139
  955MOL0     H28870   1.676   5.493   4.807 -1.0430 -1.2057 -1.5441
  955MOL0     H28871   1.596   5.610   4.712 -2.3105 -3.5457 -1.7336
  955MOL0     H28872   1.651   5.752   4.897 -2.7628  3.2951  3.0340
  955MOL0     H28873   1.481   5.720   4.919  0.1354 -0.8144 -3.9091
  955MOL0     H28874   1.721   5.566   5.029  1.6606  1.8382  1.8697
  955MOL0     H28875   1.541   5.536   5.085 -1.0637  3.0901  3.1018
  955MOL0     H28876   1.856   5.745   5.124 -1.7137 -1.0207 -1.9096
  955MOL0     H28877   1.918   5.952   5.298 -0.5843  1.4629 -1.0215
  955MOL0     H28878   1.776   6.042   5.356 -0.2601 -0.0564  2.8477
  955MOL0     H28879   1.944   5.901   5.519 -0.1002  0.4758 -0.8026
  955MOL0     H28880   1.813   5.792   5.517 -2.5679  0.3922 -1.5433
  955MOL0     H28881   1.655   5.992   5.572 -0.3754 -0.7062  0.8405
  955MOL0     H28882   1.807   6.064   5.638  1.6131 -1.0639  0.5543
  955MOL0     H28883   1.655   5.809   5.676 -0.4611 -1.1671  1.6480
  955MOL0     H28884   1.666   5.943   5.789 -4.4811 -2.6310 -1.1428
  955MOL0     H28885   1.616   5.734   5.902 -1.2874 -0.3824 -0.9451
  955MOL0     H28886   1.566   5.423   6.089 -2.9754  0.4298 -0.7474
  955MOL0     H28887   1.543   5.569   6.177 -0.1748 -3.4697  1.5063
  955MOL0     H28888   1.503   5.574   6.011  0.5429  0.0181 -1.3144
  955MOL0     H28889   1.891   5.370   6.516  0.0499 -0.3787 -0.7942
  955MOL0     H28890   1.850   5.192   6.653  0.1389  3.3198 -0.1966
  955MOL0     H28891   1.914   4.932   6.629 -0.7282 -3.5577 -2.0094
  955MOL0     H28892   1.808   5.007   6.750  0.0243 -1.5047  0.6036
  955MOL0     H28893   1.715   4.804   6.810 -0.1141  2.6232 -1.2230
  955MOL0     H28894   1.725   4.729   6.661  1.6796  0.3047 -0.5384
  955MOL0     H28895   1.937   4.743   6.873  1.6779 -3.0376 -0.7903
  955MOL0     H28896   1.989   4.770   6.703  1.0986  0.7992  1.3343
  955MOL0     H28897   1.791   4.550   6.782 -0.3315 -3.3698 -1.5738
  955MOL0     H28898   1.896   4.554   6.648  1.9612 -1.7243  0.1656
  955MOL0     H28899   1.974   4.400   6.853  3.5914 -1.1516 -1.9863
  955MOL0     H28900   1.984   4.548   6.947  2.4657  1.7206 -1.0067
  955MOL0     H28901   2.156   4.633   6.805 -3.6792 -0.0872  2.4009
  955MOL0     H28902   2.215   4.476   6.858 -0.1616  1.6206  2.6334
  955MOL0     H28903   2.285   4.466   6.658 -0.1898 -0.6509  1.6041
  955MOL0     H28904   2.140   4.549   6.581  1.1477 -0.0950 -1.7354
  955MOL0     H28905   2.022   4.351   6.592 -1.0802 -1.4143  0.6955
  955MOL0     H28906   2.111   4.272   6.710 -2.7857  0.4963 -0.2259
  955MOL0     H28907   1.598   5.012   6.356 -0.0357  1.2441 -1.5000
  955MOL0     H28908   1.618   5.248   6.229  2.4118  1.7936 -1.6706
  955MOL0     H28909   2.052   5.538   6.043 -0.8933 -2.6854  0.0945
  955MOL0     H28910   2.040   5.707   5.855  0.3564 -0.0591  2.1001
  955MOL0     H28911   1.005   5.136   4.399  1.1960 -0.6182  1.9223
  955MOL0     H28912   0.823   5.008   4.296 -0.1412  0.3072 -1.1454
  955MOL0     H28913   0.756   4.572   4.075 -1.2810  0.1827  0.3505
  955MOL0     H28914   0.565   4.446   4.006  2.3594 -0.5505 -0.2988
  955MOL0     H28915   0.280   4.401   3.695 -0.3426  0.9656  0.2459
  955MOL0     H28916   0.349   4.566   3.662 -1.2385 -1.2193 -2.6821
  955MOL0     H28917   0.451   4.312   3.540  2.0764  0.4672  1.3568
  955MOL0     H28918   0.504   4.478   3.505 -0.3255  0.1038 -0.9701
  955MOL0     H28919   0.223   4.509   3.463 -3.4624 -3.9579  0.5374
  955MOL0     H28920   0.281   4.363   3.390 -2.1237  0.4435  2.6671
  955MOL0     H28921   0.454   4.506   3.255  0.6089  0.4695  0.1690
  955MOL0     H28922   0.394   4.641   3.342  0.4511 -1.3431  0.8033
  955MOL0     H28923   0.063   4.567   3.095 -1.3791 -1.4996  1.9300
  955MOL0     H28924   0.559   4.646   3.637 -1.0108  0.8529 -0.0231
  955MOL0     H28925   0.699   4.823   3.720 -1.1921  0.3570 -1.8322
  956MOL0     O28926   6.813   8.760   5.717 -0.3541 -1.2386 -0.1741
  956MOL0     C28927   6.881   8.723   5.822 -0.1283 -0.2205  1.1343
  956MOL0     O28928   6.828   8.685   5.941 -0.5002 -0.6743  0.4875
  956MOL0     C28929   6.698   8.666   5.955  0.9807 -0.4159 -0.2815
  956MOL0     C28930   6.657   8.553   6.029 -0.4315 -0.9024 -0.3669
  956MOL0     C28931   6.525   8.552   6.070  0.6021  0.6297  0.1163
  956MOL0     C28932   6.432   8.646   6.038  0.2908 -0.1977  0.2382
  956MOL0     O28933   6.299   8.637   6.076  0.5420  0.3528  0.1516
  956MOL0     C28934   6.280   8.649   6.221  0.0983  0.2145  0.6482
  956MOL0     C28935   6.198   8.527   6.274  0.5404 -0.4696  1.4310
  956MOL0     C28936   6.202   8.528   6.418 -0.4987 -0.6550 -0.4194
  956MOL0     C28937   6.095   8.452   6.486 -0.2941 -0.6702 -0.6390
  956MOL0     C28938   6.063   8.506   6.631  1.1929  0.5401 -0.2796
  956MOL0     C28939   6.183   8.474   6.738  0.7707  0.0784  0.0379
  956MOL0     C28940   6.137   8.503   6.880 -0.6789 -0.5692  0.4201
  956MOL0     C28941   6.098   8.372   6.957 -0.1716  0.0293  0.3664
  956MOL0     N28942   6.032   8.400   7.086  0.1389 -0.4132  0.0643
  956MOL0     C28943   5.925   8.489   7.101  0.0228  0.0873  0.2317
  956MOL0     C28944   5.916   8.507   7.240  0.1211 -0.4915  0.9853
  956MOL0     C28945   5.827   8.598   7.313 -0.3915 -0.1054  0.9005
  956MOL0     C28946   5.678   8.595   7.260 -0.3134 -0.2023  0.4184
  956MOL0     C28947   5.614   8.459   7.278  0.1202  0.1516  0.0925
  956MOL0     C28948   5.462   8.443   7.238  0.0854 -0.0665  0.0826
  956MOL0     O28949   5.463   8.443   7.090  0.4859 -0.1769 -0.1061
  956MOL0     C28950   5.492   8.314   7.047 -0.7448 -1.3801  0.2466
  956MOL0     C28951   5.614   8.276   6.995  0.4000  0.5514  0.2427
  956MOL0     C28952   5.650   8.146   6.944 -1.2330 -0.2647 -0.3223
  956MOL0     C28953   5.799   8.117   6.965 -0.3027 -1.1388  0.0117
  956MOL0     C28954   5.545   8.052   6.939  0.0972  1.2990 -0.7912
  956MOL0     C28955   5.562   7.917   6.869  1.4869 -0.4738  0.0811
  956MOL0     O28956   5.442   7.841   6.853  0.8891 -0.7889  0.8647
  956MOL0     C28957   5.442   7.737   6.766 -0.3476 -0.7008  0.2437
  956MOL0     C28958   5.374   7.742   6.641  0.7390 -0.2239  0.5141
  956MOL0     C28959   5.385   7.638   6.547  0.3279 -0.6111  0.7778
  956MOL0     C28960   5.461   7.526   6.572  0.5479  0.9058  0.2808
  956MOL0     O28961   5.467   7.430   6.471  0.0851 -0.0266 -0.1695
  956MOL0     C28962   5.490   7.290   6.502  0.1737 -0.2398  0.1049
  956MOL0     C28963   5.556   7.223   6.384  0.2446  1.1369  0.7142
  956MOL0     C28964   5.709   7.224   6.365 -0.0035  0.8232  0.2008
  956MOL0     C28965   5.731   7.140   6.228  0.1825 -0.3426  0.8046
  956MOL0     C28966   5.886   7.114   6.209  1.0722 -0.3348 -0.2479
  956MOL0     C28967   5.959   7.242   6.198  0.1557 -0.7617  0.0076
  956MOL0     C28968   6.104   7.227   6.169 -0.5394 -0.0553 -1.0951
  956MOL0     C28969   6.181   7.350   6.109  0.3999  0.4239  0.3663
  956MOL0    Cl28970   6.228   7.459   6.245 -0.0212 -0.0069 -0.3099
  956MOL0     C28971   5.508   7.511   6.702 -0.3290  0.2331  0.6269
  956MOL0     C28972   5.496   7.616   6.801 -0.0945  0.5262  0.0098
  956MOL0     O28973   5.672   7.885   6.824  0.0721 -0.2062 -0.2667
  956MOL0     C28974   5.427   8.085   7.004 -0.5283  0.3974 -0.0100
  956MOL0     C28975   5.407   8.209   7.057  0.6591 -0.0938  0.0472
  956MOL0     N28976   6.018   8.421   7.293 -0.2171  0.6278  0.8773
  956MOL0     N28977   6.084   8.363   7.207 -0.9638 -0.1271  0.1064
  956MOL0     C28978   6.470   8.752   5.961  1.1416 -0.7457  0.4189
  956MOL0     C28979   6.605   8.766   5.924  0.3562  0.2015 -0.8646
  956MOL0     C28980   7.031   8.703   5.807 -0.1785  0.4990  0.6181
  956MOL0     C28981   7.124   8.705   5.917 -0.2306 -0.5406  0.0103
  956MOL0     C28982   7.260   8.689   5.891  0.6907  0.0039 -0.0196
  956MOL0     C28983   7.310   8.653   5.763 -0.7276 -0.4020  0.2948
  956MOL0     O28984   7.437   8.621   5.743 -0.2718 -0.8069 -0.1848
  956MOL0     C28985   7.524   8.584   5.855 -1.0951 -0.4179  0.3436
  956MOL0     C28986   7.480   8.449   5.902  0.0613 -0.2872  0.4159
  956MOL0     C28987   7.572   8.372   5.993 -0.4442  0.0940 -0.5814
  956MOL0     C28988   7.519   8.231   6.009 -0.1083 -0.4931  0.2169
  956MOL0     C28989   7.622   8.138   6.053  0.1864 -0.0993 -0.5411
  956MOL0     C28990   7.716   8.062   6.081 -0.6683  0.4424  0.2994
  956MOL0     C28991   7.214   8.643   5.661 -0.6147 -0.1748  0.5068
  956MOL0     C28992   7.078   8.661   5.677  0.5407 -0.1644 -0.6952
  956MOL0     H28993   6.729   8.494   6.086 -2.9687 -0.2273  3.9807
  956MOL0     H28994   6.502   8.469   6.136  3.3265 -0.9337 -0.7384
  956MOL0     H28995   6.382   8.659   6.260  1.2546 -0.6155 -1.9112
  956MOL0     H28996   6.221   8.739   6.237 -1.3971 -0.3684 -1.2260
  956MOL0     H28997   6.098   8.540   6.231  1.8598  3.1161 -1.0887
  956MOL0     H28998   6.247   8.440   6.228 -1.1118 -1.8195  2.1365
  956MOL0     H28999   6.303   8.492   6.442 -0.4293  1.2360  2.5472
  956MOL0     H29000   6.202   8.632   6.450  0.3233 -0.5187 -0.8117
  956MOL0     H29001   5.997   8.446   6.439 -0.9667 -0.9036  0.7366
  956MOL0     H29002   6.137   8.351   6.484  1.0930 -0.1453  0.0773
  956MOL0     H29003   6.044   8.613   6.624 -0.6454  0.3818  1.2713
  956MOL0     H29004   5.967   8.462   6.661  0.2043  4.5021  3.3462
  956MOL0     H29005   6.210   8.369   6.730 -0.4349 -0.1773 -0.8553
  956MOL0     H29006   6.277   8.521   6.706  0.0962 -0.4302 -3.0068
  956MOL0     H29007   6.213   8.556   6.938 -1.1842  0.0801  0.4930
  956MOL0     H29008   6.047   8.564   6.867  1.1652  2.2544  0.1352
  956MOL0     H29009   6.180   8.301   6.973 -1.6892 -2.0630 -0.7151
  956MOL0     H29010   6.030   8.329   6.883 -0.5589 -0.5603  1.0634
  956MOL0     H29011   5.874   8.544   7.022  1.6470  1.4477  0.0594
  956MOL0     H29012   5.827   8.566   7.418 -3.4491  0.9660  1.3527
  956MOL0     H29013   5.865   8.699   7.300 -3.0198  0.6817 -1.8342
  956MOL0     H29014   5.672   8.623   7.155 -0.1599 -2.5473 -0.2656
  956MOL0     H29015   5.622   8.666   7.321 -0.2486  3.6384 -3.5421
  956MOL0     H29016   5.612   8.446   7.386  3.1893 -1.3204  0.0745
  956MOL0     H29017   5.673   8.376   7.236 -0.2296 -0.1278  0.1441
  956MOL0     H29018   5.400   8.526   7.272 -1.6971 -0.1455 -2.6469
  956MOL0     H29019   5.418   8.350   7.276 -3.1210  0.3856 -2.1518
  956MOL0     H29020   5.690   8.349   7.021  0.7741 -0.0913  0.9927
  956MOL0     H29021   5.816   8.011   6.985  0.5336 -1.6672 -2.9632
  956MOL0     H29022   5.851   8.161   6.879  2.1700 -0.1548  1.8877
  956MOL0     H29023   5.840   8.170   7.052  0.2025  0.6069 -1.2173
  956MOL0     H29024   5.304   7.823   6.622  2.3801  1.6517  2.0807
  956MOL0     H29025   5.344   7.660   6.449  3.1966 -0.1371 -0.4299
  956MOL0     H29026   5.556   7.283   6.589 -0.0688 -0.4065  0.2779
  956MOL0     H29027   5.398   7.235   6.521  1.1737 -1.8395  0.4780
  956MOL0     H29028   5.540   7.117   6.406 -1.0726  1.3397  0.7852
  956MOL0     H29029   5.492   7.254   6.301 -0.8837  1.1837  1.5855
  956MOL0     H29030   5.739   7.165   6.452 -1.3896 -0.4245 -0.1054
  956MOL0     H29031   5.738   7.329   6.356 -0.4045  1.1339  2.0984
  956MOL0     H29032   5.673   7.048   6.230  1.7155 -1.3323  2.0783
  956MOL0     H29033   5.698   7.217   6.158 -0.1137 -2.2015 -1.2082
  956MOL0     H29034   5.892   7.061   6.113  0.9493 -2.5319  0.9002
  956MOL0     H29035   5.926   7.047   6.285 -1.5167 -0.0589  1.4895
  956MOL0     H29036   5.920   7.311   6.123  0.3770  2.2915  2.4575
  956MOL0     H29037   5.951   7.296   6.293 -0.5816  0.0762 -0.5230
  956MOL0     H29038   6.104   7.139   6.103 -4.4189 -0.3568 -0.9760
  956MOL0     H29039   6.162   7.197   6.257 -1.1981  1.6268 -0.0397
  956MOL0     H29040   6.130   7.393   6.022 -0.4293 -0.9272  0.1426
  956MOL0     H29041   6.275   7.316   6.065  1.1482  3.4519 -0.5755
  956MOL0     H29042   5.564   7.422   6.731  1.7985 -0.4852 -4.5388
  956MOL0     H29043   5.527   7.598   6.903  0.0343 -0.8410 -0.2547
  956MOL0     H29044   5.341   8.021   7.017 -0.3349  0.5575  2.5151
  956MOL0     H29045   5.305   8.212   7.093 -0.7342 -4.4956 -2.7560
  956MOL0     H29046   6.392   8.824   5.940 -0.8946 -2.7305  0.8331
  956MOL0     H29047   6.650   8.856   5.882  0.3699  2.2010  2.9621
  956MOL0     H29048   7.072   8.726   6.010  0.6753  0.0196  0.4028
  956MOL0     H29049   7.326   8.695   5.976  0.7387 -0.7439  0.0057
  956MOL0     H29050   7.628   8.597   5.823 -1.2130  1.2312  0.5236
  956MOL0     H29051   7.532   8.658   5.935 -1.0169  1.9836 -1.7495
  956MOL0     H29052   7.459   8.391   5.811 -1.8007 -0.9437  1.2223
  956MOL0     H29053   7.388   8.450   5.960 -0.8689  0.9034 -1.0177
  956MOL0     H29054   7.549   8.428   6.084 -0.8940  0.2144 -0.7635
  956MOL0     H29055   7.676   8.375   5.961 -1.0843 -2.2522 -3.2639
  956MOL0     H29056   7.490   8.202   5.908  1.1752 -1.1570  0.0080
  956MOL0     H29057   7.430   8.226   6.072  0.8348  0.8406  1.7221
  956MOL0     H29058   7.798   7.998   6.108  1.0386  2.6419  0.6623
  956MOL0     H29059   7.239   8.619   5.558 -0.2531 -0.7201  0.7173
  956MOL0     H29060   7.008   8.632   5.599 -0.3036 -1.1151  0.3771
  957MOL0     O29061   8.523   7.897   2.784  0.0483 -0.4561 -0.1516
  957MOL0     C29062   8.553   7.795   2.848 -0.3000  0.1467 -1.2301
  957MOL0     O29063   8.674   7.763   2.900  0.2893 -0.0659 -1.0045
  957MOL0     C29064   8.760   7.865   2.902  0.5612  0.1746  0.3999
  957MOL0     C29065   8.850   7.889   2.803 -0.4123  0.4204  0.8098
  957MOL0     C29066   8.954   7.985   2.827  0.3101  0.1180  0.8281
  957MOL0     C29067   8.967   8.063   2.943 -0.0713 -0.7215 -0.1744
  957MOL0     O29068   9.069   8.154   2.971 -0.2115  0.4137  0.0466
  957MOL0     C29069   9.093   8.246   2.862 -0.8117  1.4907  0.1337
  957MOL0     C29070   9.196   8.350   2.932 -0.7966 -0.1939  0.7825
  957MOL0     C29071   9.130   8.461   3.020 -0.0931 -0.0583  0.7123
  957MOL0     C29072   9.228   8.495   3.134 -0.3871  0.0641 -0.4931
  957MOL0     C29073   9.164   8.566   3.243 -0.7975  0.6752 -0.2525
  957MOL0     C29074   9.262   8.658   3.305  0.8772  0.1433  0.1861
  957MOL0     C29075   9.356   8.595   3.407  0.0845  0.3236  0.3981
  957MOL0     C29076   9.440   8.708   3.487 -0.5949  0.8341 -0.0349
  957MOL0     N29077   9.523   8.641   3.584 -0.4732 -0.1460 -0.0613
  957MOL0     C29078   9.615   8.541   3.554  0.3476  0.8234  0.2169
  957MOL0     C29079   9.679   8.508   3.665 -0.4948 -0.0051  0.8031
  957MOL0     C29080   9.788   8.403   3.667 -0.0772  0.0421 -0.4987
  957MOL0     C29081   9.845   8.398   3.814 -0.3790 -0.1156 -0.4888
  957MOL0     C29082   9.970   8.309   3.836  0.3850  0.5660  0.1907
  957MOL0     C29083  10.097   8.363   3.775  0.0029 -0.0494  0.2411
  957MOL0     O29084  10.211   8.277   3.801 -0.0541  0.0366  0.1063
  957MOL0     C29085  10.334   8.332   3.782  0.4679 -0.0607 -0.3937
  957MOL0     C29086  10.423   8.266   3.701  0.7464 -0.8190  0.7757
  957MOL0     C29087  10.562   8.296   3.700  0.6607 -0.0740  0.4639
  957MOL0     C29088  10.635   8.236   3.581 -0.4153 -0.2194 -0.1516
  957MOL0     C29089  10.616   8.393   3.792 -0.6593  0.7253 -0.1284
  957MOL0     C29090  10.767   8.420   3.816 -0.5359 -0.7191 -0.4671
  957MOL0     O29091  10.812   8.512   3.912  0.0474 -0.2218 -0.5842
  957MOL0     C29092  10.935   8.575   3.916 -0.8182  0.4927  0.8150
  957MOL0     C29093  11.031   8.570   3.810 -0.0591  0.1211 -0.2371
  957MOL0     C29094  11.161   8.642   3.818  0.3815  1.0324  0.1095
  957MOL0     C29095  11.188   8.724   3.930  0.4713 -0.4423  0.1214
  957MOL0     O29096  11.307   8.786   3.943  0.0539  0.1755  0.3649
  957MOL0     C29097  11.330   8.859   4.070 -0.0627  0.5010 -0.2298
  957MOL0     C29098  11.459   8.938   4.068  0.3711  0.6808  0.8202
  957MOL0     C29099  11.588   8.847   4.059  0.4723 -0.1989  0.0005
  957MOL0     C29100  11.706   8.941   4.067 -0.4495  0.2672 -0.3978
  957MOL0     C29101  11.833   8.864   4.086  0.0388 -0.4346  0.3107
  957MOL0     C29102  11.885   8.797   3.961  0.4922  0.2594  0.0777
  957MOL0     C29103  12.008   8.716   3.985 -1.1817  0.4613  0.3903
  957MOL0     C29104  12.134   8.798   3.974  0.5096 -0.5981  0.1119
  957MOL0    Cl29105  12.271   8.687   4.016  0.4233 -0.2932  0.1591
  957MOL0     C29106  11.090   8.737   4.023 -0.9207 -0.3244  0.9709
  957MOL0     C29107  10.971   8.660   4.025  0.8245 -0.2208  0.5950
  957MOL0     O29108  10.846   8.343   3.768 -0.3797 -0.5477  0.0081
  957MOL0     C29109  10.528   8.444   3.882 -0.3672 -0.0690 -0.1508
  957MOL0     C29110  10.383   8.430   3.866  0.0577  0.1415  0.3646
  957MOL0     N29111   9.627   8.589   3.762 -1.4942  0.1260  0.4757
  957MOL0     N29112   9.537   8.666   3.724  0.1315  0.3431  0.1237
  957MOL0     C29113   8.871   8.044   3.040 -0.7374 -1.1269  0.0312
  957MOL0     C29114   8.759   7.951   3.015  0.2620  1.1717  0.1370
  957MOL0     C29115   8.451   7.701   2.881  0.5078 -1.3860  0.0490
  957MOL0     C29116   8.319   7.741   2.875  0.1905 -0.2451 -0.3736
  957MOL0     C29117   8.211   7.651   2.912  0.0609 -0.1690 -0.3748
  957MOL0     C29118   8.237   7.516   2.941  0.0041 -0.5501 -0.1644
  957MOL0     O29119   8.143   7.432   2.989  0.4334  0.1436  0.0236
  957MOL0     C29120   8.000   7.461   3.003  0.1256  0.3058 -0.9923
  957MOL0     C29121   7.929   7.342   3.068 -1.7072  1.0178 -0.2889
  957MOL0     C29122   7.863   7.252   2.957 -1.0950  0.6071 -0.1666
  957MOL0     C29123   7.838   7.116   3.025  0.7133  0.3776 -0.4375
  957MOL0     C29124   7.752   7.042   2.937 -0.0199  0.9157 -0.3695
  957MOL0     C29125   7.705   6.964   2.853  0.1578 -0.3103  0.5448
  957MOL0     C29126   8.376   7.474   2.939  0.5314 -0.7080 -0.1221
  957MOL0     C29127   8.479   7.566   2.904 -0.0197  0.6048  0.3790
  957MOL0     H29128   8.856   7.831   2.712  1.1425  1.2442  0.3585
  957MOL0     H29129   9.040   7.997   2.763 -2.2330  0.0559 -2.9009
  957MOL0     H29130   9.147   8.190   2.786  0.6570 -2.5060  3.7025
  957MOL0     H29131   9.002   8.295   2.827  0.4501  4.5544  0.8020
  957MOL0     H29132   9.283   8.308   2.984 -0.4279 -0.1576  0.2032
  957MOL0     H29133   9.236   8.418   2.856 -1.2180  2.3689  2.7129
  957MOL0     H29134   9.109   8.551   2.962  0.1754  0.9470  2.1356
  957MOL0     H29135   9.038   8.409   3.051 -1.6828  0.2724 -2.9176
  957MOL0     H29136   9.258   8.402   3.184 -0.0332 -0.4481 -1.6211
  957MOL0     H29137   9.321   8.532   3.089 -2.3541  1.2096 -4.0759
  957MOL0     H29138   9.088   8.631   3.202 -1.1973 -1.6422 -3.5988
  957MOL0     H29139   9.119   8.501   3.320  0.1658  0.4505  0.1409
  957MOL0     H29140   9.316   8.706   3.222  0.6058  1.4664  0.7365
  957MOL0     H29141   9.208   8.743   3.348  0.8667  1.0402 -1.4836
  957MOL0     H29142   9.301   8.528   3.474 -2.8316  1.4618 -0.6992
  957MOL0     H29143   9.414   8.521   3.350 -1.6057 -1.0390  0.3706
  957MOL0     H29144   9.358   8.757   3.540 -3.0611 -1.4202 -1.4907
  957MOL0     H29145   9.496   8.781   3.428 -0.1017  1.4512  1.1542
  957MOL0     H29146   9.644   8.511   3.454  2.0312  2.0759  0.2818
  957MOL0     H29147   9.746   8.307   3.638  0.8191 -0.2553 -0.8262
  957MOL0     H29148   9.881   8.425   3.613  0.2268 -0.0328 -0.0122
  957MOL0     H29149   9.767   8.351   3.874 -0.5274  0.1759 -0.4505
  957MOL0     H29150   9.875   8.495   3.855  2.5168 -0.9554 -0.3853
  957MOL0     H29151   9.946   8.211   3.793 -3.0479  2.3697 -2.6137
  957MOL0     H29152   9.977   8.320   3.944  0.7664 -1.8029  0.4599
  957MOL0     H29153  10.115   8.465   3.812 -2.1124 -0.2384  1.9668
  957MOL0     H29154  10.092   8.363   3.666 -1.1645  0.6178  0.2762
  957MOL0     H29155  10.388   8.186   3.636  0.5638  1.7436 -2.5434
  957MOL0     H29156  10.565   8.173   3.527 -1.2877 -0.6109  1.3758
  957MOL0     H29157  10.681   8.309   3.514  0.7159 -0.8819 -0.1328
  957MOL0     H29158  10.717   8.177   3.622  0.8702 -0.5357 -2.9466
  957MOL0     H29159  11.031   8.533   3.708  2.9056  2.6466 -1.3355
  957MOL0     H29160  11.238   8.636   3.742  1.5563  2.8100  1.1079
  957MOL0     H29161  11.256   8.937   4.084  1.0651  1.8547 -1.4379
  957MOL0     H29162  11.338   8.787   4.152  0.2225 -0.2206 -0.8761
  957MOL0     H29163  11.456   9.016   3.992  1.7920  2.2098  2.2453
  957MOL0     H29164  11.467   8.995   4.162 -0.8155 -2.8952  3.3162
  957MOL0     H29165  11.590   8.809   3.957  1.9928  0.3761 -0.2092
  957MOL0     H29166  11.586   8.767   4.133 -0.9051 -0.2441 -0.0546
  957MOL0     H29167  11.704   8.990   3.969 -0.7647 -0.3394 -0.6995
  957MOL0     H29168  11.702   9.002   4.157  0.6486  0.7705 -0.6629
  957MOL0     H29169  11.820   8.785   4.160 -1.0210 -0.9371 -0.3831
  957MOL0     H29170  11.918   8.921   4.124  0.2852 -0.8588  0.4034
  957MOL0     H29171  11.809   8.724   3.931 -0.1573  0.4453  1.2180
  957MOL0     H29172  11.894   8.865   3.876 -1.1151  3.0112  1.9435
  957MOL0     H29173  12.012   8.642   3.904 -1.3040 -0.0566  0.8491
  957MOL0     H29174  12.016   8.656   4.077 -4.7732 -2.7425 -1.0890
  957MOL0     H29175  12.120   8.882   4.043  1.2417 -0.2072 -0.2065
  957MOL0     H29176  12.145   8.842   3.874 -1.5763 -0.4306 -0.0901
  957MOL0     H29177  11.108   8.793   4.114 -0.4037 -1.2076  1.4274
  957MOL0     H29178  10.903   8.664   4.109 -1.5122  0.3921 -1.2312
  957MOL0     H29179  10.554   8.511   3.963 -1.5615 -0.3292  0.4649
  957MOL0     H29180  10.318   8.466   3.945 -0.3772 -2.8441  1.5036
  957MOL0     H29181   8.880   8.108   3.126 -1.4544 -0.8328 -0.1047
  957MOL0     H29182   8.704   7.920   3.103  2.0099 -4.0236 -0.2607
  957MOL0     H29183   8.296   7.846   2.857 -1.2282 -0.2319  1.2589
  957MOL0     H29184   8.115   7.700   2.923 -0.4795 -1.7534  3.7361
  957MOL0     H29185   7.983   7.548   3.067 -0.4292  0.3217 -1.1521
  957MOL0     H29186   7.956   7.508   2.914  0.9936  2.8122 -0.1818
  957MOL0     H29187   7.839   7.395   3.101 -2.2477  1.0674 -1.7730
  957MOL0     H29188   7.976   7.286   3.149 -0.9668  1.2191 -0.5776
  957MOL0     H29189   7.922   7.226   2.868 -4.0915  0.2764 -2.2100
  957MOL0     H29190   7.773   7.302   2.922 -0.5079  2.6964  1.1571
  957MOL0     H29191   7.783   7.130   3.118 -1.0012  0.8600 -1.4791
  957MOL0     H29192   7.932   7.065   3.046  0.8810  1.7212  2.5101
  957MOL0     H29193   7.699   6.888   2.778  2.3815 -1.3579  1.3445
  957MOL0     H29194   8.406   7.377   2.977  3.2467  1.1064  2.8583
  957MOL0     H29195   8.580   7.532   2.921 -0.0211  1.5622  2.6017
  958MOL0     O29196   6.449   3.618   9.781 -0.7125  0.0215 -0.6505
  958MOL0     C29197   6.547   3.681   9.732 -0.3453 -0.3452  0.7297
  958MOL0     O29198   6.570   3.808   9.751  0.5511  0.7190  0.4668
  958MOL0     C29199   6.509   3.889   9.841  1.0040 -0.4189 -0.2722
  958MOL0     C29200   6.532   4.027   9.823 -1.2752  0.4108 -0.8402
  958MOL0     C29201   6.470   4.122   9.904  0.5317  0.6409 -0.2763
  958MOL0     C29202   6.375   4.086  10.006  0.3877 -0.8120 -0.0744
  958MOL0     O29203   6.317   4.159  10.108  0.3669 -0.9975  0.1951
  958MOL0     C29204   6.362   4.294  10.117  0.3606 -0.0832 -0.2433
  958MOL0     C29205   6.312   4.366  10.249  0.4567  0.2311  0.3106
  958MOL0     C29206   6.155   4.390  10.234 -0.6493  0.7382  0.9194
  958MOL0     C29207   6.098   4.450  10.362  0.1763 -0.5317  0.3331
  958MOL0     C29208   5.949   4.457  10.354  0.1488  0.4867  0.1893
  958MOL0     C29209   5.884   4.529  10.478  0.1855  0.1126 -0.5857
  958MOL0     C29210   5.929   4.486  10.620 -0.0456 -0.6456 -0.5202
  958MOL0     C29211   5.843   4.534  10.732  0.4780 -0.8130  0.4538
  958MOL0     N29212   5.712   4.472  10.736  0.5228  0.1254  0.2528
  958MOL0     C29213   5.705   4.336  10.730  0.0560  0.5279  0.4253
  958MOL0     C29214   5.578   4.310  10.769  0.0754  0.2646 -0.6747
  958MOL0     C29215   5.527   4.174  10.793 -0.5144 -0.1665  0.0665
  958MOL0     C29216   5.500   4.156  10.949  0.2114 -0.2102  1.0512
  958MOL0     C29217   5.347   4.183  10.979 -0.3645 -0.1942  0.0881
  958MOL0     C29218   5.322   4.175  11.128  0.4395  0.1474 -0.1316
  958MOL0     O29219   5.382   4.291  11.190  0.2545 -0.4093 -0.6362
  958MOL0     C29220   5.312   4.402  11.202  0.2964 -0.0612 -0.7822
  958MOL0     C29221   5.318   4.496  11.103 -0.2355 -0.6711  0.1480
  958MOL0     C29222   5.230   4.610  11.112 -0.5659  0.2671  0.4377
  958MOL0     C29223   5.248   4.729  11.008 -0.4172 -0.4712 -0.2217
  958MOL0     C29224   5.128   4.619  11.212 -0.0405  0.6843  0.0978
  958MOL0     C29225   5.023   4.718  11.231  0.1756 -0.7107  0.3122
  958MOL0     O29226   4.939   4.729  11.124 -0.0053  0.3287 -0.7358
  958MOL0     C29227   4.841   4.823  11.136 -0.9857 -0.7950  1.1024
  958MOL0     C29228   4.841   4.946  11.077 -0.4259 -0.4946  0.1450
  958MOL0     C29229   4.740   5.038  11.099  0.7474 -0.0219  1.0167
  958MOL0     C29230   4.639   5.013  11.188  0.2265  0.2662  0.8307
  958MOL0     O29231   4.525   5.096  11.212 -0.3363  0.1680  0.1050
  958MOL0     C29232   4.450   5.091  11.332 -1.1226  0.5154  0.1267
  958MOL0     C29233   4.539   5.129  11.449 -0.0947  0.0539 -0.5746
  958MOL0     C29234   4.582   5.284  11.454 -0.5312 -0.1436  0.3881
  958MOL0     C29235   4.598   5.321  11.603 -0.3147  1.0450  0.4023
  958MOL0     C29236   4.683   5.446  11.622  0.4005 -0.2377  0.9067
  958MOL0     C29237   4.707   5.477  11.775  0.4447  0.7583 -1.4507
  958MOL0     C29238   4.792   5.606  11.765  0.3176  1.3346 -0.4802
  958MOL0     C29239   4.790   5.679  11.898  0.6175  0.0054 -0.2410
  958MOL0    Cl29240   4.819   5.573  12.024 -0.3601 -0.3381 -0.4275
  958MOL0     C29241   4.642   4.895  11.255 -0.4661 -0.0122  0.4532
  958MOL0     C29242   4.737   4.793  11.233 -1.0878  0.1073  0.4670
  958MOL0     O29243   5.054   4.802  11.316  0.0459  0.1044 -0.1458
  958MOL0     C29244   5.124   4.517  11.317  0.0862  0.7238  0.5700
  958MOL0     C29245   5.207   4.414  11.305 -0.9004  0.7768  0.7459
  958MOL0     N29246   5.518   4.429  10.811 -0.8704 -0.1969  0.4292
  958MOL0     N29247   5.597   4.525  10.801  0.2454  0.1598 -0.4993
  958MOL0     C29248   6.344   3.952  10.012  0.6012  1.4012  0.1558
  958MOL0     C29249   6.408   3.850   9.939 -0.4809  0.6407  0.4317
  958MOL0     C29250   6.657   3.608   9.667 -0.4842  0.1125 -1.1616
  958MOL0     C29251   6.652   3.469   9.644  0.5179  0.3617 -0.4194
  958MOL0     C29252   6.746   3.400   9.566 -0.1595 -0.3595  0.4197
  958MOL0     C29253   6.858   3.470   9.518  0.3566  0.4556  0.8414
  958MOL0     O29254   6.955   3.426   9.439 -0.1529 -0.5258  0.2672
  958MOL0     C29255   7.002   3.294   9.459 -0.7349 -1.2902  0.0522
  958MOL0     C29256   7.128   3.306   9.539  0.7409 -0.4815  0.1601
  958MOL0     C29257   7.167   3.164   9.590 -0.9527 -0.5515 -0.4150
  958MOL0     C29258   7.316   3.149   9.630 -0.0708 -1.2569 -0.4876
  958MOL0     C29259   7.366   3.263   9.711  0.3117  1.0850  0.4025
  958MOL0     C29260   7.411   3.340   9.798 -0.1098 -0.1217  0.6368
  958MOL0     C29261   6.858   3.603   9.541  0.1918 -0.2657  0.4098
  958MOL0     C29262   6.766   3.680   9.614 -0.4762  0.4419  0.4583
  958MOL0     H29263   6.597   4.054   9.741  2.4404 -1.6944  1.1492
  958MOL0     H29264   6.508   4.223   9.886  2.0257 -0.2275 -2.3658
  958MOL0     H29265   6.472   4.291  10.123  0.4236 -4.0789 -0.0682
  958MOL0     H29266   6.333   4.355  10.032  2.2368  0.6624 -0.4116
  958MOL0     H29267   6.350   4.314  10.337  1.3923  0.0568 -0.1844
  958MOL0     H29268   6.344   4.470  10.261  0.7542  0.0036  1.7125
  958MOL0     H29269   6.132   4.454  10.149 -2.5187 -0.1521  0.6941
  958MOL0     H29270   6.109   4.290  10.225  0.0899  0.5096 -0.5978
  958MOL0     H29271   6.136   4.386  10.442  1.8572  0.8019  0.6558
  958MOL0     H29272   6.131   4.552  10.383  1.0995 -0.4203 -1.4407
  958MOL0     H29273   5.917   4.506  10.261 -0.3031  0.8008  0.5056
  958MOL0     H29274   5.902   4.359  10.349  0.8666  0.1863 -0.9209
  958MOL0     H29275   5.916   4.633  10.464  1.9991 -0.1714  1.0575
  958MOL0     H29276   5.775   4.524  10.466  0.1476 -0.1662 -0.1239
  958MOL0     H29277   5.952   4.380  10.632  0.0276 -0.7675 -1.6335
  958MOL0     H29278   6.028   4.532  10.634 -2.3474  4.4873  1.6308
  958MOL0     H29279   5.827   4.642  10.726 -4.9783 -1.2529  2.0623
  958MOL0     H29280   5.906   4.521  10.821  4.0021  1.9470 -1.3719
  958MOL0     H29281   5.779   4.259  10.710  0.5172  0.5165  2.0448
  958MOL0     H29282   5.433   4.153  10.741  0.2019 -1.6398 -0.7050
  958MOL0     H29283   5.596   4.101  10.749  1.2087  2.1542 -1.3314
  958MOL0     H29284   5.553   4.223  11.018 -2.5614  0.1294  3.0114
  958MOL0     H29285   5.519   4.050  10.967 -3.5124 -0.9202  1.6324
  958MOL0     H29286   5.285   4.106  10.932  0.4595 -1.3371  0.8259
  958MOL0     H29287   5.317   4.281  10.942  0.7287 -0.0984 -0.5828
  958MOL0     H29288   5.368   4.083  11.165  1.2847 -0.0259 -1.5537
  958MOL0     H29289   5.212   4.172  11.128  0.3944 -3.6054  1.2009
  958MOL0     H29290   5.390   4.485  11.022 -0.7036 -1.4975 -0.1637
  958MOL0     H29291   5.158   4.750  10.950 -0.9188  0.2344  0.7752
  958MOL0     H29292   5.273   4.827  11.049  1.7188 -0.4413 -1.4506
  958MOL0     H29293   5.329   4.712  10.937  0.4007 -1.8765  0.9658
  958MOL0     H29294   4.930   4.967  11.018  0.6661 -1.8159  1.2413
  958MOL0     H29295   4.748   5.132  11.045  1.7177 -0.4867  0.3185
  958MOL0     H29296   4.356   5.145  11.317 -0.4016  0.8880 -4.1334
  958MOL0     H29297   4.411   4.989  11.343  1.8146 -0.7958 -0.6854
  958MOL0     H29298   4.478   5.122  11.539  1.2248 -0.7011  0.2884
  958MOL0     H29299   4.624   5.066  11.477  0.1867  1.6283  2.5351
  958MOL0     H29300   4.503   5.350  11.417 -0.6987  1.9666  4.0577
  958MOL0     H29301   4.675   5.310  11.402  1.0144  1.9480  3.8066
  958MOL0     H29302   4.503   5.339  11.654 -0.0632  0.7446  0.9934
  958MOL0     H29303   4.632   5.234  11.661 -1.9969  2.4609  3.8061
  958MOL0     H29304   4.623   5.526  11.579  1.1994 -0.7871 -1.3593
  958MOL0     H29305   4.775   5.432  11.566 -0.3598  0.0779 -0.4598
  958MOL0     H29306   4.614   5.487  11.832  0.8379 -2.9777  0.1177
  958MOL0     H29307   4.754   5.391  11.824 -4.0397 -1.2716 -0.2334
  958MOL0     H29308   4.754   5.665  11.681  1.8231 -2.3779 -4.1233
  958MOL0     H29309   4.897   5.590  11.738 -0.3887  2.3569 -4.5648
  958MOL0     H29310   4.695   5.732  11.910  1.9736  2.6549 -0.4479
  958MOL0     H29311   4.860   5.763  11.903 -2.9210  3.1469  1.1570
  958MOL0     H29312   4.559   4.855  11.313  1.3216 -2.6461  1.3971
  958MOL0     H29313   4.737   4.708  11.300 -0.0348 -0.5937 -0.3931
  958MOL0     H29314   5.037   4.525  11.382  0.0336 -1.0651  0.7650
  958MOL0     H29315   5.203   4.335  11.379 -1.5644  1.0297  0.9847
  958MOL0     H29316   6.256   3.920  10.067  0.8616  1.4980  0.6337
  958MOL0     H29317   6.373   3.748   9.949 -0.2136  0.5535  0.4742
  958MOL0     H29318   6.559   3.416   9.663  0.7961 -0.6556 -1.7019
  958MOL0     H29319   6.734   3.293   9.553 -5.7110  0.0466  0.1092
  958MOL0     H29320   6.930   3.226   9.506 -0.2279 -1.5087  0.5294
  958MOL0     H29321   7.028   3.250   9.362  0.3922 -2.8512  1.0008
  958MOL0     H29322   7.100   3.370   9.623 -0.5544 -0.8190 -0.0001
  958MOL0     H29323   7.207   3.362   9.489  1.5188 -0.1307  1.7202
  958MOL0     H29324   7.165   3.089   9.511  2.4958 -0.9223 -0.3053
  958MOL0     H29325   7.098   3.141   9.671 -0.8696  0.3599 -0.0687
  958MOL0     H29326   7.376   3.160   9.538 -1.1881  0.9670 -1.0299
  958MOL0     H29327   7.343   3.053   9.674  2.4683 -0.1765  0.5620
  958MOL0     H29328   7.450   3.403   9.876  1.0966  1.2004 -0.9420
  958MOL0     H29329   6.946   3.659   9.511 -0.0019  0.3040  0.8760
  958MOL0     H29330   6.773   3.787   9.635 -0.9240  0.0331  2.9613
  959MOL0     O29331   0.754   2.459   0.084 -0.2503 -0.5576 -0.2901
  959MOL0     C29332   0.730   2.581   0.056 -0.5769  0.3113  0.1901
  959MOL0     O29333   0.743   2.641  -0.069 -1.0881  0.0679 -0.0115
  959MOL0     C29334   0.798   2.575  -0.182  0.2293 -0.0246 -1.0428
  959MOL0     C29335   0.757   2.625  -0.301 -0.1335  0.4115 -0.4354
  959MOL0     C29336   0.822   2.584  -0.418  1.1051  1.0326 -0.6231
  959MOL0     C29337   0.912   2.479  -0.410 -0.1167 -0.3602 -0.6941
  959MOL0     O29338   0.975   2.421  -0.512 -0.0411 -0.4477  0.2607
  959MOL0     C29339   0.955   2.473  -0.646 -0.1720 -0.3324  0.8556
  959MOL0     C29340   1.052   2.426  -0.753 -0.6885  0.1296  0.6631
  959MOL0     C29341   1.031   2.449  -0.901  1.2288 -0.5283  0.0186
  959MOL0     C29342   1.000   2.592  -0.946 -0.1034  0.6317 -0.1537
  959MOL0     C29343   0.980   2.607  -1.097  0.0678 -0.6178  1.0487
  959MOL0     C29344   1.107   2.590  -1.169  0.5508 -0.8591 -0.3386
  959MOL0     C29345   1.102   2.645  -1.319  0.4092 -0.1537 -1.0444
  959MOL0     C29346   1.005   2.558  -1.406 -0.0783 -0.4613  0.6871
  959MOL0     N29347   1.043   2.533  -1.540 -0.0048 -0.0187 -0.0868
  959MOL0     C29348   0.979   2.584  -1.655  0.1058  0.8970 -0.5425
  959MOL0     C29349   1.019   2.498  -1.750  0.3168  1.3007 -0.3590
  959MOL0     C29350   0.978   2.504  -1.901  0.9130 -0.3736 -0.4296
  959MOL0     C29351   0.921   2.364  -1.954  0.2880  0.1294 -0.3178
  959MOL0     C29352   1.034   2.268  -1.993  0.4103  0.2169 -0.7260
  959MOL0     C29353   1.100   2.305  -2.126 -0.1463  0.0269  0.2191
  959MOL0     O29354   1.098   2.188  -2.209 -0.0253  0.5216  0.0579
  959MOL0     C29355   1.215   2.143  -2.266 -0.0073  0.5725 -0.2834
  959MOL0     C29356   1.213   2.014  -2.319 -0.8409 -0.4137  1.5478
  959MOL0     C29357   1.330   1.948  -2.357  0.1781  0.2355  0.8458
  959MOL0     C29358   1.303   1.805  -2.408  0.0606  0.9161  0.7894
  959MOL0     C29359   1.451   2.020  -2.362 -0.7746  0.1785  1.0549
  959MOL0     C29360   1.585   1.961  -2.397 -0.2584 -0.6448  0.0213
  959MOL0     O29361   1.688   2.042  -2.375 -1.0296  1.2793  0.0978
  959MOL0     C29362   1.816   1.989  -2.359  0.1624 -0.4715 -0.3254
  959MOL0     C29363   1.884   1.898  -2.439 -0.7301 -0.6855 -0.4493
  959MOL0     C29364   2.019   1.868  -2.415  0.4144 -0.1204 -0.8446
  959MOL0     C29365   2.093   1.936  -2.311  0.2365  0.3350  0.1698
  959MOL0     O29366   2.225   1.916  -2.282 -0.0348 -0.4560 -0.0951
  959MOL0     C29367   2.316   1.831  -2.352 -0.8241 -0.1871 -0.6845
  959MOL0     C29368   2.305   1.688  -2.303  0.5232  0.3014 -0.6847
  959MOL0     C29369   2.387   1.592  -2.387  0.2450 -0.8424 -0.1602
  959MOL0     C29370   2.414   1.473  -2.293  0.1923  0.1834 -0.4861
  959MOL0     C29371   2.490   1.360  -2.352 -0.0411  0.1833  0.0253
  959MOL0     C29372   2.469   1.250  -2.254  0.0984 -0.2245 -0.0542
  959MOL0     C29373   2.538   1.126  -2.297 -0.2553  0.4725  0.8452
  959MOL0     C29374   2.501   1.005  -2.203 -0.0034  0.0430 -0.6026
  959MOL0    Cl29375   2.614   0.872  -2.255 -0.1048  0.2740  0.0607
  959MOL0     C29376   2.025   2.028  -2.235 -0.2863 -0.1393 -0.2218
  959MOL0     C29377   1.887   2.053  -2.257 -0.3811  0.6799 -0.0797
  959MOL0     O29378   1.595   1.837  -2.429  0.8262  0.8093  0.4811
  959MOL0     C29379   1.456   2.153  -2.335  0.9283 -0.5638 -0.1320
  959MOL0     C29380   1.339   2.220  -2.283 -0.1506  0.0336  0.0330
  959MOL0     N29381   1.106   2.406  -1.697 -0.4574 -0.5684  0.1213
  959MOL0     N29382   1.115   2.421  -1.576 -0.3868  0.1862  0.0058
  959MOL0     C29383   0.942   2.418  -0.288  0.4193  0.4530 -0.5519
  959MOL0     C29384   0.891   2.474  -0.172 -0.2902 -0.6013  0.0865
  959MOL0     C29385   0.678   2.667   0.162  0.3531  0.7686 -0.2064
  959MOL0     C29386   0.694   2.631   0.296  0.2327  0.1006  0.7132
  959MOL0     C29387   0.678   2.725   0.393 -0.3043  0.3926 -0.4290
  959MOL0     C29388   0.628   2.860   0.362 -0.2127 -0.3561  0.0749
  959MOL0     O29389   0.636   2.949   0.461 -0.0321 -0.2205 -0.4664
  959MOL0     C29390   0.594   3.091   0.448 -0.0323  0.9788 -0.1490
  959MOL0     C29391   0.621   3.154   0.585 -0.3872 -0.1934  0.5111
  959MOL0     C29392   0.545   3.070   0.684 -0.2290 -1.0742 -0.7395
  959MOL0     C29393   0.567   3.135   0.818  0.7912 -0.2691  0.5842
  959MOL0     C29394   0.490   3.076   0.928  0.2213 -0.5371 -0.2288
  959MOL0     C29395   0.435   3.043   1.023  0.6780 -0.7195  0.0435
  959MOL0     C29396   0.600   2.887   0.233 -0.2469 -0.1925 -0.0416
  959MOL0     C29397   0.631   2.794   0.128 -0.2703 -0.0126 -0.4539
  959MOL0     H29398   0.692   2.711  -0.307  3.6227  3.6606  1.3523
  959MOL0     H29399   0.778   2.627  -0.508  1.2419  1.3377 -0.5447
  959MOL0     H29400   0.856   2.454  -0.687 -0.7463  1.9456  1.0629
  959MOL0     H29401   0.971   2.580  -0.633  2.8795 -0.8866  2.7446
  959MOL0     H29402   1.148   2.461  -0.716  0.0544  0.1721 -1.1984
  959MOL0     H29403   1.068   2.318  -0.756  0.0211  0.2325  0.6911
  959MOL0     H29404   1.124   2.416  -0.948  1.3699 -0.4765  0.2587
  959MOL0     H29405   0.952   2.382  -0.936  1.4352  0.4706 -2.5909
  959MOL0     H29406   0.902   2.607  -0.901 -1.9550 -3.2701 -2.3450
  959MOL0     H29407   1.080   2.658  -0.912  1.9264 -0.6465 -2.1785
  959MOL0     H29408   0.905   2.535  -1.132  1.6414 -1.9027  0.2055
  959MOL0     H29409   0.947   2.710  -1.111 -0.7858 -1.1296 -1.0124
  959MOL0     H29410   1.184   2.632  -1.103  0.5634 -1.5247  0.0814
  959MOL0     H29411   1.140   2.487  -1.183  0.0600 -1.0467 -0.1376
  959MOL0     H29412   1.071   2.749  -1.305  4.0321  0.7505  1.7154
  959MOL0     H29413   1.201   2.653  -1.364 -0.4545  0.6803 -2.8945
  959MOL0     H29414   0.913   2.618  -1.401 -0.5343 -0.8837 -1.4343
  959MOL0     H29415   0.969   2.469  -1.354  0.8902 -1.8372 -0.9132
  959MOL0     H29416   0.918   2.673  -1.664 -0.6108  0.4808  0.1272
  959MOL0     H29417   0.896   2.576  -1.915 -0.9888 -2.5442 -0.9955
  959MOL0     H29418   1.066   2.538  -1.957  2.2877 -1.1711  1.1598
  959MOL0     H29419   0.848   2.370  -2.036 -1.7839  0.1338  1.4448
  959MOL0     H29420   0.860   2.314  -1.879 -1.3017 -2.0730 -2.9053
  959MOL0     H29421   0.984   2.171  -1.995 -0.4339  0.6511 -1.1478
  959MOL0     H29422   1.113   2.261  -1.917  1.1220 -0.5497 -1.5095
  959MOL0     H29423   1.198   2.348  -2.105 -0.8061  1.5986  0.1792
  959MOL0     H29424   1.047   2.392  -2.166  2.4518  1.5309 -0.1872
  959MOL0     H29425   1.123   1.954  -2.327 -2.3006  1.8573 -0.3862
  959MOL0     H29426   1.335   1.725  -2.340 -3.6912 -1.2977  0.2544
  959MOL0     H29427   1.199   1.779  -2.431  0.8950 -0.9297 -1.2912
  959MOL0     H29428   1.351   1.785  -2.504 -2.3469  1.5196 -0.6313
  959MOL0     H29429   1.832   1.838  -2.513 -0.7501  0.9231 -1.8003
  959MOL0     H29430   2.069   1.788  -2.469 -0.6183 -0.1043 -1.8559
  959MOL0     H29431   2.299   1.840  -2.460  2.3799  1.4090 -1.1757
  959MOL0     H29432   2.418   1.859  -2.325 -1.3376 -1.1253  2.6144
  959MOL0     H29433   2.340   1.686  -2.199 -0.2700 -1.5545 -0.3988
  959MOL0     H29434   2.204   1.646  -2.304  1.2778 -1.8266  1.4953
  959MOL0     H29435   2.481   1.632  -2.427 -0.3515  0.9076  0.1102
  959MOL0     H29436   2.334   1.558  -2.477 -0.0887  0.2333 -0.3834
  959MOL0     H29437   2.477   1.514  -2.214  0.4629 -0.1830 -0.5139
  959MOL0     H29438   2.323   1.432  -2.248 -1.7893  1.1326 -3.3104
  959MOL0     H29439   2.594   1.388  -2.372  0.2759  1.5435  3.0674
  959MOL0     H29440   2.455   1.324  -2.449  1.5805 -1.5282  0.0177
  959MOL0     H29441   2.502   1.274  -2.152 -0.0322 -3.3721  0.8575
  959MOL0     H29442   2.363   1.227  -2.243  0.3074 -0.5313  1.5655
  959MOL0     H29443   2.645   1.141  -2.279  0.8533 -4.4964  0.0356
  959MOL0     H29444   2.510   1.103  -2.401  2.0274 -1.5643  0.5748
  959MOL0     H29445   2.399   0.973  -2.226  0.6335 -3.5741  0.9021
  959MOL0     H29446   2.506   1.044  -2.101 -3.1188  2.3470 -1.1757
  959MOL0     H29447   2.078   2.068  -2.149  1.6855 -2.4390 -0.2513
  959MOL0     H29448   1.833   2.114  -2.185  1.9460 -0.5949  2.9780
  959MOL0     H29449   1.547   2.213  -2.327 -0.5333  1.5159  2.4630
  959MOL0     H29450   1.351   2.328  -2.283  1.2800 -0.0990 -1.0337
  959MOL0     H29451   0.998   2.327  -0.271 -1.6027 -0.5809  0.9884
  959MOL0     H29452   0.922   2.431  -0.077 -1.5601 -2.4406 -0.2647
  959MOL0     H29453   0.729   2.533   0.328 -0.0407 -0.9704 -2.0446
  959MOL0     H29454   0.700   2.709   0.498 -0.8468 -1.4533 -0.5588
  959MOL0     H29455   0.651   3.154   0.379 -0.8963  3.5922  1.3971
  959MOL0     H29456   0.486   3.097   0.430 -0.8414  2.0135  4.1033
  959MOL0     H29457   0.581   3.256   0.581  0.8809  0.2743 -1.6545
  959MOL0     H29458   0.729   3.165   0.598 -0.6749  1.9331  1.6850
  959MOL0     H29459   0.586   2.969   0.695  1.2330 -0.5530 -1.1549
  959MOL0     H29460   0.440   3.075   0.655  0.1396  2.6509 -2.0064
  959MOL0     H29461   0.533   3.239   0.826 -0.3103 -0.7052  1.9171
  959MOL0     H29462   0.672   3.136   0.849  1.0307  0.6468 -0.1943
  959MOL0     H29463   0.395   3.013   1.117  1.5764 -2.0596  0.0242
  959MOL0     H29464   0.560   2.985   0.210 -1.0200  0.4549  3.4836
  959MOL0     H29465   0.622   2.812   0.021 -0.7921  0.6571 -0.3078
  960MOL0     O29466   8.444   2.022   6.338  0.5423 -0.2837  1.3220
  960MOL0     C29467   8.546   1.956   6.348  0.4155 -0.6369  0.1966
  960MOL0     O29468   8.646   1.947   6.257  0.4618  0.1078 -0.2622
  960MOL0     C29469   8.643   2.019   6.138 -0.2195  0.3268 -0.3159
  960MOL0     C29470   8.738   2.116   6.116  0.7759  0.1306  0.0735
  960MOL0     C29471   8.741   2.193   6.001 -0.7894  0.1104 -0.0147
  960MOL0     C29472   8.656   2.177   5.897  1.1076 -0.2537 -0.1387
  960MOL0     O29473   8.684   2.235   5.778 -0.9114 -0.1194  0.4887
  960MOL0     C29474   8.582   2.254   5.681  0.7151 -0.2561 -0.4723
  960MOL0     C29475   8.547   2.407   5.659 -0.1920 -0.3392 -0.0445
  960MOL0     C29476   8.420   2.448   5.743  0.1263 -0.0779  0.4060
  960MOL0     C29477   8.466   2.508   5.874  0.7913  0.1321  0.0227
  960MOL0     C29478   8.351   2.580   5.952 -0.3076  0.5838  0.2339
  960MOL0     C29479   8.366   2.604   6.103  0.7538  0.5510 -0.4102
  960MOL0     C29480   8.482   2.709   6.133  0.5383  0.7875 -0.2699
  960MOL0     C29481   8.470   2.829   6.047  1.2071 -0.7631  0.2095
  960MOL0     N29482   8.363   2.926   6.082  0.1263 -0.1007 -0.2330
  960MOL0     C29483   8.376   3.012   6.193 -0.2572  0.5579 -0.4109
  960MOL0     C29484   8.247   3.068   6.207 -0.0610  0.6202  0.1440
  960MOL0     C29485   8.208   3.162   6.310  0.0991 -0.5197 -0.0833
  960MOL0     C29486   8.065   3.219   6.295 -1.0664  0.5833 -0.9959
  960MOL0     C29487   8.027   3.294   6.420 -0.1372 -0.3918  0.1041
  960MOL0     C29488   7.879   3.339   6.420 -0.1800 -0.1532  1.0087
  960MOL0     O29489   7.876   3.457   6.506 -0.5534 -0.1799 -0.7619
  960MOL0     C29490   7.909   3.585   6.466  0.6846 -0.0610  0.3750
  960MOL0     C29491   7.966   3.621   6.339  0.8099  0.0302 -2.0587
  960MOL0     C29492   8.001   3.750   6.306 -0.0814 -0.2166 -1.0423
  960MOL0     C29493   8.079   3.779   6.180 -0.2041 -0.4792 -1.1030
  960MOL0     C29494   7.943   3.854   6.386 -0.8556  0.0037 -0.2413
  960MOL0     C29495   7.936   3.994   6.344 -0.6277  0.1405 -0.7784
  960MOL0     O29496   7.957   4.088   6.437 -0.7985 -0.1143 -0.2383
  960MOL0     C29497   7.953   4.221   6.400 -0.3226  0.3236  0.2687
  960MOL0     C29498   8.003   4.274   6.276  0.1678  0.2330 -0.5283
  960MOL0     C29499   8.020   4.400   6.246  0.1411  0.4947  0.1121
  960MOL0     C29500   7.980   4.496   6.342 -0.5543 -0.1978  0.4156
  960MOL0     O29501   8.002   4.631   6.316  0.2172  0.5332  0.0279
  960MOL0     C29502   8.130   4.683   6.362  0.3250  0.9957 -0.0031
  960MOL0     C29503   8.153   4.817   6.306 -0.4862 -0.9475 -0.5114
  960MOL0     C29504   8.281   4.893   6.326 -0.4874 -0.3119 -0.3742
  960MOL0     C29505   8.253   5.036   6.260  0.6961  0.1908  0.2431
  960MOL0     C29506   8.377   5.129   6.252 -0.4350 -1.4659  0.4752
  960MOL0     C29507   8.345   5.249   6.168 -0.0232 -1.3100 -0.0294
  960MOL0     C29508   8.473   5.300   6.093  0.4114  0.0828  0.0329
  960MOL0     C29509   8.534   5.400   6.189 -1.6796  0.1107 -0.0683
  960MOL0    Cl29510   8.675   5.484   6.126 -0.3741  0.2360  0.4587
  960MOL0     C29511   7.927   4.451   6.464  0.9102  1.2792 -0.5146
  960MOL0     C29512   7.926   4.312   6.499 -0.3962 -1.1225 -0.2763
  960MOL0     O29513   7.897   4.020   6.232 -0.5640 -0.0059 -0.1517
  960MOL0     C29514   7.881   3.817   6.506  0.5092 -0.7150  0.0303
  960MOL0     C29515   7.875   3.686   6.551  0.9133  0.7822 -0.0085
  960MOL0     N29516   8.171   3.021   6.101  0.6035 -0.0450 -0.1101
  960MOL0     N29517   8.237   2.945   6.024 -0.3605  0.7439  0.6706
  960MOL0     C29518   8.551   2.083   5.913 -0.7450 -0.1060  0.3575
  960MOL0     C29519   8.555   2.008   6.033  0.5212  1.5755  0.1496
  960MOL0     C29520   8.562   1.893   6.477  0.4148 -0.5415  0.4040
  960MOL0     C29521   8.680   1.818   6.508 -0.1878  0.5424 -0.5901
  960MOL0     C29522   8.692   1.747   6.633 -0.5773 -0.4441  0.0240
  960MOL0     C29523   8.591   1.760   6.730  0.2180 -0.2345  0.3054
  960MOL0     O29524   8.627   1.696   6.850 -0.4109  0.1123  0.1569
  960MOL0     C29525   8.538   1.713   6.962 -0.0347 -0.1092 -0.3565
  960MOL0     C29526   8.601   1.651   7.086 -0.5110 -0.9038 -0.0602
  960MOL0     C29527   8.623   1.504   7.061  0.4008  0.0560  0.3359
  960MOL0     C29528   8.512   1.408   7.110 -0.0422  0.0591 -0.1332
  960MOL0     C29529   8.573   1.273   7.109  0.2070 -0.1104 -0.6434
  960MOL0     C29530   8.616   1.160   7.109 -0.3250 -0.1397 -0.1471
  960MOL0     C29531   8.468   1.820   6.697  0.2669 -0.3277  0.2055
  960MOL0     C29532   8.464   1.889   6.578 -0.2977 -0.2375 -0.5471
  960MOL0     H29533   8.819   2.124   6.187  3.0235 -0.6851 -2.2375
  960MOL0     H29534   8.830   2.249   5.975 -0.5164 -0.2537  0.1260
  960MOL0     H29535   8.630   2.209   5.593 -0.4321 -2.1178 -0.2062
  960MOL0     H29536   8.492   2.192   5.681  0.0584  0.6729 -0.5012
  960MOL0     H29537   8.631   2.468   5.694 -0.8170 -1.3078  3.5209
  960MOL0     H29538   8.526   2.428   5.553 -1.1134  1.4972  0.4594
  960MOL0     H29539   8.360   2.529   5.699 -0.9460  0.5492  2.8586
  960MOL0     H29540   8.352   2.363   5.754  0.2505 -0.4478 -1.3340
  960MOL0     H29541   8.506   2.427   5.934  2.8149  1.2203  0.2130
  960MOL0     H29542   8.544   2.583   5.856  1.3583 -0.8689 -1.9412
  960MOL0     H29543   8.314   2.661   5.889  0.7675  2.5866  2.0464
  960MOL0     H29544   8.275   2.502   5.950  2.8269 -2.8427  1.4830
  960MOL0     H29545   8.276   2.652   6.143  1.1547  0.2631  0.8651
  960MOL0     H29546   8.391   2.505   6.141 -1.3570 -0.5854 -1.8054
  960MOL0     H29547   8.495   2.732   6.239 -2.4256  0.4866  0.2475
  960MOL0     H29548   8.572   2.649   6.114 -0.3434 -0.0044 -2.2405
  960MOL0     H29549   8.455   2.801   5.942 -0.2311 -0.2565  0.2630
  960MOL0     H29550   8.564   2.881   6.069  1.7988 -0.7067 -2.1143
  960MOL0     H29551   8.454   3.018   6.268 -1.0430 -0.1595  0.4902
  960MOL0     H29552   8.226   3.112   6.405 -0.1554  0.8783  0.7408
  960MOL0     H29553   8.277   3.245   6.292 -0.5657 -0.2350 -1.4922
  960MOL0     H29554   7.999   3.132   6.297 -0.9260  0.4819  1.0281
  960MOL0     H29555   8.050   3.281   6.205  0.1382  0.8328 -1.0482
  960MOL0     H29556   8.096   3.380   6.420  1.5286 -1.6658 -0.9510
  960MOL0     H29557   8.038   3.231   6.509 -2.0046 -1.8618 -0.6417
  960MOL0     H29558   7.809   3.263   6.455 -0.0300 -1.1543 -0.7701
  960MOL0     H29559   7.849   3.368   6.319  1.3414 -1.1424  0.2436
  960MOL0     H29560   7.991   3.538   6.273  1.5392 -0.0622 -1.6871
  960MOL0     H29561   8.012   3.803   6.097 -0.8498  0.3842 -0.3608
  960MOL0     H29562   8.148   3.863   6.184 -0.2388 -0.3536 -2.5362
  960MOL0     H29563   8.135   3.689   6.154  0.3694  0.4057 -3.1390
  960MOL0     H29564   8.050   4.204   6.207 -1.9771 -1.4243 -0.4319
  960MOL0     H29565   8.044   4.432   6.145 -2.0646  1.0411 -0.2844
  960MOL0     H29566   8.125   4.683   6.471 -3.0315 -0.5141 -0.0216
  960MOL0     H29567   8.219   4.625   6.339  2.0880  2.1775  3.1656
  960MOL0     H29568   8.151   4.792   6.199 -3.3198  2.5063 -1.4976
  960MOL0     H29569   8.070   4.885   6.328 -0.6549 -1.3719  0.1768
  960MOL0     H29570   8.362   4.840   6.275  0.7097 -0.8085  1.9175
  960MOL0     H29571   8.306   4.906   6.432  1.5205 -1.0219 -0.7202
  960MOL0     H29572   8.211   5.007   6.163 -1.5240  0.5267  1.0602
  960MOL0     H29573   8.180   5.102   6.308  0.3873  1.0554 -1.3447
  960MOL0     H29574   8.451   5.073   6.194 -0.7387 -1.1139 -0.2675
  960MOL0     H29575   8.419   5.153   6.350  1.1643  0.9193 -0.7046
  960MOL0     H29576   8.268   5.218   6.097  0.5809 -1.4342 -0.6486
  960MOL0     H29577   8.303   5.327   6.231 -0.0783 -1.7761  0.5148
  960MOL0     H29578   8.451   5.353   6.001 -2.0417 -1.6657 -0.4877
  960MOL0     H29579   8.536   5.217   6.060 -0.6878 -0.2423 -1.3244
  960MOL0     H29580   8.575   5.337   6.268  1.4176  0.1535 -1.5087
  960MOL0     H29581   8.464   5.477   6.222 -0.7521  1.5531 -1.3335
  960MOL0     H29582   7.896   4.524   6.538 -0.0984  0.5305 -0.1773
  960MOL0     H29583   7.888   4.270   6.591 -0.2546  1.3841  1.0296
  960MOL0     H29584   7.832   3.892   6.567  0.1147 -1.6554  0.8833
  960MOL0     H29585   7.813   3.660   6.636  0.3449  3.2538  0.3971
  960MOL0     H29586   8.496   2.033   5.834 -0.0424 -1.5138  0.7280
  960MOL0     H29587   8.481   1.930   6.048  1.4648  0.7824  0.8362
  960MOL0     H29588   8.764   1.804   6.440 -1.0271 -2.7230 -1.1440
  960MOL0     H29589   8.779   1.684   6.646  0.8157  1.2758 -0.5014
  960MOL0     H29590   8.522   1.820   6.977  0.1841 -0.3146  1.6597
  960MOL0     H29591   8.443   1.662   6.943 -0.3670  1.0366 -2.0248
  960MOL0     H29592   8.526   1.661   7.165 -2.6253  1.7957 -2.1756
  960MOL0     H29593   8.696   1.699   7.110  0.5216 -0.6115 -3.9718
  960MOL0     H29594   8.713   1.472   7.114  0.1996  0.1087  0.7120
  960MOL0     H29595   8.640   1.483   6.955  1.4261  1.0849  0.2615
  960MOL0     H29596   8.428   1.417   7.041  1.2659  1.0910 -1.6492
  960MOL0     H29597   8.492   1.437   7.214  0.4121 -0.8815  0.2349
  960MOL0     H29598   8.655   1.060   7.111 -0.4096 -0.1654  0.9353
  960MOL0     H29599   8.381   1.830   6.762  0.4035  0.2769  0.3068
  960MOL0     H29600   8.369   1.935   6.554 -1.4753 -1.5257  1.2808
  961MOL0     O29601   8.950   1.899   7.319 -0.0233  0.0426  0.0610
  961MOL0     C29602   9.066   1.935   7.316 -0.2684  0.2677  0.8042
  961MOL0     O29603   9.118   2.058   7.333 -0.2949 -0.8076  0.4849
  961MOL0     C29604   9.036   2.162   7.342  0.7459 -0.5061 -0.7437
  961MOL0     C29605   8.940   2.188   7.245 -0.3933  0.1179  0.9770
  961MOL0     C29606   8.863   2.300   7.252 -0.1619 -0.3127  0.6126
  961MOL0     C29607   8.880   2.396   7.353 -0.8774  0.7269 -0.2556
  961MOL0     O29608   8.795   2.502   7.336 -0.0888 -0.3958 -0.0048
  961MOL0     C29609   8.727   2.556   7.453  0.7253 -0.1056 -0.2177
  961MOL0     C29610   8.664   2.694   7.415 -0.5899 -0.3813  0.0375
  961MOL0     C29611   8.643   2.799   7.521 -1.0734  0.3816 -0.5497
  961MOL0     C29612   8.578   2.925   7.471 -0.3186 -0.9354 -0.6339
  961MOL0     C29613   8.565   3.026   7.583  0.2643 -0.3997 -0.9175
  961MOL0     C29614   8.469   3.153   7.557  0.5683  0.1774 -0.2624
  961MOL0     C29615   8.518   3.214   7.427  0.9269  0.0510 -0.2672
  961MOL0     C29616   8.468   3.352   7.430  0.4992 -0.0809 -0.6038
  961MOL0     N29617   8.469   3.401   7.288  0.2250 -0.0073  0.1989
  961MOL0     C29618   8.574   3.442   7.200  0.0962  1.3019  0.8166
  961MOL0     C29619   8.514   3.490   7.086  0.3930 -0.1804  0.8954
  961MOL0     C29620   8.581   3.535   6.961  0.6135 -0.1133 -0.8731
  961MOL0     C29621   8.693   3.442   6.905  0.2175  0.4963  0.0322
  961MOL0     C29622   8.751   3.493   6.773  0.4782  0.2383 -0.7938
  961MOL0     C29623   8.846   3.411   6.687  0.4136 -0.5265 -0.4509
  961MOL0     O29624   8.883   3.471   6.565 -0.5960 -0.1482 -0.1615
  961MOL0     C29625   8.962   3.402   6.479 -0.5050 -0.3970  0.5427
  961MOL0     C29626   8.992   3.464   6.355 -0.1526 -0.3099 -0.3919
  961MOL0     C29627   9.077   3.409   6.262  0.2859 -0.4088  0.3965
  961MOL0     C29628   9.076   3.479   6.127 -1.1794 -0.5804 -0.3919
  961MOL0     C29629   9.129   3.280   6.275 -0.7989 -0.3090  0.4917
  961MOL0     C29630   9.230   3.211   6.185  0.3808  0.4401  0.4180
  961MOL0     O29631   9.287   3.098   6.234  0.5217 -0.2860  0.6552
  961MOL0     C29632   9.387   3.022   6.177 -0.5705 -0.0926 -0.5688
  961MOL0     C29633   9.364   2.901   6.116  1.0186  0.4361 -0.7143
  961MOL0     C29634   9.463   2.816   6.065 -0.2383 -0.1939  0.2838
  961MOL0     C29635   9.599   2.857   6.076 -1.1338  0.6546 -0.6549
  961MOL0     O29636   9.689   2.767   6.027  0.1720 -0.0742 -0.0807
  961MOL0     C29637   9.828   2.784   6.032 -0.1444  0.1663  0.6808
  961MOL0     C29638   9.895   2.649   6.017  0.1347  0.2023 -0.2706
  961MOL0     C29639  10.049   2.669   6.035  0.0160 -0.4469  0.0607
  961MOL0     C29640  10.108   2.717   5.905 -0.1619 -0.2831 -1.0957
  961MOL0     C29641  10.253   2.737   5.909  0.7518 -0.1410 -1.1272
  961MOL0     C29642  10.330   2.769   5.779 -0.7721  0.4112 -0.7013
  961MOL0     C29643  10.260   2.861   5.681  0.6261 -0.1180 -0.5340
  961MOL0     C29644  10.233   3.008   5.740 -0.5413  0.4952 -1.4681
  961MOL0    Cl29645  10.390   3.072   5.804 -0.0609 -0.1484 -0.1978
  961MOL0     C29646   9.627   2.990   6.134  0.8279  0.3139 -0.6451
  961MOL0     C29647   9.520   3.072   6.177  1.1209 -0.2892 -0.6096
  961MOL0     O29648   9.247   3.251   6.074 -0.2841 -0.5346 -0.1257
  961MOL0     C29649   9.096   3.215   6.399 -0.0364 -0.1809  0.2793
  961MOL0     C29650   9.021   3.278   6.500 -0.6404  0.7417 -0.3209
  961MOL0     N29651   8.379   3.476   7.101 -0.0207 -0.1246 -0.8407
  961MOL0     N29652   8.356   3.440   7.224  0.1156 -0.1288 -0.5178
  961MOL0     C29653   8.966   2.369   7.457  0.1557 -0.1099 -0.0414
  961MOL0     C29654   9.044   2.251   7.452  0.0868  0.7727  0.2992
  961MOL0     C29655   9.165   1.825   7.290  0.5004 -0.3655  1.1668
  961MOL0     C29656   9.129   1.695   7.254  0.1095 -0.5262  0.2685
  961MOL0     C29657   9.221   1.600   7.225 -0.4547  0.9300  0.1389
  961MOL0     C29658   9.357   1.629   7.246  0.0879  0.7252 -0.1922
  961MOL0     O29659   9.431   1.518   7.225  0.0346 -0.0381 -0.8392
  961MOL0     C29660   9.571   1.511   7.228  0.4381 -0.2214 -0.3435
  961MOL0     C29661   9.621   1.495   7.376 -0.7240  0.0624  0.3132
  961MOL0     C29662   9.619   1.343   7.426 -0.8199  0.2208  0.1529
  961MOL0     C29663   9.747   1.278   7.429  0.0276 -0.0315 -0.0344
  961MOL0     C29664   9.842   1.338   7.520  0.0209  1.0462 -0.6133
  961MOL0     C29665   9.908   1.403   7.598  0.2354  0.0500  0.3683
  961MOL0     C29666   9.402   1.758   7.292  0.5210  0.0256 -0.3526
  961MOL0     C29667   9.299   1.853   7.313 -0.4703  0.2906  0.7786
  961MOL0     H29668   8.941   2.115   7.165  0.6960 -0.3027  1.3579
  961MOL0     H29669   8.794   2.337   7.176 -0.2840  3.3353  2.3109
  961MOL0     H29670   8.651   2.482   7.482  0.1754 -0.1389 -1.6591
  961MOL0     H29671   8.792   2.569   7.541 -0.4736  0.6370  0.5889
  961MOL0     H29672   8.717   2.740   7.331 -3.0365 -0.5618 -1.7321
  961MOL0     H29673   8.570   2.678   7.361 -1.3695  1.6028  0.7084
  961MOL0     H29674   8.577   2.763   7.601 -2.1241  2.6121 -0.3282
  961MOL0     H29675   8.740   2.818   7.567 -1.4055 -0.7893  0.7108
  961MOL0     H29676   8.622   2.971   7.382 -0.1881  2.1942  0.8993
  961MOL0     H29677   8.478   2.896   7.437 -0.1712  0.2241 -2.1937
  961MOL0     H29678   8.524   2.979   7.673 -0.6271 -2.5601 -2.3582
  961MOL0     H29679   8.666   3.064   7.603  0.3919 -0.1891 -1.8837
  961MOL0     H29680   8.368   3.110   7.554  1.1494 -1.3336  0.7194
  961MOL0     H29681   8.464   3.220   7.643 -0.2728  1.5866 -1.3746
  961MOL0     H29682   8.626   3.217   7.408  1.0184  2.7146  0.2098
  961MOL0     H29683   8.468   3.148   7.355  1.5081  0.6261 -1.2227
  961MOL0     H29684   8.513   3.425   7.498 -1.5679  0.6365  0.0735
  961MOL0     H29685   8.367   3.345   7.472 -0.3068 -0.1031 -2.4666
  961MOL0     H29686   8.681   3.433   7.221  0.5854  0.6236 -1.7081
  961MOL0     H29687   8.498   3.537   6.890  2.5056  0.6530 -3.2056
  961MOL0     H29688   8.630   3.632   6.977  1.0317 -0.0983 -2.1194
  961MOL0     H29689   8.642   3.346   6.892 -0.7433  0.8690  0.8861
  961MOL0     H29690   8.771   3.433   6.981  3.2574  3.7221 -2.3400
  961MOL0     H29691   8.800   3.590   6.787 -6.2259  3.8205  2.5075
  961MOL0     H29692   8.662   3.512   6.713  1.5724  1.1670 -2.1871
  961MOL0     H29693   8.794   3.314   6.685  2.8037 -1.9510  1.2111
  961MOL0     H29694   8.933   3.396   6.752 -0.4718 -0.7168  0.7233
  961MOL0     H29695   8.946   3.562   6.342  3.6397  1.7190 -0.0243
  961MOL0     H29696   9.038   3.578   6.152  0.5281 -0.5373  2.4512
  961MOL0     H29697   9.175   3.506   6.089 -2.4140  1.3848 -2.4912
  961MOL0     H29698   9.027   3.419   6.050 -0.4288 -1.6201 -0.0848
  961MOL0     H29699   9.261   2.865   6.113  1.1027  0.0325  0.4614
  961MOL0     H29700   9.435   2.723   6.018 -1.6918 -0.6534  1.9700
  961MOL0     H29701   9.871   2.858   5.963 -0.5683 -0.9386 -0.8193
  961MOL0     H29702   9.847   2.809   6.137 -0.4919 -1.1323  1.0705
  961MOL0     H29703   9.860   2.577   6.091 -1.9533  2.5185  1.1087
  961MOL0     H29704   9.873   2.614   5.916  0.1177  0.6492 -0.4232
  961MOL0     H29705  10.091   2.571   6.061 -2.7775 -1.1402  2.5513
  961MOL0     H29706  10.071   2.723   6.127  0.5699 -0.5348 -0.0146
  961MOL0     H29707  10.076   2.639   5.835 -1.1052  0.2757 -1.2925
  961MOL0     H29708  10.074   2.810   5.861  0.8841  0.4484 -0.4057
  961MOL0     H29709  10.301   2.661   5.971 -0.0015 -0.1192 -0.4954
  961MOL0     H29710  10.259   2.824   5.976 -3.2139  0.8123 -1.7352
  961MOL0     H29711  10.428   2.810   5.803 -1.7236  1.0680  2.6179
  961MOL0     H29712  10.344   2.678   5.720 -2.5278  0.6694 -1.6129
  961MOL0     H29713  10.172   2.811   5.640  0.7312  1.9802 -3.6840
  961MOL0     H29714  10.333   2.869   5.600  1.0804 -2.4416 -0.4209
  961MOL0     H29715  10.152   2.994   5.812  1.0483 -1.3490  0.0919
  961MOL0     H29716  10.202   3.076   5.660 -3.2217 -1.8700 -2.5887
  961MOL0     H29717   9.731   3.021   6.134  1.0916 -0.5106 -1.4407
  961MOL0     H29718   9.532   3.169   6.224  0.4453  0.4755 -1.9686
  961MOL0     H29719   9.152   3.127   6.427  2.3218  2.1314  3.6749
  961MOL0     H29720   8.991   3.222   6.588  2.4345  0.5482  0.7240
  961MOL0     H29721   8.974   2.437   7.541  0.3086  3.4710 -2.7164
  961MOL0     H29722   9.106   2.242   7.540  0.5078  1.0175  0.0320
  961MOL0     H29723   9.022   1.677   7.247 -0.0460  0.7908 -1.3835
  961MOL0     H29724   9.191   1.499   7.198  3.0168 -0.7839  2.1227
  961MOL0     H29725   9.606   1.429   7.165 -0.0373 -0.2017 -0.6322
  961MOL0     H29726   9.612   1.606   7.192  2.4621 -1.7781 -2.4659
  961MOL0     H29727   9.552   1.557   7.435 -0.4176  1.7792 -1.0741
  961MOL0     H29728   9.722   1.536   7.374 -0.9921  0.8928 -3.7759
  961MOL0     H29729   9.551   1.282   7.366 -1.0352  1.5886 -1.0312
  961MOL0     H29730   9.569   1.344   7.524  3.2934 -0.0633  2.4818
  961MOL0     H29731   9.787   1.285   7.327 -0.0345  2.7877  0.0519
  961MOL0     H29732   9.720   1.176   7.457 -0.8262  0.1678 -0.0932
  961MOL0     H29733   9.968   1.450   7.673 -0.9424  1.6020  0.3844
  961MOL0     H29734   9.505   1.787   7.306  0.6474  0.8125 -2.5672
  961MOL0     H29735   9.324   1.954   7.343 -1.3757  1.4087 -1.9285
  962MOL0     O29736  10.631   4.754   9.749  0.1924  0.8243 -1.1091
  962MOL0     C29737  10.705   4.846   9.734 -1.2700 -0.2383  0.1382
  962MOL0     O29738  10.833   4.843   9.673 -0.9643 -0.6701  0.1020
  962MOL0     C29739  10.876   4.732   9.600  0.3553  0.1177  0.1326
  962MOL0     C29740  10.790   4.643   9.534 -0.4310  0.2358 -0.2794
  962MOL0     C29741  10.836   4.536   9.448  0.5446  0.6462  0.7006
  962MOL0     C29742  10.977   4.523   9.432 -0.3567 -0.3453  0.3289
  962MOL0     O29743  11.021   4.422   9.352 -0.2255 -0.1163  0.0696
  962MOL0     C29744  11.162   4.381   9.339  0.3804 -0.0841  1.0830
  962MOL0     C29745  11.180   4.363   9.186  0.1661  0.3653 -0.3484
  962MOL0     C29746  11.318   4.323   9.138 -1.0100  0.2152 -0.3495
  962MOL0     C29747  11.318   4.266   9.002  0.5429 -0.1251  0.4103
  962MOL0     C29748  11.290   4.372   8.892  0.4024  0.2722  0.0247
  962MOL0     C29749  11.336   4.340   8.749 -0.0728  1.2263 -0.2597
  962MOL0     C29750  11.277   4.211   8.697  0.1924  0.7825  0.0510
  962MOL0     C29751  11.346   4.175   8.550 -0.2665 -0.6684 -0.2799
  962MOL0     N29752  11.483   4.118   8.565  0.1323  0.4031 -0.1150
  962MOL0     C29753  11.502   3.998   8.637 -0.1243  0.1558  0.2643
  962MOL0     C29754  11.631   3.975   8.638 -1.0668  0.2544  0.7547
  962MOL0     C29755  11.704   3.860   8.704 -0.0528  0.0425 -0.9655
  962MOL0     C29756  11.774   3.768   8.601 -0.6277 -0.5120 -1.0803
  962MOL0     C29757  11.865   3.837   8.496  0.0903  0.2839  0.0277
  962MOL0     C29758  11.974   3.924   8.548 -0.2343 -0.0183  0.0251
  962MOL0     O29759  12.057   3.860   8.638  0.2971 -0.4316  0.5964
  962MOL0     C29760  12.170   3.811   8.578  1.0054  0.5370 -0.3047
  962MOL0     C29761  12.274   3.898   8.560 -0.5269  0.2027 -1.3303
  962MOL0     C29762  12.405   3.846   8.521  1.0909 -1.0168  0.4678
  962MOL0     C29763  12.526   3.942   8.517  0.0038 -0.7074  0.6780
  962MOL0     C29764  12.408   3.705   8.493 -0.3633 -0.4362  0.1427
  962MOL0     C29765  12.534   3.639   8.460  0.2135 -0.7496 -0.4922
  962MOL0     O29766  12.532   3.517   8.512  0.5590 -0.5970  0.1252
  962MOL0     C29767  12.652   3.452   8.498 -0.7576  0.0170  0.4459
  962MOL0     C29768  12.745   3.450   8.607 -0.1469 -0.4317 -0.4023
  962MOL0     C29769  12.874   3.395   8.581  0.9151 -0.8123 -1.2546
  962MOL0     C29770  12.911   3.335   8.461 -0.0416  0.0617  0.0585
  962MOL0     O29771  13.035   3.287   8.440 -1.2670  0.2534 -0.5533
  962MOL0     C29772  13.046   3.142   8.416  1.8584  0.2594 -0.3316
  962MOL0     C29773  13.075   3.096   8.269 -0.2291 -0.2702 -0.7860
  962MOL0     C29774  13.204   3.157   8.236 -0.4522 -0.0466 -0.3141
  962MOL0     C29775  13.244   3.105   8.103  0.0126 -0.6119 -0.4905
  962MOL0     C29776  13.349   3.202   8.046  1.5071 -0.0729  0.4436
  962MOL0     C29777  13.392   3.156   7.916 -0.4481 -0.6728  0.1501
  962MOL0     C29778  13.474   3.260   7.840  0.4034 -1.0206 -0.3413
  962MOL0     C29779  13.581   3.204   7.753  0.6062 -0.4329 -0.3308
  962MOL0    Cl29780  13.510   3.071   7.655  0.5594  0.0015 -0.1950
  962MOL0     C29781  12.814   3.329   8.356 -0.0568 -0.6073 -0.9072
  962MOL0     C29782  12.680   3.387   8.379 -1.1943  0.7293  0.1880
  962MOL0     O29783  12.632   3.699   8.410  0.1386 -0.0301  0.4425
  962MOL0     C29784  12.294   3.624   8.493  0.7142  0.1075  0.0984
  962MOL0     C29785  12.173   3.679   8.536  0.2406  0.2388 -0.4328
  962MOL0     N29786  11.699   4.083   8.580  0.2908 -0.6301 -0.4584
  962MOL0     N29787  11.609   4.162   8.526  0.3573 -0.3699 -0.5565
  962MOL0     C29788  11.062   4.627   9.490 -0.9452  0.0399  0.5031
  962MOL0     C29789  11.016   4.726   9.579 -0.6248 -0.0892 -0.3190
  962MOL0     C29790  10.662   4.975   9.768  0.1733 -0.4420  0.0116
  962MOL0     C29791  10.552   5.004   9.859 -0.9419  0.0313 -0.3787
  962MOL0     C29792  10.522   5.130   9.899  0.4839  0.0650  0.1459
  962MOL0     C29793  10.585   5.237   9.837 -0.1393  0.4700 -0.4273
  962MOL0     O29794  10.534   5.363   9.860 -0.1810 -0.2448  0.1958
  962MOL0     C29795  10.628   5.471   9.855 -0.2724  0.3176 -0.7371
  962MOL0     C29796  10.557   5.588   9.933 -0.7511 -0.2733 -0.2297
  962MOL0     C29797  10.544   5.567  10.085  0.4710 -0.6909 -0.6012
  962MOL0     C29798  10.519   5.700  10.162  0.9392  0.3538  0.4139
  962MOL0     C29799  10.471   5.659  10.294  0.6878  0.2966 -0.4661
  962MOL0     C29800  10.433   5.640  10.412  0.9511 -0.0302  0.9214
  962MOL0     C29801  10.680   5.210   9.736 -0.2396 -0.0232  1.0339
  962MOL0     C29802  10.713   5.081   9.702 -0.0154 -1.2234  1.1790
  962MOL0     H29803  10.686   4.667   9.555  0.1059  1.9892  0.4805
  962MOL0     H29804  10.761   4.470   9.406  3.3818 -2.1099 -0.4305
  962MOL0     H29805  11.235   4.451   9.381  0.9095 -0.9078  1.5666
  962MOL0     H29806  11.173   4.285   9.389 -2.0635 -1.6022 -1.0896
  962MOL0     H29807  11.109   4.283   9.164 -1.9927  2.3638 -1.1028
  962MOL0     H29808  11.148   4.445   9.122 -0.3170  0.4049 -0.0667
  962MOL0     H29809  11.388   4.407   9.132  0.9837 -1.3628 -0.3943
  962MOL0     H29810  11.364   4.247   9.202  1.8956  1.4113 -0.8407
  962MOL0     H29811  11.415   4.220   8.980 -0.2002 -1.4843 -0.1484
  962MOL0     H29812  11.235   4.195   8.995  1.2921 -0.8825 -3.1275
  962MOL0     H29813  11.184   4.400   8.891  0.0162 -1.1308 -0.3458
  962MOL0     H29814  11.350   4.458   8.925  2.2540 -1.9891  3.0662
  962MOL0     H29815  11.317   4.429   8.688  0.0330  0.9668 -0.6722
  962MOL0     H29816  11.444   4.321   8.753 -0.2676  0.2123  0.6879
  962MOL0     H29817  11.303   4.134   8.770 -0.1864  1.8872  1.3901
  962MOL0     H29818  11.168   4.217   8.688  0.0586 -1.0433 -0.0973
  962MOL0     H29819  11.331   4.249   8.471  2.7816 -1.4555 -1.7298
  962MOL0     H29820  11.286   4.086   8.529 -0.2404 -1.2000  1.6908
  962MOL0     H29821  11.430   3.931   8.682 -0.2242 -0.0617 -0.2130
  962MOL0     H29822  11.768   3.893   8.786  0.1893 -0.6373 -0.8732
  962MOL0     H29823  11.624   3.798   8.745 -0.7499  0.6163 -1.4298
  962MOL0     H29824  11.689   3.712   8.561 -1.4690 -0.8622  1.0520
  962MOL0     H29825  11.832   3.702   8.667 -2.0981 -1.5541 -0.7866
  962MOL0     H29826  11.806   3.889   8.421  0.5093 -1.2184 -1.3956
  962MOL0     H29827  11.919   3.756   8.446  0.6578 -1.4688  3.1772
  962MOL0     H29828  11.936   4.017   8.591  1.4317 -0.6526  3.1161
  962MOL0     H29829  12.025   3.954   8.456  0.2207 -2.4019 -0.5816
  962MOL0     H29830  12.264   4.004   8.583  3.3143  1.1545 -3.3617
  962MOL0     H29831  12.520   4.018   8.595  5.1270 -0.0586  0.8071
  962MOL0     H29832  12.629   3.908   8.527  1.1585  0.3630 -4.5377
  962MOL0     H29833  12.527   3.994   8.421 -0.7231 -0.8474  0.5929
  962MOL0     H29834  12.717   3.494   8.702  2.0039 -0.2850  0.2305
  962MOL0     H29835  12.952   3.403   8.656  0.7603  1.6566 -1.2592
  962MOL0     H29836  13.127   3.113   8.484 -0.2783 -1.7407  1.5974
  962MOL0     H29837  12.951   3.093   8.440  1.3259  1.8176  0.8568
  962MOL0     H29838  13.083   2.987   8.270  4.1569 -0.1351  0.2156
  962MOL0     H29839  12.999   3.130   8.198  0.7554 -0.8084 -2.1262
  962MOL0     H29840  13.283   3.131   8.308  2.1572  0.7500 -2.6734
  962MOL0     H29841  13.197   3.265   8.226 -0.5083 -0.2016 -2.2655
  962MOL0     H29842  13.288   3.005   8.114 -1.0574 -1.2619 -1.7779
  962MOL0     H29843  13.163   3.106   8.030 -0.8070  1.8639  0.3758
  962MOL0     H29844  13.423   3.229   8.122  2.5219 -1.0686 -0.1505
  962MOL0     H29845  13.302   3.299   8.028  5.0366  1.7305  0.0256
  962MOL0     H29846  13.444   3.060   7.921  1.7531  0.4290 -0.2718
  962MOL0     H29847  13.302   3.134   7.858  0.1633  0.3372 -1.2173
  962MOL0     H29848  13.510   3.338   7.908  1.5040  0.1402 -2.1594
  962MOL0     H29849  13.395   3.305   7.779  0.7868  0.4247  0.1601
  962MOL0     H29850  13.664   3.161   7.809  0.1405 -2.4180 -1.0564
  962MOL0     H29851  13.609   3.277   7.677 -1.0681  0.1731 -0.4158
  962MOL0     H29852  12.834   3.269   8.268 -1.6029 -1.3587 -0.7903
  962MOL0     H29853  12.596   3.374   8.311 -2.0968 -1.3089  1.6105
  962MOL0     H29854  12.304   3.517   8.476  0.8048  0.1557 -0.1678
  962MOL0     H29855  12.082   3.621   8.529 -0.5308  1.5170 -1.6047
  962MOL0     H29856  11.166   4.631   9.460 -1.3405 -2.6655 -1.5735
  962MOL0     H29857  11.083   4.804   9.614  0.7861 -1.5169  0.2421
  962MOL0     H29858  10.492   4.927   9.906 -0.8080  1.1129  1.6718
  962MOL0     H29859  10.444   5.139   9.974 -0.7336  1.9790 -1.2757
  962MOL0     H29860  10.722   5.435   9.899 -0.7130 -0.0148 -0.0622
  962MOL0     H29861  10.646   5.495   9.749  2.0372  1.4775 -0.1367
  962MOL0     H29862  10.464   5.624   9.888  1.2517  1.8050 -3.0683
  962MOL0     H29863  10.619   5.678   9.922  1.0457 -0.8473  3.4970
  962MOL0     H29864  10.638   5.524  10.120  0.6072  0.7070  0.8527
  962MOL0     H29865  10.460   5.502  10.111 -1.4729  1.9955  0.3664
  962MOL0     H29866  10.434   5.748  10.113  0.9396 -1.2299 -1.2528
  962MOL0     H29867  10.607   5.764  10.166  0.8506  0.5231 -0.2196
  962MOL0     H29868  10.413   5.623  10.515  0.9975  0.8530  1.0819
  962MOL0     H29869  10.730   5.298   9.698 -1.1227  1.0736  2.3495
  962MOL0     H29870  10.789   5.074   9.625 -1.6579 -1.6788 -0.4890
  963MOL0     O29871   7.435   0.113   9.111  0.2570 -0.2800 -0.4288
  963MOL0     C29872   7.341   0.053   9.158 -0.2854  0.5266  0.5096
  963MOL0     O29873   7.271  -0.040   9.087  0.6763 -0.9345  0.1302
  963MOL0     C29874   7.285  -0.050   8.953 -0.2275 -0.0976  0.7973
  963MOL0     C29875   7.277  -0.181   8.887  0.3140 -0.6155  0.0635
  963MOL0     C29876   7.268  -0.191   8.747  0.1374 -0.6623 -0.3277
  963MOL0     C29877   7.280  -0.079   8.665  0.3425 -1.0681  0.6895
  963MOL0     O29878   7.262  -0.088   8.530 -0.2127  0.4763 -0.4060
  963MOL0     C29879   7.144  -0.144   8.477  0.5746 -0.5820 -0.5956
  963MOL0     C29880   7.032  -0.040   8.467 -0.2628  0.4321 -0.2210
  963MOL0     C29881   7.065   0.072   8.366  0.4893  0.5184 -0.2965
  963MOL0     C29882   6.936   0.149   8.340  0.3886  0.2997 -0.9099
  963MOL0     C29883   6.970   0.273   8.257 -0.0610 -0.2710 -0.0046
  963MOL0     C29884   6.845   0.334   8.191  1.1681 -0.0885  0.7596
  963MOL0     C29885   6.801   0.266   8.048  0.4251  0.4065 -0.4338
  963MOL0     C29886   6.767   0.363   7.928  0.7429  0.1729 -1.3117
  963MOL0     N29887   6.869   0.462   7.904  0.3706 -0.2818  0.1509
  963MOL0     C29888   6.972   0.457   7.805  0.2829 -0.0470 -0.7225
  963MOL0     C29889   7.017   0.590   7.794 -0.2655  1.0092  0.2318
  963MOL0     C29890   7.119   0.645   7.705  0.9972  0.2679 -0.2352
  963MOL0     C29891   7.071   0.686   7.565 -0.3580  1.0955  0.8006
  963MOL0     C29892   6.960   0.797   7.572  0.7972  0.4478  0.2088
  963MOL0     C29893   6.983   0.935   7.634  0.0616  0.1218 -0.4812
  963MOL0     O29894   7.102   0.987   7.571 -0.2863  0.8162  0.2279
  963MOL0     C29895   7.145   1.107   7.639 -1.5885 -0.2209 -0.8975
  963MOL0     C29896   7.057   1.217   7.669 -0.4206  1.2023 -0.0653
  963MOL0     C29897   7.103   1.324   7.746 -0.9846  0.5066 -0.5291
  963MOL0     C29898   7.001   1.435   7.792 -0.0616  0.3414  0.4751
  963MOL0     C29899   7.244   1.339   7.773  0.5282 -0.6179 -0.0729
  963MOL0     C29900   7.305   1.446   7.849  0.3560 -1.3768 -1.9762
  963MOL0     O29901   7.226   1.502   7.951  0.3095 -0.1777  0.7486
  963MOL0     C29902   7.292   1.556   8.052  0.2388 -0.1337 -0.4286
  963MOL0     C29903   7.365   1.677   8.051 -1.3500 -0.2148  0.3903
  963MOL0     C29904   7.429   1.727   8.163  0.0795 -0.7574  0.0778
  963MOL0     C29905   7.421   1.658   8.289  0.2988 -0.0362  0.0061
  963MOL0     O29906   7.477   1.725   8.398 -0.0563  0.2221  0.0313
  963MOL0     C29907   7.473   1.668   8.530  0.5928 -0.8779 -0.3150
  963MOL0     C29908   7.347   1.697   8.616  0.0647 -0.2951  0.3300
  963MOL0     C29909   7.302   1.843   8.593  0.8976 -0.5590 -0.6098
  963MOL0     C29910   7.181   1.878   8.669 -0.1864  0.1262  0.1771
  963MOL0     C29911   7.199   1.894   8.822  0.1118 -0.5134  0.8967
  963MOL0     C29912   7.065   1.919   8.891  0.0399  0.1707  0.2369
  963MOL0     C29913   7.092   1.895   9.040 -0.7913  0.4613 -0.5304
  963MOL0     C29914   6.949   1.888   9.115 -0.6333 -0.7259 -0.4652
  963MOL0    Cl29915   6.877   2.058   9.111  0.1352  0.0848  0.4409
  963MOL0     C29916   7.359   1.533   8.292  0.4922  0.5307  0.3176
  963MOL0     C29917   7.286   1.484   8.176  0.4192 -0.4814 -0.7206
  963MOL0     O29918   7.420   1.484   7.818  0.0847  0.3757  0.1589
  963MOL0     C29919   7.327   1.226   7.737  0.0085 -0.4228 -0.5666
  963MOL0     C29920   7.280   1.110   7.682  0.2433  0.3026 -0.1680
  963MOL0     N29921   6.948   0.662   7.886  0.4873 -0.5995  0.0762
  963MOL0     N29922   6.863   0.588   7.945 -1.1632  0.4725 -1.3102
  963MOL0     C29923   7.295   0.042   8.725  0.0755 -0.3401 -0.4495
  963MOL0     C29924   7.298   0.051   8.868  0.2898 -1.2307 -0.2586
  963MOL0     C29925   7.298   0.081   9.302 -0.8396  0.7982  1.1829
  963MOL0     C29926   7.186   0.008   9.347  0.2558 -0.4397 -0.0834
  963MOL0     C29927   7.142   0.026   9.481  0.5310  0.3127 -0.1901
  963MOL0     C29928   7.196   0.126   9.561 -0.7962 -0.3873 -0.6426
  963MOL0     O29929   7.144   0.141   9.690 -0.1722 -0.1430 -0.0860
  963MOL0     C29930   7.221   0.203   9.794 -0.3463  0.4006 -0.4578
  963MOL0     C29931   7.165   0.341   9.833  0.5045  1.1032  0.1371
  963MOL0     C29932   7.142   0.456   9.730  0.8341  0.3593  0.0145
  963MOL0     C29933   7.060   0.575   9.778 -0.1280  0.0108 -1.0522
  963MOL0     C29934   6.953   0.550   9.870 -0.0264  0.4691 -0.3495
  963MOL0     C29935   6.849   0.541   9.927 -0.3316 -0.1641 -0.5654
  963MOL0     C29936   7.300   0.205   9.511 -0.4473  0.4461 -0.3288
  963MOL0     C29937   7.355   0.175   9.384  0.6235 -0.6766 -0.2775
  963MOL0     H29938   7.265  -0.268   8.951  1.8727  0.0961  1.4125
  963MOL0     H29939   7.269  -0.284   8.691 -0.2600 -1.5032  1.0359
  963MOL0     H29940   7.171  -0.166   8.373  1.4777  0.1486 -0.5319
  963MOL0     H29941   7.108  -0.233   8.529  0.7206 -1.3080 -1.6930
  963MOL0     H29942   6.940  -0.092   8.439 -1.4235  2.5050 -0.4859
  963MOL0     H29943   7.016   0.004   8.566 -0.9288  3.6066 -1.5953
  963MOL0     H29944   7.139   0.133   8.419 -0.5185 -0.2609  2.1769
  963MOL0     H29945   7.099   0.022   8.275 -2.2453  0.4943 -1.3860
  963MOL0     H29946   6.874   0.076   8.286  1.0375 -2.4741  1.7871
  963MOL0     H29947   6.873   0.159   8.429  1.2252 -3.3279  0.2942
  963MOL0     H29948   7.012   0.348   8.324  2.0168 -1.1898 -0.2156
  963MOL0     H29949   7.052   0.250   8.188  1.4335 -0.9781  1.9100
  963MOL0     H29950   6.769   0.314   8.268 -0.5884  4.2467  0.4746
  963MOL0     H29951   6.852   0.443   8.190  0.1067 -0.0060  0.2691
  963MOL0     H29952   6.864   0.184   8.012 -1.5105 -1.0805 -0.6121
  963MOL0     H29953   6.708   0.215   8.073 -0.3567  3.3504  3.5505
  963MOL0     H29954   6.670   0.412   7.942  0.6691  0.5458 -2.8895
  963MOL0     H29955   6.761   0.299   7.839 -3.2052 -3.3425  1.1283
  963MOL0     H29956   6.998   0.380   7.734 -1.0108  0.4579 -1.7878
  963MOL0     H29957   7.144   0.739   7.754  1.2649  1.4164 -2.4771
  963MOL0     H29958   7.198   0.569   7.696  0.7366 -0.0426  0.0750
  963MOL0     H29959   7.058   0.610   7.488  4.0409  1.1985 -0.3204
  963MOL0     H29960   7.150   0.748   7.521 -0.7599  0.5894 -0.6662
  963MOL0     H29961   6.882   0.742   7.625  0.6383  1.1005  0.6681
  963MOL0     H29962   6.917   0.810   7.472  0.2716 -0.4196  0.3195
  963MOL0     H29963   6.995   0.917   7.742 -1.5060  2.0172  0.0715
  963MOL0     H29964   6.889   0.986   7.612 -2.5084 -3.1918  1.6887
  963MOL0     H29965   6.950   1.218   7.651 -0.2827  0.0063 -1.1180
  963MOL0     H29966   6.941   1.398   7.875 -1.0991 -0.1920 -0.4795
  963MOL0     H29967   7.046   1.530   7.821  0.3978 -0.4785  2.5815
  963MOL0     H29968   6.933   1.465   7.711  0.0977  0.3531  0.3441
  963MOL0     H29969   7.364   1.741   7.963 -3.5570  0.6733  0.9899
  963MOL0     H29970   7.493   1.813   8.149 -0.4191 -0.2360  0.9095
  963MOL0     H29971   7.489   1.560   8.535  1.5698 -0.7160  0.4250
  963MOL0     H29972   7.554   1.718   8.585  0.4725 -3.0255  2.0427
  963MOL0     H29973   7.270   1.623   8.593  2.2265 -2.3961 -0.6586
  963MOL0     H29974   7.385   1.679   8.718  0.0880 -3.0620 -0.0897
  963MOL0     H29975   7.287   1.859   8.485 -4.4343 -0.9815 -0.1926
  963MOL0     H29976   7.382   1.911   8.624  2.1007 -1.3429 -1.8649
  963MOL0     H29977   7.153   1.977   8.632 -0.7206  0.0201  0.2894
  963MOL0     H29978   7.104   1.803   8.646  1.7023 -1.5054 -1.1957
  963MOL0     H29979   7.274   1.973   8.836 -1.4456  1.1157  0.3161
  963MOL0     H29980   7.247   1.803   8.860  1.3248  0.5819  2.1060
  963MOL0     H29981   7.023   2.018   8.875 -0.2960 -0.2330 -1.6626
  963MOL0     H29982   6.992   1.847   8.851  3.2226 -3.2799 -0.0245
  963MOL0     H29983   7.147   1.983   9.075  1.2916 -0.8647 -0.3154
  963MOL0     H29984   7.137   1.798   9.064 -0.3627  0.6328 -0.6394
  963MOL0     H29985   6.943   1.852   9.218 -0.4992 -1.9224 -0.8610
  963MOL0     H29986   6.884   1.824   9.054 -2.6378 -1.0076  1.8363
  963MOL0     H29987   7.359   1.468   8.379 -0.6539 -0.2361 -0.2213
  963MOL0     H29988   7.241   1.385   8.183 -1.5208  0.4694  1.6146
  963MOL0     H29989   7.433   1.229   7.763  0.0801 -0.5212 -0.8389
  963MOL0     H29990   7.349   1.027   7.669 -1.8707 -1.7111  0.8597
  963MOL0     H29991   7.303   0.134   8.668 -3.4257  1.3538  1.4610
  963MOL0     H29992   7.311   0.151   8.907  1.8076 -1.9175  1.1625
  963MOL0     H29993   7.133  -0.067   9.288  0.7961 -1.9916  1.3125
  963MOL0     H29994   7.073  -0.048   9.520  2.2502 -0.7938  0.8548
  963MOL0     H29995   7.221   0.129   9.874 -0.8596  1.0918  0.2096
  963MOL0     H29996   7.325   0.216   9.765  0.0684 -0.1805  0.7060
  963MOL0     H29997   7.243   0.374   9.902  1.1124 -1.1361  0.5850
  963MOL0     H29998   7.071   0.322   9.886  0.4224  0.1358 -0.3312
  963MOL0     H29999   7.086   0.412   9.648  0.1807 -0.0834  0.6850
  963MOL0     H30000   7.244   0.491   9.712  0.3943  0.7272 -2.0588
  963MOL0     H30001   7.017   0.624   9.690 -0.9057  1.1324 -0.0819
  963MOL0     H30002   7.125   0.654   9.819 -2.4190 -0.1607  3.5663
  963MOL0     H30003   6.759   0.522   9.982  1.6983 -4.5255  1.7531
  963MOL0     H30004   7.343   0.277   9.580 -2.6093  0.8211  0.7078
  963MOL0     H30005   7.445   0.230   9.359  0.8289 -0.9726 -0.2025
  964MOL0     O30006   7.442   5.246   9.221  0.5372 -0.7012  0.0782
  964MOL0     C30007   7.548   5.269   9.293 -0.2943 -0.5852  0.2702
  964MOL0     O30008   7.659   5.191   9.293 -0.7802 -0.0826 -0.8937
  964MOL0     C30009   7.665   5.100   9.191  0.2161 -0.3880  0.2148
  964MOL0     C30010   7.730   5.137   9.072  0.0012 -0.6007  0.0381
  964MOL0     C30011   7.735   5.049   8.967 -0.4732 -0.1267  0.1546
  964MOL0     C30012   7.679   4.923   8.981 -0.1108  0.0851  0.1605
  964MOL0     O30013   7.704   4.830   8.879  0.9715 -0.7893  0.0068
  964MOL0     C30014   7.663   4.868   8.747  0.0547 -1.0820 -0.6430
  964MOL0     C30015   7.781   4.859   8.654 -0.2992  0.7914  0.0777
  964MOL0     C30016   7.808   4.712   8.611 -0.2832  0.8841 -0.0257
  964MOL0     C30017   7.937   4.653   8.679  0.4089  0.1357 -0.2883
  964MOL0     C30018   7.976   4.520   8.608 -0.5597  0.2254 -0.5784
  964MOL0     C30019   8.089   4.432   8.673 -0.1015  0.1261  0.8891
  964MOL0     C30020   8.225   4.509   8.673 -0.1658 -0.0246  0.0717
  964MOL0     C30021   8.337   4.424   8.727 -0.2224  0.1648  0.7122
  964MOL0     N30022   8.307   4.359   8.852  0.6641 -0.2787  1.1799
  964MOL0     C30023   8.245   4.406   8.961  1.0264 -0.4165  0.5336
  964MOL0     C30024   8.245   4.310   9.051 -0.0669 -0.8166  0.3563
  964MOL0     C30025   8.199   4.320   9.189  0.2554  0.2735  0.1240
  964MOL0     C30026   8.311   4.310   9.293  0.2876  0.3376  0.2596
  964MOL0     C30027   8.252   4.358   9.418  0.0867  1.0464 -0.3757
  964MOL0     C30028   8.339   4.344   9.546 -0.8133 -0.3282 -1.2392
  964MOL0     O30029   8.278   4.409   9.650 -0.1816 -0.6335 -0.3772
  964MOL0     C30030   8.144   4.387   9.691 -1.0059 -0.4192 -0.5924
  964MOL0     C30031   8.083   4.254   9.673  0.1664  0.7322  0.4130
  964MOL0     C30032   7.958   4.223   9.716 -0.2332 -0.1466 -0.5349
  964MOL0     C30033   7.915   4.082   9.692 -0.7190 -0.3660 -0.4706
  964MOL0     C30034   7.882   4.323   9.774  0.2501 -0.4109 -0.2745
  964MOL0     C30035   7.731   4.312   9.793  0.0992  0.3891 -0.2518
  964MOL0     O30036   7.665   4.428   9.839  0.4001 -0.6505 -0.2877
  964MOL0     C30037   7.533   4.431   9.878 -0.8722 -0.7503 -0.5204
  964MOL0     C30038   7.498   4.468  10.002 -0.3506 -0.2418  0.2754
  964MOL0     C30039   7.360   4.484  10.036 -0.1701 -0.8302  0.2724
  964MOL0     C30040   7.262   4.465   9.932 -0.2434 -0.0905 -0.5139
  964MOL0     O30041   7.132   4.478   9.987 -0.6852 -0.3233 -0.2452
  964MOL0     C30042   7.028   4.539   9.914  0.9982 -0.2981  0.5858
  964MOL0     C30043   7.065   4.674   9.873  0.0737 -0.2675 -0.1455
  964MOL0     C30044   7.085   4.772   9.987  0.2080 -0.5980 -0.7506
  964MOL0     C30045   6.945   4.800  10.057 -0.6958  0.2687  0.3155
  964MOL0     C30046   6.933   4.930  10.134 -0.0961  0.1549 -1.4586
  964MOL0     C30047   6.873   5.038  10.038  0.2826  0.7506  0.0514
  964MOL0     C30048   6.857   5.176  10.098 -0.8156  0.4011  0.2353
  964MOL0     C30049   6.772   5.269  10.011 -0.1471 -0.6665 -0.1544
  964MOL0    Cl30050   6.873   5.290   9.862  0.3226 -0.7239 -0.0972
  964MOL0     C30051   7.293   4.434   9.802  0.2064  0.4748  0.8520
  964MOL0     C30052   7.434   4.417   9.776 -0.3342  0.2474 -0.4904
  964MOL0     O30053   7.674   4.208   9.763 -0.6919 -0.4536  0.4780
  964MOL0     C30054   7.940   4.457   9.789  0.2255 -0.6781  0.7070
  964MOL0     C30055   8.072   4.483   9.753  1.1016  0.3845  0.8992
  964MOL0     N30056   8.309   4.200   8.984  0.0306 -0.6702  0.6651
  964MOL0     N30057   8.342   4.228   8.868 -0.1114 -0.1383 -0.0463
  964MOL0     C30058   7.612   4.885   9.094 -0.4601 -0.4579 -0.1870
  964MOL0     C30059   7.609   4.975   9.201  0.3794  0.1061  0.0360
  964MOL0     C30060   7.555   5.389   9.367  0.2089 -0.4571  1.3174
  964MOL0     C30061   7.668   5.408   9.439  0.4465 -1.2140 -0.9592
  964MOL0     C30062   7.680   5.494   9.545 -0.6498 -0.7560  0.4232
  964MOL0     C30063   7.577   5.591   9.561  0.1970 -0.6390 -0.5505
  964MOL0     O30064   7.601   5.670   9.665  0.8441 -0.2129 -0.2369
  964MOL0     C30065   7.483   5.741   9.714  0.4194  0.0555  0.2532
  964MOL0     C30066   7.488   5.816   9.842  0.7421 -0.3975  0.2502
  964MOL0     C30067   7.501   5.729   9.966 -1.0188  0.4032 -0.4923
  964MOL0     C30068   7.550   5.812  10.082  0.5755 -0.0119 -0.2784
  964MOL0     C30069   7.583   5.731  10.200 -0.6169 -0.3844  0.2532
  964MOL0     C30070   7.626   5.667  10.290 -0.0818  0.3419  0.7708
  964MOL0     C30071   7.465   5.583   9.477  0.2827 -0.4169 -0.5211
  964MOL0     C30072   7.442   5.480   9.388  0.1256  0.4034 -0.5945
  964MOL0     H30073   7.771   5.237   9.060 -0.2686 -0.4756  0.1492
  964MOL0     H30074   7.777   5.076   8.871 -3.0502  1.4236 -0.6476
  964MOL0     H30075   7.575   4.810   8.717 -1.1804  0.4529 -0.1372
  964MOL0     H30076   7.630   4.973   8.747 -2.2339 -1.5236  4.4259
  964MOL0     H30077   7.763   4.921   8.565  1.4870  0.5976 -0.4572
  964MOL0     H30078   7.871   4.908   8.691  1.2033 -1.7743  0.0597
  964MOL0     H30079   7.719   4.652   8.636  0.2762  0.1058  0.1378
  964MOL0     H30080   7.825   4.705   8.503 -1.8177 -1.5863 -0.1830
  964MOL0     H30081   8.013   4.730   8.662  1.5990 -0.8641  0.3830
  964MOL0     H30082   7.930   4.633   8.786  1.0759  2.5014  0.2486
  964MOL0     H30083   7.882   4.464   8.604 -0.4507 -0.5329  3.2356
  964MOL0     H30084   7.999   4.549   8.505 -1.0993 -1.2084 -1.1328
  964MOL0     H30085   8.052   4.418   8.775 -1.2026 -0.1253  0.4658
  964MOL0     H30086   8.084   4.328   8.639  0.0956 -0.0835  1.4884
  964MOL0     H30087   8.251   4.544   8.573 -1.7186  3.5665  0.7869
  964MOL0     H30088   8.206   4.602   8.727  0.2875  0.2529 -0.2458
  964MOL0     H30089   8.415   4.496   8.754 -2.2390  2.5315  0.5966
  964MOL0     H30090   8.375   4.358   8.649 -0.8986 -0.4536  0.8930
  964MOL0     H30091   8.210   4.508   8.977  0.9918 -0.4612  0.7514
  964MOL0     H30092   8.140   4.411   9.201  1.5642  0.9465  1.8403
  964MOL0     H30093   8.132   4.236   9.210 -0.4792  0.3592 -1.6985
  964MOL0     H30094   8.402   4.369   9.277  2.1190 -1.3303  3.4723
  964MOL0     H30095   8.359   4.212   9.304  0.6758  0.5595  0.6048
  964MOL0     H30096   8.171   4.289   9.443  0.0220  1.9520  2.2515
  964MOL0     H30097   8.204   4.455   9.400  1.0946  2.1392  2.3093
  964MOL0     H30098   8.435   4.396   9.537 -2.4248  2.8831 -1.3488
  964MOL0     H30099   8.369   4.239   9.559 -3.1823 -1.3102 -2.9800
  964MOL0     H30100   8.126   4.173   9.615 -4.5639 -0.2223 -2.3277
  964MOL0     H30101   8.001   4.014   9.690 -0.4398 -0.0265 -0.1091
  964MOL0     H30102   7.852   4.049   9.775  1.4164 -0.1668  1.3167
  964MOL0     H30103   7.863   4.085   9.596  0.5796  1.3481 -1.1702
  964MOL0     H30104   7.562   4.464  10.090 -0.0273  0.1316  0.0541
  964MOL0     H30105   7.333   4.501  10.139  2.2301  2.7877  0.4736
  964MOL0     H30106   7.008   4.475   9.827 -0.6867  0.5803  0.2946
  964MOL0     H30107   6.940   4.549   9.979 -2.2684  2.4296 -3.7353
  964MOL0     H30108   7.150   4.670   9.804  1.3313 -1.0426  1.3942
  964MOL0     H30109   6.988   4.726   9.814  1.1435  0.7034 -0.7217
  964MOL0     H30110   7.120   4.873   9.963 -1.7832  0.4839  0.5550
  964MOL0     H30111   7.147   4.729  10.065 -4.8413 -4.1893  1.8398
  964MOL0     H30112   6.863   4.776   9.989 -1.0061 -0.8491  1.0560
  964MOL0     H30113   6.940   4.712  10.121  2.5526 -0.0827  0.2228
  964MOL0     H30114   7.033   4.952  10.173 -0.3221 -1.2554  0.0143
  964MOL0     H30115   6.873   4.915  10.224  3.3293 -1.4084  0.7778
  964MOL0     H30116   6.929   5.040   9.945  0.1907 -1.8524 -0.1495
  964MOL0     H30117   6.771   5.012  10.007  0.0213  1.3271  0.4107
  964MOL0     H30118   6.956   5.218  10.119 -0.9268 -0.4207  2.7131
  964MOL0     H30119   6.813   5.164  10.198  0.2161 -4.7097  0.3499
  964MOL0     H30120   6.770   5.368  10.057  2.2593 -1.7621  2.6622
  964MOL0     H30121   6.668   5.241   9.993 -0.6619 -1.0099  2.8938
  964MOL0     H30122   7.222   4.430   9.720  0.6191  0.3694  0.4921
  964MOL0     H30123   7.481   4.384   9.683  1.3530 -2.3687  1.1664
  964MOL0     H30124   7.882   4.542   9.823 -1.9855 -1.8198 -0.0104
  964MOL0     H30125   8.128   4.575   9.767 -0.4609  1.4090  0.7371
  964MOL0     H30126   7.554   4.794   9.100 -0.5965 -0.5453 -2.1739
  964MOL0     H30127   7.565   4.962   9.300 -0.2840  3.0445  0.2146
  964MOL0     H30128   7.758   5.350   9.421  1.9928  1.3271 -1.8651
  964MOL0     H30129   7.769   5.483   9.606  2.8210  1.2465 -3.7703
  964MOL0     H30130   7.452   5.807   9.632 -0.9155 -1.9979 -0.9912
  964MOL0     H30131   7.399   5.672   9.725 -1.0116  1.5404 -0.9390
  964MOL0     H30132   7.396   5.874   9.846 -0.0421 -1.5086 -0.8951
  964MOL0     H30133   7.575   5.882   9.833  1.7822 -1.6952  0.3377
  964MOL0     H30134   7.579   5.655   9.946 -0.3261  1.1897 -0.7743
  964MOL0     H30135   7.406   5.684   9.994 -0.1987 -1.1652 -0.1021
  964MOL0     H30136   7.478   5.890  10.106  0.7596 -0.5045  2.0710
  964MOL0     H30137   7.640   5.870  10.059  1.7783  0.3032  4.2533
  964MOL0     H30138   7.674   5.600  10.359  2.6106  1.3472  0.0339
  964MOL0     H30139   7.371   5.634   9.493 -1.1109 -2.4812 -1.5699
  964MOL0     H30140   7.339   5.454   9.366 -0.7402  0.6044  2.7234
  965MOL0     O30141   0.028   5.879   8.044 -0.6481  0.8802  0.1069
  965MOL0     C30142  -0.032   5.920   8.136 -0.7539 -0.0679 -0.9408
  965MOL0     O30143  -0.161   5.914   8.152  0.5459  0.2938  0.7342
  965MOL0     C30144  -0.249   5.837   8.071  0.3790 -0.1875  1.4264
  965MOL0     C30145  -0.231   5.704   8.029 -0.5629  0.2480  0.3524
  965MOL0     C30146  -0.323   5.632   7.953  0.3690 -0.8881 -0.5975
  965MOL0     C30147  -0.447   5.693   7.926  0.7032  0.7655  1.0512
  965MOL0     O30148  -0.531   5.627   7.835 -0.0163 -0.9303 -0.5345
  965MOL0     C30149  -0.643   5.687   7.768  0.2537  0.9898  0.4607
  965MOL0     C30150  -0.721   5.581   7.690  0.5668 -0.0543 -1.4769
  965MOL0     C30151  -0.649   5.537   7.561 -0.3807  0.0491  0.0365
  965MOL0     C30152  -0.726   5.415   7.497 -0.6779  0.3072  0.6794
  965MOL0     C30153  -0.639   5.343   7.396 -0.4626  0.4274 -0.0189
  965MOL0     C30154  -0.699   5.211   7.346  0.5079 -0.2411  0.5341
  965MOL0     C30155  -0.591   5.137   7.267  0.3591 -0.0068  0.7324
  965MOL0     C30156  -0.556   5.208   7.131 -0.2399 -0.5987 -0.2042
  965MOL0     N30157  -0.564   5.105   7.022 -0.3446  0.1672  0.2061
  965MOL0     C30158  -0.460   5.033   6.983 -0.7746  0.3132 -0.8128
  965MOL0     C30159  -0.506   4.956   6.883  0.4103  0.3243  0.1159
  965MOL0     C30160  -0.425   4.861   6.797  0.5410 -0.0662  0.0573
  965MOL0     C30161  -0.393   4.940   6.665  0.9679  0.7024 -0.7631
  965MOL0     C30162  -0.325   4.859   6.562  0.3203 -0.0460 -0.1543
  965MOL0     C30163  -0.201   4.781   6.630 -0.2431 -0.3006 -0.5359
  965MOL0     O30164  -0.119   4.866   6.710 -0.1930  0.9379  0.9587
  965MOL0     C30165   0.016   4.850   6.691 -0.5454 -0.6657  0.6944
  965MOL0     C30166   0.094   4.963   6.713 -0.3238 -0.6188 -0.2819
  965MOL0     C30167   0.232   4.953   6.699 -0.9511  0.2370 -0.1566
  965MOL0     C30168   0.318   5.076   6.715 -0.1931  1.3159 -0.6368
  965MOL0     C30169   0.292   4.826   6.684  0.1563  0.6759 -0.1781
  965MOL0     C30170   0.438   4.795   6.682  0.8149 -1.3512  0.2662
  965MOL0     O30171   0.512   4.859   6.585  0.2915 -0.6141  0.5240
  965MOL0     C30172   0.652   4.847   6.578  0.6049 -0.4974 -0.7343
  965MOL0     C30173   0.723   4.725   6.600 -0.1267 -0.0381 -0.9157
  965MOL0     C30174   0.864   4.722   6.585 -0.1347 -0.3067  0.1008
  965MOL0     C30175   0.930   4.841   6.543 -0.4679 -0.3464  0.1517
  965MOL0     O30176   1.069   4.849   6.510 -0.2023 -0.1755  0.7014
  965MOL0     C30177   1.160   4.749   6.553  0.1788  0.2757 -0.8458
  965MOL0     C30178   1.298   4.797   6.512  0.1051 -0.4983 -0.5290
  965MOL0     C30179   1.373   4.863   6.626 -0.1931 -0.5297  0.0356
  965MOL0     C30180   1.311   4.994   6.654 -0.7586  0.0801  0.1940
  965MOL0     C30181   1.403   5.074   6.745 -0.6715 -0.2472  0.0597
  965MOL0     C30182   1.471   4.987   6.866 -0.3494  0.3273  0.2730
  965MOL0     C30183   1.574   5.089   6.938  0.1836 -0.6877  0.3878
  965MOL0     C30184   1.621   5.052   7.070 -0.6851 -0.1002 -0.0883
  965MOL0    Cl30185   1.498   4.958   7.146  0.3038 -0.4008 -0.4987
  965MOL0     C30186   0.854   4.958   6.528  0.2158 -0.9362  0.2068
  965MOL0     C30187   0.721   4.968   6.550 -0.5696 -0.5062 -0.1047
  965MOL0     O30188   0.476   4.707   6.759  0.4018  0.0706 -0.0369
  965MOL0     C30189   0.209   4.713   6.666 -0.2072 -0.3918  0.1072
  965MOL0     C30190   0.068   4.717   6.676 -0.1839 -0.1886  0.2406
  965MOL0     N30191  -0.640   4.974   6.875 -0.4490  0.2176 -0.1335
  965MOL0     N30192  -0.673   5.071   6.953 -0.0335 -0.3861  0.3058
  965MOL0     C30193  -0.480   5.810   7.996  0.0296  0.7449  1.1367
  965MOL0     C30194  -0.381   5.885   8.061  1.1584  0.4412  0.4134
  965MOL0     C30195   0.037   5.997   8.232  0.0428 -1.0106 -0.1434
  965MOL0     C30196   0.175   5.970   8.266 -1.1284 -0.3959  0.0631
  965MOL0     C30197   0.235   6.066   8.351  0.2376  0.3379 -0.6090
  965MOL0     C30198   0.176   6.177   8.406  0.7122  0.0962 -0.0454
  965MOL0     O30199   0.250   6.263   8.487  0.7528  0.7526 -0.3471
  965MOL0     C30200   0.188   6.392   8.528 -0.2723  0.3435  0.3483
  965MOL0     C30201   0.202   6.480   8.406 -0.0013 -0.8122  0.5122
  965MOL0     C30202   0.339   6.472   8.321  0.3140 -0.1108  0.1826
  965MOL0     C30203   0.343   6.596   8.228 -0.1373 -0.2409  0.2378
  965MOL0     C30204   0.482   6.624   8.188  0.3562 -0.4238 -0.4257
  965MOL0     C30205   0.590   6.631   8.152 -0.5275 -1.0589 -0.4599
  965MOL0     C30206   0.036   6.195   8.379  1.6579 -0.7845  0.0976
  965MOL0     C30207  -0.021   6.110   8.286  0.0349  0.7324  0.1069
  965MOL0     H30208  -0.132   5.664   8.045  0.2372  2.0653  0.1669
  965MOL0     H30209  -0.302   5.530   7.922  1.6873 -2.1145  3.5892
  965MOL0     H30210  -0.711   5.758   7.816 -3.1818 -0.4827 -1.8201
  965MOL0     H30211  -0.601   5.748   7.688 -3.1021  0.4148 -1.9820
  965MOL0     H30212  -0.726   5.507   7.770  1.2626  1.9825  0.5597
  965MOL0     H30213  -0.825   5.611   7.675  0.9815  0.9957 -2.3763
  965MOL0     H30214  -0.644   5.618   7.488  1.3064  0.6197  0.7185
  965MOL0     H30215  -0.546   5.505   7.582 -0.1021  0.4429 -0.6963
  965MOL0     H30216  -0.768   5.343   7.569  0.1659 -0.0942  0.7807
  965MOL0     H30217  -0.809   5.459   7.441  0.2468  3.2847  1.5199
  965MOL0     H30218  -0.628   5.409   7.310 -0.1160 -0.6522 -0.8291
  965MOL0     H30219  -0.541   5.317   7.438 -1.6090 -1.0757  1.9197
  965MOL0     H30220  -0.727   5.152   7.434 -1.2936  0.3807  0.4114
  965MOL0     H30221  -0.791   5.219   7.287  1.1664  0.7249 -0.4089
  965MOL0     H30222  -0.503   5.133   7.333 -0.1766  2.4251  1.6934
  965MOL0     H30223  -0.624   5.032   7.263  1.2574 -0.4209  2.7220
  965MOL0     H30224  -0.459   5.258   7.127 -0.6876  0.1932 -1.8850
  965MOL0     H30225  -0.639   5.279   7.118  0.5033  0.4657  0.6512
  965MOL0     H30226  -0.356   5.036   7.011 -0.6885 -2.4179 -0.5183
  965MOL0     H30227  -0.329   4.826   6.836 -0.2106 -1.8943  0.3382
  965MOL0     H30228  -0.487   4.772   6.785  0.3638  0.0021  0.4565
  965MOL0     H30229  -0.329   5.016   6.711  0.8780  0.1551  0.2941
  965MOL0     H30230  -0.480   4.990   6.622  3.1291  1.5559 -4.6362
  965MOL0     H30231  -0.295   4.919   6.476 -1.2082 -1.9552 -2.1322
  965MOL0     H30232  -0.394   4.779   6.533  0.1310  0.1018 -0.1096
  965MOL0     H30233  -0.139   4.744   6.547  2.7231  0.3810  1.2203
  965MOL0     H30234  -0.235   4.692   6.684  1.6491 -0.5020  0.3994
  965MOL0     H30235   0.035   5.045   6.752 -0.7040 -2.7041  4.2134
  965MOL0     H30236   0.342   5.126   6.620  3.2455 -0.3266 -0.7730
  965MOL0     H30237   0.274   5.149   6.784  1.6411  2.8500 -0.9940
  965MOL0     H30238   0.411   5.048   6.765 -0.2219  1.7418 -0.3340
  965MOL0     H30239   0.672   4.632   6.622  1.0489 -0.5783 -0.3820
  965MOL0     H30240   0.922   4.631   6.593  0.1627 -0.3984 -2.2554
  965MOL0     H30241   1.154   4.737   6.662 -1.0969 -0.0520 -0.9311
  965MOL0     H30242   1.123   4.656   6.510  2.1068 -1.4002  0.8644
  965MOL0     H30243   1.354   4.705   6.492 -0.3097 -0.8692 -0.0193
  965MOL0     H30244   1.281   4.863   6.427  0.2871 -1.7478 -1.5797
  965MOL0     H30245   1.480   4.866   6.603 -0.3325  0.1990 -0.5782
  965MOL0     H30246   1.369   4.798   6.714 -0.5090 -2.0285 -1.0409
  965MOL0     H30247   1.299   5.050   6.560  1.0624  2.3136  1.1798
  965MOL0     H30248   1.216   4.988   6.708  0.0617 -1.4438  1.5429
  965MOL0     H30249   1.349   5.160   6.784  0.0592  0.4649 -0.4679
  965MOL0     H30250   1.491   5.103   6.687 -0.2913 -1.1232  0.1830
  965MOL0     H30251   1.403   4.920   6.920  1.4744 -2.2712 -0.5130
  965MOL0     H30252   1.527   4.909   6.815  0.7703  1.5687 -0.4418
  965MOL0     H30253   1.520   5.184   6.942  0.4565 -0.4708 -0.8049
  965MOL0     H30254   1.655   5.115   6.869 -0.9195  2.1551  0.0508
  965MOL0     H30255   1.642   5.137   7.135 -0.2255 -0.6455  0.5020
  965MOL0     H30256   1.715   4.998   7.055 -1.4883 -1.1779 -1.4566
  965MOL0     H30257   0.915   5.044   6.502 -0.4743  0.1861  2.1235
  965MOL0     H30258   0.676   5.063   6.526  1.6276  0.1109 -2.1863
  965MOL0     H30259   0.257   4.616   6.659 -3.6362 -2.3712  1.7149
  965MOL0     H30260   0.005   4.628   6.677 -2.7723  1.5183  1.5099
  965MOL0     H30261  -0.583   5.845   7.998 -0.3455  0.0258 -1.5090
  965MOL0     H30262  -0.418   5.968   8.121  2.8559  1.8508 -0.3857
  965MOL0     H30263   0.236   5.901   8.208  2.0774  0.2984  2.3923
  965MOL0     H30264   0.341   6.051   8.365  0.3143  1.7443  0.5750
  965MOL0     H30265   0.085   6.376   8.564 -1.5245 -1.9212 -3.6267
  965MOL0     H30266   0.253   6.425   8.609 -0.5110  1.6818  0.0316
  965MOL0     H30267   0.178   6.584   8.430 -2.4165 -1.0409 -0.5496
  965MOL0     H30268   0.115   6.452   8.344  1.8257  1.2421 -3.3028
  965MOL0     H30269   0.369   6.379   8.271 -0.1887 -1.4846  2.3195
  965MOL0     H30270   0.417   6.486   8.396  0.8195 -0.1742 -0.3278
  965MOL0     H30271   0.301   6.690   8.264  1.8051 -0.1148  2.4539
  965MOL0     H30272   0.281   6.579   8.140  2.0334 -2.1178 -1.0568
  965MOL0     H30273   0.693   6.655   8.132 -0.6959 -0.2939 -0.4591
  965MOL0     H30274  -0.019   6.286   8.403 -0.4393 -0.9405 -3.3943
  965MOL0     H30275  -0.129   6.118   8.275  0.2601  2.4258 -1.0716
  966MOL0     O30276   3.778  10.586   1.260 -0.3500 -0.3764 -0.3432
  966MOL0     C30277   3.735  10.487   1.315 -0.9745  0.3777  0.1210
  966MOL0     O30278   3.626  10.409   1.274  0.4273  0.3850  0.2796
  966MOL0     C30279   3.546  10.435   1.164  0.4427 -0.0263 -0.0976
  966MOL0     C30280   3.475  10.558   1.151  0.8426 -0.5138  0.5500
  966MOL0     C30281   3.403  10.589   1.031 -0.5223 -0.7030 -0.5397
  966MOL0     C30282   3.395  10.501   0.926 -0.2185 -0.1108 -0.0482
  966MOL0     O30283   3.329  10.543   0.813 -0.1176 -1.2465 -0.0341
  966MOL0     C30284   3.284  10.452   0.714 -0.2241 -0.2317 -0.2190
  966MOL0     C30285   3.212  10.531   0.602 -0.3282  0.5644 -0.2018
  966MOL0     C30286   3.065  10.574   0.628  0.6339 -0.0403 -0.8276
  966MOL0     C30287   3.041  10.617   0.775  0.4640 -0.6343  0.4035
  966MOL0     C30288   2.898  10.661   0.813 -1.1860 -0.5564 -0.8222
  966MOL0     C30289   2.792  10.545   0.798  0.3587 -0.0496  0.5396
  966MOL0     C30290   2.658  10.578   0.855  0.5261 -0.7133  0.3164
  966MOL0     C30291   2.670  10.612   1.006  0.9801 -0.8735 -0.5641
  966MOL0     N30292   2.710  10.507   1.094  0.1408  0.9959  0.0806
  966MOL0     C30293   2.682  10.496   1.234  0.0281 -0.2252 -0.3169
  966MOL0     C30294   2.728  10.376   1.272 -0.5486  0.4533  0.8497
  966MOL0     C30295   2.732  10.320   1.419 -1.2632 -0.2206  0.1855
  966MOL0     C30296   2.596  10.323   1.491 -0.4178  0.4166  0.0060
  966MOL0     C30297   2.487  10.230   1.435  1.0202 -0.7291  0.5679
  966MOL0     C30298   2.432  10.273   1.290  0.6472 -1.2258 -0.5573
  966MOL0     O30299   2.392  10.415   1.301  0.3821  0.2486 -0.4912
  966MOL0     C30300   2.359  10.487   1.191 -1.0548  0.0237  0.6360
  966MOL0     C30301   2.326  10.615   1.227 -0.8173 -0.9958  0.5316
  966MOL0     C30302   2.273  10.705   1.120  0.4112 -0.3092 -0.0851
  966MOL0     C30303   2.208  10.834   1.169 -0.7668  0.2670  0.1296
  966MOL0     C30304   2.284  10.669   0.990 -0.0146 -0.0798 -0.6911
  966MOL0     C30305   2.285  10.770   0.879  0.6847 -1.3542  0.2232
  966MOL0     O30306   2.298  10.719   0.756 -0.0492  0.5243 -0.0320
  966MOL0     C30307   2.310  10.801   0.647 -0.5429 -0.3873 -0.2859
  966MOL0     C30308   2.198  10.881   0.614  0.6470  0.1378  0.3507
  966MOL0     C30309   2.208  10.953   0.484 -0.1418 -0.0719  0.3186
  966MOL0     C30310   2.322  10.942   0.406  0.8024  0.3012  0.6175
  966MOL0     O30311   2.332  11.018   0.293 -0.0870 -0.2666  0.6083
  966MOL0     C30312   2.347  10.940   0.171 -0.2998  0.0301 -0.0657
  966MOL0     C30313   2.341  11.028   0.049 -0.1307 -0.6270  0.2588
  966MOL0     C30314   2.195  11.039   0.003 -0.6116  0.2509 -0.5888
  966MOL0     C30315   2.181  11.153  -0.100 -0.2912 -0.2063 -0.5101
  966MOL0     C30316   2.210  11.108  -0.242 -0.9521  0.1224 -0.6907
  966MOL0     C30317   2.203  11.216  -0.353 -0.2195 -0.4615  0.6985
  966MOL0     C30318   2.198  11.162  -0.494 -0.3297  0.9016  0.2966
  966MOL0     C30319   2.126  11.247  -0.599 -0.3250  0.0303  0.1011
  966MOL0    Cl30320   2.226  11.392  -0.644 -0.5026 -0.2348  0.6593
  966MOL0     C30321   2.425  10.863   0.445  1.1084 -0.3749 -0.7238
  966MOL0     C30322   2.419  10.790   0.564  0.1146  0.1572  0.2979
  966MOL0     O30323   2.273  10.896   0.907 -0.4301 -0.8376 -0.1652
  966MOL0     C30324   2.322  10.531   0.961 -0.5216  0.4676  0.0504
  966MOL0     C30325   2.353  10.442   1.058 -0.2127  0.0916 -0.0990
  966MOL0     N30326   2.759  10.308   1.157 -0.6662 -0.1537  0.2826
  966MOL0     N30327   2.758  10.386   1.053  1.0167 -0.8362  0.5781
  966MOL0     C30328   3.479  10.386   0.931 -0.1157  0.8978 -0.6542
  966MOL0     C30329   3.541  10.347   1.050 -0.7192  1.4387 -0.7688
  966MOL0     C30330   3.794  10.441   1.443  0.7458 -0.9792  0.6357
  966MOL0     C30331   3.720  10.343   1.514  0.1406 -0.2183  0.3863
  966MOL0     C30332   3.778  10.287   1.632 -0.5888  1.3956  0.2305
  966MOL0     C30333   3.892  10.344   1.693  0.2515 -0.3953  0.1281
  966MOL0     O30334   3.921  10.290   1.815 -0.5877 -0.4651  0.3874
  966MOL0     C30335   4.054  10.316   1.866 -0.1572 -1.0600  0.2887
  966MOL0     C30336   4.047  10.260   2.010  0.5601 -0.2426 -0.2462
  966MOL0     C30337   4.016  10.102   2.007 -0.3956 -0.1703 -0.5020
  966MOL0     C30338   4.136  10.018   1.961 -0.2808 -0.1676  0.9763
  966MOL0     C30339   4.099   9.893   1.886  0.5193 -0.0321  0.0332
  966MOL0     C30340   4.070   9.812   1.804  0.4178  0.6145 -0.2178
  966MOL0     C30341   3.957  10.446   1.621  0.5612  0.1576 -0.2260
  966MOL0     C30342   3.915  10.500   1.497 -0.5063 -0.8388 -1.1623
  966MOL0     H30343   3.470  10.632   1.230  1.7062 -2.1351  2.2091
  966MOL0     H30344   3.363  10.689   1.020  1.3788  0.0771 -0.7902
  966MOL0     H30345   3.370  10.404   0.667  0.2057  0.5713 -0.2714
  966MOL0     H30346   3.221  10.373   0.757 -3.2100  3.0597  2.0387
  966MOL0     H30347   3.271  10.620   0.577 -1.6632  1.3776 -0.5767
  966MOL0     H30348   3.202  10.472   0.511 -2.3450  0.9728 -0.2867
  966MOL0     H30349   3.041  10.660   0.565  3.6395  0.2855 -1.6671
  966MOL0     H30350   2.997  10.490   0.609 -0.9939  0.8691  0.7248
  966MOL0     H30351   3.074  10.534   0.838  0.1361 -2.2883 -1.4985
  966MOL0     H30352   3.113  10.695   0.803 -1.1111  1.9220 -2.1937
  966MOL0     H30353   2.906  10.716   0.907 -3.2617  1.3643 -1.6510
  966MOL0     H30354   2.873  10.746   0.749  1.8313  0.7270 -0.4298
  966MOL0     H30355   2.784  10.531   0.690  4.2751 -3.9032  0.4886
  966MOL0     H30356   2.832  10.449   0.831 -0.2121 -0.3909  0.2553
  966MOL0     H30357   2.626  10.664   0.796  0.0408 -2.0374 -1.4423
  966MOL0     H30358   2.583  10.504   0.827 -0.4394 -0.4322  2.0198
  966MOL0     H30359   2.574  10.652   1.037  1.7351 -1.2443  2.5356
  966MOL0     H30360   2.735  10.699   1.021  1.7178 -1.7695  2.0597
  966MOL0     H30361   2.649  10.578   1.298 -2.1633 -0.5287 -0.9655
  966MOL0     H30362   2.759  10.215   1.409  0.6723  0.0853  1.4993
  966MOL0     H30363   2.809  10.373   1.477 -1.4752 -1.2852  1.4818
  966MOL0     H30364   2.572  10.430   1.483 -2.8432 -0.1789 -2.3045
  966MOL0     H30365   2.611  10.287   1.593 -0.5383 -0.0890 -0.1501
  966MOL0     H30366   2.403  10.222   1.505 -2.4164  0.9839 -2.9001
  966MOL0     H30367   2.521  10.127   1.422 -1.7136 -1.5098 -1.2796
  966MOL0     H30368   2.344  10.220   1.252 -0.0106 -1.2340  0.8841
  966MOL0     H30369   2.506  10.262   1.211  0.6528  1.9725 -1.1205
  966MOL0     H30370   2.331  10.650   1.329  2.2359  4.3541 -1.0667
  966MOL0     H30371   2.288  10.909   1.172  0.5429 -1.0850  0.2871
  966MOL0     H30372   2.121  10.850   1.105 -1.7469 -3.3353  0.3437
  966MOL0     H30373   2.178  10.820   1.273 -0.4093  1.7669  0.4578
  966MOL0     H30374   2.111  10.884   0.679 -2.6034 -1.6450 -3.5004
  966MOL0     H30375   2.138  11.034   0.463  0.4562  0.9512  2.0481
  966MOL0     H30376   2.431  10.870   0.174 -0.6332 -0.3398  2.4478
  966MOL0     H30377   2.264  10.869   0.167  1.0794 -1.6858  0.6356
  966MOL0     H30378   2.373  11.130   0.073  2.0169 -1.0141 -0.7216
  966MOL0     H30379   2.409  10.994  -0.030 -0.9962  1.8923 -1.7091
  966MOL0     H30380   2.122  11.045   0.085 -1.0314 -0.4219 -0.8959
  966MOL0     H30381   2.167  10.940  -0.034  1.2049 -0.6917  0.4005
  966MOL0     H30382   2.079  11.187  -0.082 -0.0003 -0.0070  0.9022
  966MOL0     H30383   2.243  11.239  -0.075 -1.0105  0.5912 -1.4105
  966MOL0     H30384   2.136  11.030  -0.257  0.6762 -1.9936  1.4669
  966MOL0     H30385   2.305  11.054  -0.252 -1.1804  0.0221 -2.9658
  966MOL0     H30386   2.107  11.267  -0.339  0.7763  1.8316 -0.3490
  966MOL0     H30387   2.289  11.282  -0.339  3.9044 -4.3612 -3.0065
  966MOL0     H30388   2.153  11.063  -0.477  0.2399  0.7012  0.6698
  966MOL0     H30389   2.304  11.147  -0.519 -0.5799 -2.1640  0.6320
  966MOL0     H30390   2.027  11.275  -0.563 -0.2848  0.4727 -0.1242
  966MOL0     H30391   2.114  11.193  -0.694 -2.8263 -1.4624  1.1645
  966MOL0     H30392   2.516  10.856   0.387  2.1392  0.1435  0.7446
  966MOL0     H30393   2.514  10.746   0.591  0.2184  0.8435  1.0750
  966MOL0     H30394   2.348  10.496   0.861  2.1304  3.4776 -0.4635
  966MOL0     H30395   2.377  10.338   1.040 -2.1464 -0.4101 -0.0479
  966MOL0     H30396   3.492  10.331   0.838  1.1949  0.8591 -0.4643
  966MOL0     H30397   3.594  10.252   1.046 -0.5471  1.4079  1.2168
  966MOL0     H30398   3.622  10.312   1.479  1.0866 -0.4669 -2.3195
  966MOL0     H30399   3.716  10.216   1.686  0.4046  1.3875  1.3787
  966MOL0     H30400   4.132  10.260   1.814  3.4670  0.5701  3.5180
  966MOL0     H30401   4.092  10.418   1.856 -3.0161 -0.0542 -1.4866
  966MOL0     H30402   3.961  10.301   2.064 -0.3903 -2.8319  0.3915
  966MOL0     H30403   4.140  10.291   2.058 -0.5801  2.3001  0.4778
  966MOL0     H30404   3.927  10.086   1.946 -1.8929  2.9902  0.6194
  966MOL0     H30405   4.000  10.072   2.110  0.4567 -4.0795 -1.3546
  966MOL0     H30406   4.213   9.988   2.033  2.5483 -1.3897 -2.2874
  966MOL0     H30407   4.195  10.076   1.890 -3.2558  0.0322 -1.5631
  966MOL0     H30408   4.040   9.747   1.724 -0.8201 -1.0387  1.4855
  966MOL0     H30409   4.029  10.506   1.677 -0.6431  0.5288  0.9986
  966MOL0     H30410   3.967  10.579   1.443 -1.7888 -0.1204 -1.4044
  967MOL0     O30411   9.105   9.607   6.221  0.2123  0.3026 -0.6864
  967MOL0     C30412   9.070   9.506   6.163 -1.2836 -0.7774 -0.3113
  967MOL0     O30413   9.083   9.385   6.214  0.4019  0.0623 -0.0397
  967MOL0     C30414   9.166   9.368   6.323  0.8599 -0.5622 -0.3389
  967MOL0     C30415   9.260   9.268   6.315 -0.1902 -0.9567 -0.3462
  967MOL0     C30416   9.344   9.242   6.426  0.3391  0.7218 -0.6143
  967MOL0     C30417   9.322   9.307   6.552  0.0004  0.0661 -0.1658
  967MOL0     O30418   9.426   9.283   6.648  0.7516 -0.6479 -0.2562
  967MOL0     C30419   9.378   9.302   6.787 -0.8560  1.2658  0.5032
  967MOL0     C30420   9.502   9.260   6.874 -0.3116 -0.4682  0.7741
  967MOL0     C30421   9.622   9.354   6.856  0.3239 -0.0109  0.2633
  967MOL0     C30422   9.710   9.326   6.980 -0.2519 -1.2750 -1.0365
  967MOL0     C30423   9.841   9.396   6.963 -0.5975 -0.7932 -0.2056
  967MOL0     C30424   9.839   9.547   6.984 -0.4220 -0.1805 -1.3423
  967MOL0     C30425   9.983   9.608   6.970 -0.3121  0.0489  0.3950
  967MOL0     C30426  10.016   9.695   6.847 -0.0498  0.0585  0.1090
  967MOL0     N30427  10.016   9.632   6.719 -0.2725 -0.3508 -0.0018
  967MOL0     C30428   9.918   9.561   6.652  0.7981 -0.2299  0.4126
  967MOL0     C30429   9.981   9.494   6.543 -0.3548  0.1678  0.4243
  967MOL0     C30430   9.927   9.393   6.447 -0.1574 -1.1765  0.7868
  967MOL0     C30431   9.775   9.402   6.431  1.5907  0.3358  0.5343
  967MOL0     C30432   9.724   9.322   6.310  0.6487 -0.1580  0.8890
  967MOL0     C30433   9.772   9.179   6.306 -0.2180 -0.1198  0.1328
  967MOL0     O30434   9.706   9.098   6.406  0.6934  0.1386 -0.8514
  967MOL0     C30435   9.696   8.961   6.397  0.5942 -0.2231  0.3142
  967MOL0     C30436   9.803   8.882   6.349  0.2544  1.0817  0.3021
  967MOL0     C30437   9.793   8.739   6.355  0.5565  0.4394  0.7660
  967MOL0     C30438   9.917   8.661   6.313  0.5523 -1.1666 -0.4231
  967MOL0     C30439   9.669   8.680   6.383 -0.2064  1.0063  0.9235
  967MOL0     C30440   9.634   8.541   6.367  0.6017  0.1939  0.2801
  967MOL0     O30441   9.545   8.497   6.464  0.7084  0.5696 -0.2713
  967MOL0     C30442   9.511   8.363   6.469  1.1466  0.4758  0.0369
  967MOL0     C30443   9.378   8.314   6.474 -0.1444  0.5191  0.1340
  967MOL0     C30444   9.352   8.185   6.490 -0.3214 -0.1197  0.0037
  967MOL0     C30445   9.452   8.083   6.492 -0.3112  0.3293  0.2843
  967MOL0     O30446   9.416   7.953   6.494 -0.3541  0.0198  0.4307
  967MOL0     C30447   9.333   7.922   6.597  0.3312  0.5684  1.0163
  967MOL0     C30448   9.311   7.776   6.597 -0.1047  1.0668 -0.0532
  967MOL0     C30449   9.431   7.688   6.646 -0.5382  0.2389  0.1691
  967MOL0     C30450   9.564   7.689   6.559  0.5860 -0.3521 -0.3452
  967MOL0     C30451   9.641   7.560   6.593 -0.6478  0.3682  0.4824
  967MOL0     C30452   9.585   7.427   6.531  0.0500  0.1861 -0.0778
  967MOL0     C30453   9.663   7.308   6.574 -0.4648  0.8472  0.4731
  967MOL0     C30454   9.596   7.226   6.680  0.5905 -0.7550  0.3320
  967MOL0    Cl30455   9.691   7.077   6.737 -0.1311  0.0830  0.1206
  967MOL0     C30456   9.585   8.129   6.476  0.2471  0.0723  0.1951
  967MOL0     C30457   9.614   8.266   6.470  1.2383  0.9641 -0.5568
  967MOL0     O30458   9.690   8.469   6.284 -0.9131  1.0044 -0.1791
  967MOL0     C30459   9.566   8.764   6.435  0.0783  0.3650  0.2275
  967MOL0     C30460   9.579   8.901   6.441 -0.0907 -0.0547  0.3087
  967MOL0     N30461  10.115   9.528   6.556  0.1875 -1.1416  0.1022
  967MOL0     N30462  10.135   9.608   6.655  0.2067  0.0719  0.4359
  967MOL0     C30463   9.212   9.398   6.564  0.1764 -0.5158 -0.2159
  967MOL0     C30464   9.138   9.428   6.448 -0.5805  0.1204  0.0392
  967MOL0     C30465   9.015   9.520   6.025 -0.0243 -0.1063 -1.0789
  967MOL0     C30466   8.996   9.643   5.965 -0.8270  0.2599 -0.2521
  967MOL0     C30467   8.957   9.648   5.827 -0.2199 -0.3835 -0.3924
  967MOL0     C30468   8.917   9.531   5.763  0.0743  0.5267 -0.8757
  967MOL0     O30469   8.883   9.553   5.630  0.8827  0.4488  0.3467
  967MOL0     C30470   8.843   9.450   5.538  0.1277 -0.0014  0.9819
  967MOL0     C30471   8.808   9.509   5.401  0.6804  0.2449 -0.0185
  967MOL0     C30472   8.935   9.574   5.325  0.4795 -0.1581  1.0913
  967MOL0     C30473   8.898   9.621   5.178 -1.3452  0.7050  0.4778
  967MOL0     C30474   9.003   9.707   5.112 -0.0546 -0.4785  0.1475
  967MOL0     C30475   9.079   9.787   5.056 -0.2673 -1.2001 -0.4463
  967MOL0     C30476   8.914   9.412   5.833  0.4303 -0.1293 -0.1693
  967MOL0     C30477   8.971   9.405   5.964  0.4618 -0.3322  1.0901
  967MOL0     H30478   9.263   9.214   6.220 -0.5865  1.0723 -1.5721
  967MOL0     H30479   9.426   9.172   6.412 -1.2954 -1.9058  1.7014
  967MOL0     H30480   9.362   9.407   6.809  1.2719  2.3526 -2.4533
  967MOL0     H30481   9.305   9.224   6.810 -1.2859  1.0967 -1.2927
  967MOL0     H30482   9.461   9.253   6.975 -0.3463  0.6026  0.8490
  967MOL0     H30483   9.539   9.160   6.849  0.3576  0.3087 -1.5947
  967MOL0     H30484   9.685   9.333   6.769  2.5587  1.9189  1.2974
  967MOL0     H30485   9.586   9.457   6.848  1.4629  0.4506  1.0040
  967MOL0     H30486   9.657   9.361   7.069 -1.4989 -0.3887 -2.0805
  967MOL0     H30487   9.736   9.220   6.990 -0.3005 -1.2241 -0.3335
  967MOL0     H30488   9.912   9.351   7.034 -0.0059  1.3458  0.6488
  967MOL0     H30489   9.880   9.376   6.863  2.2124  0.6569  0.4946
  967MOL0     H30490   9.771   9.600   6.917 -2.9520  0.2629  1.3765
  967MOL0     H30491   9.800   9.563   7.085  1.1076 -3.4951 -0.0693
  967MOL0     H30492  10.002   9.679   7.050  3.0935  0.5501 -0.7108
  967MOL0     H30493  10.058   9.530   6.982  1.5432  1.2577 -2.3278
  967MOL0     H30494  10.117   9.732   6.869  0.2666  0.5704 -1.9675
  967MOL0     H30495   9.956   9.787   6.850  0.4573  0.3662  1.3059
  967MOL0     H30496   9.813   9.556   6.680 -0.0446  1.3103 -2.1057
  967MOL0     H30497   9.972   9.419   6.350 -2.3953  1.5347  0.3167
  967MOL0     H30498   9.960   9.296   6.484 -1.1817 -0.8400  2.6687
  967MOL0     H30499   9.740   9.505   6.423  2.9183  0.7542 -0.1946
  967MOL0     H30500   9.735   9.360   6.524  0.3536  0.5337  0.1030
  967MOL0     H30501   9.756   9.380   6.222  1.0884 -1.5262  0.1230
  967MOL0     H30502   9.615   9.330   6.303  0.7867  1.0937 -0.4117
  967MOL0     H30503   9.880   9.187   6.322 -0.5545  2.6250  1.6482
  967MOL0     H30504   9.756   9.146   6.203 -2.6976  2.3497 -0.3923
  967MOL0     H30505   9.898   8.931   6.330  1.7655 -0.2019  3.7150
  967MOL0     H30506   9.904   8.602   6.222 -1.5706 -1.4233 -0.0159
  967MOL0     H30507  10.007   8.723   6.302 -0.4792  1.0018  2.2794
  967MOL0     H30508   9.938   8.597   6.399  2.2592  2.8466  2.4394
  967MOL0     H30509   9.295   8.384   6.474 -0.0202  0.6649  0.4816
  967MOL0     H30510   9.245   8.166   6.494  0.1487 -3.0780  1.0059
  967MOL0     H30511   9.363   7.949   6.699 -2.1486 -0.6806  2.1621
  967MOL0     H30512   9.234   7.964   6.580 -0.9591 -2.0840  1.3585
  967MOL0     H30513   9.225   7.755   6.661 -0.4325 -0.4095 -0.9230
  967MOL0     H30514   9.280   7.733   6.501 -3.3429  2.0378  0.4537
  967MOL0     H30515   9.393   7.587   6.660  2.1619 -0.5297  3.2466
  967MOL0     H30516   9.465   7.717   6.746 -0.7933  0.4732  0.1878
  967MOL0     H30517   9.546   7.685   6.452  2.9106 -1.4283 -0.7597
  967MOL0     H30518   9.627   7.775   6.586 -0.3290 -0.3557  2.1288
  967MOL0     H30519   9.663   7.544   6.699  0.8960 -0.9331 -0.0074
  967MOL0     H30520   9.737   7.587   6.550 -1.1544 -1.0569 -1.7413
  967MOL0     H30521   9.480   7.410   6.559 -0.0200 -0.2462 -0.5883
  967MOL0     H30522   9.595   7.429   6.422 -1.9070  0.7240 -0.2875
  967MOL0     H30523   9.761   7.347   6.603  1.2295 -3.0064  0.5965
  967MOL0     H30524   9.679   7.245   6.486 -2.3404  3.7375 -2.1099
  967MOL0     H30525   9.493   7.204   6.651 -0.0300  1.0685  1.0357
  967MOL0     H30526   9.608   7.301   6.759 -0.5330  2.2505 -2.1692
  967MOL0     H30527   9.672   8.064   6.482  1.9431  2.1384 -0.9764
  967MOL0     H30528   9.720   8.291   6.472  0.7247  3.5292 -1.5550
  967MOL0     H30529   9.473   8.728   6.477  0.4501 -1.1493 -0.1975
  967MOL0     H30530   9.497   8.959   6.482 -1.4138  2.1233 -4.6349
  967MOL0     H30531   9.193   9.446   6.659 -1.0136 -1.9353  0.3036
  967MOL0     H30532   9.056   9.499   6.459 -1.9642 -1.4751  0.4239
  967MOL0     H30533   9.011   9.734   6.023 -2.9170 -1.5013  3.3780
  967MOL0     H30534   8.962   9.747   5.783 -2.6523 -0.4638 -0.9851
  967MOL0     H30535   8.919   9.372   5.528  0.0079  0.2031 -3.0387
  967MOL0     H30536   8.759   9.406   5.592  1.0593 -2.5044  0.5452
  967MOL0     H30537   8.741   9.594   5.416 -2.3880 -2.0846  0.6655
  967MOL0     H30538   8.750   9.431   5.350  0.5857  0.3873 -0.1311
  967MOL0     H30539   9.015   9.499   5.326 -0.4961 -1.3274 -1.2993
  967MOL0     H30540   8.972   9.659   5.383  0.2649  0.0454  0.9287
  967MOL0     H30541   8.798   9.664   5.188 -3.3597 -3.6213  1.0693
  967MOL0     H30542   8.899   9.532   5.116 -0.3047  0.8156  0.3186
  967MOL0     H30543   9.154   9.854   5.020 -1.1512 -0.0356 -0.1649
  967MOL0     H30544   8.867   9.319   5.803 -2.2319  0.5401  1.5559
  967MOL0     H30545   8.986   9.307   6.008 -0.5297 -1.8093 -1.6692
  968MOL0     O30546   8.536   6.332   8.725 -0.2395 -0.2385  0.4998
  968MOL0     C30547   8.518   6.430   8.651  0.4892 -0.4225  0.8169
  968MOL0     O30548   8.575   6.446   8.524  0.9409 -0.0839  0.7571
  968MOL0     C30549   8.657   6.356   8.462 -0.6142 -0.1880  0.0169
  968MOL0     C30550   8.741   6.413   8.354  0.0128  0.9417  0.0263
  968MOL0     C30551   8.816   6.338   8.264  0.5024  1.1459 -0.8292
  968MOL0     C30552   8.835   6.205   8.299 -0.3154 -0.9616 -0.5237
  968MOL0     O30553   8.916   6.120   8.237 -1.3267  0.0729 -0.1109
  968MOL0     C30554   8.995   6.147   8.122  0.7526  0.3172 -0.0678
  968MOL0     C30555   8.926   6.141   7.993  0.5349  1.1204  0.2396
  968MOL0     C30556   8.860   6.002   7.963 -0.1719 -0.1569 -0.0662
  968MOL0     C30557   8.825   5.988   7.808 -0.0417 -0.5961 -0.0967
  968MOL0     C30558   8.761   5.854   7.760  0.1963  0.2981  0.6079
  968MOL0     C30559   8.844   5.745   7.699  0.2104 -0.5295 -0.2149
  968MOL0     C30560   8.749   5.624   7.684  0.2896  0.2422  0.0707
  968MOL0     C30561   8.804   5.542   7.573  1.1352  0.6220  0.5458
  968MOL0     N30562   8.727   5.413   7.558 -0.2141  0.2007 -0.4590
  968MOL0     C30563   8.760   5.297   7.623  0.3294  0.6127  0.4506
  968MOL0     C30564   8.648   5.217   7.629  0.6854 -0.8430 -0.0296
  968MOL0     C30565   8.643   5.087   7.705  0.7779  0.3365  0.1187
  968MOL0     C30566   8.514   5.004   7.684  0.7698  0.9664 -0.9776
  968MOL0     C30567   8.526   4.865   7.740  0.6532  0.7024  0.4361
  968MOL0     C30568   8.390   4.780   7.771 -0.2755 -1.2663  0.0697
  968MOL0     O30569   8.316   4.843   7.880 -0.2582 -0.4494  0.9329
  968MOL0     C30570   8.196   4.806   7.918 -0.2599  0.0358 -0.4938
  968MOL0     C30571   8.159   4.849   8.045 -0.2680 -0.5936  0.1463
  968MOL0     C30572   8.028   4.823   8.103 -0.3607  0.2239 -0.0165
  968MOL0     C30573   7.993   4.869   8.237 -0.6268  0.4328 -0.3003
  968MOL0     C30574   7.944   4.741   8.028  0.3298 -0.2556 -0.2490
  968MOL0     C30575   7.806   4.702   8.074 -0.0791  0.2508  0.7356
  968MOL0     O30576   7.797   4.575   8.111 -0.2971 -0.3200 -0.1576
  968MOL0     C30577   7.675   4.517   8.113  0.3175 -0.0175  0.2459
  968MOL0     C30578   7.600   4.510   8.002 -0.1710  0.5704 -0.5444
  968MOL0     C30579   7.475   4.457   7.995  0.0967 -0.4806 -0.9437
  968MOL0     C30580   7.421   4.409   8.114 -0.5421 -0.1544  0.1590
  968MOL0     O30581   7.295   4.356   8.122  0.6545  0.2593 -0.2809
  968MOL0     C30582   7.196   4.395   8.024  0.7033 -1.1285 -0.2696
  968MOL0     C30583   7.056   4.344   8.079 -0.7989 -0.5130  1.4631
  968MOL0     C30584   6.942   4.429   8.003  0.0936  0.4969  0.2197
  968MOL0     C30585   6.800   4.405   8.062  0.4204  0.4373 -0.2628
  968MOL0     C30586   6.694   4.497   8.002  0.2903 -0.7473 -0.0632
  968MOL0     C30587   6.553   4.459   8.055 -0.6973  1.1769  0.6200
  968MOL0     C30588   6.442   4.522   7.968 -0.0455  0.3213  0.1027
  968MOL0     C30589   6.316   4.490   8.046  0.6599 -0.4485 -0.0057
  968MOL0    Cl30590   6.303   4.612   8.181 -0.3932  0.8243  0.2325
  968MOL0     C30591   7.494   4.409   8.237  0.1248 -0.3180  0.6938
  968MOL0     C30592   7.620   4.463   8.230 -0.8956 -0.1681  0.4293
  968MOL0     O30593   7.719   4.783   8.061 -0.9086 -0.4637 -0.7646
  968MOL0     C30594   7.982   4.692   7.899  0.8346 -0.3232 -0.1505
  968MOL0     C30595   8.112   4.728   7.845  0.1509  0.4977  0.0068
  968MOL0     N30596   8.546   5.299   7.579 -0.0647 -0.0816  0.5467
  968MOL0     N30597   8.592   5.414   7.536  0.5368  0.0789  0.1818
  968MOL0     C30598   8.756   6.145   8.403  0.1915 -0.1325 -0.3184
  968MOL0     C30599   8.679   6.223   8.490  0.5083  0.5468  0.3633
  968MOL0     C30600   8.418   6.534   8.700 -0.2499  0.4377 -0.2945
  968MOL0     C30601   8.364   6.528   8.832 -0.4814 -0.4171 -0.4361
  968MOL0     C30602   8.264   6.625   8.876 -0.1757 -0.3019  0.5193
  968MOL0     C30603   8.225   6.719   8.785 -0.1567  0.1072 -0.1703
  968MOL0     O30604   8.129   6.805   8.834 -0.4749 -0.3044 -0.6999
  968MOL0     C30605   8.004   6.810   8.759  0.2242  0.0618 -0.6178
  968MOL0     C30606   7.898   6.705   8.805 -0.7014 -0.6300  0.5787
  968MOL0     C30607   7.883   6.714   8.960 -0.6505 -0.5692  0.0819
  968MOL0     C30608   7.749   6.686   9.021 -0.1917 -0.6475 -0.1056
  968MOL0     C30609   7.777   6.638   9.156 -0.4752 -0.0251 -0.0532
  968MOL0     C30610   7.801   6.601   9.269 -0.4461  0.1347 -0.1840
  968MOL0     C30611   8.270   6.719   8.645  0.4821  0.9581 -0.1253
  968MOL0     C30612   8.364   6.631   8.605 -0.0663 -0.0704  0.7624
  968MOL0     H30613   8.738   6.520   8.336 -1.1567  1.8879  4.6562
  968MOL0     H30614   8.867   6.387   8.181  0.7134  0.4607 -1.1155
  968MOL0     H30615   9.025   6.252   8.121  0.2184  0.4845  0.5022
  968MOL0     H30616   9.083   6.083   8.119  0.7148  0.2585  0.0312
  968MOL0     H30617   8.853   6.222   7.985  0.3511  0.8729 -0.7790
  968MOL0     H30618   8.996   6.136   7.909 -1.2056 -2.2186 -1.1700
  968MOL0     H30619   8.922   5.918   7.995 -0.6269 -0.8245 -0.8960
  968MOL0     H30620   8.763   5.991   8.012 -0.1494 -0.0840 -0.0061
  968MOL0     H30621   8.758   6.073   7.795 -0.8112 -0.8738  1.7229
  968MOL0     H30622   8.914   6.010   7.749  0.0840 -0.6050  0.0885
  968MOL0     H30623   8.689   5.823   7.837 -0.2637 -0.0353  0.0485
  968MOL0     H30624   8.703   5.888   7.674  2.4092 -0.2047 -1.1624
  968MOL0     H30625   8.888   5.781   7.606 -1.8062 -0.9406 -1.3870
  968MOL0     H30626   8.918   5.717   7.775 -0.3782  1.4857  1.1812
  968MOL0     H30627   8.738   5.570   7.778 -0.6268  0.3909  0.0567
  968MOL0     H30628   8.648   5.646   7.649  0.0077 -0.2448  0.5714
  968MOL0     H30629   8.905   5.504   7.586  0.6890 -0.4287  1.0398
  968MOL0     H30630   8.802   5.599   7.480 -1.5946  0.1012  0.1813
  968MOL0     H30631   8.860   5.276   7.657  0.0551  2.7365  2.8636
  968MOL0     H30632   8.723   5.022   7.669  1.4698  0.5001  1.3306
  968MOL0     H30633   8.653   5.091   7.813 -2.1365  0.4727  0.4764
  968MOL0     H30634   8.494   5.004   7.576  0.4027  1.4864 -0.9095
  968MOL0     H30635   8.426   5.053   7.727  0.2841  0.3349 -1.2223
  968MOL0     H30636   8.586   4.859   7.831  0.4946  1.2936  0.5857
  968MOL0     H30637   8.569   4.800   7.663 -0.9598 -1.1732  1.0399
  968MOL0     H30638   8.418   4.679   7.800 -2.4793 -1.7575  0.7342
  968MOL0     H30639   8.326   4.784   7.682  0.2675 -0.9572 -0.3115
  968MOL0     H30640   8.228   4.917   8.093 -2.9464  0.2408  3.1407
  968MOL0     H30641   7.893   4.914   8.230 -0.0360  1.8721  0.2096
  968MOL0     H30642   7.989   4.788   8.309  1.6012  2.4919  2.3499
  968MOL0     H30643   8.066   4.943   8.270  1.4445 -2.3638  1.7732
  968MOL0     H30644   7.620   4.546   7.901  0.2048 -0.2574 -0.7741
  968MOL0     H30645   7.416   4.447   7.905  0.5507  0.2018 -1.3231
  968MOL0     H30646   7.193   4.504   8.017  0.1992 -0.9846  1.7641
  968MOL0     H30647   7.223   4.344   7.931 -0.8792 -3.3888  0.4153
  968MOL0     H30648   7.036   4.239   8.055 -0.9664 -0.0822 -0.4667
  968MOL0     H30649   7.052   4.361   8.187  2.8850  3.9677  1.1972
  968MOL0     H30650   6.943   4.395   7.898  1.7117 -0.5338  0.5403
  968MOL0     H30651   6.970   4.534   7.996 -1.8897  0.9531 -2.5301
  968MOL0     H30652   6.779   4.300   8.039  1.5833  0.6279 -2.4180
  968MOL0     H30653   6.796   4.416   8.171 -1.0962  2.4992 -0.4532
  968MOL0     H30654   6.694   4.491   7.893 -2.1319 -0.9736 -0.1091
  968MOL0     H30655   6.713   4.603   8.021 -2.1714  0.5079 -3.5453
  968MOL0     H30656   6.545   4.350   8.056  3.4394  0.7226  0.6971
  968MOL0     H30657   6.541   4.498   8.156 -1.5207  0.0877  0.9666
  968MOL0     H30658   6.432   4.476   7.869 -1.0702  2.5582 -0.9010
  968MOL0     H30659   6.454   4.631   7.959 -0.2717  0.4642  1.3491
  968MOL0     H30660   6.314   4.385   8.076 -0.3340 -0.2896  0.5434
  968MOL0     H30661   6.227   4.495   7.983  0.4343 -2.0790  0.1345
  968MOL0     H30662   7.441   4.378   8.326 -0.2324 -2.3679 -0.1721
  968MOL0     H30663   7.688   4.469   8.314  0.7290  1.2150 -0.9156
  968MOL0     H30664   7.917   4.623   7.846  1.1807  0.8525 -2.2204
  968MOL0     H30665   8.146   4.684   7.752  2.1248 -3.8364  2.4963
  968MOL0     H30666   8.773   6.038   8.414 -0.5876 -0.7190 -3.8893
  968MOL0     H30667   8.620   6.176   8.568 -3.8784 -2.1506 -3.9651
  968MOL0     H30668   8.405   6.457   8.903 -0.7365 -0.4012 -0.2701
  968MOL0     H30669   8.253   6.638   8.983 -0.0944 -0.0466  0.4969
  968MOL0     H30670   7.952   6.906   8.764  0.5968  0.3146 -1.4349
  968MOL0     H30671   8.015   6.806   8.650 -0.4920  1.1521 -0.7507
  968MOL0     H30672   7.939   6.607   8.777  2.3985  0.9709 -0.9170
  968MOL0     H30673   7.801   6.721   8.758 -1.4851 -1.8206  1.6762
  968MOL0     H30674   7.896   6.818   8.989 -2.2143  0.3512 -2.1954
  968MOL0     H30675   7.968   6.658   8.999  0.0562  0.5417  0.1490
  968MOL0     H30676   7.687   6.610   8.973  2.6225 -3.3640  0.2484
  968MOL0     H30677   7.692   6.778   9.037  1.0392  0.2383 -0.6528
  968MOL0     H30678   7.844   6.577   9.364  3.6846 -1.9829 -2.2991
  968MOL0     H30679   8.228   6.801   8.589 -2.1322  1.3455  2.1611
  968MOL0     H30680   8.386   6.628   8.499 -2.7654 -0.1590  0.1397
  969MOL0     O30681   2.125  11.054   9.623  0.8369  0.4581 -0.1547
  969MOL0     C30682   2.049  10.968   9.585 -0.3204 -0.1260 -0.1116
  969MOL0     O30683   1.955  10.976   9.487  0.5564  0.2965 -0.1621
  969MOL0     C30684   1.931  11.100   9.438  0.5956 -0.4973 -0.8583
  969MOL0     C30685   1.842  11.181   9.505 -0.4942  0.0262 -0.0408
  969MOL0     C30686   1.796  11.310   9.451  0.4893  0.1255 -0.2090
  969MOL0     C30687   1.863  11.364   9.339 -0.2157  0.3725 -0.6438
  969MOL0     O30688   1.830  11.492   9.297  0.0853 -0.1521 -0.4537
  969MOL0     C30689   1.820  11.519   9.158  0.0010 -0.3159 -0.1613
  969MOL0     C30690   1.736  11.425   9.069  0.0300  0.7403  0.0197
  969MOL0     C30691   1.724  11.486   8.935  0.2450 -0.4913 -0.2868
  969MOL0     C30692   1.646  11.385   8.848  0.9179  0.7384 -0.5338
  969MOL0     C30693   1.603  11.434   8.700 -0.1867 -0.8726 -1.0172
  969MOL0     C30694   1.706  11.436   8.584 -0.1573 -1.0025 -0.2774
  969MOL0     C30695   1.814  11.327   8.589  0.1766  0.4898  0.4368
  969MOL0     C30696   1.875  11.312   8.456  0.0769  0.2389  0.1552
  969MOL0     N30697   1.978  11.219   8.456  0.2895  0.1122 -1.0189
  969MOL0     C30698   1.966  11.090   8.413 -0.5445 -0.2603  0.4970
  969MOL0     C30699   2.095  11.038   8.426 -0.1452 -0.4416  0.3554
  969MOL0     C30700   2.147  10.902   8.412 -0.0128  0.2317 -0.1164
  969MOL0     C30701   2.121  10.838   8.542  0.7323 -0.8901 -0.4837
  969MOL0     C30702   2.200  10.712   8.566  0.0144  0.2023  0.5308
  969MOL0     C30703   2.133  10.611   8.657  0.1218 -0.4670  0.6673
  969MOL0     O30704   2.104  10.657   8.792 -0.0153  1.1518 -0.3352
  969MOL0     C30705   2.201  10.670   8.888 -0.7833 -0.2271  0.3104
  969MOL0     C30706   2.337  10.657   8.871 -0.1066 -0.0370 -0.4153
  969MOL0     C30707   2.431  10.686   8.971  0.7940 -0.2226  0.2377
  969MOL0     C30708   2.574  10.653   8.934  0.2724  0.8608  0.5098
  969MOL0     C30709   2.386  10.739   9.094  0.3043 -0.0964  0.2967
  969MOL0     C30710   2.482  10.783   9.202  0.4625 -0.1017  1.0513
  969MOL0     O30711   2.448  10.761   9.332  0.2134  0.3279  0.2019
  969MOL0     C30712   2.535  10.811   9.429  0.0871  1.0451  0.9314
  969MOL0     C30713   2.647  10.730   9.475  0.8228  0.1123  0.1603
  969MOL0     C30714   2.734  10.769   9.580 -0.3422 -0.5063  0.0633
  969MOL0     C30715   2.706  10.887   9.651  0.3539  0.5025  0.1975
  969MOL0     O30716   2.790  10.924   9.755  1.0896  0.2872  0.4647
  969MOL0     C30717   2.823  11.064   9.751  0.9784 -0.2012 -0.3314
  969MOL0     C30718   2.951  11.084   9.829 -0.6660 -0.3231 -0.0629
  969MOL0     C30719   2.997  11.229   9.795  0.3782  0.3672  0.0513
  969MOL0     C30720   3.137  11.250   9.852 -0.3619  0.2534 -0.5416
  969MOL0     C30721   3.190  11.392   9.867  0.7790 -0.0453  0.0250
  969MOL0     C30722   3.316  11.414   9.948 -0.3402 -0.7455 -0.5255
  969MOL0     C30723   3.364  11.562   9.962 -0.3975  0.7547  0.1405
  969MOL0     C30724   3.404  11.640   9.837 -0.3386 -1.3626  0.8789
  969MOL0    Cl30725   3.523  11.573   9.741 -0.2157  0.1063 -0.2059
  969MOL0     C30726   2.591  10.959   9.620 -0.3785  0.2447  0.9799
  969MOL0     C30727   2.508  10.925   9.509  0.2461  1.2228  0.8628
  969MOL0     O30728   2.590  10.834   9.160  0.1329 -0.4877 -0.7867
  969MOL0     C30729   2.251  10.748   9.111 -0.4381  0.1557 -0.9298
  969MOL0     C30730   2.150  10.705   9.017 -0.0039  0.4634  0.3834
  969MOL0     N30731   2.173  11.135   8.469  0.1955  0.4316 -0.1730
  969MOL0     N30732   2.106  11.238   8.489 -0.2020 -0.4150 -0.5328
  969MOL0     C30733   1.951  11.280   9.272 -0.2628  0.8852  0.9687
  969MOL0     C30734   1.977  11.145   9.318  0.3863  0.0237 -0.3710
  969MOL0     C30735   2.079  10.846   9.654  0.9533  0.3803 -0.1342
  969MOL0     C30736   1.978  10.756   9.705  0.0127 -1.1165  0.9634
  969MOL0     C30737   2.010  10.650   9.783 -0.3466  0.1952  0.2650
  969MOL0     C30738   2.142  10.610   9.814  0.1917 -0.1630 -0.5485
  969MOL0     O30739   2.147  10.497   9.891 -1.0331 -0.0957 -0.1428
  969MOL0     C30740   2.265  10.453   9.944 -0.0982 -0.4741  1.3640
  969MOL0     C30741   2.238  10.375  10.058 -0.6169 -0.5093 -0.1832
  969MOL0     C30742   2.372  10.336  10.138 -0.0890  0.6283 -0.3590
  969MOL0     C30743   2.339  10.277  10.275  0.0223  0.4364 -0.7308
  969MOL0     C30744   2.441  10.194  10.333  1.0712  0.5716 -0.0219
  969MOL0     C30745   2.548  10.148  10.385 -0.3372 -0.4002  0.1514
  969MOL0     C30746   2.235  10.698   9.771 -0.7461 -0.3414 -0.0207
  969MOL0     C30747   2.210  10.813   9.691  0.2343 -0.3097  0.3054
  969MOL0     H30748   1.790  11.137   9.589 -2.0023 -0.3097 -1.1177
  969MOL0     H30749   1.714  11.367   9.493 -0.4341 -0.8435 -0.6637
  969MOL0     H30750   1.771  11.616   9.147 -2.8488 -1.4833  1.2028
  969MOL0     H30751   1.919  11.535   9.114 -0.6722  2.2183 -0.8600
  969MOL0     H30752   1.796  11.334   9.058  1.5382  1.4562  1.8045
  969MOL0     H30753   1.643  11.405   9.124  0.9550  0.2193  1.4500
  969MOL0     H30754   1.683  11.587   8.943 -0.9771 -1.1065  1.8089
  969MOL0     H30755   1.816  11.487   8.876 -0.1704 -2.2955 -1.0722
  969MOL0     H30756   1.692  11.286   8.848 -1.2758 -0.3549 -1.6513
  969MOL0     H30757   1.546  11.374   8.892  0.4261  0.4196 -1.6936
  969MOL0     H30758   1.520  11.366   8.679 -2.7641  1.4756  0.6996
  969MOL0     H30759   1.578  11.539   8.719  4.2138  0.1670  0.1611
  969MOL0     H30760   1.642  11.440   8.495  0.5996  1.2118 -0.7965
  969MOL0     H30761   1.751  11.535   8.600 -5.3658  1.4704  0.9801
  969MOL0     H30762   1.901  11.355   8.649  1.9872 -3.0837 -0.2910
  969MOL0     H30763   1.781  11.232   8.632 -1.0845  0.6127 -0.2112
  969MOL0     H30764   1.916  11.408   8.422  0.0167 -0.3564 -1.7161
  969MOL0     H30765   1.813  11.274   8.374  1.4484  0.4499 -1.0208
  969MOL0     H30766   1.879  11.037   8.375 -1.2521  0.5686  0.9227
  969MOL0     H30767   2.097  10.865   8.322 -0.6587  2.4729 -0.7551
  969MOL0     H30768   2.255  10.897   8.398  0.2029 -2.2318  1.8661
  969MOL0     H30769   2.014  10.816   8.541  0.1424  1.0098  3.2229
  969MOL0     H30770   2.118  10.908   8.627  0.5526 -1.4296 -0.0383
  969MOL0     H30771   2.301  10.742   8.596  0.7195  1.2739 -2.5342
  969MOL0     H30772   2.206  10.666   8.467 -1.8171 -0.6228  0.7599
  969MOL0     H30773   2.200  10.524   8.660  0.2748 -0.5607 -2.2120
  969MOL0     H30774   2.032  10.587   8.623  0.1112  0.1017  0.2808
  969MOL0     H30775   2.371  10.612   8.779 -0.5029 -1.6847  0.2014
  969MOL0     H30776   2.582  10.586   8.848 -1.5880  1.0205  0.1737
  969MOL0     H30777   2.639  10.739   8.919  2.7061 -0.9616  0.0047
  969MOL0     H30778   2.611  10.590   9.015 -1.1214  0.7084  1.0593
  969MOL0     H30779   2.670  10.641   9.419  0.6312  0.4995 -0.5534
  969MOL0     H30780   2.820  10.706   9.601  2.0414  2.2173 -0.9271
  969MOL0     H30781   2.832  11.105   9.650  0.8715  1.0124  0.1356
  969MOL0     H30782   2.744  11.121   9.800 -1.0731 -1.1315 -2.3441
  969MOL0     H30783   2.921  11.061   9.932 -0.5557  0.9948  0.2849
  969MOL0     H30784   3.026  11.008   9.803 -0.6888 -0.6366  0.7564
  969MOL0     H30785   2.923  11.295   9.840  1.9003  2.5111 -0.4141
  969MOL0     H30786   2.996  11.250   9.688 -0.8068 -4.4815 -1.1350
  969MOL0     H30787   3.156  11.201   9.948  0.5257 -0.1708 -0.9242
  969MOL0     H30788   3.206  11.194   9.788  0.1761 -1.2456  1.2530
  969MOL0     H30789   3.116  11.457   9.914  1.2519  0.9270 -0.5407
  969MOL0     H30790   3.203  11.436   9.768  0.1872 -2.6642 -1.3225
  969MOL0     H30791   3.324  11.375  10.050  1.1124  1.4680  0.2878
  969MOL0     H30792   3.395  11.366   9.890  0.1325  0.9353 -1.3372
  969MOL0     H30793   3.447  11.582  10.031  2.9653 -1.8521 -2.7442
  969MOL0     H30794   3.293  11.613  10.027 -0.6946 -1.4345  1.6364
  969MOL0     H30795   3.439  11.739   9.866  0.7576 -1.5314  0.2082
  969MOL0     H30796   3.315  11.655   9.775 -0.4937 -0.8994  1.2152
  969MOL0     H30797   2.555  11.045   9.676 -4.3189  0.1052 -1.0122
  969MOL0     H30798   2.426  10.989   9.477 -1.6344 -1.3407  0.2124
  969MOL0     H30799   2.209  10.776   9.208  1.7718  3.0489 -0.6617
  969MOL0     H30800   2.044  10.715   9.039  0.1255  0.9790  0.8069
  969MOL0     H30801   2.009  11.322   9.190  3.4256  0.0401  2.9130
  969MOL0     H30802   2.051  11.083   9.269  0.4441  0.1526 -0.4487
  969MOL0     H30803   1.872  10.779   9.701 -0.1078 -1.7691 -1.6142
  969MOL0     H30804   1.932  10.585   9.824  0.8294 -2.6868 -1.7231
  969MOL0     H30805   2.320  10.391   9.871 -1.7778  0.7595 -1.0852
  969MOL0     H30806   2.329  10.538   9.971 -4.7335  4.0007 -0.2210
  969MOL0     H30807   2.180  10.285  10.036  0.4955 -0.7883 -2.2236
  969MOL0     H30808   2.170  10.437  10.118  0.6343  1.3879 -0.6294
  969MOL0     H30809   2.445  10.417  10.146 -2.3679  2.5739  2.8527
  969MOL0     H30810   2.428  10.258  10.085  1.8620  1.1803  0.7930
  969MOL0     H30811   2.246  10.221  10.264 -0.3753  0.2093  2.7235
  969MOL0     H30812   2.325  10.365  10.340  3.8365  2.1898 -2.0042
  969MOL0     H30813   2.638  10.113  10.433 -0.5192  0.8478  1.4804
  969MOL0     H30814   2.337  10.672   9.798 -1.6257 -2.2862  1.7103
  969MOL0     H30815   2.286  10.884   9.661  1.2382 -1.3481  0.3293
  970MOL0     O30816   7.384   4.809   2.945  0.3868 -1.0291 -0.4108
  970MOL0     C30817   7.286   4.768   2.895 -0.4609  0.2779  0.0192
  970MOL0     O30818   7.269   4.755   2.755  0.7726  1.0374 -0.4932
  970MOL0     C30819   7.348   4.822   2.656 -0.1563  0.0928 -0.5796
  970MOL0     C30820   7.347   4.769   2.531  0.0584 -0.2556  0.4114
  970MOL0     C30821   7.428   4.816   2.421  0.8221  0.4480  0.0190
  970MOL0     C30822   7.504   4.932   2.447  0.6572  0.4922 -0.0621
  970MOL0     O30823   7.551   4.992   2.333  0.4206 -0.0834 -0.2438
  970MOL0     C30824   7.683   5.046   2.339 -0.0623 -0.1765 -0.2717
  970MOL0     C30825   7.687   5.181   2.273 -0.2968  0.4633  0.1055
  970MOL0     C30826   7.682   5.162   2.122  0.5484  0.6786  0.0606
  970MOL0     C30827   7.726   5.290   2.048 -0.1047  0.3114  0.1010
  970MOL0     C30828   7.729   5.266   1.887  1.4483 -0.2971  0.1712
  970MOL0     C30829   7.593   5.274   1.819 -0.2564  1.0658 -0.3303
  970MOL0     C30830   7.534   5.414   1.852  0.1999  0.2046 -0.9101
  970MOL0     C30831   7.427   5.459   1.744 -0.9774 -0.1414  1.2247
  970MOL0     N30832   7.486   5.478   1.605 -0.1248 -0.2959  0.4901
  970MOL0     C30833   7.567   5.583   1.571 -0.5779 -0.1337  0.1385
  970MOL0     C30834   7.571   5.575   1.435 -0.8196 -0.2775 -0.0429
  970MOL0     C30835   7.648   5.676   1.347 -0.4473  0.2327  1.0459
  970MOL0     C30836   7.601   5.818   1.345 -0.1397  0.2002  0.1751
  970MOL0     C30837   7.714   5.912   1.293 -0.3197 -0.2576 -1.1002
  970MOL0     C30838   7.768   6.005   1.401 -0.6572  0.0570 -0.0293
  970MOL0     O30839   7.851   5.920   1.480 -0.1955 -0.0490  0.8424
  970MOL0     C30840   7.819   5.910   1.615 -0.3461  0.2348 -0.1430
  970MOL0     C30841   7.844   5.786   1.683  0.4322  0.7504 -0.4891
  970MOL0     C30842   7.825   5.776   1.821 -0.1701  0.4407  0.0538
  970MOL0     C30843   7.860   5.639   1.876 -0.1049 -1.1553 -0.4353
  970MOL0     C30844   7.794   5.895   1.894  0.6875 -0.7981 -0.1849
  970MOL0     C30845   7.773   5.906   2.042 -0.4519 -0.4697 -0.5066
  970MOL0     O30846   7.777   6.030   2.100  1.3144  0.4408  1.1339
  970MOL0     C30847   7.721   6.047   2.220  0.0442 -0.0291  0.5021
  970MOL0     C30848   7.796   6.125   2.311 -0.5353  0.1685  0.4215
  970MOL0     C30849   7.747   6.168   2.427 -0.0467  0.1737  0.2293
  970MOL0     C30850   7.634   6.114   2.474 -0.0995  0.2093  0.5039
  970MOL0     O30851   7.575   6.135   2.597 -0.0337 -0.5195 -1.1219
  970MOL0     C30852   7.653   6.166   2.716 -0.0424 -0.0138 -0.2774
  970MOL0     C30853   7.704   6.039   2.772 -0.0945 -0.2154 -0.3969
  970MOL0     C30854   7.604   5.931   2.821 -0.6522  0.1164 -1.1790
  970MOL0     C30855   7.662   5.801   2.882 -0.0861  0.6088 -0.2253
  970MOL0     C30856   7.561   5.719   2.969  0.0916 -0.2967  0.2390
  970MOL0     C30857   7.615   5.591   3.029 -0.4148 -0.4214  0.6024
  970MOL0     C30858   7.513   5.529   3.117  0.9892 -0.1645 -0.3063
  970MOL0     C30859   7.533   5.384   3.158  0.9536  0.5409  0.2010
  970MOL0    Cl30860   7.473   5.278   3.009 -0.6472  0.0973  0.2907
  970MOL0     C30861   7.558   6.023   2.389 -1.0812  0.9782 -0.1445
  970MOL0     C30862   7.603   5.991   2.261  0.4963  0.3353 -0.0854
  970MOL0     O30863   7.751   5.797   2.097 -0.2025  0.3730  0.1997
  970MOL0     C30864   7.775   6.018   1.825 -0.1869 -0.1304 -0.2854
  970MOL0     C30865   7.793   6.025   1.689  0.6269 -0.2851 -0.9337
  970MOL0     N30866   7.488   5.471   1.394 -0.1784 -0.4375  0.0624
  970MOL0     N30867   7.446   5.413   1.495 -0.4964 -0.3319 -0.7442
  970MOL0     C30868   7.509   4.986   2.581 -0.1811 -0.0745  0.0266
  970MOL0     C30869   7.426   4.934   2.676 -0.8617  0.9848  0.8084
  970MOL0     C30870   7.183   4.704   2.975 -0.1658 -0.6942 -0.0514
  970MOL0     C30871   7.058   4.651   2.931 -0.3943  0.3873  0.7594
  970MOL0     C30872   6.977   4.573   3.011 -0.6834 -1.0582 -1.8390
  970MOL0     C30873   7.013   4.557   3.155 -1.1324  0.3547  0.3765
  970MOL0     O30874   6.942   4.481   3.238  0.8420  0.4144 -0.1611
  970MOL0     C30875   6.821   4.421   3.186  0.2745  0.5680 -0.3230
  970MOL0     C30876   6.757   4.359   3.310  0.2595 -0.1430 -0.4108
  970MOL0     C30877   6.625   4.290   3.287 -0.1546  0.0663 -0.3578
  970MOL0     C30878   6.511   4.325   3.387  0.0603 -0.9788  0.1023
  970MOL0     C30879   6.419   4.211   3.400  1.4504 -0.4786 -0.9383
  970MOL0     C30880   6.343   4.119   3.434  0.6869 -0.1666  0.5658
  970MOL0     C30881   7.132   4.600   3.197 -0.3677  0.0142 -0.5943
  970MOL0     C30882   7.216   4.677   3.114  0.5023 -0.5162 -0.0485
  970MOL0     H30883   7.287   4.683   2.508  2.5785 -1.2286 -3.3903
  970MOL0     H30884   7.419   4.763   2.327  5.3580 -1.3186  0.3450
  970MOL0     H30885   7.705   5.060   2.445 -1.0481  1.9277 -0.2960
  970MOL0     H30886   7.759   4.977   2.303 -1.8824 -1.1157 -2.5760
  970MOL0     H30887   7.601   5.242   2.303 -1.4605 -0.0033 -2.0625
  970MOL0     H30888   7.781   5.230   2.299  0.1221 -0.5102  0.4495
  970MOL0     H30889   7.737   5.072   2.091 -0.8293  0.9728 -3.8038
  970MOL0     H30890   7.582   5.125   2.098 -0.7462  1.7514  3.2619
  970MOL0     H30891   7.654   5.369   2.070 -0.4297  0.7588 -2.3205
  970MOL0     H30892   7.822   5.329   2.084 -1.3178  0.4361  3.6829
  970MOL0     H30893   7.808   5.325   1.839  2.4835 -1.0903  0.8560
  970MOL0     H30894   7.771   5.168   1.863 -0.6388 -0.4856 -3.3297
  970MOL0     H30895   7.614   5.262   1.712  0.4187 -1.7700  0.0410
  970MOL0     H30896   7.513   5.205   1.848 -0.7436  1.9979  0.5803
  970MOL0     H30897   7.486   5.402   1.949  0.4442  0.9820 -0.6929
  970MOL0     H30898   7.609   5.492   1.864  1.2542 -1.1885  3.2131
  970MOL0     H30899   7.363   5.545   1.768 -2.2464 -1.4316  2.7001
  970MOL0     H30900   7.351   5.381   1.733 -2.9833  1.8839 -0.2654
  970MOL0     H30901   7.621   5.652   1.635  0.6557 -1.5410  0.6641
  970MOL0     H30902   7.756   5.667   1.364 -0.0353  2.6153  0.0810
  970MOL0     H30903   7.618   5.648   1.246 -0.3031  3.9216 -0.1753
  970MOL0     H30904   7.576   5.837   1.450  0.6323 -5.0747  1.6040
  970MOL0     H30905   7.513   5.829   1.280 -0.3997  1.9488  0.7848
  970MOL0     H30906   7.673   5.974   1.213  1.1132  0.0264 -1.6602
  970MOL0     H30907   7.804   5.854   1.269 -0.3607 -1.4451  1.2913
  970MOL0     H30908   7.684   6.054   1.451 -1.8650 -1.3636 -0.5762
  970MOL0     H30909   7.821   6.090   1.358 -0.3400 -0.1989 -0.1472
  970MOL0     H30910   7.869   5.704   1.617 -3.8164  0.0400 -1.5547
  970MOL0     H30911   7.775   5.606   1.937 -1.2404 -0.3621 -1.5237
  970MOL0     H30912   7.874   5.555   1.808 -4.7119 -3.1541  0.6968
  970MOL0     H30913   7.947   5.649   1.941 -1.0231  0.8266  0.5873
  970MOL0     H30914   7.883   6.165   2.260  0.5362  0.5782  2.4701
  970MOL0     H30915   7.796   6.237   2.494  0.9730 -0.6554  0.3680
  970MOL0     H30916   7.739   6.234   2.704  0.2894 -0.4723 -0.5322
  970MOL0     H30917   7.578   6.206   2.785  0.9308 -2.7251  2.5951
  970MOL0     H30918   7.759   6.003   2.685 -3.1844  1.7255 -3.3822
  970MOL0     H30919   7.781   6.071   2.843  0.0416 -0.8046 -0.2747
  970MOL0     H30920   7.544   5.912   2.731  0.5013 -0.6373 -1.8119
  970MOL0     H30921   7.550   5.986   2.899 -0.8116  1.6878 -2.3389
  970MOL0     H30922   7.702   5.737   2.803 -2.3148 -1.5497  0.2747
  970MOL0     H30923   7.744   5.824   2.952 -2.3382  0.4862  2.6632
  970MOL0     H30924   7.487   5.687   2.895 -1.3247  2.9890  0.0587
  970MOL0     H30925   7.517   5.789   3.041 -2.4603 -0.9126 -0.6052
  970MOL0     H30926   7.637   5.521   2.948 -0.3172 -0.6606  0.8330
  970MOL0     H30927   7.705   5.620   3.083  0.7465 -2.4386 -0.1370
  970MOL0     H30928   7.414   5.515   3.073  0.8476 -2.6067  0.6564
  970MOL0     H30929   7.508   5.592   3.206  0.6343  0.5885 -0.8462
  970MOL0     H30930   7.486   5.363   3.255 -0.7778 -0.0490 -0.7080
  970MOL0     H30931   7.641   5.369   3.159  1.0838  1.4124  0.8168
  970MOL0     H30932   7.457   5.995   2.414 -0.1662 -0.4172  2.2839
  970MOL0     H30933   7.541   5.937   2.190 -1.5501  3.1317 -0.5999
  970MOL0     H30934   7.747   6.113   1.871 -2.0882 -0.5946 -0.4092
  970MOL0     H30935   7.804   6.119   1.636  1.0308  0.3070  0.1542
  970MOL0     H30936   7.561   5.080   2.593 -2.8346  1.5071  0.0532
  970MOL0     H30937   7.422   4.990   2.769  1.0412 -1.0792  2.2181
  970MOL0     H30938   7.023   4.688   2.835  0.5077  0.9102  0.6215
  970MOL0     H30939   6.894   4.523   2.962 -0.0198 -4.1395 -0.0485
  970MOL0     H30940   6.759   4.507   3.157  1.2184  1.5775  0.5395
  970MOL0     H30941   6.841   4.348   3.107 -0.1998  0.0204  0.0547
  970MOL0     H30942   6.731   4.440   3.379  0.4152 -2.6778  2.9060
  970MOL0     H30943   6.831   4.303   3.367 -2.2661 -2.2082  1.0826
  970MOL0     H30944   6.643   4.183   3.276 -1.6896 -0.4960  1.9281
  970MOL0     H30945   6.598   4.332   3.189  2.2532  0.6317 -0.8339
  970MOL0     H30946   6.454   4.412   3.354 -1.2365 -0.3096  3.6292
  970MOL0     H30947   6.563   4.347   3.481  1.0628 -2.0457 -0.1845
  970MOL0     H30948   6.266   4.047   3.454  1.2980 -1.5189 -1.5313
  970MOL0     H30949   7.163   4.579   3.299 -1.6844  1.9305  0.2705
  970MOL0     H30950   7.315   4.699   3.152  0.8301 -0.1791 -1.0641
  971MOL0     O30951   0.261   7.913   6.047 -0.5561 -0.0257  0.4729
  971MOL0     C30952   0.302   8.030   6.051 -0.9216 -0.4513 -0.8030
  971MOL0     O30953   0.252   8.142   5.993 -0.5452  0.3292  0.3927
  971MOL0     C30954   0.152   8.126   5.904  1.0814 -0.2413 -0.4258
  971MOL0     C30955   0.157   8.035   5.798 -0.2410  1.1719  0.5466
  971MOL0     C30956   0.029   7.993   5.744  1.1567  0.5244 -0.3663
  971MOL0     C30957  -0.101   8.057   5.774  0.3874  0.6720 -0.9376
  971MOL0     O30958  -0.225   8.028   5.730  0.3226  0.1621 -0.2298
  971MOL0     C30959  -0.241   7.921   5.639  0.1496  0.9355  0.1675
  971MOL0     C30960  -0.384   7.909   5.595 -0.9918 -0.7927  0.0221
  971MOL0     C30961  -0.415   7.798   5.491 -0.8802  0.2110  1.3194
  971MOL0     C30962  -0.343   7.824   5.353 -1.5187  0.3728 -0.2455
  971MOL0     C30963  -0.378   7.721   5.239 -0.3002 -0.8326  0.4853
  971MOL0     C30964  -0.341   7.779   5.099  0.0887  0.9143  0.1703
  971MOL0     C30965  -0.337   7.653   4.993  0.2386  0.1342  0.5940
  971MOL0     C30966  -0.267   7.664   4.857 -0.3392 -0.5874 -0.7012
  971MOL0     N30967  -0.119   7.640   4.870 -0.1440 -0.4542 -0.3866
  971MOL0     C30968  -0.025   7.710   4.946  0.3021  0.6644 -0.1139
  971MOL0     C30969   0.087   7.643   4.918  1.0186 -1.5407 -0.7859
  971MOL0     C30970   0.237   7.672   4.968 -0.1483  0.1803 -0.0808
  971MOL0     C30971   0.264   7.811   5.010  0.7934 -0.7459 -0.7525
  971MOL0     C30972   0.421   7.830   5.036 -0.4347  0.4885 -0.2209
  971MOL0     C30973   0.491   7.948   4.973  0.2964 -0.2328 -0.0784
  971MOL0     O30974   0.487   7.945   4.832 -0.8591 -0.5461 -0.0122
  971MOL0     C30975   0.587   8.018   4.768 -0.0190 -0.4576 -0.4634
  971MOL0     C30976   0.619   8.158   4.801 -0.2219 -0.4199 -0.9372
  971MOL0     C30977   0.733   8.225   4.733  1.0975  0.2757  0.1611
  971MOL0     C30978   0.765   8.362   4.773 -0.1519 -0.7998 -0.0752
  971MOL0     C30979   0.789   8.163   4.621 -0.5037 -0.1956 -0.0325
  971MOL0     C30980   0.877   8.237   4.515 -0.4277  0.1829 -0.1515
  971MOL0     O30981   0.894   8.166   4.400 -0.7195 -0.4957  0.1985
  971MOL0     C30982   0.957   8.245   4.304  0.0550 -0.7392  0.2705
  971MOL0     C30983   1.097   8.258   4.306  1.6237  0.2403  0.3957
  971MOL0     C30984   1.154   8.338   4.206  0.0161  0.3183 -0.5476
  971MOL0     C30985   1.086   8.389   4.096 -0.2271 -0.6510  0.5879
  971MOL0     O30986   1.148   8.461   3.988 -0.5463  0.4501 -0.5591
  971MOL0     C30987   1.270   8.406   3.933  0.0961 -0.2838  0.2408
  971MOL0     C30988   1.330   8.529   3.863 -0.6943  0.0688  0.4440
  971MOL0     C30989   1.452   8.498   3.775  0.1422 -0.3689 -0.5877
  971MOL0     C30990   1.435   8.411   3.653  0.1893  0.3884  0.4626
  971MOL0     C30991   1.558   8.429   3.555  0.1333 -0.2966  0.0328
  971MOL0     C30992   1.543   8.326   3.434 -0.2393 -0.1788 -0.3376
  971MOL0     C30993   1.652   8.376   3.333  0.4946  0.5498  0.2562
  971MOL0     C30994   1.726   8.261   3.267  1.2981  0.4482 -0.9883
  971MOL0    Cl30995   1.651   8.220   3.126 -0.2600  0.1155  0.1797
  971MOL0     C30996   0.945   8.385   4.108  0.1912 -0.9728  0.1633
  971MOL0     C30997   0.883   8.307   4.206  0.1331 -0.3570 -0.5564
  971MOL0     O30998   0.935   8.349   4.531 -0.3424  0.3101 -0.3888
  971MOL0     C30999   0.759   8.034   4.595 -0.6393 -0.3364 -0.2732
  971MOL0     C31000   0.653   7.966   4.654  0.1771  0.0283 -1.2761
  971MOL0     N31001   0.061   7.535   4.842 -0.1540 -0.0858  0.4675
  971MOL0     N31002  -0.061   7.537   4.802 -0.0110 -0.5177  0.3362
  971MOL0     C31003  -0.090   8.162   5.866 -0.0224 -0.4708 -0.2363
  971MOL0     C31004   0.033   8.193   5.934  0.3781  0.4664  0.5616
  971MOL0     C31005   0.406   8.063   6.154  0.3410  0.4568  0.4375
  971MOL0     C31006   0.460   7.958   6.234 -0.5073 -0.0076  0.4766
  971MOL0     C31007   0.551   7.984   6.330  0.0008 -0.9361 -0.5130
  971MOL0     C31008   0.573   8.118   6.374 -0.5420  0.6462 -0.3375
  971MOL0     O31009   0.656   8.151   6.475 -0.6333 -0.0775 -0.0832
  971MOL0     C31010   0.667   8.056   6.585  0.3908  0.3329 -0.0093
  971MOL0     C31011   0.738   8.124   6.705 -0.8981 -0.6952  0.2284
  971MOL0     C31012   0.762   8.057   6.848  0.2751 -1.2969  0.6674
  971MOL0     C31013   0.730   7.908   6.855  0.1301  0.6023  0.0583
  971MOL0     C31014   0.697   7.869   6.996 -0.0080  0.0283  0.6642
  971MOL0     C31015   0.689   7.824   7.111 -0.6737 -0.0536 -0.2901
  971MOL0     C31016   0.518   8.218   6.302 -1.5498 -0.6509  0.2372
  971MOL0     C31017   0.439   8.190   6.198 -0.2021  0.0707  0.5949
  971MOL0     H31018   0.248   7.983   5.769 -0.9772  0.5753 -0.8006
  971MOL0     H31019   0.035   7.920   5.664 -1.6398 -1.9981  1.5222
  971MOL0     H31020  -0.178   7.935   5.551  0.8335  1.7736  0.7633
  971MOL0     H31021  -0.209   7.832   5.693 -2.1910 -0.8863 -1.2732
  971MOL0     H31022  -0.443   7.883   5.683 -0.9036  1.2852  0.7304
  971MOL0     H31023  -0.430   8.005   5.568  1.9723  0.1877 -2.0548
  971MOL0     H31024  -0.371   7.709   5.538 -0.0023  1.0979  2.2155
  971MOL0     H31025  -0.523   7.785   5.482 -0.6676 -1.4060  0.6783
  971MOL0     H31026  -0.368   7.924   5.315  0.3438  0.6810 -0.7647
  971MOL0     H31027  -0.235   7.826   5.367 -1.5967  0.1171  0.4003
  971MOL0     H31028  -0.325   7.628   5.259  1.6227 -0.1590 -1.1462
  971MOL0     H31029  -0.486   7.706   5.244 -0.2626 -1.1456  0.3895
  971MOL0     H31030  -0.410   7.855   5.059  1.3449  1.0604 -1.8294
  971MOL0     H31031  -0.242   7.826   5.105  0.4840  0.0317  0.6946
  971MOL0     H31032  -0.297   7.558   5.028  1.0031 -0.2313 -1.2076
  971MOL0     H31033  -0.444   7.632   4.977  0.3847 -0.2811  0.1678
  971MOL0     H31034  -0.296   7.757   4.808 -0.2269 -1.3790 -2.3718
  971MOL0     H31035  -0.288   7.577   4.793  2.8666 -2.2036  0.2401
  971MOL0     H31036  -0.031   7.805   4.998  1.1863  0.2096  0.8437
  971MOL0     H31037   0.275   7.600   5.040 -2.1432 -3.4732 -2.3461
  971MOL0     H31038   0.299   7.662   4.879 -0.3439  2.8673 -0.6171
  971MOL0     H31039   0.220   7.843   5.105  1.4589 -1.2022 -0.2828
  971MOL0     H31040   0.233   7.877   4.928 -0.8965  0.2099  0.5820
  971MOL0     H31041   0.475   7.741   5.003 -0.8778 -0.3382  1.2176
  971MOL0     H31042   0.437   7.825   5.144 -0.2940 -3.1366 -0.2901
  971MOL0     H31043   0.595   7.938   5.007 -0.3741 -0.3623  2.0610
  971MOL0     H31044   0.445   8.044   5.000 -2.2657 -1.5345  0.4748
  971MOL0     H31045   0.549   8.202   4.871  0.8887 -0.1514  0.0450
  971MOL0     H31046   0.874   8.371   4.778 -0.0664 -0.6874 -1.5873
  971MOL0     H31047   0.722   8.430   4.699  0.9876 -2.2684 -2.1920
  971MOL0     H31048   0.711   8.388   4.864 -1.5157 -2.7854 -0.2646
  971MOL0     H31049   1.153   8.209   4.386  3.9198  3.0975  0.6982
  971MOL0     H31050   1.261   8.356   4.210  0.4684 -2.1958  0.6974
  971MOL0     H31051   1.347   8.365   4.000  0.3822  1.9972  1.4315
  971MOL0     H31052   1.240   8.324   3.869 -1.4773  0.5366 -0.1094
  971MOL0     H31053   1.256   8.583   3.804 -2.0949 -0.2402  1.8603
  971MOL0     H31054   1.369   8.593   3.943 -0.7360 -1.3522  1.6496
  971MOL0     H31055   1.519   8.437   3.837 -3.0842 -2.6035  1.0012
  971MOL0     H31056   1.498   8.588   3.734 -0.5515  0.8950  1.2669
  971MOL0     H31057   1.407   8.307   3.674 -3.2391  0.8048 -1.3130
  971MOL0     H31058   1.339   8.444   3.613  0.2148 -0.4347 -0.3133
  971MOL0     H31059   1.647   8.412   3.617  0.0736  0.9179  0.4675
  971MOL0     H31060   1.562   8.530   3.514  3.1407 -1.7627 -3.9187
  971MOL0     H31061   1.562   8.225   3.471 -0.9004  1.1667  4.2459
  971MOL0     H31062   1.443   8.343   3.393 -0.3261  0.2032  0.0302
  971MOL0     H31063   1.728   8.437   3.384 -0.5380  1.4513  0.7683
  971MOL0     H31064   1.597   8.436   3.260  3.0152  1.3660 -1.0918
  971MOL0     H31065   1.727   8.175   3.334  0.4864  1.0032 -0.2488
  971MOL0     H31066   1.829   8.296   3.254  0.7078  2.9475  0.4184
  971MOL0     H31067   0.885   8.443   4.038  2.4248  0.7587 -0.4454
  971MOL0     H31068   0.775   8.298   4.214 -0.1861  2.2770 -0.9831
  971MOL0     H31069   0.793   7.978   4.508 -1.2283  1.2411 -1.5723
  971MOL0     H31070   0.635   7.865   4.620  1.5709 -0.2489 -1.2670
  971MOL0     H31071  -0.185   8.207   5.894  0.3154 -0.1181  0.3754
  971MOL0     H31072   0.037   8.264   6.016  1.3473  0.5265  0.4711
  971MOL0     H31073   0.444   7.855   6.203 -2.2739 -0.1228  1.6418
  971MOL0     H31074   0.582   7.908   6.403  0.4519  1.1858  1.6437
  971MOL0     H31075   0.567   8.014   6.602  0.8793 -1.1634 -0.6418
  971MOL0     H31076   0.734   7.973   6.559 -0.1705  0.2138 -1.1455
  971MOL0     H31077   0.702   8.226   6.720  2.2272  0.2444  2.3033
  971MOL0     H31078   0.839   8.144   6.669 -0.7368 -0.2898  0.8952
  971MOL0     H31079   0.692   8.110   6.914  0.9490  0.7997 -0.2074
  971MOL0     H31080   0.864   8.090   6.868  0.3112  1.1910 -2.7343
  971MOL0     H31081   0.819   7.856   6.817  1.6923  3.2772 -0.2257
  971MOL0     H31082   0.648   7.887   6.786  0.7784 -0.3999 -0.4365
  971MOL0     H31083   0.683   7.805   7.217 -2.6003 -2.5069 -0.7434
  971MOL0     H31084   0.542   8.322   6.326 -1.6563 -0.6007  0.1287
  971MOL0     H31085   0.398   8.270   6.137 -0.4104 -0.3882  0.1342
  972MOL0     O31086   8.387   3.123   9.741 -0.0703  0.7942 -0.6356
  972MOL0     C31087   8.332   3.059   9.647  0.1789  0.3915  0.1427
  972MOL0     O31088   8.384   2.949   9.595 -0.3197  0.5838  0.6880
  972MOL0     C31089   8.507   2.901   9.640 -0.4232 -0.9804  0.1524
  972MOL0     C31090   8.622   2.987   9.655  0.0803 -0.3097  0.1016
  972MOL0     C31091   8.742   2.945   9.707  0.3154 -0.4309  0.3522
  972MOL0     C31092   8.759   2.805   9.725  0.2993  0.8009  0.1963
  972MOL0     O31093   8.881   2.750   9.766  0.0598  0.3777  0.0186
  972MOL0     C31094   9.000   2.831   9.776  0.3226 -0.1113  0.0078
  972MOL0     C31095   9.129   2.765   9.815 -0.4030  0.1691 -0.1488
  972MOL0     C31096   9.174   2.646   9.728  0.6252  0.1589  0.1380
  972MOL0     C31097   9.304   2.608   9.780 -1.2080  0.4591 -0.0502
  972MOL0     C31098   9.377   2.509   9.681  1.1571 -0.0678  0.0358
  972MOL0     C31099   9.502   2.445   9.747  0.6657 -0.0020 -0.9889
  972MOL0     C31100   9.581   2.366   9.635  0.6921 -0.1706  0.8569
  972MOL0     C31101   9.691   2.281   9.697  0.1726 -0.1420  0.6983
  972MOL0     N31102   9.793   2.233   9.608 -0.1136  0.5381  1.2673
  972MOL0     C31103   9.911   2.303   9.579 -0.0587  0.4667  0.6696
  972MOL0     C31104   9.972   2.228   9.484 -1.2789  0.4655 -0.8084
  972MOL0     C31105  10.114   2.252   9.434  0.0096  0.5874  0.2380
  972MOL0     C31106  10.208   2.222   9.554 -0.0741 -0.7415  0.6839
  972MOL0     C31107  10.356   2.234   9.506 -0.2633 -0.0575 -0.7105
  972MOL0     C31108  10.448   2.227   9.634  0.9033  0.8486 -0.2082
  972MOL0     O31109  10.434   2.348   9.704 -0.3162 -0.3124 -0.2035
  972MOL0     C31110  10.509   2.383   9.811  0.9590  0.3918  0.4197
  972MOL0     C31111  10.584   2.297   9.891  0.4733 -0.2738 -0.2959
  972MOL0     C31112  10.657   2.352  10.001 -0.5883 -0.7167 -0.5004
  972MOL0     C31113  10.742   2.258  10.087  0.2019 -0.2790  0.1935
  972MOL0     C31114  10.647   2.494  10.034  0.2887  0.1435 -0.1025
  972MOL0     C31115  10.738   2.565  10.136 -0.8353  0.3304 -0.3466
  972MOL0     O31116  10.694   2.682  10.178  0.4293 -0.3496  0.4901
  972MOL0     C31117  10.757   2.748  10.277  0.8204 -0.4759 -0.1095
  972MOL0     C31118  10.883   2.816  10.245  0.5526  0.2022 -0.5845
  972MOL0     C31119  10.956   2.864  10.349 -1.1314  0.7788 -0.1498
  972MOL0     C31120  10.917   2.862  10.484 -0.2239  0.6459  0.6124
  972MOL0     O31121  10.988   2.918  10.589 -0.0247  0.5720  0.2214
  972MOL0     C31122  11.101   3.006  10.556 -0.1402  1.1264 -0.8491
  972MOL0     C31123  11.167   3.045  10.682 -0.9829  0.0913 -0.6751
  972MOL0     C31124  11.225   2.919  10.746  0.1582  0.0926 -0.1839
  972MOL0     C31125  11.342   2.961  10.847  0.1836 -0.5954  0.7102
  972MOL0     C31126  11.292   3.079  10.947  0.0327 -0.3504  0.4215
  972MOL0     C31127  11.413   3.109  11.044  0.2680 -0.6004 -0.6038
  972MOL0     C31128  11.467   2.989  11.116  0.4151 -0.1446  0.1540
  972MOL0     C31129  11.562   3.029  11.226  0.0724 -0.2249  0.5322
  972MOL0    Cl31130  11.696   3.138  11.159  0.2556 -0.2041  0.1672
  972MOL0     C31131  10.788   2.809  10.514  0.2311  0.6511  1.1661
  972MOL0     C31132  10.715   2.740  10.413 -0.1705  0.0208 -0.1911
  972MOL0     O31133  10.854   2.526  10.147  0.5177 -0.3068 -0.1923
  972MOL0     C31134  10.574   2.569   9.944 -0.5200 -0.1434 -0.3338
  972MOL0     C31135  10.505   2.517   9.830  0.1853 -0.4526 -0.0228
  972MOL0     N31136   9.893   2.120   9.464 -0.3665  0.2137  0.2533
  972MOL0     N31137   9.776   2.123   9.524 -0.0211 -0.7406 -0.6360
  972MOL0     C31138   8.648   2.716   9.716 -0.3715  0.2714 -1.1575
  972MOL0     C31139   8.524   2.771   9.675 -0.5910 -0.0369 -0.4088
  972MOL0     C31140   8.219   3.118   9.577 -0.0818  0.2515 -0.1981
  972MOL0     C31141   8.136   3.037   9.494  0.8176 -0.4690 -1.0685
  972MOL0     C31142   8.022   3.086   9.443  0.0798  0.1091  0.9327
  972MOL0     C31143   7.971   3.215   9.472 -0.3499  0.4307 -0.4766
  972MOL0     O31144   7.857   3.277   9.432  0.5541 -0.7409 -0.4306
  972MOL0     C31145   7.768   3.204   9.346  0.2494 -0.2788  0.2149
  972MOL0     C31146   7.815   3.222   9.202 -0.0062  0.4116 -0.0132
  972MOL0     C31147   7.702   3.158   9.113 -0.6987 -0.1065  0.5949
  972MOL0     C31148   7.622   3.257   9.022 -0.3729 -0.0493 -0.7033
  972MOL0     C31149   7.529   3.326   9.095 -0.0022 -0.8675  0.0715
  972MOL0     C31150   7.443   3.393   9.155 -0.3454 -0.0094 -0.5305
  972MOL0     C31151   8.051   3.292   9.568 -0.1645 -0.5490 -0.6564
  972MOL0     C31152   8.166   3.237   9.620 -0.0408 -0.2231  0.0592
  972MOL0     H31153   8.609   3.093   9.636 -0.5499 -0.6502 -1.5811
  972MOL0     H31154   8.827   3.012   9.710  0.3611 -0.0951 -3.3904
  972MOL0     H31155   9.022   2.858   9.672  1.8629  0.4052  0.4365
  972MOL0     H31156   8.982   2.918   9.839 -1.8608  0.3819 -1.1963
  972MOL0     H31157   9.202   2.846   9.809 -2.6000  2.1151 -2.9535
  972MOL0     H31158   9.115   2.729   9.917  5.0740 -1.1880  0.4499
  972MOL0     H31159   9.116   2.558   9.759  1.2103 -0.3440 -0.1822
  972MOL0     H31160   9.174   2.672   9.622 -4.3060  3.1853  0.5618
  972MOL0     H31161   9.372   2.692   9.794 -1.1830 -0.0687  4.3848
  972MOL0     H31162   9.308   2.562   9.879 -0.3145  4.7621  2.1063
  972MOL0     H31163   9.313   2.424   9.656 -1.5451  0.3839  4.2580
  972MOL0     H31164   9.418   2.556   9.592 -0.4328  0.0123 -0.6974
  972MOL0     H31165   9.560   2.531   9.782 -0.2260  0.7983 -1.4216
  972MOL0     H31166   9.483   2.383   9.835  2.8628  0.8804  0.1589
  972MOL0     H31167   9.502   2.315   9.580 -0.1895 -1.6990  3.3855
  972MOL0     H31168   9.626   2.441   9.569 -0.9124  2.1953  2.2885
  972MOL0     H31169   9.639   2.195   9.739 -2.6261  0.1969 -1.7754
  972MOL0     H31170   9.733   2.339   9.780 -1.7519  3.5205 -0.6599
  972MOL0     H31171   9.945   2.393   9.629 -2.2223  1.6707  0.1323
  972MOL0     H31172  10.136   2.174   9.361  0.1836  1.5439 -0.7626
  972MOL0     H31173  10.122   2.350   9.386  1.5986  2.1719  3.3728
  972MOL0     H31174  10.194   2.118   9.588  4.8695 -1.4331  1.2514
  972MOL0     H31175  10.191   2.304   9.624  1.6645  3.1589 -3.0262
  972MOL0     H31176  10.374   2.327   9.452  0.3410 -1.1930 -2.5572
  972MOL0     H31177  10.362   2.153   9.432 -0.7873 -1.1640  0.4133
  972MOL0     H31178  10.553   2.223   9.605  0.5833  2.2293 -1.6549
  972MOL0     H31179  10.424   2.148   9.706 -3.4604  1.5888 -0.5514
  972MOL0     H31180  10.601   2.197   9.853  1.1271  0.7762 -3.0009
  972MOL0     H31181  10.739   2.156  10.047  0.4026 -0.0453 -0.4438
  972MOL0     H31182  10.849   2.281  10.075 -0.3066  1.4693 -1.5318
  972MOL0     H31183  10.724   2.269  10.194 -2.1588 -0.3913 -0.1492
  972MOL0     H31184  10.928   2.824  10.146  1.2449  0.8752 -0.2266
  972MOL0     H31185  11.050   2.908  10.316 -1.4472 -0.2785 -2.6696
  972MOL0     H31186  11.168   2.957  10.485 -1.0038  0.7485 -1.4175
  972MOL0     H31187  11.057   3.094  10.509 -3.9660  0.1862  0.5686
  972MOL0     H31188  11.239   3.124  10.658 -1.2528  0.2380 -1.0128
  972MOL0     H31189  11.093   3.088  10.751 -3.8617 -1.0256 -2.8340
  972MOL0     H31190  11.273   2.854  10.672 -2.8561 -1.6226 -0.7774
  972MOL0     H31191  11.149   2.860  10.798 -0.0293 -0.1580 -0.7331
  972MOL0     H31192  11.361   2.874  10.911  0.5137 -0.6238  0.5774
  972MOL0     H31193  11.439   2.994  10.809  0.1031 -0.1315  0.8983
  972MOL0     H31194  11.218   3.031  11.010  0.6083 -3.6772 -1.2188
  972MOL0     H31195  11.269   3.175  10.900  3.3910  0.8646  0.9531
  972MOL0     H31196  11.482   3.158  10.974 -1.2991 -1.0072 -2.5383
  972MOL0     H31197  11.376   3.170  11.127 -2.4445  1.7887 -3.3478
  972MOL0     H31198  11.535   2.939  11.047  0.5431  3.7224 -2.8866
  972MOL0     H31199  11.388   2.924  11.156  2.0094 -1.6334  1.0253
  972MOL0     H31200  11.617   2.941  11.259 -1.4376 -2.6743 -2.8929
  972MOL0     H31201  11.499   3.072  11.305  1.0884  0.2188  1.1183
  972MOL0     H31202  10.749   2.814  10.615  1.8124 -2.8168  2.1033
  972MOL0     H31203  10.611   2.713  10.427 -0.0042 -0.2713  0.4944
  972MOL0     H31204  10.557   2.675   9.954 -1.3723 -0.3813  1.0041
  972MOL0     H31205  10.446   2.578   9.762  0.0020 -0.6930 -0.0803
  972MOL0     H31206   8.672   2.614   9.745 -2.5706  0.2323  0.8987
  972MOL0     H31207   8.439   2.705   9.659 -0.5337 -0.2934  0.2996
  972MOL0     H31208   8.147   2.929   9.487 -0.3542 -1.0338  3.1441
  972MOL0     H31209   7.966   3.021   9.376 -0.0773  0.5520  0.6267
  972MOL0     H31210   7.747   3.101   9.376  1.3256 -0.2262  1.2053
  972MOL0     H31211   7.677   3.258   9.376 -0.4780 -0.7341 -1.0990
  972MOL0     H31212   7.907   3.164   9.200  0.5923  1.2390  1.6034
  972MOL0     H31213   7.830   3.330   9.187  0.6422  0.0020 -3.0426
  972MOL0     H31214   7.625   3.099   9.162 -0.6237  0.4842  1.4386
  972MOL0     H31215   7.753   3.097   9.037 -4.1701  0.7497 -2.7629
  972MOL0     H31216   7.574   3.205   8.939 -5.4876  2.1068  0.5137
  972MOL0     H31217   7.699   3.324   8.982 -0.9760 -0.1583 -2.0901
  972MOL0     H31218   7.360   3.451   9.190 -2.4312 -2.1292 -1.6931
  972MOL0     H31219   8.018   3.391   9.597  1.9201 -0.0620  0.2035
  972MOL0     H31220   8.197   3.280   9.715  0.6211  0.0013 -0.2516
  973MOL0     O31221   0.522  11.500   9.059 -0.4513 -0.6062 -0.2505
  973MOL0     C31222   0.610  11.583   9.023  0.1249 -0.7387  0.1316
  973MOL0     O31223   0.608  11.664   8.913 -0.1170 -0.7867 -0.3470
  973MOL0     C31224   0.491  11.674   8.842  1.3911 -0.8852 -1.2026
  973MOL0     C31225   0.417  11.561   8.800  0.0560  1.0491 -0.0562
  973MOL0     C31226   0.298  11.574   8.730  0.2172  0.7123  0.7940
  973MOL0     C31227   0.246  11.700   8.705  0.2889 -0.1108  0.2162
  973MOL0     O31228   0.139  11.707   8.612 -0.3916  0.1238  0.0383
  973MOL0     C31229   0.115  11.818   8.540  0.3447 -0.7388  0.1549
  973MOL0     C31230   0.002  11.812   8.435 -0.7119 -0.8579 -0.1233
  973MOL0     C31231  -0.145  11.791   8.484 -0.4073 -1.1371 -0.7764
  973MOL0     C31232  -0.263  11.803   8.384 -0.9681 -0.7507  0.0777
  973MOL0     C31233  -0.393  11.787   8.459  1.2659  1.5805  0.0420
  973MOL0     C31234  -0.501  11.713   8.374  0.1469  0.5562 -1.0187
  973MOL0     C31235  -0.603  11.638   8.458 -0.7226  0.0526 -0.4594
  973MOL0     C31236  -0.660  11.713   8.582  0.8780 -0.8801 -0.2673
  973MOL0     N31237  -0.752  11.627   8.653 -0.4014 -0.2366 -0.8556
  973MOL0     C31238  -0.824  11.529   8.603 -0.7277 -0.0298  0.2848
  973MOL0     C31239  -0.873  11.459   8.702 -0.2561 -0.4522 -0.6869
  973MOL0     C31240  -0.949  11.332   8.671 -0.6288 -0.7503 -0.8282
  973MOL0     C31241  -0.908  11.220   8.770 -0.4140 -0.3861  0.3956
  973MOL0     C31242  -0.757  11.186   8.779  0.2586  0.1725  0.5076
  973MOL0     C31243  -0.720  11.085   8.884  0.2515  0.2243  0.2456
  973MOL0     O31244  -0.574  11.078   8.925  0.8192 -0.0839 -0.7969
  973MOL0     C31245  -0.555  11.102   9.059 -1.6067 -0.2800  0.3483
  973MOL0     C31246  -0.470  11.016   9.129  0.1839  0.0585  0.0788
  973MOL0     C31247  -0.416  11.043   9.261 -1.4350 -0.2268  0.1477
  973MOL0     C31248  -0.328  10.934   9.319 -0.9627  0.0106 -0.0761
  973MOL0     C31249  -0.457  11.167   9.314 -0.9073 -0.8023 -1.1875
  973MOL0     C31250  -0.414  11.210   9.455  0.5245  0.6882  0.0480
  973MOL0     O31251  -0.465  11.326   9.499 -0.5677  0.2223  0.7290
  973MOL0     C31252  -0.414  11.395   9.605  0.1697 -1.2071 -0.4485
  973MOL0     C31253  -0.395  11.535   9.592 -0.4243 -0.3569  1.0453
  973MOL0     C31254  -0.347  11.618   9.691 -0.1972 -0.2709  0.1728
  973MOL0     C31255  -0.309  11.567   9.812 -0.0524 -0.6939 -1.1327
  973MOL0     O31256  -0.259  11.668   9.900 -0.2633  0.7544 -0.2249
  973MOL0     C31257  -0.208  11.636  10.036  1.0385 -0.3207 -0.9287
  973MOL0     C31258  -0.316  11.604  10.147  0.4750  0.0983  0.1891
  973MOL0     C31259  -0.407  11.730  10.161  0.3305 -0.1701 -0.1801
  973MOL0     C31260  -0.532  11.692  10.248 -0.1353 -0.3386 -0.4831
  973MOL0     C31261  -0.572  11.827  10.325 -0.0306 -0.0439 -0.2603
  973MOL0     C31262  -0.632  11.939  10.241  0.0521 -0.6338 -0.5612
  973MOL0     C31263  -0.639  12.068  10.326 -0.1280  1.1175 -0.2864
  973MOL0     C31264  -0.732  12.165  10.268 -0.0530  0.1693  0.8707
  973MOL0    Cl31265  -0.800  12.271  10.393  0.1082  0.5495 -0.3354
  973MOL0     C31266  -0.323  11.432   9.835 -0.6356 -0.7431 -0.4543
  973MOL0     C31267  -0.380  11.352   9.736  0.2912  0.5404  0.1662
  973MOL0     O31268  -0.332  11.145   9.516 -0.1870 -0.1614 -0.3671
  973MOL0     C31269  -0.541  11.256   9.248 -0.1701 -0.2780  0.6768
  973MOL0     C31270  -0.602  11.219   9.128 -0.7104 -0.9808 -0.2562
  973MOL0     N31271  -0.828  11.513   8.827 -0.0859 -0.0434  0.2947
  973MOL0     N31272  -0.755  11.619   8.792 -0.4246 -0.2978 -0.4929
  973MOL0     C31273   0.304  11.816   8.769 -0.3234  0.5601 -0.2660
  973MOL0     C31274   0.436  11.804   8.825  0.7462 -0.3463 -0.3089
  973MOL0     C31275   0.741  11.581   9.104 -0.4923 -0.6669 -0.6828
  973MOL0     C31276   0.835  11.678   9.069  0.3265  0.3418 -0.3072
  973MOL0     C31277   0.942  11.710   9.160 -0.1593  0.1280 -0.0852
  973MOL0     C31278   0.966  11.630   9.277 -0.6475 -0.4525 -0.2963
  973MOL0     O31279   1.068  11.651   9.366  0.0345 -0.2125 -0.6304
  973MOL0     C31280   1.020  11.714   9.488 -0.2970 -1.1341 -0.1420
  973MOL0     C31281   1.112  11.707   9.613  0.4386  1.2483  0.0682
  973MOL0     C31282   1.257  11.752   9.591  0.8195  0.5939  0.7634
  973MOL0     C31283   1.270  11.906   9.562  0.1781  0.2002  0.5075
  973MOL0     C31284   1.223  11.986   9.676  0.5939 -0.6607  0.3321
  973MOL0     C31285   1.195  12.058   9.772  0.6109 -0.3364 -0.7452
  973MOL0     C31286   0.873  11.537   9.306 -0.9333 -0.0923 -0.8758
  973MOL0     C31287   0.762  11.510   9.225  0.7614 -0.1893 -0.4841
  973MOL0     H31288   0.467  11.466   8.817  1.3087  1.5938 -0.6364
  973MOL0     H31289   0.266  11.484   8.679 -1.1647  2.0461 -0.8239
  973MOL0     H31290   0.093  11.900   8.608 -1.7249 -1.4528  0.4245
  973MOL0     H31291   0.201  11.829   8.473  0.2989 -2.0161 -0.1397
  973MOL0     H31292   0.011  11.912   8.390 -2.1336 -1.2775 -1.4271
  973MOL0     H31293   0.020  11.744   8.351  0.4042  0.0765 -0.6840
  973MOL0     H31294  -0.158  11.692   8.529 -2.2522 -0.7712 -0.4388
  973MOL0     H31295  -0.160  11.855   8.571 -0.6360 -1.5577 -0.5007
  973MOL0     H31296  -0.255  11.900   8.334  2.0730 -0.6722  0.4855
  973MOL0     H31297  -0.237  11.727   8.309 -0.1034 -1.6662  1.2597
  973MOL0     H31298  -0.376  11.727   8.549  1.5666  0.6051 -0.6519
  973MOL0     H31299  -0.437  11.881   8.495 -2.1755 -0.2145  0.9248
  973MOL0     H31300  -0.542  11.788   8.305  0.3429 -0.1798 -1.9642
  973MOL0     H31301  -0.454  11.641   8.306  1.1637  0.2162  0.0222
  973MOL0     H31302  -0.677  11.617   8.380  0.8535 -1.4958 -1.6055
  973MOL0     H31303  -0.564  11.538   8.480 -0.8041 -0.1308 -1.1288
  973MOL0     H31304  -0.718  11.802   8.556  1.2292 -0.5964 -0.0883
  973MOL0     H31305  -0.590  11.761   8.650 -0.1215  0.8269 -0.3963
  973MOL0     H31306  -0.835  11.505   8.498  1.1466 -2.4468  0.5543
  973MOL0     H31307  -1.057  11.347   8.675 -0.8901 -2.4854 -0.3751
  973MOL0     H31308  -0.908  11.296   8.576 -1.0156 -1.3556 -0.7684
  973MOL0     H31309  -0.973  11.135   8.749 -0.6516 -0.5624  1.7282
  973MOL0     H31310  -0.951  11.253   8.865 -0.7201 -0.7240  0.3759
  973MOL0     H31311  -0.696  11.276   8.789  1.9751 -1.0051  1.0376
  973MOL0     H31312  -0.729  11.143   8.683  2.0601 -3.8511  2.6053
  973MOL0     H31313  -0.756  10.992   8.840 -0.0886  1.9506 -3.5006
  973MOL0     H31314  -0.785  11.098   8.971 -0.1438  0.9335 -0.1481
  973MOL0     H31315  -0.435  10.931   9.070 -1.0352 -2.8378  3.1994
  973MOL0     H31316  -0.364  10.926   9.422 -0.6682  5.8222  0.8525
  973MOL0     H31317  -0.332  10.841   9.262  0.7079 -1.4541  2.0415
  973MOL0     H31318  -0.224  10.967   9.324 -1.3003  1.0188  3.3922
  973MOL0     H31319  -0.429  11.571   9.495 -3.9028 -4.0427  0.6257
  973MOL0     H31320  -0.323  11.724   9.685  0.3040 -0.2468  1.9968
  973MOL0     H31321  -0.142  11.550  10.023  2.1969  0.5767 -1.2614
  973MOL0     H31322  -0.139  11.715  10.067 -0.0119 -0.3569  1.6760
  973MOL0     H31323  -0.374  11.519  10.110 -0.3332 -0.6030  2.8349
  973MOL0     H31324  -0.264  11.573  10.238  1.2627  0.3527 -0.1606
  973MOL0     H31325  -0.449  11.769  10.067 -0.6020  1.7511  0.9721
  973MOL0     H31326  -0.345  11.804  10.213  0.7498 -1.4132  1.1216
  973MOL0     H31327  -0.624  11.657  10.199  0.0617  2.3197 -3.0129
  973MOL0     H31328  -0.497  11.615  10.317  0.6249  0.1510 -0.3138
  973MOL0     H31329  -0.486  11.872  10.376 -1.2225  0.8944  1.0117
  973MOL0     H31330  -0.637  11.797  10.408 -0.5125 -0.3275 -0.7405
  973MOL0     H31331  -0.572  11.970  10.155 -0.8004  2.5059 -0.1326
  973MOL0     H31332  -0.732  11.901  10.217 -0.7244  1.6493 -1.1495
  973MOL0     H31333  -0.540  12.112  10.341 -0.4150  0.9824  2.7377
  973MOL0     H31334  -0.672  12.034  10.425 -3.2897  0.9546 -1.2777
  973MOL0     H31335  -0.809  12.116  10.208  0.7054 -1.6573  1.2956
  973MOL0     H31336  -0.685  12.225  10.189 -1.2452 -2.7051 -2.2801
  973MOL0     H31337  -0.300  11.402   9.937  0.3216 -0.3791 -0.5488
  973MOL0     H31338  -0.394  11.244   9.744 -0.5252  0.6300  0.0789
  973MOL0     H31339  -0.568  11.346   9.302  0.4586 -1.0921  2.4191
  973MOL0     H31340  -0.667  11.294   9.084 -1.4174 -1.6277 -0.3297
  973MOL0     H31341   0.247  11.909   8.764 -0.3587  0.6157  0.8174
  973MOL0     H31342   0.488  11.888   8.869 -1.4183  0.3981  0.9525
  973MOL0     H31343   0.826  11.742   8.982  0.2179 -0.6753 -1.0555
  973MOL0     H31344   1.009  11.794   9.145  0.7538 -0.5911 -0.1597
  973MOL0     H31345   0.997  11.819   9.466 -0.8748 -1.5261 -1.5206
  973MOL0     H31346   0.924  11.672   9.521 -1.7284  1.2551 -0.9512
  973MOL0     H31347   1.119  11.604   9.650  1.4493  1.2058 -0.1992
  973MOL0     H31348   1.075  11.768   9.695  2.3227  1.2297  0.9896
  973MOL0     H31349   1.295  11.709   9.498 -1.5617  3.2878 -1.6533
  973MOL0     H31350   1.308  11.719   9.682 -2.7029  0.2411  2.7715
  973MOL0     H31351   1.214  11.926   9.470 -1.8213 -3.8772  0.5978
  973MOL0     H31352   1.377  11.926   9.551  0.5015  0.3922  3.3926
  973MOL0     H31353   1.155  12.129   9.842 -0.2747 -1.0132 -0.5403
  973MOL0     H31354   0.909  11.480   9.391  3.3715  0.9984 -1.7017
  973MOL0     H31355   0.702  11.424   9.255  3.6505 -2.6755 -1.3494
  974MOL0     O31356   6.024   0.660   4.372 -0.5851 -0.3797 -0.0788
  974MOL0     C31357   6.031   0.758   4.450 -0.2505  0.2074  0.1072
  974MOL0     O31358   6.024   0.889   4.424  0.8602  0.6609  0.5444
  974MOL0     C31359   5.970   0.931   4.300 -0.2426  0.0505 -0.8102
  974MOL0     C31360   5.860   0.884   4.240 -0.3784  0.5380 -0.0118
  974MOL0     C31361   5.786   0.939   4.134  0.0473 -0.1148  0.1318
  974MOL0     C31362   5.824   1.069   4.089 -1.4658  0.5734 -0.2257
  974MOL0     O31363   5.766   1.147   3.995 -0.4638 -0.3600 -0.0794
  974MOL0     C31364   5.695   1.077   3.895 -0.4188  0.1325 -0.5461
  974MOL0     C31365   5.644   1.188   3.799 -0.1090 -0.5682 -0.5080
  974MOL0     C31366   5.553   1.130   3.690 -0.0249 -0.2095 -0.1281
  974MOL0     C31367   5.548   1.247   3.586 -0.2723  1.1609 -0.5577
  974MOL0     C31368   5.484   1.206   3.456  0.1980  0.2684 -0.4250
  974MOL0     C31369   5.595   1.135   3.373  0.6210  0.4246  0.5801
  974MOL0     C31370   5.550   1.096   3.226 -0.5349 -0.3034  1.0844
  974MOL0     C31371   5.485   0.954   3.222  0.6121 -0.7181  0.2139
  974MOL0     N31372   5.398   0.940   3.104  0.0872 -0.5644  0.0741
  974MOL0     C31373   5.288   1.013   3.066  0.0077  0.0049  0.4506
  974MOL0     C31374   5.224   0.951   2.959 -0.0869 -0.5324  0.2217
  974MOL0     C31375   5.098   0.994   2.889  0.4758  0.8271  0.7297
  974MOL0     C31376   4.977   0.960   2.969 -0.8597  0.0633 -0.1119
  974MOL0     C31377   4.846   1.048   2.930 -0.2333  0.7136 -0.6489
  974MOL0     C31378   4.726   1.045   3.036 -0.0987 -0.0782  0.2333
  974MOL0     O31379   4.660   0.913   3.055 -0.2897  0.5903  0.7347
  974MOL0     C31380   4.534   0.897   3.090 -0.2979  0.7045 -0.7040
  974MOL0     C31381   4.444   1.003   3.101  0.0920 -0.8110 -0.2544
  974MOL0     C31382   4.321   0.986   3.160 -0.2778  0.3832  0.2925
  974MOL0     C31383   4.223   1.094   3.169 -0.7560 -0.4249 -0.5159
  974MOL0     C31384   4.289   0.855   3.221  0.6267 -0.0131  0.3711
  974MOL0     C31385   4.171   0.839   3.307 -0.0808 -0.0689 -0.1050
  974MOL0     O31386   4.130   0.936   3.395  0.6265 -0.2976  0.0705
  974MOL0     C31387   4.007   0.931   3.449 -0.1006  0.3005 -0.0119
  974MOL0     C31388   4.012   0.923   3.583  0.3654 -0.8779 -0.2578
  974MOL0     C31389   3.897   0.945   3.665 -0.3632  0.4717 -0.4599
  974MOL0     C31390   3.771   0.967   3.611 -0.3586  0.7061 -0.4687
  974MOL0     O31391   3.659   0.982   3.691  0.3566  0.1796 -0.2092
  974MOL0     C31392   3.531   1.025   3.645  0.6390 -0.8009  1.0458
  974MOL0     C31393   3.524   1.164   3.578 -0.8682 -0.4244 -0.8415
  974MOL0     C31394   3.399   1.222   3.513 -0.3394  0.3346 -0.0356
  974MOL0     C31395   3.425   1.362   3.474 -0.6563  0.1601 -0.3930
  974MOL0     C31396   3.293   1.428   3.425 -0.2645 -0.7462  0.0282
  974MOL0     C31397   3.300   1.572   3.369 -0.6598 -0.1529 -0.3536
  974MOL0     C31398   3.171   1.654   3.351 -0.8026  0.6863  0.4793
  974MOL0     C31399   3.156   1.741   3.476 -0.1278 -0.9317 -0.7727
  974MOL0    Cl31400   3.090   1.639   3.623 -0.1820  0.4957 -0.4197
  974MOL0     C31401   3.771   0.961   3.470  0.3312  0.7917 -0.9143
  974MOL0     C31402   3.888   0.956   3.386 -0.7269  0.6452  0.3087
  974MOL0     O31403   4.112   0.730   3.285  0.2960 -0.4165  0.0956
  974MOL0     C31404   4.375   0.752   3.197 -0.4935  0.5976  0.2814
  974MOL0     C31405   4.501   0.772   3.136 -1.1918  0.6215  0.3217
  974MOL0     N31406   5.303   0.838   2.931 -0.4895  0.0177 -0.7996
  974MOL0     N31407   5.402   0.835   3.013 -0.7026  0.4921 -0.3170
  974MOL0     C31408   5.936   1.127   4.160  0.0034  0.2733 -0.0828
  974MOL0     C31409   6.017   1.054   4.251  0.5925 -1.0991  0.8187
  974MOL0     C31410   6.052   0.729   4.592 -0.6165  0.0510 -0.2146
  974MOL0     C31411   6.013   0.610   4.646  0.5551  0.0031 -0.6110
  974MOL0     C31412   5.999   0.590   4.783 -0.6359  0.4742  0.2084
  974MOL0     C31413   6.056   0.671   4.870  0.4577  0.5264 -0.3744
  974MOL0     O31414   6.075   0.621   4.992  0.1536 -0.5463 -0.1932
  974MOL0     C31415   6.179   0.690   5.074 -0.7114 -0.2003 -0.1600
  974MOL0     C31416   6.160   0.698   5.228 -0.3819  0.2514 -0.6868
  974MOL0     C31417   6.191   0.564   5.298  0.8451  0.0556  0.3366
  974MOL0     C31418   6.172   0.572   5.445 -0.2028 -0.1825 -0.1164
  974MOL0     C31419   6.272   0.667   5.504  0.0554  0.7025 -0.1620
  974MOL0     C31420   6.369   0.747   5.520 -0.3466  0.5397 -0.3136
  974MOL0     C31421   6.082   0.803   4.817 -0.2243 -1.1896 -0.0433
  974MOL0     C31422   6.079   0.836   4.680 -0.2408  0.4383  0.3759
  974MOL0     H31423   5.826   0.792   4.286  0.9803 -0.3317 -0.6808
  974MOL0     H31424   5.692   0.899   4.100 -0.7993  1.8279  0.0245
  974MOL0     H31425   5.768   1.008   3.853  2.0881  1.3386  1.5140
  974MOL0     H31426   5.608   1.025   3.936 -0.7093  0.6019 -0.5628
  974MOL0     H31427   5.600   1.261   3.868  1.2185 -0.2752  0.0428
  974MOL0     H31428   5.729   1.242   3.756 -0.9274  0.7955 -0.4844
  974MOL0     H31429   5.600   1.043   3.643 -0.8664 -1.1585  0.7463
  974MOL0     H31430   5.455   1.119   3.736  0.4309 -0.2478  0.8482
  974MOL0     H31431   5.482   1.322   3.632 -0.0476  2.1146 -1.7240
  974MOL0     H31432   5.645   1.296   3.568  0.5661  0.0973  0.8659
  974MOL0     H31433   5.396   1.147   3.480 -1.8867  2.9108 -1.1568
  974MOL0     H31434   5.459   1.295   3.398  2.2657  0.3838 -1.2435
  974MOL0     H31435   5.673   1.211   3.363 -1.2639  2.3321 -0.4578
  974MOL0     H31436   5.632   1.044   3.421  0.3215  0.5492  1.0539
  974MOL0     H31437   5.480   1.165   3.177 -2.7901 -2.7349  0.6694
  974MOL0     H31438   5.640   1.098   3.164 -1.1292 -1.0607  0.1749
  974MOL0     H31439   5.414   0.935   3.303  0.1003  0.8043  0.1686
  974MOL0     H31440   5.568   0.883   3.223 -0.1397 -1.6257  0.0153
  974MOL0     H31441   5.261   1.113   3.099 -1.3976 -0.6937  1.5217
  974MOL0     H31442   5.102   1.101   2.869  1.7280  0.2824 -2.6902
  974MOL0     H31443   5.100   0.954   2.787 -0.6286  0.1080  0.9763
  974MOL0     H31444   4.988   0.966   3.077  0.0888  0.7325 -0.2351
  974MOL0     H31445   4.964   0.853   2.953 -2.0733  0.2654 -0.6183
  974MOL0     H31446   4.814   1.005   2.835 -1.2435 -3.4107  1.3263
  974MOL0     H31447   4.869   1.154   2.918 -0.4096  0.6517 -1.5802
  974MOL0     H31448   4.654   1.117   2.996 -0.9441 -0.4167  1.1305
  974MOL0     H31449   4.766   1.083   3.131  1.0273 -0.4702 -0.0624
  974MOL0     H31450   4.453   1.105   3.065 -0.1636 -0.5645  0.3689
  974MOL0     H31451   4.202   1.119   3.273 -0.4791  0.6145 -0.6891
  974MOL0     H31452   4.252   1.190   3.124  1.4956  0.5546  2.6216
  974MOL0     H31453   4.136   1.057   3.114 -0.5504  0.3792 -1.4261
  974MOL0     H31454   4.110   0.909   3.627  0.1181  0.2401  0.7240
  974MOL0     H31455   3.910   0.952   3.773 -1.4090 -1.2543 -0.1901
  974MOL0     H31456   3.491   0.943   3.586  0.1891  0.1575 -0.0253
  974MOL0     H31457   3.469   1.041   3.734  0.0363  2.1565  0.2190
  974MOL0     H31458   3.556   1.219   3.667  2.6339  0.2071 -2.3017
  974MOL0     H31459   3.607   1.160   3.507  1.7488 -0.4388  2.0221
  974MOL0     H31460   3.321   1.225   3.590  0.3189 -1.9279  0.7970
  974MOL0     H31461   3.376   1.173   3.418  3.7953  2.5363 -2.4641
  974MOL0     H31462   3.465   1.412   3.562 -1.7451  0.1386  0.1235
  974MOL0     H31463   3.495   1.371   3.390 -0.9446 -1.0607 -0.7856
  974MOL0     H31464   3.227   1.429   3.512 -0.6499 -1.0521 -0.2610
  974MOL0     H31465   3.252   1.370   3.342  1.1864 -1.2953 -0.3430
  974MOL0     H31466   3.373   1.625   3.430  0.3341 -2.8585  0.9722
  974MOL0     H31467   3.345   1.566   3.269 -1.2257  2.9954 -0.8996
  974MOL0     H31468   3.089   1.584   3.335  0.2234 -0.5672  0.4942
  974MOL0     H31469   3.180   1.721   3.265 -2.1855 -1.0421 -1.1041
  974MOL0     H31470   3.078   1.816   3.459 -1.0985 -1.9543 -1.0321
  974MOL0     H31471   3.253   1.781   3.504  0.2442 -2.5241  0.3979
  974MOL0     H31472   3.677   0.986   3.421  0.4822  1.3249 -0.9306
  974MOL0     H31473   3.889   0.975   3.279 -2.5040  2.3643  0.5430
  974MOL0     H31474   4.357   0.652   3.234 -2.6794  0.8506  0.0134
  974MOL0     H31475   4.563   0.684   3.120 -0.1991  1.3906 -0.1658
  974MOL0     H31476   5.972   1.226   4.133  0.2077  0.7963  1.9391
  974MOL0     H31477   6.106   1.094   4.299  0.1405  1.0492 -0.0097
  974MOL0     H31478   5.962   0.536   4.586 -3.4081  2.9677 -1.3120
  974MOL0     H31479   5.962   0.498   4.828  1.7700 -0.5634  0.2177
  974MOL0     H31480   6.275   0.642   5.051 -0.2581 -0.0131  1.2792
  974MOL0     H31481   6.186   0.796   5.050  2.9162 -0.0054  1.2003
  974MOL0     H31482   6.055   0.719   5.248 -0.5934 -1.0016 -0.4248
  974MOL0     H31483   6.217   0.781   5.272 -0.8374  0.6098 -0.7566
  974MOL0     H31484   6.295   0.538   5.273  1.0548 -0.4695  1.6602
  974MOL0     H31485   6.133   0.490   5.243  2.9424 -0.6930 -0.9851
  974MOL0     H31486   6.189   0.476   5.493 -0.3809 -1.3958 -2.3327
  974MOL0     H31487   6.071   0.611   5.463  1.1799  3.3352  1.0211
  974MOL0     H31488   6.454   0.812   5.528  0.1662 -0.3211  1.6299
  974MOL0     H31489   6.103   0.886   4.884  1.2657 -0.4601 -1.3481
  974MOL0     H31490   6.093   0.942   4.664 -1.1806  0.5825  0.4450
  975MOL0     O31491   6.273   9.352   7.457  0.4443 -0.6342 -0.8148
  975MOL0     C31492   6.233   9.430   7.369  0.0706  0.9537  0.9035
  975MOL0     O31493   6.175   9.547   7.391  0.1790 -1.0468  1.0441
  975MOL0     C31494   6.183   9.608   7.509 -0.9870  0.9128  0.5013
  975MOL0     C31495   6.078   9.584   7.601 -0.3008 -0.3462 -0.0330
  975MOL0     C31496   6.074   9.650   7.728  0.1492 -0.6368  0.6054
  975MOL0     C31497   6.165   9.752   7.756 -1.4813 -0.4607  0.5220
  975MOL0     O31498   6.153   9.823   7.876  0.2124  0.1300  0.8944
  975MOL0     C31499   6.277   9.840   7.945  0.2664 -0.0900  1.2117
  975MOL0     C31500   6.237   9.856   8.102  0.2569  0.3774  1.1507
  975MOL0     C31501   6.365   9.864   8.182 -0.0397 -0.5809 -0.5341
  975MOL0     C31502   6.347   9.834   8.334  0.3323  0.0306  0.0896
  975MOL0     C31503   6.455   9.890   8.434 -0.2682 -0.7134 -0.6790
  975MOL0     C31504   6.454  10.046   8.460  0.5350 -0.2184 -0.4778
  975MOL0     C31505   6.531  10.066   8.582 -0.2948 -0.6691 -0.3299
  975MOL0     C31506   6.548  10.213   8.613  0.7058 -0.3702  0.1621
  975MOL0     N31507   6.649  10.272   8.517 -0.1333 -1.5527 -0.2794
  975MOL0     C31508   6.790  10.245   8.504 -0.0519 -0.1050  0.4661
  975MOL0     C31509   6.830  10.348   8.421  0.0306 -0.1149  0.3632
  975MOL0     C31510   6.961  10.397   8.389 -0.5482 -0.0415  0.7379
  975MOL0     C31511   7.022  10.487   8.491 -0.5422 -0.1979  0.0123
  975MOL0     C31512   7.172  10.542   8.486  1.3015  0.6579  0.2269
  975MOL0     C31513   7.251  10.428   8.554  0.0335  0.1635 -0.1630
  975MOL0     O31514   7.390  10.461   8.551 -0.7875  0.1812  0.1615
  975MOL0     C31515   7.475  10.371   8.614 -0.2788 -0.8162 -0.9558
  975MOL0     C31516   7.610  10.406   8.639 -0.0371 -0.3638  0.2630
  975MOL0     C31517   7.703  10.308   8.698 -0.0495  0.2556  0.3458
  975MOL0     C31518   7.838  10.353   8.717 -1.0566  0.4488 -0.0489
  975MOL0     C31519   7.656  10.187   8.742  0.2189 -0.3623 -0.1868
  975MOL0     C31520   7.735  10.078   8.817 -0.3498  0.4568  0.1061
  975MOL0     O31521   7.876  10.095   8.834  0.4121 -0.2060 -0.6029
  975MOL0     C31522   7.961   9.999   8.890 -0.5985  0.7189 -1.1089
  975MOL0     C31523   8.091  10.036   8.908 -0.3443 -0.5389  0.0612
  975MOL0     C31524   8.183   9.963   8.978 -1.2924 -0.6483 -0.1494
  975MOL0     C31525   8.149   9.835   9.027 -0.0550 -0.7780  0.2205
  975MOL0     O31526   8.244   9.776   9.113  0.3832 -0.4950  0.2518
  975MOL0     C31527   8.212   9.694   9.217  0.8202  0.6636 -0.3115
  975MOL0     C31528   8.345   9.674   9.291 -0.0965  1.0227 -0.4446
  975MOL0     C31529   8.393   9.797   9.369  1.0843  0.4513 -0.4685
  975MOL0     C31530   8.325   9.812   9.505 -0.2831  0.2275  1.4278
  975MOL0     C31531   8.387   9.724   9.618 -0.6570 -0.6285 -0.0333
  975MOL0     C31532   8.510   9.784   9.690  0.6525 -0.0498  0.1905
  975MOL0     C31533   8.655   9.783   9.628  0.1940  0.9470  0.1244
  975MOL0     C31534   8.755   9.827   9.744 -1.1476  0.3699 -0.1792
  975MOL0    Cl31535   8.925   9.777   9.697 -0.2118  0.0098 -0.1119
  975MOL0     C31536   8.024   9.783   8.990 -0.4811  0.3714  0.3615
  975MOL0     C31537   7.933   9.864   8.920 -0.0809 -0.4369  1.1984
  975MOL0     O31538   7.676   9.970   8.848 -0.4202 -0.4488 -0.1912
  975MOL0     C31539   7.524  10.158   8.712  0.4552 -0.2873 -0.0476
  975MOL0     C31540   7.438  10.248   8.655 -0.8185 -0.6270  0.3745
  975MOL0     N31541   6.730  10.418   8.375 -0.2422  0.9937  0.2793
  975MOL0     N31542   6.616  10.362   8.414  0.5655  0.3350 -1.1829
  975MOL0     C31543   6.262   9.777   7.662 -0.0184 -0.2843  0.4947
  975MOL0     C31544   6.286   9.701   7.543 -0.6122 -0.4460 -1.0422
  975MOL0     C31545   6.244   9.384   7.232 -0.1345 -1.1343 -1.0382
  975MOL0     C31546   6.167   9.445   7.127  0.5527 -0.4250  0.6301
  975MOL0     C31547   6.189   9.408   6.992 -0.0893 -0.0846  0.5897
  975MOL0     C31548   6.261   9.301   6.953  0.2706  0.1781 -1.0291
  975MOL0     O31549   6.284   9.284   6.822  0.7447  0.8524  0.0614
  975MOL0     C31550   6.386   9.372   6.769 -0.3312 -0.3821  0.0717
  975MOL0     C31551   6.398   9.356   6.621  0.1940  0.9985 -1.5607
  975MOL0     C31552   6.515   9.433   6.555  0.0358  0.4403 -0.2343
  975MOL0     C31553   6.458   9.497   6.424 -0.0349 -0.0863 -1.2615
  975MOL0     C31554   6.386   9.622   6.452  0.4376  0.6409  0.4829
  975MOL0     C31555   6.343   9.732   6.488  0.6426 -0.0264  0.2123
  975MOL0     C31556   6.333   9.237   7.055 -0.9815 -0.5312 -0.3320
  975MOL0     C31557   6.328   9.279   7.191  0.4745  1.1598  0.4687
  975MOL0     H31558   6.004   9.511   7.569  1.5208 -2.2259 -0.1486
  975MOL0     H31559   5.984   9.631   7.785 -0.6487  0.2991 -0.2906
  975MOL0     H31560   6.356   9.766   7.929 -0.2195 -0.7581  1.8440
  975MOL0     H31561   6.315   9.940   7.922  0.3036  0.2083  2.5237
  975MOL0     H31562   6.171   9.942   8.118  2.9430  3.1472 -1.1684
  975MOL0     H31563   6.194   9.759   8.127 -0.7719 -0.0188 -1.7624
  975MOL0     H31564   6.446   9.803   8.143 -0.8874 -0.0856 -3.3203
  975MOL0     H31565   6.404   9.966   8.188 -2.1535  0.1927  1.4659
  975MOL0     H31566   6.254   9.872   8.376  0.2955  0.9732 -0.8215
  975MOL0     H31567   6.333   9.725   8.339  1.3130 -0.0803  0.7800
  975MOL0     H31568   6.434   9.843   8.531  1.0090  2.5627  1.3674
  975MOL0     H31569   6.554   9.858   8.402  0.2550  1.2288 -1.1247
  975MOL0     H31570   6.482  10.106   8.373 -1.6606  2.3755  0.4751
  975MOL0     H31571   6.355  10.078   8.494  0.6754 -1.3175  1.0757
  975MOL0     H31572   6.477  10.023   8.667 -1.3397  0.1174 -0.5736
  975MOL0     H31573   6.629  10.019   8.574 -0.4462 -0.7014 -2.9239
  975MOL0     H31574   6.587  10.235   8.713 -0.4083  3.0839 -0.0378
  975MOL0     H31575   6.453  10.264   8.599  0.6996  0.0348  1.5228
  975MOL0     H31576   6.860  10.185   8.561  1.8705  0.4208 -1.2448
  975MOL0     H31577   7.010  10.299   8.378 -2.7431 -1.1711  0.4899
  975MOL0     H31578   6.955  10.455   8.296 -0.0112 -1.4832 -0.2396
  975MOL0     H31579   7.023  10.443   8.591 -0.9479  1.5496  0.8284
  975MOL0     H31580   6.972  10.584   8.501  2.1679  1.2167  0.8989
  975MOL0     H31581   7.192  10.625   8.555  0.5185 -2.1337  4.1378
  975MOL0     H31582   7.209  10.571   8.387  0.0383  0.4540 -0.3272
  975MOL0     H31583   7.233  10.338   8.495  0.6864  0.0522 -0.1963
  975MOL0     H31584   7.225  10.405   8.658  2.5076 -2.9810 -0.0975
  975MOL0     H31585   7.631  10.510   8.615  2.0278 -0.9895 -0.8820
  975MOL0     H31586   7.907  10.298   8.653  1.3973  3.4852 -0.2611
  975MOL0     H31587   7.845  10.455   8.677 -2.0287  0.2425 -0.7794
  975MOL0     H31588   7.879  10.356   8.819 -0.0259 -0.4303 -0.4152
  975MOL0     H31589   8.109  10.140   8.884  1.0963  0.6423  5.1615
  975MOL0     H31590   8.283   9.998   9.000 -0.9180 -2.7020  1.8190
  975MOL0     H31591   8.138   9.735   9.285 -0.3989 -2.5909  0.5329
  975MOL0     H31592   8.161   9.604   9.180  0.6857  0.4886  0.2805
  975MOL0     H31593   8.331   9.582   9.349  1.1712 -0.1382 -1.8624
  975MOL0     H31594   8.428   9.634   9.231 -1.9512 -2.1845 -1.1089
  975MOL0     H31595   8.376   9.886   9.307  0.9192  1.9781  1.6382
  975MOL0     H31596   8.499   9.778   9.389  1.3308  1.0309 -1.1803
  975MOL0     H31597   8.314   9.914   9.542  1.1590  0.9573 -0.0506
  975MOL0     H31598   8.223   9.776   9.491  0.3091 -1.9446  2.2752
  975MOL0     H31599   8.408   9.623   9.582 -0.2544 -0.4656 -0.2618
  975MOL0     H31600   8.305   9.714   9.690  0.6718 -0.4415  1.5785
  975MOL0     H31601   8.494   9.891   9.706 -0.3048 -0.5159  3.0967
  975MOL0     H31602   8.525   9.735   9.787  0.1288 -2.2779 -0.7956
  975MOL0     H31603   8.657   9.858   9.548  0.6589 -0.0060 -0.7787
  975MOL0     H31604   8.667   9.679   9.596  1.2458 -0.0893  3.4259
  975MOL0     H31605   8.740   9.780   9.841 -2.0199  1.2995  0.1499
  975MOL0     H31606   8.733   9.934   9.746 -1.6808  0.2517  1.8904
  975MOL0     H31607   7.998   9.680   9.011 -0.2958  0.2936  0.2021
  975MOL0     H31608   7.842   9.821   8.881 -1.9223  3.4266  0.7932
  975MOL0     H31609   7.467  10.073   8.748  1.4941 -0.6844  0.7179
  975MOL0     H31610   7.333  10.221   8.655 -0.5723 -1.8907 -2.0305
  975MOL0     H31611   6.328   9.857   7.696 -1.0445  0.2920  1.1699
  975MOL0     H31612   6.368   9.732   7.478  0.5259  0.3374  0.6961
  975MOL0     H31613   6.088   9.516   7.146  0.7199  0.6175 -2.1090
  975MOL0     H31614   6.130   9.470   6.926 -1.8384  3.5008  5.0124
  975MOL0     H31615   6.360   9.477   6.783 -3.3435 -0.0536 -5.2221
  975MOL0     H31616   6.489   9.352   6.798  0.8225 -0.7671 -3.7015
  975MOL0     H31617   6.300   9.393   6.587 -1.9879 -1.7337  1.1812
  975MOL0     H31618   6.400   9.248   6.602 -4.1993  0.5116 -0.4616
  975MOL0     H31619   6.599   9.365   6.541  0.1109 -0.3482  3.0765
  975MOL0     H31620   6.543   9.519   6.617  2.4925  1.3716 -2.4583
  975MOL0     H31621   6.394   9.428   6.368  0.4088 -1.8984  0.3588
  975MOL0     H31622   6.546   9.522   6.365  1.2789 -1.0522  0.1884
  975MOL0     H31623   6.302   9.825   6.524 -0.4270  0.0223 -1.0564
  975MOL0     H31624   6.404   9.158   7.032 -1.6644 -1.0168 -0.7988
  975MOL0     H31625   6.387   9.230   7.267 -0.6863 -1.2295 -0.0772
  976MOL0     O31626   8.934   4.482   2.037 -0.0978  0.4605  0.1624
  976MOL0     C31627   9.015   4.557   2.008 -0.2031  0.7810  1.5097
  976MOL0     O31628   9.093   4.550   1.897 -0.1288 -0.3976  0.4734
  976MOL0     C31629   9.098   4.443   1.814  0.1419  0.0260  0.0278
  976MOL0     C31630   9.058   4.306   1.848 -0.1170  0.0658 -0.1714
  976MOL0     C31631   9.075   4.204   1.753  0.2460  0.2390 -0.3027
  976MOL0     C31632   9.132   4.234   1.631 -0.5003  0.2630 -0.3329
  976MOL0     O31633   9.155   4.128   1.545 -0.0658 -0.0643 -0.5603
  976MOL0     C31634   9.225   4.008   1.595  0.9411  0.2059 -0.3288
  976MOL0     C31635   9.304   3.953   1.480 -0.6071 -0.4919 -0.2482
  976MOL0     C31636   9.405   4.059   1.434  0.0787 -0.6137  0.5964
  976MOL0     C31637   9.509   4.004   1.340 -0.4654 -0.2441 -0.1833
  976MOL0     C31638   9.463   3.976   1.194  0.2589 -0.3508  0.2828
  976MOL0     C31639   9.572   3.905   1.108 -0.7049 -0.3818  0.2501
  976MOL0     C31640   9.537   3.908   0.959  0.3051 -0.4130 -0.4946
  976MOL0     C31641   9.647   3.843   0.869 -0.3780 -0.4279 -0.6619
  976MOL0     N31642   9.612   3.825   0.732 -0.4148 -0.3288 -0.8264
  976MOL0     C31643   9.637   3.910   0.626 -0.6417 -0.0240 -0.9637
  976MOL0     C31644   9.576   3.859   0.521  0.3207 -0.0320 -0.2561
  976MOL0     C31645   9.558   3.920   0.387  0.2166  0.8862 -0.7532
  976MOL0     C31646   9.678   3.989   0.326  0.2306  0.3359 -0.4717
  976MOL0     C31647   9.640   4.072   0.213  0.0541  1.1942  1.6595
  976MOL0     C31648   9.578   3.992   0.090 -0.2062  0.2485 -0.5028
  976MOL0     O31649   9.546   4.084  -0.015 -0.4601 -0.1170  0.6331
  976MOL0     C31650   9.591   4.052  -0.140  0.0545 -0.4759  0.3803
  976MOL0     C31651   9.713   3.995  -0.170  0.3927  1.1470  0.2049
  976MOL0     C31652   9.761   3.977  -0.301 -0.4497 -0.4593  0.1023
  976MOL0     C31653   9.897   3.903  -0.327  0.2019 -0.3259 -0.6117
  976MOL0     C31654   9.682   4.029  -0.408 -0.1306 -0.9191 -0.8471
  976MOL0     C31655   9.714   4.022  -0.555 -0.0265  0.2162 -0.1559
  976MOL0     O31656   9.667   4.118  -0.633 -0.2857  0.4004  1.0331
  976MOL0     C31657   9.695   4.116  -0.768  0.5674 -1.2483 -0.4649
  976MOL0     C31658   9.801   4.200  -0.815  0.8244  0.2694 -0.0404
  976MOL0     C31659   9.804   4.232  -0.952 -0.5178  0.8643 -0.1138
  976MOL0     C31660   9.713   4.171  -1.043  0.8054  0.0436  0.4524
  976MOL0     O31661   9.718   4.186  -1.184 -0.1558 -0.1205 -0.2264
  976MOL0     C31662   9.795   4.291  -1.242  0.5431  0.4894  0.2945
  976MOL0     C31663   9.813   4.264  -1.389 -0.0140  0.4329  0.4349
  976MOL0     C31664   9.883   4.384  -1.464  0.0539  0.5490  0.1982
  976MOL0     C31665   9.921   4.366  -1.608  0.6223 -0.4985 -0.7682
  976MOL0     C31666   9.970   4.494  -1.674 -0.2104  1.1356  1.3609
  976MOL0     C31667  10.104   4.543  -1.614  0.5794  0.8819  0.4845
  976MOL0     C31668  10.157   4.656  -1.706 -0.4375 -0.3322  1.0148
  976MOL0     C31669  10.091   4.786  -1.668  0.2203  0.4925 -0.6939
  976MOL0    Cl31670  10.138   4.845  -1.511  0.3881  0.0210  0.5494
  976MOL0     C31671   9.630   4.076  -0.993  0.0618  0.3532  0.2961
  976MOL0     C31672   9.615   4.040  -0.856  1.3037 -0.1840  0.2291
  976MOL0     O31673   9.785   3.930  -0.589 -0.4835  0.3961  1.0513
  976MOL0     C31674   9.558   4.090  -0.375 -1.0332 -0.3456  0.3685
  976MOL0     C31675   9.520   4.109  -0.245  0.3313  0.4988  0.1158
  976MOL0     N31676   9.512   3.743   0.567  0.4253  1.0107 -0.0161
  976MOL0     N31677   9.528   3.721   0.689 -0.2786  0.2232  0.0052
  976MOL0     C31678   9.169   4.363   1.596 -1.0538 -0.6703  0.3055
  976MOL0     C31679   9.152   4.463   1.690  0.7856 -0.1116  0.2592
  976MOL0     C31680   9.041   4.682   2.088 -0.4039  0.2753  0.0067
  976MOL0     C31681   9.140   4.773   2.043  0.0957  0.8706  0.2559
  976MOL0     C31682   9.185   4.873   2.136 -0.5193 -0.1806  0.2221
  976MOL0     C31683   9.125   4.888   2.263  2.2037  0.9436  0.3799
  976MOL0     O31684   9.162   4.972   2.364 -0.1275 -0.0797  0.0021
  976MOL0     C31685   9.186   5.111   2.338 -0.4367  0.5224 -0.5679
  976MOL0     C31686   9.325   5.157   2.401 -0.0376  0.1703  0.0143
  976MOL0     C31687   9.445   5.087   2.339  0.4874 -0.4795 -0.1995
  976MOL0     C31688   9.485   5.121   2.194  0.5665  0.6856 -1.0285
  976MOL0     C31689   9.629   5.123   2.173  0.0890 -0.2514 -0.3837
  976MOL0     C31690   9.750   5.114   2.172  0.7279  0.6046  0.9939
  976MOL0     C31691   9.010   4.805   2.290  0.0388  0.7575 -0.4011
  976MOL0     C31692   8.970   4.703   2.205 -0.9129  0.8120  0.0880
  976MOL0     H31693   9.024   4.279   1.947  2.1577 -1.7460  0.1967
  976MOL0     H31694   9.037   4.104   1.772 -1.6107  1.1323  0.9623
  976MOL0     H31695   9.287   4.035   1.681  0.0848 -1.8801  1.0269
  976MOL0     H31696   9.148   3.933   1.614  0.4338 -0.3393 -3.8890
  976MOL0     H31697   9.359   3.863   1.510  0.2915 -0.7139 -2.4115
  976MOL0     H31698   9.240   3.914   1.401  0.3313 -0.1667 -1.1852
  976MOL0     H31699   9.357   4.142   1.382  0.3689  0.3140  1.7610
  976MOL0     H31700   9.448   4.108   1.521 -0.9466 -1.9135  1.8797
  976MOL0     H31701   9.581   4.087   1.334 -3.1983  2.6520  3.0590
  976MOL0     H31702   9.563   3.919   1.381 -0.8674 -0.5240 -0.2316
  976MOL0     H31703   9.383   3.903   1.203 -1.4951  1.0731 -2.3463
  976MOL0     H31704   9.433   4.063   1.134  0.7857  0.1523  0.7322
  976MOL0     H31705   9.662   3.964   1.128 -2.8232  3.8010 -1.3561
  976MOL0     H31706   9.584   3.807   1.154 -0.8430  1.3630  4.4410
  976MOL0     H31707   9.439   3.862   0.940  0.0706  0.1645 -0.6956
  976MOL0     H31708   9.520   4.014   0.938  3.3710  0.0629 -1.0573
  976MOL0     H31709   9.663   3.742   0.908  0.7969 -1.5559 -3.7235
  976MOL0     H31710   9.741   3.900   0.867  0.0709 -1.1353 -0.1855
  976MOL0     H31711   9.701   3.997   0.632  1.6115 -1.7001  1.0784
  976MOL0     H31712   9.533   3.835   0.323  0.8621  0.3263 -0.2800
  976MOL0     H31713   9.476   3.992   0.395 -1.5244 -1.2293  3.2221
  976MOL0     H31714   9.747   3.909   0.299  1.9956  0.2673  3.5341
  976MOL0     H31715   9.729   4.049   0.402 -1.4788  1.0869  0.1459
  976MOL0     H31716   9.729   4.116   0.167 -0.0250  0.7032  1.0216
  976MOL0     H31717   9.571   4.151   0.244 -0.2951  1.7696 -0.4488
  976MOL0     H31718   9.483   3.944   0.115 -0.3986  1.6398  1.7148
  976MOL0     H31719   9.645   3.911   0.060  0.1315  0.3959 -0.1463
  976MOL0     H31720   9.759   3.937  -0.091  0.3226 -1.1604 -1.3380
  976MOL0     H31721   9.902   3.796  -0.348  2.3142 -0.5733  0.7684
  976MOL0     H31722   9.949   3.955  -0.408  3.9309 -1.8847  0.5598
  976MOL0     H31723   9.965   3.913  -0.242  0.0884  0.5407 -0.6066
  976MOL0     H31724   9.868   4.252  -0.748  1.8486  0.0998 -0.9006
  976MOL0     H31725   9.870   4.313  -0.979  0.1461  0.2261 -0.4317
  976MOL0     H31726   9.741   4.386  -1.239  1.9343  1.4884 -2.5860
  976MOL0     H31727   9.893   4.297  -1.193 -0.5945  1.5573  2.6179
  976MOL0     H31728   9.871   4.173  -1.399  1.2374  1.0829  1.4928
  976MOL0     H31729   9.714   4.253  -1.434  1.5075 -1.5220 -2.7567
  976MOL0     H31730   9.980   4.389  -1.414  1.7784 -0.5356 -2.8089
  976MOL0     H31731   9.839   4.479  -1.433  1.1146  0.5950  1.6642
  976MOL0     H31732  10.002   4.292  -1.615 -0.2134 -1.5209  0.0417
  976MOL0     H31733   9.830   4.335  -1.661 -1.7765  1.3423  1.9834
  976MOL0     H31734   9.902   4.580  -1.675 -1.1235  0.4500 -0.7766
  976MOL0     H31735   9.981   4.461  -1.778 -0.8866  2.0482  0.9780
  976MOL0     H31736  10.096   4.585  -1.513 -1.6481  1.8325 -0.0315
  976MOL0     H31737  10.171   4.457  -1.604  0.7702  0.7574 -1.4192
  976MOL0     H31738  10.131   4.633  -1.810 -0.9127 -0.2760  1.1190
  976MOL0     H31739  10.265   4.672  -1.696 -0.2067 -1.8924  1.2750
  976MOL0     H31740   9.983   4.771  -1.673  0.0946  1.4465 -1.0772
  976MOL0     H31741  10.120   4.862  -1.741  1.7581 -0.3460 -0.9906
  976MOL0     H31742   9.569   4.035  -1.073 -0.5019  1.9537 -0.1367
  976MOL0     H31743   9.535   3.975  -0.822 -1.7821  2.7491 -0.9150
  976MOL0     H31744   9.495   4.141  -0.447 -0.3288  3.2143  2.0628
  976MOL0     H31745   9.437   4.172  -0.218  2.1281  2.8774  0.4061
  976MOL0     H31746   9.213   4.375   1.498  2.7338  0.9949  2.0080
  976MOL0     H31747   9.181   4.561   1.655  0.0022 -0.7545 -2.4723
  976MOL0     H31748   9.179   4.751   1.945 -1.8296 -1.4763 -0.0996
  976MOL0     H31749   9.260   4.947   2.109 -1.3549  0.2930 -0.8854
  976MOL0     H31750   9.190   5.130   2.230 -1.7340  0.5222 -0.6319
  976MOL0     H31751   9.098   5.162   2.377 -0.8548  0.7604 -1.7656
  976MOL0     H31752   9.322   5.134   2.508 -1.3390 -2.6064 -0.5236
  976MOL0     H31753   9.333   5.266   2.405 -0.5371  0.1783  2.4697
  976MOL0     H31754   9.423   4.980   2.342  0.0499 -0.5174 -2.7907
  976MOL0     H31755   9.527   5.107   2.408  0.6431 -3.4724  0.5844
  976MOL0     H31756   9.445   5.221   2.172 -1.0720  0.6429  1.3939
  976MOL0     H31757   9.434   5.057   2.121 -0.1530 -0.9784  0.8614
  976MOL0     H31758   9.857   5.105   2.160  0.4756 -1.9188  0.0754
  976MOL0     H31759   8.960   4.821   2.384 -0.9181  0.3687 -0.8268
  976MOL0     H31760   8.888   4.644   2.243  1.7782 -0.9652  3.7454
  977MOL0     O31761   6.691   7.499   7.680 -0.3102 -0.2038  0.6001
  977MOL0     C31762   6.643   7.604   7.630  1.0911  0.0644 -0.0311
  977MOL0     O31763   6.677   7.737   7.652  0.5412 -0.4556 -0.6936
  977MOL0     C31764   6.736   7.776   7.772 -0.4655  0.2923  0.0551
  977MOL0     C31765   6.669   7.879   7.844 -0.2077 -0.2330  0.4419
  977MOL0     C31766   6.719   7.912   7.970 -0.1016 -0.8379  0.1815
  977MOL0     C31767   6.829   7.851   8.019  0.3785  0.5758  0.5354
  977MOL0     O31768   6.887   7.896   8.132  0.1355  0.1712  0.5367
  977MOL0     C31769   6.861   7.814   8.252 -0.6958 -0.5341 -0.1174
  977MOL0     C31770   6.791   7.898   8.359  0.0374  0.5101  0.9208
  977MOL0     C31771   6.726   7.832   8.484  0.2700 -0.0915 -0.4078
  977MOL0     C31772   6.834   7.804   8.593  0.1727  0.4278 -0.1301
  977MOL0     C31773   6.785   7.702   8.700  0.9690 -0.0969 -0.5581
  977MOL0     C31774   6.899   7.685   8.804  0.0183  0.3043 -0.9465
  977MOL0     C31775   6.841   7.624   8.934 -1.0165 -0.4360 -0.9027
  977MOL0     C31776   6.963   7.605   9.029  0.0873  0.5104  0.0682
  977MOL0     N31777   6.963   7.475   9.103  0.0152 -0.6007  0.3503
  977MOL0     C31778   6.906   7.477   9.219  0.8134  0.0765  0.5250
  977MOL0     C31779   6.944   7.373   9.286  0.3125  0.0559  0.6429
  977MOL0     C31780   6.898   7.331   9.414  0.8314  0.6232  0.2820
  977MOL0     C31781   6.771   7.259   9.399 -0.5543  0.2413 -0.8283
  977MOL0     C31782   6.785   7.109   9.363  0.9983 -0.0758 -0.3470
  977MOL0     C31783   6.792   7.021   9.480 -0.5335  0.2889 -0.1433
  977MOL0     O31784   6.876   6.915   9.434 -0.3067 -0.5556 -0.5969
  977MOL0     C31785   6.859   6.786   9.480 -0.2315 -0.5786 -0.7263
  977MOL0     C31786   6.926   6.678   9.417  0.7391 -0.0378 -0.6255
  977MOL0     C31787   6.894   6.541   9.440 -1.0165 -0.4276 -0.1023
  977MOL0     C31788   6.950   6.436   9.347  0.1486 -0.3744  0.0967
  977MOL0     C31789   6.822   6.501   9.562  0.1749 -0.2044 -0.1856
  977MOL0     C31790   6.794   6.362   9.615  0.3781  0.1564  1.1858
  977MOL0     O31791   6.870   6.258   9.571 -1.0601 -0.2422 -0.0263
  977MOL0     C31792   6.800   6.143   9.535 -0.7283 -0.5851 -0.3378
  977MOL0     C31793   6.825   6.091   9.403 -0.7641  0.2700  0.0760
  977MOL0     C31794   6.779   5.967   9.365 -0.1346 -0.1362  0.2629
  977MOL0     C31795   6.700   5.892   9.453  0.6381  0.3459 -0.1984
  977MOL0     O31796   6.670   5.768   9.403 -0.3936 -0.4789  0.2003
  977MOL0     C31797   6.644   5.657   9.492  0.2714 -1.3637 -0.0152
  977MOL0     C31798   6.625   5.532   9.401 -0.3223  1.1261 -0.3725
  977MOL0     C31799   6.751   5.484   9.315  1.2073  0.2872  0.1135
  977MOL0     C31800   6.698   5.372   9.216  0.0708  0.3116  0.2519
  977MOL0     C31801   6.638   5.250   9.279  0.6231  0.1870 -0.6840
  977MOL0     C31802   6.619   5.121   9.194  0.1037  0.1953 -0.1574
  977MOL0     C31803   6.533   5.153   9.073 -0.8517 -0.5992 -0.1377
  977MOL0     C31804   6.497   5.028   8.997 -0.6892 -0.3058  0.2179
  977MOL0    Cl31805   6.626   4.941   8.913  0.0847 -0.0045  0.3635
  977MOL0     C31806   6.676   5.943   9.586 -0.4280 -0.2481 -0.1627
  977MOL0     C31807   6.716   6.068   9.623  0.5325  0.4860 -0.3637
  977MOL0     O31808   6.702   6.347   9.694  0.2147  0.0478  0.7376
  977MOL0     C31809   6.760   6.608   9.629  0.5492 -0.2186  0.6189
  977MOL0     C31810   6.771   6.740   9.590 -0.5268 -0.6334  0.5448
  977MOL0     N31811   7.041   7.310   9.204 -0.1460 -0.1384 -0.8758
  977MOL0     N31812   7.060   7.385   9.100 -0.3509 -0.2487 -0.3503
  977MOL0     C31813   6.902   7.756   7.938  0.5145 -0.2463 -0.0207
  977MOL0     C31814   6.855   7.706   7.819  0.2041 -0.9781  0.6356
  977MOL0     C31815   6.541   7.582   7.526 -0.5628  0.1812 -0.0335
  977MOL0     C31816   6.548   7.659   7.412  0.6420  0.2384 -0.5251
  977MOL0     C31817   6.452   7.645   7.314  0.0673  0.0252 -0.7417
  977MOL0     C31818   6.355   7.545   7.316  0.6316  0.2225 -0.1965
  977MOL0     O31819   6.290   7.520   7.203  0.2846 -0.5377 -0.1016
  977MOL0     C31820   6.191   7.419   7.194  0.5194 -0.5545 -0.4715
  977MOL0     C31821   6.099   7.436   7.077  0.5767 -0.6921  0.1180
  977MOL0     C31822   5.967   7.350   7.090 -0.0173 -0.5220 -0.1944
  977MOL0     C31823   5.861   7.379   6.980 -0.0405  0.0429  0.9326
  977MOL0     C31824   5.851   7.271   6.881  0.2498 -0.9027 -1.7709
  977MOL0     C31825   5.809   7.183   6.816 -0.3803 -0.0868  0.0673
  977MOL0     C31826   6.372   7.445   7.413  0.5566 -0.8149  0.0926
  977MOL0     C31827   6.460   7.468   7.519  0.3889 -0.8554 -0.5956
  977MOL0     H31828   6.585   7.928   7.797 -1.0078  0.3985  2.4438
  977MOL0     H31829   6.687   8.004   8.017 -1.7941 -1.6443  0.7242
  977MOL0     H31830   6.795   7.730   8.228 -0.6381 -0.1349 -1.7805
  977MOL0     H31831   6.957   7.780   8.290 -1.0075 -1.2443  0.0450
  977MOL0     H31832   6.856   7.980   8.391  1.7334  0.3096 -1.6762
  977MOL0     H31833   6.709   7.949   8.308 -1.2516 -1.4735  0.9332
  977MOL0     H31834   6.647   7.887   8.535 -0.9500 -1.4884 -0.7351
  977MOL0     H31835   6.691   7.735   8.447 -2.5079 -0.8007  3.4906
  977MOL0     H31836   6.923   7.766   8.542 -0.8147  3.3131 -4.5150
  977MOL0     H31837   6.876   7.891   8.643 -3.5943  1.6048  1.3468
  977MOL0     H31838   6.695   7.739   8.751  0.6936  0.6658 -1.5597
  977MOL0     H31839   6.754   7.604   8.664  0.4486  0.2136 -0.9729
  977MOL0     H31840   6.963   7.609   8.757 -2.5689 -1.3379 -2.0897
  977MOL0     H31841   6.963   7.772   8.815  2.5481 -1.7575  2.4094
  977MOL0     H31842   6.775   7.696   8.983  2.8194  1.6950  1.6916
  977MOL0     H31843   6.786   7.530   8.923 -3.0292  0.7482 -1.4217
  977MOL0     H31844   6.974   7.690   9.096 -1.6454 -0.0950  1.1679
  977MOL0     H31845   7.057   7.586   8.975  0.5542 -2.3731  1.6708
  977MOL0     H31846   6.823   7.547   9.234 -1.5807 -2.3247 -0.7059
  977MOL0     H31847   6.974   7.273   9.467 -0.2210  0.0483  1.1847
  977MOL0     H31848   6.893   7.420   9.477  3.4256  0.3374  1.0049
  977MOL0     H31849   6.721   7.310   9.317  0.0759  1.6110 -0.3923
  977MOL0     H31850   6.706   7.279   9.484 -3.7385 -0.5972 -2.8998
  977MOL0     H31851   6.866   7.090   9.291  2.5023 -2.2027  1.7358
  977MOL0     H31852   6.694   7.075   9.314  0.2850  0.0895  0.8191
  977MOL0     H31853   6.694   6.988   9.516 -0.8455 -1.4289 -2.3395
  977MOL0     H31854   6.846   7.067   9.564 -0.9058  2.4765 -1.0294
  977MOL0     H31855   6.985   6.698   9.328  0.3879  0.6748 -0.6990
  977MOL0     H31856   7.016   6.470   9.267  1.3522 -4.5152 -0.8873
  977MOL0     H31857   7.022   6.368   9.394  1.6758  0.9135 -0.2589
  977MOL0     H31858   6.864   6.397   9.293  0.5870  0.5489 -1.3508
  977MOL0     H31859   6.901   6.144   9.347  1.7886 -2.3323  0.7957
  977MOL0     H31860   6.796   5.911   9.274  0.3319 -3.1378  2.0645
  977MOL0     H31861   6.735   5.644   9.551 -1.2871 -1.1300  2.6222
  977MOL0     H31862   6.567   5.678   9.567 -0.4476 -0.7418 -0.9017
  977MOL0     H31863   6.589   5.459   9.475  0.1060  1.2039 -0.0843
  977MOL0     H31864   6.537   5.554   9.339 -0.3351  0.6689 -0.5147
  977MOL0     H31865   6.823   5.449   9.389 -1.0780  0.5207  2.5871
  977MOL0     H31866   6.786   5.566   9.251  0.2905 -0.1367 -0.9659
  977MOL0     H31867   6.617   5.421   9.162 -0.1718 -0.6671 -0.2989
  977MOL0     H31868   6.773   5.352   9.139  0.6226  2.5285  0.1522
  977MOL0     H31869   6.546   5.282   9.328 -0.0506  0.3571 -2.0204
  977MOL0     H31870   6.704   5.218   9.360 -1.4844  2.2074  2.0251
  977MOL0     H31871   6.720   5.090   9.164  1.5148  2.5409  1.7273
  977MOL0     H31872   6.570   5.042   9.251  2.2390 -2.3537 -1.6155
  977MOL0     H31873   6.587   5.231   9.018  0.1117 -0.5501  0.8474
  977MOL0     H31874   6.444   5.208   9.106  1.6087  3.4378  0.5143
  977MOL0     H31875   6.427   5.051   8.916 -2.0164  1.6504  1.7941
  977MOL0     H31876   6.450   4.955   9.063 -0.3153  1.0467  2.0769
  977MOL0     H31877   6.613   5.876   9.644 -2.1507 -0.5368 -2.2105
  977MOL0     H31878   6.718   6.086   9.730 -2.1055 -6.7213  1.4547
  977MOL0     H31879   6.703   6.585   9.718 -1.8162  1.2161 -0.4189
  977MOL0     H31880   6.715   6.814   9.648 -2.0131 -1.6632  0.4744
  977MOL0     H31881   6.999   7.730   7.979  0.4319  1.4368  1.4206
  977MOL0     H31882   6.903   7.630   7.758 -0.3916 -0.0380 -1.0801
  977MOL0     H31883   6.603   7.753   7.416  0.9258  0.2310 -2.7177
  977MOL0     H31884   6.443   7.716   7.232 -0.3149 -0.7423 -1.3781
  977MOL0     H31885   6.263   7.339   7.176  2.0065  0.5255  0.3499
  977MOL0     H31886   6.132   7.415   7.285  1.7515 -1.8692  0.3131
  977MOL0     H31887   6.151   7.413   6.984  3.0613 -0.2335  1.3197
  977MOL0     H31888   6.063   7.539   7.065 -0.1314 -1.0246 -0.7549
  977MOL0     H31889   5.921   7.370   7.188 -2.4168 -0.1795 -1.3222
  977MOL0     H31890   5.997   7.245   7.086 -1.7680 -1.0321 -1.2938
  977MOL0     H31891   5.880   7.478   6.938 -1.2534  1.1460  2.8195
  977MOL0     H31892   5.757   7.390   7.014 -0.8911  0.4501 -1.6123
  977MOL0     H31893   5.775   7.102   6.754  0.8087  1.7981 -3.2803
  977MOL0     H31894   6.308   7.357   7.410 -0.0062 -0.3932 -1.6220
  977MOL0     H31895   6.460   7.399   7.603  1.7003 -2.2150 -1.6653
  978MOL0     O31896   7.740   4.606  10.221  0.4202  0.3534 -1.1008
  978MOL0     C31897   7.747   4.720  10.257 -0.8836 -0.0997 -0.4406
  978MOL0     O31898   7.864   4.785  10.292 -0.4358  0.5559  0.5680
  978MOL0     C31899   7.959   4.787  10.198  0.6261  0.4455  0.3405
  978MOL0     C31900   8.089   4.795  10.237 -0.1595  0.4626  0.2434
  978MOL0     C31901   8.194   4.789  10.135 -0.5627 -0.3765 -0.4822
  978MOL0     C31902   8.166   4.780  10.001  1.0798 -0.6104  0.0351
  978MOL0     O31903   8.267   4.792   9.915  0.1189  0.2951  0.1503
  978MOL0     C31904   8.241   4.852   9.787 -0.1335 -0.0727  0.0757
  978MOL0     C31905   8.374   4.910   9.743 -0.4161 -0.4281  0.6555
  978MOL0     C31906   8.354   5.015   9.630 -0.6984  0.5019 -0.2926
  978MOL0     C31907   8.302   4.951   9.499  1.1109 -0.5377  0.9914
  978MOL0     C31908   8.263   5.051   9.390 -0.0081 -0.4969  0.0045
  978MOL0     C31909   8.212   4.988   9.261 -0.6373 -0.5388  0.4838
  978MOL0     C31910   8.086   5.052   9.199  0.4160  0.1275  0.7132
  978MOL0     C31911   8.112   5.186   9.124 -0.1687  0.0247  0.1632
  978MOL0     N31912   8.098   5.285   9.227 -0.3294 -0.1707  0.1279
  978MOL0     C31913   8.187   5.383   9.228  0.2523 -0.8614 -0.0643
  978MOL0     C31914   8.140   5.475   9.312 -0.5346  0.1075 -0.2277
  978MOL0     C31915   8.217   5.594   9.356  0.0918 -0.7304  0.1879
  978MOL0     C31916   8.352   5.549   9.412 -0.2517  0.2693 -0.7025
  978MOL0     C31917   8.355   5.498   9.560  1.6188  0.2127  0.6715
  978MOL0     C31918   8.479   5.527   9.638 -0.2632  0.0964 -0.1614
  978MOL0     O31919   8.496   5.435   9.752  0.2916  0.4096  0.4731
  978MOL0     C31920   8.396   5.434   9.849 -0.0165  0.3981  0.8686
  978MOL0     C31921   8.365   5.306   9.903 -1.0638 -0.7395 -0.3684
  978MOL0     C31922   8.259   5.293  10.006 -0.5565  0.1027  0.9573
  978MOL0     C31923   8.237   5.143  10.044 -0.7722 -0.2764  1.6277
  978MOL0     C31924   8.208   5.401  10.071  0.2235  0.7198  0.2149
  978MOL0     C31925   8.118   5.389  10.189  0.5338  0.9077  0.2303
  978MOL0     O31926   8.100   5.265  10.244 -0.2164 -0.2977 -0.6636
  978MOL0     C31927   7.998   5.233  10.334 -0.7392  0.3089  1.2581
  978MOL0     C31928   7.874   5.292  10.328  0.1143 -0.4105  0.4457
  978MOL0     C31929   7.777   5.257  10.419 -0.4329  0.4738 -0.3801
  978MOL0     C31930   7.794   5.156  10.512  0.8410 -0.6799  0.1107
  978MOL0     O31931   7.698   5.133  10.600  0.4712 -0.2141 -0.5638
  978MOL0     C31932   7.703   5.014  10.677  0.3493 -0.5588  0.5712
  978MOL0     C31933   7.561   5.004  10.733 -0.3637 -0.8205  0.0124
  978MOL0     C31934   7.574   5.091  10.866 -0.2965 -0.3025 -0.0684
  978MOL0     C31935   7.445   5.087  10.939  0.4684  1.1340 -0.6496
  978MOL0     C31936   7.470   5.129  11.083 -0.7036  0.1297 -0.2957
  978MOL0     C31937   7.347   5.145  11.180 -0.6796  0.6970  0.1194
  978MOL0     C31938   7.394   5.181  11.330 -0.0794  0.0246 -0.8406
  978MOL0     C31939   7.532   5.127  11.376 -0.2351 -0.2207  0.8815
  978MOL0    Cl31940   7.554   5.104  11.549 -0.2008 -0.3333  0.0511
  978MOL0     C31941   7.912   5.086  10.504 -0.8476 -0.0458 -0.2544
  978MOL0     C31942   8.018   5.123  10.422 -0.3275 -0.7417  1.0014
  978MOL0     O31943   8.097   5.494  10.247  0.2342 -0.1817  0.7261
  978MOL0     C31944   8.227   5.521   9.997 -0.0305 -0.2967 -1.0950
  978MOL0     C31945   8.321   5.541   9.886  0.0257  0.8275 -0.2211
  978MOL0     N31946   8.019   5.428   9.351 -0.5688 -0.0438 -0.9765
  978MOL0     N31947   7.987   5.319   9.297  0.5808  0.7096 -0.6336
  978MOL0     C31948   8.029   4.755   9.966 -0.7991  0.3090  0.0658
  978MOL0     C31949   7.937   4.766  10.061  0.6017  0.3219  0.1698
  978MOL0     C31950   7.610   4.778  10.296 -0.2774 -0.4137 -0.9496
  978MOL0     C31951   7.615   4.910  10.342 -0.4533 -0.5839 -0.8752
  978MOL0     C31952   7.500   4.975  10.370 -0.5419  0.2318 -1.0550
  978MOL0     C31953   7.377   4.901  10.372  0.8269  0.5587 -0.2375
  978MOL0     O31954   7.260   4.973  10.414 -0.5975  0.4588 -0.5077
  978MOL0     C31955   7.144   4.916  10.478 -0.1730  0.2275  0.2268
  978MOL0     C31956   7.137   4.959  10.630 -0.3881  1.1897  1.0241
  978MOL0     C31957   7.008   4.901  10.704  0.7872 -0.2938  0.4895
  978MOL0     C31958   7.019   4.938  10.855  0.8917  0.2108  0.3484
  978MOL0     C31959   6.979   5.085  10.863  0.3228  0.6241 -0.1069
  978MOL0     C31960   6.935   5.193  10.840  0.3886 -0.8509  0.1595
  978MOL0     C31961   7.367   4.764  10.345 -0.2905 -0.0473  0.6470
  978MOL0     C31962   7.486   4.704  10.306 -0.3794 -0.1316 -0.5493
  978MOL0     H31963   8.092   4.798  10.346 -1.0248  0.2079  0.2813
  978MOL0     H31964   8.294   4.757  10.159 -1.6631 -5.0608 -1.1295
  978MOL0     H31965   8.196   4.781   9.716  1.6018 -2.6989  1.4450
  978MOL0     H31966   8.162   4.926   9.806 -2.0924 -2.4927  1.9819
  978MOL0     H31967   8.419   4.979   9.816  1.4180  2.3419 -2.7546
  978MOL0     H31968   8.443   4.828   9.725  0.4572  0.1626  1.2216
  978MOL0     H31969   8.281   5.085   9.672 -0.3700 -0.7027  2.5546
  978MOL0     H31970   8.442   5.077   9.610  0.1022 -0.5017  0.0391
  978MOL0     H31971   8.381   4.887   9.460  2.4701  1.3693  0.4411
  978MOL0     H31972   8.212   4.890   9.510  0.1561  0.3480 -1.2390
  978MOL0     H31973   8.192   5.121   9.435 -0.9729 -2.1874  1.2137
  978MOL0     H31974   8.352   5.110   9.364  1.0701 -2.2052 -0.3701
  978MOL0     H31975   8.282   4.986   9.177 -1.7336  0.1511 -0.4722
  978MOL0     H31976   8.197   4.886   9.299  2.8420 -1.1657  0.5148
  978MOL0     H31977   8.061   4.990   9.112 -0.7339  0.8624  0.5003
  978MOL0     H31978   7.999   5.058   9.265  1.2028 -0.1231  1.8030
  978MOL0     H31979   8.040   5.194   9.042  0.4394 -0.5754 -0.4473
  978MOL0     H31980   8.211   5.199   9.081 -0.4471  3.1408  0.2227
  978MOL0     H31981   8.280   5.383   9.173  1.8925  1.9462  2.4060
  978MOL0     H31982   8.232   5.661   9.271 -1.4048 -0.8990 -0.2213
  978MOL0     H31983   8.162   5.648   9.435 -2.8882 -3.2645  0.0183
  978MOL0     H31984   8.426   5.629   9.408  1.1684 -1.0600 -2.5667
  978MOL0     H31985   8.403   5.474   9.351 -0.0379 -0.6435  0.5434
  978MOL0     H31986   8.321   5.394   9.561  0.6379  0.5114 -0.1411
  978MOL0     H31987   8.282   5.563   9.608  0.4882 -0.4374 -0.1345
  978MOL0     H31988   8.491   5.624   9.688  1.3156  0.0577 -0.4196
  978MOL0     H31989   8.566   5.521   9.573 -2.6204  0.2063 -3.5611
  978MOL0     H31990   8.421   5.229   9.852  2.3614  1.1629  0.2310
  978MOL0     H31991   8.128   5.136  10.050 -0.8821  0.5829  0.8766
  978MOL0     H31992   8.268   5.079   9.962  3.7485  1.2511  1.8956
  978MOL0     H31993   8.296   5.108  10.129  0.8106  0.6737  0.9636
  978MOL0     H31994   7.851   5.381  10.271 -1.6908  2.3140  4.9327
  978MOL0     H31995   7.680   5.305  10.418 -1.7082 -1.6105  3.1492
  978MOL0     H31996   7.730   4.928  10.616  0.6432 -0.0901  0.0348
  978MOL0     H31997   7.789   5.012  10.744  1.2020 -1.1257 -0.5165
  978MOL0     H31998   7.471   5.043  10.685 -1.5708 -0.6658  2.2835
  978MOL0     H31999   7.542   4.900  10.759 -3.0261  0.0325  1.8593
  978MOL0     H32000   7.602   5.195  10.845  1.9765 -1.4793 -3.9681
  978MOL0     H32001   7.651   5.043  10.927 -0.8095  1.4618  2.0964
  978MOL0     H32002   7.371   5.157  10.899 -2.0866 -1.8406 -1.4987
  978MOL0     H32003   7.414   4.983  10.943  3.2883  0.2295  1.8761
  978MOL0     H32004   7.515   5.228  11.083 -2.4198  0.9417 -0.3520
  978MOL0     H32005   7.540   5.055  11.124 -2.1253 -1.9330 -1.4207
  978MOL0     H32006   7.282   5.218  11.132  1.2652  2.3559 -0.1316
  978MOL0     H32007   7.293   5.051  11.164 -3.1884  1.9653  0.6779
  978MOL0     H32008   7.316   5.134  11.390  0.5114  0.2573  0.1249
  978MOL0     H32009   7.376   5.286  11.355 -0.8124 -0.0981 -0.8249
  978MOL0     H32010   7.600   5.202  11.336 -1.2371 -1.2470 -3.1970
  978MOL0     H32011   7.539   5.027  11.332 -2.2796 -0.0417  0.0287
  978MOL0     H32012   7.933   5.002  10.570 -0.5985 -0.6050 -1.0263
  978MOL0     H32013   8.113   5.072  10.417  1.7808  2.9085  0.0655
  978MOL0     H32014   8.169   5.606  10.031 -0.6371 -1.8870  2.2782
  978MOL0     H32015   8.329   5.639   9.840  1.0650  0.6691 -0.3891
  978MOL0     H32016   8.014   4.743   9.859  5.4058 -0.0031 -1.1672
  978MOL0     H32017   7.834   4.756  10.029  0.6115  2.8685 -0.9066
  978MOL0     H32018   7.701   4.975  10.331  0.5614 -1.7895 -0.3277
  978MOL0     H32019   7.505   5.082  10.391 -2.0884 -0.2314  2.4146
  978MOL0     H32020   7.056   4.946  10.419 -0.0749  0.3016  0.1172
  978MOL0     H32021   7.158   4.809  10.491  2.6446  0.3356 -1.2238
  978MOL0     H32022   7.127   5.067  10.624  2.5218  1.5397  1.0264
  978MOL0     H32023   7.232   4.940  10.680  0.1437 -3.6607 -1.2353
  978MOL0     H32024   6.995   4.794  10.688  3.0757 -0.8260  1.7161
  978MOL0     H32025   6.912   4.937  10.668  0.7716  0.8240  1.5789
  978MOL0     H32026   7.121   4.917  10.889  0.7613 -0.7672  0.1535
  978MOL0     H32027   6.956   4.870  10.914  2.2019 -0.0247  1.5327
  978MOL0     H32028   6.905   5.292  10.812  1.5236  0.6277  3.6280
  978MOL0     H32029   7.278   4.705  10.360 -0.8896  0.6182 -0.1430
  978MOL0     H32030   7.493   4.597  10.289 -2.0061 -0.4580  0.6122
  979MOL0     O32031   0.770   9.654   2.031 -0.3408 -0.1230  0.8851
  979MOL0     C32032   0.738   9.674   2.143 -0.1496  0.2173 -0.9616
  979MOL0     O32033   0.710   9.570   2.234  0.1585 -0.7478 -0.1511
  979MOL0     C32034   0.709   9.443   2.190 -0.0775 -0.1305  0.1544
  979MOL0     C32035   0.772   9.359   2.277 -0.8353  1.1201  0.0403
  979MOL0     C32036   0.768   9.216   2.257  0.3522 -1.0245 -0.5564
  979MOL0     C32037   0.692   9.164   2.148  0.8449  0.7041  0.2495
  979MOL0     O32038   0.703   9.026   2.118 -0.1118  0.1111  0.6947
  979MOL0     C32039   0.784   8.940   2.202  0.2112  0.2993 -0.1739
  979MOL0     C32040   0.706   8.920   2.336 -0.2532 -0.2553 -0.5032
  979MOL0     C32041   0.563   8.868   2.326 -0.0322 -1.1606 -0.6767
  979MOL0     C32042   0.522   8.840   2.477 -0.1206  0.3061  0.4866
  979MOL0     C32043   0.362   8.851   2.482 -0.0230  0.2780  0.9329
  979MOL0     C32044   0.307   8.801   2.608  0.7582  0.0862 -0.5617
  979MOL0     C32045   0.266   8.652   2.602 -0.3940 -0.8465  0.2045
  979MOL0     C32046   0.211   8.606   2.736 -0.5948  0.1479  0.2774
  979MOL0     N32047   0.164   8.465   2.740  0.0778 -0.1804 -0.0582
  979MOL0     C32048   0.236   8.357   2.724 -0.3454 -0.3153 -0.9583
  979MOL0     C32049   0.151   8.258   2.739 -0.4297  0.2194 -0.4409
  979MOL0     C32050   0.174   8.108   2.730 -0.4992 -0.3542 -0.1905
  979MOL0     C32051   0.211   8.039   2.865  0.0824 -0.0702  0.7784
  979MOL0     C32052   0.329   8.107   2.942 -0.0513  0.1065 -0.3149
  979MOL0     C32053   0.460   8.092   2.866  0.6990 -0.1642  0.3076
  979MOL0     O32054   0.561   8.159   2.939 -1.0115  1.0623  0.8049
  979MOL0     C32055   0.601   8.094   3.053 -0.3866 -0.5007 -0.1542
  979MOL0     C32056   0.671   8.172   3.140 -0.3049 -1.3934  0.1799
  979MOL0     C32057   0.715   8.134   3.263 -0.5263 -0.9024 -0.1935
  979MOL0     C32058   0.780   8.243   3.355 -0.4224  1.2684  0.2263
  979MOL0     C32059   0.687   7.997   3.304 -0.0816 -0.3822  0.1609
  979MOL0     C32060   0.731   7.941   3.430  0.1416  0.3384  0.8621
  979MOL0     O32061   0.709   7.806   3.454 -0.5376  0.1682  0.1767
  979MOL0     C32062   0.700   7.751   3.581  0.4281  0.5120  0.5754
  979MOL0     C32063   0.798   7.669   3.629  0.9385 -0.0594  0.4597
  979MOL0     C32064   0.787   7.604   3.750 -0.4653  0.4281 -0.8969
  979MOL0     C32065   0.667   7.611   3.826 -0.1398 -0.8183 -0.5788
  979MOL0     O32066   0.663   7.555   3.948  0.6621  0.1447 -0.5692
  979MOL0     C32067   0.715   7.419   3.981  0.2133 -0.2891  1.0454
  979MOL0     C32068   0.609   7.310   3.987  1.3183  0.1677 -0.0642
  979MOL0     C32069   0.499   7.355   4.082  0.5077 -0.0004 -0.7699
  979MOL0     C32070   0.528   7.273   4.212 -1.1275  0.0299  0.0458
  979MOL0     C32071   0.424   7.302   4.317  0.2961  0.6256 -0.0921
  979MOL0     C32072   0.477   7.422   4.400  0.7011  0.3533 -0.0728
  979MOL0     C32073   0.373   7.459   4.505  0.9868 -0.8971  0.3546
  979MOL0     C32074   0.270   7.565   4.451  0.1602  0.8211 -0.7452
  979MOL0    Cl32075   0.360   7.696   4.373 -0.1621 -0.1094 -0.0294
  979MOL0     C32076   0.562   7.696   3.780 -0.8231 -0.0951 -0.8631
  979MOL0     C32077   0.580   7.767   3.654 -0.1493  0.7407 -0.2865
  979MOL0     O32078   0.767   8.019   3.508  0.6538  0.4208 -0.0743
  979MOL0     C32079   0.618   7.915   3.215 -0.0434  0.1907  0.1374
  979MOL0     C32080   0.579   7.961   3.094 -0.2001 -0.5490  0.8644
  979MOL0     N32081   0.021   8.307   2.774 -1.1772  0.1426  0.2886
  979MOL0     N32082   0.034   8.435   2.771 -0.8144 -0.2859  0.3857
  979MOL0     C32083   0.624   9.253   2.054  0.3760 -0.9016 -0.0342
  979MOL0     C32084   0.626   9.395   2.085 -0.1303  0.3268  0.5798
  979MOL0     C32085   0.710   9.818   2.187 -0.0924  0.1348 -0.1510
  979MOL0     C32086   0.763   9.926   2.114 -0.6147 -0.2049 -0.1874
  979MOL0     C32087   0.728  10.057   2.150 -0.2889  0.2816 -1.3645
  979MOL0     C32088   0.651  10.085   2.266  0.1233 -0.3327 -0.1418
  979MOL0     O32089   0.632  10.214   2.318 -0.6107 -0.2719  0.1253
  979MOL0     C32090   0.648  10.342   2.249 -0.0222  0.6279  0.7351
  979MOL0     C32091   0.560  10.349   2.116 -0.6226 -0.9137  0.8461
  979MOL0     C32092   0.596  10.468   2.033 -0.6527  1.0113  0.6795
  979MOL0     C32093   0.536  10.461   1.888  0.0292 -0.1563  0.3884
  979MOL0     C32094   0.633  10.402   1.799 -0.6573  0.5672 -0.1555
  979MOL0     C32095   0.727  10.344   1.739 -0.3298  0.4547  0.0947
  979MOL0     C32096   0.598   9.977   2.333 -0.8319  0.2315  0.1840
  979MOL0     C32097   0.633   9.841   2.296  0.2687 -0.0581 -0.1120
  979MOL0     H32098   0.827   9.398   2.362  0.0089  0.8898 -0.3875
  979MOL0     H32099   0.830   9.161   2.328  1.4535  2.0781  1.0420
  979MOL0     H32100   0.805   8.848   2.147  1.8319  0.3274  0.3204
  979MOL0     H32101   0.883   8.980   2.226  0.4840 -0.8664  0.7565
  979MOL0     H32102   0.762   8.843   2.391  0.5949 -0.5595 -1.7676
  979MOL0     H32103   0.695   9.008   2.400  0.0068  0.6713 -1.6943
  979MOL0     H32104   0.497   8.943   2.281 -0.0563 -0.1950  0.9054
  979MOL0     H32105   0.569   8.779   2.262  0.3322 -0.4369 -1.6896
  979MOL0     H32106   0.565   8.746   2.515 -0.5920  0.2231  0.8248
  979MOL0     H32107   0.556   8.922   2.541 -2.3849 -0.3482  2.7045
  979MOL0     H32108   0.346   8.959   2.484  2.2941  0.6829  0.2565
  979MOL0     H32109   0.321   8.803   2.392  4.1459  2.9532 -2.8445
  979MOL0     H32110   0.377   8.817   2.690  1.2553  0.3001 -1.0259
  979MOL0     H32111   0.218   8.865   2.615  1.1335  0.6190 -0.5899
  979MOL0     H32112   0.184   8.642   2.531  0.8275  0.9459 -1.5334
  979MOL0     H32113   0.346   8.585   2.569 -2.6476 -3.8168  0.2513
  979MOL0     H32114   0.123   8.666   2.763  1.0217  2.2275  1.2296
  979MOL0     H32115   0.279   8.625   2.819 -3.0036  4.5179  1.5597
  979MOL0     H32116   0.341   8.352   2.700  0.2243  1.4523  0.9058
  979MOL0     H32117   0.074   8.066   2.712 -0.2167 -0.0590 -2.9038
  979MOL0     H32118   0.237   8.090   2.642 -0.3372 -2.1456  0.2559
  979MOL0     H32119   0.241   7.934   2.854  0.5793 -0.0060  1.4956
  979MOL0     H32120   0.120   8.051   2.925 -1.2982  2.5820 -1.6104
  979MOL0     H32121   0.337   8.058   3.039  0.5551  1.0837  0.1443
  979MOL0     H32122   0.316   8.212   2.970 -2.0820 -0.4633  1.0936
  979MOL0     H32123   0.457   8.148   2.771 -0.5573  0.7327  0.8594
  979MOL0     H32124   0.490   7.990   2.842  2.2269  0.8473 -2.6507
  979MOL0     H32125   0.685   8.275   3.110 -0.0273 -0.7121  2.4855
  979MOL0     H32126   0.875   8.204   3.394 -1.7531  0.2499  2.6764
  979MOL0     H32127   0.802   8.326   3.287  2.4755 -0.3534 -1.0192
  979MOL0     H32128   0.712   8.274   3.435 -0.6464  2.3596 -0.3764
  979MOL0     H32129   0.880   7.670   3.558 -0.7488  1.4432 -1.6043
  979MOL0     H32130   0.872   7.552   3.793 -0.0734  0.9359 -1.0390
  979MOL0     H32131   0.798   7.382   3.920 -0.5286 -1.7827  0.8985
  979MOL0     H32132   0.758   7.419   4.082  0.8861 -1.6557  0.7889
  979MOL0     H32133   0.551   7.313   3.894  2.0754  0.8178 -0.5328
  979MOL0     H32134   0.646   7.210   4.013  1.1480  0.2594  0.5420
  979MOL0     H32135   0.397   7.321   4.061  0.6799 -2.4080  1.7503
  979MOL0     H32136   0.493   7.462   4.102  0.9653  0.0835 -1.0849
  979MOL0     H32137   0.515   7.168   4.184 -2.2377  0.0227  0.5362
  979MOL0     H32138   0.629   7.299   4.243 -0.3824 -0.5418 -1.7863
  979MOL0     H32139   0.421   7.212   4.379  4.9908  0.1829 -0.0888
  979MOL0     H32140   0.322   7.318   4.281  0.0502 -0.8834 -0.1039
  979MOL0     H32141   0.567   7.390   4.453  0.3789  1.5539  1.2302
  979MOL0     H32142   0.499   7.499   4.325 -0.7814 -1.8149 -2.9241
  979MOL0     H32143   0.431   7.497   4.590  0.6396 -0.5684  0.4496
  979MOL0     H32144   0.310   7.373   4.529  0.1358 -0.0111  1.4207
  979MOL0     H32145   0.192   7.594   4.522  0.4790  0.4747 -0.2437
  979MOL0     H32146   0.212   7.514   4.373 -0.9233 -1.4206  1.3784
  979MOL0     H32147   0.482   7.698   3.854  2.0212  1.9653  2.4765
  979MOL0     H32148   0.506   7.833   3.609  1.8598  2.5725 -1.0807
  979MOL0     H32149   0.588   7.815   3.244 -0.5647  0.2253 -0.2543
  979MOL0     H32150   0.522   7.898   3.027  1.1277  1.0351 -1.9029
  979MOL0     H32151   0.567   9.224   1.966 -2.1758  1.4626  0.7070
  979MOL0     H32152   0.576   9.457   2.011 -1.0767  1.2955  1.9722
  979MOL0     H32153   0.822   9.906   2.025 -0.6081 -0.1337 -0.1995
  979MOL0     H32154   0.767  10.143   2.097  0.7146 -0.6701 -2.2320
  979MOL0     H32155   0.610  10.413   2.323 -0.9718  2.2438 -1.1982
  979MOL0     H32156   0.754  10.360   2.228 -0.0628  0.5872  0.4890
  979MOL0     H32157   0.453  10.346   2.139 -0.5121  2.3701  2.4241
  979MOL0     H32158   0.595  10.264   2.058  1.8104 -1.7695  3.3807
  979MOL0     H32159   0.705  10.458   2.034 -0.7863 -2.7985 -2.0337
  979MOL0     H32160   0.558  10.561   2.077 -2.9725 -0.1465  1.3014
  979MOL0     H32161   0.511  10.565   1.866  0.8577  1.0200  4.3058
  979MOL0     H32162   0.445  10.401   1.887  1.3239 -2.2205 -0.3220
  979MOL0     H32163   0.823  10.310   1.705 -0.7765 -0.2833 -0.4545
  979MOL0     H32164   0.534  10.010   2.414 -2.7633 -1.5204 -0.5632
  979MOL0     H32165   0.587   9.759   2.350  1.1438 -0.0783  0.6261
  980MOL0     O32166   1.957   4.983   0.334  0.3982 -0.1878  0.2830
  980MOL0     C32167   1.838   5.022   0.349  0.5034  1.3123 -0.1048
  980MOL0     O32168   1.762   5.003   0.458  0.2660  0.2957  0.4450
  980MOL0     C32169   1.816   4.929   0.563  0.1409  0.1253  0.1993
  980MOL0     C32170   1.802   4.985   0.691 -0.6885 -0.0664 -0.1428
  980MOL0     C32171   1.826   4.906   0.803  0.7513  1.0040 -0.1104
  980MOL0     C32172   1.878   4.779   0.794 -0.4621 -0.0576  0.0491
  980MOL0     O32173   1.918   4.721   0.909 -0.1390  0.2325  0.5253
  980MOL0     C32174   1.926   4.573   0.903  0.3413  0.1319  0.5062
  980MOL0     C32175   2.067   4.516   0.894 -0.0166  0.0198 -0.5755
  980MOL0     C32176   2.081   4.366   0.878 -0.6866 -0.0195 -0.4098
  980MOL0     C32177   2.001   4.314   0.757 -0.6824  0.0985 -0.3489
  980MOL0     C32178   2.052   4.181   0.702  0.7873 -0.4517  0.4494
  980MOL0     C32179   2.197   4.182   0.641 -0.6892  0.1297  0.2503
  980MOL0     C32180   2.246   4.042   0.579 -0.6121 -0.2493 -0.2167
  980MOL0     C32181   2.390   4.058   0.576 -0.6240  0.1691  0.1990
  980MOL0     N32182   2.447   3.942   0.501  0.3646 -0.0883  0.3510
  980MOL0     C32183   2.459   3.807   0.540  0.6128 -0.6819  0.3654
  980MOL0     C32184   2.516   3.748   0.430  0.3233  0.3107 -0.0391
  980MOL0     C32185   2.546   3.598   0.413 -0.3792  0.2980  0.6785
  980MOL0     C32186   2.422   3.512   0.412  0.6361 -0.0138 -0.0247
  980MOL0     C32187   2.351   3.513   0.266 -1.1384 -0.4285  0.1662
  980MOL0     C32188   2.239   3.404   0.265 -1.2021 -0.2994  0.5001
  980MOL0     O32189   2.296   3.272   0.255  0.2146  0.4849  0.3637
  980MOL0     C32190   2.281   3.194   0.147 -0.5824  0.9990 -0.2032
  980MOL0     C32191   2.336   3.074   0.160  0.2622 -0.1439 -0.3338
  980MOL0     C32192   2.327   2.974   0.055  0.9451 -0.2613 -0.0190
  980MOL0     C32193   2.408   2.847   0.058 -0.6199 -0.7934 -0.2074
  980MOL0     C32194   2.239   2.995  -0.056  0.3942 -1.1391 -0.0009
  980MOL0     C32195   2.197   2.898  -0.169 -0.1460  0.3675 -0.3666
  980MOL0     O32196   2.216   2.765  -0.142 -0.3166  0.2410  0.3502
  980MOL0     C32197   2.162   2.676  -0.232 -0.4799 -0.5609 -0.9645
  980MOL0     C32198   2.241   2.642  -0.337 -0.6533  0.4761  0.9749
  980MOL0     C32199   2.177   2.567  -0.438 -0.4233  0.2301  0.3453
  980MOL0     C32200   2.042   2.517  -0.426  0.0735 -0.6152  0.5398
  980MOL0     O32201   1.983   2.453  -0.532 -0.2934  0.8854  0.4193
  980MOL0     C32202   1.856   2.384  -0.524  0.1527 -0.1599 -0.1279
  980MOL0     C32203   1.818   2.314  -0.660 -0.0488 -1.0476 -0.6409
  980MOL0     C32204   1.781   2.417  -0.781 -0.7160  0.7490  0.1987
  980MOL0     C32205   1.788   2.356  -0.919  0.1023 -0.4804  0.3511
  980MOL0     C32206   1.696   2.238  -0.946  0.6321  0.1113  0.9563
  980MOL0     C32207   1.549   2.272  -0.949 -0.3188 -1.0459 -0.2256
  980MOL0     C32208   1.466   2.143  -0.976 -0.2536  0.2281  0.4662
  980MOL0     C32209   1.321   2.180  -0.984  0.0291  0.1009  0.6090
  980MOL0    Cl32210   1.232   2.056  -1.075 -0.1730 -0.5629 -0.1787
  980MOL0     C32211   1.967   2.554  -0.312  0.3802  0.5835  0.4511
  980MOL0     C32212   2.035   2.634  -0.216  0.3807 -0.1845  0.2662
  980MOL0     O32213   2.163   2.949  -0.275 -0.1967  0.0405 -0.1466
  980MOL0     C32214   2.178   3.123  -0.059 -0.0614 -0.0063 -0.7866
  980MOL0     C32215   2.203   3.224   0.033  0.0559  0.4516 -0.6629
  980MOL0     N32216   2.531   3.836   0.321  0.7060 -1.2342 -1.0791
  980MOL0     N32217   2.484   3.951   0.371  0.6028  0.2714 -0.5915
  980MOL0     C32218   1.902   4.726   0.666 -0.2872  0.0043  0.0626
  980MOL0     C32219   1.863   4.799   0.552  0.3721  0.5029  0.8280
  980MOL0     C32220   1.778   5.094   0.235  0.2127 -0.6244  0.1983
  980MOL0     C32221   1.843   5.095   0.106  0.1906 -0.3590 -0.8208
  980MOL0     C32222   1.794   5.176   0.002  0.1548 -0.7646 -1.3006
  980MOL0     C32223   1.687   5.264   0.023  0.5227  0.4080  0.1445
  980MOL0     O32224   1.653   5.347  -0.080  0.2233 -0.2439  0.0133
  980MOL0     C32225   1.525   5.416  -0.088 -0.1844  0.3930  0.5206
  980MOL0     C32226   1.518   5.528  -0.194 -0.3361 -0.2451  0.7026
  980MOL0     C32227   1.368   5.572  -0.219  0.0885 -0.6034  0.2660
  980MOL0     C32228   1.279   5.488  -0.307 -0.6291  0.0097  0.7810
  980MOL0     C32229   1.159   5.557  -0.363 -0.0690 -0.8157 -0.1287
  980MOL0     C32230   1.048   5.610  -0.368  0.7380 -0.3778 -0.5911
  980MOL0     C32231   1.622   5.252   0.143  0.2502 -0.7459  0.6043
  980MOL0     C32232   1.670   5.179   0.251  0.1031 -1.0068 -0.1251
  980MOL0     H32233   1.762   5.081   0.722  0.7454  0.6310 -0.3429
  980MOL0     H32234   1.805   4.949   0.900 -0.5015  2.3063 -0.9151
  980MOL0     H32235   1.894   4.549   1.005 -1.1860 -1.3233 -0.2589
  980MOL0     H32236   1.856   4.532   0.829 -0.0071  2.9474 -0.8723
  980MOL0     H32237   2.106   4.563   0.803  0.0037 -1.3642 -1.3082
  980MOL0     H32238   2.127   4.556   0.975  1.0568 -1.7212 -0.4569
  980MOL0     H32239   2.189   4.351   0.865 -0.9805 -2.2512 -0.6791
  980MOL0     H32240   2.055   4.315   0.971 -2.3975  0.8431 -0.3822
  980MOL0     H32241   1.897   4.290   0.783 -1.4684  3.4608  0.0307
  980MOL0     H32242   2.007   4.384   0.673  1.2457  0.8609  0.3822
  980MOL0     H32243   2.052   4.102   0.779 -2.0810 -0.5185  0.4880
  980MOL0     H32244   1.989   4.132   0.627 -1.1285 -1.0835  2.3912
  980MOL0     H32245   2.194   4.267   0.571 -1.9456  2.4326  2.9220
  980MOL0     H32246   2.263   4.210   0.723  3.2015 -1.5658 -2.0230
  980MOL0     H32247   2.222   3.953   0.639 -0.2927  0.7928  1.5141
  980MOL0     H32248   2.203   4.025   0.480  0.3806 -3.9431 -0.1854
  980MOL0     H32249   2.436   4.057   0.675  2.1077 -0.5553 -0.9775
  980MOL0     H32250   2.420   4.143   0.514  1.3426 -0.5538  0.0946
  980MOL0     H32251   2.435   3.749   0.629  2.6910 -1.8333  0.2270
  980MOL0     H32252   2.609   3.566   0.329 -0.5113  0.8884  0.3522
  980MOL0     H32253   2.601   3.557   0.498  0.0510  0.1456  0.3345
  980MOL0     H32254   2.351   3.557   0.482 -0.2125 -3.0353  1.2318
  980MOL0     H32255   2.456   3.409   0.424 -1.5074 -0.8072 -0.3207
  980MOL0     H32256   2.423   3.504   0.184 -0.7393  2.1434  0.1516
  980MOL0     H32257   2.301   3.606   0.238 -1.9178 -0.6436  0.7842
  980MOL0     H32258   2.176   3.437   0.182 -1.6511 -3.2751 -0.4820
  980MOL0     H32259   2.178   3.411   0.356 -0.2888 -0.5857  1.1461
  980MOL0     H32260   2.398   3.052   0.246 -1.4798 -0.6646  0.8358
  980MOL0     H32261   2.422   2.787  -0.033 -1.5351 -0.2274 -0.7317
  980MOL0     H32262   2.503   2.862   0.110  0.0596  1.1437 -1.8751
  980MOL0     H32263   2.359   2.779   0.128  1.2271  0.0895  2.0624
  980MOL0     H32264   2.347   2.666  -0.340 -0.2069 -1.3013  1.2353
  980MOL0     H32265   2.228   2.528  -0.526 -0.3261  0.3513  0.3483
  980MOL0     H32266   1.869   2.301  -0.454  4.0890  2.2960  2.4595
  980MOL0     H32267   1.775   2.439  -0.475 -1.0173 -2.7133  0.9828
  980MOL0     H32268   1.894   2.244  -0.694 -1.1258 -1.9765 -1.2254
  980MOL0     H32269   1.725   2.259  -0.643 -0.8719  0.0528 -1.4131
  980MOL0     H32270   1.853   2.499  -0.770 -2.4744  2.1048  2.5512
  980MOL0     H32271   1.680   2.457  -0.775 -1.4280 -0.8871 -0.3542
  980MOL0     H32272   1.768   2.442  -0.985 -0.8207 -0.0433  1.1711
  980MOL0     H32273   1.891   2.325  -0.939 -0.3460 -0.8750 -1.6242
  980MOL0     H32274   1.721   2.163  -0.870  3.6061  1.3642  1.3480
  980MOL0     H32275   1.713   2.194  -1.045 -1.1804  0.4590  0.4426
  980MOL0     H32276   1.529   2.317  -0.851  3.8640  0.1186  0.3012
  980MOL0     H32277   1.524   2.348  -1.023 -0.6656  0.6383  1.5424
  980MOL0     H32278   1.473   2.067  -0.898 -5.2997 -0.4452  0.6169
  980MOL0     H32279   1.487   2.102  -1.076 -0.4746  0.2843  0.3951
  980MOL0     H32280   1.311   2.273  -1.041  1.6324  0.0054  0.1433
  980MOL0     H32281   1.277   2.185  -0.883 -1.3463  1.0216  0.0014
  980MOL0     H32282   1.865   2.520  -0.298  0.0482 -0.2263 -3.0442
  980MOL0     H32283   1.982   2.654  -0.124  0.3965 -0.6435  0.3755
  980MOL0     H32284   2.106   3.163  -0.129 -0.4906 -0.4482 -0.6055
  980MOL0     H32285   2.153   3.319   0.018  1.1428  0.8413 -2.0398
  980MOL0     H32286   1.938   4.625   0.648  1.2438  0.4621  0.4176
  980MOL0     H32287   1.868   4.748   0.457 -1.7447  2.1760 -0.2741
  980MOL0     H32288   1.940   5.046   0.105  0.8805  0.6614  2.8558
  980MOL0     H32289   1.853   5.177  -0.089 -0.2928 -1.1062 -1.6029
  980MOL0     H32290   1.447   5.344  -0.114  2.0966 -1.5611 -1.3864
  980MOL0     H32291   1.503   5.465   0.008  2.3422 -1.1171  2.0014
  980MOL0     H32292   1.569   5.516  -0.290  2.1866 -0.1864  1.9357
  980MOL0     H32293   1.563   5.613  -0.141 -0.3372  0.0534  0.2364
  980MOL0     H32294   1.384   5.668  -0.268  0.0379 -1.0004 -0.5374
  980MOL0     H32295   1.313   5.579  -0.124 -3.2261 -1.0743 -1.4750
  980MOL0     H32296   1.253   5.394  -0.258  0.9917  0.4454  2.5715
  980MOL0     H32297   1.336   5.463  -0.397  0.5705 -0.9860  1.7939
  980MOL0     H32298   0.949   5.650  -0.365 -0.1003 -2.2704  3.3136
  980MOL0     H32299   1.540   5.323   0.149  0.9745  0.2457 -0.7310
  980MOL0     H32300   1.629   5.193   0.351  1.8253  0.1582  0.4658
  981MOL0     O32301   8.058   0.361   2.503  0.3435  0.1799 -0.7140
  981MOL0     C32302   7.969   0.437   2.547 -0.2040  0.1136 -0.4548
  981MOL0     O32303   7.950   0.483   2.676 -0.1721 -0.0310  0.1979
  981MOL0     C32304   8.014   0.407   2.773 -0.3956 -1.1640 -0.7103
  981MOL0     C32305   8.152   0.377   2.792 -1.4071 -1.1616  0.0782
  981MOL0     C32306   8.202   0.282   2.890 -0.7289  0.0063 -1.0761
  981MOL0     C32307   8.109   0.231   2.985  0.5695 -1.2567  0.3769
  981MOL0     O32308   8.144   0.137   3.072 -0.0168  0.2550 -0.0276
  981MOL0     C32309   8.245   0.042   3.023  0.4651  0.1889  0.1158
  981MOL0     C32310   8.371   0.054   3.115 -0.3533  0.8885 -0.2266
  981MOL0     C32311   8.346  -0.007   3.259 -0.5564  0.4334  1.4863
  981MOL0     C32312   8.422   0.062   3.370  0.0592  0.3056 -0.1301
  981MOL0     C32313   8.573   0.062   3.350 -0.4243 -0.3123 -0.5678
  981MOL0     C32314   8.632   0.121   3.475  0.2008  0.1469  0.8278
  981MOL0     C32315   8.783   0.133   3.450  0.4097  0.2834  0.5519
  981MOL0     C32316   8.867   0.193   3.559  0.5831 -0.1474  0.0117
  981MOL0     N32317   8.884   0.094   3.666 -1.1303 -0.5683 -0.1968
  981MOL0     C32318   8.794   0.056   3.760  0.6892 -0.0866 -0.4798
  981MOL0     C32319   8.862  -0.026   3.852 -0.2318 -0.2898  0.3212
  981MOL0     C32320   8.800  -0.102   3.969  0.1211 -0.9165 -0.1395
  981MOL0     C32321   8.850  -0.262   3.956  0.8409 -0.2538 -0.6168
  981MOL0     C32322   8.759  -0.350   4.052  0.1088  0.8301  0.1854
  981MOL0     C32323   8.607  -0.356   4.023 -0.1898  0.2101  1.2711
  981MOL0     O32324   8.552  -0.438   4.132 -0.0436 -1.1430  0.4145
  981MOL0     C32325   8.423  -0.480   4.132 -0.0065 -0.1642 -0.2957
  981MOL0     C32326   8.322  -0.430   4.040 -1.3092 -0.3032 -0.6763
  981MOL0     C32327   8.192  -0.483   4.049  1.4741  0.5449  0.9348
  981MOL0     C32328   8.093  -0.441   3.944  0.2029  0.3626  0.1707
  981MOL0     C32329   8.157  -0.573   4.157 -0.8022  0.0123 -0.7119
  981MOL0     C32330   8.027  -0.637   4.166  0.9411  0.0933  0.5654
  981MOL0     O32331   7.981  -0.660   4.295  0.1155 -0.0340 -0.2834
  981MOL0     C32332   7.889  -0.761   4.326  0.4985 -0.0051 -0.2673
  981MOL0     C32333   7.873  -0.772   4.470 -0.3371  0.5302  0.1904
  981MOL0     C32334   7.781  -0.861   4.522  0.4924 -0.0719 -0.2625
  981MOL0     C32335   7.703  -0.943   4.439 -0.4314 -0.6151  1.5701
  981MOL0     O32336   7.593  -1.011   4.474  0.2732  0.3855 -0.0696
  981MOL0     C32337   7.563  -1.041   4.605 -0.3225 -0.5313 -0.4200
  981MOL0     C32338   7.624  -1.174   4.644 -0.0746 -0.3596  1.2360
  981MOL0     C32339   7.778  -1.175   4.625 -0.5382 -0.3181  0.8151
  981MOL0     C32340   7.851  -1.287   4.710  0.5542 -0.0900  0.2056
  981MOL0     C32341   7.997  -1.287   4.671 -0.5081 -0.3395  0.2951
  981MOL0     C32342   8.070  -1.194   4.761  0.2868 -0.2422 -0.3661
  981MOL0     C32343   8.218  -1.196   4.728 -1.0304 -1.2890 -0.1600
  981MOL0     C32344   8.298  -1.120   4.831  0.7956 -0.0194 -1.0392
  981MOL0    Cl32345   8.229  -0.974   4.881  0.4546  0.1270 -0.0810
  981MOL0     C32346   7.735  -0.936   4.301  0.3678  0.3874 -0.7503
  981MOL0     C32347   7.827  -0.852   4.242  0.3715  0.1001 -0.0012
  981MOL0     O32348   7.967  -0.671   4.061  0.1688  0.4480 -0.3229
  981MOL0     C32349   8.257  -0.615   4.247 -0.7105  0.3553 -0.3730
  981MOL0     C32350   8.388  -0.568   4.239  0.5220  0.4728 -0.1562
  981MOL0     N32351   8.991  -0.037   3.806 -1.1894  0.2452 -0.0121
  981MOL0     N32352   9.008   0.036   3.698 -0.0962  0.1284  0.1105
  981MOL0     C32353   7.975   0.265   2.980 -0.8358  1.3939 -0.0602
  981MOL0     C32354   7.924   0.350   2.871  0.7781  0.3838 -0.1551
  981MOL0     C32355   7.863   0.477   2.453 -1.1590 -0.0594 -0.7295
  981MOL0     C32356   7.866   0.420   2.322  0.6316  0.7172 -0.1150
  981MOL0     C32357   7.749   0.427   2.237 -0.9858  0.3789  0.1464
  981MOL0     C32358   7.633   0.494   2.279  0.8445 -0.6069 -0.1918
  981MOL0     O32359   7.520   0.487   2.194  0.0448 -0.6816 -0.9064
  981MOL0     C32360   7.398   0.534   2.248 -0.9019  0.5208  0.3024
  981MOL0     C32361   7.294   0.477   2.154  0.5073 -0.3584  0.1021
  981MOL0     C32362   7.287   0.540   2.009  1.5569  0.6334  0.6794
  981MOL0     C32363   7.278   0.694   2.015  0.2464 -0.8102 -0.7360
  981MOL0     C32364   7.164   0.747   2.091  0.6493 -0.0402  0.3111
  981MOL0     C32365   7.068   0.776   2.162  1.1353  0.1074 -0.0998
  981MOL0     C32366   7.637   0.560   2.407  0.2124  0.0710 -0.7341
  981MOL0     C32367   7.746   0.553   2.500 -1.0235 -0.5179 -0.1885
  981MOL0     H32368   8.226   0.400   2.716 -0.9426 -0.9532  0.5775
  981MOL0     H32369   8.306   0.252   2.891 -0.8003 -1.0296  3.9150
  981MOL0     H32370   8.212  -0.062   3.035  3.3169 -1.0756 -1.9291
  981MOL0     H32371   8.272   0.044   2.917 -1.3277 -2.3140 -0.4667
  981MOL0     H32372   8.447  -0.005   3.065 -0.5194  0.6855 -0.2378
  981MOL0     H32373   8.411   0.156   3.126  2.7958 -0.3102  0.3392
  981MOL0     H32374   8.242  -0.017   3.291 -0.5438 -2.0403  0.9186
  981MOL0     H32375   8.387  -0.108   3.264  0.3274  0.7929  1.7304
  981MOL0     H32376   8.384   0.165   3.377 -0.6745  0.0211  0.1785
  981MOL0     H32377   8.396   0.007   3.461  4.0083 -2.9988 -0.6873
  981MOL0     H32378   8.620  -0.037   3.353  2.7265  1.0756  2.3493
  981MOL0     H32379   8.614   0.114   3.263  3.3178 -2.7117 -0.4489
  981MOL0     H32380   8.600   0.225   3.485  0.9710  0.8526 -2.8186
  981MOL0     H32381   8.605   0.056   3.559 -4.0290  0.6504  0.0520
  981MOL0     H32382   8.832   0.038   3.426 -0.5852  0.3436 -1.9565
  981MOL0     H32383   8.790   0.194   3.360 -1.5124 -2.5551 -1.7024
  981MOL0     H32384   8.829   0.290   3.593 -2.4141 -0.3898 -2.2294
  981MOL0     H32385   8.969   0.216   3.527  1.0881 -1.9285  0.2289
  981MOL0     H32386   8.687   0.071   3.770  0.8820  0.3019  1.3454
  981MOL0     H32387   8.846  -0.066   4.061 -1.3345 -1.7812  0.9661
  981MOL0     H32388   8.692  -0.085   3.966  0.4352  1.2391 -1.0159
  981MOL0     H32389   8.955  -0.274   3.982  1.1300  2.9377  0.0250
  981MOL0     H32390   8.836  -0.298   3.853  1.1488 -1.5661 -0.2224
  981MOL0     H32391   8.775  -0.306   4.150 -0.4049 -0.2551  0.7828
  981MOL0     H32392   8.793  -0.454   4.043 -1.8452 -0.0467  2.0528
  981MOL0     H32393   8.588  -0.400   3.925 -1.2108  2.2271  0.4935
  981MOL0     H32394   8.566  -0.254   4.016  1.9523  1.0876  0.5524
  981MOL0     H32395   8.345  -0.347   3.974  2.7860  0.0866  0.9340
  981MOL0     H32396   8.067  -0.532   3.890  0.0305 -1.0933  2.5281
  981MOL0     H32397   8.003  -0.389   3.979 -0.2053  0.5062 -1.0380
  981MOL0     H32398   8.147  -0.375   3.875 -0.4148 -1.1924 -1.8859
  981MOL0     H32399   7.927  -0.697   4.527  1.1604  1.6694 -2.4986
  981MOL0     H32400   7.772  -0.851   4.629  1.3055  1.1172 -0.2809
  981MOL0     H32401   7.599  -0.971   4.681  1.2871 -2.1956  0.4296
  981MOL0     H32402   7.455  -1.052   4.621 -0.5385  0.4290 -1.0996
  981MOL0     H32403   7.593  -1.201   4.746  0.4234 -0.6549  1.3118
  981MOL0     H32404   7.584  -1.252   4.578 -0.9741  2.3743 -1.6826
  981MOL0     H32405   7.819  -1.095   4.687 -1.9354  0.9938  0.1117
  981MOL0     H32406   7.808  -1.161   4.521 -4.2916  0.3122 -0.3385
  981MOL0     H32407   7.846  -1.276   4.819 -1.4704 -0.9035  0.2323
  981MOL0     H32408   7.800  -1.378   4.677 -0.0771  0.7016 -1.0712
  981MOL0     H32409   8.008  -1.254   4.567 -1.8046 -2.7854 -0.7008
  981MOL0     H32410   8.041  -1.386   4.687 -2.6795 -1.0191  2.6391
  981MOL0     H32411   8.026  -1.094   4.758  0.6881 -0.0561 -0.1599
  981MOL0     H32412   8.056  -1.235   4.862 -4.3606  0.8873 -0.3273
  981MOL0     H32413   8.235  -1.139   4.636  3.3213 -1.3901  0.3712
  981MOL0     H32414   8.257  -1.297   4.716 -0.4141 -1.1049  0.2316
  981MOL0     H32415   8.403  -1.112   4.801  1.5491 -1.1493  1.0640
  981MOL0     H32416   8.298  -1.191   4.914 -2.3870 -1.6800 -2.3360
  981MOL0     H32417   7.664  -0.986   4.236 -1.6024 -1.0250  2.2552
  981MOL0     H32418   7.844  -0.850   4.135  1.5268  0.9371  0.1705
  981MOL0     H32419   8.244  -0.677   4.335 -1.5586  3.0581  1.5446
  981MOL0     H32420   8.461  -0.596   4.314  2.9617 -2.6581 -3.3403
  981MOL0     H32421   7.907   0.227   3.056  1.0008 -0.9359  0.5231
  981MOL0     H32422   7.820   0.360   2.844  0.5956  0.2638  0.4997
  981MOL0     H32423   7.953   0.367   2.283  1.4166  1.6493  0.3147
  981MOL0     H32424   7.746   0.376   2.141  2.6450  0.6811 -0.2754
  981MOL0     H32425   7.384   0.482   2.343  1.4327 -0.0860  0.3780
  981MOL0     H32426   7.392   0.642   2.258 -1.3314  0.4347  1.0057
  981MOL0     H32427   7.194   0.495   2.196 -0.1731  1.3554 -2.0745
  981MOL0     H32428   7.309   0.369   2.143  0.6491 -0.3581  0.2978
  981MOL0     H32429   7.198   0.495   1.966  1.0106  1.1899  1.2111
  981MOL0     H32430   7.369   0.510   1.943  0.7452  0.3229 -0.2028
  981MOL0     H32431   7.274   0.735   1.913 -2.4336  0.9381 -0.0410
  981MOL0     H32432   7.367   0.731   2.066  0.9896 -2.3016 -0.9169
  981MOL0     H32433   6.990   0.809   2.228 -2.3663 -1.2668 -3.2014
  981MOL0     H32434   7.553   0.627   2.420  1.1900  0.9342  1.6837
  981MOL0     H32435   7.736   0.591   2.602  0.5358 -1.4645  0.3502
  982MOL0     O32436   7.278   4.670  10.971  0.4034  0.5212  0.4660
  982MOL0     C32437   7.379   4.607  11.007  0.0320 -0.3876 -0.2343
  982MOL0     O32438   7.395   4.559  11.137  0.3694  0.5778 -0.5038
  982MOL0     C32439   7.305   4.601  11.229  0.2314 -0.5564 -0.1736
  982MOL0     C32440   7.261   4.512  11.324  0.4740 -0.4613 -0.5683
  982MOL0     C32441   7.152   4.557  11.414 -0.0238 -0.7796 -0.4466
  982MOL0     C32442   7.105   4.689  11.424  0.5092 -0.5909 -0.7147
  982MOL0     O32443   7.004   4.726  11.517 -0.1001 -1.3150  0.6756
  982MOL0     C32444   7.014   4.862  11.554  0.4454  0.3050 -0.1715
  982MOL0     C32445   6.914   4.871  11.661 -0.8268 -0.2326 -0.2046
  982MOL0     C32446   6.878   5.014  11.677  0.4535  0.2365  0.0781
  982MOL0     C32447   6.796   5.051  11.800 -0.5120  0.5181 -0.1230
  982MOL0     C32448   6.744   5.198  11.790  1.1689  0.7201 -0.0551
  982MOL0     C32449   6.625   5.241  11.895 -0.2220 -0.9711  0.1344
  982MOL0     C32450   6.678   5.244  12.041  0.2028 -0.3723 -0.0884
  982MOL0     C32451   6.607   5.144  12.126  0.1501  0.7953  0.5929
  982MOL0     N32452   6.610   5.160  12.272  0.3228  0.2624  0.0205
  982MOL0     C32453   6.717   5.209  12.339 -0.7303 -0.0236  0.0791
  982MOL0     C32454   6.666   5.226  12.464 -0.8376  1.0217  0.9432
  982MOL0     C32455   6.760   5.288  12.556  0.5878 -0.9713 -0.5277
  982MOL0     C32456   6.676   5.339  12.677  0.2088 -0.5169 -0.7790
  982MOL0     C32457   6.593   5.249  12.775 -0.0673  0.2275  0.1949
  982MOL0     C32458   6.461   5.318  12.822 -0.7750 -0.3701  0.1187
  982MOL0     O32459   6.494   5.428  12.912 -0.2388  0.6387  0.0664
  982MOL0     C32460   6.403   5.458  13.006 -0.0240  0.4708 -1.1445
  982MOL0     C32461   6.370   5.364  13.109  0.1151 -1.2616  0.3857
  982MOL0     C32462   6.304   5.402  13.228  0.6964 -0.0198  0.4654
  982MOL0     C32463   6.311   5.298  13.337  1.2899 -0.2308  0.2766
  982MOL0     C32464   6.233   5.525  13.228 -1.2362 -0.5809  0.4414
  982MOL0     C32465   6.152   5.579  13.343 -0.8244  0.2434  0.6873
  982MOL0     O32466   6.106   5.704  13.343 -0.1508 -0.9103  0.5750
  982MOL0     C32467   6.092   5.766  13.458 -0.7195 -0.3000 -0.2401
  982MOL0     C32468   5.960   5.804  13.475 -0.5734 -0.4733  0.1406
  982MOL0     C32469   5.924   5.885  13.581 -0.0896 -0.4923  0.2516
  982MOL0     C32470   6.021   5.943  13.667 -0.1507  0.1462  0.1844
  982MOL0     O32471   5.987   6.033  13.760  0.2457 -0.3390  0.5438
  982MOL0     C32472   6.068   6.036  13.877 -0.4390  0.7602 -0.5495
  982MOL0     C32473   6.011   6.127  13.992  0.1251  0.2440 -0.1659
  982MOL0     C32474   5.873   6.082  14.045  0.0309 -0.5578  0.7208
  982MOL0     C32475   5.902   6.001  14.177  0.5383  0.0976 -0.5739
  982MOL0     C32476   5.775   5.941  14.241 -0.3353  0.1570  0.8278
  982MOL0     C32477   5.800   5.886  14.376 -0.0401  0.3584  0.6998
  982MOL0     C32478   5.679   5.823  14.445  1.0454 -0.1578 -0.2695
  982MOL0     C32479   5.742   5.726  14.555  1.0936  0.7739 -0.2091
  982MOL0    Cl32480   5.622   5.594  14.612  0.1808 -0.1549 -0.1047
  982MOL0     C32481   6.159   5.899  13.653  0.2283 -0.0364 -0.7060
  982MOL0     C32482   6.187   5.806  13.552  0.4337  0.4665 -0.4674
  982MOL0     O32483   6.110   5.491  13.421 -0.0079 -0.0822  0.3215
  982MOL0     C32484   6.266   5.620  13.125 -0.4484 -0.6108  0.1222
  982MOL0     C32485   6.348   5.582  13.018 -0.2613  0.7731 -0.4976
  982MOL0     N32486   6.529   5.196  12.470  0.1489 -0.5732  0.1176
  982MOL0     N32487   6.497   5.159  12.359  0.1125 -0.1275 -0.2159
  982MOL0     C32488   7.168   4.775  11.336  0.2497 -0.8176  0.0187
  982MOL0     C32489   7.269   4.738  11.244  0.1455  1.0064  0.5573
  982MOL0     C32490   7.485   4.584  10.912 -1.3470  0.0089  1.0792
  982MOL0     C32491   7.594   4.495  10.944  0.5244 -0.5143 -1.3820
  982MOL0     C32492   7.701   4.471  10.851  0.6094  0.4877 -1.8409
  982MOL0     C32493   7.711   4.526  10.720  1.0238 -1.3257 -0.3550
  982MOL0     O32494   7.804   4.493  10.619 -0.3923 -0.1720  0.5248
  982MOL0     C32495   7.928   4.439  10.663 -0.0314 -0.2362  0.4807
  982MOL0     C32496   8.008   4.536  10.749  0.1059  0.0852 -0.3271
  982MOL0     C32497   8.041   4.658  10.662 -0.0258  0.1306  0.3534
  982MOL0     C32498   8.119   4.751  10.758  0.1817  0.3406 -0.3241
  982MOL0     C32499   8.180   4.873  10.698  0.4640  0.9244 -0.5849
  982MOL0     C32500   8.249   4.952  10.637  0.9848  0.4340  0.1513
  982MOL0     C32501   7.602   4.614  10.684 -0.0419 -0.3984 -0.9716
  982MOL0     C32502   7.498   4.647  10.780  0.0438 -0.5628 -0.1529
  982MOL0     H32503   7.296   4.410  11.322  2.5608  0.1672  0.3608
  982MOL0     H32504   7.108   4.470  11.463  0.5866 -0.5542  0.5265
  982MOL0     H32505   7.110   4.889  11.599 -0.1044  1.4736  0.3598
  982MOL0     H32506   6.996   4.933  11.473  6.0687 -1.2087 -3.2400
  982MOL0     H32507   6.823   4.812  11.649 -0.3514 -1.5430  2.0910
  982MOL0     H32508   6.961   4.838  11.754 -1.1457 -0.5064 -0.1405
  982MOL0     H32509   6.978   5.059  11.679  0.5371  0.0342  1.5833
  982MOL0     H32510   6.830   5.051  11.586  0.0426 -2.4905 -0.8985
  982MOL0     H32511   6.710   4.984  11.800 -0.7089  0.6385 -2.7892
  982MOL0     H32512   6.857   5.032  11.888 -1.0967 -0.9962 -0.0219
  982MOL0     H32513   6.836   5.257  11.780  2.6361 -1.5887 -1.1691
  982MOL0     H32514   6.704   5.204  11.688  0.9690  3.5967  0.1225
  982MOL0     H32515   6.592   5.340  11.865  0.7007 -0.6334  0.1786
  982MOL0     H32516   6.537   5.176  11.893 -3.1207  2.3890  3.4305
  982MOL0     H32517   6.783   5.224  12.061  0.1541 -0.7621 -0.2171
  982MOL0     H32518   6.649   5.346  12.066 -1.2384 -0.3784 -1.5441
  982MOL0     H32519   6.625   5.044  12.087 -0.1040  1.8443 -2.4830
  982MOL0     H32520   6.501   5.149  12.099  0.9555  0.4298 -3.1424
  982MOL0     H32521   6.815   5.252  12.320 -0.1265  0.9503  4.4023
  982MOL0     H32522   6.826   5.209  12.592  0.1014 -0.3746  1.8416
  982MOL0     H32523   6.810   5.375  12.513  0.9804 -1.2050 -0.5504
  982MOL0     H32524   6.612   5.419  12.637  2.1019  1.7197  0.4046
  982MOL0     H32525   6.747   5.396  12.738 -1.9622  2.8123 -1.0505
  982MOL0     H32526   6.642   5.219  12.868 -2.4784 -0.6005  1.2588
  982MOL0     H32527   6.562   5.157  12.725 -0.0698 -0.7576  1.9259
  982MOL0     H32528   6.395   5.246  12.872  0.8572 -0.5460  2.1257
  982MOL0     H32529   6.402   5.359  12.739  1.7626 -1.3205 -2.2936
  982MOL0     H32530   6.425   5.271  13.101 -0.0847 -1.3364 -0.1516
  982MOL0     H32531   6.308   5.340  13.438 -1.8121  1.2103 -0.2745
  982MOL0     H32532   6.229   5.225  13.331  4.2206 -4.1700  3.2788
  982MOL0     H32533   6.406   5.245  13.341  0.8156 -1.0476  1.2082
  982MOL0     H32534   5.899   5.792  13.386 -0.1160 -3.2471  0.1042
  982MOL0     H32535   5.819   5.914  13.579 -0.1112 -0.5933 -0.3963
  982MOL0     H32536   6.075   5.929  13.901  4.5332  0.5305 -1.8933
  982MOL0     H32537   6.166   6.074  13.847  0.9272 -3.4772 -2.1934
  982MOL0     H32538   6.086   6.142  14.070 -0.8609  2.8667  0.4033
  982MOL0     H32539   5.999   6.226  13.946 -2.6179  0.1809  0.2587
  982MOL0     H32540   5.819   6.017  13.975 -2.7967  0.1109  2.1165
  982MOL0     H32541   5.810   6.169  14.065 -2.6204 -2.3884  0.8614
  982MOL0     H32542   5.976   5.920  14.176  0.7177  0.2533 -0.2215
  982MOL0     H32543   5.936   6.071  14.254  4.0232 -2.1557  0.1389
  982MOL0     H32544   5.742   5.860  14.175  0.5164 -0.0843  0.6872
  982MOL0     H32545   5.706   6.024  14.225 -0.4394 -0.0835 -0.0345
  982MOL0     H32546   5.881   5.813  14.368 -0.6180 -1.0974  5.2792
  982MOL0     H32547   5.833   5.972  14.436  0.4720  1.3122 -0.8754
  982MOL0     H32548   5.627   5.768  14.366 -0.1342 -0.5709  0.7605
  982MOL0     H32549   5.615   5.899  14.490 -0.7303 -1.9919  0.4424
  982MOL0     H32550   5.760   5.793  14.640 -3.0039 -0.4173  1.8565
  982MOL0     H32551   5.829   5.675  14.513  0.7723  1.2684 -1.5452
  982MOL0     H32552   6.238   5.924  13.723  0.2984 -0.4186 -0.6462
  982MOL0     H32553   6.291   5.779  13.538  0.2971 -0.9557  1.0025
  982MOL0     H32554   6.216   5.716  13.129 -0.7683 -0.7559 -0.3281
  982MOL0     H32555   6.371   5.648  12.935 -1.1379 -1.2677 -2.4711
  982MOL0     H32556   7.146   4.881  11.347 -0.9010 -1.2079  1.9660
  982MOL0     H32557   7.293   4.817  11.174  0.1396 -0.4896 -1.1985
  982MOL0     H32558   7.601   4.446  11.041 -1.0670 -0.7061 -1.3431
  982MOL0     H32559   7.765   4.389  10.883 -1.0626 -1.2042 -2.6524
  982MOL0     H32560   7.921   4.343  10.715 -0.0175 -1.0787 -1.0173
  982MOL0     H32561   8.003   4.423  10.585 -1.4656  1.3265 -1.3132
  982MOL0     H32562   8.104   4.489  10.773 -1.2945 -3.2301 -0.7210
  982MOL0     H32563   7.947   4.562  10.835 -2.1523 -2.0895 -1.1386
  982MOL0     H32564   7.958   4.711  10.614  0.4001  0.0813 -0.4583
  982MOL0     H32565   8.102   4.626  10.576  0.2005  3.4302 -0.8969
  982MOL0     H32566   8.207   4.703  10.802  1.0501  2.8075  0.8142
  982MOL0     H32567   8.059   4.771  10.847  2.8945 -1.4797  2.1109
  982MOL0     H32568   8.324   5.004  10.581  0.9432  0.0955 -0.2243
  982MOL0     H32569   7.619   4.668  10.592 -0.9226  2.7853  0.6006
  982MOL0     H32570   7.410   4.704  10.754 -0.9266 -1.8043  0.3255
  983MOL0     O32571   1.664   8.846   3.250  0.1905 -0.0816  0.6770
  983MOL0     C32572   1.612   8.783   3.161 -0.3526  0.5031  1.0458
  983MOL0     O32573   1.507   8.703   3.172 -0.3938 -0.0657  0.7110
  983MOL0     C32574   1.413   8.723   3.267 -0.0823 -0.1107 -0.8149
  983MOL0     C32575   1.380   8.846   3.326  1.3614  0.5078 -0.2320
  983MOL0     C32576   1.270   8.853   3.411 -0.2536  1.2882 -0.2585
  983MOL0     C32577   1.199   8.739   3.444  0.1687 -0.5066 -0.1414
  983MOL0     O32578   1.099   8.742   3.536 -0.7738 -0.5684 -0.4733
  983MOL0     C32579   0.994   8.647   3.531 -0.3037 -0.1382 -0.0804
  983MOL0     C32580   0.881   8.703   3.614 -0.0751  0.0577 -0.1367
  983MOL0     C32581   0.746   8.625   3.596  0.1464  0.6204  0.4137
  983MOL0     C32582   0.751   8.479   3.646  0.8560  0.1447  0.0575
  983MOL0     C32583   0.607   8.415   3.658  0.4029  0.2562  0.4105
  983MOL0     C32584   0.613   8.274   3.726  0.0290 -0.1357 -0.4292
  983MOL0     C32585   0.472   8.205   3.734 -0.7561 -0.0183 -0.7653
  983MOL0     C32586   0.381   8.248   3.847 -0.3323 -0.3466 -0.1403
  983MOL0     N32587   0.274   8.149   3.883  0.9298 -0.6898 -0.7765
  983MOL0     C32588   0.223   8.049   3.803 -0.8270  0.4047  0.5122
  983MOL0     C32589   0.132   7.991   3.879  0.4543 -0.0265 -0.2162
  983MOL0     C32590   0.041   7.874   3.843 -1.1140  0.2880  0.3822
  983MOL0     C32591   0.126   7.740   3.826 -0.5269 -0.1845 -0.4104
  983MOL0     C32592   0.171   7.683   3.959  0.6436 -0.3956 -0.9943
  983MOL0     C32593   0.234   7.549   3.937 -0.2280  0.4639 -1.3074
  983MOL0     O32594   0.139   7.453   3.887  0.0625 -0.2154 -0.2430
  983MOL0     C32595   0.095   7.365   3.978 -0.0543 -0.7473  0.4629
  983MOL0     C32596   0.011   7.407   4.083 -0.1135 -0.1257 -0.6193
  983MOL0     C32597  -0.030   7.328   4.191 -0.2476  0.2029  0.0833
  983MOL0     C32598  -0.128   7.379   4.293  0.2782  0.0565 -0.6492
  983MOL0     C32599   0.034   7.197   4.198 -0.3591 -0.6137 -0.1542
  983MOL0     C32600   0.003   7.095   4.305  0.3084  0.5568  1.3799
  983MOL0     O32601  -0.124   7.097   4.361 -0.1968 -0.5810 -0.4637
  983MOL0     C32602  -0.183   6.981   4.422  0.5581 -0.6547 -0.0160
  983MOL0     C32603  -0.284   7.005   4.509  0.2101 -0.3640 -1.3107
  983MOL0     C32604  -0.341   6.913   4.601  0.2164 -0.2455 -0.1520
  983MOL0     C32605  -0.285   6.790   4.600  0.4153  0.5410 -0.1935
  983MOL0     O32606  -0.323   6.683   4.672 -0.2670  0.2566 -0.6181
  983MOL0     C32607  -0.344   6.711   4.818  0.2141 -0.1183  0.2000
  983MOL0     C32608  -0.344   6.584   4.908  0.1233  0.2270  0.0896
  983MOL0     C32609  -0.202   6.529   4.929  0.1948  0.7242 -0.3638
  983MOL0     C32610  -0.176   6.405   4.835  0.5406  0.4800  0.1531
  983MOL0     C32611  -0.024   6.375   4.842  1.1108 -0.0322  0.3045
  983MOL0     C32612   0.002   6.250   4.754 -0.2647 -0.2276  0.4011
  983MOL0     C32613  -0.027   6.273   4.604 -0.0960  0.6514  0.4006
  983MOL0     C32614   0.065   6.183   4.518 -0.1736 -0.1426 -0.1889
  983MOL0    Cl32615   0.055   6.222   4.348 -0.0222 -0.2601 -0.3015
  983MOL0     C32616  -0.186   6.762   4.510 -0.0124  0.2141  0.0440
  983MOL0     C32617  -0.136   6.854   4.417  0.6463 -0.2168  0.6795
  983MOL0     O32618   0.085   7.006   4.317 -0.3585  0.5237 -0.2959
  983MOL0     C32619   0.124   7.160   4.091 -0.8734  0.7638 -0.1934
  983MOL0     C32620   0.151   7.237   3.977  0.4157 -1.1865  0.1671
  983MOL0     N32621   0.115   8.069   3.998 -0.0836  0.5173 -0.0061
  983MOL0     N32622   0.202   8.157   4.006 -0.2068  0.1046  0.7467
  983MOL0     C32623   1.236   8.619   3.383  0.7069 -0.1923  0.4395
  983MOL0     C32624   1.346   8.605   3.300 -0.0767 -1.0626  0.1722
  983MOL0     C32625   1.677   8.776   3.027 -0.4450 -0.7076  0.0605
  983MOL0     C32626   1.757   8.885   2.983 -0.2203 -0.4291  0.2136
  983MOL0     C32627   1.823   8.884   2.861  0.1631  0.4147 -0.1063
  983MOL0     C32628   1.786   8.780   2.772 -1.4126 -0.6547 -0.6548
  983MOL0     O32629   1.816   8.775   2.639 -0.7239  0.2007  0.9576
  983MOL0     C32630   1.803   8.884   2.556  0.0059  0.6424  0.3057
  983MOL0     C32631   1.933   8.874   2.470  0.1111  0.3172  0.2345
  983MOL0     C32632   1.935   9.004   2.369  0.0713  0.8955 -1.1882
  983MOL0     C32633   1.906   8.947   2.235  0.0689 -0.5061 -0.7890
  983MOL0     C32634   1.933   9.043   2.128 -0.9264  0.3080 -0.0766
  983MOL0     C32635   1.984   9.119   2.050 -0.1013 -0.1151 -0.0599
  983MOL0     C32636   1.728   8.659   2.818 -0.2250 -0.1213 -0.8035
  983MOL0     C32637   1.665   8.665   2.944 -0.3523  0.9089 -0.3218
  983MOL0     H32638   1.433   8.934   3.291  0.1796  0.2237 -2.9892
  983MOL0     H32639   1.257   8.954   3.447 -2.5153 -0.1877  3.5398
  983MOL0     H32640   0.970   8.628   3.426 -3.0205  1.7394  0.0782
  983MOL0     H32641   1.023   8.546   3.563  0.3160 -0.7093 -2.2800
  983MOL0     H32642   0.917   8.701   3.717 -1.8660 -2.9214  0.5349
  983MOL0     H32643   0.862   8.808   3.590  3.9720  0.6535 -1.4717
  983MOL0     H32644   0.660   8.676   3.641 -1.0789 -2.7018  2.2515
  983MOL0     H32645   0.726   8.614   3.489  0.2406 -0.5905  0.4977
  983MOL0     H32646   0.821   8.418   3.587 -1.1125 -1.2083 -0.9817
  983MOL0     H32647   0.782   8.478   3.751 -1.0055 -0.7983  0.6403
  983MOL0     H32648   0.533   8.481   3.704 -0.3492 -1.4580  1.8043
  983MOL0     H32649   0.565   8.403   3.558 -4.3073 -1.3544  2.2702
  983MOL0     H32650   0.686   8.218   3.667 -0.9571 -1.0398 -0.8169
  983MOL0     H32651   0.653   8.284   3.827 -0.7060  0.7504 -0.2047
  983MOL0     H32652   0.409   8.224   3.647 -1.3262  6.1073  0.5238
  983MOL0     H32653   0.484   8.098   3.755  0.3768  0.4506  1.3081
  983MOL0     H32654   0.346   8.349   3.824  2.6353  0.7305 -0.3830
  983MOL0     H32655   0.443   8.251   3.936 -1.1729  0.9792  0.4312
  983MOL0     H32656   0.248   8.030   3.699 -3.9869 -0.7033 -0.1554
  983MOL0     H32657  -0.032   7.859   3.923  0.9088 -3.1120  1.8093
  983MOL0     H32658  -0.022   7.884   3.754 -0.4605  1.6029  0.0474
  983MOL0     H32659   0.215   7.761   3.765  0.5187 -3.3095 -0.0947
  983MOL0     H32660   0.065   7.668   3.771 -0.3177 -0.3379 -0.4410
  983MOL0     H32661   0.088   7.664   4.028  1.4102 -4.2484 -0.8926
  983MOL0     H32662   0.239   7.749   4.014 -1.1060 -0.2129  1.1004
  983MOL0     H32663   0.278   7.504   4.027 -3.4124 -0.9695 -0.3287
  983MOL0     H32664   0.315   7.548   3.863 -0.9451  0.8697 -2.1146
  983MOL0     H32665  -0.026   7.508   4.096 -1.1254 -0.5749  0.0430
  983MOL0     H32666  -0.087   7.386   4.394 -2.2806  2.6109  0.3404
  983MOL0     H32667  -0.160   7.483   4.284 -0.8997 -0.3876 -1.8086
  983MOL0     H32668  -0.216   7.314   4.291 -2.4350  3.3181  1.7529
  983MOL0     H32669  -0.306   7.111   4.512  2.0652  0.0370 -0.0882
  983MOL0     H32670  -0.420   6.935   4.672  0.4655 -2.6877  0.9806
  983MOL0     H32671  -0.256   6.763   4.855  0.0050 -1.1602  2.3359
  983MOL0     H32672  -0.436   6.767   4.833 -0.7627 -1.5689 -0.1281
  983MOL0     H32673  -0.387   6.618   5.003  0.5844 -0.0235  0.3881
  983MOL0     H32674  -0.412   6.504   4.877  0.2192 -0.7947  2.3267
  983MOL0     H32675  -0.213   6.495   5.032 -3.5977 -2.0129 -1.4219
  983MOL0     H32676  -0.125   6.606   4.916  2.4868 -1.7215 -2.6118
  983MOL0     H32677  -0.230   6.318   4.875 -1.2461  0.9521 -1.0892
  983MOL0     H32678  -0.200   6.422   4.730 -3.1850  1.3033  0.9928
  983MOL0     H32679  -0.023   6.339   4.946  1.2187 -4.6594 -1.0818
  983MOL0     H32680   0.041   6.457   4.811  2.3103  0.1139  2.9497
  983MOL0     H32681   0.107   6.219   4.758 -0.0765  0.3537  0.1710
  983MOL0     H32682  -0.064   6.175   4.798 -2.9500  1.6722 -0.1355
  983MOL0     H32683  -0.008   6.377   4.576 -0.6621  1.5599  3.0464
  983MOL0     H32684  -0.129   6.243   4.578 -0.7678  1.8702  1.5027
  983MOL0     H32685   0.037   6.078   4.529  3.2900 -1.1254  0.3233
  983MOL0     H32686   0.167   6.194   4.555 -1.7603  4.0224  3.8531
  983MOL0     H32687  -0.138   6.666   4.499  1.7213  0.9539  0.6928
  983MOL0     H32688  -0.049   6.823   4.361 -0.6348 -1.0612 -0.9446
  983MOL0     H32689   0.191   7.075   4.087  0.6121  1.9015 -0.5291
  983MOL0     H32690   0.220   7.209   3.898  1.0114 -1.6921  0.8453
  983MOL0     H32691   1.174   8.529   3.382 -1.4020  1.1865  0.6399
  983MOL0     H32692   1.364   8.510   3.250 -0.9520 -1.4679  0.6091
  983MOL0     H32693   1.767   8.972   3.047 -1.4836 -0.1675  0.0908
  983MOL0     H32694   1.894   8.959   2.829  1.9255  0.4019  3.2795
  983MOL0     H32695   1.720   8.876   2.485 -0.6103 -4.8324  1.1958
  983MOL0     H32696   1.800   8.976   2.615  1.6115  0.6107  0.5061
  983MOL0     H32697   1.919   8.779   2.417  0.7491 -0.2027  0.9770
  983MOL0     H32698   2.024   8.867   2.530  0.3855 -0.8970 -0.2754
  983MOL0     H32699   2.036   9.047   2.366  0.4933  0.0952  0.4531
  983MOL0     H32700   1.864   9.085   2.388 -0.0012  0.4330  0.7621
  983MOL0     H32701   1.799   8.926   2.245  0.1649 -0.5333  0.3082
  983MOL0     H32702   1.968   8.857   2.225  1.7159  0.0314  2.9669
  983MOL0     H32703   2.022   9.193   1.983  1.1417  2.9617  3.6996
  983MOL0     H32704   1.709   8.573   2.755 -0.1951 -0.1892 -0.7199
  983MOL0     H32705   1.613   8.578   2.983  1.4519  0.1809  0.6303
  984MOL0     O32706   4.001   6.364   7.202 -0.4815 -0.1758  0.1995
  984MOL0     C32707   4.077   6.455   7.233  0.3048 -0.2838 -0.3792
  984MOL0     O32708   4.092   6.562   7.154 -0.2271 -0.0808 -0.3684
  984MOL0     C32709   3.981   6.611   7.086  0.3701 -0.5649  0.2899
  984MOL0     C32710   3.856   6.606   7.133 -0.3610 -0.2254 -0.4352
  984MOL0     C32711   3.753   6.654   7.058  0.2189 -0.1423 -0.1134
  984MOL0     C32712   3.773   6.711   6.927  0.3724  0.0939  0.1122
  984MOL0     O32713   3.677   6.768   6.848  0.4555 -0.4912 -0.4991
  984MOL0     C32714   3.537   6.730   6.852  0.2755 -0.1844 -0.4928
  984MOL0     C32715   3.473   6.834   6.937  1.0754  0.4218 -0.0727
  984MOL0     C32716   3.315   6.832   6.945  0.6501  0.1209 -0.8935
  984MOL0     C32717   3.262   6.952   7.015 -0.4483 -0.1369  0.3264
  984MOL0     C32718   3.109   6.967   7.022 -0.5915 -1.7027 -0.0085
  984MOL0     C32719   3.070   7.116   7.061 -0.0211 -0.0354 -0.3745
  984MOL0     C32720   2.926   7.138   7.084 -0.4393 -0.0091  0.9061
  984MOL0     C32721   2.865   7.279   7.067  0.9155 -0.1275 -0.4902
  984MOL0     N32722   2.894   7.372   7.179 -0.1616 -0.3597  0.1659
  984MOL0     C32723   2.990   7.469   7.173  0.6865  1.3601  0.7105
  984MOL0     C32724   3.003   7.517   7.300  0.4745  0.2018  0.6059
  984MOL0     C32725   3.087   7.624   7.353 -0.2117  0.4301 -0.0523
  984MOL0     C32726   3.204   7.564   7.434  0.3492 -0.2951  0.6441
  984MOL0     C32727   3.296   7.674   7.495 -0.7825 -0.0093  0.9256
  984MOL0     C32728   3.412   7.618   7.566 -1.0170  0.0179  0.9444
  984MOL0     O32729   3.367   7.561   7.696  0.3213  0.0888 -0.8255
  984MOL0     C32730   3.333   7.655   7.792  0.7261  0.8519  0.4997
  984MOL0     C32731   3.250   7.602   7.889 -0.4344 -0.4051  0.8724
  984MOL0     C32732   3.197   7.687   7.989  0.7478 -0.2191  0.6891
  984MOL0     C32733   3.113   7.641   8.114 -0.7470  0.8006 -0.5382
  984MOL0     C32734   3.218   7.822   7.977 -0.5292 -0.2182 -0.8750
  984MOL0     C32735   3.170   7.914   8.073  1.3130  0.5590 -0.7934
  984MOL0     O32736   3.056   7.985   8.052 -0.5670  0.0170  0.5014
  984MOL0     C32737   3.013   8.097   8.122 -1.1657  0.0282 -0.2016
  984MOL0     C32738   3.044   8.122   8.255 -0.4371 -0.6925 -0.1987
  984MOL0     C32739   2.984   8.238   8.319 -0.6539 -0.3044  0.5745
  984MOL0     C32740   2.902   8.320   8.258  1.2874  0.5092  0.8916
  984MOL0     O32741   2.828   8.414   8.322 -0.4618 -0.3715 -0.5479
  984MOL0     C32742   2.863   8.552   8.278  0.3169  0.3278  0.2628
  984MOL0     C32743   2.799   8.652   8.375 -0.0689 -0.9261 -0.4835
  984MOL0     C32744   2.816   8.792   8.314  0.5243  0.0625 -0.4693
  984MOL0     C32745   2.711   8.826   8.212  0.7576  0.3082  0.4177
  984MOL0     C32746   2.705   8.967   8.157  0.0989 -0.5909 -1.5272
  984MOL0     C32747   2.653   9.074   8.268 -0.7607  0.1281  0.2431
  984MOL0     C32748   2.611   9.206   8.199 -0.2663  0.7287  0.9775
  984MOL0     C32749   2.512   9.287   8.284  0.4868 -0.9753  0.4451
  984MOL0    Cl32750   2.463   9.432   8.203 -0.3701  0.3094  0.2623
  984MOL0     C32751   2.870   8.294   8.127 -0.0137  0.2157  0.0749
  984MOL0     C32752   2.924   8.185   8.051 -0.8174  0.1895  0.8123
  984MOL0     O32753   3.237   7.922   8.175 -0.7997  0.2085  0.1583
  984MOL0     C32754   3.298   7.874   7.878  1.0358  0.2309  0.0378
  984MOL0     C32755   3.360   7.792   7.787 -0.2164 -0.9754 -0.2589
  984MOL0     N32756   2.919   7.440   7.378  0.6241 -0.0900 -1.7442
  984MOL0     N32757   2.858   7.354   7.310 -0.9513  0.5501  0.8705
  984MOL0     C32758   3.903   6.715   6.877 -0.1980 -0.0093 -0.6573
  984MOL0     C32759   4.007   6.668   6.957 -0.1979  0.1167 -0.0495
  984MOL0     C32760   4.100   6.461   7.378  0.3530 -0.1764  0.3943
  984MOL0     C32761   4.130   6.585   7.436  0.3725 -0.3357 -0.4503
  984MOL0     C32762   4.125   6.582   7.581 -0.2256  0.9347 -0.3586
  984MOL0     C32763   4.105   6.467   7.666  0.4390 -0.1316  0.4735
  984MOL0     O32764   4.092   6.476   7.801 -0.0555  0.0862  0.3661
  984MOL0     C32765   4.164   6.575   7.875 -0.4867  0.9747  0.7305
  984MOL0     C32766   4.194   6.506   8.008 -0.8994  0.0029 -0.1676
  984MOL0     C32767   4.326   6.552   8.066 -0.0438  0.0801  0.4724
  984MOL0     C32768   4.320   6.698   8.141 -0.1595  0.3365 -0.2172
  984MOL0     C32769   4.337   6.807   8.041  0.0987  0.7047  0.7233
  984MOL0     C32770   4.363   6.887   7.964  0.3030  0.1182  0.7097
  984MOL0     C32771   4.091   6.351   7.595  0.5716  0.2856 -0.3950
  984MOL0     C32772   4.090   6.352   7.462  0.0677  1.0085  0.1148
  984MOL0     H32773   3.832   6.579   7.235  1.4333 -1.6987 -0.3585
  984MOL0     H32774   3.656   6.630   7.100 -0.5359 -1.4516 -2.4095
  984MOL0     H32775   3.492   6.735   6.752 -0.7228  3.4471 -0.0306
  984MOL0     H32776   3.530   6.626   6.883 -1.3105 -0.6210 -2.1032
  984MOL0     H32777   3.508   6.837   7.041  3.5514  0.8620 -0.8691
  984MOL0     H32778   3.503   6.936   6.910  1.9238  0.4660  0.9869
  984MOL0     H32779   3.276   6.839   6.843  1.9926 -0.1600 -1.4571
  984MOL0     H32780   3.274   6.737   6.980 -1.3336  0.8264 -1.2021
  984MOL0     H32781   3.319   6.960   7.108 -1.1911 -2.1855  1.0178
  984MOL0     H32782   3.295   7.042   6.962 -0.0699  0.3604  1.3618
  984MOL0     H32783   3.060   6.941   6.927  0.2273 -1.0327 -0.6330
  984MOL0     H32784   3.079   6.895   7.098 -1.7463  0.5469  1.7825
  984MOL0     H32785   3.113   7.146   7.157 -2.3994 -0.1174  0.7971
  984MOL0     H32786   3.105   7.188   6.986 -0.9467  0.0691 -0.7225
  984MOL0     H32787   2.877   7.083   7.003  1.1012 -0.0726 -0.0099
  984MOL0     H32788   2.891   7.101   7.180 -1.6820 -0.3282  0.3559
  984MOL0     H32789   2.755   7.275   7.065  0.7901  1.3141  0.8476
  984MOL0     H32790   2.909   7.321   6.977 -0.8322  2.6200 -0.1702
  984MOL0     H32791   3.028   7.506   7.079 -1.4584 -1.3479 -1.3859
  984MOL0     H32792   3.131   7.674   7.266  0.0435 -1.6220 -1.1558
  984MOL0     H32793   3.025   7.698   7.404 -0.6556 -0.6589  1.0347
  984MOL0     H32794   3.258   7.493   7.371  1.6414  1.9831 -0.9580
  984MOL0     H32795   3.177   7.510   7.525  0.9256 -0.3484  0.7884
  984MOL0     H32796   3.242   7.743   7.559 -0.3835  0.7800  0.4228
  984MOL0     H32797   3.335   7.716   7.402 -2.0341 -1.9313 -0.5520
  984MOL0     H32798   3.487   7.696   7.580 -2.1645  0.9314  2.3427
  984MOL0     H32799   3.450   7.539   7.500 -0.3022  0.0075  1.3615
  984MOL0     H32800   3.236   7.495   7.897  2.8716 -1.0380 -0.3637
  984MOL0     H32801   3.103   7.533   8.096  1.1401  0.9589 -3.1047
  984MOL0     H32802   3.157   7.665   8.211  0.3045  2.5876 -1.4161
  984MOL0     H32803   3.015   7.685   8.098 -1.6487 -1.2773 -1.0989
  984MOL0     H32804   3.113   8.062   8.314  1.8908  0.8662 -1.1970
  984MOL0     H32805   3.018   8.255   8.421  1.3917 -1.8354  0.2236
  984MOL0     H32806   2.971   8.564   8.268  0.0082  2.6861 -0.8786
  984MOL0     H32807   2.820   8.563   8.178  2.7425 -0.4108 -0.9412
  984MOL0     H32808   2.691   8.643   8.391  0.0447 -0.0157  0.9309
  984MOL0     H32809   2.849   8.655   8.472  0.4119 -2.2689 -0.6600
  984MOL0     H32810   2.918   8.805   8.275  0.6126  0.5606 -0.0845
  984MOL0     H32811   2.800   8.855   8.403  0.2684  1.1668 -1.2726
  984MOL0     H32812   2.725   8.761   8.125  0.0810 -1.2152  1.4036
  984MOL0     H32813   2.609   8.813   8.251 -0.1929  0.8368 -1.7184
  984MOL0     H32814   2.643   8.978   8.067 -3.2953  2.4562  0.8935
  984MOL0     H32815   2.811   8.990   8.139  0.6271 -1.7266  0.0060
  984MOL0     H32816   2.565   9.027   8.312  1.2604 -1.2575  3.2102
  984MOL0     H32817   2.716   9.090   8.356 -0.0975  0.1722 -0.2302
  984MOL0     H32818   2.568   9.191   8.100 -1.7490  1.0179  1.5497
  984MOL0     H32819   2.706   9.262   8.198 -0.8094  1.9342  4.0114
  984MOL0     H32820   2.549   9.317   8.383  3.0563  0.1301 -0.7463
  984MOL0     H32821   2.424   9.223   8.294  1.4747 -2.4581  0.0170
  984MOL0     H32822   2.790   8.350   8.080  0.7782  1.3355  0.0289
  984MOL0     H32823   2.901   8.169   7.946  1.2863  3.6034 -0.3223
  984MOL0     H32824   3.314   7.981   7.869 -1.1886  0.4636 -1.9720
  984MOL0     H32825   3.435   7.834   7.721 -1.1907  0.7388 -0.3427
  984MOL0     H32826   3.928   6.755   6.779 -2.6041  1.2530 -0.8195
  984MOL0     H32827   4.100   6.664   6.902 -0.7284  1.9721 -1.1531
  984MOL0     H32828   4.152   6.677   7.382 -1.2981 -0.7436 -1.9106
  984MOL0     H32829   4.123   6.680   7.627  0.4045  0.3208  1.0351
  984MOL0     H32830   4.260   6.597   7.829  0.1009 -0.5127  1.1886
  984MOL0     H32831   4.097   6.661   7.892  1.4297  2.3213  1.8616
  984MOL0     H32832   4.199   6.399   7.987  0.9030  0.2593 -1.1978
  984MOL0     H32833   4.120   6.527   8.085  0.7067 -3.5699  2.6771
  984MOL0     H32834   4.395   6.549   7.981 -3.8288 -1.9985 -2.8361
  984MOL0     H32835   4.354   6.479   8.142 -3.7367 -2.5056 -0.3642
  984MOL0     H32836   4.396   6.703   8.219  0.5672  1.6008 -0.9710
  984MOL0     H32837   4.220   6.709   8.186  0.3461  2.6035  0.5043
  984MOL0     H32838   4.373   6.952   7.879  1.4619 -1.0288 -0.0794
  984MOL0     H32839   4.079   6.257   7.648  0.1742  1.3388  1.4799
  984MOL0     H32840   4.081   6.258   7.408  0.3973  1.0190  0.0354
  985MOL0     O32841   8.820  11.184   6.148 -0.9001 -0.5469 -0.7613
  985MOL0     C32842   8.874  11.271   6.078 -0.8307  0.0602 -0.0014
  985MOL0     O32843   8.810  11.370   6.010 -0.2825 -0.8047  0.3792
  985MOL0     C32844   8.676  11.378   6.008  0.3502 -0.1356 -0.4717
  985MOL0     C32845   8.582  11.279   6.022  0.5259  0.8677  0.6149
  985MOL0     C32846   8.448  11.299   6.023 -0.3882 -0.3656  0.6740
  985MOL0     C32847   8.398  11.426   6.015 -1.3753 -0.5981  0.3989
  985MOL0     O32848   8.264  11.433   6.016 -0.0969  0.4822  0.5382
  985MOL0     C32849   8.206  11.561   6.035  1.9300  0.2621  0.4139
  985MOL0     C32850   8.046  11.536   6.042  1.8357  0.6987 -0.0210
  985MOL0     C32851   8.016  11.426   6.149 -0.0511  0.1343  0.2171
  985MOL0     C32852   7.878  11.378   6.120  0.1885  0.5018 -0.0957
  985MOL0     C32853   7.834  11.294   6.235 -0.4953 -0.0978 -0.2494
  985MOL0     C32854   7.701  11.222   6.196 -0.0803  0.2180 -0.3420
  985MOL0     C32855   7.645  11.103   6.288  0.5894 -0.4152 -0.1393
  985MOL0     C32856   7.569  11.147   6.414 -0.3891 -0.0356 -0.8019
  985MOL0     N32857   7.553  11.026   6.500  0.3286 -0.2514 -0.5700
  985MOL0     C32858   7.477  10.918   6.477  0.3831  0.3056 -0.4994
  985MOL0     C32859   7.493  10.839   6.587 -0.5694  0.0093  0.2447
  985MOL0     C32860   7.472  10.684   6.575 -0.1981  0.7903  0.0829
  985MOL0     C32861   7.597  10.630   6.516  0.2530 -0.2839  0.8744
  985MOL0     C32862   7.584  10.491   6.463  0.4039 -0.4863  0.1793
  985MOL0     C32863   7.516  10.398   6.570 -0.4132 -0.0716  0.3046
  985MOL0     O32864   7.583  10.408   6.698 -0.5668  0.4746  0.7546
  985MOL0     C32865   7.548  10.329   6.806  0.5069  0.9312 -0.4001
  985MOL0     C32866   7.436  10.244   6.800 -1.0392 -0.0329 -0.2315
  985MOL0     C32867   7.403  10.163   6.911  0.3466  1.0187  0.0937
  985MOL0     C32868   7.274  10.096   6.893  0.8083  0.5896 -0.1446
  985MOL0     C32869   7.495  10.149   7.021 -0.8819 -0.1354 -0.7216
  985MOL0     C32870   7.472  10.053   7.129 -0.7167 -0.4699 -0.0416
  985MOL0     O32871   7.560  10.060   7.244  0.8363 -0.7052  0.4223
  985MOL0     C32872   7.514  10.012   7.369 -0.4414 -0.1625 -0.0926
  985MOL0     C32873   7.377   9.985   7.408 -0.8750 -0.2737  0.0321
  985MOL0     C32874   7.342   9.944   7.541  0.2325 -1.0015  0.6002
  985MOL0     C32875   7.435   9.942   7.644  0.3848  0.5407  0.3110
  985MOL0     O32876   7.416   9.896   7.775 -0.5057 -0.2860  0.6578
  985MOL0     C32877   7.308   9.807   7.795 -0.6205 -0.5337  0.0749
  985MOL0     C32878   7.295   9.791   7.943  0.1646 -0.3166  0.3642
  985MOL0     C32879   7.166   9.716   7.972 -1.1623 -0.3612 -0.6078
  985MOL0     C32880   7.166   9.661   8.114  0.8028  0.6998 -0.1478
  985MOL0     C32881   7.033   9.586   8.150  0.3729 -1.2672 -0.4262
  985MOL0     C32882   7.033   9.426   8.131 -0.0152 -0.0929 -1.1915
  985MOL0     C32883   6.893   9.359   8.144  0.2609 -0.3693 -1.3759
  985MOL0     C32884   6.885   9.212   8.186  0.2537  0.5875  0.1416
  985MOL0    Cl32885   6.934   9.090   8.062  0.5708  0.0323  0.0804
  985MOL0     C32886   7.566   9.971   7.609  0.3909  0.5967 -0.0290
  985MOL0     C32887   7.607  10.002   7.481 -0.4856  0.2280 -0.1998
  985MOL0     O32888   7.412   9.950   7.098  0.5358  0.5186  0.6045
  985MOL0     C32889   7.606  10.237   7.031  0.3922 -0.2615 -0.8085
  985MOL0     C32890   7.631  10.312   6.918 -0.4987 -0.0033  0.2830
  985MOL0     N32891   7.579  10.906   6.674  0.5384 -0.7457  0.2725
  985MOL0     N32892   7.610  11.014   6.625 -0.0879  0.5612  0.9775
  985MOL0     C32893   8.483  11.536   6.012  0.0462 -0.1624 -0.5253
  985MOL0     C32894   8.621  11.504   6.007  0.9627 -0.2965 -0.4569
  985MOL0     C32895   9.015  11.283   6.066  0.6984  0.2501 -1.0103
  985MOL0     C32896   9.095  11.165   6.080  0.8704 -0.6392 -0.6905
  985MOL0     C32897   9.232  11.180   6.073  0.0413  0.1077  0.9026
  985MOL0     C32898   9.292  11.311   6.063  0.3404 -0.0236  0.0579
  985MOL0     O32899   9.427  11.341   6.057  0.3429  0.4753 -0.7100
  985MOL0     C32900   9.512  11.235   6.102 -0.4215  0.1568  0.6580
  985MOL0     C32901   9.552  11.226   6.248 -0.3376 -0.0386  0.4345
  985MOL0     C32902   9.504  11.093   6.307 -0.2287  0.4738  0.4745
  985MOL0     C32903   9.547  11.068   6.448  0.3990 -0.8846 -0.0933
  985MOL0     C32904   9.508  10.931   6.498 -0.6796 -0.3157  1.2271
  985MOL0     C32905   9.480  10.824   6.545  1.2912 -0.0156  1.0174
  985MOL0     C32906   9.211  11.421   6.046  0.6194  0.4811  0.1433
  985MOL0     C32907   9.072  11.404   6.046  0.4068 -0.1733 -0.2291
  985MOL0     H32908   8.616  11.176   6.017 -0.5361  0.4849  0.9090
  985MOL0     H32909   8.391  11.209   6.005  2.8354 -2.1623 -1.5221
  985MOL0     H32910   8.235  11.604   6.132  0.3584 -0.0284  1.0476
  985MOL0     H32911   8.240  11.627   5.954 -1.0216  1.3177 -0.0764
  985MOL0     H32912   8.000  11.634   6.057 -2.7218 -1.4453  1.8026
  985MOL0     H32913   8.021  11.498   5.942 -0.5005  0.2074  0.6986
  985MOL0     H32914   8.080  11.337   6.150  1.4577  1.1590 -1.0428
  985MOL0     H32915   8.015  11.470   6.249  0.7355 -2.4304  1.4447
  985MOL0     H32916   7.809  11.462   6.110  0.2469  0.5521 -0.0701
  985MOL0     H32917   7.871  11.318   6.028  4.3541  0.0942 -0.3475
  985MOL0     H32918   7.906  11.216   6.260 -2.3953 -0.6702  4.3287
  985MOL0     H32919   7.814  11.359   6.320  1.7971  0.7847 -0.3108
  985MOL0     H32920   7.631  11.306   6.187  0.1349  0.7526  2.1077
  985MOL0     H32921   7.720  11.174   6.100 -3.8939  0.0849 -1.2045
  985MOL0     H32922   7.572  11.046   6.230 -0.8491  2.9471 -1.8655
  985MOL0     H32923   7.731  11.041   6.316  0.2493 -1.3377 -1.0652
  985MOL0     H32924   7.468  11.183   6.393 -0.0982  0.3783 -1.5405
  985MOL0     H32925   7.631  11.222   6.464  1.6260 -1.2587 -1.3575
  985MOL0     H32926   7.432  10.872   6.390 -0.1605 -0.2989  0.0970
  985MOL0     H32927   7.466  10.644   6.677 -0.3354 -0.4522 -0.3901
  985MOL0     H32928   7.380  10.661   6.519  1.2652 -1.6399 -1.5450
  985MOL0     H32929   7.671  10.642   6.596 -1.1363  0.3256  2.1214
  985MOL0     H32930   7.640  10.684   6.432 -0.1451 -0.6545  0.4226
  985MOL0     H32931   7.684  10.457   6.433 -0.4344 -1.7404 -1.3124
  985MOL0     H32932   7.526  10.491   6.371  0.8871 -0.1065 -0.1284
  985MOL0     H32933   7.514  10.293   6.539 -1.2353 -0.0875  0.3720
  985MOL0     H32934   7.409  10.420   6.584 -0.6338  0.7183 -2.1455
  985MOL0     H32935   7.373  10.239   6.711 -0.9717 -4.3765 -0.2885
  985MOL0     H32936   7.219  10.091   6.987  0.2310 -0.9112 -0.5236
  985MOL0     H32937   7.217  10.139   6.809 -1.0006  2.7940  2.0617
  985MOL0     H32938   7.292   9.991   6.869  0.5507  1.0798 -2.8992
  985MOL0     H32939   7.292  10.001   7.342 -3.1593 -4.2715  1.6155
  985MOL0     H32940   7.236   9.928   7.557 -0.0698 -2.7616 -2.3187
  985MOL0     H32941   7.214   9.844   7.753 -0.6380 -0.4124  0.2216
  985MOL0     H32942   7.328   9.712   7.744 -0.0908  0.9557 -2.6523
  985MOL0     H32943   7.386   9.746   7.984 -0.5481 -1.8388  0.3434
  985MOL0     H32944   7.280   9.884   7.999 -1.4758  1.6619 -2.9915
  985MOL0     H32945   7.150   9.627   7.909 -1.3507 -0.2914 -0.6588
  985MOL0     H32946   7.086   9.790   7.962 -1.8966 -1.0223  0.2362
  985MOL0     H32947   7.249   9.591   8.132  1.5530  1.3156 -1.1412
  985MOL0     H32948   7.175   9.749   8.178  0.1914  1.3429 -0.9240
  985MOL0     H32949   6.951   9.626   8.089 -1.4927 -0.0848  2.6190
  985MOL0     H32950   7.019   9.619   8.254  0.2430 -0.6974 -0.6216
  985MOL0     H32951   7.063   9.399   8.029  0.4315 -3.0761 -0.3505
  985MOL0     H32952   7.110   9.390   8.201 -0.4528  0.9786 -0.1281
  985MOL0     H32953   6.832   9.394   8.060 -3.7850  0.8956  1.7524
  985MOL0     H32954   6.849   9.414   8.228 -2.3492 -0.4735 -2.5832
  985MOL0     H32955   6.780   9.197   8.211 -0.2209  0.6380 -1.7311
  985MOL0     H32956   6.947   9.209   8.277 -0.1616  1.7137  0.4733
  985MOL0     H32957   7.637   9.974   7.691 -0.4058 -0.5815  0.7386
  985MOL0     H32958   7.713  10.019   7.464 -0.8076  1.0049 -1.5749
  985MOL0     H32959   7.671  10.249   7.117  2.2270  1.0310 -2.3019
  985MOL0     H32960   7.697  10.398   6.921 -3.9981  2.8957  2.0075
  985MOL0     H32961   8.456  11.640   6.004  0.6052  0.0660  0.3780
  985MOL0     H32962   8.670  11.598   5.981 -0.7160  0.6374 -0.3540
  985MOL0     H32963   9.036  11.076   6.100 -2.5104  1.7464  1.0945
  985MOL0     H32964   9.292  11.090   6.081 -0.0164  0.0564  0.7418
  985MOL0     H32965   9.470  11.139   6.071 -1.0388 -0.2345  2.5869
  985MOL0     H32966   9.596  11.252   6.034 -1.8376  0.9024 -0.9925
  985MOL0     H32967   9.527  11.316   6.305  0.2753 -0.8437  2.0458
  985MOL0     H32968   9.662  11.231   6.251 -0.4290  2.1700  1.4634
  985MOL0     H32969   9.545  11.012   6.246  1.5231 -0.1972  2.4159
  985MOL0     H32970   9.396  11.080   6.289 -0.3661  0.6145  1.1816
  985MOL0     H32971   9.493  11.136   6.514 -3.2416 -3.8717  0.2931
  985MOL0     H32972   9.657  11.072   6.451  0.4023  0.4357 -0.9565
  985MOL0     H32973   9.435  10.737   6.589 -3.4969  1.7467  0.2018
  985MOL0     H32974   9.248  11.523   6.043 -0.7005  1.0120 -3.4792
  985MOL0     H32975   9.011  11.493   6.031  2.6624  1.1802 -2.0083
  986MOL0     O32976   1.140   6.441   7.724  0.2340  0.2657  1.0515
  986MOL0     C32977   1.100   6.339   7.788 -0.8729 -0.9330  1.1041
  986MOL0     O32978   1.026   6.333   7.898  0.5217  0.1254 -0.7690
  986MOL0     C32979   1.014   6.441   7.986  0.7171 -0.9248 -0.6797
  986MOL0     C32980   1.028   6.433   8.129  0.0420  0.3642 -0.0392
  986MOL0     C32981   1.005   6.545   8.209 -0.2659  0.8763 -0.5528
  986MOL0     C32982   0.977   6.665   8.161  1.0614 -0.0572  1.0218
  986MOL0     O32983   0.957   6.782   8.226 -0.4554  0.0015 -0.1495
  986MOL0     C32984   0.997   6.794   8.359 -1.1518  0.3974 -0.6884
  986MOL0     C32985   1.001   6.950   8.401  0.4901  0.1290  0.8486
  986MOL0     C32986   0.866   7.011   8.392 -0.6973  0.7326  0.3688
  986MOL0     C32987   0.876   7.139   8.303 -0.1613 -0.5521  0.1155
  986MOL0     C32988   0.795   7.248   8.375 -0.9561 -0.7585  0.4377
  986MOL0     C32989   0.649   7.223   8.367  0.4348  0.0355  0.3820
  986MOL0     C32990   0.571   7.353   8.326  0.6172 -0.2091  0.0664
  986MOL0     C32991   0.446   7.326   8.246  0.2624 -0.5212 -0.2998
  986MOL0     N32992   0.380   7.449   8.197  0.3516  0.4894 -0.0933
  986MOL0     C32993   0.272   7.501   8.256  0.7904 -0.3547  0.4731
  986MOL0     C32994   0.228   7.594   8.165 -0.1260  0.3662  0.7942
  986MOL0     C32995   0.100   7.672   8.186 -1.9934 -0.4096  0.1696
  986MOL0     C32996   0.093   7.807   8.105  0.6061 -0.0240  0.1062
  986MOL0     C32997  -0.044   7.860   8.091  0.2286 -0.3546  0.2749
  986MOL0     C32998  -0.077   7.945   7.955 -0.1489  0.3505  1.2463
  986MOL0     O32999  -0.192   8.024   7.964  0.0937  0.6587 -0.8754
  986MOL0     C33000  -0.304   7.946   8.000 -0.0388 -0.3372  0.0530
  986MOL0     C33001  -0.347   7.931   8.137 -0.3345  0.4068  0.7911
  986MOL0     C33002  -0.469   7.858   8.171 -0.0961 -0.5445  0.1289
  986MOL0     C33003  -0.490   7.858   8.318  0.1135  0.0907  0.1396
  986MOL0     C33004  -0.521   7.783   8.067  0.0333  0.8557 -0.6340
  986MOL0     C33005  -0.626   7.680   8.087 -0.0826  0.2834 -0.6115
  986MOL0     O33006  -0.650   7.645   8.211 -0.3323 -0.0199  0.3958
  986MOL0     C33007  -0.724   7.529   8.239  0.2077 -0.1032 -0.2733
  986MOL0     C33008  -0.864   7.529   8.264  0.3537 -0.3407  0.1112
  986MOL0     C33009  -0.938   7.406   8.287 -0.6311  0.2181  0.0219
  986MOL0     C33010  -0.875   7.281   8.277  1.1175  0.1503 -0.4648
  986MOL0     O33011  -0.945   7.156   8.287  0.4489 -0.4277  0.4884
  986MOL0     C33012  -1.083   7.158   8.276  0.9952  0.3119  0.9182
  986MOL0     C33013  -1.142   7.013   8.278 -1.3186 -0.4328  0.2033
  986MOL0     C33014  -1.181   6.971   8.420  0.4874 -0.1741 -0.1967
  986MOL0     C33015  -1.331   6.995   8.444  0.2826  0.7555  0.4116
  986MOL0     C33016  -1.393   6.890   8.549 -0.1519  0.9401  0.1334
  986MOL0     C33017  -1.543   6.880   8.526  0.1270  0.2046  1.0564
  986MOL0     C33018  -1.583   6.780   8.405  0.4763  0.8040  0.3064
  986MOL0     C33019  -1.703   6.837   8.321  0.8546  1.0513  0.0318
  986MOL0    Cl33020  -1.855   6.828   8.399 -0.3674 -0.0054 -0.0540
  986MOL0     C33021  -0.731   7.277   8.258 -0.2380  0.0911  0.4289
  986MOL0     C33022  -0.665   7.405   8.231 -0.8319 -0.4015 -0.4609
  986MOL0     O33023  -0.676   7.612   7.992  0.3006 -0.7482  0.1752
  986MOL0     C33024  -0.481   7.800   7.930  1.2754 -0.5131 -0.0262
  986MOL0     C33025  -0.373   7.878   7.903  0.1671 -0.7558 -0.7128
  986MOL0     N33026   0.311   7.589   8.052  0.1819  0.3858 -0.0826
  986MOL0     N33027   0.400   7.500   8.071 -0.3401 -0.7000  0.7528
  986MOL0     C33028   0.949   6.665   8.027  0.3397 -0.0306 -0.4365
  986MOL0     C33029   0.957   6.561   7.936  0.2854 -0.9620 -0.1399
  986MOL0     C33030   1.127   6.222   7.710  0.1481  0.8997  0.5230
  986MOL0     C33031   1.160   6.214   7.570 -0.4217  0.3520 -0.4533
  986MOL0     C33032   1.173   6.093   7.507 -0.6169 -0.4627  0.9986
  986MOL0     C33033   1.152   5.968   7.568 -0.1702 -0.2776  0.1302
  986MOL0     O33034   1.159   5.852   7.500 -0.1988 -0.0372  0.0471
  986MOL0     C33035   1.245   5.853   7.393  0.7813  0.4533  0.5053
  986MOL0     C33036   1.294   5.704   7.371  0.1332  0.1767 -0.1335
  986MOL0     C33037   1.196   5.609   7.307 -0.4584  0.1235 -0.0678
  986MOL0     C33038   1.215   5.456   7.326  0.3978 -0.0208  0.1798
  986MOL0     C33039   1.326   5.409   7.234 -0.5842 -0.0652  0.0012
  986MOL0     C33040   1.409   5.366   7.158  1.0692 -0.7202  0.7213
  986MOL0     C33041   1.117   5.981   7.702 -0.2324 -1.3346 -0.2166
  986MOL0     C33042   1.099   6.104   7.772 -0.3504  0.0233 -0.1579
  986MOL0     H33043   1.039   6.336   8.176  0.8917  0.8439  0.7824
  986MOL0     H33044   1.029   6.531   8.314  0.6141  0.9101 -0.7407
  986MOL0     H33045   0.941   6.728   8.426 -0.3344 -1.7385 -2.0236
  986MOL0     H33046   1.101   6.766   8.374 -1.0830  1.3432  0.8979
  986MOL0     H33047   1.028   6.966   8.505  3.8938 -0.3086  0.1489
  986MOL0     H33048   1.076   6.996   8.337  0.7501 -0.0938  0.9932
  986MOL0     H33049   0.794   6.939   8.352 -1.7154  1.1629  1.3778
  986MOL0     H33050   0.838   7.030   8.496  2.4111  0.9617  1.2811
  986MOL0     H33051   0.981   7.168   8.298 -0.7974  1.7915 -0.8406
  986MOL0     H33052   0.836   7.130   8.201 -0.7657  3.2908 -0.1316
  986MOL0     H33053   0.845   7.271   8.469  4.9626 -2.5201 -1.8101
  986MOL0     H33054   0.813   7.336   8.313 -2.9303 -1.0254 -0.6019
  986MOL0     H33055   0.628   7.159   8.281 -2.8136  2.4796 -0.8513
  986MOL0     H33056   0.604   7.188   8.461  4.4213 -2.4585  1.6202
  986MOL0     H33057   0.547   7.411   8.415 -0.2273  2.4659 -1.7808
  986MOL0     H33058   0.631   7.420   8.264 -0.7650  1.6519  0.6819
  986MOL0     H33059   0.375   7.273   8.311 -0.2394  1.6493  1.0158
  986MOL0     H33060   0.480   7.275   8.155  2.9252 -1.4906  1.1503
  986MOL0     H33061   0.228   7.468   8.350 -0.7684 -0.8639 -0.3996
  986MOL0     H33062   0.021   7.605   8.152 -2.4014 -0.8465  1.8677
  986MOL0     H33063   0.089   7.709   8.289  1.5818  1.6118 -0.0215
  986MOL0     H33064   0.135   7.786   8.006 -2.1227  0.6765 -1.3021
  986MOL0     H33065   0.150   7.892   8.144 -2.0089  1.4667  0.9141
  986MOL0     H33066  -0.061   7.905   8.190  2.2918  1.1969 -0.0175
  986MOL0     H33067  -0.116   7.778   8.078 -2.2056  2.1632 -5.1555
  986MOL0     H33068  -0.089   7.874   7.872 -1.7893  1.0263  0.8626
  986MOL0     H33069   0.012   7.999   7.922 -1.4833  2.0757  0.3275
  986MOL0     H33070  -0.303   7.996   8.212 -1.8144  1.5699  0.7162
  986MOL0     H33071  -0.451   7.953   8.356  1.3047 -0.4424  0.2981
  986MOL0     H33072  -0.594   7.868   8.351  0.5300  1.7297  1.0631
  986MOL0     H33073  -0.434   7.775   8.362  2.0082 -0.2391 -2.6519
  986MOL0     H33074  -0.923   7.619   8.268  2.8970  1.4012  1.8370
  986MOL0     H33075  -1.043   7.426   8.302 -0.6633  1.7031 -1.8266
  986MOL0     H33076  -1.124   7.221   8.356  2.3642 -0.8021  2.5713
  986MOL0     H33077  -1.100   7.197   8.175 -2.2319 -0.4953  1.0463
  986MOL0     H33078  -1.219   6.998   8.201  0.6649 -1.6530 -1.6697
  986MOL0     H33079  -1.070   6.942   8.236  0.3797  1.2725  0.1065
  986MOL0     H33080  -1.118   7.030   8.488 -0.8919  2.2928 -0.9075
  986MOL0     H33081  -1.164   6.865   8.439 -0.0230 -0.1162  0.6463
  986MOL0     H33082  -1.345   7.096   8.484  2.5733  1.5333 -0.5792
  986MOL0     H33083  -1.381   6.995   8.347  2.9613  0.1760 -1.0533
  986MOL0     H33084  -1.366   6.922   8.650 -1.5850  0.5715  0.6454
  986MOL0     H33085  -1.367   6.785   8.540 -0.7132  0.3945  3.4826
  986MOL0     H33086  -1.603   6.850   8.612 -2.2920 -0.9456 -0.9121
  986MOL0     H33087  -1.574   6.984   8.507 -2.1747 -0.7986 -1.1933
  986MOL0     H33088  -1.606   6.686   8.457  0.7011 -1.1719 -2.9384
  986MOL0     H33089  -1.495   6.775   8.341 -0.8178 -1.2687 -1.4390
  986MOL0     H33090  -1.708   6.773   8.232  0.3434  0.3815  0.5343
  986MOL0     H33091  -1.685   6.941   8.294  0.0093  1.1123 -0.3356
  986MOL0     H33092  -0.669   7.188   8.267  0.1324  0.4694  1.9380
  986MOL0     H33093  -0.557   7.408   8.222 -0.6960  1.6625  1.1013
  986MOL0     H33094  -0.531   7.750   7.847  0.7901  0.0087 -0.0518
  986MOL0     H33095  -0.352   7.903   7.799 -0.3558  0.9062 -0.4387
  986MOL0     H33096   0.934   6.762   7.980 -1.0005  0.9794  1.8810
  986MOL0     H33097   0.946   6.567   7.829 -1.1010  0.4907  0.0449
  986MOL0     H33098   1.179   6.306   7.514 -1.3031  2.0431  1.8495
  986MOL0     H33099   1.192   6.101   7.401 -0.9967 -0.5977  0.9173
  986MOL0     H33100   1.197   5.892   7.303  1.7208  1.5133  0.4362
  986MOL0     H33101   1.333   5.912   7.420  0.4541  0.2366  2.1622
  986MOL0     H33102   1.347   5.665   7.459  1.0527  1.5990 -0.0302
  986MOL0     H33103   1.381   5.705   7.304  1.0002 -1.0160  0.9179
  986MOL0     H33104   1.193   5.612   7.197 -3.0907  0.3376 -0.0552
  986MOL0     H33105   1.103   5.635   7.358  1.0199  3.5034  1.2267
  986MOL0     H33106   1.121   5.410   7.294  0.2390  0.8564 -0.6603
  986MOL0     H33107   1.224   5.436   7.433  0.6307 -0.8753  0.0172
  986MOL0     H33108   1.474   5.328   7.082  0.8751  0.7414 -0.2215
  986MOL0     H33109   1.090   5.887   7.749 -1.7951 -1.2339 -0.8749
  986MOL0     H33110   1.060   6.094   7.872 -0.5700  0.6472 -0.1788
  987MOL0     O33111   4.545   1.321   1.359  0.3927  0.0684 -0.0335
  987MOL0     C33112   4.501   1.372   1.461 -0.1354  0.3336  1.2006
  987MOL0     O33113   4.528   1.495   1.506  0.1602 -0.4983 -0.6302
  987MOL0     C33114   4.598   1.593   1.444 -0.3379 -0.1254  0.6595
  987MOL0     C33115   4.635   1.693   1.533 -0.3402 -1.1243  0.3365
  987MOL0     C33116   4.711   1.798   1.480  0.2053  0.1085 -0.2437
  987MOL0     C33117   4.749   1.804   1.345  1.9489 -0.2099 -0.8589
  987MOL0     O33118   4.812   1.914   1.317 -0.5508 -0.1950  0.5249
  987MOL0     C33119   4.871   1.930   1.189 -0.1054 -0.1639  0.6787
  987MOL0     C33120   4.953   2.060   1.209  0.7522  0.0867 -0.4547
  987MOL0     C33121   5.011   2.105   1.079 -0.2539 -0.2104  0.2927
  987MOL0     C33122   5.044   2.256   1.079  0.4465 -0.4647 -0.0171
  987MOL0     C33123   5.113   2.310   0.950  0.4760  1.3652  0.7005
  987MOL0     C33124   5.156   2.454   0.964 -0.5427 -0.3406  0.2283
  987MOL0     C33125   5.278   2.478   1.062 -0.8320 -0.3175 -0.1296
  987MOL0     C33126   5.351   2.610   1.017  0.5439 -1.3536 -0.0028
  987MOL0     N33127   5.279   2.738   1.037  0.7125 -0.2490 -0.0341
  987MOL0     C33128   5.262   2.802   1.160 -1.0835  0.8287 -0.5994
  987MOL0     C33129   5.233   2.931   1.120  0.7008  0.2922  0.6820
  987MOL0     C33130   5.246   3.043   1.231  0.2753 -0.4738  0.4397
  987MOL0     C33131   5.395   3.082   1.248  0.3600  0.1505 -0.4358
  987MOL0     C33132   5.470   3.131   1.115 -0.5673 -0.7892  0.5697
  987MOL0     C33133   5.604   3.037   1.113  0.5144 -0.5859  0.3461
  987MOL0     O33134   5.573   2.907   1.051  0.6979  1.2592 -0.0382
  987MOL0     C33135   5.668   2.816   1.034  0.9959 -0.7620 -0.7018
  987MOL0     C33136   5.757   2.782   1.131  0.8568  0.6407  0.8081
  987MOL0     C33137   5.852   2.673   1.121  0.2701 -0.1698 -0.8243
  987MOL0     C33138   5.927   2.640   1.238 -0.1729 -0.5141 -0.1626
  987MOL0     C33139   5.860   2.609   0.996 -0.1720  0.1709  0.4702
  987MOL0     C33140   5.960   2.504   0.971  0.3862 -0.6575 -0.3593
  987MOL0     O33141   6.031   2.531   0.858  0.3686 -0.3814  0.1330
  987MOL0     C33142   6.118   2.433   0.803  0.4852  1.2544  0.0049
  987MOL0     C33143   6.083   2.292   0.787  0.4740 -0.4005 -0.2311
  987MOL0     C33144   6.186   2.209   0.738  0.6466  1.0331  0.5208
  987MOL0     C33145   6.311   2.258   0.702  0.1023  0.3107 -0.0496
  987MOL0     O33146   6.417   2.195   0.653  0.1561  0.0042  0.2592
  987MOL0     C33147   6.397   2.075   0.582 -1.0981 -0.1503  0.9021
  987MOL0     C33148   6.509   2.053   0.485 -1.2169 -0.5505  0.1612
  987MOL0     C33149   6.642   2.065   0.555 -0.4064  0.3654  0.0461
  987MOL0     C33150   6.766   2.030   0.475  0.4030  0.9943  0.1897
  987MOL0     C33151   6.892   2.052   0.546 -0.3741 -0.8119 -0.5879
  987MOL0     C33152   6.922   2.194   0.585 -0.1391 -0.0890 -0.6076
  987MOL0     C33153   7.068   2.203   0.630 -1.0641  0.0815 -0.3195
  987MOL0     C33154   7.117   2.110   0.739  0.3294 -0.4117 -0.3412
  987MOL0    Cl33155   7.127   1.930   0.707 -0.0023 -0.7800  0.6988
  987MOL0     C33156   6.336   2.391   0.707  0.0095 -0.3030 -0.6799
  987MOL0     C33157   6.238   2.479   0.759  1.0025  0.3199  0.7336
  987MOL0     O33158   5.965   2.401   1.043 -0.0095 -0.0505  0.2936
  987MOL0     C33159   5.768   2.645   0.890  0.1766 -0.5973  1.2258
  987MOL0     C33160   5.679   2.752   0.911 -0.5765  0.5229  0.2046
  987MOL0     N33161   5.188   2.932   0.987 -0.8879 -0.0074  0.1354
  987MOL0     N33162   5.217   2.812   0.941  0.2613  0.3381 -0.1961
  987MOL0     C33163   4.716   1.699   1.262  0.4053 -0.5028  0.2570
  987MOL0     C33164   4.640   1.600   1.307  0.1358  0.1178  0.2641
  987MOL0     C33165   4.401   1.289   1.536 -0.3093 -0.1073 -0.7259
  987MOL0     C33166   4.399   1.150   1.546 -0.9527  0.4614 -0.1010
  987MOL0     C33167   4.304   1.093   1.631  0.1004  0.3437 -0.3438
  987MOL0     C33168   4.194   1.173   1.684 -0.2697  0.6665 -1.0497
  987MOL0     O33169   4.088   1.102   1.746  0.0128  0.1365  0.4167
  987MOL0     C33170   3.964   1.163   1.784  0.2438 -0.3472 -0.6765
  987MOL0     C33171   3.880   1.088   1.893 -0.5768  0.5885  1.2612
  987MOL0     C33172   3.746   1.155   1.912  0.1383  0.3246 -0.3912
  987MOL0     C33173   3.684   1.068   2.020  0.8816  0.5761 -0.2229
  987MOL0     C33174   3.539   1.077   2.032 -0.3144 -0.2326  0.4017
  987MOL0     C33175   3.416   1.096   2.039 -0.2147  1.0124 -1.1326
  987MOL0     C33176   4.198   1.310   1.665 -0.4564  0.3418 -0.1593
  987MOL0     C33177   4.302   1.369   1.599 -0.3566  0.1665 -0.6882
  987MOL0     H33178   4.595   1.697   1.633  0.3584 -2.3140  0.6812
  987MOL0     H33179   4.731   1.885   1.541 -2.0216 -0.1035  0.8961
  987MOL0     H33180   4.941   1.850   1.164  2.2894  1.8730  0.4980
  987MOL0     H33181   4.796   1.943   1.110  2.2199 -1.3690 -1.9144
  987MOL0     H33182   4.890   2.145   1.237  0.1652 -1.0631  1.9567
  987MOL0     H33183   5.032   2.059   1.284 -1.0921 -0.3796  1.5793
  987MOL0     H33184   5.094   2.041   1.048  0.9569 -0.3208  3.3290
  987MOL0     H33185   4.940   2.109   0.997  0.5341  0.8880 -0.3692
  987MOL0     H33186   4.944   2.299   1.083 -0.5693 -2.0179 -4.2216
  987MOL0     H33187   5.109   2.283   1.164  0.1746 -0.8985  0.3336
  987MOL0     H33188   5.202   2.248   0.934  0.9491  2.4708 -1.2658
  987MOL0     H33189   5.048   2.292   0.864  0.5325  2.4774  0.4148
  987MOL0     H33190   5.185   2.480   0.862 -1.3218 -1.1612 -0.2057
  987MOL0     H33191   5.073   2.522   0.987 -0.5873 -0.1236 -0.5759
  987MOL0     H33192   5.259   2.487   1.169 -1.5505 -1.3920 -0.1487
  987MOL0     H33193   5.351   2.400   1.042 -1.9002 -1.6502  0.9655
  987MOL0     H33194   5.365   2.603   0.909  0.2800 -0.7083 -0.0798
  987MOL0     H33195   5.441   2.623   1.077 -0.5930  2.6205  1.1209
  987MOL0     H33196   5.297   2.761   1.254 -1.4132  1.4853 -0.1874
  987MOL0     H33197   5.178   3.123   1.198  0.6039  0.2164  1.3880
  987MOL0     H33198   5.212   3.006   1.328 -6.5831  0.4775 -1.0551
  987MOL0     H33199   5.447   2.996   1.290  2.4791  2.5710  2.2757
  987MOL0     H33200   5.394   3.159   1.326  1.1688 -2.4276  2.2952
  987MOL0     H33201   5.500   3.233   1.142  1.1013 -1.6541  2.2526
  987MOL0     H33202   5.419   3.121   1.019 -1.4039 -0.7344  1.0043
  987MOL0     H33203   5.632   3.030   1.218  0.7549 -5.0343  0.1730
  987MOL0     H33204   5.684   3.087   1.058  1.8394 -0.2002  2.5477
  987MOL0     H33205   5.749   2.828   1.229 -0.1545 -2.2561  2.1747
  987MOL0     H33206   6.032   2.612   1.221  1.4839  4.8627 -0.6015
  987MOL0     H33207   5.935   2.716   1.316 -2.2323 -1.5430  1.1637
  987MOL0     H33208   5.889   2.545   1.277 -1.9970  0.0838 -0.3823
  987MOL0     H33209   5.988   2.248   0.816 -2.4375  5.1057 -0.0778
  987MOL0     H33210   6.158   2.104   0.741 -1.0686  1.4676  2.5926
  987MOL0     H33211   6.393   1.997   0.658 -3.1112 -2.2563 -1.2096
  987MOL0     H33212   6.303   2.064   0.526  0.0711 -2.8967 -0.6846
  987MOL0     H33213   6.505   1.954   0.437 -0.9226  0.1157 -1.2999
  987MOL0     H33214   6.504   2.133   0.410 -1.0687  0.1173  0.8551
  987MOL0     H33215   6.639   2.006   0.647 -1.8249  3.2030  1.9533
  987MOL0     H33216   6.658   2.168   0.588 -3.0157  0.9862 -0.4334
  987MOL0     H33217   6.754   1.923   0.453  0.2750  1.1489 -0.5317
  987MOL0     H33218   6.766   2.082   0.379 -3.1149  1.4993  0.3076
  987MOL0     H33219   6.969   2.013   0.480 -2.8360 -0.8078 -3.7338
  987MOL0     H33220   6.889   2.005   0.644 -0.7408 -1.7675 -1.0396
  987MOL0     H33221   6.896   2.261   0.503 -0.9229  0.5498  0.1406
  987MOL0     H33222   6.855   2.211   0.671  1.2031 -1.3547  0.7574
  987MOL0     H33223   7.080   2.301   0.675 -2.6300 -0.4052  1.2916
  987MOL0     H33224   7.127   2.198   0.537 -0.0148 -0.3685  0.3498
  987MOL0     H33225   7.050   2.105   0.826 -0.3073  1.6408 -0.6433
  987MOL0     H33226   7.211   2.158   0.768 -1.7708  3.1311  1.2470
  987MOL0     H33227   6.437   2.421   0.684 -0.8145  2.1469 -1.3854
  987MOL0     H33228   6.252   2.585   0.779 -0.6174  0.8266 -0.5346
  987MOL0     H33229   5.764   2.591   0.796  1.1508  1.6244 -0.1656
  987MOL0     H33230   5.611   2.788   0.835 -2.0884 -0.5343  0.9891
  987MOL0     H33231   4.756   1.697   1.161 -2.0125 -0.1448 -0.7617
  987MOL0     H33232   4.609   1.527   1.232 -0.9900  2.0047 -1.1839
  987MOL0     H33233   4.482   1.094   1.505 -0.0263  5.4051 -6.5520
  987MOL0     H33234   4.300   0.986   1.649  3.6556  0.0367 -0.6396
  987MOL0     H33235   3.996   1.261   1.820 -0.2142 -0.4547  0.0346
  987MOL0     H33236   3.903   1.191   1.697  0.6848 -1.6192 -1.4328
  987MOL0     H33237   3.941   1.103   1.983 -0.9848 -1.2287  1.8974
  987MOL0     H33238   3.865   0.983   1.868 -0.3340  1.0048 -0.7769
  987MOL0     H33239   3.692   1.155   1.817 -2.3303  2.4635  0.8962
  987MOL0     H33240   3.760   1.259   1.944 -0.3789 -0.0220  1.0336
  987MOL0     H33241   3.726   1.078   2.121  0.0711 -3.8398  0.7463
  987MOL0     H33242   3.681   0.963   1.989 -3.3344  0.4431  0.1125
  987MOL0     H33243   3.311   1.091   2.058 -0.2579  0.5190 -1.4842
  987MOL0     H33244   4.113   1.366   1.701  0.1582  1.8387 -0.9625
  987MOL0     H33245   4.311   1.477   1.598  1.8966  0.0343 -0.1601
  988MOL0     O33246   0.692   4.800   5.413  0.7775  0.6892 -0.0708
  988MOL0     C33247   0.757   4.898   5.406 -0.3263 -0.0285  0.0804
  988MOL0     O33248   0.890   4.901   5.367 -0.3633 -0.1486  0.6086
  988MOL0     C33249   0.947   4.789   5.311 -0.3944 -0.8250 -0.4610
  988MOL0     C33250   1.021   4.709   5.392 -0.0239 -0.1486 -1.0094
  988MOL0     C33251   1.086   4.594   5.347 -0.2798 -0.3619 -0.0667
  988MOL0     C33252   1.076   4.555   5.208  0.6635  1.4252 -0.8791
  988MOL0     O33253   1.124   4.431   5.163  0.3312  0.6045  1.2918
  988MOL0     C33254   1.274   4.416   5.184  0.5144  0.1956 -0.7339
  988MOL0     C33255   1.296   4.270   5.236  0.8126 -0.6534  0.3633
  988MOL0     C33256   1.430   4.229   5.295  0.5328 -0.2111 -0.4477
  988MOL0     C33257   1.482   4.331   5.384  0.4626 -1.2143  0.1861
  988MOL0     C33258   1.623   4.308   5.436 -0.2695 -0.9833 -0.1222
  988MOL0     C33259   1.632   4.199   5.547 -0.2623  0.7293  1.1312
  988MOL0     C33260   1.773   4.178   5.589  0.4999  0.1609  0.1002
  988MOL0     C33261   1.802   4.064   5.686  0.1660  1.5415 -0.4024
  988MOL0     N33262   1.947   4.051   5.701 -0.4348  0.5424 -0.2436
  988MOL0     C33263   2.003   4.081   5.821  0.8119 -0.4434 -0.6027
  988MOL0     C33264   2.136   4.061   5.803 -0.3622  1.1785  0.1547
  988MOL0     C33265   2.244   4.079   5.905  0.1618 -0.7273  0.4066
  988MOL0     C33266   2.270   4.226   5.939 -0.6774  0.0602  0.4045
  988MOL0     C33267   2.311   4.323   5.823  0.6178 -0.2467  0.1384
  988MOL0     C33268   2.196   4.364   5.725  0.8262 -0.2995  0.8699
  988MOL0     O33269   2.114   4.463   5.789  0.1258 -0.1981  0.2797
  988MOL0     C33270   2.012   4.520   5.719 -0.0707  0.6259 -0.2835
  988MOL0     C33271   1.932   4.608   5.786 -0.2754 -0.0942 -0.2474
  988MOL0     C33272   1.825   4.670   5.723 -0.2792  0.2297  0.9312
  988MOL0     C33273   1.741   4.760   5.823  0.0787 -0.7124 -0.1633
  988MOL0     C33274   1.804   4.650   5.581 -0.2361  0.8107 -0.4547
  988MOL0     C33275   1.705   4.726   5.514  0.1089  0.5161  0.7099
  988MOL0     O33276   1.668   4.662   5.396  0.0445 -0.7744  0.7682
  988MOL0     C33277   1.585   4.729   5.307  0.0321  0.1176  0.2102
  988MOL0     C33278   1.445   4.722   5.306  0.0839 -0.0084  0.0986
  988MOL0     C33279   1.372   4.802   5.210  0.3919  0.6226  0.5115
  988MOL0     C33280   1.441   4.877   5.113  0.0925 -0.2445  0.2486
  988MOL0     O33281   1.379   4.958   5.012 -0.0419  0.9393 -0.0507
  988MOL0     C33282   1.240   4.928   4.981 -0.1420  0.2925 -0.4150
  988MOL0     C33283   1.124   5.004   5.056 -0.4327  0.8227 -0.3737
  988MOL0     C33284   1.108   5.148   5.003 -0.0897  0.7292  0.5063
  988MOL0     C33285   1.030   5.229   5.105  0.2223 -0.6634 -0.0310
  988MOL0     C33286   0.993   5.372   5.036 -0.9041 -0.2871 -0.2612
  988MOL0     C33287   1.098   5.467   4.986 -2.2461 -0.5604  1.0213
  988MOL0     C33288   1.214   5.499   5.089  0.1688 -0.1879  0.0596
  988MOL0     C33289   1.250   5.648   5.088  0.6781  0.1555  0.5577
  988MOL0    Cl33290   1.130   5.749   5.174  0.4380 -0.7505 -0.4483
  988MOL0     C33291   1.580   4.877   5.115 -0.2447  0.1713  0.6613
  988MOL0     C33292   1.646   4.809   5.216  0.5757 -0.0661 -0.9143
  988MOL0     O33293   1.686   4.839   5.548 -0.1331  0.1940  0.5827
  988MOL0     C33294   1.876   4.541   5.520  0.3431  0.5522  0.3170
  988MOL0     C33295   1.982   4.485   5.590  0.2812  0.4890  0.2936
  988MOL0     N33296   2.153   4.009   5.670 -0.3010 -0.6499 -0.3791
  988MOL0     N33297   2.037   4.005   5.609 -0.0609 -0.4966 -0.5167
  988MOL0     C33298   1.005   4.646   5.129  0.4234  1.1989  0.9151
  988MOL0     C33299   0.934   4.754   5.177 -0.3705 -1.0836  0.7332
  988MOL0     C33300   0.696   5.030   5.432 -0.0151  0.2972  0.2178
  988MOL0     C33301   0.776   5.141   5.448  0.1611 -1.2131  0.4541
  988MOL0     C33302   0.724   5.259   5.488  0.2879 -0.3584 -0.0289
  988MOL0     C33303   0.592   5.278   5.516  0.1924 -0.5160  0.2152
  988MOL0     O33304   0.550   5.408   5.556  0.2653  0.0399  0.4246
  988MOL0     C33305   0.590   5.445   5.684  0.0009  0.7486 -0.2575
  988MOL0     C33306   0.510   5.380   5.793  0.0322  0.5181 -0.3461
  988MOL0     C33307   0.363   5.433   5.792 -0.5335  0.7308 -0.7589
  988MOL0     C33308   0.288   5.373   5.912  1.0953 -0.4690 -0.3985
  988MOL0     C33309   0.148   5.425   5.927  1.0178  0.7799 -0.7850
  988MOL0     C33310   0.046   5.485   5.955 -0.1940  0.5830  0.8844
  988MOL0     C33311   0.509   5.175   5.485 -0.6008  0.8986  0.0073
  988MOL0     C33312   0.562   5.047   5.445 -0.3590 -0.4883 -0.5420
  988MOL0     H33313   1.042   4.723   5.498 -1.9781 -0.2361 -0.5544
  988MOL0     H33314   1.135   4.525   5.414 -0.7570 -1.6662 -1.0186
  988MOL0     H33315   1.326   4.429   5.088 -0.3523 -0.8673 -1.3759
  988MOL0     H33316   1.308   4.491   5.255 -0.5538 -0.3478  0.3769
  988MOL0     H33317   1.224   4.247   5.315 -0.8934 -1.6555 -1.4072
  988MOL0     H33318   1.276   4.209   5.148  0.7222  0.8305 -0.6922
  988MOL0     H33319   1.439   4.136   5.352 -0.3530 -0.9710 -1.4785
  988MOL0     H33320   1.501   4.220   5.212  1.6069 -0.5899  0.4852
  988MOL0     H33321   1.490   4.424   5.328 -1.0558 -1.6295 -0.7699
  988MOL0     H33322   1.420   4.364   5.467  0.2736  2.6521 -1.2828
  988MOL0     H33323   1.698   4.302   5.357  1.2334  0.9271  1.0792
  988MOL0     H33324   1.656   4.394   5.495  0.3278 -0.4952 -1.1379
  988MOL0     H33325   1.568   4.235   5.628 -2.7299  3.5343 -1.7509
  988MOL0     H33326   1.602   4.101   5.509  1.7946  0.7098 -0.6293
  988MOL0     H33327   1.822   4.139   5.499  1.0876 -0.1498  0.5471
  988MOL0     H33328   1.820   4.272   5.620 -0.9903  1.3118 -0.9509
  988MOL0     H33329   1.769   3.969   5.644 -0.8021  0.2246  2.9589
  988MOL0     H33330   1.761   4.069   5.788  1.1759 -1.6615  0.2748
  988MOL0     H33331   1.961   4.129   5.908  0.6090  2.4000 -2.1411
  988MOL0     H33332   2.226   4.021   5.996 -2.2620 -2.5776 -1.1472
  988MOL0     H33333   2.341   4.037   5.875 -0.3550 -0.9251 -1.0741
  988MOL0     H33334   2.336   4.237   6.026  0.1820  0.4671 -0.2858
  988MOL0     H33335   2.180   4.279   5.973 -1.7936 -1.6824  0.2779
  988MOL0     H33336   2.387   4.268   5.767  0.5771  1.2601 -1.4733
  988MOL0     H33337   2.356   4.412   5.868 -1.2142 -0.1305  1.8633
  988MOL0     H33338   2.140   4.280   5.683  1.5646 -0.2682 -0.2210
  988MOL0     H33339   2.240   4.399   5.631 -2.6643 -1.8642 -1.5628
  988MOL0     H33340   1.954   4.639   5.887 -1.3470 -0.8121  0.2281
  988MOL0     H33341   1.648   4.800   5.781  0.4092  0.5688  0.2867
  988MOL0     H33342   1.717   4.695   5.907 -0.4677  1.3372  1.3391
  988MOL0     H33343   1.816   4.831   5.860  1.1796 -2.4909  1.1427
  988MOL0     H33344   1.391   4.673   5.385  0.4563  1.0677  1.0509
  988MOL0     H33345   1.265   4.812   5.224  0.6766  1.6928  2.2417
  988MOL0     H33346   1.223   4.941   4.874  0.3912 -3.7222 -1.1648
  988MOL0     H33347   1.217   4.821   4.982 -0.2239  0.3082 -0.5560
  988MOL0     H33348   1.032   4.945   5.051  1.1456 -1.7278 -0.5539
  988MOL0     H33349   1.156   5.011   5.160 -1.5640  3.0092 -0.1055
  988MOL0     H33350   1.062   5.156   4.904  0.9111  2.1137  0.1236
  988MOL0     H33351   1.208   5.189   4.988  0.6634 -0.5526  1.7665
  988MOL0     H33352   0.941   5.174   5.138  1.1207 -2.3052 -0.1899
  988MOL0     H33353   1.097   5.239   5.191  0.0085 -0.3920  0.1026
  988MOL0     H33354   0.936   5.432   5.107 -1.8408  1.3119 -2.2559
  988MOL0     H33355   0.938   5.335   4.948  1.4677 -4.6212 -0.2098
  988MOL0     H33356   1.131   5.422   4.892  1.1631  1.6551  0.9857
  988MOL0     H33357   1.054   5.560   4.948 -0.3721 -0.6151 -1.5446
  988MOL0     H33358   1.301   5.437   5.064 -0.3932 -0.1332 -2.3142
  988MOL0     H33359   1.186   5.455   5.185 -0.1745 -0.7441 -0.2821
  988MOL0     H33360   1.264   5.695   4.990 -0.4208  0.7448  0.6689
  988MOL0     H33361   1.343   5.652   5.145  1.5358  0.2924 -0.8166
  988MOL0     H33362   1.644   4.936   5.051  2.1951 -0.0785  2.7159
  988MOL0     H33363   1.754   4.824   5.213  0.4425  0.9247 -1.5445
  988MOL0     H33364   1.857   4.514   5.417  1.2406 -0.4824  0.3923
  988MOL0     H33365   2.039   4.408   5.539  1.6831  0.0074  2.4465
  988MOL0     H33366   0.984   4.630   5.024  0.2203  1.9389  0.8320
  988MOL0     H33367   0.863   4.807   5.116 -2.5843 -1.4753  2.8261
  988MOL0     H33368   0.884   5.144   5.434  0.3779  0.6478  2.1714
  988MOL0     H33369   0.789   5.343   5.507 -1.5845  0.9578  0.8965
  988MOL0     H33370   0.698   5.427   5.687 -0.1650 -0.7248 -1.5314
  988MOL0     H33371   0.571   5.552   5.693  1.2438  0.9014  0.8405
  988MOL0     H33372   0.561   5.402   5.888  0.6049  0.6472 -0.6769
  988MOL0     H33373   0.514   5.270   5.790  2.4830  0.5405 -0.0759
  988MOL0     H33374   0.317   5.405   5.696  0.3116 -0.5623 -0.8255
  988MOL0     H33375   0.348   5.541   5.799 -0.4109  0.7956 -1.3586
  988MOL0     H33376   0.337   5.392   6.007 -2.0309 -2.3755  1.7735
  988MOL0     H33377   0.284   5.264   5.903  1.5554 -0.6077  0.9307
  988MOL0     H33378  -0.043   5.538   5.983  0.2375  1.1455  1.2188
  988MOL0     H33379   0.401   5.177   5.491 -0.7013  1.1546 -1.4820
  988MOL0     H33380   0.493   4.968   5.419 -0.5905 -0.5419  0.2131
  989MOL0     O33381   5.228   3.449   2.923  0.3788 -0.6098 -0.2439
  989MOL0     C33382   5.242   3.571   2.905 -0.4749 -0.6201 -0.0959
  989MOL0     O33383   5.140   3.665   2.869  0.0491  0.0408  0.7602
  989MOL0     C33384   5.011   3.627   2.857  0.2093  0.6350  0.6335
  989MOL0     C33385   4.949   3.642   2.734  0.5208 -0.6405 -0.4712
  989MOL0     C33386   4.810   3.621   2.719  0.2566  0.4448 -0.8832
  989MOL0     C33387   4.739   3.547   2.822 -0.9937 -0.0504  0.2217
  989MOL0     O33388   4.608   3.523   2.838  0.5012 -0.1814 -0.3270
  989MOL0     C33389   4.520   3.518   2.730  1.1799  0.1891  0.0378
  989MOL0     C33390   4.379   3.451   2.780  0.0126 -0.1756 -0.1308
  989MOL0     C33391   4.280   3.415   2.675  0.7338 -0.5409 -0.2496
  989MOL0     C33392   4.321   3.291   2.600 -0.2703 -0.4897 -0.6175
  989MOL0     C33393   4.231   3.266   2.485 -0.0609 -1.0013 -0.2381
  989MOL0     C33394   4.252   3.128   2.417 -0.8486 -1.3080  0.7316
  989MOL0     C33395   4.182   3.125   2.279  0.1798 -0.3556 -0.1696
  989MOL0     C33396   4.170   2.977   2.227  0.7444 -0.1207 -0.8285
  989MOL0     N33397   4.079   2.907   2.314 -1.0634  0.9071 -0.4281
  989MOL0     C33398   3.947   2.930   2.315 -0.3950 -1.4936 -0.9322
  989MOL0     C33399   3.893   2.856   2.414 -0.5582  0.2903 -0.6768
  989MOL0     C33400   3.745   2.857   2.453 -0.7958  0.9905  0.0137
  989MOL0     C33401   3.697   2.711   2.455 -0.5406 -0.1939  0.2301
  989MOL0     C33402   3.762   2.622   2.566 -0.2120 -0.5413 -0.2187
  989MOL0     C33403   3.663   2.513   2.589 -0.0705 -1.0124 -1.0031
  989MOL0     O33404   3.561   2.558   2.682  0.3550 -0.2180  0.9057
  989MOL0     C33405   3.434   2.522   2.656 -0.4934  0.1397 -0.4200
  989MOL0     C33406   3.379   2.406   2.711 -0.0683 -0.0719  0.2745
  989MOL0     C33407   3.252   2.361   2.682  0.2650 -0.4016  0.4426
  989MOL0     C33408   3.214   2.232   2.751  0.0343  0.0143  0.8081
  989MOL0     C33409   3.172   2.433   2.598  0.0379  0.5684 -0.5841
  989MOL0     C33410   3.028   2.392   2.555 -0.6197 -0.0364  0.0345
  989MOL0     O33411   3.001   2.433   2.428  0.1503 -0.4237  0.0278
  989MOL0     C33412   2.880   2.435   2.369  0.0615 -1.4823 -0.3891
  989MOL0     C33413   2.889   2.458   2.233  0.8160 -0.3731  0.7786
  989MOL0     C33414   2.775   2.491   2.162 -0.3591  0.2196  0.6117
  989MOL0     C33415   2.647   2.483   2.217 -0.4533 -1.3173 -0.0206
  989MOL0     O33416   2.530   2.498   2.144  0.1610 -0.1595 -0.2441
  989MOL0     C33417   2.541   2.486   2.003 -0.5729  0.4992  0.5338
  989MOL0     C33418   2.550   2.629   1.941 -0.8316  0.1891  0.2772
  989MOL0     C33419   2.540   2.611   1.787  0.2631 -0.8004 -0.1441
  989MOL0     C33420   2.388   2.601   1.731  0.2133 -0.1334  0.1126
  989MOL0     C33421   2.392   2.569   1.588 -0.0063 -0.4866  0.2130
  989MOL0     C33422   2.251   2.533   1.532 -0.4555 -0.1058  0.7027
  989MOL0     C33423   2.225   2.531   1.373 -0.6460 -0.9098 -0.0217
  989MOL0     C33424   2.227   2.670   1.308  0.3270 -0.0421  0.4325
  989MOL0    Cl33425   2.093   2.769   1.367  0.0811 -0.1892  0.0968
  989MOL0     C33426   2.636   2.450   2.358 -0.2660  0.9805  1.2959
  989MOL0     C33427   2.756   2.430   2.435  0.4413 -0.1848 -1.5292
  989MOL0     O33428   2.959   2.340   2.639  0.7124 -0.2403  0.9461
  989MOL0     C33429   3.213   2.557   2.556 -0.5807 -0.3538 -0.4363
  989MOL0     C33430   3.348   2.599   2.578 -0.2581 -0.4960 -0.7135
  989MOL0     N33431   4.003   2.797   2.481  0.9040  0.1506 -0.4751
  989MOL0     N33432   4.108   2.812   2.406 -0.0924 -0.0731  0.1932
  989MOL0     C33433   4.812   3.514   2.942 -0.1879 -0.0360 -0.1756
  989MOL0     C33434   4.943   3.558   2.964 -0.1415 -0.3311 -0.4085
  989MOL0     C33435   5.383   3.627   2.923  0.3139  0.3626 -0.5783
  989MOL0     C33436   5.480   3.544   2.982 -1.1865  0.8852 -0.3722
  989MOL0     C33437   5.616   3.585   2.984  0.0138  0.0980  0.7657
  989MOL0     C33438   5.660   3.709   2.929 -0.6158 -1.7467  0.0939
  989MOL0     O33439   5.785   3.755   2.922  0.6924  0.3355 -0.2720
  989MOL0     C33440   5.896   3.670   2.954 -0.5246 -0.3595 -0.4413
  989MOL0     C33441   6.005   3.761   3.016  0.2823  0.7007 -0.1407
  989MOL0     C33442   5.950   3.820   3.136 -0.3914 -0.2216 -0.7111
  989MOL0     C33443   6.049   3.892   3.207 -0.0756  0.0008 -0.3472
  989MOL0     C33444   5.996   3.950   3.332 -0.7845 -0.3036 -0.0208
  989MOL0     C33445   5.951   3.993   3.439 -0.6009  0.9359 -1.6619
  989MOL0     C33446   5.560   3.791   2.872 -0.3229 -0.3287  0.1455
  989MOL0     C33447   5.426   3.752   2.867  0.0218  0.1214 -0.3048
  989MOL0     H33448   5.010   3.668   2.648 -0.4213  2.1616 -0.3929
  989MOL0     H33449   4.752   3.667   2.640 -0.8764 -0.7348 -0.7702
  989MOL0     H33450   4.498   3.619   2.696 -1.4067  0.0398  0.9650
  989MOL0     H33451   4.554   3.467   2.639 -2.1559 -2.0687 -0.1394
  989MOL0     H33452   4.398   3.360   2.837 -0.7123 -0.9330 -1.0651
  989MOL0     H33453   4.313   3.508   2.847 -2.4253  1.1839 -3.4046
  989MOL0     H33454   4.198   3.388   2.743  2.4921  2.2287  3.3271
  989MOL0     H33455   4.258   3.503   2.615  4.5256  1.3765  0.8528
  989MOL0     H33456   4.420   3.294   2.554  1.6950 -6.0862  2.2413
  989MOL0     H33457   4.320   3.214   2.679  0.0327 -0.2507 -0.3746
  989MOL0     H33458   4.130   3.259   2.526 -0.3496 -2.9669 -1.1390
  989MOL0     H33459   4.249   3.344   2.410  0.6159 -0.6371  0.2968
  989MOL0     H33460   4.358   3.102   2.417 -0.9261 -1.8535 -1.4026
  989MOL0     H33461   4.205   3.048   2.475 -0.9223 -1.9291 -0.1633
  989MOL0     H33462   4.081   3.164   2.286  0.3071  0.4053 -1.9037
  989MOL0     H33463   4.243   3.178   2.205  2.5114  0.0104  1.8806
  989MOL0     H33464   4.267   2.928   2.221  0.7773  0.1183 -4.0676
  989MOL0     H33465   4.124   2.978   2.128 -1.0787 -1.2964 -0.0423
  989MOL0     H33466   3.891   3.002   2.256 -0.4190 -0.2459  0.5253
  989MOL0     H33467   3.721   2.909   2.546 -1.4949  2.7133 -1.0713
  989MOL0     H33468   3.689   2.916   2.380 -1.9273 -1.5981 -1.3282
  989MOL0     H33469   3.726   2.664   2.360  1.0369 -2.1298  1.5921
  989MOL0     H33470   3.588   2.709   2.468 -0.9218 -1.3842 -2.3848
  989MOL0     H33471   3.777   2.665   2.665 -1.6965 -0.1531 -0.1377
  989MOL0     H33472   3.863   2.599   2.530 -0.1951  1.5640 -1.6757
  989MOL0     H33473   3.723   2.429   2.624  0.4296 -0.3248 -0.1630
  989MOL0     H33474   3.620   2.490   2.491 -2.0058 -1.6110 -0.0435
  989MOL0     H33475   3.460   2.358   2.765  1.4870  0.1417 -1.7498
  989MOL0     H33476   3.201   2.155   2.674  1.1297  0.4513  0.1592
  989MOL0     H33477   3.303   2.204   2.807  2.9153  1.4597 -2.6815
  989MOL0     H33478   3.126   2.253   2.813 -0.8192  0.8142 -0.6089
  989MOL0     H33479   2.978   2.466   2.170  0.7457  1.8228  0.8742
  989MOL0     H33480   2.797   2.516   2.059 -3.3266  0.9824  0.0689
  989MOL0     H33481   2.625   2.427   1.966  0.9443  3.3129 -0.9014
  989MOL0     H33482   2.440   2.454   1.974 -0.7226  0.2469  1.3117
  989MOL0     H33483   2.469   2.695   1.973 -0.4904  0.9761 -0.4246
  989MOL0     H33484   2.645   2.678   1.963 -0.4667 -1.4483  2.7357
  989MOL0     H33485   2.597   2.523   1.758 -1.5566 -1.2784 -2.5407
  989MOL0     H33486   2.594   2.695   1.741  0.2208 -0.6308  0.1089
  989MOL0     H33487   2.345   2.515   1.784 -0.3977  0.7325  1.0659
  989MOL0     H33488   2.323   2.687   1.753 -0.6824 -0.7889  0.1105
  989MOL0     H33489   2.465   2.491   1.567 -0.9977 -1.4229  0.1046
  989MOL0     H33490   2.439   2.657   1.544 -0.6124  0.0865  0.6888
  989MOL0     H33491   2.228   2.435   1.576 -2.6268  0.0200 -0.0000
  989MOL0     H33492   2.173   2.593   1.579  1.4084  3.5478 -0.5046
  989MOL0     H33493   2.127   2.483   1.364 -2.0931  1.5347  1.5432
  989MOL0     H33494   2.289   2.460   1.320  1.0399  1.2232 -1.0404
  989MOL0     H33495   2.215   2.659   1.200  0.7629 -0.5916  0.4343
  989MOL0     H33496   2.319   2.724   1.330 -0.2075  1.0000  0.1546
  989MOL0     H33497   2.536   2.445   2.399 -0.6380  0.4690  0.3609
  989MOL0     H33498   2.735   2.428   2.542 -2.6460  0.8252 -2.0204
  989MOL0     H33499   3.136   2.618   2.509 -2.5069 -1.4010  1.1870
  989MOL0     H33500   3.398   2.690   2.547 -0.9926  0.3797  0.5632
  989MOL0     H33501   4.762   3.465   3.025 -0.1150 -0.0198 -0.1226
  989MOL0     H33502   5.000   3.542   3.055 -1.8602  0.0992  0.8104
  989MOL0     H33503   5.458   3.448   3.026  3.0176 -0.6788 -1.1885
  989MOL0     H33504   5.675   3.505   3.027 -1.7500 -0.8522  1.5451
  989MOL0     H33505   5.866   3.579   3.006  0.1251 -2.0586 -2.8505
  989MOL0     H33506   5.938   3.632   2.860  0.7034  0.8529 -0.4198
  989MOL0     H33507   6.048   3.834   2.946  2.0159 -2.2144 -2.3629
  989MOL0     H33508   6.087   3.694   3.040 -0.1153  0.6633  1.1638
  989MOL0     H33509   5.910   3.736   3.194  2.0277 -2.2218 -1.7619
  989MOL0     H33510   5.872   3.895   3.121  0.8561  0.9245 -1.6213
  989MOL0     H33511   6.099   3.971   3.151  0.6611 -1.6349 -2.1057
  989MOL0     H33512   6.121   3.816   3.238 -1.6128 -1.1823  0.5148
  989MOL0     H33513   5.924   4.049   3.526  1.4178 -1.9489  1.0287
  989MOL0     H33514   5.592   3.885   2.828 -0.3020  1.0207  2.8479
  989MOL0     H33515   5.365   3.818   2.805 -0.4442 -0.5877 -0.6109
  990MOL0     O33516   3.077   0.691  10.412  0.1028  0.6116  0.2906
  990MOL0     C33517   3.144   0.637  10.500 -0.3887  0.8736 -0.2104
  990MOL0     O33518   3.180   0.684  10.625 -0.8565 -0.3492  0.0879
  990MOL0     C33519   3.173   0.822  10.645 -0.8461 -0.0078  0.1106
  990MOL0     C33520   3.180   0.930  10.550 -0.1807 -0.1482 -0.0618
  990MOL0     C33521   3.170   1.062  10.599 -0.3254 -0.1338 -0.0652
  990MOL0     C33522   3.167   1.094  10.732  0.5124  0.4963 -0.3919
  990MOL0     O33523   3.176   1.223  10.784  0.5680 -0.7400  0.9918
  990MOL0     C33524   3.146   1.327  10.697 -1.6525 -1.6352  0.0631
  990MOL0     C33525   3.199   1.453  10.762  0.2379 -0.3193 -0.1329
  990MOL0     C33526   3.168   1.592  10.692 -0.2421  0.0163  0.1728
  990MOL0     C33527   3.151   1.709  10.792 -0.3397 -0.2072 -0.2920
  990MOL0     C33528   3.247   1.713  10.911  1.4556 -1.1275  0.2225
  990MOL0     C33529   3.183   1.773  11.039 -0.7899  0.8282 -0.1113
  990MOL0     C33530   3.281   1.865  11.118 -0.5805  0.1417  0.0761
  990MOL0     C33531   3.208   1.964  11.211  0.3009 -0.7655  0.2444
  990MOL0     N33532   3.097   1.908  11.291 -0.3713 -0.1830 -0.1989
  990MOL0     C33533   3.109   1.807  11.386  0.3470  0.2869  0.2810
  990MOL0     C33534   2.986   1.758  11.402  0.3097 -0.6545 -0.0939
  990MOL0     C33535   2.937   1.657  11.496  0.2487 -0.2192  1.3073
  990MOL0     C33536   2.825   1.574  11.438  0.0562 -0.2559  0.8095
  990MOL0     C33537   2.813   1.438  11.518  0.2166 -0.2075 -0.2712
  990MOL0     C33538   2.690   1.367  11.486  0.2111  0.3630  0.3204
  990MOL0     O33539   2.581   1.445  11.529  0.6773  0.2987 -0.3464
  990MOL0     C33540   2.464   1.369  11.545 -0.9967  0.2207  0.5780
  990MOL0     C33541   2.409   1.306  11.431 -0.7754 -0.2185  1.4473
  990MOL0     C33542   2.291   1.230  11.425  0.1990  0.3461  0.4101
  990MOL0     C33543   2.239   1.185  11.283 -0.3144 -0.3510 -0.3025
  990MOL0     C33544   2.209   1.227  11.540 -0.7523  0.0219  0.4355
  990MOL0     C33545   2.085   1.155  11.557 -1.4217  0.1029 -0.1224
  990MOL0     O33546   1.977   1.209  11.630  0.4273  0.3264  0.2759
  990MOL0     C33547   1.866   1.137  11.657 -1.0005 -0.2282 -0.7290
  990MOL0     C33548   1.863   1.000  11.677  0.0157 -0.5329  0.5190
  990MOL0     C33549   1.746   0.936  11.721  0.9669  0.1035 -0.4175
  990MOL0     C33550   1.624   1.009  11.743 -0.5657 -0.9736  1.3998
  990MOL0     O33551   1.504   0.960  11.781 -0.6472  0.1815  0.1200
  990MOL0     C33552   1.495   0.832  11.852 -0.4780 -0.2941  0.0728
  990MOL0     C33553   1.384   0.755  11.794 -0.5793 -0.0297  0.2162
  990MOL0     C33554   1.373   0.610  11.848 -0.1795 -1.1335 -0.2739
  990MOL0     C33555   1.378   0.593  11.991  0.4590 -0.4143 -0.1281
  990MOL0     C33556   1.349   0.440  12.018 -0.3070  0.2312 -1.0472
  990MOL0     C33557   1.339   0.420  12.164 -0.2703 -0.8213 -0.3899
  990MOL0     C33558   1.341   0.269  12.201  0.7894  0.2578 -0.1426
  990MOL0     C33559   1.351   0.262  12.347 -0.9578  0.2696 -0.7382
  990MOL0    Cl33560   1.331   0.086  12.379 -0.1704  0.0655 -0.0776
  990MOL0     C33561   1.626   1.145  11.697 -0.3385  0.0088 -0.0035
  990MOL0     C33562   1.742   1.210  11.669  0.8254 -0.7367 -0.0735
  990MOL0     O33563   2.082   1.067  11.481 -0.0795 -0.2870  0.7395
  990MOL0     C33564   2.278   1.276  11.667  1.1507 -0.0643 -0.1199
  990MOL0     C33565   2.396   1.355  11.668  0.2836 -1.1511  0.0225
  990MOL0     N33566   2.908   1.832  11.306 -0.5035 -0.4005  0.3559
  990MOL0     N33567   2.972   1.918  11.236 -0.2750  0.1582 -1.0221
  990MOL0     C33568   3.173   0.985  10.828  0.4816 -0.0844  0.5248
  990MOL0     C33569   3.170   0.851  10.784 -0.8672  0.6411  0.3705
  990MOL0     C33570   3.178   0.498  10.471  0.3778 -0.0736  0.0259
  990MOL0     C33571   3.315   0.466  10.443  0.5288 -1.3469  0.6868
  990MOL0     C33572   3.354   0.342  10.397  0.2214  0.3456  0.0831
  990MOL0     C33573   3.255   0.246  10.384  0.4191  1.2929 -0.0115
  990MOL0     O33574   3.283   0.123  10.333  0.6213 -0.3436  0.3117
  990MOL0     C33575   3.322   0.015  10.429 -0.6378  0.0134 -0.1277
  990MOL0     C33576   3.301  -0.123  10.371 -0.5882  0.9607 -0.2311
  990MOL0     C33577   3.307  -0.230  10.477 -0.9105  1.0464  0.3931
  990MOL0     C33578   3.172  -0.239  10.561  0.5016 -0.2242  0.1928
  990MOL0     C33579   3.161  -0.367  10.629 -0.3030 -0.5414  0.6265
  990MOL0     C33580   3.142  -0.479  10.674 -0.2506  0.8931  0.3715
  990MOL0     C33581   3.119   0.274  10.418 -0.5467  0.3953 -0.2938
  990MOL0     C33582   3.079   0.402  10.457  0.0447 -0.0616 -0.7404
  990MOL0     H33583   3.185   0.910  10.443  1.1447  3.2656 -0.7786
  990MOL0     H33584   3.161   1.131  10.516 -1.5046  0.6458  0.6805
  990MOL0     H33585   3.195   1.314  10.600  1.5466 -0.2052  1.3413
  990MOL0     H33586   3.038   1.337  10.687 -1.5432  1.3419  0.8970
  990MOL0     H33587   3.153   1.450  10.861  0.6899 -0.8695  0.0631
  990MOL0     H33588   3.306   1.437  10.777  0.4230  1.8382  1.3780
  990MOL0     H33589   3.263   1.610  10.640  1.6360 -0.7026  3.1658
  990MOL0     H33590   3.081   1.575  10.628 -1.3615  2.9357  0.7723
  990MOL0     H33591   3.174   1.803  10.741  0.3150  0.9968  2.0649
  990MOL0     H33592   3.047   1.721  10.821  0.3096  0.0036  2.1488
  990MOL0     H33593   3.289   1.615  10.938  2.1486 -1.5805 -2.2166
  990MOL0     H33594   3.331   1.778  10.885 -0.0955  1.2572  0.8808
  990MOL0     H33595   3.091   1.827  11.011  0.2744  3.0438  0.4506
  990MOL0     H33596   3.156   1.693  11.108  2.2512 -1.1747 -1.0592
  990MOL0     H33597   3.352   1.797  11.166  0.6999 -0.1276 -2.0956
  990MOL0     H33598   3.344   1.927  11.054  1.0416 -0.9343  0.5597
  990MOL0     H33599   3.177   2.049  11.149  0.7602 -1.5086 -1.0468
  990MOL0     H33600   3.280   2.003  11.283  0.2920 -3.0598  1.5648
  990MOL0     H33601   3.202   1.778  11.435  0.7628  1.7379  0.4001
  990MOL0     H33602   3.022   1.593  11.521 -0.6451 -2.7682 -1.5283
  990MOL0     H33603   2.902   1.696  11.592 -1.7626  2.9501 -0.5375
  990MOL0     H33604   2.835   1.555  11.330  2.3984  0.0131  0.9372
  990MOL0     H33605   2.734   1.634  11.442  0.6177  1.0004 -2.3211
  990MOL0     H33606   2.802   1.448  11.626  1.5381 -1.3271 -0.0031
  990MOL0     H33607   2.895   1.369  11.497  0.1834 -1.1876  2.4679
  990MOL0     H33608   2.678   1.272  11.539 -3.6926  1.9634  2.7285
  990MOL0     H33609   2.693   1.355  11.377  2.9674  0.7092  0.2779
  990MOL0     H33610   2.471   1.311  11.342  0.2434 -0.9194  2.0912
  990MOL0     H33611   2.302   1.231  11.206  0.0167 -0.7672 -0.2874
  990MOL0     H33612   2.247   1.077  11.265 -0.2197 -1.0037  3.0073
  990MOL0     H33613   2.132   1.205  11.273 -0.6943 -1.1074  1.7925
  990MOL0     H33614   1.953   0.945  11.653  0.2347  0.3385 -0.8203
  990MOL0     H33615   1.754   0.829  11.741  0.4614  0.7374  3.9900
  990MOL0     H33616   1.591   0.780  11.862 -2.1457 -3.6145  0.0540
  990MOL0     H33617   1.468   0.856  11.955  0.1065  1.7338 -0.2003
  990MOL0     H33618   1.294   0.804  11.832  1.4764  2.7080  2.0136
  990MOL0     H33619   1.387   0.750  11.685 -3.2409  0.3341  0.0548
  990MOL0     H33620   1.463   0.556  11.816  0.4855  1.1356 -2.5311
  990MOL0     H33621   1.278   0.584  11.801 -1.3819  3.1611 -0.5901
  990MOL0     H33622   1.477   0.616  12.033 -1.1641  1.3009  3.1485
  990MOL0     H33623   1.296   0.647  12.039 -2.8287 -5.2096  0.3568
  990MOL0     H33624   1.422   0.372  11.974  1.3690 -2.2065  4.5439
  990MOL0     H33625   1.258   0.415  11.964  0.8761 -1.9159 -2.1952
  990MOL0     H33626   1.418   0.475  12.216 -0.5581  1.0805 -1.8263
  990MOL0     H33627   1.241   0.459  12.193 -1.5931 -2.4743 -2.3384
  990MOL0     H33628   1.427   0.221  12.153  3.1563  1.5070  2.5095
  990MOL0     H33629   1.255   0.209  12.169  1.4292 -0.3677 -0.7225
  990MOL0     H33630   1.273   0.317  12.400 -2.2110 -1.8715 -0.2765
  990MOL0     H33631   1.447   0.297  12.388 -0.7651 -0.9266 -0.1388
  990MOL0     H33632   1.540   1.210  11.686  1.2678  2.2060 -0.3023
  990MOL0     H33633   1.754   1.316  11.650 -0.0204 -0.8150 -1.1702
  990MOL0     H33634   2.222   1.263  11.759  1.5555 -2.0180 -0.1029
  990MOL0     H33635   2.444   1.408  11.750  1.7098  0.2380 -1.6268
  990MOL0     H33636   3.159   1.020  10.930 -0.8370  6.3085 -1.3842
  990MOL0     H33637   3.187   0.772  10.856  2.5069 -1.6110 -2.5448
  990MOL0     H33638   3.375   0.554  10.464 -0.7751 -0.8379  2.5906
  990MOL0     H33639   3.456   0.313  10.374 -0.0396 -0.9151  0.4401
  990MOL0     H33640   3.428   0.034  10.448 -1.2597  1.3299  2.5030
  990MOL0     H33641   3.268   0.032  10.523  1.6737 -2.7724  1.8585
  990MOL0     H33642   3.389  -0.140  10.309 -0.9870 -0.7924 -0.3825
  990MOL0     H33643   3.207  -0.123  10.315  1.0618  1.2171 -3.2030
  990MOL0     H33644   3.379  -0.192  10.550  2.0561 -3.2269  0.0666
  990MOL0     H33645   3.350  -0.325  10.446  0.3371  1.5315  0.5695
  990MOL0     H33646   3.088  -0.226  10.493  0.9200 -0.2002 -0.3320
  990MOL0     H33647   3.174  -0.147  10.620  2.7063  0.8654 -1.4141
  990MOL0     H33648   3.126  -0.576  10.717  0.1402  0.3177 -0.7117
  990MOL0     H33649   3.042   0.197  10.414  1.9410 -2.2694 -0.1358
  990MOL0     H33650   2.975   0.425  10.475  0.4645  1.5874 -0.2518
  991MOL0     O33651   3.622   2.683   6.609  0.2273  0.3481 -0.3368
  991MOL0     C33652   3.656   2.760   6.519  0.2162 -0.2161  0.9585
  991MOL0     O33653   3.592   2.879   6.473  0.1138  0.7579 -0.5321
  991MOL0     C33654   3.462   2.896   6.526 -0.0508 -0.8590  1.0573
  991MOL0     C33655   3.447   3.030   6.568 -0.2175 -0.4264 -0.3145
  991MOL0     C33656   3.327   3.072   6.619 -0.4944  0.1313  0.3006
  991MOL0     C33657   3.223   2.987   6.632  0.1134  0.1545 -0.1036
  991MOL0     O33658   3.104   3.030   6.698 -0.2350 -0.5756  0.3163
  991MOL0     C33659   3.044   3.133   6.624  0.6577 -0.1212  0.0347
  991MOL0     C33660   2.916   3.177   6.699 -0.4512  0.3487 -0.7571
  991MOL0     C33661   2.827   3.274   6.613  0.8200 -0.1472 -0.7416
  991MOL0     C33662   2.689   3.329   6.670  0.6345  0.0321  0.0190
  991MOL0     C33663   2.643   3.458   6.593  0.4988 -0.2088 -1.0577
  991MOL0     C33664   2.738   3.577   6.621 -0.0598 -0.0501  0.8061
  991MOL0     C33665   2.716   3.700   6.521 -0.1027  0.5830 -0.7192
  991MOL0     C33666   2.579   3.768   6.541 -0.3485 -0.3699 -0.7914
  991MOL0     N33667   2.582   3.896   6.474  0.1499 -0.2831  0.1076
  991MOL0     C33668   2.566   3.912   6.336 -0.5449 -0.1273  0.0817
  991MOL0     C33669   2.545   4.042   6.315 -0.6470 -0.3251 -0.3977
  991MOL0     C33670   2.515   4.112   6.179  0.3060  0.5029  1.0096
  991MOL0     C33671   2.637   4.192   6.133 -0.9214  0.6626  0.0024
  991MOL0     C33672   2.766   4.118   6.100 -0.6028  0.0374 -0.5833
  991MOL0     C33673   2.756   4.013   5.988  0.0394 -0.1501 -0.6331
  991MOL0     O33674   2.711   3.881   6.020 -0.4333  0.3862 -0.4188
  991MOL0     C33675   2.794   3.795   6.081  0.3528  0.1517  0.2738
  991MOL0     C33676   2.753   3.657   6.079 -0.6115 -0.4716  0.0311
  991MOL0     C33677   2.828   3.560   6.143 -0.1400  0.3686 -0.4333
  991MOL0     C33678   2.767   3.424   6.158  0.1761  0.1261  0.8145
  991MOL0     C33679   2.943   3.602   6.223 -0.8344 -0.6584 -0.1626
  991MOL0     C33680   3.044   3.509   6.282 -0.4771 -0.7411  1.2262
  991MOL0     O33681   3.159   3.575   6.332 -0.1302  0.1386 -0.0660
  991MOL0     C33682   3.286   3.520   6.350 -0.4223  0.4200  0.3096
  991MOL0     C33683   3.341   3.409   6.290  0.0595  0.5231 -0.1653
  991MOL0     C33684   3.460   3.351   6.328 -1.7804  0.2462 -0.2672
  991MOL0     C33685   3.545   3.406   6.421  0.0076  0.0382  0.3775
  991MOL0     O33686   3.664   3.335   6.442 -0.1344 -0.3608  0.8175
  991MOL0     C33687   3.757   3.402   6.533  0.3778 -0.3841 -0.1227
  991MOL0     C33688   3.743   3.333   6.664  0.2301 -0.4590  0.1139
  991MOL0     C33689   3.788   3.190   6.670 -0.2541  0.0592  0.2780
  991MOL0     C33690   3.748   3.118   6.810  0.4578 -0.9770  0.2999
  991MOL0     C33691   3.777   2.976   6.811  0.3695  0.1690 -0.5860
  991MOL0     C33692   3.925   2.945   6.803  0.5081 -0.2766  0.4622
  991MOL0     C33693   3.957   2.796   6.797  0.6651  0.2721 -0.4611
  991MOL0     C33694   4.104   2.804   6.819 -0.7342  0.6997 -0.9632
  991MOL0    Cl33695   4.179   2.647   6.818 -0.2613  0.3158 -0.0080
  991MOL0     C33696   3.499   3.524   6.490  1.2778 -0.6858 -0.0386
  991MOL0     C33697   3.375   3.579   6.451 -0.0945  0.2227 -0.2283
  991MOL0     O33698   3.030   3.386   6.265 -0.0994  0.4294  0.1285
  991MOL0     C33699   2.975   3.740   6.217 -0.1909 -0.7593 -0.4026
  991MOL0     C33700   2.901   3.834   6.151  0.0950 -0.7669 -0.5978
  991MOL0     N33701   2.552   4.105   6.444  0.2802 -0.1630 -0.2373
  991MOL0     N33702   2.579   4.020   6.536 -0.1824  0.1934  0.5269
  991MOL0     C33703   3.229   2.854   6.584  0.1030 -0.1288  0.1277
  991MOL0     C33704   3.353   2.807   6.531 -0.4387 -0.4526  0.0040
  991MOL0     C33705   3.776   2.720   6.438  0.2320  0.2170 -0.6507
  991MOL0     C33706   3.855   2.615   6.486  0.4636  0.5042 -0.3588
  991MOL0     C33707   3.985   2.598   6.424  0.3836 -0.0751  0.1322
  991MOL0     C33708   4.021   2.685   6.315  0.8782 -0.6756 -0.7339
  991MOL0     O33709   4.131   2.683   6.243 -0.3168 -1.0653  0.5714
  991MOL0     C33710   4.235   2.587   6.272  0.2314 -0.0533  0.3399
  991MOL0     C33711   4.229   2.473   6.169  0.3452  0.0563  0.7634
  991MOL0     C33712   4.113   2.386   6.195 -0.1826  0.5060 -0.2208
  991MOL0     C33713   4.152   2.227   6.172  0.0466  0.1519  1.2010
  991MOL0     C33714   4.034   2.136   6.190  0.0154  0.1802  0.5764
  991MOL0     C33715   3.944   2.058   6.213 -0.2817  0.1356  1.6294
  991MOL0     C33716   3.941   2.782   6.265 -0.2760  0.1967  0.0671
  991MOL0     C33717   3.825   2.805   6.337  0.4902 -1.1815  1.0965
  991MOL0     H33718   3.527   3.103   6.560 -0.0471 -0.7325 -1.7269
  991MOL0     H33719   3.313   3.166   6.670 -0.0009 -0.9382  2.5220
  991MOL0     H33720   3.109   3.221   6.620  3.4631 -2.0540 -0.4475
  991MOL0     H33721   3.023   3.096   6.523  1.0963 -0.8949  0.2136
  991MOL0     H33722   2.864   3.084   6.725  1.2382 -0.6014 -0.6183
  991MOL0     H33723   2.939   3.226   6.794 -3.3952  1.0870 -0.3168
  991MOL0     H33724   2.894   3.359   6.597  1.7190 -0.6726  0.1018
  991MOL0     H33725   2.805   3.221   6.520  3.2133 -2.8024  0.0679
  991MOL0     H33726   2.607   3.257   6.676  2.4652 -2.3104 -1.5025
  991MOL0     H33727   2.721   3.340   6.774  1.1508  3.0691 -0.3588
  991MOL0     H33728   2.639   3.436   6.486  3.0102 -4.1457 -0.5423
  991MOL0     H33729   2.545   3.492   6.627  1.6010  1.8039  0.3575
  991MOL0     H33730   2.725   3.604   6.726  0.7476  0.6476  0.7376
  991MOL0     H33731   2.844   3.556   6.600 -0.7104  0.1861 -3.7583
  991MOL0     H33732   2.801   3.762   6.552  1.0492 -1.3228  0.0742
  991MOL0     H33733   2.722   3.680   6.413 -1.8537  0.2218 -0.7867
  991MOL0     H33734   2.548   3.767   6.646 -0.7656 -1.0400 -0.9164
  991MOL0     H33735   2.508   3.698   6.495 -1.7938 -0.6198  1.6385
  991MOL0     H33736   2.564   3.838   6.257 -4.1803  1.1370 -1.2191
  991MOL0     H33737   2.485   4.034   6.108 -2.4576  1.9115  0.5205
  991MOL0     H33738   2.432   4.179   6.202  2.9692  3.5126  2.5697
  991MOL0     H33739   2.671   4.255   6.215 -0.1142 -0.3903  0.5053
  991MOL0     H33740   2.607   4.254   6.048  1.4344 -1.4737 -2.5828
  991MOL0     H33741   2.808   4.081   6.194  3.3116  2.8558 -0.9693
  991MOL0     H33742   2.846   4.182   6.061  0.8705 -1.2754  0.1518
  991MOL0     H33743   2.857   4.004   5.947  0.4382  0.6274  0.1157
  991MOL0     H33744   2.696   4.063   5.911  2.5325  3.0570 -0.7398
  991MOL0     H33745   2.655   3.644   6.035 -0.6730  0.1300 -0.0261
  991MOL0     H33746   2.673   3.425   6.102 -0.1872  2.8336  1.3510
  991MOL0     H33747   2.830   3.348   6.110 -0.9497  0.1839 -0.8156
  991MOL0     H33748   2.758   3.397   6.264  1.6907 -0.0876  0.9110
  991MOL0     H33749   3.282   3.348   6.223  1.1613 -1.0418  0.2360
  991MOL0     H33750   3.500   3.258   6.288 -2.6517 -1.2326  2.0843
  991MOL0     H33751   3.856   3.381   6.490  0.9932 -1.3862  1.6665
  991MOL0     H33752   3.741   3.509   6.544  1.4947 -0.1981 -0.2083
  991MOL0     H33753   3.810   3.385   6.734 -2.4337  3.5407  0.0264
  991MOL0     H33754   3.643   3.324   6.706  0.2317  0.4377  0.3365
  991MOL0     H33755   3.897   3.182   6.660 -0.0595  0.5558  1.7998
  991MOL0     H33756   3.745   3.135   6.585  0.5360  2.2106 -1.6036
  991MOL0     H33757   3.794   3.176   6.890 -0.9405  2.3571 -1.1220
  991MOL0     H33758   3.642   3.129   6.833  0.0331  0.9672 -2.1999
  991MOL0     H33759   3.711   2.923   6.741 -0.4419  3.0036 -2.1619
  991MOL0     H33760   3.750   2.935   6.909  2.9663  0.0317  0.1371
  991MOL0     H33761   3.957   2.978   6.703  1.6371 -2.7001 -0.0504
  991MOL0     H33762   3.976   2.999   6.884 -1.1202  0.0619  1.2924
  991MOL0     H33763   3.951   2.751   6.698 -3.0846  0.5610 -0.4870
  991MOL0     H33764   3.908   2.738   6.876 -0.3382  2.3072  0.4980
  991MOL0     H33765   4.126   2.845   6.918  0.7465 -4.0258  0.9806
  991MOL0     H33766   4.149   2.861   6.738  1.5756 -1.7407 -1.5404
  991MOL0     H33767   3.566   3.571   6.561  2.5163 -0.0546 -1.5708
  991MOL0     H33768   3.333   3.664   6.504 -2.4368 -2.3849  2.3779
  991MOL0     H33769   3.056   3.790   6.269  0.3735 -2.3187  0.2947
  991MOL0     H33770   2.942   3.934   6.154  2.2316 -1.5269 -1.9553
  991MOL0     H33771   3.145   2.788   6.600  1.4629 -1.8773  0.3157
  991MOL0     H33772   3.371   2.704   6.503 -1.7283 -0.0127 -2.7691
  991MOL0     H33773   3.821   2.546   6.563 -1.9542  1.8394 -0.1429
  991MOL0     H33774   4.053   2.521   6.458 -0.2339  0.2845  2.3014
  991MOL0     H33775   4.329   2.639   6.254  0.7312 -1.9280 -3.3261
  991MOL0     H33776   4.244   2.549   6.375  3.4761 -2.3216 -0.6334
  991MOL0     H33777   4.317   2.409   6.182  0.5535  0.4876  1.5325
  991MOL0     H33778   4.243   2.514   6.069  0.2592 -1.0922  0.2642
  991MOL0     H33779   4.025   2.421   6.142 -3.3225 -3.9813  1.4551
  991MOL0     H33780   4.095   2.394   6.303  0.7701  2.2449 -0.1442
  991MOL0     H33781   4.231   2.205   6.244  0.5126  0.2673  0.7304
  991MOL0     H33782   4.184   2.207   6.069  0.3696 -0.2206  1.3729
  991MOL0     H33783   3.872   1.982   6.236 -0.1805 -0.4767  0.0743
  991MOL0     H33784   3.964   2.848   6.181 -1.9262 -1.3173 -1.6794
  991MOL0     H33785   3.763   2.889   6.308 -0.9093 -2.0512  1.4681
  992MOL0     O33786  10.704   7.509  10.276 -0.2760  0.5834 -0.0195
  992MOL0     C33787  10.775   7.576  10.202  0.1693  0.2552 -0.4299
  992MOL0     O33788  10.733   7.680  10.122 -0.1360  0.4701 -0.1233
  992MOL0     C33789  10.624   7.765  10.170 -1.4528  0.3009 -0.1716
  992MOL0     C33790  10.602   7.785  10.313  0.3645  1.6359  0.8097
  992MOL0     C33791  10.516   7.884  10.354  0.2607 -0.9453 -0.4337
  992MOL0     C33792  10.449   7.968  10.262  0.0823  0.0555  0.0021
  992MOL0     O33793  10.367   8.074  10.295 -0.5864  0.4113 -0.7741
  992MOL0     C33794  10.344   8.097  10.431 -0.5847 -0.0787 -0.3097
  992MOL0     C33795  10.457   8.168  10.508 -0.0255 -0.3935  0.3983
  992MOL0     C33796  10.479   8.310  10.459  0.8612 -0.2954  0.1098
  992MOL0     C33797  10.586   8.375  10.554  0.6775  0.6975 -0.2173
  992MOL0     C33798  10.621   8.523  10.525  0.8476  1.0557 -0.1249
  992MOL0     C33799  10.506   8.620  10.578  0.1020 -0.0229  0.6383
  992MOL0     C33800  10.553   8.755  10.593  0.4380 -0.6091 -0.0881
  992MOL0     C33801  10.420   8.846  10.617 -0.8491 -0.3262 -0.4193
  992MOL0     N33802  10.467   8.984  10.596 -0.0305 -0.3975  0.5799
  992MOL0     C33803  10.517   9.081  10.687 -0.3568  0.0713  0.4978
  992MOL0     C33804  10.555   9.188  10.610  1.0664 -0.2825  0.3678
  992MOL0     C33805  10.619   9.319  10.642  0.3962 -0.6504 -1.0062
  992MOL0     C33806  10.516   9.428  10.689 -0.0654 -0.5704 -0.1914
  992MOL0     C33807  10.586   9.566  10.695 -0.5729 -0.6238  0.5745
  992MOL0     C33808  10.499   9.678  10.764 -0.0553  0.6430  0.5866
  992MOL0     O33809  10.418   9.631  10.866  0.0257 -0.4933 -1.0929
  992MOL0     C33810  10.483   9.604  10.988  0.1470 -1.0972  0.1915
  992MOL0     C33811  10.580   9.680  11.046  0.4403 -0.4058  0.0895
  992MOL0     C33812  10.635   9.658  11.174  0.2365 -0.0727  0.0046
  992MOL0     C33813  10.749   9.743  11.222 -0.7072  0.6961  0.6091
  992MOL0     C33814  10.578   9.548  11.252  0.4876  0.1747 -0.5007
  992MOL0     C33815  10.624   9.499  11.383  1.3082  0.2675  1.0402
  992MOL0     O33816  10.574   9.379  11.416 -0.0293 -0.0641  0.7075
  992MOL0     C33817  10.596   9.325  11.541  1.0067  0.1689 -0.5970
  992MOL0     C33818  10.526   9.376  11.649  0.4505 -0.5177  0.6186
  992MOL0     C33819  10.520   9.318  11.781  0.2068 -0.6229 -0.3119
  992MOL0     C33820  10.613   9.218  11.806  0.5396 -0.1202 -0.5495
  992MOL0     O33821  10.613   9.153  11.933  0.1512 -0.4342 -0.2451
  992MOL0     C33822  10.584   9.235  12.048  0.4496  1.1797 -0.8346
  992MOL0     C33823  10.583   9.140  12.174  0.3698  0.4727  0.2521
  992MOL0     C33824  10.712   9.075  12.196 -0.1380 -0.1900  0.2832
  992MOL0     C33825  10.698   8.983  12.311  0.1262  0.0369  0.2982
  992MOL0     C33826  10.816   8.891  12.328 -0.1364  0.8219 -0.0213
  992MOL0     C33827  10.806   8.782  12.228  0.3197 -0.0965  0.0755
  992MOL0     C33828  10.757   8.645  12.281  1.3446 -0.6904  1.2706
  992MOL0     C33829  10.737   8.549  12.158  0.1394 -0.9856 -0.7470
  992MOL0    Cl33830  10.888   8.509  12.074  0.2847  0.3878 -0.2710
  992MOL0     C33831  10.684   9.167  11.697 -0.0099  0.2218  0.3643
  992MOL0     C33832  10.673   9.222  11.565  0.1490  0.1255  0.1004
  992MOL0     O33833  10.693   9.568  11.453 -0.3695  0.0138  0.2993
  992MOL0     C33834  10.473   9.477  11.190  0.7457 -0.4144 -0.5020
  992MOL0     C33835  10.425   9.518  11.071  0.2360  0.0396  0.5116
  992MOL0     N33836  10.518   9.155  10.485 -0.3566  0.2638  0.5615
  992MOL0     N33837  10.451   9.044  10.472  0.5495 -0.3486 -0.3499
  992MOL0     C33838  10.469   7.945  10.128 -1.0948 -0.1257 -0.0232
  992MOL0     C33839  10.558   7.852  10.079  0.1981 -1.2309  0.3554
  992MOL0     C33840  10.909   7.540  10.190 -1.0476 -0.1431  0.0285
  992MOL0     C33841  11.007   7.609  10.106 -0.2530  0.0616  0.1928
  992MOL0     C33842  11.142   7.591  10.114 -0.8427  0.2514 -0.6221
  992MOL0     C33843  11.192   7.493  10.203 -0.2308  0.2048 -0.0295
  992MOL0     O33844  11.322   7.475  10.235 -0.0988  0.3068  0.6171
  992MOL0     C33845  11.424   7.566  10.180  0.4451  0.0476  0.4678
  992MOL0     C33846  11.546   7.538  10.247  0.0440  0.6660  0.5904
  992MOL0     C33847  11.610   7.388  10.207 -0.1499 -0.6843 -0.7738
  992MOL0     C33848  11.750   7.414  10.139 -0.9799  0.0150  0.9997
  992MOL0     C33849  11.772   7.307  10.043 -0.3167  0.0566 -0.1811
  992MOL0     C33850  11.789   7.219   9.965 -0.8924  0.9485  0.3573
  992MOL0     C33851  11.101   7.413  10.279 -0.0293  0.0897  0.7943
  992MOL0     C33852  10.966   7.445  10.278 -0.3619  0.3536  0.2428
  992MOL0     H33853  10.658   7.723  10.382  1.0022  1.4751  0.1512
  992MOL0     H33854  10.480   7.875  10.455  1.3732 -0.5288  0.0153
  992MOL0     H33855  10.257   8.161  10.444  0.0130  0.2444  3.0607
  992MOL0     H33856  10.307   8.006  10.478 -0.8230  0.7732  1.2248
  992MOL0     H33857  10.428   8.151  10.612 -1.5399 -1.4588 -0.1548
  992MOL0     H33858  10.549   8.122  10.469  0.3622  2.0478 -1.8229
  992MOL0     H33859  10.523   8.309  10.359  2.4756  0.3425  0.7754
  992MOL0     H33860  10.383   8.362  10.451  0.0170 -1.8671 -0.3710
  992MOL0     H33861  10.556   8.352  10.656  2.1054  2.3149  0.6198
  992MOL0     H33862  10.678   8.317  10.544 -1.2368 -2.2389 -2.6756
  992MOL0     H33863  10.715   8.531  10.582  0.1297  1.4423  1.0438
  992MOL0     H33864  10.639   8.533  10.418 -2.5515  0.5336 -0.8649
  992MOL0     H33865  10.421   8.629  10.509 -1.6717  2.0896  2.8841
  992MOL0     H33866  10.470   8.582  10.675  0.9029 -1.3121  0.4494
  992MOL0     H33867  10.602   8.778  10.689  0.3121 -1.0750  0.0904
  992MOL0     H33868  10.614   8.796  10.512 -0.9083  0.6743 -0.4880
  992MOL0     H33869  10.370   8.834  10.714  0.9639 -0.0848  0.5913
  992MOL0     H33870  10.356   8.832  10.529 -2.1144  4.3716 -0.5217
  992MOL0     H33871  10.531   9.080  10.795 -0.0666 -0.9188  0.4591
  992MOL0     H33872  10.692   9.311  10.723  1.1508 -1.7335 -1.7637
  992MOL0     H33873  10.677   9.356  10.556  1.1078  0.9875  0.1119
  992MOL0     H33874  10.468   9.391  10.779  0.5373 -2.5351 -0.6327
  992MOL0     H33875  10.432   9.435  10.618 -1.1855 -1.6609  0.9889
  992MOL0     H33876  10.624   9.604  10.600  0.6357  0.5185  1.4622
  992MOL0     H33877  10.671   9.549  10.763  0.8345  1.1510 -0.6342
  992MOL0     H33878  10.436   9.718  10.684  2.1961  1.5770 -0.8116
  992MOL0     H33879  10.548   9.770  10.797 -1.8822  0.7017  3.5358
  992MOL0     H33880  10.623   9.759  10.985 -0.5444 -0.0329 -0.1438
  992MOL0     H33881  10.806   9.694  11.301  2.6217 -0.8169 -2.4009
  992MOL0     H33882  10.830   9.765  11.151  0.6208 -0.9685  1.5359
  992MOL0     H33883  10.707   9.840  11.248  1.1347  2.0305 -1.1148
  992MOL0     H33884  10.456   9.457  11.633  1.5535  0.4320  0.4376
  992MOL0     H33885  10.441   9.359  11.844  0.3890 -1.8303  0.7547
  992MOL0     H33886  10.651   9.321  12.051  0.0242  1.4966  0.9852
  992MOL0     H33887  10.483   9.276  12.055 -1.3923 -2.7341 -1.3050
  992MOL0     H33888  10.555   9.209  12.254 -0.8742  2.3636 -1.7121
  992MOL0     H33889  10.505   9.066  12.153  0.3112  0.8939 -1.1098
  992MOL0     H33890  10.780   9.153  12.233 -2.0716 -0.0598  4.1301
  992MOL0     H33891  10.750   9.021  12.109 -1.5065  1.3785 -1.3636
  992MOL0     H33892  10.692   9.045  12.401  2.3156 -0.4721  0.8579
  992MOL0     H33893  10.613   8.915  12.317 -1.2190  1.7126  1.7353
  992MOL0     H33894  10.829   8.861  12.433  0.7738 -1.7108 -0.7935
  992MOL0     H33895  10.904   8.952  12.310  1.1244 -0.4976  1.3745
  992MOL0     H33896  10.740   8.820  12.149  2.2731  2.0178 -0.6292
  992MOL0     H33897  10.900   8.773  12.173 -2.1127  1.8348 -5.1511
  992MOL0     H33898  10.661   8.650  12.334 -1.2808  1.0530 -3.1168
  992MOL0     H33899  10.829   8.597  12.348  4.3661  0.0425 -1.2553
  992MOL0     H33900  10.664   8.589  12.087 -0.9343  0.3168  1.0161
  992MOL0     H33901  10.688   8.459  12.196 -1.5955 -1.2905 -3.3908
  992MOL0     H33902  10.736   9.073  11.713 -1.3236 -1.1759 -2.6791
  992MOL0     H33903  10.728   9.171  11.485  3.0177  0.7890  1.5097
  992MOL0     H33904  10.428   9.387  11.231  0.3285 -1.9035 -3.9260
  992MOL0     H33905  10.341   9.460  11.034  1.0574 -0.2205 -1.0186
  992MOL0     H33906  10.420   8.017  10.062  0.0171  1.0947  0.4332
  992MOL0     H33907  10.580   7.836   9.974  2.3669  0.4433  0.4689
  992MOL0     H33908  10.966   7.681  10.036 -0.5670  0.9672  1.2888
  992MOL0     H33909  11.210   7.655  10.059  2.4790 -0.2778  2.5042
  992MOL0     H33910  11.446   7.542  10.076 -0.5733  0.3692  0.1595
  992MOL0     H33911  11.398   7.672  10.191  2.7465  0.6214  0.8399
  992MOL0     H33912  11.519   7.543  10.353 -1.8044 -0.3789  0.2011
  992MOL0     H33913  11.608   7.624  10.220 -0.4665  1.1022  0.7833
  992MOL0     H33914  11.538   7.338  10.142 -2.1563  0.0569  0.7497
  992MOL0     H33915  11.628   7.325  10.295  1.3268 -1.1168 -1.3591
  992MOL0     H33916  11.818   7.422  10.225 -1.9965  2.6948  1.6585
  992MOL0     H33917  11.755   7.511  10.088  0.3090 -1.3451 -1.6478
  992MOL0     H33918  11.804   7.126   9.915 -2.7427  0.4002  0.7294
  992MOL0     H33919  11.134   7.335  10.346  0.2069 -1.6022 -1.1945
  992MOL0     H33920  10.903   7.394  10.349 -1.8434  1.9293  0.1210
  993MOL0     O33921   0.737  10.669   2.740  0.3370 -0.0043  0.3381
  993MOL0     C33922   0.719  10.647   2.621 -0.1995 -0.1134 -0.2697
  993MOL0     O33923   0.800  10.578   2.544 -0.2659 -0.1921 -0.1318
  993MOL0     C33924   0.900  10.516   2.612  0.0917  0.2449  0.0243
  993MOL0     C33925   1.030  10.576   2.624  0.2755 -0.0831  0.0737
  993MOL0     C33926   1.136  10.492   2.670  0.4259 -0.3634  0.8532
  993MOL0     C33927   1.123  10.359   2.712  0.5651 -0.5498 -0.6120
  993MOL0     O33928   1.229  10.274   2.746 -0.5559  0.3420 -0.5137
  993MOL0     C33929   1.215  10.219   2.886 -0.2607  1.1217 -0.0688
  993MOL0     C33930   1.341  10.229   2.971  0.5937 -0.2056  0.0898
  993MOL0     C33931   1.380  10.101   3.050  0.3354 -0.9860  0.1741
  993MOL0     C33932   1.531  10.107   3.081  0.2571 -0.1606 -0.0197
  993MOL0     C33933   1.580   9.979   3.170  0.2914  0.3807  0.0532
  993MOL0     C33934   1.497   9.952   3.292 -0.0214 -0.6966 -0.1811
  993MOL0     C33935   1.525  10.042   3.402  0.3523 -0.5161  0.2242
  993MOL0     C33936   1.432  10.008   3.524  0.2073 -1.1266 -0.2170
  993MOL0     N33937   1.452   9.875   3.571 -0.3129 -0.0135 -0.1151
  993MOL0     C33938   1.567   9.825   3.629  0.3083  0.1619  0.0118
  993MOL0     C33939   1.537   9.696   3.648 -0.6026  0.3040 -0.5263
  993MOL0     C33940   1.655   9.606   3.694  1.0871  0.2893 -0.1554
  993MOL0     C33941   1.600   9.462   3.660 -0.4929 -0.8547 -0.5023
  993MOL0     C33942   1.705   9.352   3.669  0.9783 -0.0712 -0.2071
  993MOL0     C33943   1.682   9.243   3.566 -0.1793 -0.1299 -0.0738
  993MOL0     O33944   1.814   9.184   3.545 -0.4655 -0.0870  0.4672
  993MOL0     C33945   1.870   9.230   3.427 -0.0370  0.5294  0.0048
  993MOL0     C33946   1.934   9.354   3.414 -0.0964 -0.2850 -0.1603
  993MOL0     C33947   1.978   9.409   3.299  0.4487 -0.7883 -0.0851
  993MOL0     C33948   2.035   9.554   3.299 -0.0610  0.5901 -1.0782
  993MOL0     C33949   1.947   9.341   3.172  0.4561 -0.3781  0.2060
  993MOL0     C33950   1.996   9.388   3.044  1.2370  0.8671 -0.0376
  993MOL0     O33951   2.123   9.423   3.038  0.5249  0.3625  0.8886
  993MOL0     C33952   2.187   9.458   2.919 -0.1085  0.0193  0.3103
  993MOL0     C33953   2.321   9.446   2.913  0.1000 -0.5425 -0.0878
  993MOL0     C33954   2.397   9.485   2.799  0.8078 -0.2220 -0.4060
  993MOL0     C33955   2.338   9.548   2.690  0.3821  0.0102 -0.0759
  993MOL0     O33956   2.399   9.592   2.579 -0.2343  0.0871  0.0390
  993MOL0     C33957   2.537   9.543   2.555 -0.5327  0.2919  0.2544
  993MOL0     C33958   2.605   9.653   2.474 -1.2205  0.8090  0.4765
  993MOL0     C33959   2.571   9.662   2.329  1.1825 -0.2902  0.3490
  993MOL0     C33960   2.631   9.796   2.277 -0.7491 -0.3884 -0.1168
  993MOL0     C33961   2.698   9.774   2.138 -0.2906  0.4136 -0.5542
  993MOL0     C33962   2.854   9.748   2.126  0.2021 -0.5853 -0.3871
  993MOL0     C33963   2.899   9.708   1.985  0.6579  0.3318 -0.8478
  993MOL0     C33964   3.038   9.651   1.990  0.9018  0.0446 -0.3127
  993MOL0    Cl33965   3.131   9.795   2.004 -0.4947 -0.1422 -0.2229
  993MOL0     C33966   2.204   9.576   2.707 -0.2011 -0.7064 -1.2149
  993MOL0     C33967   2.131   9.522   2.815  0.1096 -0.8710  0.1322
  993MOL0     O33968   1.920   9.365   2.951  0.1312  0.0852 -1.0753
  993MOL0     C33969   1.877   9.219   3.184  0.9948  0.3403 -0.6531
  993MOL0     C33970   1.847   9.160   3.313 -0.5564 -0.2197 -0.2951
  993MOL0     N33971   1.417   9.657   3.593 -0.2173 -0.4508  0.1908
  993MOL0     N33972   1.370   9.769   3.545 -0.0068  0.8352 -0.5941
  993MOL0     C33973   0.991  10.311   2.710  1.3616 -0.9630  0.2856
  993MOL0     C33974   0.881  10.382   2.652  0.2228  0.8649  0.0478
  993MOL0     C33975   0.588  10.690   2.562 -0.3012 -0.2069 -0.1793
  993MOL0     C33976   0.481  10.722   2.655 -0.8516  0.8971 -0.0016
  993MOL0     C33977   0.357  10.751   2.608 -0.2498  0.4654  0.4246
  993MOL0     C33978   0.324  10.748   2.469 -0.3902  0.7354 -1.3071
  993MOL0     O33979   0.182  10.767   2.456 -0.9180  0.0185  0.3126
  993MOL0     C33980   0.122  10.809   2.323  0.2044  0.3531 -0.7862
  993MOL0     C33981   0.060  10.699   2.248 -0.1356  0.7044 -0.0213
  993MOL0     C33982  -0.040  10.627   2.334  0.3624  0.5278 -0.2431
  993MOL0     C33983  -0.114  10.520   2.248  0.5742 -0.3813  0.7801
  993MOL0     C33984  -0.222  10.581   2.175  0.1224 -0.9704 -1.2423
  993MOL0     C33985  -0.314  10.645   2.125  1.4938 -0.1526  0.5999
  993MOL0     C33986   0.427  10.724   2.374  0.2751 -0.1338 -0.9334
  993MOL0     C33987   0.560  10.690   2.426 -0.9443  1.3753 -0.5420
  993MOL0     H33988   1.024  10.683   2.604 -0.9955  0.4198  2.7415
  993MOL0     H33989   1.231  10.535   2.700 -0.8045  2.1266  1.4693
  993MOL0     H33990   1.133  10.272   2.938 -1.7465 -1.9528  0.9444
  993MOL0     H33991   1.183  10.115   2.887  2.3921  0.1257  3.6187
  993MOL0     H33992   1.427  10.256   2.908  2.4399  1.3431  3.0210
  993MOL0     H33993   1.329  10.310   3.044  0.6744 -0.4078  0.3305
  993MOL0     H33994   1.322  10.102   3.143 -0.2392  0.8214 -0.1691
  993MOL0     H33995   1.355  10.018   2.984 -1.7541  1.4559 -2.3378
  993MOL0     H33996   1.572  10.110   2.979 -2.5646  2.1293 -1.2418
  993MOL0     H33997   1.561  10.206   3.118  2.9434 -0.2078 -1.7449
  993MOL0     H33998   1.573   9.888   3.109 -2.8630  1.3107 -1.1608
  993MOL0     H33999   1.682   9.996   3.204  0.0402  1.3684  0.3402
  993MOL0     H34000   1.393   9.969   3.264  0.9812  1.5664 -2.9597
  993MOL0     H34001   1.507   9.850   3.332  0.7273 -1.5683 -2.4211
  993MOL0     H34002   1.631  10.039   3.429  0.2849  1.3987  0.8323
  993MOL0     H34003   1.501  10.146   3.381  2.7208 -0.0435 -0.4069
  993MOL0     H34004   1.327  10.024   3.500  0.6978  1.6484 -0.7663
  993MOL0     H34005   1.457  10.077   3.605  1.9079  1.8633 -3.0670
  993MOL0     H34006   1.660   9.879   3.642 -1.6665  4.9114 -2.6283
  993MOL0     H34007   1.745   9.644   3.644 -0.1449 -0.2871 -3.0306
  993MOL0     H34008   1.664   9.614   3.802  0.1203 -0.3458 -0.0177
  993MOL0     H34009   1.587   9.461   3.552  0.7387 -0.5816 -0.6662
  993MOL0     H34010   1.503   9.423   3.693  0.5008 -3.1096 -0.0144
  993MOL0     H34011   1.671   9.313   3.766 -4.2825 -0.0324 -1.7525
  993MOL0     H34012   1.811   9.381   3.672  0.9752  0.1665 -1.7802
  993MOL0     H34013   1.635   9.278   3.473 -0.4084 -2.5315 -0.9249
  993MOL0     H34014   1.609   9.172   3.605 -0.4225  0.3434  0.3435
  993MOL0     H34015   1.954   9.417   3.501  1.4848  2.6491 -2.4549
  993MOL0     H34016   2.036   9.599   3.399  4.8229  0.0628 -0.6428
  993MOL0     H34017   2.142   9.547   3.279 -0.3652 -1.3213 -2.3025
  993MOL0     H34018   1.974   9.608   3.226  0.1097 -1.5035 -2.8637
  993MOL0     H34019   2.374   9.385   2.986  0.9441 -1.9298 -1.7678
  993MOL0     H34020   2.499   9.447   2.797  1.5981  1.5688  1.7378
  993MOL0     H34021   2.587   9.516   2.649 -0.8776 -3.5472 -0.5094
  993MOL0     H34022   2.528   9.450   2.498  1.3432  0.3207 -0.1419
  993MOL0     H34023   2.581   9.745   2.528 -1.4680 -0.1851  2.1441
  993MOL0     H34024   2.710   9.626   2.490 -1.6161  0.5567  3.1519
  993MOL0     H34025   2.462   9.660   2.315  1.0134  0.2490  1.4725
  993MOL0     H34026   2.611   9.574   2.278 -1.6057 -2.1637  1.1330
  993MOL0     H34027   2.542   9.856   2.253  1.1008  2.2598 -0.7635
  993MOL0     H34028   2.686   9.852   2.353 -3.5622  0.7558  1.2507
  993MOL0     H34029   2.670   9.863   2.082  1.1126  1.2934  0.0844
  993MOL0     H34030   2.643   9.686   2.105  3.8492 -2.9441  0.5495
  993MOL0     H34031   2.902   9.844   2.147  1.7641 -1.4182  0.0315
  993MOL0     H34032   2.894   9.684   2.205 -0.1222 -0.9267 -0.4958
  993MOL0     H34033   2.897   9.793   1.916  3.5554  2.6885  1.6810
  993MOL0     H34034   2.840   9.623   1.949  1.6085 -0.0144 -1.6454
  993MOL0     H34035   3.050   9.601   1.894  1.1129  1.3056 -0.9602
  993MOL0     H34036   3.064   9.588   2.076 -0.2173  2.0960  1.6354
  993MOL0     H34037   2.155   9.635   2.630 -1.1441  1.8794  1.1927
  993MOL0     H34038   2.023   9.532   2.822  0.3111  1.5958  0.6991
  993MOL0     H34039   1.855   9.157   3.098 -0.7176 -0.7496  0.4867
  993MOL0     H34040   1.786   9.071   3.314 -2.9743  1.3203  1.1370
  993MOL0     H34041   0.972  10.211   2.746 -2.6626 -0.2277  0.7285
  993MOL0     H34042   0.792  10.320   2.654  1.2092 -0.6115  0.8672
  993MOL0     H34043   0.502  10.726   2.761  1.9548 -2.0185 -0.3005
  993MOL0     H34044   0.277  10.786   2.673  1.0149  2.3845  1.0017
  993MOL0     H34045   0.049  10.889   2.334 -0.0399  0.1758 -1.0903
  993MOL0     H34046   0.204  10.852   2.265  1.9717  1.0873  2.0651
  993MOL0     H34047   0.137  10.624   2.228 -0.9003  0.2616 -1.4869
  993MOL0     H34048  -0.003  10.736   2.166 -1.9917  0.3439  1.1686
  993MOL0     H34049  -0.100  10.705   2.383  2.0835  1.0594  1.1045
  993MOL0     H34050   0.003  10.576   2.421 -0.2275 -2.2740 -1.5032
  993MOL0     H34051  -0.158  10.443   2.312 -1.7355 -1.4971 -1.9030
  993MOL0     H34052  -0.035  10.471   2.190 -0.5561 -3.0152  1.2887
  993MOL0     H34053  -0.392  10.707   2.086 -0.2465 -2.1432  0.7807
  993MOL0     H34054   0.402  10.714   2.269 -1.6911 -0.8402 -0.4405
  993MOL0     H34055   0.638  10.656   2.358 -1.9741  0.6603 -1.4086
  994MOL0     O34056   7.202   8.136   6.042  0.8065 -0.3832  0.5131
  994MOL0     C34057   7.167   8.091   5.929 -0.2724  0.6237  0.5858
  994MOL0     O34058   7.218   7.981   5.880  0.5147 -0.4412 -0.2408
  994MOL0     C34059   7.308   7.908   5.953  0.8996  0.3511 -0.0546
  994MOL0     C34060   7.443   7.881   5.913 -0.6507  0.0983 -0.1177
  994MOL0     C34061   7.527   7.795   5.985  0.9839 -1.6367 -0.0733
  994MOL0     C34062   7.497   7.733   6.102 -0.4342  0.8552 -0.3236
  994MOL0     O34063   7.578   7.647   6.173 -0.1533  0.9026  0.0952
  994MOL0     C34064   7.645   7.547   6.090  0.3582 -0.5408  0.1296
  994MOL0     C34065   7.781   7.505   6.157 -0.0396  0.3151 -0.5104
  994MOL0     C34066   7.867   7.410   6.063  0.2559 -0.6337  0.0440
  994MOL0     C34067   8.009   7.424   6.098 -0.9173  0.6113  0.7937
  994MOL0     C34068   8.104   7.342   6.013  0.0138  1.2659  0.4837
  994MOL0     C34069   8.241   7.302   6.081  0.4536  0.4182  0.0882
  994MOL0     C34070   8.303   7.192   5.994  0.4628  0.1446 -0.7520
  994MOL0     C34071   8.359   7.245   5.865  0.4180  0.2678  0.6531
  994MOL0     N34072   8.404   7.132   5.788 -1.0874  0.6835  0.0535
  994MOL0     C34073   8.334   7.015   5.756  0.8117 -0.5015 -1.2466
  994MOL0     C34074   8.425   6.936   5.706 -0.8593  0.8473 -0.0191
  994MOL0     C34075   8.419   6.798   5.667  0.5616 -0.1497  0.3027
  994MOL0     C34076   8.422   6.801   5.513  0.1695 -0.9135  0.3672
  994MOL0     C34077   8.284   6.840   5.450  0.5588  0.7473 -0.5766
  994MOL0     C34078   8.256   6.770   5.310 -0.2247 -1.4726  0.3334
  994MOL0     O34079   8.353   6.833   5.217 -0.2558  0.7994 -0.2974
  994MOL0     C34080   8.310   6.936   5.146 -0.9683 -0.1262 -0.3878
  994MOL0     C34081   8.238   6.918   5.026 -0.0144  0.8619  0.6774
  994MOL0     C34082   8.181   7.027   4.950  0.1894  0.3776 -0.1654
  994MOL0     C34083   8.091   7.000   4.833  0.5033 -0.5669  0.1090
  994MOL0     C34084   8.209   7.157   5.000  0.6508 -0.8450  0.0351
  994MOL0     C34085   8.162   7.288   4.937  0.4319  0.7032 -0.6925
  994MOL0     O34086   8.093   7.383   5.013 -0.5076 -0.1020 -0.0334
  994MOL0     C34087   8.054   7.506   4.964 -0.0345 -0.0519 -0.0378
  994MOL0     C34088   7.950   7.522   4.863 -0.3245  0.6228 -0.2972
  994MOL0     C34089   7.908   7.651   4.839 -0.5077 -0.7497  0.0794
  994MOL0     C34090   7.960   7.760   4.911 -0.4659  0.1721  0.4744
  994MOL0     O34091   7.915   7.889   4.883 -0.4842  0.4345  0.5299
  994MOL0     C34092   7.774   7.914   4.876  0.1575 -0.6231 -1.1029
  994MOL0     C34093   7.741   8.070   4.896 -1.4123 -0.1353 -0.0495
  994MOL0     C34094   7.602   8.110   4.879  0.1577 -0.1437  0.4961
  994MOL0     C34095   7.586   8.257   4.849 -0.6181 -0.0194  0.0017
  994MOL0     C34096   7.443   8.312   4.844 -0.4174 -0.0736  0.6867
  994MOL0     C34097   7.433   8.466   4.836 -0.0811  0.9337 -0.6917
  994MOL0     C34098   7.294   8.527   4.781 -0.6440 -0.8322  0.2207
  994MOL0     C34099   7.280   8.515   4.630  0.1984  0.5062  0.2193
  994MOL0    Cl34100   7.304   8.673   4.542 -0.5861 -0.1258  0.2028
  994MOL0     C34101   8.057   7.748   5.001  0.2193 -0.4139  0.1606
  994MOL0     C34102   8.106   7.618   5.023 -0.7460  0.6713 -1.1679
  994MOL0     O34103   8.177   7.285   4.816 -0.3225 -1.0637 -0.2731
  994MOL0     C34104   8.306   7.171   5.102  0.0475 -0.4374  0.0310
  994MOL0     C34105   8.360   7.061   5.170 -0.5164 -0.3840 -0.5690
  994MOL0     N34106   8.550   6.993   5.710  0.6010  0.0670 -0.5786
  994MOL0     N34107   8.540   7.112   5.758  0.5980  0.0641 -0.4549
  994MOL0     C34108   7.371   7.767   6.153  0.2324  0.3781 -0.3883
  994MOL0     C34109   7.280   7.845   6.076  0.6354 -0.6114 -0.7067
  994MOL0     C34110   7.074   8.169   5.842  0.1306 -0.7012 -0.0738
  994MOL0     C34111   7.029   8.130   5.715 -0.1932 -0.2704  0.3793
  994MOL0     C34112   6.929   8.201   5.649  0.7790  0.0117 -0.0838
  994MOL0     C34113   6.866   8.308   5.709  0.8674 -0.5609 -0.5429
  994MOL0     O34114   6.763   8.355   5.636  0.3140 -0.2846 -0.6987
  994MOL0     C34115   6.646   8.313   5.714 -0.2389 -0.1115 -0.0412
  994MOL0     C34116   6.590   8.179   5.690 -0.3861  0.1403 -0.6586
  994MOL0     C34117   6.520   8.160   5.558  0.2250  0.4939 -1.1566
  994MOL0     C34118   6.414   8.043   5.554 -0.5718 -0.6576 -0.4852
  994MOL0     C34119   6.346   8.055   5.425 -1.2411 -0.7179  0.1558
  994MOL0     C34120   6.279   8.033   5.325  0.9115  0.1134 -0.0429
  994MOL0     C34121   6.911   8.366   5.824  0.2397 -0.0117 -0.1411
  994MOL0     C34122   7.021   8.302   5.879  0.1303  0.0698 -0.8739
  994MOL0     H34123   7.476   7.929   5.821  0.0051  2.5772  1.3325
  994MOL0     H34124   7.630   7.783   5.952  1.3896  0.8504  0.1161
  994MOL0     H34125   7.579   7.463   6.069 -0.3140  0.3479 -1.4558
  994MOL0     H34126   7.671   7.598   5.996 -1.1234 -0.5646 -0.3154
  994MOL0     H34127   7.838   7.592   6.193  0.2345 -1.8431  5.3897
  994MOL0     H34128   7.751   7.465   6.255  2.1675 -0.6054 -0.1482
  994MOL0     H34129   7.822   7.312   6.084  0.3393 -0.2168  2.5363
  994MOL0     H34130   7.852   7.445   5.961  2.0090 -0.8165 -0.3050
  994MOL0     H34131   8.049   7.524   6.076  2.2287 -0.2852  1.7720
  994MOL0     H34132   8.033   7.406   6.204  0.9508  0.1333  0.3289
  994MOL0     H34133   8.052   7.248   5.990  1.1459  0.2093  1.9597
  994MOL0     H34134   8.127   7.392   5.919  2.0423  2.4000  1.5106
  994MOL0     H34135   8.303   7.392   6.086 -1.3930  2.4771 -5.7300
  994MOL0     H34136   8.224   7.268   6.183 -1.7572 -2.3019 -1.0471
  994MOL0     H34137   8.391   7.153   6.046  0.2551  1.8160  0.9788
  994MOL0     H34138   8.229   7.115   5.972 -0.2141  0.0401  1.6194
  994MOL0     H34139   8.427   7.328   5.884 -1.9655  2.1956  1.2700
  994MOL0     H34140   8.287   7.293   5.797  0.9797  0.2181  0.0183
  994MOL0     H34141   8.232   6.982   5.773  0.6628  1.2130  2.0579
  994MOL0     H34142   8.502   6.747   5.717 -2.3334 -2.3129  3.3084
  994MOL0     H34143   8.337   6.743   5.711 -0.4214 -0.1934 -1.4820
  994MOL0     H34144   8.433   6.698   5.479 -0.4952 -1.2206  1.0563
  994MOL0     H34145   8.504   6.858   5.469 -1.6115  0.1966 -1.7518
  994MOL0     H34146   8.280   6.948   5.433 -1.4724  0.4973 -2.0277
  994MOL0     H34147   8.209   6.815   5.526  0.6638  0.2520 -0.6348
  994MOL0     H34148   8.157   6.797   5.271  0.1855  3.8245  2.2088
  994MOL0     H34149   8.254   6.662   5.329 -0.4084 -1.6552 -0.6918
  994MOL0     H34150   8.231   6.813   4.998  3.7211 -0.2444  3.1269
  994MOL0     H34151   8.155   7.020   4.747  2.0730 -3.5973  0.4418
  994MOL0     H34152   8.076   6.891   4.833  2.5119 -0.8870  1.6921
  994MOL0     H34153   7.991   7.042   4.849  0.2407 -2.1030  3.4069
  994MOL0     H34154   7.917   7.435   4.806  1.2030  1.2698 -2.2936
  994MOL0     H34155   7.828   7.658   4.765 -0.7581  1.1048  0.4718
  994MOL0     H34156   7.734   7.874   4.783 -0.4281 -1.6016 -0.4489
  994MOL0     H34157   7.722   7.864   4.958  1.1371  1.1859  0.7185
  994MOL0     H34158   7.758   8.099   5.001 -5.2995  0.0716  0.6707
  994MOL0     H34159   7.805   8.135   4.837  0.2296  0.4004  2.1638
  994MOL0     H34160   7.544   8.095   4.970 -0.2546  1.0655  0.4417
  994MOL0     H34161   7.566   8.051   4.795  3.0277 -1.1079 -0.1830
  994MOL0     H34162   7.646   8.311   4.923  0.6404  0.1885 -1.1289
  994MOL0     H34163   7.631   8.262   4.749 -1.2348  1.2517 -0.2258
  994MOL0     H34164   7.390   8.295   4.938  0.7132 -0.3509  1.2977
  994MOL0     H34165   7.385   8.276   4.759  2.4549  1.2955 -2.0490
  994MOL0     H34166   7.456   8.511   4.933 -1.9966 -0.4964  0.4872
  994MOL0     H34167   7.505   8.501   4.761 -0.3182  2.3918 -0.2823
  994MOL0     H34168   7.304   8.632   4.812  0.7116 -0.5318 -1.0964
  994MOL0     H34169   7.208   8.494   4.841  1.1211 -2.4129  2.0021
  994MOL0     H34170   7.176   8.486   4.613 -0.4555  1.5480  2.2047
  994MOL0     H34171   7.347   8.432   4.605 -0.6135  0.7084 -3.1387
  994MOL0     H34172   8.118   7.836   5.024  2.7831 -1.4437 -2.1441
  994MOL0     H34173   8.191   7.607   5.090  0.1171  3.0418 -1.7902
  994MOL0     H34174   8.332   7.270   5.138  0.6838 -0.4848 -0.2814
  994MOL0     H34175   8.425   7.084   5.254  0.6439  1.7932 -1.9629
  994MOL0     H34176   7.338   7.728   6.248  2.4418 -1.2771 -0.2104
  994MOL0     H34177   7.191   7.868   6.133  2.1127 -1.4112  2.1541
  994MOL0     H34178   7.044   8.034   5.665  1.5764  2.0171 -3.9822
  994MOL0     H34179   6.896   8.164   5.553 -3.6678 -0.6264  1.4291
  994MOL0     H34180   6.659   8.320   5.823  1.4210 -3.9772  0.1454
  994MOL0     H34181   6.572   8.386   5.679  0.7015 -1.1600 -4.8300
  994MOL0     H34182   6.514   8.160   5.766 -0.2845  3.8474  0.5735
  994MOL0     H34183   6.670   8.105   5.681 -0.5496 -0.3379  1.3743
  994MOL0     H34184   6.594   8.164   5.477  1.5414 -0.6917 -0.0588
  994MOL0     H34185   6.463   8.253   5.544 -1.0919  0.2729  1.9729
  994MOL0     H34186   6.345   8.068   5.635  0.3055 -0.0802  0.1028
  994MOL0     H34187   6.471   7.951   5.570 -1.4237 -0.9929  0.7525
  994MOL0     H34188   6.209   8.023   5.245  1.6705 -0.2973 -0.6695
  994MOL0     H34189   6.852   8.441   5.875  1.3406  0.5747  0.2821
  994MOL0     H34190   7.061   8.336   5.974  1.2937 -0.0993 -1.2763
  995MOL0     O34191   4.736   3.947   9.412 -0.6116  0.4522 -0.4198
  995MOL0     C34192   4.656   3.853   9.424  0.2584 -0.4501 -0.3557
  995MOL0     O34193   4.657   3.763   9.526 -0.6315 -0.3765 -0.7891
  995MOL0     C34194   4.736   3.772   9.636 -0.4248  0.4279 -0.3551
  995MOL0     C34195   4.813   3.668   9.679  0.0002  0.7688  0.0395
  995MOL0     C34196   4.899   3.681   9.788 -0.9148 -0.8239  0.2719
  995MOL0     C34197   4.893   3.803   9.859 -0.9003 -0.8437 -0.6074
  995MOL0     O34198   4.967   3.824   9.969  0.5421  0.4405 -0.9582
  995MOL0     C34199   4.967   3.934  10.059  1.0071  0.8952 -0.2625
  995MOL0     C34200   4.848   3.943  10.153 -0.3753 -0.1969  0.2284
  995MOL0     C34201   4.864   3.824  10.248  0.4782  0.4861 -0.2115
  995MOL0     C34202   4.765   3.834  10.358  0.8673  1.1306  0.7829
  995MOL0     C34203   4.783   3.741  10.479  0.3251  0.2037  0.4703
  995MOL0     C34204   4.734   3.599  10.441 -0.3836 -0.1826  0.0477
  995MOL0     C34205   4.587   3.578  10.445  0.3470  0.0538 -0.1286
  995MOL0     C34206   4.539   3.422  10.439  0.1036 -0.1246  0.0456
  995MOL0     N34207   4.602   3.359  10.552  0.4002  0.9422 -1.0670
  995MOL0     C34208   4.593   3.413  10.680 -0.4969  0.2176  0.2301
  995MOL0     C34209   4.668   3.327  10.744  0.0595 -0.1132 -0.0349
  995MOL0     C34210   4.702   3.350  10.891 -0.2500  0.3057  0.8107
  995MOL0     C34211   4.830   3.427  10.932  0.2332  0.4554  0.1610
  995MOL0     C34212   4.839   3.551  10.841 -0.5724 -0.3713  0.4088
  995MOL0     C34213   4.947   3.651  10.889 -0.8971  1.3206  0.7601
  995MOL0     O34214   5.069   3.570  10.905  0.2169 -0.1051 -0.1562
  995MOL0     C34215   5.185   3.622  10.855 -0.2743 -0.7361  0.0457
  995MOL0     C34216   5.282   3.531  10.814 -1.1600  0.3292 -0.4509
  995MOL0     C34217   5.402   3.559  10.750 -0.0896 -0.6392  0.5969
  995MOL0     C34218   5.503   3.452  10.726  0.2995  0.3689  0.4232
  995MOL0     C34219   5.433   3.698  10.728  0.5713 -0.6281  0.2247
  995MOL0     C34220   5.545   3.763  10.641  0.4287  0.0065  0.0439
  995MOL0     O34221   5.614   3.672  10.571  0.1914  0.4346  0.2598
  995MOL0     C34222   5.684   3.689  10.453  0.2127  0.4007  0.3475
  995MOL0     C34223   5.731   3.815  10.409 -0.9954 -0.2605 -0.6865
  995MOL0     C34224   5.816   3.825  10.300 -0.9708 -0.4256 -0.8393
  995MOL0     C34225   5.840   3.717  10.222 -0.1516  0.2364  0.1086
  995MOL0     O34226   5.915   3.741  10.111 -0.5758 -0.0722  0.5343
  995MOL0     C34227   5.993   3.633  10.049  0.8260 -0.0917  0.8959
  995MOL0     C34228   6.097   3.565  10.136  0.0109  0.1087  0.0452
  995MOL0     C34229   6.201   3.490  10.053 -0.3024 -1.2085 -0.2427
  995MOL0     C34230   6.146   3.384   9.970  0.3183  0.3614 -0.3076
  995MOL0     C34231   6.259   3.282   9.932 -1.1528 -0.2634  0.0692
  995MOL0     C34232   6.218   3.182   9.825 -0.8846  0.0210 -1.4194
  995MOL0     C34233   6.117   3.078   9.881 -0.9247  0.1242 -0.4691
  995MOL0     C34234   6.156   3.013  10.018  0.5597  0.3693  0.7148
  995MOL0    Cl34235   6.030   2.896  10.054  0.7065 -0.2374  0.1867
  995MOL0     C34236   5.785   3.597  10.257 -0.2395 -0.2737 -0.1873
  995MOL0     C34237   5.711   3.580  10.372  0.3117 -0.2484 -0.2305
  995MOL0     O34238   5.556   3.882  10.635  0.9205  0.5297  0.4410
  995MOL0     C34239   5.348   3.795  10.785  1.1420 -0.9222 -0.9106
  995MOL0     C34240   5.220   3.758  10.842  0.4812 -0.6330  0.4064
  995MOL0     N34241   4.718   3.222  10.672 -0.3427 -0.0651 -0.6098
  995MOL0     N34242   4.676   3.243  10.551  0.3167 -0.4162 -0.0301
  995MOL0     C34243   4.807   3.907   9.824 -0.8855  0.7278 -0.1586
  995MOL0     C34244   4.750   3.891   9.703  0.8172  0.8653  1.3420
  995MOL0     C34245   4.560   3.835   9.311 -0.5115  0.3676  0.4365
  995MOL0     C34246   4.541   3.938   9.218 -0.9024 -0.2583  0.2641
  995MOL0     C34247   4.460   3.915   9.107 -0.5344 -0.7066  0.2011
  995MOL0     C34248   4.397   3.798   9.094  0.0066  0.0715  0.1702
  995MOL0     O34249   4.307   3.790   8.989 -0.1136  0.0206  0.5877
  995MOL0     C34250   4.284   3.658   8.936  0.5943  0.2941 -0.1032
  995MOL0     C34251   4.299   3.656   8.783  0.4341 -0.1201 -0.3239
  995MOL0     C34252   4.311   3.518   8.715  0.8574  0.1999 -0.8217
  995MOL0     C34253   4.315   3.523   8.565 -0.1019  0.0162 -0.3323
  995MOL0     C34254   4.188   3.559   8.509 -0.3987 -0.2968 -0.0602
  995MOL0     C34255   4.078   3.592   8.470 -0.5396  0.0543 -0.0657
  995MOL0     C34256   4.404   3.698   9.193 -0.2349  0.8173 -0.5261
  995MOL0     C34257   4.488   3.718   9.297 -0.2767  0.9404 -0.1247
  995MOL0     H34258   4.812   3.574   9.624 -1.4710 -0.3063  1.8006
  995MOL0     H34259   4.974   3.611   9.823  0.7888  2.7519  4.6613
  995MOL0     H34260   5.058   3.939  10.120  2.0848  0.0946 -1.7233
  995MOL0     H34261   4.988   4.019   9.993  0.3278  1.4796  0.2623
  995MOL0     H34262   4.853   4.040  10.203  0.7077  1.5380 -2.9459
  995MOL0     H34263   4.750   3.940  10.105 -0.9577  2.2202  1.1283
  995MOL0     H34264   4.826   3.736  10.195  0.4227  0.6661 -0.4720
  995MOL0     H34265   4.964   3.812  10.291  0.6497  0.5468 -0.5888
  995MOL0     H34266   4.746   3.934  10.398 -1.5330  0.1191  2.4169
  995MOL0     H34267   4.671   3.801  10.312  1.1756 -1.6644  1.9602
  995MOL0     H34268   4.889   3.738  10.506 -0.0395  0.0892  1.9728
  995MOL0     H34269   4.729   3.770  10.569  0.7009 -2.1841  1.5444
  995MOL0     H34270   4.786   3.568  10.351 -0.8096 -2.8776  0.6598
  995MOL0     H34271   4.782   3.528  10.508 -1.9203 -2.2890 -0.9911
  995MOL0     H34272   4.568   3.613  10.547  2.0009 -2.8495  1.3111
  995MOL0     H34273   4.535   3.639  10.370  0.2824 -0.4012 -0.4536
  995MOL0     H34274   4.565   3.376  10.343 -0.9473  0.9788 -0.7923
  995MOL0     H34275   4.430   3.415  10.436  0.1099 -0.4723  0.4820
  995MOL0     H34276   4.542   3.501  10.719 -4.5416 -1.2151 -1.3019
  995MOL0     H34277   4.615   3.396  10.938 -1.8722 -2.4599  0.7082
  995MOL0     H34278   4.701   3.255  10.944 -2.7785 -0.9534 -1.2843
  995MOL0     H34279   4.913   3.357  10.920 -1.2502 -1.0045 -2.5908
  995MOL0     H34280   4.814   3.463  11.034 -4.3884  0.3241 -0.3078
  995MOL0     H34281   4.743   3.603  10.835 -0.4113  0.0504  1.2810
  995MOL0     H34282   4.875   3.520  10.742  2.0680 -1.9546  1.7376
  995MOL0     H34283   4.906   3.678  10.987 -5.2218  0.0765 -0.4778
  995MOL0     H34284   4.971   3.739  10.829  3.7251  0.3408  0.7687
  995MOL0     H34285   5.254   3.429  10.836 -1.5273  1.2542  4.5024
  995MOL0     H34286   5.441   3.367  10.695 -0.4900  0.3858  1.8665
  995MOL0     H34287   5.560   3.451  10.633  0.5411 -1.8147  0.5305
  995MOL0     H34288   5.571   3.432  10.809  0.2901 -1.0010  0.1279
  995MOL0     H34289   5.711   3.902  10.470 -0.4879  0.3235 -1.3431
  995MOL0     H34290   5.850   3.920  10.261 -0.1293 -0.2868  0.1948
  995MOL0     H34291   5.926   3.554  10.014 -0.3811  1.7195 -1.1552
  995MOL0     H34292   6.045   3.678   9.964 -1.2869 -2.1756 -1.6860
  995MOL0     H34293   6.135   3.651  10.192 -0.4211  1.4125 -1.5463
  995MOL0     H34294   6.062   3.490  10.207  0.3004 -0.4146 -0.3537
  995MOL0     H34295   6.268   3.446  10.128 -1.3593  0.0818  1.5578
  995MOL0     H34296   6.262   3.555   9.989  0.3004 -2.9072 -1.4640
  995MOL0     H34297   6.071   3.326  10.024  1.6131  0.9374  2.2730
  995MOL0     H34298   6.109   3.430   9.878 -0.6026 -1.3904 -0.8674
  995MOL0     H34299   6.278   3.221  10.021 -1.3291 -2.7435 -1.5213
  995MOL0     H34300   6.354   3.322   9.894  0.5352 -0.8798  3.2905
  995MOL0     H34301   6.166   3.225   9.739 -0.4177  0.9525 -1.2480
  995MOL0     H34302   6.315   3.146   9.789  0.5967  3.0606 -0.8221
  995MOL0     H34303   6.098   2.995   9.813 -3.9714 -0.9503  1.4694
  995MOL0     H34304   6.023   3.129   9.902 -0.8425 -0.7649  2.5107
  995MOL0     H34305   6.155   3.090  10.096  2.2005  1.5748 -0.3792
  995MOL0     H34306   6.257   2.974  10.004  1.6639  3.6273 -1.5337
  995MOL0     H34307   5.804   3.505  10.202  1.1803  0.5200 -1.0726
  995MOL0     H34308   5.686   3.479  10.405 -1.1354  0.4437  0.8855
  995MOL0     H34309   5.365   3.901  10.773  0.9107 -0.8656 -0.7365
  995MOL0     H34310   5.151   3.833  10.881  0.5159 -0.0931 -0.5507
  995MOL0     H34311   4.797   3.996   9.885  0.3596  1.2771 -0.7019
  995MOL0     H34312   4.694   3.974   9.661  1.7437  0.7984 -0.0678
  995MOL0     H34313   4.591   4.034   9.219 -0.8537 -0.1720 -2.4918
  995MOL0     H34314   4.430   3.996   9.042 -2.1861  0.9930  2.9032
  995MOL0     H34315   4.350   3.586   8.984  3.2357  2.7596  0.2586
  995MOL0     H34316   4.179   3.633   8.958  0.7818  0.7292  1.3996
  995MOL0     H34317   4.386   3.720   8.761 -0.4104  0.9454 -0.6429
  995MOL0     H34318   4.210   3.696   8.735  0.6002 -0.2194 -0.7140
  995MOL0     H34319   4.238   3.445   8.751  1.2210 -0.9516 -2.3468
  995MOL0     H34320   4.412   3.479   8.730  2.0406  2.4494 -2.3504
  995MOL0     H34321   4.348   3.422   8.539 -1.5606 -0.8980  1.1812
  995MOL0     H34322   4.393   3.597   8.542 -1.4646  0.6174 -3.5154
  995MOL0     H34323   3.979   3.614   8.434 -0.1504  0.7232 -0.7612
  995MOL0     H34324   4.354   3.603   9.186  1.7733 -0.3708  0.2370
  995MOL0     H34325   4.503   3.643   9.373 -0.5965  1.5471  0.5486
  996MOL0     O34326   2.890   3.955  10.035 -0.0373  0.1241  0.0151
  996MOL0     C34327   2.868   4.069  10.037 -0.1900 -0.2022  0.2442
  996MOL0     O34328   2.805   4.135  10.143  0.0529 -0.3256  0.7892
  996MOL0     C34329   2.762   4.093  10.270  0.3257 -0.1418 -0.5604
  996MOL0     C34330   2.707   4.184  10.349 -0.5313  0.7485 -0.6944
  996MOL0     C34331   2.649   4.151  10.471 -0.1309  0.5396 -0.3288
  996MOL0     C34332   2.657   4.015  10.520  0.2429 -0.3453 -0.3206
  996MOL0     O34333   2.608   3.971  10.645  0.1809 -0.0506 -0.1537
  996MOL0     C34334   2.546   4.074  10.725 -0.1845 -0.0364 -0.5785
  996MOL0     C34335   2.482   4.013  10.850 -0.0051 -0.0157  0.3282
  996MOL0     C34336   2.459   4.123  10.957 -0.5556 -0.4844  0.0310
  996MOL0     C34337   2.317   4.185  10.937  0.7307 -0.1877  0.6502
  996MOL0     C34338   2.280   4.293  11.028 -0.6337  0.2111 -0.2634
  996MOL0     C34339   2.208   4.246  11.159  1.0561 -0.4028 -0.1654
  996MOL0     C34340   2.220   4.365  11.268  0.4674  0.2421  0.6468
  996MOL0     C34341   2.330   4.343  11.376  0.5374 -0.1149 -0.7087
  996MOL0     N34342   2.461   4.403  11.339 -0.5849 -1.0611 -0.0945
  996MOL0     C34343   2.515   4.518  11.395 -0.2398 -0.1468 -0.7157
  996MOL0     C34344   2.648   4.511  11.376  0.2195  0.2313  0.0400
  996MOL0     C34345   2.738   4.620  11.430 -0.5190  0.5517  0.2120
  996MOL0     C34346   2.872   4.568  11.496  0.6736  0.1850  0.1572
  996MOL0     C34347   2.937   4.686  11.581  0.3584  0.0940  0.0127
  996MOL0     C34348   3.072   4.632  11.618 -0.1209 -0.4809 -0.4904
  996MOL0     O34349   3.153   4.725  11.695  0.7361  0.2145 -0.1059
  996MOL0     C34350   3.262   4.675  11.755  0.1272  0.0856 -0.4247
  996MOL0     C34351   3.323   4.748  11.860  0.7380  0.0771 -0.3383
  996MOL0     C34352   3.439   4.699  11.922 -0.4490 -0.0434 -0.1393
  996MOL0     C34353   3.502   4.787  12.034 -0.3759  0.4207  0.7952
  996MOL0     C34354   3.498   4.582  11.875  0.0033 -0.2053  0.0051
  996MOL0     C34355   3.632   4.530  11.919  0.3552 -0.7491  0.3133
  996MOL0     O34356   3.694   4.446  11.831  1.0358 -0.1408 -0.1989
  996MOL0     C34357   3.812   4.394  11.856  0.0838  0.4464  0.6273
  996MOL0     C34358   3.921   4.426  11.777  1.4614  0.1670  0.4845
  996MOL0     C34359   4.048   4.367  11.790  1.1051  0.4777  0.0412
  996MOL0     C34360   4.064   4.260  11.886  0.3055  0.0573 -0.5596
  996MOL0     O34361   4.185   4.205  11.890  0.1792  0.8990  0.0852
  996MOL0     C34362   4.249   4.142  12.003 -0.0639 -0.5513  0.7054
  996MOL0     C34363   4.221   4.206  12.132  0.1754 -0.2174 -0.6139
  996MOL0     C34364   4.315   4.183  12.241  0.3657 -0.3338  0.6114
  996MOL0     C34365   4.254   4.205  12.377  0.1320  0.5972 -0.0056
  996MOL0     C34366   4.330   4.161  12.500  0.3315  0.1212 -0.4158
  996MOL0     C34367   4.473   4.231  12.510 -0.1736 -0.0406 -0.4482
  996MOL0     C34368   4.468   4.379  12.552  0.6277  0.7100  0.1828
  996MOL0     C34369   4.608   4.448  12.563 -0.3928  0.1023 -0.4672
  996MOL0    Cl34370   4.709   4.347  12.665  0.1815  0.0487  0.1338
  996MOL0     C34371   3.951   4.231  11.966 -0.6907  0.0340  0.7433
  996MOL0     C34372   3.829   4.297  11.958 -0.3254  0.3424  0.2053
  996MOL0     O34373   3.678   4.553  12.028 -0.3681 -0.5506 -0.4023
  996MOL0     C34374   3.437   4.515  11.770  0.1891 -0.0814  0.0761
  996MOL0     C34375   3.318   4.556  11.716  0.1789  0.0001 -0.1542
  996MOL0     N34376   2.668   4.393  11.308  0.3965 -0.0113 -0.2333
  996MOL0     N34377   2.553   4.325  11.286 -0.4560  0.5630 -0.2598
  996MOL0     C34378   2.733   3.923  10.445 -0.7698 -0.4373 -0.2172
  996MOL0     C34379   2.781   3.957  10.315  0.0841 -0.1665 -0.3958
  996MOL0     C34380   2.887   4.154   9.911  0.3027 -0.2912  0.1821
  996MOL0     C34381   2.950   4.102   9.795  0.7898 -0.5502 -0.4940
  996MOL0     C34382   2.954   4.186   9.683  0.2842  0.3089 -0.9337
  996MOL0     C34383   2.909   4.321   9.679  1.0767  0.4056  0.5003
  996MOL0     O34384   2.924   4.382   9.559  0.5532 -0.9410 -0.2907
  996MOL0     C34385   2.870   4.517   9.555 -0.1850 -0.2390 -0.2963
  996MOL0     C34386   2.715   4.515   9.540 -0.4574 -0.1563  0.5565
  996MOL0     C34387   2.657   4.441   9.421  1.0689  0.4781  0.5498
  996MOL0     C34388   2.505   4.425   9.438  0.1849 -0.8682 -0.8977
  996MOL0     C34389   2.446   4.561   9.418 -0.1860 -0.0711  0.9457
  996MOL0     C34390   2.403   4.672   9.399 -0.5671 -0.2260  0.0490
  996MOL0     C34391   2.854   4.367   9.786  0.2666 -0.1847 -0.4207
  996MOL0     C34392   2.842   4.292   9.908  0.8697  0.5002 -0.3640
  996MOL0     H34393   2.712   4.284  10.309 -1.0270  1.6387  1.3362
  996MOL0     H34394   2.599   4.220  10.538  2.3907  0.9060  1.2808
  996MOL0     H34395   2.622   4.144  10.761 -1.6469 -0.0075  2.7797
  996MOL0     H34396   2.465   4.128  10.675  0.1920 -0.3266 -1.5377
  996MOL0     H34397   2.399   3.944  10.833  0.4765 -0.5705  0.2143
  996MOL0     H34398   2.557   3.945  10.893 -0.4693 -0.2156  0.8278
  996MOL0     H34399   2.472   4.071  11.053  1.7881  1.6597  0.9735
  996MOL0     H34400   2.533   4.203  10.954 -0.0943 -0.8604  0.9411
  996MOL0     H34401   2.295   4.214  10.834  0.7418  0.6441  0.8725
  996MOL0     H34402   2.245   4.104  10.950  1.4432 -1.0536 -0.6296
  996MOL0     H34403   2.374   4.343  11.053  0.1653 -1.4016  0.1425
  996MOL0     H34404   2.214   4.364  10.977  0.0245  1.3835  0.4872
  996MOL0     H34405   2.104   4.236  11.128  1.7984 -2.4149 -2.2673
  996MOL0     H34406   2.234   4.151  11.206 -0.7822 -1.3486 -0.9773
  996MOL0     H34407   2.246   4.450  11.204  1.3465 -2.0825 -2.3302
  996MOL0     H34408   2.120   4.385  11.307  1.0564  2.7976  1.0329
  996MOL0     H34409   2.348   4.236  11.386  1.8647 -0.0982 -2.4222
  996MOL0     H34410   2.285   4.387  11.466  0.9380 -0.2200 -0.4559
  996MOL0     H34411   2.468   4.599  11.448  0.9450  2.2012 -2.9930
  996MOL0     H34412   2.755   4.695  11.353 -1.2373  0.5395  0.0381
  996MOL0     H34413   2.686   4.672  11.512  1.0417  2.4250  0.1124
  996MOL0     H34414   2.941   4.544  11.415 -2.5051 -1.9679 -2.2049
  996MOL0     H34415   2.857   4.488  11.569  0.9719  0.8852  1.0034
  996MOL0     H34416   2.880   4.725  11.665  0.7649  1.5512 -0.3591
  996MOL0     H34417   2.947   4.766  11.507 -0.3307  0.4253  0.2774
  996MOL0     H34418   3.122   4.602  11.526  0.8650  0.4759 -0.2806
  996MOL0     H34419   3.051   4.549  11.686  0.3759 -1.3749 -1.4144
  996MOL0     H34420   3.283   4.845  11.888 -0.0437 -0.5732  0.8510
  996MOL0     H34421   3.546   4.731  12.117  1.5358 -2.2204 -1.7808
  996MOL0     H34422   3.583   4.853  12.002  0.6520  0.9508  4.1111
  996MOL0     H34423   3.430   4.859  12.073 -2.4419  1.0295 -3.5175
  996MOL0     H34424   3.915   4.487  11.687  1.6331 -1.0391 -0.3844
  996MOL0     H34425   4.122   4.406  11.720 -2.7346  4.0698 -2.4959
  996MOL0     H34426   4.216   4.038  12.015  1.6372 -0.9713  2.1658
  996MOL0     H34427   4.357   4.141  11.990 -0.0276  1.2145  0.7085
  996MOL0     H34428   4.217   4.312  12.107  0.9858 -0.1795 -0.5833
  996MOL0     H34429   4.123   4.173  12.170  1.7177 -4.5236  0.1738
  996MOL0     H34430   4.412   4.233  12.231  1.2130 -1.7786  1.1105
  996MOL0     H34431   4.333   4.075  12.247  1.5060 -0.1178  1.4563
  996MOL0     H34432   4.228   4.311  12.381  0.9817  1.2476 -4.8601
  996MOL0     H34433   4.160   4.154  12.397  1.2125 -1.0501  1.1571
  996MOL0     H34434   4.344   4.054  12.485 -1.8096 -0.1583 -0.7944
  996MOL0     H34435   4.264   4.178  12.586 -2.0132 -1.2664 -1.8112
  996MOL0     H34436   4.513   4.176  12.596 -2.2502 -1.9418 -0.6060
  996MOL0     H34437   4.531   4.217  12.418 -0.8806 -0.8269 -0.7831
  996MOL0     H34438   4.420   4.395  12.648 -0.3507 -0.8333 -0.0155
  996MOL0     H34439   4.416   4.436  12.475  2.4201  0.5638 -1.1986
  996MOL0     H34440   4.591   4.548  12.604 -2.3998  0.3735 -1.8174
  996MOL0     H34441   4.650   4.451  12.462 -1.0161  1.2285 -0.7077
  996MOL0     H34442   3.969   4.155  12.041 -0.3885  0.8007  1.4720
  996MOL0     H34443   3.745   4.279  12.025 -0.4156  0.5775  0.1549
  996MOL0     H34444   3.482   4.426  11.728  1.1404  1.7829 -3.1812
  996MOL0     H34445   3.278   4.497  11.635 -0.8342 -0.2077  0.4830
  996MOL0     H34446   2.746   3.821  10.481  2.3794 -1.1029 -2.7913
  996MOL0     H34447   2.830   3.881  10.255  1.2154 -1.3071  1.8326
  996MOL0     H34448   2.973   3.996   9.799 -0.0985 -0.7288  0.6033
  996MOL0     H34449   2.997   4.143   9.593 -1.9572 -1.1320 -1.3615
  996MOL0     H34450   2.883   4.582   9.641 -1.9010  0.6824 -0.6848
  996MOL0     H34451   2.906   4.567   9.465  0.1784 -1.0874 -0.6341
  996MOL0     H34452   2.663   4.610   9.555 -2.9619 -1.0973 -1.3531
  996MOL0     H34453   2.679   4.439   9.610 -2.0563  0.0881  0.0623
  996MOL0     H34454   2.701   4.341   9.414 -1.2555 -0.6986  1.6070
  996MOL0     H34455   2.675   4.487   9.324 -0.3008 -1.3019 -0.6045
  996MOL0     H34456   2.473   4.394   9.538  0.6413  0.3669 -0.3572
  996MOL0     H34457   2.460   4.349   9.373 -0.6080 -0.8963 -0.3351
  996MOL0     H34458   2.391   4.775   9.370  2.6369  0.0806 -0.5068
  996MOL0     H34459   2.813   4.468   9.791  1.5231  0.3412 -0.2369
  996MOL0     H34460   2.798   4.340   9.995 -2.4103 -0.1560 -1.5133
  997MOL0     O34461   3.473   8.608   5.043  0.3218 -0.0378 -0.3430
  997MOL0     C34462   3.406   8.661   5.131 -0.5066  0.3062  1.2230
  997MOL0     O34463   3.380   8.800   5.131  0.0420 -0.0360  0.1331
  997MOL0     C34464   3.435   8.879   5.022  0.3647 -0.4501 -0.5775
  997MOL0     C34465   3.519   8.982   5.060 -0.2335 -1.4935  0.0852
  997MOL0     C34466   3.577   9.077   4.964 -0.3129  0.6748  0.9241
  997MOL0     C34467   3.557   9.051   4.834 -0.6202 -0.1940  0.6045
  997MOL0     O34468   3.621   9.132   4.744  0.1752 -0.4519 -0.1762
  997MOL0     C34469   3.642   9.086   4.608  0.1028 -0.1708 -0.0053
  997MOL0     C34470   3.686   9.217   4.529 -0.0568 -0.5372  0.5784
  997MOL0     C34471   3.824   9.277   4.574 -0.4215 -0.2396  0.7002
  997MOL0     C34472   3.810   9.375   4.690  0.2372  0.0980  0.4007
  997MOL0     C34473   3.934   9.462   4.707 -0.6782 -0.0680  0.2237
  997MOL0     C34474   4.060   9.386   4.740  0.6878 -0.2417 -0.1753
  997MOL0     C34475   4.172   9.495   4.780 -0.1289 -0.5508 -0.1130
  997MOL0     C34476   4.307   9.443   4.755 -0.0867 -0.6566  0.0239
  997MOL0     N34477   4.398   9.537   4.805 -1.0885  0.0689  0.3407
  997MOL0     C34478   4.422   9.660   4.746 -1.3978 -0.8157  0.4693
  997MOL0     C34479   4.530   9.717   4.816 -0.0104  1.2177 -0.9208
  997MOL0     C34480   4.607   9.843   4.767 -0.2539 -0.3608 -0.8857
  997MOL0     C34481   4.616   9.942   4.887 -0.2950  0.8639  0.3462
  997MOL0     C34482   4.670  10.085   4.853 -0.1473  0.4538  0.6173
  997MOL0     C34483   4.633  10.181   4.958  0.4971 -1.3355 -1.4000
  997MOL0     O34484   4.499  10.238   4.933 -0.3501 -0.6137 -0.5778
  997MOL0     C34485   4.478  10.327   4.830 -0.0219 -0.4039  0.2631
  997MOL0     C34486   4.571  10.372   4.731  0.1340 -0.0109  0.6531
  997MOL0     C34487   4.537  10.468   4.632 -0.8457 -0.3562 -0.4779
  997MOL0     C34488   4.635  10.489   4.522 -0.6418 -0.8361  0.0855
  997MOL0     C34489   4.415  10.539   4.639 -0.5838 -1.4164  0.1542
  997MOL0     C34490   4.385  10.638   4.536  0.2542 -0.0951  0.1589
  997MOL0     O34491   4.247  10.661   4.536 -0.4214 -0.0349  0.2243
  997MOL0     C34492   4.208  10.757   4.442 -0.5325  0.1694  0.2497
  997MOL0     C34493   4.204  10.889   4.477 -0.4499  0.3214 -0.3440
  997MOL0     C34494   4.154  10.990   4.393  0.5133  0.1847  0.2450
  997MOL0     C34495   4.144  10.963   4.258  1.2333 -0.6162 -0.3152
  997MOL0     O34496   4.128  11.066   4.169 -1.2469 -0.1367  0.5281
  997MOL0     C34497   4.126  11.049   4.022  0.9731  0.3578  0.5380
  997MOL0     C34498   4.131  11.185   3.953  0.2184 -0.8723  0.5214
  997MOL0     C34499   4.109  11.171   3.802 -0.5380  0.0031 -0.2908
  997MOL0     C34500   4.022  11.279   3.743  0.3369 -0.4095 -0.7460
  997MOL0     C34501   4.005  11.286   3.591  0.4225 -0.4116  0.1237
  997MOL0     C34502   4.131  11.334   3.511  0.5322  0.3055 -0.0382
  997MOL0     C34503   4.107  11.344   3.369 -0.1829  0.3554  0.6708
  997MOL0     C34504   4.238  11.398   3.288  0.1766 -0.3277 -0.0618
  997MOL0    Cl34505   4.181  11.404   3.115  0.0171  0.2589  0.4499
  997MOL0     C34506   4.160  10.825   4.217  0.7548 -0.0076  0.3364
  997MOL0     C34507   4.190  10.724   4.308  1.3736 -0.6774  0.2839
  997MOL0     O34508   4.467  10.691   4.456 -0.1366 -0.1035  0.9013
  997MOL0     C34509   4.326  10.501   4.736  0.0357  1.3687 -1.1214
  997MOL0     C34510   4.354  10.396   4.831 -0.5075  0.7978  1.1865
  997MOL0     N34511   4.574   9.626   4.912 -0.1335  0.5121  0.2080
  997MOL0     N34512   4.499   9.522   4.894  0.3616  0.0975 -0.7487
  997MOL0     C34513   3.482   8.943   4.795  0.0055  0.8331 -1.3728
  997MOL0     C34514   3.417   8.863   4.888 -0.4159  0.4319 -0.6159
  997MOL0     C34515   3.340   8.585   5.243 -0.4172  0.4704  0.3370
  997MOL0     C34516   3.281   8.654   5.356 -0.6854  0.3888  0.7332
  997MOL0     C34517   3.193   8.582   5.434 -0.2002  1.3115  0.3541
  997MOL0     C34518   3.181   8.440   5.411  0.1607 -0.1977  0.0493
  997MOL0     O34519   3.136   8.344   5.497  0.1146 -0.4216  0.4400
  997MOL0     C34520   3.064   8.395   5.607 -0.2178  0.6260  0.3091
  997MOL0     C34521   3.005   8.267   5.683 -0.8754  0.0614  0.5279
  997MOL0     C34522   3.137   8.190   5.736 -0.3544 -0.0031  0.0716
  997MOL0     C34523   3.197   8.085   5.638  0.1054  0.2111 -0.2612
  997MOL0     C34524   3.308   8.008   5.704  0.3236  0.3575  0.0301
  997MOL0     C34525   3.398   7.936   5.745  0.2652  0.0217 -0.9405
  997MOL0     C34526   3.254   8.376   5.306  0.5334  0.2761  0.5967
  997MOL0     C34527   3.336   8.444   5.231 -0.2506  1.2618  0.7786
  997MOL0     H34528   3.530   8.999   5.167  0.3241  2.9934 -0.4998
  997MOL0     H34529   3.635   9.162   4.999 -1.4923  1.0814  1.9449
  997MOL0     H34530   3.710   9.001   4.601 -0.9141 -0.8824 -2.7230
  997MOL0     H34531   3.555   9.049   4.553  2.7752 -2.1248 -3.2809
  997MOL0     H34532   3.699   9.181   4.427  5.2630  1.0254  0.4241
  997MOL0     H34533   3.604   9.288   4.542  0.0310 -0.5451  1.2142
  997MOL0     H34534   3.890   9.197   4.606  0.8040  0.6145  0.3802
  997MOL0     H34535   3.878   9.319   4.488 -0.9103 -0.3089  0.3513
  997MOL0     H34536   3.717   9.431   4.674  0.3383 -0.1972 -1.5682
  997MOL0     H34537   3.797   9.331   4.789 -0.0441  3.0433  1.7812
  997MOL0     H34538   3.946   9.510   4.609  1.8123  1.2437  1.0663
  997MOL0     H34539   3.919   9.536   4.787 -0.1990 -1.2525  1.4405
  997MOL0     H34540   4.038   9.312   4.818  0.1721 -0.8090 -0.8461
  997MOL0     H34541   4.097   9.334   4.652 -0.0125  2.0022 -1.8826
  997MOL0     H34542   4.173   9.579   4.710  1.2182  0.5077  1.0954
  997MOL0     H34543   4.167   9.539   4.880  0.2606 -3.0826  1.1112
  997MOL0     H34544   4.329   9.402   4.656 -1.3483 -2.0840  0.2805
  997MOL0     H34545   4.322   9.358   4.823  2.0643 -0.0090  0.4205
  997MOL0     H34546   4.380   9.701   4.655  1.2510 -1.7204 -1.2685
  997MOL0     H34547   4.704   9.804   4.735 -0.3628 -2.6081  1.1988
  997MOL0     H34548   4.557   9.901   4.689  0.2304  1.2463 -0.0527
  997MOL0     H34549   4.669   9.899   4.973  0.4362  0.7592 -0.1518
  997MOL0     H34550   4.515   9.956   4.926 -1.0760  0.3992 -1.4218
  997MOL0     H34551   4.634  10.104   4.751  2.1720  0.3374 -0.3157
  997MOL0     H34552   4.777  10.083   4.828 -0.2438  0.5853  0.1695
  997MOL0     H34553   4.709  10.259   4.965 -1.1912  0.2243  1.6280
  997MOL0     H34554   4.645  10.112   5.041  0.8780 -0.2676 -0.5476
  997MOL0     H34555   4.665  10.321   4.717 -1.0042 -1.5508 -2.5622
  997MOL0     H34556   4.708  10.407   4.525  0.1911 -0.0977  0.7754
  997MOL0     H34557   4.596  10.482   4.420  0.8032  0.9213 -0.6547
  997MOL0     H34558   4.684  10.586   4.537 -0.4321 -0.4050 -2.7917
  997MOL0     H34559   4.214  10.917   4.581 -1.2308 -1.5596  0.2900
  997MOL0     H34560   4.135  11.089   4.433  0.9082  0.5659 -0.4973
  997MOL0     H34561   4.217  10.998   3.989 -0.0120  0.0413 -1.8874
  997MOL0     H34562   4.040  10.989   3.991  0.6733  1.6121 -1.1924
  997MOL0     H34563   4.048  11.237   4.002  0.6504  0.0432  0.3007
  997MOL0     H34564   4.221  11.243   3.970 -0.7427  0.7738  0.2006
  997MOL0     H34565   4.061  11.076   3.779 -2.4681  1.5462 -3.2385
  997MOL0     H34566   4.205  11.176   3.750  0.4536 -0.6273  1.3940
  997MOL0     H34567   3.924  11.276   3.792 -1.0362  0.7440 -3.2305
  997MOL0     H34568   4.066  11.374   3.777  0.3835 -0.9796  0.8461
  997MOL0     H34569   3.916  11.349   3.581  0.0113 -1.0033  0.0407
  997MOL0     H34570   3.984  11.188   3.548  2.2216 -1.3600  1.2844
  997MOL0     H34571   4.154  11.430   3.557  3.8091  0.3638 -1.5363
  997MOL0     H34572   4.210  11.262   3.535  0.0829 -0.0584  0.3789
  997MOL0     H34573   4.026  11.416   3.352  1.0192  1.0289 -3.2536
  997MOL0     H34574   4.074  11.248   3.328 -3.0468  1.4081  0.2654
  997MOL0     H34575   4.326  11.334   3.302  0.9214  0.5567 -0.5975
  997MOL0     H34576   4.259  11.497   3.330  1.3390 -0.2049 -0.8913
  997MOL0     H34577   4.156  10.806   4.111  1.5519 -0.7527  0.4319
  997MOL0     H34578   4.206  10.622   4.275 -0.4783 -1.8315  2.6164
  997MOL0     H34579   4.231  10.555   4.740 -0.4120  0.5384  1.1534
  997MOL0     H34580   4.271  10.375   4.898 -2.4087 -3.0342 -1.9654
  997MOL0     H34581   3.457   8.929   4.691  1.5012 -2.9981 -1.3769
  997MOL0     H34582   3.342   8.789   4.864  0.7966 -0.7014 -1.0627
  997MOL0     H34583   3.285   8.763   5.357  0.0267  0.4150 -0.9605
  997MOL0     H34584   3.152   8.633   5.521 -0.9898  2.0024 -0.4096
  997MOL0     H34585   3.132   8.455   5.669 -0.6227 -0.4565  1.8599
  997MOL0     H34586   2.977   8.455   5.581 -1.9407 -1.8124  0.0821
  997MOL0     H34587   2.949   8.207   5.611  1.2604  0.3733 -1.4847
  997MOL0     H34588   2.937   8.292   5.766 -3.3496 -0.0650 -1.3456
  997MOL0     H34589   3.100   8.148   5.830  1.3113  1.8511  1.6506
  997MOL0     H34590   3.212   8.262   5.768 -1.3104  0.6104  0.9996
  997MOL0     H34591   3.227   8.133   5.545  2.8571  1.4116  1.1387
  997MOL0     H34592   3.126   8.004   5.617  1.2957 -0.7021 -0.8571
  997MOL0     H34593   3.477   7.868   5.770 -1.9188 -2.6455 -0.8147
  997MOL0     H34594   3.229   8.271   5.294 -3.7131  0.7032  3.3401
  997MOL0     H34595   3.393   8.407   5.147 -2.4659  1.5843 -0.9413
  998MOL0     O34596   4.396   7.651   9.449 -0.3392 -0.3012  0.1764
  998MOL0     C34597   4.485   7.582   9.498 -0.1898  0.0646 -0.7325
  998MOL0     O34598   4.599   7.627   9.570  0.0473 -0.4519  0.0121
  998MOL0     C34599   4.618   7.767   9.583 -0.4894  0.7337  0.2324
  998MOL0     C34600   4.656   7.817   9.705  0.8134  0.2752 -0.0111
  998MOL0     C34601   4.668   7.954   9.728 -0.1112  0.2448  0.8503
  998MOL0     C34602   4.655   8.047   9.618 -0.8907 -1.2923 -0.5049
  998MOL0     O34603   4.678   8.186   9.643  0.3276  0.6124  0.9019
  998MOL0     C34604   4.618   8.290   9.564 -0.5660 -0.6211  0.7207
  998MOL0     C34605   4.609   8.421   9.653 -0.7223  0.3765 -1.0663
  998MOL0     C34606   4.477   8.424   9.729  0.5049  0.5528 -0.3468
  998MOL0     C34607   4.381   8.488   9.645  0.0615 -0.6738  0.2652
  998MOL0     C34608   4.238   8.478   9.720  0.2315 -0.0227  0.0260
  998MOL0     C34609   4.124   8.534   9.627  0.2113  0.4108 -0.4016
  998MOL0     C34610   4.068   8.672   9.677 -0.3482 -1.5397 -0.4466
  998MOL0     C34611   3.934   8.706   9.615  0.7417 -0.6746  0.8819
  998MOL0     N34612   3.931   8.696   9.466  0.3057  0.0872 -0.4828
  998MOL0     C34613   3.893   8.588   9.383 -1.9989 -0.0435 -0.6406
  998MOL0     C34614   3.965   8.591   9.261  0.1033  1.1956 -0.1417
  998MOL0     C34615   3.957   8.484   9.158  0.3980  0.4914 -1.0071
  998MOL0     C34616   4.000   8.340   9.204  0.2833  0.0812  0.2643
  998MOL0     C34617   4.155   8.335   9.242  0.5760  0.4342  0.3347
  998MOL0     C34618   4.186   8.205   9.324 -0.0344 -0.2853  0.0216
  998MOL0     O34619   4.149   8.235   9.462  0.6350 -0.0303 -0.4821
  998MOL0     C34620   4.139   8.116   9.535 -0.0268 -0.8320  0.2055
  998MOL0     C34621   4.022   8.039   9.530 -0.1009  0.0168 -0.2770
  998MOL0     C34622   4.013   7.909   9.579 -0.2337  0.5175 -0.1555
  998MOL0     C34623   3.877   7.845   9.578 -0.1134  0.1211  0.5821
  998MOL0     C34624   4.129   7.850   9.635  0.6109 -0.8604 -0.5160
  998MOL0     C34625   4.146   7.708   9.687  0.0409  1.1840  0.8942
  998MOL0     O34626   4.235   7.688   9.785 -0.0393 -0.5632 -0.3157
  998MOL0     C34627   4.287   7.571   9.833 -0.0006  0.5770 -0.6284
  998MOL0     C34628   4.219   7.447   9.817 -0.3402  0.9327 -0.3373
  998MOL0     C34629   4.274   7.330   9.865 -0.6116  0.4740 -0.4962
  998MOL0     C34630   4.389   7.328   9.942 -0.9398  0.1481 -0.0057
  998MOL0     O34631   4.434   7.212   9.999 -0.1131  0.1255  0.5149
  998MOL0     C34632   4.573   7.180   9.991 -0.0345  0.2952 -0.0639
  998MOL0     C34633   4.587   7.029  10.004 -1.0646  0.7051  0.6827
  998MOL0     C34634   4.574   6.952   9.867  0.4617  0.0035  0.6050
  998MOL0     C34635   4.701   6.956   9.777 -0.8484 -0.3079 -0.6627
  998MOL0     C34636   4.726   6.847   9.669  0.2349  0.1658  0.4604
  998MOL0     C34637   4.878   6.856   9.635 -0.7012  0.1118  0.4346
  998MOL0     C34638   4.919   6.740   9.556 -0.0414 -0.2487  0.2294
  998MOL0     C34639   5.044   6.755   9.479 -1.6454 -0.1164  0.7461
  998MOL0    Cl34640   5.018   6.901   9.371  0.5701 -0.4103 -0.6252
  998MOL0     C34641   4.457   7.446   9.958  0.2039 -0.5663  0.3719
  998MOL0     C34642   4.407   7.571   9.899  0.6199  0.8463  0.2157
  998MOL0     O34643   4.104   7.615   9.612  0.1810  0.2071 -0.3378
  998MOL0     C34644   4.243   7.935   9.645  0.4597 -0.2161  0.1874
  998MOL0     C34645   4.251   8.061   9.591  0.3266 -0.2087 -0.4029
  998MOL0     N34646   4.041   8.703   9.274  0.2133 -0.0992  0.0817
  998MOL0     N34647   4.026   8.757   9.389 -0.5220 -0.1745  0.5350
  998MOL0     C34648   4.617   8.000   9.497  0.5005  0.3897 -0.0454
  998MOL0     C34649   4.591   7.858   9.480 -0.8345  0.3191 -0.9959
  998MOL0     C34650   4.462   7.441   9.481  0.8883 -1.2417 -0.4523
  998MOL0     C34651   4.332   7.374   9.469 -0.0248  0.2025 -0.8664
  998MOL0     C34652   4.318   7.237   9.478 -0.0525  1.1888 -0.1512
  998MOL0     C34653   4.422   7.147   9.499 -0.8440  0.0332 -0.4118
  998MOL0     O34654   4.422   7.010   9.526 -0.0194  0.1824  1.2901
  998MOL0     C34655   4.294   6.954   9.511  0.3980 -0.1593 -0.0415
  998MOL0     C34656   4.295   6.803   9.556  0.0791  0.4306 -0.3888
  998MOL0     C34657   4.334   6.712   9.437 -0.3997  0.5006 -0.4681
  998MOL0     C34658   4.316   6.563   9.475 -0.2284 -0.7519 -0.0205
  998MOL0     C34659   4.401   6.523   9.587  0.0823  1.1451 -0.2091
  998MOL0     C34660   4.474   6.482   9.672 -0.3529 -0.0593 -0.0901
  998MOL0     C34661   4.551   7.215   9.507  0.2469 -0.0704 -0.1723
  998MOL0     C34662   4.567   7.356   9.512  0.5534  0.0946  0.3446
  998MOL0     H34663   4.665   7.755   9.793  0.3029 -0.6979 -0.6193
  998MOL0     H34664   4.714   8.004   9.813  3.7293  0.9674 -1.3959
  998MOL0     H34665   4.678   8.315   9.476 -1.4134  0.0095  0.3069
  998MOL0     H34666   4.515   8.257   9.547 -0.8089  0.1159  0.7168
  998MOL0     H34667   4.684   8.406   9.731 -0.4432 -1.0898 -1.5875
  998MOL0     H34668   4.626   8.515   9.601  0.7024  1.4958  1.2705
  998MOL0     H34669   4.447   8.322   9.756  0.0467  0.9604  0.7287
  998MOL0     H34670   4.488   8.488   9.817 -2.0484 -2.2931  2.2742
  998MOL0     H34671   4.414   8.593   9.647  1.5183 -1.0996  1.9111
  998MOL0     H34672   4.389   8.453   9.542 -0.5946 -0.6996  0.2180
  998MOL0     H34673   4.221   8.372   9.741  0.8357  0.3419  2.8066
  998MOL0     H34674   4.238   8.529   9.817  4.0129 -3.8555  2.3915
  998MOL0     H34675   4.153   8.543   9.521  0.1838 -2.4656 -0.7324
  998MOL0     H34676   4.043   8.461   9.629 -0.2864  0.9735  1.2095
  998MOL0     H34677   4.062   8.680   9.786  0.0794 -1.5605 -0.4183
  998MOL0     H34678   4.143   8.749   9.654 -0.3982 -1.4444 -0.2894
  998MOL0     H34679   3.901   8.808   9.641  0.9377 -0.2616 -0.4324
  998MOL0     H34680   3.857   8.641   9.657 -2.2288  2.3683  0.6577
  998MOL0     H34681   3.814   8.517   9.402  0.0942 -1.5159  3.9350
  998MOL0     H34682   3.857   8.485   9.113 -0.7592 -1.3280  1.2388
  998MOL0     H34683   4.013   8.510   9.069 -0.3986  3.6658 -0.7055
  998MOL0     H34684   3.984   8.261   9.130  1.0124 -0.6413  0.8581
  998MOL0     H34685   3.955   8.303   9.297 -1.3668  0.3780 -0.3692
  998MOL0     H34686   4.184   8.424   9.297  0.2308  1.1700 -0.6453
  998MOL0     H34687   4.210   8.333   9.147  0.2721 -1.8302  0.1395
  998MOL0     H34688   4.287   8.171   9.300 -0.4354 -2.4951  1.2167
  998MOL0     H34689   4.120   8.132   9.278 -0.9046  1.4169 -1.5292
  998MOL0     H34690   3.934   8.090   9.493 -1.6453 -0.5009  2.4200
  998MOL0     H34691   3.806   7.905   9.520 -1.6794  0.2839  2.5704
  998MOL0     H34692   3.867   7.746   9.532 -1.3036  1.7110 -2.9186
  998MOL0     H34693   3.830   7.833   9.676 -0.2790  0.1599  0.5096
  998MOL0     H34694   4.128   7.435   9.758 -0.3455  2.4521 -0.6865
  998MOL0     H34695   4.232   7.234   9.839  1.1749 -0.5210  0.1030
  998MOL0     H34696   4.612   7.209   9.893  0.0675 -1.9793 -0.7536
  998MOL0     H34697   4.625   7.236  10.070 -1.5579  1.8439 -0.1070
  998MOL0     H34698   4.679   6.997  10.053 -1.1172  0.0072  0.3360
  998MOL0     H34699   4.510   6.990  10.071 -0.5681 -3.9217 -1.0558
  998MOL0     H34700   4.492   6.986   9.802  0.8018 -1.9435 -0.9250
  998MOL0     H34701   4.548   6.848   9.889  1.7821 -0.6207 -0.6346
  998MOL0     H34702   4.722   7.056   9.738  2.8274 -0.9217 -0.6023
  998MOL0     H34703   4.785   6.934   9.844 -0.3964  1.9610 -0.3965
  998MOL0     H34704   4.665   6.844   9.578 -1.9929 -2.6063  1.8705
  998MOL0     H34705   4.712   6.750   9.718 -1.8264 -0.8502 -1.9289
  998MOL0     H34706   4.902   6.952   9.587 -4.2413  0.6105 -0.6025
  998MOL0     H34707   4.950   6.849   9.717 -1.1829 -2.2647  0.7075
  998MOL0     H34708   4.837   6.705   9.493 -1.0118 -0.6747  1.6782
  998MOL0     H34709   4.936   6.656   9.625 -1.1135  0.5906  1.5703
  998MOL0     H34710   5.056   6.663   9.421 -0.7498  1.4725 -1.7579
  998MOL0     H34711   5.131   6.771   9.543  0.7385  0.1395 -2.3190
  998MOL0     H34712   4.550   7.446  10.013  2.7163  0.5910 -3.4490
  998MOL0     H34713   4.464   7.661   9.920 -0.3166  1.9443 -1.6408
  998MOL0     H34714   4.340   7.894   9.671  2.0867  2.4828 -1.1069
  998MOL0     H34715   4.345   8.115   9.585  0.6667 -0.5964  1.1089
  998MOL0     H34716   4.627   8.063   9.409 -1.4484  1.9419  0.7558
  998MOL0     H34717   4.559   7.817   9.385  2.7517 -2.2210 -1.3197
  998MOL0     H34718   4.251   7.442   9.447 -0.1059 -0.1987 -1.8546
  998MOL0     H34719   4.215   7.203   9.470  0.7499 -1.3255 -0.7167
  998MOL0     H34720   4.236   7.007   9.588  2.1286  1.5151  0.1848
  998MOL0     H34721   4.253   6.960   9.410  1.7322 -0.1510 -0.5917
  998MOL0     H34722   4.190   6.784   9.580 -0.4599  1.2681 -1.9276
  998MOL0     H34723   4.363   6.783   9.639  2.6362 -0.8824 -2.6249
  998MOL0     H34724   4.434   6.737   9.400  0.0238  0.3379  0.5305
  998MOL0     H34725   4.261   6.741   9.361 -1.6286 -2.2844 -0.4767
  998MOL0     H34726   4.328   6.489   9.396 -2.8005 -1.4427  0.1505
  998MOL0     H34727   4.208   6.557   9.495 -0.4491  3.8133  1.2190
  998MOL0     H34728   4.544   6.471   9.752 -1.0110 -1.3428  0.3373
  998MOL0     H34729   4.647   7.168   9.527  0.2473  0.5016  1.3479
  998MOL0     H34730   4.664   7.397   9.537 -0.3409  1.1840  2.2825
  999MOL0     O34731   6.999   1.856   0.117  0.4588 -0.0948 -0.6816
  999MOL0     C34732   7.055   1.807   0.218  0.4539  0.6198  0.1788
  999MOL0     O34733   7.011   1.690   0.284  0.0002 -0.0214 -0.1324
  999MOL0     C34734   6.905   1.627   0.218 -0.1401 -0.9176  0.1144
  999MOL0     C34735   6.923   1.541   0.111  0.4824 -0.0401 -0.8035
  999MOL0     C34736   6.819   1.472   0.059  0.4662  0.8527  1.3124
  999MOL0     C34737   6.684   1.489   0.107 -0.2581 -0.7102  0.6147
  999MOL0     O34738   6.586   1.412   0.055 -0.1734  1.5465 -0.3442
  999MOL0     C34739   6.444   1.445   0.080 -0.2429  0.5943  0.2573
  999MOL0     C34740   6.361   1.423  -0.047  0.3973  0.8934 -0.7725
  999MOL0     C34741   6.216   1.463  -0.008  0.0147  0.6832  0.6473
  999MOL0     C34742   6.112   1.353  -0.032 -0.0531 -1.0149 -0.8486
  999MOL0     C34743   5.984   1.418   0.040  0.5983  1.4674  0.3826
  999MOL0     C34744   5.866   1.326   0.025  0.4993  0.5636 -0.0755
  999MOL0     C34745   5.902   1.186   0.081 -0.2539 -0.4363 -0.9074
  999MOL0     C34746   5.784   1.108   0.136  0.3809 -0.4253 -0.1724
  999MOL0     N34747   5.808   0.965   0.155 -0.2222  0.2253 -0.1346
  999MOL0     C34748   5.843   0.867   0.063  0.5769 -0.3527  0.7295
  999MOL0     C34749   5.827   0.748   0.134 -0.6971  0.1123 -0.0002
  999MOL0     C34750   5.843   0.609   0.077 -0.7022  1.0742 -0.6099
  999MOL0     C34751   5.857   0.494   0.176 -0.7234  0.0867  0.3750
  999MOL0     C34752   5.977   0.483   0.264  0.5834 -0.6076 -0.2513
  999MOL0     C34753   6.120   0.463   0.203 -0.0408 -0.8446  0.7500
  999MOL0     O34754   6.161   0.569   0.120  0.3151  0.2377 -0.2274
  999MOL0     C34755   6.270   0.546   0.034 -0.3281  0.5493 -1.0013
  999MOL0     C34756   6.245   0.518  -0.095 -1.1417  0.3657  0.0673
  999MOL0     C34757   6.355   0.504  -0.186  0.5818  1.3119 -0.4183
  999MOL0     C34758   6.307   0.517  -0.328  0.4310 -0.2940  0.0536
  999MOL0     C34759   6.489   0.509  -0.147 -0.7825  0.9076 -0.7229
  999MOL0     C34760   6.609   0.505  -0.235 -1.5390 -0.5445  0.2526
  999MOL0     O34761   6.578   0.528  -0.363 -0.1772 -0.4521 -0.1085
  999MOL0     C34762   6.681   0.552  -0.448  0.1252  0.1249 -0.7141
  999MOL0     C34763   6.746   0.441  -0.499  0.4591 -1.1573  0.6003
  999MOL0     C34764   6.858   0.454  -0.585  0.1737  0.5616 -0.0592
  999MOL0     C34765   6.885   0.584  -0.627 -0.1577 -0.3350 -0.3863
  999MOL0     O34766   6.982   0.601  -0.724 -0.0422 -0.8015 -0.4557
  999MOL0     C34767   6.950   0.688  -0.840 -1.0847  0.6597  0.3254
  999MOL0     C34768   6.866   0.600  -0.944 -0.1861 -0.8040 -0.2183
  999MOL0     C34769   6.835   0.668  -1.078 -0.3709 -0.2962 -0.7494
  999MOL0     C34770   6.710   0.749  -1.077  0.2596  0.5115  0.9629
  999MOL0     C34771   6.659   0.782  -1.224 -1.1004 -0.3101 -0.0802
  999MOL0     C34772   6.598   0.661  -1.300 -0.6105  0.2070 -1.0606
  999MOL0     C34773   6.453   0.630  -1.248 -0.9521 -0.2360  0.5340
  999MOL0     C34774   6.379   0.529  -1.338  0.2471 -0.2167  0.2091
  999MOL0    Cl34775   6.241   0.469  -1.246 -0.8836 -0.4776  0.1646
  999MOL0     C34776   6.831   0.698  -0.561  0.8517  0.4832  0.2121
  999MOL0     C34777   6.734   0.687  -0.454 -0.6079 -0.2463  0.5302
  999MOL0     O34778   6.725   0.486  -0.192 -0.2662 -0.7998 -0.5377
  999MOL0     C34779   6.511   0.544  -0.006  0.0729 -0.5336  0.6518
  999MOL0     C34780   6.403   0.552   0.080  0.4794 -0.5132  0.0497
  999MOL0     N34781   5.779   0.769   0.260 -0.1254 -0.5020 -0.4065
  999MOL0     N34782   5.766   0.898   0.265  0.6918  0.3025  0.2631
  999MOL0     C34783   6.673   1.575   0.212  1.0047 -0.3253  1.1352
  999MOL0     C34784   6.780   1.645   0.267 -0.1216  0.6724  0.3355
  999MOL0     C34785   7.174   1.877   0.269 -0.2154 -0.1689 -0.5559
  999MOL0     C34786   7.237   1.822   0.385 -0.7172  1.0457  0.0864
  999MOL0     C34787   7.342   1.889   0.445  0.1912  0.9157 -0.1843
  999MOL0     C34788   7.396   2.005   0.390 -0.0205  0.7879  0.2289
  999MOL0     O34789   7.480   2.095   0.460  0.1298 -0.2036  0.7811
  999MOL0     C34790   7.453   2.127   0.602 -0.8371 -0.1573 -0.6840
  999MOL0     C34791   7.536   2.247   0.661 -0.4250 -0.6373  0.1022
  999MOL0     C34792   7.507   2.392   0.603 -0.2655  0.2554 -0.4860
  999MOL0     C34793   7.442   2.480   0.711 -0.5365 -0.0463  0.4531
  999MOL0     C34794   7.460   2.616   0.668 -0.1960 -0.5683 -0.5248
  999MOL0     C34795   7.450   2.735   0.662  0.4815 -0.3666 -0.3580
  999MOL0     C34796   7.355   2.043   0.257 -0.4118 -0.4634 -0.6063
  999MOL0     C34797   7.244   1.978   0.206 -0.2477  0.3131 -0.8222
  999MOL0     H34798   7.022   1.528   0.067  1.8784  2.0390  1.4680
  999MOL0     H34799   6.829   1.411  -0.030  0.1082  1.9668  0.4788
  999MOL0     H34800   6.406   1.375   0.155 -0.8119  0.4423 -0.1666
  999MOL0     H34801   6.435   1.550   0.108  2.0031  1.1222 -0.7204
  999MOL0     H34802   6.408   1.487  -0.123  0.5834  2.8880  0.9321
  999MOL0     H34803   6.364   1.317  -0.071  0.0020  0.7435 -0.1755
  999MOL0     H34804   6.215   1.488   0.098  3.0998  1.9210  0.4882
  999MOL0     H34805   6.198   1.553  -0.067  2.1731  1.7886  1.5519
  999MOL0     H34806   6.099   1.308  -0.131 -1.6803 -2.8429  0.1263
  999MOL0     H34807   6.144   1.264   0.022  0.2368 -0.9820 -0.9637
  999MOL0     H34808   6.010   1.439   0.144  5.4566 -1.5284  0.0788
  999MOL0     H34809   5.958   1.512  -0.010 -0.3184  1.3250  0.5731
  999MOL0     H34810   5.774   1.369   0.068 -2.1964 -0.8503 -3.8433
  999MOL0     H34811   5.847   1.315  -0.083  0.1575 -1.1266  0.1294
  999MOL0     H34812   5.958   1.124   0.010  2.6768 -0.3911  1.1842
  999MOL0     H34813   5.972   1.204   0.163  1.7198  0.0236 -2.5998
  999MOL0     H34814   5.704   1.129   0.064  0.4393  1.0908  0.1798
  999MOL0     H34815   5.747   1.147   0.231 -1.7607 -1.4320 -0.5232
  999MOL0     H34816   5.872   0.883  -0.041  1.5429  1.7655  1.2711
  999MOL0     H34817   5.754   0.580   0.020  0.9994  1.3286 -3.5801
  999MOL0     H34818   5.926   0.618   0.007 -1.1125  1.0315 -1.1010
  999MOL0     H34819   5.873   0.404   0.117  0.2402  0.2264  0.4081
  999MOL0     H34820   5.760   0.480   0.225 -0.7759  0.1130  0.2796
  999MOL0     H34821   5.948   0.406   0.336 -0.9559  1.1005  1.0401
  999MOL0     H34822   5.981   0.579   0.316  0.3354  1.6361 -3.9919
  999MOL0     H34823   6.145   0.362   0.168  1.8698 -0.3089  0.4530
  999MOL0     H34824   6.190   0.458   0.286  0.2404 -0.4979  0.5364
  999MOL0     H34825   6.141   0.527  -0.125 -0.5612  1.0303 -1.9086
  999MOL0     H34826   6.199   0.501  -0.338  0.6883 -2.8576  0.8382
  999MOL0     H34827   6.332   0.619  -0.360 -2.3369 -0.0409 -1.6761
  999MOL0     H34828   6.352   0.444  -0.396 -0.0595  0.0604 -0.6726
  999MOL0     H34829   6.709   0.344  -0.468 -3.6828  0.2744  0.7772
  999MOL0     H34830   6.926   0.381  -0.628  0.6970  0.5562  0.7611
  999MOL0     H34831   6.886   0.773  -0.814 -2.4784  0.7954 -2.9947
  999MOL0     H34832   7.035   0.727  -0.897 -0.4982 -1.6158 -0.4693
  999MOL0     H34833   6.939   0.525  -0.974  3.6605  2.0395  1.2842
  999MOL0     H34834   6.774   0.553  -0.906  0.1663 -2.7559 -1.6198
  999MOL0     H34835   6.822   0.585  -1.148  2.1487 -1.0879 -0.3671
  999MOL0     H34836   6.918   0.737  -1.099 -0.9968  0.5515 -0.4985
  999MOL0     H34837   6.625   0.701  -1.027 -0.9224  2.5474  0.9836
  999MOL0     H34838   6.727   0.850  -1.039 -1.4162  2.3532 -2.7165
  999MOL0     H34839   6.746   0.801  -1.289 -1.6545  1.6606 -0.3164
  999MOL0     H34840   6.602   0.875  -1.217  1.0238  1.1024 -0.3917
  999MOL0     H34841   6.597   0.681  -1.407  1.0543 -1.2741 -1.3872
  999MOL0     H34842   6.666   0.578  -1.279  3.6962  4.0116  1.7588
  999MOL0     H34843   6.404   0.726  -1.265  1.6039  0.8302 -1.3395
  999MOL0     H34844   6.446   0.606  -1.141  0.3500  1.3192  1.0050
  999MOL0     H34845   6.456   0.453  -1.354  0.1835  0.0119 -1.3823
  999MOL0     H34846   6.350   0.566  -1.437  0.1530 -0.5544  0.1067
  999MOL0     H34847   6.870   0.794  -0.597 -1.0704  1.7012  1.2312
  999MOL0     H34848   6.688   0.780  -0.422 -0.4013 -0.3182  1.0409
  999MOL0     H34849   6.609   0.567   0.033  1.1634  1.3136 -2.7336
  999MOL0     H34850   6.406   0.571   0.187  0.2949 -0.6963  0.0865
  999MOL0     H34851   6.577   1.600   0.255 -0.9088  1.1402 -3.3671
  999MOL0     H34852   6.751   1.723   0.337 -3.1475  0.5876 -0.6560
  999MOL0     H34853   7.191   1.738   0.436 -1.3150  1.8895  0.9791
  999MOL0     H34854   7.380   1.852   0.540  3.1557  1.7970 -0.9183
  999MOL0     H34855   7.347   2.148   0.623 -0.5665  1.3550 -0.6875
  999MOL0     H34856   7.476   2.042   0.667 -0.9684  0.4239  0.1378
  999MOL0     H34857   7.638   2.217   0.636  0.1830  0.6833  0.9165
  999MOL0     H34858   7.537   2.257   0.770 -0.5588  0.2512  0.0241
  999MOL0     H34859   7.449   2.390   0.510 -1.0404 -2.2494 -0.0377
  999MOL0     H34860   7.604   2.420   0.562  0.6352 -1.5980  0.2801
  999MOL0     H34861   7.508   2.452   0.794 -0.2576 -4.5388 -1.0285
  999MOL0     H34862   7.338   2.446   0.718 -1.3596  1.7617 -1.7021
  999MOL0     H34863   7.443   2.839   0.685  2.3212 -0.6497  1.7585
  999MOL0     H34864   7.391   2.135   0.213 -2.7650  0.6258 -0.3800
  999MOL0     H34865   7.214   2.003   0.104 -1.7320 -1.1119 -0.7818
 1000MOL0     O34866   0.569   2.550  10.777  0.2072 -0.1828  1.0947
 1000MOL0     C34867   0.549   2.477  10.870 -0.7392  0.5244 -0.0211
 1000MOL0     O34868   0.580   2.343  10.883 -1.2303  0.1360 -0.2868
 1000MOL0     C34869   0.617   2.269  10.768  0.5035 -0.1508 -0.4631
 1000MOL0     C34870   0.624   2.127  10.787  1.0610 -0.3759 -0.4252
 1000MOL0     C34871   0.659   2.039  10.683  0.1718  0.0965  0.4447
 1000MOL0     C34872   0.690   2.094  10.555  0.3136 -1.1088  0.8727
 1000MOL0     O34873   0.725   2.002  10.453 -0.5378 -0.2952  0.0074
 1000MOL0     C34874   0.703   2.039  10.319  0.8613 -0.2142 -0.7039
 1000MOL0     C34875   0.768   1.924  10.236  0.0988  0.7947 -0.8061
 1000MOL0     C34876   0.919   1.914  10.270 -0.9029 -0.1807 -0.5413
 1000MOL0     C34877   0.981   1.826  10.168  0.5994 -0.0798 -0.7732
 1000MOL0     C34878   1.120   1.789  10.203  0.1969  0.8323  0.3426
 1000MOL0     C34879   1.183   1.690  10.108 -0.5494  0.7584 -0.2222
 1000MOL0     C34880   1.122   1.549  10.136 -0.2140  1.0314 -0.9644
 1000MOL0     C34881   1.177   1.449  10.023  0.3639 -0.5292 -0.3621
 1000MOL0     N34882   1.320   1.436  10.036 -0.4678  0.5231 -0.3164
 1000MOL0     C34883   1.427   1.505   9.975  0.3566  0.0670  1.4931
 1000MOL0     C34884   1.529   1.453  10.034 -0.6392 -0.8989  0.3350
 1000MOL0     C34885   1.670   1.496  10.020  0.1755  0.7156  0.5872
 1000MOL0     C34886   1.729   1.478   9.879 -0.0859  0.1826  0.2354
 1000MOL0     C34887   1.769   1.342   9.839  0.5083 -0.7125  0.0857
 1000MOL0     C34888   1.829   1.351   9.693  0.2863  0.3037 -0.2402
 1000MOL0     O34889   1.893   1.228   9.669  0.0480  0.4048  0.1244
 1000MOL0     C34890   1.946   1.203   9.546  0.9992 -0.2161  0.5912
 1000MOL0     C34891   1.952   1.295   9.451  0.5230  0.2631 -0.2767
 1000MOL0     C34892   1.998   1.266   9.320 -0.6290 -0.2833  0.3365
 1000MOL0     C34893   1.999   1.392   9.217 -1.1578  0.2601 -1.2218
 1000MOL0     C34894   2.043   1.135   9.287 -0.2440 -0.1755 -0.9780
 1000MOL0     C34895   2.096   1.106   9.158 -0.0167 -0.5670  0.2446
 1000MOL0     O34896   2.041   0.986   9.090 -0.5065 -0.6168  0.5615
 1000MOL0     C34897   2.082   0.959   8.965  0.6637 -1.2267  0.7098
 1000MOL0     C34898   2.026   1.007   8.851 -0.1556  0.7499  0.5417
 1000MOL0     C34899   2.070   0.960   8.722 -1.3177 -0.2418 -0.3467
 1000MOL0     C34900   2.176   0.871   8.718  0.1519  0.7811  0.7237
 1000MOL0     O34901   2.218   0.814   8.602  0.4747 -0.4805  0.2917
 1000MOL0     C34902   2.146   0.682   8.589  0.6855  0.3329  0.6455
 1000MOL0     C34903   2.225   0.573   8.499  0.7599 -0.3163 -0.5111
 1000MOL0     C34904   2.272   0.629   8.362  0.0604 -1.1640  0.1335
 1000MOL0     C34905   2.288   0.508   8.266  0.3182 -0.0907  0.1201
 1000MOL0     C34906   2.351   0.545   8.131 -0.8059  0.8083  0.4440
 1000MOL0     C34907   2.386   0.427   8.038  0.6089  0.3193  0.1186
 1000MOL0     C34908   2.270   0.384   7.955 -0.2860  0.2122 -0.3745
 1000MOL0     C34909   2.294   0.305   7.826 -0.3364 -0.6617 -0.3908
 1000MOL0    Cl34910   2.390   0.153   7.849 -0.6733  0.3795  0.1218
 1000MOL0     C34911   2.234   0.829   8.836  0.4998 -0.3895  0.4002
 1000MOL0     C34912   2.188   0.867   8.961  0.8067 -0.0316  0.6603
 1000MOL0     O34913   2.174   1.184   9.112  0.6622 -0.0205 -0.2367
 1000MOL0     C34914   2.021   1.038   9.384 -0.2142 -0.5263 -0.3884
 1000MOL0     C34915   1.973   1.070   9.511 -0.7872 -0.2505 -0.3575
 1000MOL0     N34916   1.496   1.364  10.138 -0.6629 -0.0975  0.4902
 1000MOL0     N34917   1.373   1.355  10.138  0.2068 -0.7855 -0.2153
 1000MOL0     C34918   0.677   2.231  10.532  1.0349  0.6056 -0.6810
 1000MOL0     C34919   0.638   2.311  10.636  0.3843  0.0001 -0.9512
 1000MOL0     C34920   0.478   2.544  10.986 -0.9046 -0.3233 -0.0675
 1000MOL0     C34921   0.453   2.679  10.973  0.5302  0.2479 -0.7025
 1000MOL0     C34922   0.406   2.754  11.081  0.0572 -0.7892  1.1486
 1000MOL0     C34923   0.397   2.698  11.211  0.1974  0.1702  0.2554
 1000MOL0     O34924   0.350   2.774  11.316 -0.5247 -0.0150  1.1647
 1000MOL0     C34925   0.327   2.714  11.445 -0.2797  0.5893  1.3571
 1000MOL0     C34926   0.196   2.637  11.434  0.2746  0.6742  0.1139
 1000MOL0     C34927   0.108   2.641  11.563 -0.8069  0.3527  0.6122
 1000MOL0     C34928   0.125   2.522  11.647 -0.4654  0.6171  0.0893
 1000MOL0     C34929   0.259   2.528  11.709 -0.6925 -0.4016 -0.5146
 1000MOL0     C34930   0.365   2.503  11.755 -1.1713  0.4290  0.2012
 1000MOL0     C34931   0.424   2.557  11.224  0.0028  0.4523  0.0394
 1000MOL0     C34932   0.466   2.482  11.114  0.3226 -0.0763 -0.5845
 1000MOL0     H34933   0.602   2.086  10.885 -0.4319  0.0891 -0.5415
 1000MOL0     H34934   0.660   1.935  10.713 -1.2852  0.7613  3.1186
 1000MOL0     H34935   0.596   2.041  10.297  0.3246 -0.1039  1.7012
 1000MOL0     H34936   0.751   2.134  10.295  0.0543  0.1699 -0.8413
 1000MOL0     H34937   0.717   1.832  10.264 -0.9410  1.7637  0.6272
 1000MOL0     H34938   0.743   1.932  10.129  1.4565 -1.0359 -1.3096
 1000MOL0     H34939   0.962   2.014  10.284 -1.8648  0.2866 -0.8716
 1000MOL0     H34940   0.916   1.859  10.364 -1.0016 -0.1413 -0.5214
 1000MOL0     H34941   0.919   1.739  10.146 -3.9585  2.3911  0.8152
 1000MOL0     H34942   0.987   1.877  10.071 -0.7242 -0.7946 -1.2529
 1000MOL0     H34943   1.174   1.885  10.205 -0.5242  1.2442  2.5943
 1000MOL0     H34944   1.130   1.744  10.302 -1.0582 -3.1060 -1.1435
 1000MOL0     H34945   1.173   1.713  10.001 -1.1082  1.2619 -0.0671
 1000MOL0     H34946   1.288   1.686  10.140 -0.9215  0.8750  1.0730
 1000MOL0     H34947   1.172   1.525  10.230 -2.0267  0.8595  0.0050
 1000MOL0     H34948   1.015   1.537  10.152 -0.3016 -2.7413 -3.1384
 1000MOL0     H34949   1.153   1.480   9.920 -1.8438 -3.9461 -1.0213
 1000MOL0     H34950   1.138   1.347  10.032  1.0587 -0.6000  4.9042
 1000MOL0     H34951   1.421   1.567   9.886 -0.4222 -1.2350  0.6033
 1000MOL0     H34952   1.676   1.601  10.049  0.4989  0.4239  1.6135
 1000MOL0     H34953   1.716   1.437  10.100 -6.5761 -3.5487  2.0910
 1000MOL0     H34954   1.820   1.540   9.881  1.0111 -1.3523 -0.2171
 1000MOL0     H34955   1.663   1.534   9.811  1.9262  1.4776 -0.7680
 1000MOL0     H34956   1.691   1.266   9.836  1.4640 -1.7664  1.0225
 1000MOL0     H34957   1.824   1.291   9.918 -1.2172  0.7904  2.4086
 1000MOL0     H34958   1.895   1.438   9.689  1.5542 -0.5608  1.0160
 1000MOL0     H34959   1.757   1.365   9.612  1.8805 -1.5976 -2.0794
 1000MOL0     H34960   1.940   1.401   9.473 -3.9037  0.5047 -2.7056
 1000MOL0     H34961   1.920   1.372   9.145 -0.8940  0.4093 -1.5541
 1000MOL0     H34962   1.972   1.482   9.273 -3.0827 -2.4740  2.7252
 1000MOL0     H34963   2.098   1.404   9.172 -0.8339  1.4289 -0.2492
 1000MOL0     H34964   1.947   1.081   8.847 -2.5626 -1.6524 -2.8057
 1000MOL0     H34965   2.012   1.000   8.639 -2.8081  2.0212  1.6371
 1000MOL0     H34966   2.120   0.641   8.687 -0.4862 -0.3993  0.0444
 1000MOL0     H34967   2.060   0.702   8.525 -0.7903 -1.7522  1.8765
 1000MOL0     H34968   2.316   0.552   8.557  1.6752 -0.0284 -1.7895
 1000MOL0     H34969   2.164   0.485   8.479  1.2174 -0.2686 -2.2528
 1000MOL0     H34970   2.355   0.699   8.377 -0.7959 -0.2407  0.6725
 1000MOL0     H34971   2.186   0.684   8.321  2.4800  2.6513 -0.3717
 1000MOL0     H34972   2.355   0.433   8.307  0.3681 -0.6469 -0.9423
 1000MOL0     H34973   2.197   0.452   8.240 -0.6136  2.4943 -2.8894
 1000MOL0     H34974   2.442   0.601   8.157 -0.7896  2.1551 -2.1963
 1000MOL0     H34975   2.292   0.623   8.083  1.7956  1.8281 -1.2910
 1000MOL0     H34976   2.465   0.466   7.973  1.5408  1.5375  1.8695
 1000MOL0     H34977   2.425   0.338   8.089  1.7899  0.0771 -1.1601
 1000MOL0     H34978   2.217   0.471   7.913 -0.4830  0.3149  0.0875
 1000MOL0     H34979   2.201   0.314   8.003  0.9260 -1.5888 -1.1705
 1000MOL0     H34980   2.350   0.363   7.752  0.3324 -1.5805 -0.6218
 1000MOL0     H34981   2.201   0.272   7.778  1.5950 -1.6353 -3.7725
 1000MOL0     H34982   2.321   0.763   8.829  1.0966  0.3260  0.9020
 1000MOL0     H34983   2.220   0.829   9.058 -4.2426 -2.1450  1.8428
 1000MOL0     H34984   2.060   0.939   9.366  1.1503  0.0129 -0.4525
 1000MOL0     H34985   1.948   0.990   9.580 -2.6461 -1.3823 -2.2115
 1000MOL0     H34986   0.683   2.272  10.431 -3.1720  3.3346 -0.0662
 1000MOL0     H34987   0.632   2.416  10.610  0.1463 -0.1049 -1.3283
 1000MOL0     H34988   0.456   2.721  10.873  4.7879 -1.7005 -1.6182
 1000MOL0     H34989   0.372   2.853  11.053  0.2554 -1.0217  0.0355
 1000MOL0     H34990   0.399   2.637  11.476 -0.6742 -0.6004 -0.5047
 1000MOL0     H34991   0.336   2.789  11.523  0.2526  1.0352  0.8765
 1000MOL0     H34992   0.209   2.530  11.413  3.2213  0.9732  0.0489
 1000MOL0     H34993   0.134   2.683  11.357  0.9867  0.9571 -0.3046
 1000MOL0     H34994   0.010   2.653  11.517 -0.7892  2.0669  0.9738
 1000MOL0     H34995   0.127   2.731  11.622 -1.1308 -0.2365  1.6424
 1000MOL0     H34996   0.130   2.425  11.596  3.4269  0.3848  0.6457
 1000MOL0     H34997   0.049   2.526  11.727 -0.4365  0.6406  0.1151
 1000MOL0     H34998   0.467   2.484  11.784 -1.8045 -1.5401  1.3288
 1000MOL0     H34999   0.420   2.505  11.319 -0.2046  0.9057  0.2873
 1000MOL0     H35000   0.499   2.379  11.126 -0.1957 -0.1684  0.1102
 1001MOL0     O35001   1.974   4.387   5.253 -0.5076 -0.0537 -0.5755
 1001MOL0     C35002   1.985   4.320   5.150 -0.2779 -0.0379  0.0284
 1001MOL0     O35003   2.084   4.245   5.114 -0.4954  0.1320  0.0704
 1001MOL0     C35004   2.198   4.244   5.185  0.5687  0.2450  0.0051
 1001MOL0     C35005   2.309   4.255   5.110  0.7907 -0.1614 -0.1377
 1001MOL0     C35006   2.433   4.225   5.164 -0.7505  0.7491 -0.1784
 1001MOL0     C35007   2.441   4.193   5.307 -0.7880  0.9029 -0.3783
 1001MOL0     O35008   2.561   4.170   5.371  0.5967  0.2382 -0.0217
 1001MOL0     C35009   2.680   4.207   5.308 -0.6112 -0.4527 -0.1602
 1001MOL0     C35010   2.803   4.197   5.407 -0.1438 -0.1583 -0.8241
 1001MOL0     C35011   2.789   4.286   5.525 -0.2217 -0.3152  0.1489
 1001MOL0     C35012   2.933   4.321   5.580 -0.5341 -0.7088 -0.4990
 1001MOL0     C35013   2.936   4.388   5.724 -0.2707 -0.5088 -0.2976
 1001MOL0     C35014   3.082   4.427   5.745  0.1405 -0.4506  0.4292
 1001MOL0     C35015   3.176   4.305   5.781 -0.5086 -0.2790 -0.2247
 1001MOL0     C35016   3.182   4.280   5.931  0.7109  0.1239  1.5746
 1001MOL0     N35017   3.231   4.406   6.001 -0.4181  0.5614 -0.5821
 1001MOL0     C35018   3.333   4.492   5.970  0.4118 -0.0969  0.3659
 1001MOL0     C35019   3.323   4.587   6.062  0.7475  0.6601  0.0259
 1001MOL0     C35020   3.413   4.702   6.066  0.1752  0.2621  0.4547
 1001MOL0     C35021   3.389   4.827   6.158  0.3217 -0.4027  0.5363
 1001MOL0     C35022   3.290   4.932   6.097  0.4523  0.4055 -0.5540
 1001MOL0     C35023   3.153   4.879   6.048  0.8337  0.0942  0.4132
 1001MOL0     O35024   3.166   4.825   5.917 -0.0313 -0.5626 -0.1651
 1001MOL0     C35025   3.052   4.812   5.848  0.8439  0.0823  0.2408
 1001MOL0     C35026   2.928   4.752   5.892 -0.2529 -0.9894 -0.6001
 1001MOL0     C35027   2.810   4.734   5.816 -0.8240 -0.5464 -0.1051
 1001MOL0     C35028   2.683   4.672   5.882 -0.0081  0.5243 -0.8528
 1001MOL0     C35029   2.810   4.783   5.684  0.4713  0.1832  0.3133
 1001MOL0     C35030   2.695   4.750   5.602 -0.6345 -0.7124  0.9698
 1001MOL0     O35031   2.721   4.694   5.474 -0.3044 -0.3319 -0.8192
 1001MOL0     C35032   2.612   4.694   5.389 -0.3279  0.5976 -0.0154
 1001MOL0     C35033   2.512   4.587   5.400 -0.4117 -0.3714  0.8251
 1001MOL0     C35034   2.393   4.595   5.328  0.1773 -0.1961 -1.1353
 1001MOL0     C35035   2.378   4.699   5.228 -0.2138  0.0044  0.1090
 1001MOL0     O35036   2.257   4.694   5.150  0.2863  0.4232 -1.0661
 1001MOL0     C35037   2.255   4.770   5.024  0.3234  0.2693  0.1285
 1001MOL0     C35038   2.121   4.738   4.967 -0.2242  1.1045 -0.9850
 1001MOL0     C35039   2.093   4.816   4.845 -0.4366 -0.7613  0.6317
 1001MOL0     C35040   1.950   4.785   4.787 -1.1564  0.3026  0.3749
 1001MOL0     C35041   1.836   4.862   4.850 -0.7213 -0.2884  0.5055
 1001MOL0     C35042   1.710   4.849   4.758 -0.7322 -0.1742 -0.4059
 1001MOL0     C35043   1.645   4.979   4.747  0.1130 -0.5685  0.5478
 1001MOL0     C35044   1.513   4.980   4.678 -0.1958 -0.2680  1.0321
 1001MOL0    Cl35045   1.549   4.954   4.500  0.1522 -0.0837 -0.0039
 1001MOL0     C35046   2.485   4.786   5.205 -0.4019  0.1437 -0.6084
 1001MOL0     C35047   2.600   4.787   5.290 -0.0119  0.1398  0.8667
 1001MOL0     O35048   2.579   4.779   5.635  0.1276 -0.0828 -0.2115
 1001MOL0     C35049   2.924   4.849   5.637  0.4710  0.7421 -0.2822
 1001MOL0     C35050   3.040   4.858   5.711  0.4446  0.4267 -0.2424
 1001MOL0     N35051   3.237   4.551   6.166 -0.4295  0.6340 -0.3598
 1001MOL0     N35052   3.170   4.445   6.115  0.0565  0.5338  0.1292
 1001MOL0     C35053   2.328   4.200   5.385  0.5468  0.3352 -0.1021
 1001MOL0     C35054   2.205   4.223   5.325 -1.0481 -0.6546 -0.2725
 1001MOL0     C35055   1.872   4.320   5.052 -0.0815 -0.0766 -1.0623
 1001MOL0     C35056   1.885   4.260   4.919  0.1872  0.1483 -0.1957
 1001MOL0     C35057   1.786   4.283   4.827  0.0564 -0.2924 -0.3927
 1001MOL0     C35058   1.669   4.358   4.850 -0.3918  0.0589 -0.2678
 1001MOL0     O35059   1.581   4.380   4.745  0.2882 -0.2202  0.5676
 1001MOL0     C35060   1.559   4.517   4.712  0.1420  0.9229 -0.4261
 1001MOL0     C35061   1.413   4.534   4.656 -0.2900  0.0670  0.5081
 1001MOL0     C35062   1.297   4.494   4.749 -0.1837 -0.2142 -0.2027
 1001MOL0     C35063   1.291   4.349   4.794 -0.2479 -0.3092 -0.3614
 1001MOL0     C35064   1.162   4.321   4.854 -0.0359 -0.3842  0.5360
 1001MOL0     C35065   1.064   4.263   4.897 -0.7539 -0.1419 -0.3044
 1001MOL0     C35066   1.653   4.406   4.980 -0.6831 -0.1237 -0.2393
 1001MOL0     C35067   1.750   4.386   5.075  0.2203 -0.6220  0.2492
 1001MOL0     H35068   2.300   4.275   5.003  2.4985  1.8208  0.0221
 1001MOL0     H35069   2.518   4.210   5.098 -1.8094  3.4997 -2.3708
 1001MOL0     H35070   2.693   4.127   5.234 -1.2705 -0.7940  0.0860
 1001MOL0     H35071   2.676   4.311   5.275 -1.2620  0.4405  2.4659
 1001MOL0     H35072   2.823   4.093   5.437 -0.2471 -0.4497 -1.7413
 1001MOL0     H35073   2.875   4.250   5.345  0.5799 -1.2574 -0.9522
 1001MOL0     H35074   2.721   4.368   5.501 -3.5514 -2.0706  2.7323
 1001MOL0     H35075   2.744   4.229   5.607  1.8561  0.3073  1.8176
 1001MOL0     H35076   2.984   4.227   5.601  0.6839  0.6732  3.8566
 1001MOL0     H35077   2.992   4.373   5.504  1.9307 -1.9053  0.4908
 1001MOL0     H35078   2.863   4.469   5.715  0.8249  0.5713  0.2179
 1001MOL0     H35079   2.894   4.304   5.780 -1.0154 -0.1573 -0.3188
 1001MOL0     H35080   3.118   4.484   5.658 -0.5575 -4.4843 -2.8526
 1001MOL0     H35081   3.084   4.507   5.818 -2.0446  0.6936 -0.6745
 1001MOL0     H35082   3.137   4.216   5.731 -3.8276  0.5713  0.5894
 1001MOL0     H35083   3.279   4.322   5.750  0.2178 -3.2488  0.2240
 1001MOL0     H35084   3.241   4.190   5.953  0.3070 -1.4271 -2.6803
 1001MOL0     H35085   3.080   4.258   5.964 -0.2450 -0.4134 -1.4636
 1001MOL0     H35086   3.394   4.500   5.881 -3.0610  3.7679 -2.0124
 1001MOL0     H35087   3.507   4.668   6.111  0.0612 -3.1121 -1.5708
 1001MOL0     H35088   3.451   4.732   5.968  0.3744  0.1570  0.4983
 1001MOL0     H35089   3.480   4.887   6.160 -2.3841  4.1591  2.2068
 1001MOL0     H35090   3.364   4.801   6.261  0.9231 -1.9381  0.3327
 1001MOL0     H35091   3.319   4.992   6.011 -1.1046  1.7618 -0.1865
 1001MOL0     H35092   3.273   5.001   6.180  0.7038  2.8048 -2.4172
 1001MOL0     H35093   3.090   4.968   6.060  3.4333  2.2584 -0.8580
 1001MOL0     H35094   3.102   4.799   6.103 -0.1357 -2.0108 -3.1621
 1001MOL0     H35095   2.943   4.719   5.994 -0.4148  2.8277  0.8309
 1001MOL0     H35096   2.640   4.592   5.820 -1.9070  0.7340  0.1250
 1001MOL0     H35097   2.707   4.620   5.975 -0.7187  0.6823 -0.5758
 1001MOL0     H35098   2.617   4.755   5.908  2.6187  1.5539  3.3659
 1001MOL0     H35099   2.509   4.524   5.487 -0.2200 -0.1252  1.0117
 1001MOL0     H35100   2.303   4.536   5.341  0.3182 -0.1663  0.0424
 1001MOL0     H35101   2.263   4.876   5.051  3.8025  0.0451  0.4572
 1001MOL0     H35102   2.339   4.736   4.963  1.5349 -0.9465  2.3473
 1001MOL0     H35103   2.121   4.633   4.938  0.4171  0.6409  0.6115
 1001MOL0     H35104   2.049   4.762   5.046 -0.8932 -2.7183 -0.2409
 1001MOL0     H35105   2.172   4.795   4.772 -4.0745  0.1064 -4.0920
 1001MOL0     H35106   2.096   4.924   4.858 -1.2598 -0.5106 -0.9499
 1001MOL0     H35107   1.963   4.811   4.681 -0.2059 -0.7599  0.2131
 1001MOL0     H35108   1.924   4.679   4.798 -0.6604  0.2478  1.0495
 1001MOL0     H35109   1.847   4.968   4.876 -1.1671 -0.9203  3.5900
 1001MOL0     H35110   1.822   4.804   4.941  0.0530 -1.2310  0.0495
 1001MOL0     H35111   1.744   4.827   4.656  0.3359 -0.1018 -0.0868
 1001MOL0     H35112   1.647   4.774   4.806  2.0898 -0.9320  2.5571
 1001MOL0     H35113   1.710   5.045   4.688  0.4154 -2.3897 -1.2799
 1001MOL0     H35114   1.626   5.013   4.849 -0.8326 -0.8992  0.4934
 1001MOL0     H35115   1.459   5.074   4.686  1.4408  0.6754  1.4855
 1001MOL0     H35116   1.446   4.901   4.714  4.0206 -3.8588  1.8977
 1001MOL0     H35117   2.483   4.867   5.132  1.9908  2.0140  1.2103
 1001MOL0     H35118   2.670   4.870   5.288  0.4868 -0.2758  0.5647
 1001MOL0     H35119   2.902   4.874   5.533 -0.7572 -0.7055 -0.3999
 1001MOL0     H35120   3.120   4.903   5.654  0.8250  0.9731  0.7118
 1001MOL0     H35121   2.330   4.193   5.493 -2.2150 -4.3356 -0.0914
 1001MOL0     H35122   2.114   4.229   5.385 -0.5014  2.1480  0.4166
 1001MOL0     H35123   1.958   4.186   4.890 -1.6739 -2.7334  1.8790
 1001MOL0     H35124   1.800   4.237   4.729  0.8379  1.5843 -1.2019
 1001MOL0     H35125   1.577   4.593   4.788 -0.1026  1.6536 -1.0768
 1001MOL0     H35126   1.611   4.550   4.621 -3.0116  1.1189 -2.3211
 1001MOL0     H35127   1.406   4.477   4.563  2.3082  2.3585 -1.2303
 1001MOL0     H35128   1.394   4.637   4.625 -4.9405  0.1339  2.6623
 1001MOL0     H35129   1.203   4.521   4.700  0.4753 -1.2180 -2.1337
 1001MOL0     H35130   1.311   4.563   4.832 -0.9949  1.7645 -1.6348
 1001MOL0     H35131   1.370   4.318   4.863 -0.4525  0.7517  0.3645
 1001MOL0     H35132   1.302   4.298   4.697  1.0186 -1.9045  0.5598
 1001MOL0     H35133   0.974   4.217   4.935 -1.0640  0.3956 -0.3830
 1001MOL0     H35134   1.560   4.456   5.005 -1.7776 -3.0581  2.2052
 1001MOL0     H35135   1.742   4.429   5.175 -3.5196  1.7378 -0.8552
 1002MOL0     O35136   1.441   1.395   4.303 -0.4792 -0.2984 -0.5008
 1002MOL0     C35137   1.445   1.509   4.356 -0.4568 -0.8079 -1.0523
 1002MOL0     O35138   1.445   1.628   4.285 -0.2665  0.2072 -0.1964
 1002MOL0     C35139   1.463   1.627   4.146  0.3577  0.4382  0.0713
 1002MOL0     C35140   1.563   1.551   4.084 -0.8923  0.0227  0.5185
 1002MOL0     C35141   1.587   1.559   3.950 -0.4518  0.2614 -0.2266
 1002MOL0     C35142   1.529   1.663   3.876  0.8856  0.3943  0.9342
 1002MOL0     O35143   1.547   1.662   3.737  0.6343  0.4174 -0.4201
 1002MOL0     C35144   1.498   1.773   3.662 -0.5426  0.1210 -0.1737
 1002MOL0     C35145   1.578   1.787   3.538  0.0973  1.2635  1.1149
 1002MOL0     C35146   1.532   1.670   3.445  0.4007  0.0749  0.7520
 1002MOL0     C35147   1.605   1.681   3.308 -0.4628  0.1749  1.2450
 1002MOL0     C35148   1.738   1.613   3.298 -0.0342  1.0880  0.0398
 1002MOL0     C35149   1.815   1.635   3.165 -0.5478 -0.3250  0.3602
 1002MOL0     C35150   1.872   1.513   3.100  0.2312 -0.5154 -0.4153
 1002MOL0     C35151   1.971   1.433   3.193 -0.1211 -0.5944  0.1424
 1002MOL0     N35152   2.000   1.298   3.152  0.0819 -0.3167 -0.5307
 1002MOL0     C35153   2.032   1.190   3.239 -1.1122 -0.5579  0.1142
 1002MOL0     C35154   2.063   1.082   3.153 -0.5003  0.0441 -0.0834
 1002MOL0     C35155   2.092   0.936   3.191  0.3239 -0.4960  0.6322
 1002MOL0     C35156   2.241   0.897   3.176 -0.0157 -0.3502  0.0066
 1002MOL0     C35157   2.287   0.776   3.265  0.9281  0.0470 -0.6017
 1002MOL0     C35158   2.441   0.743   3.238  0.5168  0.1352 -0.1595
 1002MOL0     O35159   2.459   0.704   3.109  0.0944  0.0051  0.8178
 1002MOL0     C35160   2.573   0.743   3.036 -0.4595  0.3608  0.2359
 1002MOL0     C35161   2.700   0.705   3.079  0.9050 -0.8426  0.6833
 1002MOL0     C35162   2.813   0.739   3.009  0.1163  0.8559  0.6827
 1002MOL0     C35163   2.946   0.721   3.075  0.4707 -0.2900  0.0393
 1002MOL0     C35164   2.803   0.804   2.886 -0.5850  0.1122  0.2811
 1002MOL0     C35165   2.924   0.848   2.802  0.0293 -0.3644 -0.9435
 1002MOL0     O35166   2.890   0.895   2.686 -0.0972  0.3116  0.5031
 1002MOL0     C35167   2.972   0.987   2.633  0.5430 -0.0289  0.4149
 1002MOL0     C35168   2.925   1.113   2.592  0.3366  0.6996 -1.0041
 1002MOL0     C35169   3.012   1.208   2.539 -0.5167 -0.0567  0.3880
 1002MOL0     C35170   3.149   1.186   2.522 -0.5159  1.1439 -0.6152
 1002MOL0     O35171   3.232   1.281   2.471  0.0841 -0.1323  0.4989
 1002MOL0     C35172   3.235   1.294   2.328  0.1380  0.3305  0.2682
 1002MOL0     C35173   3.347   1.355   2.264 -0.3274  0.4693 -0.6353
 1002MOL0     C35174   3.488   1.319   2.307  0.0359 -0.0885 -0.4721
 1002MOL0     C35175   3.594   1.387   2.220  0.1607  0.0874  0.1225
 1002MOL0     C35176   3.738   1.392   2.273 -0.9100  0.4946  0.0016
 1002MOL0     C35177   3.827   1.467   2.172  0.1723 -0.7028 -0.2413
 1002MOL0     C35178   3.982   1.486   2.209  0.4265  0.5090  0.2529
 1002MOL0     C35179   4.052   1.587   2.120 -0.8000 -0.3802  1.1815
 1002MOL0    Cl35180   4.070   1.526   1.946  0.3053 -0.0470 -0.0267
 1002MOL0     C35181   3.191   1.057   2.543  0.7861 -0.5839  0.2847
 1002MOL0     C35182   3.109   0.961   2.595  0.6068  0.8609  0.5980
 1002MOL0     O35183   3.036   0.832   2.842 -0.3525  0.6575 -0.1894
 1002MOL0     C35184   2.671   0.848   2.841  1.1749  0.5361  0.7885
 1002MOL0     C35185   2.565   0.819   2.927  0.8700  0.1656  0.6018
 1002MOL0     N35186   2.033   1.123   3.021 -0.3432 -0.4698  0.9157
 1002MOL0     N35187   1.991   1.253   3.024  0.3575  0.8600  0.0921
 1002MOL0     C35188   1.424   1.734   3.935  0.1443 -0.7512 -0.5343
 1002MOL0     C35189   1.388   1.715   4.071 -0.0457 -0.2846 -0.8173
 1002MOL0     C35190   1.443   1.518   4.502  0.8511  1.1773  0.5329
 1002MOL0     C35191   1.429   1.405   4.586 -0.2183 -0.3508  0.1627
 1002MOL0     C35192   1.424   1.428   4.724  0.4298  0.9433  0.4325
 1002MOL0     C35193   1.423   1.548   4.788 -0.0897 -0.3989 -0.1712
 1002MOL0     O35194   1.412   1.572   4.924  0.7484  0.2032  0.2432
 1002MOL0     C35195   1.391   1.454   5.003 -0.6425  0.1865  0.4982
 1002MOL0     C35196   1.359   1.510   5.146  1.1612  0.4750  0.6392
 1002MOL0     C35197   1.495   1.548   5.212 -0.3636  0.2625  0.1391
 1002MOL0     C35198   1.505   1.616   5.344  0.4522 -0.7346  0.4970
 1002MOL0     C35199   1.641   1.614   5.404  0.2449  0.1925  0.6035
 1002MOL0     C35200   1.750   1.598   5.458 -0.3453 -1.9502 -0.2639
 1002MOL0     C35201   1.427   1.656   4.704  0.6594 -0.0052  0.9921
 1002MOL0     C35202   1.446   1.642   4.566 -0.3573  0.2796 -0.4061
 1002MOL0     H35203   1.619   1.481   4.145 -1.5619 -3.1642 -2.2159
 1002MOL0     H35204   1.653   1.483   3.911  3.0813  2.3265  1.2720
 1002MOL0     H35205   1.398   1.739   3.636 -0.7237 -2.6532  3.3417
 1002MOL0     H35206   1.492   1.864   3.722 -1.1199 -1.8601  3.0194
 1002MOL0     H35207   1.549   1.880   3.488  0.3835  0.2198 -1.1376
 1002MOL0     H35208   1.684   1.784   3.563 -0.3621 -0.2098  3.1347
 1002MOL0     H35209   1.553   1.575   3.494 -0.4777  0.0726  1.1458
 1002MOL0     H35210   1.425   1.680   3.423  1.0724  3.5019 -1.7614
 1002MOL0     H35211   1.553   1.629   3.227 -3.6628  1.1568  2.5383
 1002MOL0     H35212   1.610   1.787   3.279 -0.8356  0.3550  1.8350
 1002MOL0     H35213   1.799   1.643   3.384  0.1694  0.4350  0.1284
 1002MOL0     H35214   1.724   1.505   3.313  2.2554  0.8067  0.6495
 1002MOL0     H35215   1.741   1.681   3.099  0.3382  1.4871  0.5696
 1002MOL0     H35216   1.888   1.713   3.185 -0.5845 -0.7942  2.6298
 1002MOL0     H35217   1.795   1.442   3.068 -2.3924  0.8562  2.2880
 1002MOL0     H35218   1.937   1.548   3.019  2.6144 -1.4117  1.0095
 1002MOL0     H35219   1.934   1.423   3.295 -0.3823 -2.2132 -0.0904
 1002MOL0     H35220   2.065   1.490   3.193  0.3477 -1.3043 -1.6060
 1002MOL0     H35221   2.045   1.196   3.346  3.4498  0.9973 -0.3376
 1002MOL0     H35222   2.061   0.922   3.295  1.7498 -3.0729  0.8071
 1002MOL0     H35223   2.024   0.875   3.131  2.4732  1.3724 -4.2229
 1002MOL0     H35224   2.297   0.986   3.203 -1.8472  1.5146 -1.9829
 1002MOL0     H35225   2.252   0.882   3.068 -3.4036  2.5960 -0.9216
 1002MOL0     H35226   2.224   0.693   3.231 -1.2116  1.3802 -0.0841
 1002MOL0     H35227   2.276   0.799   3.371  2.9245 -0.8190 -0.1697
 1002MOL0     H35228   2.474   0.665   3.307  0.2776 -0.5638 -0.8196
 1002MOL0     H35229   2.493   0.836   3.261 -1.4119  1.3201 -0.2973
 1002MOL0     H35230   2.720   0.642   3.165  2.1505 -0.7838  0.4515
 1002MOL0     H35231   2.943   0.660   3.166 -0.6451  1.0282  0.9279
 1002MOL0     H35232   3.026   0.669   3.022 -0.6078  0.3038 -2.2712
 1002MOL0     H35233   2.964   0.827   3.094 -4.5579  0.8613 -0.1724
 1002MOL0     H35234   2.819   1.129   2.607  0.2675  0.2457 -1.0149
 1002MOL0     H35235   2.969   1.304   2.509 -1.5076 -1.0817 -1.7017
 1002MOL0     H35236   3.217   1.203   2.270 -0.9137  2.3050 -2.7087
 1002MOL0     H35237   3.148   1.354   2.302 -0.0745 -0.4772 -0.9879
 1002MOL0     H35238   3.336   1.351   2.155  1.8010  3.0997 -1.0344
 1002MOL0     H35239   3.337   1.461   2.289  2.7295  1.0065 -1.3300
 1002MOL0     H35240   3.497   1.211   2.299 -1.1629 -0.1665 -1.1116
 1002MOL0     H35241   3.498   1.355   2.410  0.4443  1.2047 -0.9402
 1002MOL0     H35242   3.607   1.339   2.122  1.5101  1.4882 -0.4171
 1002MOL0     H35243   3.550   1.486   2.200  1.5175  0.2326 -2.7196
 1002MOL0     H35244   3.777   1.290   2.282 -0.6780  0.6637  1.0764
 1002MOL0     H35245   3.737   1.439   2.372 -1.1465 -0.2986  0.3796
 1002MOL0     H35246   3.819   1.411   2.079  2.2129  0.5218 -1.2303
 1002MOL0     H35247   3.782   1.565   2.150 -0.7082 -0.6963  1.3888
 1002MOL0     H35248   4.043   1.396   2.193  0.1008  0.2912  0.2037
 1002MOL0     H35249   3.988   1.534   2.307 -0.3646  0.4923  0.3142
 1002MOL0     H35250   4.147   1.609   2.170  0.6654 -1.0545 -1.1183
 1002MOL0     H35251   3.999   1.682   2.123  1.5210  1.0661 -0.4109
 1002MOL0     H35252   3.296   1.040   2.521  1.6089  1.7018  1.9436
 1002MOL0     H35253   3.150   0.862   2.608  1.8288  1.0296 -1.6169
 1002MOL0     H35254   2.659   0.913   2.754 -1.9491 -3.8268 -2.5257
 1002MOL0     H35255   2.467   0.854   2.895  1.5379  0.2628 -1.4432
 1002MOL0     H35256   1.356   1.789   3.871  0.1997  0.0847  0.1120
 1002MOL0     H35257   1.315   1.776   4.122  1.1803 -0.9056  1.8373
 1002MOL0     H35258   1.404   1.314   4.533 -1.0026  0.1855 -0.4050
 1002MOL0     H35259   1.437   1.337   4.781  2.3696  0.5716 -0.5040
 1002MOL0     H35260   1.297   1.409   4.968 -2.0886  1.6560  2.2662
 1002MOL0     H35261   1.475   1.386   5.015 -1.5590 -1.8751 -3.2911
 1002MOL0     H35262   1.311   1.430   5.203  1.3009  0.3624  0.5998
 1002MOL0     H35263   1.285   1.591   5.147  0.8966  0.2417  0.4445
 1002MOL0     H35264   1.555   1.611   5.146 -1.4698  0.7705 -0.4089
 1002MOL0     H35265   1.560   1.461   5.224  2.0466  1.6513 -1.8901
 1002MOL0     H35266   1.437   1.567   5.413 -1.2084  1.0561  0.2184
 1002MOL0     H35267   1.468   1.718   5.327 -0.3694 -0.7982  1.8310
 1002MOL0     H35268   1.837   1.561   5.508 -0.6182  1.1466  2.9319
 1002MOL0     H35269   1.424   1.755   4.748  0.9712  1.6915 -2.4583
 1002MOL0     H35270   1.473   1.730   4.508  1.6963 -0.7143 -1.0704
 1003MOL0     O35271   7.632  10.811   3.233 -0.2635  0.0534  0.1288
 1003MOL0     C35272   7.671  10.913   3.289 -0.3048  0.7622  0.3822
 1003MOL0     O35273   7.608  11.035   3.274  0.0031  0.9125 -1.0718
 1003MOL0     C35274   7.490  11.034   3.199 -1.1906 -0.5385  0.5841
 1003MOL0     C35275   7.366  10.971   3.217  0.2239 -0.7167  0.0455
 1003MOL0     C35276   7.259  10.991   3.123 -0.5116 -0.0602 -0.7478
 1003MOL0     C35277   7.278  11.071   3.014  0.1249  0.2764  0.1936
 1003MOL0     O35278   7.173  11.087   2.931 -0.8866 -0.5587  0.3256
 1003MOL0     C35279   7.137  11.210   2.868 -1.5185  0.1793  0.4676
 1003MOL0     C35280   6.992  11.216   2.810  0.4573 -0.1933 -0.3748
 1003MOL0     C35281   6.975  11.335   2.711  0.4528 -0.1612 -0.0089
 1003MOL0     C35282   6.841  11.322   2.634 -0.3307  0.5437 -1.0521
 1003MOL0     C35283   6.865  11.249   2.509  0.9129 -0.3986 -0.8922
 1003MOL0     C35284   6.734  11.222   2.438 -0.9918  0.1488 -0.1649
 1003MOL0     C35285   6.749  11.119   2.321 -0.8559 -0.0948 -0.7311
 1003MOL0     C35286   6.615  11.081   2.245  0.2157 -0.2769  0.5739
 1003MOL0     N35287   6.618  11.080   2.097 -1.0074 -0.2068  0.0007
 1003MOL0     C35288   6.650  11.192   2.028  0.2499 -0.2217  0.0642
 1003MOL0     C35289   6.645  11.148   1.902 -0.4111 -0.4692 -0.0592
 1003MOL0     C35290   6.675  11.226   1.778  0.2726  0.6826  0.2701
 1003MOL0     C35291   6.559  11.305   1.729  0.9866 -0.1799  0.1311
 1003MOL0     C35292   6.501  11.418   1.819 -0.4136  0.0459  0.0030
 1003MOL0     C35293   6.399  11.498   1.747  0.6923  0.3114 -0.6425
 1003MOL0     O35294   6.325  11.607   1.809 -0.5761 -0.4425 -0.7927
 1003MOL0     C35295   6.293  11.596   1.941 -0.9760  0.0737 -0.6979
 1003MOL0     C35296   6.155  11.597   1.980 -1.1030 -0.4612  0.1108
 1003MOL0     C35297   6.112  11.587   2.112  0.0707  0.7286  0.1352
 1003MOL0     C35298   5.967  11.571   2.148 -0.4379 -0.0668 -0.6123
 1003MOL0     C35299   6.208  11.599   2.210  0.2246  0.3381  0.0725
 1003MOL0     C35300   6.187  11.598   2.362 -0.2698 -1.0408 -1.0578
 1003MOL0     O35301   6.277  11.690   2.428 -0.0535  0.1434  0.2467
 1003MOL0     C35302   6.292  11.695   2.563 -0.5544  0.2839 -0.2798
 1003MOL0     C35303   6.246  11.601   2.655 -0.8169 -1.0474 -0.0969
 1003MOL0     C35304   6.265  11.627   2.789 -0.1436  0.1526 -0.4598
 1003MOL0     C35305   6.329  11.732   2.849  0.1182  0.1795 -0.2124
 1003MOL0     O35306   6.330  11.739   2.981 -0.0766 -0.4903 -0.9741
 1003MOL0     C35307   6.464  11.754   3.044 -0.0465  0.7944  0.9114
 1003MOL0     C35308   6.467  11.705   3.183 -0.3209  0.5962 -1.4667
 1003MOL0     C35309   6.410  11.559   3.208 -0.0591 -0.7072  0.7386
 1003MOL0     C35310   6.431  11.501   3.352 -0.3331  0.6597 -0.2104
 1003MOL0     C35311   6.434  11.342   3.349 -0.0330 -0.8401 -0.3216
 1003MOL0     C35312   6.408  11.294   3.492 -0.2159  0.1821 -0.2932
 1003MOL0     C35313   6.417  11.137   3.498  0.7281 -0.6682  0.3631
 1003MOL0     C35314   6.294  11.059   3.436 -0.0606  0.1935 -0.1133
 1003MOL0    Cl35315   6.275  11.058   3.247  0.1544  0.4223  0.2530
 1003MOL0     C35316   6.379  11.829   2.762  0.0083 -0.3038  0.4365
 1003MOL0     C35317   6.346  11.818   2.616 -0.2842  0.0549 -0.3513
 1003MOL0     O35318   6.099  11.531   2.419  0.1712  0.2374  0.2827
 1003MOL0     C35319   6.344  11.599   2.167 -0.7647  0.3557  0.2746
 1003MOL0     C35320   6.385  11.600   2.030 -0.1185  0.7696 -0.5269
 1003MOL0     N35321   6.595  11.021   1.897  0.0999 -1.0115  0.1013
 1003MOL0     N35322   6.578  10.984   2.010 -0.1943 -0.2207 -0.0483
 1003MOL0     C35323   7.405  11.116   2.991 -0.6978  0.5448 -0.1422
 1003MOL0     C35324   7.511  11.097   3.077  0.0570 -0.7059 -0.2987
 1003MOL0     C35325   7.795  10.915   3.376 -0.4297  0.1469 -0.4275
 1003MOL0     C35326   7.885  10.802   3.386  1.0211 -0.0530  0.7232
 1003MOL0     C35327   8.002  10.822   3.458 -0.3585  0.5908 -0.7153
 1003MOL0     C35328   8.033  10.936   3.528  0.3798 -0.4932 -0.2639
 1003MOL0     O35329   8.141  10.962   3.606 -0.3081  0.6382  0.2656
 1003MOL0     C35330   8.261  10.880   3.594 -0.4397 -0.2799 -0.3253
 1003MOL0     C35331   8.337  10.889   3.729 -0.3764  0.4095 -0.3304
 1003MOL0     C35332   8.433  10.776   3.758 -0.5297  0.0833 -0.0252
 1003MOL0     C35333   8.468  10.766   3.914 -0.0126  0.3967 -1.0384
 1003MOL0     C35334   8.564  10.658   3.936 -1.1218  0.3090 -0.1052
 1003MOL0     C35335   8.649  10.567   3.966  0.2433 -0.6924 -1.4418
 1003MOL0     C35336   7.941  11.046   3.527  1.0894  0.1422  0.6908
 1003MOL0     C35337   7.822  11.038   3.449 -0.5453  0.3719  0.2855
 1003MOL0     H35338   7.341  10.919   3.309  0.5207 -0.3182  0.3541
 1003MOL0     H35339   7.161  10.948   3.140 -0.7866  1.2966  1.4871
 1003MOL0     H35340   7.142  11.284   2.948 -0.3017  0.2419  0.3484
 1003MOL0     H35341   7.219  11.232   2.799 -0.0326 -2.0435  1.3970
 1003MOL0     H35342   6.982  11.126   2.750 -0.0174  0.0070 -0.5961
 1003MOL0     H35343   6.915  11.220   2.887  0.4021 -1.5259 -0.3491
 1003MOL0     H35344   6.967  11.434   2.756  1.7910 -1.0462  2.3545
 1003MOL0     H35345   7.067  11.334   2.651  0.3176 -0.1824 -0.2148
 1003MOL0     H35346   6.762  11.268   2.687 -0.5181  1.5707 -0.2446
 1003MOL0     H35347   6.796  11.421   2.624  0.1466  0.7869 -0.7886
 1003MOL0     H35348   6.937  11.299   2.443 -0.3645 -0.0071 -2.0552
 1003MOL0     H35349   6.898  11.149   2.537  2.5139  0.6824  1.3698
 1003MOL0     H35350   6.665  11.188   2.516 -1.0172  0.6486  0.0347
 1003MOL0     H35351   6.699  11.314   2.392  2.8282  3.9763  3.6370
 1003MOL0     H35352   6.827  11.150   2.252 -1.5513 -0.0231 -1.5088
 1003MOL0     H35353   6.794  11.026   2.356  4.7609  2.3788 -0.3377
 1003MOL0     H35354   6.527  11.140   2.270  0.5431  0.2794  0.4135
 1003MOL0     H35355   6.592  10.980   2.280  2.6202 -0.9157  0.5194
 1003MOL0     H35356   6.688  11.293   2.046 -0.6482  0.4033 -1.3891
 1003MOL0     H35357   6.760  11.294   1.789  1.2027 -0.1346 -1.4772
 1003MOL0     H35358   6.709  11.162   1.696 -2.9344 -0.1292 -0.5750
 1003MOL0     H35359   6.476  11.256   1.677 -0.4172  1.8762  0.3086
 1003MOL0     H35360   6.604  11.368   1.651 -1.8498  4.0026  1.5350
 1003MOL0     H35361   6.582  11.491   1.832 -1.4752  1.2950 -0.2070
 1003MOL0     H35362   6.465  11.380   1.915  1.0867  1.3151  1.1264
 1003MOL0     H35363   6.334  11.428   1.694 -0.0206  2.4812 -2.8747
 1003MOL0     H35364   6.451  11.549   1.665  1.5731  2.5166  1.1571
 1003MOL0     H35365   6.083  11.606   1.900 -0.6116  1.3569 -0.1692
 1003MOL0     H35366   5.961  11.493   2.224  3.9135  0.3069  0.3791
 1003MOL0     H35367   5.932  11.669   2.181  3.7236  1.3124  0.3881
 1003MOL0     H35368   5.918  11.531   2.059 -0.5630 -0.4983 -0.3505
 1003MOL0     H35369   6.191  11.511   2.629 -1.6394 -0.4609 -0.4120
 1003MOL0     H35370   6.233  11.551   2.860 -1.3009  0.6017 -0.4797
 1003MOL0     H35371   6.532  11.695   2.982 -0.7978 -1.0669  1.7916
 1003MOL0     H35372   6.497  11.858   3.042  1.0948  0.4295 -0.0795
 1003MOL0     H35373   6.573  11.709   3.210 -0.5783  2.2314 -0.5015
 1003MOL0     H35374   6.411  11.779   3.242 -0.3423 -0.3128 -0.3101
 1003MOL0     H35375   6.449  11.490   3.133 -2.3301 -2.2594  0.8924
 1003MOL0     H35376   6.302  11.570   3.193 -0.0952 -0.8137  0.9162
 1003MOL0     H35377   6.524  11.541   3.394  0.7305 -0.3954 -1.4641
 1003MOL0     H35378   6.360  11.548   3.420 -1.3510 -0.8097 -0.2147
 1003MOL0     H35379   6.533  11.311   3.314  0.5205  2.5902 -2.1897
 1003MOL0     H35380   6.355  11.294   3.290 -0.6498  0.7048 -0.7998
 1003MOL0     H35381   6.488  11.318   3.564 -1.6966 -0.8962  1.8352
 1003MOL0     H35382   6.316  11.321   3.545 -0.4917 -3.0314  1.1018
 1003MOL0     H35383   6.424  11.107   3.603 -0.2791  0.8576  0.9043
 1003MOL0     H35384   6.511  11.117   3.446  0.0507  1.6364 -1.9519
 1003MOL0     H35385   6.207  11.104   3.485  1.0142  2.0724  0.1611
 1003MOL0     H35386   6.302  10.953   3.463  0.3255 -0.2414 -1.8124
 1003MOL0     H35387   6.437  11.907   2.809 -2.6258  0.9083  1.9101
 1003MOL0     H35388   6.374  11.906   2.558 -2.2412  0.7061 -0.3678
 1003MOL0     H35389   6.424  11.604   2.240  0.7696 -2.2937 -1.0843
 1003MOL0     H35390   6.491  11.595   2.008 -0.3041 -0.9723 -1.2154
 1003MOL0     H35391   7.427  11.183   2.909  1.1003  1.9977  1.4373
 1003MOL0     H35392   7.609  11.139   3.056 -1.1419  1.9745 -0.8911
 1003MOL0     H35393   7.875  10.707   3.335  2.6801 -0.3517  0.9061
 1003MOL0     H35394   8.062  10.734   3.480 -0.4011  0.9179  0.8744
 1003MOL0     H35395   8.234  10.774   3.592 -2.2511  0.1709 -0.9891
 1003MOL0     H35396   8.321  10.905   3.506 -0.3015 -0.6462 -0.3379
 1003MOL0     H35397   8.266  10.879   3.811 -0.3953  0.4819 -0.3380
 1003MOL0     H35398   8.391  10.984   3.722  2.3159 -0.7737  2.0839
 1003MOL0     H35399   8.516  10.781   3.687 -0.9386  1.4408 -0.4362
 1003MOL0     H35400   8.371  10.690   3.729 -0.0730  0.4818 -2.3997
 1003MOL0     H35401   8.373  10.756   3.966  0.8852 -0.5967  0.5011
 1003MOL0     H35402   8.515  10.855   3.958 -1.4362  0.0756  1.3221
 1003MOL0     H35403   8.728  10.495   3.964  0.7240 -0.2400 -0.0515
 1003MOL0     H35404   7.958  11.129   3.595  2.5785  0.1445  0.3415
 1003MOL0     H35405   7.756  11.124   3.441  0.3185  1.0045 -0.3349
 1004MOL0     O35406   4.798   8.828   3.374 -0.3341  0.3516 -0.4192
 1004MOL0     C35407   4.762   8.868   3.485  0.2378 -0.0140 -0.1470
 1004MOL0     O35408   4.652   8.818   3.556 -0.4968  0.0625 -0.3355
 1004MOL0     C35409   4.565   8.733   3.491 -0.1122  0.2946  0.8210
 1004MOL0     C35410   4.429   8.757   3.456 -0.5031  0.1305  0.0103
 1004MOL0     C35411   4.349   8.675   3.377  0.4885  0.0042 -0.8240
 1004MOL0     C35412   4.397   8.557   3.319 -0.0714  0.1843  0.3223
 1004MOL0     O35413   4.328   8.471   3.242 -0.1958  0.3044 -0.0944
 1004MOL0     C35414   4.191   8.506   3.214 -0.0544 -0.3644 -0.3187
 1004MOL0     C35415   4.154   8.437   3.083 -0.6585 -0.0528 -0.9315
 1004MOL0     C35416   4.177   8.294   3.083  0.3598 -1.0537 -0.0046
 1004MOL0     C35417   4.189   8.252   2.932  0.4040 -2.3197 -0.7431
 1004MOL0     C35418   4.155   8.116   2.899  0.1957  0.6859  0.0451
 1004MOL0     C35419   4.159   8.109   2.745 -0.7622 -0.4345  0.4039
 1004MOL0     C35420   4.137   7.970   2.695  0.0596 -0.2511  0.0427
 1004MOL0     C35421   4.166   7.953   2.545 -0.3719 -0.3119  0.4153
 1004MOL0     N35422   4.056   8.005   2.459  0.3134  0.3340 -0.3764
 1004MOL0     C35423   4.041   8.130   2.401 -0.0555  0.8089 -0.2409
 1004MOL0     C35424   3.935   8.123   2.316 -1.0225  0.4596  0.4748
 1004MOL0     C35425   3.881   8.240   2.239  0.2872 -1.3932  0.2396
 1004MOL0     C35426   3.892   8.376   2.315  0.7151  0.1864  0.0679
 1004MOL0     C35427   3.811   8.387   2.442 -0.0213  0.3829  0.3749
 1004MOL0     C35428   3.830   8.522   2.521 -0.8303  0.1397 -0.1159
 1004MOL0     O35429   3.950   8.519   2.598  1.0171 -0.1483  0.1966
 1004MOL0     C35430   4.063   8.581   2.557 -0.3473  0.2047 -0.1656
 1004MOL0     C35431   4.172   8.554   2.639 -1.0015 -0.9188  0.9904
 1004MOL0     C35432   4.301   8.615   2.611 -0.6324  0.5361  0.0492
 1004MOL0     C35433   4.417   8.611   2.710  0.1938  0.5951 -0.1797
 1004MOL0     C35434   4.319   8.697   2.500 -1.0543 -0.2498  0.0026
 1004MOL0     C35435   4.444   8.755   2.468  0.0344  0.0025 -0.4926
 1004MOL0     O35436   4.544   8.670   2.449 -0.5489  0.1866 -0.1977
 1004MOL0     C35437   4.675   8.702   2.421  0.1224  0.6768 -0.2270
 1004MOL0     C35438   4.784   8.657   2.498  0.0134  0.0931 -1.0310
 1004MOL0     C35439   4.912   8.697   2.469  0.4682 -0.3931  0.4698
 1004MOL0     C35440   4.938   8.773   2.361 -1.0533  0.2892  0.1042
 1004MOL0     O35441   5.066   8.812   2.348  0.1065  0.9980  0.2866
 1004MOL0     C35442   5.118   8.861   2.222  0.8069  0.6740  0.2722
 1004MOL0     C35443   5.275   8.844   2.227 -0.0965 -0.2504 -0.6451
 1004MOL0     C35444   5.318   8.714   2.180 -0.7580 -0.9258 -0.5898
 1004MOL0     C35445   5.328   8.615   2.302  0.6601  0.6947  1.3727
 1004MOL0     C35446   5.342   8.469   2.251 -0.8158  0.0761  0.4465
 1004MOL0     C35447   5.202   8.414   2.215 -0.3912 -0.4847  0.8111
 1004MOL0     C35448   5.224   8.265   2.190  0.2543  0.7788  0.0761
 1004MOL0     C35449   5.087   8.208   2.144 -0.8569  0.3266  0.0626
 1004MOL0    Cl35450   5.080   8.032   2.135  0.1344  0.2226  0.0232
 1004MOL0     C35451   4.831   8.811   2.283 -0.9940  0.1074  0.4154
 1004MOL0     C35452   4.705   8.781   2.314 -0.1599 -0.2666  0.5500
 1004MOL0     O35453   4.454   8.876   2.451 -0.0277 -0.1917  0.8476
 1004MOL0     C35454   4.212   8.719   2.422 -1.1028  0.9057  0.4160
 1004MOL0     C35455   4.085   8.661   2.441  0.9201 -0.2213 -0.1379
 1004MOL0     N35456   3.873   8.008   2.346 -0.8950  0.0420  0.4651
 1004MOL0     N35457   3.948   7.932   2.424  0.2358 -1.0390  0.1811
 1004MOL0     C35458   4.524   8.522   3.365  0.7609 -0.0835 -0.3754
 1004MOL0     C35459   4.605   8.601   3.451  0.6100  0.7785 -0.3569
 1004MOL0     C35460   4.843   8.985   3.544  1.0211  0.6896 -0.1255
 1004MOL0     C35461   4.943   9.048   3.473 -0.8454 -0.6073 -0.6267
 1004MOL0     C35462   5.021   9.159   3.525 -0.6500 -0.3827  0.3305
 1004MOL0     C35463   4.986   9.209   3.654 -0.6035  0.5486  0.3135
 1004MOL0     O35464   5.048   9.322   3.696  0.2178  0.1878  0.2483
 1004MOL0     C35465   4.952   9.420   3.742 -0.7369 -0.1290  0.1887
 1004MOL0     C35466   4.958   9.534   3.635 -0.1162 -0.5729  0.2605
 1004MOL0     C35467   4.875   9.518   3.515 -0.4906 -0.1535  0.7152
 1004MOL0     C35468   4.903   9.634   3.425  0.6564 -0.7574  0.5061
 1004MOL0     C35469   4.854   9.761   3.477  0.0648  1.0147 -0.4827
 1004MOL0     C35470   4.815   9.865   3.518  0.5552  0.2048  0.2533
 1004MOL0     C35471   4.891   9.140   3.732 -0.6397  0.5239 -0.2042
 1004MOL0     C35472   4.823   9.034   3.679 -0.0881 -0.8304  1.0232
 1004MOL0     H35473   4.389   8.854   3.484  0.5356  0.3497  0.8033
 1004MOL0     H35474   4.243   8.699   3.381  0.1107 -0.6287 -4.2799
 1004MOL0     H35475   4.128   8.459   3.290 -2.3013  1.3906 -0.9820
 1004MOL0     H35476   4.167   8.613   3.213  1.4960  0.0017 -0.6233
 1004MOL0     H35477   4.051   8.457   3.054 -1.5226 -0.3963  1.6528
 1004MOL0     H35478   4.221   8.479   3.007  1.1634 -2.6276 -0.8915
 1004MOL0     H35479   4.256   8.257   3.149 -0.2330 -1.4247  0.5126
 1004MOL0     H35480   4.084   8.250   3.119 -0.2229 -0.0902 -0.2953
 1004MOL0     H35481   4.135   8.317   2.863 -0.6087  0.1251  2.1161
 1004MOL0     H35482   4.293   8.280   2.910 -0.0096  0.1839  0.0907
 1004MOL0     H35483   4.215   8.041   2.950  1.1589  1.2559 -0.2239
 1004MOL0     H35484   4.054   8.102   2.937  0.7503  1.8512  2.0870
 1004MOL0     H35485   4.072   8.161   2.705  0.1402 -0.3244 -1.5217
 1004MOL0     H35486   4.253   8.154   2.710  0.5544 -3.2982 -0.0574
 1004MOL0     H35487   4.197   7.891   2.740 -1.0453 -1.7281 -0.9789
 1004MOL0     H35488   4.034   7.945   2.722  1.4099 -2.0136  4.3933
 1004MOL0     H35489   4.177   7.847   2.521  0.3275  0.1357 -1.3694
 1004MOL0     H35490   4.268   7.986   2.521  0.5965 -2.8976  0.6083
 1004MOL0     H35491   4.107   8.213   2.422  0.5080 -0.1034  1.9296
 1004MOL0     H35492   3.944   8.242   2.150  0.9181  0.7826  0.6870
 1004MOL0     H35493   3.777   8.223   2.209  1.0833 -2.4730 -2.1781
 1004MOL0     H35494   3.862   8.452   2.242 -4.4612  0.6241  2.2217
 1004MOL0     H35495   3.998   8.394   2.333  2.2448 -0.3992 -6.0208
 1004MOL0     H35496   3.847   8.305   2.506 -2.2840  0.8076  2.3250
 1004MOL0     H35497   3.703   8.387   2.428 -0.1226  2.0583  0.9707
 1004MOL0     H35498   3.747   8.541   2.590  0.8211  1.5345  1.6081
 1004MOL0     H35499   3.835   8.601   2.445 -1.8347  0.2794 -0.0492
 1004MOL0     H35500   4.175   8.488   2.725  3.8823 -0.8776  1.1435
 1004MOL0     H35501   4.479   8.523   2.688 -2.0540 -1.2952  0.6497
 1004MOL0     H35502   4.484   8.697   2.715  1.3662 -0.3906  1.9319
 1004MOL0     H35503   4.370   8.608   2.808  1.5584  0.2791  0.4875
 1004MOL0     H35504   4.763   8.589   2.580 -2.2774  2.9922  1.0013
 1004MOL0     H35505   4.992   8.662   2.534 -0.9522 -2.8147  1.0459
 1004MOL0     H35506   5.075   8.812   2.134  0.6946  3.2144 -1.1668
 1004MOL0     H35507   5.095   8.967   2.217 -0.5377  0.5388  2.2888
 1004MOL0     H35508   5.323   8.921   2.166  0.8676 -0.3880 -0.0784
 1004MOL0     H35509   5.302   8.870   2.330 -1.6831 -3.2324  0.6377
 1004MOL0     H35510   5.414   8.722   2.127  0.0769  0.2774  0.9980
 1004MOL0     H35511   5.251   8.667   2.108 -1.5288  0.5315 -0.8591
 1004MOL0     H35512   5.409   8.646   2.369 -0.2332  1.7277  2.0023
 1004MOL0     H35513   5.238   8.616   2.364 -1.2056  0.9974 -1.1896
 1004MOL0     H35514   5.383   8.409   2.333 -0.8542 -2.2438 -1.1449
 1004MOL0     H35515   5.412   8.457   2.169  0.3544  3.1244  0.8658
 1004MOL0     H35516   5.128   8.436   2.293 -1.0936  1.0266 -0.2315
 1004MOL0     H35517   5.162   8.463   2.126  0.9179  0.6215  0.7990
 1004MOL0     H35518   5.254   8.205   2.276 -1.5543  0.1835  0.3450
 1004MOL0     H35519   5.301   8.255   2.112  0.0712  3.3659 -0.5002
 1004MOL0     H35520   5.057   8.250   2.048 -2.1352 -0.4482  0.1046
 1004MOL0     H35521   5.005   8.247   2.205 -0.1601  0.0882  1.1791
 1004MOL0     H35522   4.855   8.877   2.200 -1.2688  1.3809  1.3293
 1004MOL0     H35523   4.630   8.811   2.242  1.0317 -0.4878 -0.8287
 1004MOL0     H35524   4.222   8.782   2.334 -2.6830 -2.1729 -2.1763
 1004MOL0     H35525   4.013   8.673   2.361  0.8755  0.1258 -0.0454
 1004MOL0     H35526   4.563   8.431   3.320 -0.0007 -0.6256  0.0300
 1004MOL0     H35527   4.707   8.572   3.473  1.2785  0.8601 -2.9953
 1004MOL0     H35528   4.962   9.034   3.367  0.2041  0.4991 -0.6131
 1004MOL0     H35529   5.091   9.201   3.454 -1.0309 -2.6833 -1.5455
 1004MOL0     H35530   4.852   9.378   3.757  0.2258 -1.8858  2.2656
 1004MOL0     H35531   4.974   9.473   3.835  0.1172 -1.0805  0.5440
 1004MOL0     H35532   5.063   9.543   3.607  0.0238 -0.4564  0.8121
 1004MOL0     H35533   4.931   9.633   3.674  0.8022  1.3878 -3.6242
 1004MOL0     H35534   4.770   9.496   3.536 -1.6947  1.4602 -2.7600
 1004MOL0     H35535   4.913   9.427   3.468  0.0050 -0.1187  1.0442
 1004MOL0     H35536   4.867   9.612   3.323 -1.2577 -0.4036  1.0687
 1004MOL0     H35537   5.010   9.655   3.421  1.2490 -3.4777 -0.3924
 1004MOL0     H35538   4.766   9.939   3.579 -1.1734  1.1151 -2.0514
 1004MOL0     H35539   4.880   9.177   3.833  4.9870  1.5776  0.3764
 1004MOL0     H35540   4.750   8.979   3.737 -0.6626 -1.8917 -0.6418
 1005MOL0     O35541   2.600   1.902   6.165  0.1050  0.1498  0.6755
 1005MOL0     C35542   2.674   1.959   6.086  0.6099  0.1796 -0.7027
 1005MOL0     O35543   2.645   1.976   5.949  0.4169  1.0063  0.2701
 1005MOL0     C35544   2.525   1.931   5.893 -0.0304  0.3780  0.2511
 1005MOL0     C35545   2.461   2.019   5.809 -0.1460 -0.5701 -1.1006
 1005MOL0     C35546   2.364   1.973   5.726 -0.2345 -0.3460  0.1783
 1005MOL0     C35547   2.315   1.837   5.743 -0.0695 -0.4986  0.2673
 1005MOL0     O35548   2.218   1.786   5.659  0.5221  0.0130 -1.1716
 1005MOL0     C35549   2.154   1.875   5.569 -0.2480  0.0635  0.1961
 1005MOL0     C35550   2.045   1.803   5.493  0.2354 -0.6553  0.9953
 1005MOL0     C35551   1.976   1.888   5.383 -0.5948  1.1459  0.2674
 1005MOL0     C35552   2.040   1.874   5.241  0.1725  0.1542 -1.1902
 1005MOL0     C35553   1.989   1.967   5.131 -0.6508  0.6516 -0.0665
 1005MOL0     C35554   1.845   1.974   5.089 -0.6001 -1.1892  0.1074
 1005MOL0     C35555   1.784   1.853   5.017 -0.6775 -1.2677 -0.1530
 1005MOL0     C35556   1.644   1.872   4.955  0.0979  0.0745 -0.2010
 1005MOL0     N35557   1.650   1.985   4.858 -0.6080 -0.3613  0.2008
 1005MOL0     C35558   1.697   1.980   4.730 -0.7114 -0.4102 -0.8848
 1005MOL0     C35559   1.660   2.095   4.669  0.4223 -0.9552 -0.3350
 1005MOL0     C35560   1.688   2.119   4.521  0.2728 -0.4730 -0.4048
 1005MOL0     C35561   1.760   2.255   4.487 -0.6485 -0.1052 -0.2446
 1005MOL0     C35562   1.747   2.284   4.336 -0.2217  0.2211  0.5566
 1005MOL0     C35563   1.817   2.414   4.293  1.0655  0.2962 -0.3456
 1005MOL0     O35564   1.717   2.521   4.302  0.2129  0.6182  0.3984
 1005MOL0     C35565   1.744   2.649   4.248  0.1775 -0.7844 -0.4267
 1005MOL0     C35566   1.836   2.675   4.146 -0.0397  0.6010 -1.0374
 1005MOL0     C35567   1.858   2.805   4.099  0.3167 -0.1457 -0.0363
 1005MOL0     C35568   1.964   2.829   3.985  0.2688  0.8939 -0.9471
 1005MOL0     C35569   1.771   2.915   4.148  0.4994  0.4920 -0.9538
 1005MOL0     C35570   1.762   3.047   4.088 -0.6233  0.3129 -0.5459
 1005MOL0     O35571   1.749   3.138   4.171 -1.1406  0.1294 -0.0007
 1005MOL0     C35572   1.762   3.270   4.124  0.3026 -1.2402  0.7082
 1005MOL0     C35573   1.864   3.315   4.037  0.2788  0.5465 -0.4456
 1005MOL0     C35574   1.867   3.433   3.972  0.5219 -0.5612 -0.2005
 1005MOL0     C35575   1.773   3.539   4.004 -0.3821  0.3135  0.7620
 1005MOL0     O35576   1.784   3.662   3.946 -0.0938  0.6034  0.4642
 1005MOL0     C35577   1.686   3.773   3.954 -0.1451 -0.1301 -0.4143
 1005MOL0     C35578   1.743   3.858   4.068  0.9429 -0.5106 -0.3785
 1005MOL0     C35579   1.877   3.924   4.038 -0.8316 -1.3998 -0.3740
 1005MOL0     C35580   1.870   4.037   3.933 -0.3479 -0.4049  0.4889
 1005MOL0     C35581   1.999   4.110   3.922  1.3196  0.8053  0.0229
 1005MOL0     C35582   2.005   4.217   3.808  0.1738  0.0039  0.2278
 1005MOL0     C35583   2.140   4.285   3.797 -0.3399 -0.7366 -0.1724
 1005MOL0     C35584   2.192   4.323   3.942  0.1871  0.0292  0.8809
 1005MOL0    Cl35585   2.073   4.439   4.026  0.1442 -0.1914  0.2737
 1005MOL0     C35586   1.666   3.500   4.090 -0.7176  0.0926 -0.6092
 1005MOL0     C35587   1.659   3.375   4.155  0.1826 -0.5954 -0.1625
 1005MOL0     O35588   1.765   3.056   3.968 -0.4696  0.0715  0.2122
 1005MOL0     C35589   1.685   2.883   4.250 -0.0840 -0.3880  0.4352
 1005MOL0     C35590   1.670   2.761   4.300  0.3688 -0.0486 -0.1461
 1005MOL0     N35591   1.591   2.172   4.760  0.0650 -0.1105  0.1247
 1005MOL0     N35592   1.586   2.102   4.878  0.0029  0.5216  0.0086
 1005MOL0     C35593   2.374   1.753   5.841 -0.6390 -0.1614  1.6421
 1005MOL0     C35594   2.488   1.797   5.904  0.0522 -0.4731  0.1391
 1005MOL0     C35595   2.789   2.029   6.134 -0.6095  0.6566  0.4124
 1005MOL0     C35596   2.892   2.068   6.048  0.1796 -0.2419 -0.2873
 1005MOL0     C35597   2.992   2.154   6.093  0.9285 -0.7685  0.1187
 1005MOL0     C35598   2.995   2.215   6.224  0.0259  0.9301  1.6451
 1005MOL0     O35599   3.099   2.301   6.248 -0.5335  0.1607  0.1578
 1005MOL0     C35600   3.141   2.318   6.383 -0.1198  0.2624  0.1460
 1005MOL0     C35601   3.260   2.226   6.405 -0.0582 -0.4418 -0.6112
 1005MOL0     C35602   3.380   2.241   6.310  0.0683 -0.5586 -0.2493
 1005MOL0     C35603   3.453   2.383   6.326  0.4720 -0.2885  0.6666
 1005MOL0     C35604   3.589   2.380   6.269 -0.4066  0.3807  0.2418
 1005MOL0     C35605   3.703   2.363   6.234  0.5697  0.3187  0.5084
 1005MOL0     C35606   2.889   2.171   6.308  0.9175  0.1018 -0.3594
 1005MOL0     C35607   2.793   2.075   6.271 -1.3213  0.3396  0.5598
 1005MOL0     H35608   2.514   2.113   5.801  0.6044 -0.8691 -0.0155
 1005MOL0     H35609   2.324   2.046   5.656  1.9969 -1.1915 -2.1070
 1005MOL0     H35610   2.118   1.967   5.616 -0.0436  0.1759  0.1327
 1005MOL0     H35611   2.228   1.904   5.494  0.1793 -0.2001  0.5144
 1005MOL0     H35612   2.083   1.713   5.445  1.1436  0.5600 -0.6990
 1005MOL0     H35613   1.963   1.780   5.562 -2.8923 -0.6902 -2.4044
 1005MOL0     H35614   1.878   1.841   5.373  0.4519 -0.5724 -4.2892
 1005MOL0     H35615   1.963   1.990   5.420  4.5683  1.0580  3.2569
 1005MOL0     H35616   2.147   1.896   5.251 -0.0182 -0.0248  2.1953
 1005MOL0     H35617   2.023   1.767   5.226  1.3820 -0.2751  0.2846
 1005MOL0     H35618   2.014   2.067   5.168  1.1859  0.7790 -1.4996
 1005MOL0     H35619   2.055   1.951   5.045  0.0499 -1.2951  0.8057
 1005MOL0     H35620   1.796   1.978   5.186 -0.2111 -0.9523  0.2964
 1005MOL0     H35621   1.839   2.069   5.035  1.6421 -1.5446 -0.8873
 1005MOL0     H35622   1.854   1.830   4.936  1.5975  1.9132  0.7152
 1005MOL0     H35623   1.787   1.768   5.085 -0.5352 -2.1333 -1.2013
 1005MOL0     H35624   1.581   1.890   5.043  1.1952 -1.6532  1.0113
 1005MOL0     H35625   1.601   1.787   4.901  2.7026 -3.4557  2.6938
 1005MOL0     H35626   1.754   1.899   4.685  3.3470 -0.3363  3.3948
 1005MOL0     H35627   1.743   2.031   4.487 -0.6758 -1.5601  0.7843
 1005MOL0     H35628   1.592   2.126   4.468 -0.4681  1.9443  1.0828
 1005MOL0     H35629   1.868   2.246   4.500 -0.1432  3.0644 -1.2820
 1005MOL0     H35630   1.714   2.336   4.545  1.3885  1.1169 -0.2356
 1005MOL0     H35631   1.645   2.287   4.299  0.5619  3.2195 -1.7582
 1005MOL0     H35632   1.808   2.215   4.276  1.8927  1.4780  1.1305
 1005MOL0     H35633   1.840   2.395   4.187 -1.0874 -1.5018 -0.5551
 1005MOL0     H35634   1.902   2.421   4.361  0.6028 -1.0025  0.3941
 1005MOL0     H35635   1.898   2.599   4.098  2.5567  2.6588 -1.1687
 1005MOL0     H35636   2.051   2.763   3.991 -0.6865 -0.3308 -0.0075
 1005MOL0     H35637   1.915   2.803   3.891  3.0104 -3.8356 -1.3646
 1005MOL0     H35638   1.995   2.934   3.988 -1.1660  1.4350 -2.8139
 1005MOL0     H35639   1.938   3.239   4.016  0.3022  0.4138  0.0865
 1005MOL0     H35640   1.956   3.447   3.911 -0.2090 -1.9002 -1.6240
 1005MOL0     H35641   1.679   3.825   3.858 -1.1188 -0.5165 -0.5699
 1005MOL0     H35642   1.585   3.731   3.962 -0.2553 -0.2838 -2.2203
 1005MOL0     H35643   1.671   3.939   4.087 -1.0217 -2.5023  1.1910
 1005MOL0     H35644   1.751   3.791   4.154  0.2993  0.5718  0.5476
 1005MOL0     H35645   1.939   3.846   3.993  2.3804 -0.9364  2.7658
 1005MOL0     H35646   1.933   3.953   4.127 -3.3270  2.7312  0.1354
 1005MOL0     H35647   1.855   3.988   3.837  0.9550 -1.6448  0.8911
 1005MOL0     H35648   1.790   4.107   3.959 -2.7607 -1.0594 -4.1315
 1005MOL0     H35649   2.075   4.033   3.907  2.8891  1.5756  3.0972
 1005MOL0     H35650   2.017   4.150   4.023 -0.8014  1.1882  0.2842
 1005MOL0     H35651   1.968   4.179   3.712 -0.2862  0.7736  0.0874
 1005MOL0     H35652   1.942   4.304   3.832  3.2709  2.2008  0.9414
 1005MOL0     H35653   2.124   4.375   3.737 -1.0713  1.4939  3.0754
 1005MOL0     H35654   2.214   4.221   3.748 -2.3997 -1.2638 -2.8237
 1005MOL0     H35655   2.287   4.375   3.926 -0.6243  0.8642 -1.8095
 1005MOL0     H35656   2.200   4.238   4.010 -1.5856  0.0162  1.1252
 1005MOL0     H35657   1.586   3.570   4.112 -1.7480 -1.4615  0.8701
 1005MOL0     H35658   1.577   3.351   4.221  0.7924  1.2743  1.3508
 1005MOL0     H35659   1.631   2.964   4.298  1.3095  0.6476  0.3032
 1005MOL0     H35660   1.600   2.753   4.383 -0.1448  2.5095 -0.2550
 1005MOL0     H35661   2.333   1.652   5.846 -0.3805 -0.3174  0.7484
 1005MOL0     H35662   2.534   1.711   5.953 -1.6709 -1.9210 -0.6577
 1005MOL0     H35663   2.886   2.015   5.954 -0.7430  1.1824 -1.0550
 1005MOL0     H35664   3.079   2.166   6.030  0.4386 -1.1441 -0.6549
 1005MOL0     H35665   3.177   2.421   6.394 -0.1519  0.2452  0.4227
 1005MOL0     H35666   3.062   2.302   6.457  0.8092  0.0850  1.1186
 1005MOL0     H35667   3.218   2.125   6.405 -1.0813 -0.1472  2.7622
 1005MOL0     H35668   3.302   2.237   6.506 -1.5856 -2.8477  0.3834
 1005MOL0     H35669   3.358   2.230   6.204 -0.0395 -1.6159 -0.1368
 1005MOL0     H35670   3.452   2.162   6.334  0.1719 -0.7640 -1.2003
 1005MOL0     H35671   3.447   2.413   6.431 -2.3735  3.1199 -0.3023
 1005MOL0     H35672   3.397   2.447   6.258  1.5219 -1.8527 -1.8088
 1005MOL0     H35673   3.804   2.356   6.197 -0.1089 -2.1893 -1.0786
 1005MOL0     H35674   2.891   2.205   6.411 -0.4904 -2.2402  0.5254
 1005MOL0     H35675   2.732   2.046   6.356  0.7754 -3.0649  1.1083
 1006MOL0     O35676  11.345   0.884   6.383  0.4406  0.3601  0.1109
 1006MOL0     C35677  11.366   0.820   6.276 -0.0802 -0.9139 -0.2572
 1006MOL0     O35678  11.457   0.868   6.186  0.1492 -0.1700  0.3322
 1006MOL0     C35679  11.505   0.997   6.189 -0.3458  0.6733 -0.6220
 1006MOL0     C35680  11.413   1.099   6.180 -0.1299  0.2245  0.0950
 1006MOL0     C35681  11.458   1.227   6.188 -0.0617 -0.3973 -0.6614
 1006MOL0     C35682  11.591   1.254   6.187 -0.5793 -0.6220 -1.1808
 1006MOL0     O35683  11.624   1.388   6.189 -0.1037  0.4345 -0.9214
 1006MOL0     C35684  11.732   1.438   6.104  1.0915 -0.0420  0.0390
 1006MOL0     C35685  11.797   1.573   6.159 -0.7206  0.2691  0.0954
 1006MOL0     C35686  11.878   1.534   6.287 -0.3794 -0.4691  0.3714
 1006MOL0     C35687  11.961   1.652   6.346  0.5572 -0.4090 -1.0767
 1006MOL0     C35688  11.968   1.651   6.499  0.5229  0.7156  0.1572
 1006MOL0     C35689  12.063   1.765   6.538 -0.1551  0.1621 -0.7962
 1006MOL0     C35690  12.069   1.839   6.672  0.2036  0.2856  0.7664
 1006MOL0     C35691  12.091   1.746   6.784 -0.7203 -0.0813 -0.4042
 1006MOL0     N35692  12.157   1.804   6.903 -0.5366  0.1343 -0.3149
 1006MOL0     C35693  12.095   1.795   7.028 -0.4879  0.0838  0.4943
 1006MOL0     C35694  12.204   1.781   7.109 -0.6268 -0.0041 -0.0884
 1006MOL0     C35695  12.189   1.768   7.264 -0.0985  0.6139 -0.2205
 1006MOL0     C35696  12.144   1.899   7.333  0.8147 -0.1299  0.6481
 1006MOL0     C35697  12.265   1.995   7.328 -0.7464 -0.4025 -0.2601
 1006MOL0     C35698  12.226   2.141   7.347  0.1481  0.5091  0.0424
 1006MOL0     O35699  12.333   2.229   7.367  0.6838 -0.5919  0.4396
 1006MOL0     C35700  12.324   2.356   7.312 -0.2285  0.0646  0.3841
 1006MOL0     C35701  12.282   2.388   7.181 -0.7523 -0.0323 -0.2650
 1006MOL0     C35702  12.287   2.510   7.118  0.0104 -0.7816 -0.0219
 1006MOL0     C35703  12.247   2.523   6.968 -0.0151 -0.1427  0.4539
 1006MOL0     C35704  12.323   2.629   7.203  0.3752  0.8094  1.2097
 1006MOL0     C35705  12.333   2.769   7.161  0.4913 -0.7031 -0.4070
 1006MOL0     O35706  12.402   2.867   7.239  0.3666  0.3852  0.0288
 1006MOL0     C35707  12.385   2.999   7.212 -0.6951 -0.1493 -0.3689
 1006MOL0     C35708  12.349   3.075   7.316  0.5230 -0.3785 -1.0089
 1006MOL0     C35709  12.332   3.216   7.301  1.1812 -0.9115  0.1265
 1006MOL0     C35710  12.348   3.277   7.176  0.0027  0.4969 -0.6777
 1006MOL0     O35711  12.338   3.408   7.141 -0.0596  0.4359 -0.1087
 1006MOL0     C35712  12.269   3.500   7.231  0.3578 -0.0875 -0.6476
 1006MOL0     C35713  12.248   3.636   7.150  0.0823 -0.8556 -1.0703
 1006MOL0     C35714  12.172   3.749   7.219  0.3513  0.0110 -1.6363
 1006MOL0     C35715  12.151   3.872   7.127  0.8585 -0.7592 -0.0833
 1006MOL0     C35716  12.034   3.953   7.193  0.6372 -0.0395 -0.1723
 1006MOL0     C35717  12.041   4.095   7.130 -0.4603 -0.8977  0.0950
 1006MOL0     C35718  11.930   4.195   7.178 -0.9411 -0.0562 -0.3853
 1006MOL0     C35719  11.971   4.335   7.133 -0.3793 -0.5347 -0.4968
 1006MOL0    Cl35720  11.855   4.447   7.199  0.0506 -0.3617  0.1970
 1006MOL0     C35721  12.391   3.192   7.075 -0.3340 -0.1008 -0.5175
 1006MOL0     C35722  12.416   3.056   7.088  0.2013  0.0499  0.4910
 1006MOL0     O35723  12.291   2.795   7.048 -0.3910 -0.3386 -0.3445
 1006MOL0     C35724  12.364   2.596   7.335 -0.7533  0.0423  0.4896
 1006MOL0     C35725  12.370   2.470   7.385 -0.2243 -0.7713 -0.1988
 1006MOL0     N35726  12.319   1.786   7.037  0.6324  0.5679 -0.0353
 1006MOL0     N35727  12.290   1.802   6.917 -0.5732  0.3061  0.1129
 1006MOL0     C35728  11.689   1.153   6.188  0.4340 -0.6379 -0.4270
 1006MOL0     C35729  11.645   1.021   6.192 -0.1415 -0.0489 -0.4063
 1006MOL0     C35730  11.286   0.706   6.230 -0.3297 -0.3212 -0.6533
 1006MOL0     C35731  11.297   0.650   6.098 -0.0302  0.2786 -0.0776
 1006MOL0     C35732  11.229   0.536   6.063 -0.6067 -0.3485  0.3288
 1006MOL0     C35733  11.141   0.475   6.156 -0.0622 -0.3382  0.5568
 1006MOL0     O35734  11.071   0.360   6.136 -0.5912 -0.7486  0.4306
 1006MOL0     C35735  11.014   0.347   6.009  0.8374  0.3862 -0.0064
 1006MOL0     C35736  10.909   0.255   6.024  0.4763 -0.0211 -1.0875
 1006MOL0     C35737  10.832   0.228   5.899 -1.0694 -0.8387  0.0704
 1006MOL0     C35738  10.727   0.115   5.902 -0.1409 -0.4068 -0.3758
 1006MOL0     C35739  10.664   0.105   5.772 -1.0879 -0.8581 -0.2079
 1006MOL0     C35740  10.620   0.091   5.667 -0.1112 -0.2538  0.5952
 1006MOL0     C35741  11.128   0.536   6.282  0.4991  0.7461  0.5383
 1006MOL0     C35742  11.198   0.651   6.313  0.5079 -0.1864 -0.3952
 1006MOL0     H35743  11.305   1.086   6.179 -0.1084  0.0096  0.4540
 1006MOL0     H35744  11.385   1.307   6.189  1.4997  1.0702 -0.9747
 1006MOL0     H35745  11.819   1.372   6.100  1.9564  1.1435 -2.7869
 1006MOL0     H35746  11.698   1.446   6.001  1.0332 -0.9131 -0.0212
 1006MOL0     H35747  11.854   1.634   6.089 -2.3884  1.5888 -0.1784
 1006MOL0     H35748  11.714   1.636   6.193 -0.1766  1.3907 -0.5974
 1006MOL0     H35749  11.808   1.509   6.368  1.2297 -1.5847  1.4669
 1006MOL0     H35750  11.938   1.447   6.259  0.7744  0.7137 -0.9733
 1006MOL0     H35751  12.060   1.639   6.301  1.0049 -1.2822  0.0865
 1006MOL0     H35752  11.917   1.747   6.314 -0.5948  0.2700  2.0991
 1006MOL0     H35753  11.875   1.679   6.550  0.4261  0.8205 -0.0763
 1006MOL0     H35754  12.006   1.552   6.528 -1.1596 -1.0783 -3.1272
 1006MOL0     H35755  12.164   1.725   6.544  0.2646  0.5689 -3.7425
 1006MOL0     H35756  12.056   1.846   6.464 -0.0496 -0.0141 -0.9985
 1006MOL0     H35757  12.146   1.917   6.668 -0.6430  1.1640  1.0453
 1006MOL0     H35758  11.982   1.898   6.703 -1.5912 -0.6118 -2.1518
 1006MOL0     H35759  12.176   1.682   6.759  0.8942  1.2170  1.4228
 1006MOL0     H35760  12.003   1.689   6.814 -1.6065  0.1573 -2.3897
 1006MOL0     H35761  11.992   1.778   7.057 -0.6841 -1.0003 -0.7424
 1006MOL0     H35762  12.123   1.683   7.286  1.2949 -0.8191 -1.3059
 1006MOL0     H35763  12.282   1.741   7.314 -0.9538 -1.4178  0.4033
 1006MOL0     H35764  12.114   1.881   7.436  1.6283 -2.0450  0.5983
 1006MOL0     H35765  12.070   1.948   7.269 -0.1535 -1.4636  0.6920
 1006MOL0     H35766  12.314   1.993   7.230 -1.9667 -2.0458 -0.8768
 1006MOL0     H35767  12.337   1.967   7.405 -0.7444  0.1440 -0.0598
 1006MOL0     H35768  12.162   2.153   7.435  0.7415 -0.4583  0.6224
 1006MOL0     H35769  12.161   2.172   7.265  1.6445  0.8603 -1.0594
 1006MOL0     H35770  12.251   2.303   7.121  0.6418  0.9181 -2.4742
 1006MOL0     H35771  12.285   2.435   6.915 -0.9170  0.6239 -1.5928
 1006MOL0     H35772  12.141   2.537   6.942  0.1999  1.3551  0.3003
 1006MOL0     H35773  12.305   2.604   6.925  1.4657 -0.0984  2.4066
 1006MOL0     H35774  12.330   3.026   7.411  1.7372 -0.7213 -0.9253
 1006MOL0     H35775  12.305   3.271   7.390  1.9634 -0.4195  0.0680
 1006MOL0     H35776  12.167   3.460   7.243 -0.4725  1.7772 -1.2172
 1006MOL0     H35777  12.320   3.516   7.326 -0.6540 -2.3125  0.3507
 1006MOL0     H35778  12.350   3.674   7.136  0.2960  0.0415  2.0520
 1006MOL0     H35779  12.205   3.605   7.055  1.1296  0.7416 -2.1218
 1006MOL0     H35780  12.217   3.766   7.317  0.2573  0.4731 -1.6705
 1006MOL0     H35781  12.078   3.702   7.250  1.6764 -0.2859  2.6935
 1006MOL0     H35782  12.246   3.923   7.107  0.6575 -0.7895 -1.1698
 1006MOL0     H35783  12.122   3.832   7.029 -0.9328 -1.2424  0.6036
 1006MOL0     H35784  12.054   3.948   7.300  1.2414 -1.6846 -0.3320
 1006MOL0     H35785  11.937   3.903   7.185  0.9426 -1.3735  2.9014
 1006MOL0     H35786  12.140   4.143   7.133 -0.7278 -0.3839  1.0854
 1006MOL0     H35787  12.022   4.074   7.024 -0.2378 -1.3746  0.1485
 1006MOL0     H35788  11.921   4.195   7.287 -1.6573  1.7825 -0.4196
 1006MOL0     H35789  11.829   4.164   7.148  0.0651 -3.3726 -0.8452
 1006MOL0     H35790  11.967   4.352   7.025 -1.2821  2.1739 -0.1084
 1006MOL0     H35791  12.065   4.371   7.177 -0.6833  0.7203 -0.8482
 1006MOL0     H35792  12.399   3.236   6.976 -0.2031 -0.0764 -0.4956
 1006MOL0     H35793  12.441   3.000   6.998 -0.7737  0.5301 -0.0901
 1006MOL0     H35794  12.396   2.672   7.405 -1.8872 -0.5885  1.7284
 1006MOL0     H35795  12.409   2.460   7.486  0.5413 -0.8742 -0.4972
 1006MOL0     H35796  11.792   1.183   6.208 -0.1482 -0.0406  2.0756
 1006MOL0     H35797  11.718   0.941   6.200  0.6478  0.8352  1.8871
 1006MOL0     H35798  11.374   0.698   6.038  3.4688 -2.6352  1.6573
 1006MOL0     H35799  11.247   0.490   5.966 -2.9659  1.3327 -1.0169
 1006MOL0     H35800  10.968   0.440   5.974  0.5918  0.1099 -0.4265
 1006MOL0     H35801  11.098   0.323   5.943 -1.8834 -1.1424 -3.2190
 1006MOL0     H35802  10.841   0.298   6.098 -2.7428 -1.3301 -3.0711
 1006MOL0     H35803  10.944   0.159   6.061  2.2384  0.4162 -1.4976
 1006MOL0     H35804  10.902   0.227   5.814  1.9641 -1.0982  2.3826
 1006MOL0     H35805  10.780   0.322   5.879 -1.3040 -0.7166  1.1867
 1006MOL0     H35806  10.659   0.125   5.987  3.0209 -3.4139  2.8434
 1006MOL0     H35807  10.763   0.016   5.931 -4.6184 -1.8129  1.1343
 1006MOL0     H35808  10.578   0.086   5.568  0.3963 -1.6682  0.4312
 1006MOL0     H35809  11.064   0.490   6.357  1.2971  1.5289  1.7277
 1006MOL0     H35810  11.175   0.700   6.407 -0.0631  1.7421 -1.4960
 1007MOL0     O35811   2.182   3.122   1.884 -0.4869 -1.3988 -0.7005
 1007MOL0     C35812   2.100   3.194   1.940  0.2462 -0.1125  0.2906
 1007MOL0     O35813   2.125   3.319   1.983 -0.2194  0.1557 -0.6722
 1007MOL0     C35814   2.235   3.391   1.946  0.3227  0.1499 -0.0229
 1007MOL0     C35815   2.366   3.344   1.914  0.7597 -0.3026 -0.5175
 1007MOL0     C35816   2.477   3.430   1.883 -0.1010  0.9895 -0.3279
 1007MOL0     C35817   2.452   3.564   1.878  0.3447  0.2293 -0.5364
 1007MOL0     O35818   2.553   3.655   1.864  0.1177 -0.0862  0.5353
 1007MOL0     C35819   2.681   3.608   1.814  0.3208 -0.2262  0.4677
 1007MOL0     C35820   2.785   3.718   1.784 -0.1512  0.3440  0.0164
 1007MOL0     C35821   2.904   3.643   1.709 -0.4551  0.4784 -0.2890
 1007MOL0     C35822   3.005   3.727   1.643 -0.4205  0.1798  0.9960
 1007MOL0     C35823   3.079   3.822   1.736 -0.5495 -0.1477 -0.3113
 1007MOL0     C35824   3.171   3.753   1.837  0.3191 -0.0142  0.4057
 1007MOL0     C35825   3.286   3.673   1.765  0.4017  0.2278 -0.5490
 1007MOL0     C35826   3.373   3.761   1.666  1.0302 -0.9139 -1.1601
 1007MOL0     N35827   3.458   3.852   1.733 -0.8178 -0.5741 -0.6403
 1007MOL0     C35828   3.460   3.989   1.729 -0.6660 -0.5162 -0.4504
 1007MOL0     C35829   3.568   4.027   1.813  0.9300  0.5254  0.0815
 1007MOL0     C35830   3.601   4.163   1.850  0.5513  0.4797 -0.9148
 1007MOL0     C35831   3.755   4.203   1.830  0.4304 -0.2841 -0.4591
 1007MOL0     C35832   3.801   4.153   1.691  1.2100 -0.2507 -0.2686
 1007MOL0     C35833   3.947   4.133   1.687  0.3418  1.0372 -0.0649
 1007MOL0     O35834   3.984   4.071   1.561  0.4588  0.3479 -0.5343
 1007MOL0     C35835   3.981   3.934   1.549  0.8810  0.2676  0.5611
 1007MOL0     C35836   4.041   3.877   1.436 -0.6733  0.2231 -0.1796
 1007MOL0     C35837   4.040   3.731   1.416 -0.0144 -1.3104  0.4987
 1007MOL0     C35838   4.103   3.678   1.295  0.5169 -0.2207  0.4583
 1007MOL0     C35839   3.990   3.650   1.522  0.6014 -0.6425 -0.0294
 1007MOL0     C35840   4.009   3.496   1.537  0.3486  0.3719  0.9512
 1007MOL0     O35841   3.912   3.432   1.615  0.3274  0.1898 -0.4130
 1007MOL0     C35842   3.955   3.324   1.680  0.8349  0.2430 -0.6835
 1007MOL0     C35843   4.059   3.327   1.777 -0.2792  0.2750  1.2217
 1007MOL0     C35844   4.112   3.212   1.827  0.6491 -0.1420 -0.3835
 1007MOL0     C35845   4.057   3.087   1.791 -0.4387  0.1097 -0.4035
 1007MOL0     O35846   4.120   2.969   1.831 -0.3636  0.2215 -0.6394
 1007MOL0     C35847   4.211   2.909   1.732 -0.1700  0.3845 -0.4700
 1007MOL0     C35848   4.199   2.754   1.708  0.0071 -0.4489  0.5738
 1007MOL0     C35849   4.172   2.669   1.827  0.4067  0.6029  0.3785
 1007MOL0     C35850   4.294   2.679   1.920 -0.0187 -0.1831  0.6293
 1007MOL0     C35851   4.289   2.553   2.023  0.3751  0.2646 -0.0425
 1007MOL0     C35852   4.162   2.545   2.105 -0.3974 -0.5708  0.0709
 1007MOL0     C35853   4.163   2.442   2.223 -0.3881  0.0908 -0.0866
 1007MOL0     C35854   4.033   2.449   2.304 -0.1081 -0.6595 -0.0849
 1007MOL0    Cl35855   4.021   2.274   2.375  0.1046 -0.2976  0.3503
 1007MOL0     C35856   3.944   3.083   1.714  0.1219 -0.2405  0.3920
 1007MOL0     C35857   3.889   3.201   1.656 -0.7902 -0.7669 -0.5747
 1007MOL0     O35858   4.108   3.442   1.482  0.3024 -0.6261 -0.2415
 1007MOL0     C35859   3.934   3.709   1.639 -0.0454  0.2298  0.3311
 1007MOL0     C35860   3.927   3.848   1.640 -0.1972 -0.7625  0.6664
 1007MOL0     N35861   3.626   3.912   1.873 -0.2086 -0.2758 -0.5341
 1007MOL0     N35862   3.563   3.811   1.816  0.2922  0.8412 -0.8136
 1007MOL0     C35863   2.321   3.615   1.902 -0.7679 -0.4661  0.4685
 1007MOL0     C35864   2.222   3.532   1.943  0.1240 -0.7284 -0.9092
 1007MOL0     C35865   1.963   3.146   1.970 -0.6171  0.5102  1.3606
 1007MOL0     C35866   1.904   3.051   1.882  0.5305  0.3155  0.0641
 1007MOL0     C35867   1.777   3.004   1.918  0.4743  0.1657  0.1081
 1007MOL0     C35868   1.692   3.062   2.008  0.1236  0.8023 -0.3128
 1007MOL0     O35869   1.557   3.023   2.006  0.5479  0.5613  0.0388
 1007MOL0     C35870   1.467   3.074   2.100 -0.0995 -1.0808  0.7092
 1007MOL0     C35871   1.376   3.184   2.028  0.9813  0.2774 -0.4380
 1007MOL0     C35872   1.268   3.251   2.124  0.3675  0.2141 -0.1095
 1007MOL0     C35873   1.324   3.328   2.251  0.6172  0.6070 -0.5312
 1007MOL0     C35874   1.370   3.240   2.363  0.1814  0.4367 -0.4256
 1007MOL0     C35875   1.418   3.162   2.443  0.9939  0.7527 -0.2899
 1007MOL0     C35876   1.750   3.171   2.081  0.4528  0.4974  0.7945
 1007MOL0     C35877   1.885   3.204   2.067  0.3951 -0.0199  0.4005
 1007MOL0     H35878   2.380   3.237   1.911  1.0061 -0.2560 -1.3406
 1007MOL0     H35879   2.573   3.385   1.859 -1.0973 -0.9079 -0.9040
 1007MOL0     H35880   2.722   3.528   1.876  0.8668 -0.5755 -0.3233
 1007MOL0     H35881   2.652   3.557   1.721 -4.5270  0.5920  1.2506
 1007MOL0     H35882   2.740   3.788   1.713  2.6041 -0.2532 -2.5126
 1007MOL0     H35883   2.814   3.776   1.872 -1.2257  1.4187 -0.3122
 1007MOL0     H35884   2.944   3.574   1.784  1.9398  0.2364 -1.6755
 1007MOL0     H35885   2.851   3.577   1.640 -2.8313 -0.6943  2.4391
 1007MOL0     H35886   3.058   3.644   1.596 -2.0321 -0.7511  0.7518
 1007MOL0     H35887   2.972   3.794   1.563 -1.6411 -2.6754 -1.0898
 1007MOL0     H35888   3.135   3.890   1.672 -1.5970  0.4622 -0.6144
 1007MOL0     H35889   3.005   3.888   1.783  1.2258 -0.0523  2.5778
 1007MOL0     H35890   3.217   3.824   1.907  0.9074  0.1674 -0.1524
 1007MOL0     H35891   3.107   3.701   1.909  0.7893 -0.0926  0.7719
 1007MOL0     H35892   3.360   3.635   1.837  0.0302  2.1940  0.9276
 1007MOL0     H35893   3.235   3.593   1.711 -1.8177  1.1354  0.1020
 1007MOL0     H35894   3.313   3.816   1.594  2.1935  1.6628 -0.2684
 1007MOL0     H35895   3.424   3.673   1.625  0.8315 -2.5627  1.8446
 1007MOL0     H35896   3.385   4.048   1.678  0.1270  1.0405  0.1126
 1007MOL0     H35897   3.545   4.236   1.792  1.5116  3.0439  1.1949
 1007MOL0     H35898   3.579   4.180   1.955  0.4864 -0.9800 -0.6662
 1007MOL0     H35899   3.817   4.156   1.907  1.8209 -0.8013 -1.8340
 1007MOL0     H35900   3.757   4.312   1.836  0.1834 -0.2218 -1.3613
 1007MOL0     H35901   3.775   4.225   1.613 -1.3510 -0.9658 -0.1708
 1007MOL0     H35902   3.751   4.060   1.660  0.6950  1.0225 -3.7262
 1007MOL0     H35903   3.975   4.071   1.772  3.7019 -0.1154 -1.8283
 1007MOL0     H35904   4.005   4.226   1.691 -1.2287  2.3550 -3.5706
 1007MOL0     H35905   4.090   3.941   1.363  0.4734  0.9295  1.1825
 1007MOL0     H35906   4.038   3.616   1.233 -0.0357 -1.6579  2.3787
 1007MOL0     H35907   4.127   3.765   1.233  0.7166  0.5119  1.5451
 1007MOL0     H35908   4.197   3.623   1.301  1.6526  1.3373 -1.6169
 1007MOL0     H35909   4.096   3.421   1.817  2.0056  0.1138 -0.2876
 1007MOL0     H35910   4.199   3.208   1.893 -0.7536 -2.0666  1.4877
 1007MOL0     H35911   4.202   2.963   1.638  2.5379  0.8129 -0.5549
 1007MOL0     H35912   4.308   2.932   1.776  0.2135 -3.7949  1.3855
 1007MOL0     H35913   4.114   2.745   1.639 -0.8431 -2.1580  1.7798
 1007MOL0     H35914   4.278   2.713   1.645 -3.0770 -0.8200 -3.5112
 1007MOL0     H35915   4.175   2.564   1.795 -0.6896  1.0585 -1.4092
 1007MOL0     H35916   4.079   2.700   1.875 -1.6684 -3.9163 -0.1915
 1007MOL0     H35917   4.390   2.668   1.869 -0.7742 -0.6848 -0.7225
 1007MOL0     H35918   4.293   2.779   1.963  2.5277 -0.3096  1.1726
 1007MOL0     H35919   4.359   2.576   2.104 -0.6528  2.8270  0.1960
 1007MOL0     H35920   4.315   2.461   1.970 -2.5339 -2.0265  2.1623
 1007MOL0     H35921   4.136   2.644   2.142  2.1675 -1.0860  3.7686
 1007MOL0     H35922   4.087   2.505   2.036  1.1238  1.3967 -2.9151
 1007MOL0     H35923   4.245   2.455   2.293 -1.0037  3.2784  0.1767
 1007MOL0     H35924   4.168   2.339   2.185 -0.6603  0.2900 -0.6887
 1007MOL0     H35925   3.947   2.472   2.241 -3.0367 -0.1931  3.6930
 1007MOL0     H35926   4.042   2.516   2.390 -0.7921 -0.4899 -0.1411
 1007MOL0     H35927   3.898   2.987   1.692 -0.8820  0.5530 -1.1838
 1007MOL0     H35928   3.791   3.200   1.610 -1.1577  2.1919 -0.0831
 1007MOL0     H35929   3.899   3.640   1.715  4.1195 -0.5716  1.7683
 1007MOL0     H35930   3.885   3.893   1.729 -0.6268  0.1462  0.0201
 1007MOL0     H35931   2.307   3.722   1.914 -2.1170 -0.5896  0.1401
 1007MOL0     H35932   2.127   3.574   1.976  0.6090 -1.7262  2.0624
 1007MOL0     H35933   1.949   3.028   1.786 -1.5830  2.4956 -1.5840
 1007MOL0     H35934   1.744   2.934   1.842  1.9711  1.3336 -1.6994
 1007MOL0     H35935   1.390   3.006   2.139  0.8911 -2.2286  0.7348
 1007MOL0     H35936   1.519   3.123   2.183  1.8407 -0.1798 -0.9673
 1007MOL0     H35937   1.341   3.145   1.932  0.1864 -0.5194  0.1644
 1007MOL0     H35938   1.446   3.263   2.000  4.3198 -2.3659 -0.1856
 1007MOL0     H35939   1.185   3.186   2.153 -1.2419  1.0542 -2.5030
 1007MOL0     H35940   1.227   3.332   2.062 -1.7187 -0.2447  0.5851
 1007MOL0     H35941   1.235   3.381   2.287  0.1764 -0.2392 -0.3573
 1007MOL0     H35942   1.402   3.396   2.214 -0.0311  1.0642 -1.0920
 1007MOL0     H35943   1.478   3.114   2.517 -0.4819  2.1455  1.9058
 1007MOL0     H35944   1.694   3.236   2.148  0.7949  1.7844 -0.1246
 1007MOL0     H35945   1.915   3.291   2.124 -1.1267  0.9382 -0.2310
 1008MOL0     O35946   2.444   1.093   3.552 -0.1702 -0.2299  0.2691
 1008MOL0     C35947   2.478   1.127   3.663  0.6986  0.2122  0.2212
 1008MOL0     O35948   2.606   1.130   3.721 -0.5820 -0.2890 -0.5886
 1008MOL0     C35949   2.711   1.062   3.660 -0.4111  1.2510 -1.2441
 1008MOL0     C35950   2.710   0.922   3.665 -0.4799  0.5392 -0.5571
 1008MOL0     C35951   2.810   0.843   3.605 -1.3761 -0.5301  0.9435
 1008MOL0     C35952   2.906   0.910   3.527 -0.7216 -0.1827 -0.2071
 1008MOL0     O35953   3.008   0.831   3.479 -0.1825  0.0561 -0.1373
 1008MOL0     C35954   3.127   0.879   3.411 -0.6712  1.0554  0.3186
 1008MOL0     C35955   3.229   0.757   3.415  1.0973  0.2059  0.1065
 1008MOL0     C35956   3.183   0.632   3.332  0.2609  0.1084 -0.5552
 1008MOL0     C35957   3.288   0.524   3.336 -0.3638  0.5682 -1.0056
 1008MOL0     C35958   3.235   0.398   3.261  0.2035 -1.1401 -0.1672
 1008MOL0     C35959   3.346   0.287   3.240  0.0706 -0.0970  0.1811
 1008MOL0     C35960   3.293   0.154   3.177 -0.2769  0.4675 -0.2191
 1008MOL0     C35961   3.254   0.172   3.026  0.2515  0.0667 -0.2282
 1008MOL0     N35962   3.237   0.041   2.957  0.6924 -0.3169 -0.1227
 1008MOL0     C35963   3.243  -0.075   3.027  0.0083  0.1596  0.0027
 1008MOL0     C35964   3.234  -0.175   2.940  0.5500 -1.1464  0.4402
 1008MOL0     C35965   3.244  -0.325   2.959 -0.0693 -0.0161 -0.0539
 1008MOL0     C35966   3.117  -0.408   2.958 -0.2686  0.1819  0.2360
 1008MOL0     C35967   3.000  -0.340   3.052 -0.0823 -0.6316  0.5010
 1008MOL0     C35968   2.884  -0.439   3.046 -1.2513 -0.2417 -0.2786
 1008MOL0     O35969   2.776  -0.401   3.138 -0.6244  0.5499  0.4740
 1008MOL0     C35970   2.801  -0.423   3.270  0.4211 -0.2083 -0.1973
 1008MOL0     C35971   2.914  -0.488   3.327  1.0236 -0.3720 -0.4639
 1008MOL0     C35972   2.933  -0.490   3.469  0.3511 -0.0876  1.6511
 1008MOL0     C35973   3.067  -0.545   3.519  0.8779 -0.0403  0.1916
 1008MOL0     C35974   2.836  -0.440   3.562  0.4680 -0.9126  0.6361
 1008MOL0     C35975   2.848  -0.427   3.711 -0.5108  0.1576 -0.7236
 1008MOL0     O35976   2.773  -0.332   3.772  0.0645 -0.2743  0.0109
 1008MOL0     C35977   2.765  -0.327   3.907  1.2047 -0.2784  1.1840
 1008MOL0     C35978   2.742  -0.208   3.958 -0.6243 -0.1067 -0.3766
 1008MOL0     C35979   2.739  -0.188   4.100  0.2744  0.4395  0.5033
 1008MOL0     C35980   2.763  -0.302   4.178 -0.3863 -0.2192  0.2290
 1008MOL0     O35981   2.759  -0.283   4.314  0.3913  0.1012 -0.4158
 1008MOL0     C35982   2.679  -0.372   4.386  0.7951 -1.7199 -0.1053
 1008MOL0     C35983   2.742  -0.481   4.469  0.3204  0.4969  0.7580
 1008MOL0     C35984   2.643  -0.591   4.509 -0.0180  0.2151 -0.6044
 1008MOL0     C35985   2.560  -0.535   4.627 -0.5288  0.2386  0.2404
 1008MOL0     C35986   2.441  -0.620   4.664  0.1387 -0.1535  0.2988
 1008MOL0     C35987   2.477  -0.765   4.702 -0.7450 -1.7517  0.9118
 1008MOL0     C35988   2.371  -0.824   4.797 -0.1895 -0.7493 -0.4704
 1008MOL0     C35989   2.398  -0.970   4.823 -0.4010 -0.2341  0.2331
 1008MOL0    Cl35990   2.281  -1.043   4.944  0.4606  0.2833 -0.1690
 1008MOL0     C35991   2.783  -0.429   4.120  0.2213 -1.2917 -0.1388
 1008MOL0     C35992   2.772  -0.441   3.981 -0.4010  0.1428 -0.7365
 1008MOL0     O35993   2.939  -0.485   3.768 -0.1880  0.6848 -0.7206
 1008MOL0     C35994   2.724  -0.378   3.497  0.4800  0.2276 -0.4500
 1008MOL0     C35995   2.710  -0.374   3.357 -0.7378  0.1739  0.4847
 1008MOL0     N35996   3.230  -0.118   2.816  0.6077 -0.9216  0.7094
 1008MOL0     N35997   3.224   0.015   2.825 -1.1540  0.0114  0.2110
 1008MOL0     C35998   2.912   1.050   3.535  1.1005 -0.3884 -0.7276
 1008MOL0     C35999   2.813   1.126   3.599 -0.6258  0.0717 -0.1191
 1008MOL0     C36000   2.360   1.143   3.743  0.1006  0.0018  0.5593
 1008MOL0     C36001   2.245   1.205   3.705 -0.5385 -0.6177  0.2282
 1008MOL0     C36002   2.145   1.229   3.795 -1.0669  0.5826  0.9373
 1008MOL0     C36003   2.159   1.197   3.931  0.7355 -0.0211 -0.0795
 1008MOL0     O36004   2.063   1.205   4.026  0.5921 -0.6983 -0.5297
 1008MOL0     C36005   1.931   1.258   4.000  0.8829 -0.6170 -0.4819
 1008MOL0     C36006   1.839   1.201   4.105 -0.0252  0.5719 -0.1961
 1008MOL0     C36007   1.870   1.214   4.257  0.3727 -0.1792 -0.3138
 1008MOL0     C36008   1.820   1.087   4.311 -0.2053  0.6509 -0.5570
 1008MOL0     C36009   1.841   1.079   4.451 -0.1231  0.0301  0.3606
 1008MOL0     C36010   1.864   1.081   4.569  0.5957 -0.5298  0.6113
 1008MOL0     C36011   2.265   1.125   3.967 -0.4043  0.0057 -0.2917
 1008MOL0     C36012   2.372   1.106   3.879 -0.5716 -0.7527  0.1129
 1008MOL0     H36013   2.625   0.877   3.716  0.7405 -0.0674  1.0404
 1008MOL0     H36014   2.814   0.735   3.619  0.9967 -0.3563  2.1372
 1008MOL0     H36015   3.113   0.914   3.308  0.3372 -0.8324 -0.5142
 1008MOL0     H36016   3.177   0.957   3.470  1.1665 -3.4193  5.5836
 1008MOL0     H36017   3.318   0.800   3.368  0.5588 -0.2335 -1.3737
 1008MOL0     H36018   3.243   0.721   3.517 -3.8596  0.8948  1.2642
 1008MOL0     H36019   3.084   0.601   3.367  0.2581  1.9634  1.2716
 1008MOL0     H36020   3.172   0.680   3.235  0.3333  2.3198  0.4791
 1008MOL0     H36021   3.389   0.547   3.298  1.4160 -4.1105  0.1795
 1008MOL0     H36022   3.278   0.501   3.442 -2.8896 -0.1227 -1.3276
 1008MOL0     H36023   3.138   0.370   3.303  0.5151  0.5661  1.8513
 1008MOL0     H36024   3.208   0.437   3.162 -2.3925 -0.4458  0.7414
 1008MOL0     H36025   3.432   0.319   3.181  0.2894 -2.2583 -0.7955
 1008MOL0     H36026   3.382   0.261   3.340 -0.1408  2.0058  0.8505
 1008MOL0     H36027   3.381   0.090   3.193 -1.3352 -1.1620 -0.7310
 1008MOL0     H36028   3.213   0.109   3.235 -0.7948 -2.1456 -2.7752
 1008MOL0     H36029   3.321   0.235   2.967 -0.0756 -0.8849 -1.6777
 1008MOL0     H36030   3.169   0.241   3.030  2.9047  3.5885  0.5994
 1008MOL0     H36031   3.248  -0.076   3.136  0.3794  0.1091 -0.0140
 1008MOL0     H36032   3.306  -0.367   2.878  0.1136 -0.1993  0.1811
 1008MOL0     H36033   3.316  -0.359   3.034 -1.4075 -1.2731  0.7142
 1008MOL0     H36034   3.137  -0.512   2.985 -1.0433 -1.1722 -3.6315
 1008MOL0     H36035   3.087  -0.423   2.854  0.4841 -0.9674  0.1693
 1008MOL0     H36036   2.970  -0.241   3.015  1.3096  1.1396  3.6923
 1008MOL0     H36037   3.039  -0.329   3.153 -1.0953  2.8981  0.6303
 1008MOL0     H36038   2.932  -0.536   3.063  2.7683  0.7978 -3.9293
 1008MOL0     H36039   2.844  -0.446   2.944  0.4064  1.4095 -1.0915
 1008MOL0     H36040   2.985  -0.549   3.273  0.8499 -1.5938  0.6521
 1008MOL0     H36041   3.121  -0.593   3.437 -2.0603 -0.2874 -1.7534
 1008MOL0     H36042   3.131  -0.472   3.570  4.1179 -0.7001 -2.5685
 1008MOL0     H36043   3.033  -0.625   3.585  1.2819 -0.5258 -0.1807
 1008MOL0     H36044   2.720  -0.136   3.880 -0.1331 -0.1693 -0.5747
 1008MOL0     H36045   2.712  -0.105   4.164 -1.5434 -0.8655  1.5106
 1008MOL0     H36046   2.619  -0.303   4.446 -1.5205 -2.1233 -1.8012
 1008MOL0     H36047   2.608  -0.420   4.318  1.3712  0.5853 -2.5121
 1008MOL0     H36048   2.816  -0.529   4.404 -0.1072 -0.9752  1.3260
 1008MOL0     H36049   2.786  -0.450   4.564  1.0626  1.8180  0.0168
 1008MOL0     H36050   2.703  -0.680   4.529 -0.6184  0.2352  1.5677
 1008MOL0     H36051   2.582  -0.624   4.424 -1.3627  1.0717 -0.0109
 1008MOL0     H36052   2.623  -0.519   4.714  0.3245  0.9130 -0.4787
 1008MOL0     H36053   2.534  -0.431   4.607  2.6761  1.2489  0.7657
 1008MOL0     H36054   2.372  -0.618   4.580  1.4081  0.6849 -0.7595
 1008MOL0     H36055   2.390  -0.578   4.751 -2.0367  3.2078 -2.3793
 1008MOL0     H36056   2.490  -0.821   4.608 -1.2585  1.8304 -1.5186
 1008MOL0     H36057   2.571  -0.749   4.755 -1.7628 -2.6950  3.0870
 1008MOL0     H36058   2.274  -0.792   4.760  0.3387  0.3590 -0.9561
 1008MOL0     H36059   2.377  -0.777   4.896 -1.4002 -0.5628 -0.4794
 1008MOL0     H36060   2.504  -0.985   4.849  0.3318  2.6852 -0.7100
 1008MOL0     H36061   2.383  -1.018   4.726 -1.1358  0.8991 -0.2330
 1008MOL0     H36062   2.805  -0.514   4.184  1.9806 -0.0886  0.9084
 1008MOL0     H36063   2.784  -0.539   3.936  1.3670  0.1684 -0.3653
 1008MOL0     H36064   2.656  -0.332   3.568  0.7140 -2.3337  1.6274
 1008MOL0     H36065   2.621  -0.343   3.303 -2.2438 -1.1589  2.0907
 1008MOL0     H36066   2.998   1.098   3.489  2.6229  0.2122  2.4121
 1008MOL0     H36067   2.815   1.233   3.618  0.2660 -0.1506  1.2312
 1008MOL0     H36068   2.229   1.241   3.604  0.7904  1.6494  0.7606
 1008MOL0     H36069   2.049   1.269   3.762 -2.1582 -0.7983  2.2703
 1008MOL0     H36070   1.923   1.367   4.007  2.2923 -0.5319  0.0735
 1008MOL0     H36071   1.905   1.214   3.903 -1.2534  1.8500 -1.1577
 1008MOL0     H36072   1.847   1.093   4.092 -1.4211  0.7806 -3.7384
 1008MOL0     H36073   1.734   1.211   4.077  0.1600 -0.7587 -1.4335
 1008MOL0     H36074   1.821   1.303   4.297  1.4314  0.7806 -1.0841
 1008MOL0     H36075   1.977   1.222   4.280  0.1259 -2.5390  2.2352
 1008MOL0     H36076   1.866   1.002   4.260  0.0183  0.4321  0.0064
 1008MOL0     H36077   1.711   1.082   4.300 -0.2554  1.1189 -0.2836
 1008MOL0     H36078   1.891   1.087   4.672  0.0451  1.3103  0.6899
 1008MOL0     H36079   2.256   1.063   4.056 -2.9165 -2.2775 -2.0053
 1008MOL0     H36080   2.462   1.054   3.909  1.0618  2.2095  0.8214
 1009MOL0     O36081   8.627   3.713   0.726  0.5947 -0.3603 -0.3686
 1009MOL0     C36082   8.516   3.761   0.720  0.4703 -0.2059  0.2264
 1009MOL0     O36083   8.480   3.854   0.618  0.2717 -0.7037  0.6650
 1009MOL0     C36084   8.558   3.871   0.506  0.5905 -0.1579  0.1746
 1009MOL0     C36085   8.649   3.779   0.448 -0.2386 -0.2155 -0.2107
 1009MOL0     C36086   8.732   3.803   0.338  0.7137 -0.5139  0.2375
 1009MOL0     C36087   8.732   3.935   0.280 -0.1517  0.1472 -0.4474
 1009MOL0     O36088   8.822   3.989   0.189 -0.1282  0.6242  0.3520
 1009MOL0     C36089   8.911   3.896   0.111  0.6433 -0.3569 -0.3415
 1009MOL0     C36090   8.835   3.837  -0.005 -0.8317 -0.1556 -0.5828
 1009MOL0     C36091   8.783   3.954  -0.096 -0.8331  0.3562 -0.0427
 1009MOL0     C36092   8.769   3.907  -0.241  0.0425 -0.6021 -0.0008
 1009MOL0     C36093   8.701   4.020  -0.333 -0.9047  0.3195 -0.2941
 1009MOL0     C36094   8.553   4.015  -0.333 -0.1931  0.4851  0.3489
 1009MOL0     C36095   8.482   4.128  -0.418  0.2530  0.6657 -0.0902
 1009MOL0     C36096   8.518   4.122  -0.568  0.1409 -0.0790 -0.8490
 1009MOL0     N36097   8.473   4.244  -0.638  0.3213  0.2880  0.6618
 1009MOL0     C36098   8.525   4.308  -0.747 -1.0208  0.3690  0.0883
 1009MOL0     C36099   8.451   4.417  -0.754  0.1569 -0.6748  0.4741
 1009MOL0     C36100   8.496   4.533  -0.849 -0.2287 -0.8937  0.3015
 1009MOL0     C36101   8.397   4.532  -0.968  1.1404  0.0905 -0.2950
 1009MOL0     C36102   8.408   4.643  -1.070 -0.2375 -0.6441  0.4058
 1009MOL0     C36103   8.541   4.648  -1.145  1.1505  0.3624  1.1243
 1009MOL0     O36104   8.554   4.729  -1.266 -0.2561 -0.6124 -0.2576
 1009MOL0     C36105   8.678   4.720  -1.329 -0.0334  0.4155 -1.0018
 1009MOL0     C36106   8.780   4.632  -1.280  0.9166  0.0052 -0.2500
 1009MOL0     C36107   8.890   4.603  -1.362 -0.9674  0.0918 -0.1252
 1009MOL0     C36108   9.006   4.522  -1.307  0.3901  0.2086 -0.1295
 1009MOL0     C36109   8.899   4.669  -1.492  0.0828  0.3305 -0.1359
 1009MOL0     C36110   9.023   4.662  -1.579 -0.1463 -0.4705  0.3662
 1009MOL0     O36111   8.993   4.684  -1.708  0.0125 -0.4971 -0.6792
 1009MOL0     C36112   9.088   4.695  -1.804 -0.5814  0.7436  0.5038
 1009MOL0     C36113   9.162   4.585  -1.839 -0.5221  0.8299 -0.2140
 1009MOL0     C36114   9.277   4.591  -1.926 -0.0649 -0.0323  1.0804
 1009MOL0     C36115   9.319   4.717  -1.973  0.5064  0.2664 -1.3119
 1009MOL0     O36116   9.427   4.738  -2.056  0.0588  0.3086  0.3086
 1009MOL0     C36117   9.451   4.651  -2.168  0.6452  0.8485 -0.2297
 1009MOL0     C36118   9.328   4.628  -2.264  0.8097  0.3144  0.3152
 1009MOL0     C36119   9.251   4.761  -2.304  1.2735  0.2053 -0.2192
 1009MOL0     C36120   9.138   4.734  -2.404  0.2278 -0.0432 -0.5393
 1009MOL0     C36121   9.033   4.834  -2.398 -0.4499 -0.2169  0.1610
 1009MOL0     C36122   9.100   4.976  -2.429 -0.7221 -0.9173  0.1632
 1009MOL0     C36123   9.093   5.018  -2.570 -0.0854  0.2013  0.8032
 1009MOL0     C36124   9.138   5.169  -2.591 -0.1806  0.6799  0.1965
 1009MOL0    Cl36125   9.017   5.291  -2.544 -0.5413  0.3995 -0.3867
 1009MOL0     C36126   9.239   4.824  -1.937 -0.0208 -0.3456  0.6651
 1009MOL0     C36127   9.129   4.821  -1.856 -0.3519  0.5664 -0.4391
 1009MOL0     O36128   9.139   4.668  -1.534  0.5069  0.2414 -0.1921
 1009MOL0     C36129   8.787   4.743  -1.542  0.0288 -0.9747 -1.0533
 1009MOL0     C36130   8.678   4.763  -1.461  0.4387 -0.3049  0.6124
 1009MOL0     N36131   8.345   4.414  -0.671  0.3505 -0.2542 -0.5660
 1009MOL0     N36132   8.359   4.313  -0.596  0.3041  0.8796  0.2049
 1009MOL0     C36133   8.646   4.033   0.339  0.3682 -0.1927  0.9268
 1009MOL0     C36134   8.564   3.994   0.444  0.4820  0.2877 -0.4436
 1009MOL0     C36135   8.436   3.750   0.847  0.4306  0.4269 -0.9987
 1009MOL0     C36136   8.311   3.805   0.866  0.4107 -0.3259 -1.1722
 1009MOL0     C36137   8.232   3.762   0.975 -0.4047 -0.9293  1.0618
 1009MOL0     C36138   8.274   3.669   1.069  0.5265 -0.2839  0.7647
 1009MOL0     O36139   8.189   3.647   1.182 -1.1551  0.1485 -0.0191
 1009MOL0     C36140   8.225   3.554   1.286  0.1053 -0.2610 -0.7095
 1009MOL0     C36141   8.204   3.413   1.234  0.8493 -0.3212 -0.7176
 1009MOL0     C36142   8.056   3.403   1.194  0.6712  1.0970  0.0227
 1009MOL0     C36143   7.954   3.454   1.297 -0.0192  0.3457  0.1591
 1009MOL0     C36144   7.963   3.376   1.426 -0.3964  0.0677 -0.6259
 1009MOL0     C36145   7.982   3.308   1.525 -0.0878 -0.0962  0.8062
 1009MOL0     C36146   8.408   3.614   1.059  0.2491 -0.4601  0.2600
 1009MOL0     C36147   8.482   3.651   0.947 -0.8391 -0.3650  0.5835
 1009MOL0     H36148   8.663   3.675   0.475  3.3089  0.2479  0.1378
 1009MOL0     H36149   8.808   3.728   0.320  2.6390  1.1694  0.8647
 1009MOL0     H36150   9.001   3.946   0.073  1.9343 -2.6338 -0.4622
 1009MOL0     H36151   8.941   3.804   0.162 -1.5426 -0.4666  0.8713
 1009MOL0     H36152   8.898   3.761  -0.052 -0.7277 -1.1037  0.9811
 1009MOL0     H36153   8.748   3.785   0.039 -0.2099 -3.0688 -2.4919
 1009MOL0     H36154   8.678   3.973  -0.071 -0.6485  0.9939  0.2508
 1009MOL0     H36155   8.838   4.046  -0.078  2.5726 -1.7653  1.3240
 1009MOL0     H36156   8.863   3.890  -0.293 -0.4552  1.0331 -1.5564
 1009MOL0     H36157   8.707   3.817  -0.231  1.8742 -1.6619  4.6323
 1009MOL0     H36158   8.739   4.115  -0.294  0.5612 -0.1013 -0.6442
 1009MOL0     H36159   8.742   4.011  -0.434 -0.4656  1.7895 -0.2713
 1009MOL0     H36160   8.521   3.925  -0.386  3.1275  0.6932 -2.3060
 1009MOL0     H36161   8.514   4.006  -0.231  0.9385 -3.3755  0.6274
 1009MOL0     H36162   8.373   4.128  -0.411  0.1478  0.1147 -1.4916
 1009MOL0     H36163   8.501   4.231  -0.386  0.6485  2.2080 -4.5415
 1009MOL0     H36164   8.459   4.033  -0.589 -1.1779  1.0069 -1.9450
 1009MOL0     H36165   8.627   4.123  -0.575  0.2882  0.7141  0.9406
 1009MOL0     H36166   8.613   4.283  -0.805 -1.5343  0.4167 -0.7309
 1009MOL0     H36167   8.487   4.628  -0.794  2.2991 -0.7933  0.6636
 1009MOL0     H36168   8.598   4.528  -0.888 -0.5128  1.0106 -0.8451
 1009MOL0     H36169   8.296   4.528  -0.927  2.1111  1.7460  2.5524
 1009MOL0     H36170   8.403   4.439  -1.024 -1.6141 -0.7997  0.7297
 1009MOL0     H36171   8.389   4.739  -1.020  0.5065 -0.9172  1.2176
 1009MOL0     H36172   8.325   4.620  -1.138 -1.4344  0.7731  1.2964
 1009MOL0     H36173   8.555   4.545  -1.180  2.5049  1.5900 -2.4148
 1009MOL0     H36174   8.617   4.677  -1.071 -0.0352  1.1108  2.0919
 1009MOL0     H36175   8.781   4.602  -1.176 -1.7500  3.0829  0.8200
 1009MOL0     H36176   9.071   4.593  -1.256  2.0891 -1.2350 -0.1730
 1009MOL0     H36177   8.965   4.440  -1.247  1.9458  0.6922  1.6885
 1009MOL0     H36178   9.065   4.477  -1.388 -1.0836  0.3665 -1.3257
 1009MOL0     H36179   9.130   4.492  -1.792 -0.4553  1.5956  1.4077
 1009MOL0     H36180   9.320   4.492  -1.936 -1.9504 -0.7013 -1.5057
 1009MOL0     H36181   9.528   4.701  -2.227  2.4644  0.5300  1.7653
 1009MOL0     H36182   9.487   4.552  -2.139  2.1836  0.9501 -1.6479
 1009MOL0     H36183   9.362   4.569  -2.350  1.8277 -0.0796  0.9757
 1009MOL0     H36184   9.258   4.565  -2.207  0.1180  1.9303  1.3181
 1009MOL0     H36185   9.327   4.833  -2.335  0.8065  2.3813  3.1060
 1009MOL0     H36186   9.208   4.808  -2.215  2.0699  1.2092 -0.3405
 1009MOL0     H36187   9.183   4.727  -2.504 -2.1619  1.1483 -1.7665
 1009MOL0     H36188   9.082   4.642  -2.384  0.7376 -0.0504  0.9963
 1009MOL0     H36189   8.999   4.845  -2.294 -2.8421  0.2458 -0.6155
 1009MOL0     H36190   8.951   4.813  -2.467 -3.3500  0.4264  3.1820
 1009MOL0     H36191   9.047   5.060  -2.383  0.0955  1.8320 -3.4265
 1009MOL0     H36192   9.203   4.980  -2.393 -1.6424 -1.6759  3.1145
 1009MOL0     H36193   8.993   5.005  -2.613  0.2294  0.6518 -0.1023
 1009MOL0     H36194   9.161   4.954  -2.627  0.1103  0.3307  0.8897
 1009MOL0     H36195   9.160   5.168  -2.698 -0.2831 -3.5101  0.0666
 1009MOL0     H36196   9.235   5.189  -2.544 -0.4429 -1.8311  2.0151
 1009MOL0     H36197   9.265   4.918  -1.984 -0.2437  1.1341  3.3139
 1009MOL0     H36198   9.071   4.910  -1.834 -4.6393 -1.7011 -1.4721
 1009MOL0     H36199   8.780   4.776  -1.645 -0.4775 -0.1785 -0.7714
 1009MOL0     H36200   8.585   4.805  -1.499 -0.4336 -1.2108  1.6990
 1009MOL0     H36201   8.628   4.134   0.302 -0.6217 -0.3504  0.9373
 1009MOL0     H36202   8.496   4.062   0.494  1.6265  1.6517 -0.6816
 1009MOL0     H36203   8.271   3.871   0.790  0.5972  0.6301 -0.4505
 1009MOL0     H36204   8.130   3.798   0.979  0.1388  0.5819  2.3580
 1009MOL0     H36205   8.322   3.571   1.333  1.6211 -2.1719 -2.9094
 1009MOL0     H36206   8.159   3.573   1.371 -3.2416 -0.7646 -2.9732
 1009MOL0     H36207   8.237   3.338   1.306  0.0068  1.3267  1.4865
 1009MOL0     H36208   8.264   3.398   1.143 -0.3220  0.8088 -1.7155
 1009MOL0     H36209   8.018   3.307   1.158  2.0359  1.5456 -2.8645
 1009MOL0     H36210   8.047   3.471   1.109  3.6836  1.2802 -0.2572
 1009MOL0     H36211   7.853   3.453   1.254  0.2482 -3.1135 -0.6626
 1009MOL0     H36212   7.957   3.560   1.325 -1.2538  0.6547 -0.7630
 1009MOL0     H36213   8.009   3.263   1.619  1.8821  0.5548  0.6032
 1009MOL0     H36214   8.466   3.559   1.133  1.8075 -0.7529 -1.1168
 1009MOL0     H36215   8.586   3.619   0.949  0.0567  2.2782  1.5869
 1010MOL0     O36216   5.811   9.401   9.687  0.4111  0.4920  0.7178
 1010MOL0     C36217   5.857   9.346   9.784 -0.6008  1.1447 -0.5596
 1010MOL0     O36218   5.940   9.238   9.775  0.1901 -0.5814 -0.3439
 1010MOL0     C36219   5.950   9.180   9.648  0.3200  0.2090 -0.3786
 1010MOL0     C36220   5.836   9.131   9.581  0.3738 -0.1686  0.6647
 1010MOL0     C36221   5.855   9.064   9.462 -0.6810  0.7064  1.0969
 1010MOL0     C36222   5.980   9.026   9.409 -0.1534 -1.3595 -1.4465
 1010MOL0     O36223   6.003   8.937   9.312  1.1911  0.1090 -0.8306
 1010MOL0     C36224   6.018   8.803   9.357 -0.0142  0.7707  0.7354
 1010MOL0     C36225   6.129   8.728   9.289 -0.5745 -0.5944 -0.4868
 1010MOL0     C36226   6.258   8.794   9.323 -0.3515 -0.9083 -0.0858
 1010MOL0     C36227   6.376   8.720   9.269 -0.2388 -0.3283 -0.0702
 1010MOL0     C36228   6.502   8.809   9.304  0.0553 -0.1489  0.7436
 1010MOL0     C36229   6.638   8.747   9.256 -0.0313 -0.2905  0.0359
 1010MOL0     C36230   6.752   8.857   9.282  0.3255 -0.3649  0.0212
 1010MOL0     C36231   6.899   8.806   9.250 -1.0346 -1.2845  0.3726
 1010MOL0     N36232   6.995   8.921   9.221  0.8971 -0.6052  0.3530
 1010MOL0     C36233   6.976   9.040   9.301 -0.0228  0.5283 -0.5354
 1010MOL0     C36234   7.050   9.142   9.235 -0.5623  0.5948 -0.1188
 1010MOL0     C36235   7.061   9.283   9.280  0.2363 -0.5159  0.1324
 1010MOL0     C36236   7.156   9.321   9.395  0.2043  0.1278 -0.4839
 1010MOL0     C36237   7.301   9.315   9.373  0.3588 -0.0727  0.2024
 1010MOL0     C36238   7.375   9.337   9.498 -0.7327  0.1790  0.4809
 1010MOL0     O36239   7.336   9.229   9.578 -0.1512 -0.7126 -0.4287
 1010MOL0     C36240   7.427   9.147   9.642  0.6319 -0.0202 -0.1544
 1010MOL0     C36241   7.376   9.059   9.734  0.1651 -1.6016 -0.3445
 1010MOL0     C36242   7.465   8.969   9.793 -0.4893  0.7075  0.4508
 1010MOL0     C36243   7.395   8.861   9.880  0.2163  0.2929 -0.4232
 1010MOL0     C36244   7.599   8.956   9.751  0.6171 -0.2105 -0.7240
 1010MOL0     C36245   7.691   8.852   9.817  0.3118 -1.7174  0.8145
 1010MOL0     O36246   7.657   8.791   9.934  0.4157 -0.6530  0.1861
 1010MOL0     C36247   7.747   8.747  10.029 -0.0459 -0.3561 -0.4319
 1010MOL0     C36248   7.884   8.783  10.043 -0.6151 -0.7054  0.3783
 1010MOL0     C36249   7.972   8.724  10.141 -0.1850 -0.2702  0.3579
 1010MOL0     C36250   7.926   8.626  10.225 -0.3420 -0.0686  0.8890
 1010MOL0     O36251   8.018   8.553  10.290  0.5087 -0.4522  0.2286
 1010MOL0     C36252   7.992   8.527  10.430  0.2520  0.1980  0.5540
 1010MOL0     C36253   8.120   8.510  10.520  0.0415  0.0160  0.3824
 1010MOL0     C36254   8.231   8.419  10.455  0.6375  0.4390  0.2611
 1010MOL0     C36255   8.350   8.384  10.549  0.4211 -0.1730 -0.2725
 1010MOL0     C36256   8.454   8.314  10.453  1.4935 -0.0420  0.1651
 1010MOL0     C36257   8.573   8.277  10.540 -0.0320  0.5343  1.5104
 1010MOL0     C36258   8.662   8.397  10.577  0.1339 -0.5815  0.7640
 1010MOL0     C36259   8.711   8.481  10.460 -0.1900  0.0680  0.4955
 1010MOL0    Cl36260   8.779   8.387  10.332  0.1734  0.2481  0.3577
 1010MOL0     C36261   7.784   8.604  10.236 -0.2469  0.1622 -0.0307
 1010MOL0     C36262   7.698   8.664  10.137 -0.7719  0.5212 -0.6479
 1010MOL0     O36263   7.809   8.865   9.774  0.2976  1.1561  0.2123
 1010MOL0     C36264   7.642   9.052   9.670  0.3625  0.7512 -0.1447
 1010MOL0     C36265   7.561   9.139   9.602 -0.2895  0.5212  0.5714
 1010MOL0     N36266   7.102   9.076   9.122  0.2798  0.2842  0.1045
 1010MOL0     N36267   7.067   8.955   9.110  0.0770 -0.2494 -0.2501
 1010MOL0     C36268   6.094   9.074   9.478  0.5982  0.1942 -0.7901
 1010MOL0     C36269   6.076   9.146   9.599 -0.7725 -0.2750  1.1198
 1010MOL0     C36270   5.831   9.420   9.910  0.3270 -0.0954 -1.3324
 1010MOL0     C36271   5.897   9.382  10.027  0.0969 -0.3484 -0.7806
 1010MOL0     C36272   5.901   9.476  10.134  0.3685 -0.1994 -0.6048
 1010MOL0     C36273   5.808   9.581  10.138 -0.4522  0.1350 -0.0469
 1010MOL0     O36274   5.802   9.645  10.259  0.0656 -0.0566  0.6498
 1010MOL0     C36275   5.707   9.752  10.273 -0.4447  0.0792  0.1537
 1010MOL0     C36276   5.734   9.813  10.413  0.1623 -1.5357  0.1408
 1010MOL0     C36277   5.616   9.824  10.497 -0.0958 -0.0596 -0.0409
 1010MOL0     C36278   5.643   9.876  10.643  0.1957 -0.8757 -0.3741
 1010MOL0     C36279   5.726   9.772  10.710 -0.7918  0.2900 -0.1105
 1010MOL0     C36280   5.786   9.684  10.767  0.3338 -0.6619  0.4573
 1010MOL0     C36281   5.727   9.602  10.034  0.4468  0.6340  1.2017
 1010MOL0     C36282   5.741   9.528   9.915 -0.4201 -0.2039 -0.6418
 1010MOL0     H36283   5.736   9.159   9.612 -0.4484 -5.0760  3.4703
 1010MOL0     H36284   5.766   9.037   9.407  0.5357  0.8871 -1.0983
 1010MOL0     H36285   6.045   8.798   9.463  2.2318 -2.1356  0.1462
 1010MOL0     H36286   5.922   8.751   9.348  0.8649 -1.3881  2.8012
 1010MOL0     H36287   6.122   8.625   9.327  1.9668 -0.4260  0.6703
 1010MOL0     H36288   6.111   8.716   9.182 -1.2696 -1.3886 -0.3019
 1010MOL0     H36289   6.269   8.898   9.293  2.9476 -1.0953  0.0767
 1010MOL0     H36290   6.264   8.808   9.432 -0.6230 -0.6273 -0.1055
 1010MOL0     H36291   6.374   8.619   9.310 -3.5137 -1.3600 -2.3767
 1010MOL0     H36292   6.363   8.708   9.161 -0.8097 -1.1969  0.0826
 1010MOL0     H36293   6.498   8.901   9.246 -2.6473 -0.4718  0.2713
 1010MOL0     H36294   6.509   8.832   9.411 -0.9951  0.1840  0.7479
 1010MOL0     H36295   6.655   8.668   9.329  0.5749  1.8919  2.3984
 1010MOL0     H36296   6.640   8.710   9.153 -2.5739  0.2405 -0.2692
 1010MOL0     H36297   6.724   8.936   9.213  1.7372 -1.3408 -1.7526
 1010MOL0     H36298   6.739   8.901   9.382  1.4981 -1.5568  0.7388
 1010MOL0     H36299   6.886   8.748   9.158 -3.2962 -0.4199  0.0673
 1010MOL0     H36300   6.933   8.734   9.324 -0.1544 -0.9267  0.3226
 1010MOL0     H36301   6.918   9.042   9.393 -0.4462  0.0061 -0.7887
 1010MOL0     H36302   7.091   9.342   9.193 -1.4435  1.6885  0.9734
 1010MOL0     H36303   6.958   9.318   9.281  0.6414  0.8244 -1.1989
 1010MOL0     H36304   7.131   9.262   9.484 -0.6660  0.6805 -0.3403
 1010MOL0     H36305   7.122   9.421   9.426  1.7105  1.3587 -2.5111
 1010MOL0     H36306   7.325   9.394   9.301  1.1962 -0.8699 -0.4207
 1010MOL0     H36307   7.328   9.221   9.325 -0.7934  0.3930 -1.4134
 1010MOL0     H36308   7.327   9.423   9.547 -1.5600 -0.8789  1.5756
 1010MOL0     H36309   7.482   9.361   9.489 -1.2766  2.6121 -0.2707
 1010MOL0     H36310   7.272   9.074   9.760  1.1780  4.6170  2.0510
 1010MOL0     H36311   7.404   8.871   9.988 -4.2673  1.3448  0.0621
 1010MOL0     H36312   7.288   8.857   9.859  0.1749 -0.4558 -0.0730
 1010MOL0     H36313   7.430   8.761   9.856  0.1012 -0.4498  2.2194
 1010MOL0     H36314   7.934   8.844   9.969 -0.8479 -2.1261 -1.0130
 1010MOL0     H36315   8.077   8.749  10.145 -0.2294  0.3276 -1.5606
 1010MOL0     H36316   7.936   8.613  10.469  0.4544  0.3496  0.5094
 1010MOL0     H36317   7.946   8.429  10.449 -1.4774  0.3270 -2.4012
 1010MOL0     H36318   8.169   8.607  10.533 -1.4483  0.6056  1.9749
 1010MOL0     H36319   8.099   8.465  10.618  0.1123 -3.3908 -1.0140
 1010MOL0     H36320   8.273   8.482  10.376  1.7349  2.3729  2.2926
 1010MOL0     H36321   8.186   8.327  10.417 -2.5852  1.5527  1.0549
 1010MOL0     H36322   8.391   8.472  10.599  2.5675 -1.4332  0.3314
 1010MOL0     H36323   8.322   8.315  10.629  1.5856 -1.7455 -1.1602
 1010MOL0     H36324   8.497   8.372  10.371 -0.9632 -0.4062 -1.5120
 1010MOL0     H36325   8.411   8.238  10.387 -0.0991  1.2510 -0.3735
 1010MOL0     H36326   8.538   8.230  10.632  0.5662 -0.5629  1.1865
 1010MOL0     H36327   8.638   8.211  10.482 -2.7626  0.6046 -1.9144
 1010MOL0     H36328   8.753   8.380  10.635  0.6265  1.9560  0.8429
 1010MOL0     H36329   8.613   8.461  10.651  1.9475 -1.1953  2.6064
 1010MOL0     H36330   8.796   8.539  10.496  0.5945 -0.5056 -0.3991
 1010MOL0     H36331   8.634   8.545  10.417  0.9215 -0.1968 -2.1339
 1010MOL0     H36332   7.732   8.533  10.301  1.9074 -2.4166 -0.9407
 1010MOL0     H36333   7.592   8.645  10.132 -0.7176  0.2035 -0.6121
 1010MOL0     H36334   7.744   9.051   9.632 -0.2358 -1.7951 -1.9243
 1010MOL0     H36335   7.602   9.198   9.521  0.2542 -0.3077  0.2245
 1010MOL0     H36336   6.197   9.049   9.454  0.9545 -2.1253  2.4226
 1010MOL0     H36337   6.166   9.181   9.648  1.1283 -0.5724 -1.9356
 1010MOL0     H36338   5.976   9.308  10.022  1.7744  1.3136 -0.2407
 1010MOL0     H36339   5.968   9.458  10.218  1.6732 -1.5193 -1.8579
 1010MOL0     H36340   5.717   9.823  10.190  2.1241  1.4755  1.5565
 1010MOL0     H36341   5.611   9.699  10.271  0.3156 -1.3317  0.1414
 1010MOL0     H36342   5.771   9.916  10.411 -0.7650 -1.1796  0.8574
 1010MOL0     H36343   5.813   9.757  10.463  0.6816 -1.0542 -0.1237
 1010MOL0     H36344   5.562   9.731  10.514  1.7739 -1.3798 -0.9523
 1010MOL0     H36345   5.540   9.887  10.449  0.1816 -0.0799 -0.5064
 1010MOL0     H36346   5.548   9.908  10.685  0.5465  1.9530 -1.5091
 1010MOL0     H36347   5.708   9.964  10.637 -0.4601 -0.4389 -1.2725
 1010MOL0     H36348   5.836   9.607  10.823 -0.3427 -1.5567 -0.1295
 1010MOL0     H36349   5.661   9.687  10.034 -1.0679 -0.4045  4.0437
 1010MOL0     H36350   5.695   9.564   9.823 -0.7674  3.4328  0.7982
 1011MOL0     O36351  10.263   1.999   9.196  0.3536  0.7172  0.3727
 1011MOL0     C36352  10.193   1.922   9.253  1.1766 -0.1113  0.9464
 1011MOL0     O36353  10.101   1.851   9.192 -0.0446  0.1788 -0.4403
 1011MOL0     C36354  10.054   1.732   9.238  0.7667  1.3970 -0.3755
 1011MOL0     C36355   9.919   1.734   9.285  0.3236  0.5364  0.2841
 1011MOL0     C36356   9.860   1.618   9.322 -0.1763  0.4959  0.6707
 1011MOL0     C36357   9.924   1.495   9.313 -0.3507 -0.2377  0.6105
 1011MOL0     O36358   9.867   1.376   9.348  0.6705  0.1538 -1.0548
 1011MOL0     C36359   9.727   1.348   9.321 -0.2987  0.4794 -0.4600
 1011MOL0     C36360   9.669   1.207   9.346  0.3012 -0.3737 -0.0774
 1011MOL0     C36361   9.756   1.096   9.424  0.3155  0.6484 -1.9389
 1011MOL0     C36362   9.888   1.059   9.361 -0.6844  0.1024 -0.5063
 1011MOL0     C36363  10.005   1.036   9.462  0.1273  0.2294 -0.7284
 1011MOL0     C36364  10.137   1.004   9.390  0.3499 -0.1262 -0.6877
 1011MOL0     C36365  10.136   0.865   9.329  0.5854 -0.4681 -0.6272
 1011MOL0     C36366  10.270   0.799   9.286 -0.1051 -0.8323  0.5452
 1011MOL0     N36367  10.325   0.896   9.188 -0.1644  0.8475  0.0004
 1011MOL0     C36368  10.300   0.895   9.054  0.3829 -1.2986  0.2288
 1011MOL0     C36369  10.384   0.994   8.997 -0.6235  0.3810  0.1021
 1011MOL0     C36370  10.399   1.032   8.848 -0.0612  0.3128 -0.2759
 1011MOL0     C36371  10.262   1.049   8.775  0.1189  1.1268 -0.6318
 1011MOL0     C36372  10.270   1.098   8.639 -0.1466  0.0349 -0.2075
 1011MOL0     C36373  10.370   1.025   8.550 -0.3169 -0.3069  0.1230
 1011MOL0     O36374  10.344   1.068   8.421  0.2164  0.4188 -0.0300
 1011MOL0     C36375  10.431   1.141   8.342 -0.4701  0.2174 -0.6083
 1011MOL0     C36376  10.421   1.144   8.206  0.2295 -0.5587 -0.4521
 1011MOL0     C36377  10.515   1.208   8.125  0.3782 -0.0916 -0.1426
 1011MOL0     C36378  10.515   1.162   7.980  0.7079 -0.0298 -0.3894
 1011MOL0     C36379  10.613   1.291   8.190  1.3978  1.0922  0.2046
 1011MOL0     C36380  10.718   1.376   8.116 -0.4012  0.0513 -1.4023
 1011MOL0     O36381  10.795   1.444   8.202  0.4075 -1.4843  0.4057
 1011MOL0     C36382  10.909   1.506   8.157 -0.0177 -0.3934  0.8450
 1011MOL0     C36383  11.028   1.440   8.129  0.2708  0.1356 -0.0414
 1011MOL0     C36384  11.141   1.503   8.075  0.0886  0.1567 -1.1974
 1011MOL0     C36385  11.147   1.637   8.048 -0.7835 -0.4035  0.8085
 1011MOL0     O36386  11.257   1.696   7.993 -0.5593 -0.4849 -0.2033
 1011MOL0     C36387  11.240   1.809   7.906 -0.0280 -0.4354 -0.0743
 1011MOL0     C36388  11.258   1.943   7.990 -0.4366  0.6832 -0.1802
 1011MOL0     C36389  11.275   2.062   7.897 -0.0635  0.3021  0.8612
 1011MOL0     C36390  11.321   2.189   7.970 -0.5896  1.1720  0.3853
 1011MOL0     C36391  11.386   2.294   7.865  0.1767  0.2534  0.3866
 1011MOL0     C36392  11.292   2.365   7.773  0.1741  0.0286  0.8212
 1011MOL0     C36393  11.354   2.470   7.684  0.2106 -0.3559 -0.2177
 1011MOL0     C36394  11.258   2.563   7.615  0.1710 -0.3539  0.5140
 1011MOL0    Cl36395  11.142   2.470   7.509 -0.5763 -0.4301 -0.0748
 1011MOL0     C36396  11.029   1.702   8.074 -0.5193 -0.4245 -0.2631
 1011MOL0     C36397  10.912   1.639   8.122  0.0810 -0.5189 -1.5267
 1011MOL0     O36398  10.723   1.381   7.993  0.2640 -0.1550 -0.4655
 1011MOL0     C36399  10.616   1.295   8.325 -0.2085 -0.9103  0.0984
 1011MOL0     C36400  10.531   1.226   8.407 -0.2669  0.0133  0.9188
 1011MOL0     N36401  10.465   1.031   9.101 -0.7531 -0.1964 -0.3995
 1011MOL0     N36402  10.426   0.986   9.209 -0.5648 -0.7006  0.5222
 1011MOL0     C36403  10.053   1.486   9.260 -0.1854  0.1664 -0.2217
 1011MOL0     C36404  10.115   1.603   9.223 -0.4698 -0.3412  0.4529
 1011MOL0     C36405  10.235   1.892   9.388 -0.9645 -0.2436 -0.1086
 1011MOL0     C36406  10.373   1.854   9.413 -0.6492 -0.5980  0.6117
 1011MOL0     C36407  10.414   1.815   9.531  0.9075 -0.2124 -0.3729
 1011MOL0     C36408  10.326   1.818   9.644  1.1108  0.7425 -0.5737
 1011MOL0     O36409  10.363   1.794   9.781 -0.4369 -0.0805 -0.8209
 1011MOL0     C36410  10.485   1.854   9.819 -0.0553 -0.4869 -1.3414
 1011MOL0     C36411  10.587   1.748   9.873 -0.3511  0.2972  0.4379
 1011MOL0     C36412  10.575   1.717  10.020  0.1871  0.2165 -0.1584
 1011MOL0     C36413  10.704   1.760  10.080 -0.1933 -0.9022 -0.2433
 1011MOL0     C36414  10.695   1.717  10.220 -0.2484  0.3752 -0.2479
 1011MOL0     C36415  10.689   1.693  10.338 -0.4295  0.3403  0.2956
 1011MOL0     C36416  10.186   1.844   9.630 -0.8269 -0.5322  0.1782
 1011MOL0     C36417  10.152   1.876   9.498 -0.3010  0.5935 -0.4588
 1011MOL0     H36418   9.864   1.827   9.284  2.2809  1.7457 -1.3177
 1011MOL0     H36419   9.755   1.624   9.347 -0.4689 -0.3588 -0.2761
 1011MOL0     H36420   9.680   1.423   9.386 -1.4578 -0.1277 -0.5731
 1011MOL0     H36421   9.704   1.378   9.219 -2.0542 -1.1204 -0.5814
 1011MOL0     H36422   9.573   1.214   9.397  0.2038 -0.4980 -0.2437
 1011MOL0     H36423   9.651   1.163   9.248  0.1743  1.5882 -0.9732
 1011MOL0     H36424   9.764   1.127   9.528  0.0995 -3.3594 -0.5725
 1011MOL0     H36425   9.698   1.005   9.438  1.5455  0.1151  0.1036
 1011MOL0     H36426   9.872   0.973   9.296 -1.7978 -0.0149 -0.1146
 1011MOL0     H36427   9.927   1.147   9.309  0.0601  0.3862  0.4901
 1011MOL0     H36428  10.013   1.118   9.534 -3.9017 -0.1943  0.4644
 1011MOL0     H36429   9.977   0.951   9.526  0.8921  0.9617  0.6331
 1011MOL0     H36430  10.162   1.082   9.317 -3.6686 -0.4571 -2.6882
 1011MOL0     H36431  10.208   1.002   9.473 -3.0878 -2.2521  2.5741
 1011MOL0     H36432  10.087   0.798   9.399  2.7789  0.0417  1.5325
 1011MOL0     H36433  10.073   0.870   9.240 -1.0030  3.6038  0.4999
 1011MOL0     H36434  10.242   0.709   9.230 -1.5993  2.1123 -3.9234
 1011MOL0     H36435  10.336   0.766   9.368  1.2566 -1.5223 -0.7794
 1011MOL0     H36436  10.236   0.830   8.995  3.9016 -3.1219 -1.9757
 1011MOL0     H36437  10.452   1.127   8.840  1.7199 -0.5072  1.0799
 1011MOL0     H36438  10.451   0.952   8.795 -0.7987  0.7355 -1.7051
 1011MOL0     H36439  10.185   1.108   8.826 -0.9214 -0.8326  0.1576
 1011MOL0     H36440  10.219   0.951   8.753  0.5706  1.2201 -1.9992
 1011MOL0     H36441  10.279   1.207   8.644  0.2365 -0.0499  3.2903
 1011MOL0     H36442  10.168   1.078   8.603 -0.4232 -1.1785  1.1118
 1011MOL0     H36443  10.341   0.920   8.558  0.5674 -0.6748 -1.2129
 1011MOL0     H36444  10.473   1.029   8.587 -0.0986  0.7527 -0.5699
 1011MOL0     H36445  10.334   1.094   8.166  0.2848 -0.5124 -0.6308
 1011MOL0     H36446  10.436   1.090   7.958  1.8409 -1.5957  0.4475
 1011MOL0     H36447  10.479   1.242   7.915 -2.4342 -0.0440  1.1705
 1011MOL0     H36448  10.608   1.111   7.951 -0.2383 -0.7154 -2.4190
 1011MOL0     H36449  11.022   1.333   8.141  3.3206 -0.4367 -2.3602
 1011MOL0     H36450  11.218   1.433   8.043  0.5675  0.2536 -0.2903
 1011MOL0     H36451  11.323   1.810   7.835  0.1919  0.0237  0.1831
 1011MOL0     H36452  11.145   1.801   7.851  0.3328 -0.7461 -0.6553
 1011MOL0     H36453  11.192   1.965   8.075  3.1807  1.2866  2.6977
 1011MOL0     H36454  11.360   1.942   8.029 -0.2298  0.0591 -0.7175
 1011MOL0     H36455  11.184   2.090   7.843  1.8628 -0.3192 -3.0380
 1011MOL0     H36456  11.353   2.032   7.827 -0.5031 -0.4236  0.6657
 1011MOL0     H36457  11.238   2.242   8.018 -1.3437  0.7747 -0.4505
 1011MOL0     H36458  11.387   2.161   8.053 -1.0663 -0.4909  0.2575
 1011MOL0     H36459  11.471   2.253   7.811  1.0723 -0.7506  2.4528
 1011MOL0     H36460  11.433   2.374   7.924  1.8183 -2.7766  3.5467
 1011MOL0     H36461  11.231   2.302   7.708 -0.0906  2.2927 -1.3089
 1011MOL0     H36462  11.224   2.418   7.840 -0.4786  1.6504 -1.0194
 1011MOL0     H36463  11.422   2.420   7.614 -0.5701 -0.9099 -0.5936
 1011MOL0     H36464  11.411   2.544   7.742 -0.7693  1.8919 -1.9567
 1011MOL0     H36465  11.319   2.619   7.544 -0.2897 -1.9074 -1.1632
 1011MOL0     H36466  11.206   2.629   7.686 -1.3974  0.4917 -1.3271
 1011MOL0     H36467  11.025   1.808   8.053  2.2847 -0.1072  0.3510
 1011MOL0     H36468  10.815   1.686   8.128 -0.2892 -1.3390 -0.9278
 1011MOL0     H36469  10.699   1.336   8.382  0.6016 -0.1203 -1.6078
 1011MOL0     H36470  10.555   1.210   8.512 -0.4719  0.9805  1.1217
 1011MOL0     H36471  10.095   1.386   9.249  0.5820  0.1390  2.2718
 1011MOL0     H36472  10.203   1.586   9.162 -0.4641 -0.0751  0.3856
 1011MOL0     H36473  10.442   1.879   9.333 -0.6775  1.0527  1.0559
 1011MOL0     H36474  10.517   1.782   9.545  0.2813 -1.9326  0.5577
 1011MOL0     H36475  10.528   1.900   9.729 -1.0175  2.2709 -0.5089
 1011MOL0     H36476  10.465   1.928   9.897 -0.6087 -2.1904  0.2062
 1011MOL0     H36477  10.688   1.786   9.859  0.0907 -0.0967  2.2755
 1011MOL0     H36478  10.563   1.664   9.807 -0.3540 -0.8930  1.8999
 1011MOL0     H36479  10.565   1.612  10.050  0.8859  0.6989  1.9668
 1011MOL0     H36480  10.483   1.766  10.053  0.4037  2.4893 -2.5462
 1011MOL0     H36481  10.731   1.865  10.071  3.5002 -1.8262 -1.6451
 1011MOL0     H36482  10.790   1.715  10.030  0.8600  0.2010  0.5390
 1011MOL0     H36483  10.693   1.673  10.444  4.3247 -0.0072  0.2607
 1011MOL0     H36484  10.123   1.852   9.718  3.0277 -0.2235  3.2037
 1011MOL0     H36485  10.046   1.899   9.487  0.3029  4.3294  0.2904
 1012MOL0     O36486   6.641   3.343  10.755  0.0037  0.0666 -0.0122
 1012MOL0     C36487   6.697   3.451  10.725  1.2206  0.5031  0.2572
 1012MOL0     O36488   6.645   3.550  10.644 -0.0417  0.3893 -0.4778
 1012MOL0     C36489   6.523   3.538  10.597 -1.0622 -0.3034  0.8148
 1012MOL0     C36490   6.489   3.522  10.464  0.7710  1.2611  1.2631
 1012MOL0     C36491   6.350   3.540  10.423  0.0284 -0.3337 -0.0422
 1012MOL0     C36492   6.247   3.576  10.511 -0.0312  0.4244 -0.3103
 1012MOL0     O36493   6.124   3.595  10.455  0.4193  0.2548 -0.5041
 1012MOL0     C36494   6.003   3.581  10.536 -0.8097  0.0958  0.0485
 1012MOL0     C36495   5.979   3.436  10.585 -0.2927 -1.0097 -0.7879
 1012MOL0     C36496   5.871   3.422  10.707 -0.6789 -0.1209  0.5469
 1012MOL0     C36497   5.947   3.381  10.833 -0.5673 -0.6288 -0.0804
 1012MOL0     C36498   5.840   3.377  10.952 -0.0541  0.1455 -0.5377
 1012MOL0     C36499   5.766   3.236  10.964 -0.1145 -0.3540 -0.0326
 1012MOL0     C36500   5.861   3.120  11.008  0.1655  0.3059 -0.5731
 1012MOL0     C36501   5.809   2.979  11.035  0.0349 -0.4899  0.4414
 1012MOL0     N36502   5.722   2.954  11.148 -0.2444  0.2677  0.1485
 1012MOL0     C36503   5.737   3.007  11.272  0.1166 -0.3945 -0.7387
 1012MOL0     C36504   5.628   2.959  11.341  0.5523  0.2674 -0.4714
 1012MOL0     C36505   5.595   2.992  11.485  0.1875 -0.8606 -0.6528
 1012MOL0     C36506   5.715   3.030  11.583 -0.2322  0.3702  0.6491
 1012MOL0     C36507   5.740   3.177  11.571  0.3774 -0.9974 -0.0757
 1012MOL0     C36508   5.871   3.228  11.634 -0.7979  0.1348 -0.6405
 1012MOL0     O36509   5.877   3.186  11.775 -0.5422 -0.7710 -0.0632
 1012MOL0     C36510   5.794   3.250  11.873 -0.4246 -0.4028  0.0390
 1012MOL0     C36511   5.735   3.159  11.968  0.2587 -0.4560  0.3898
 1012MOL0     C36512   5.652   3.196  12.071  0.1006  0.1798  0.3212
 1012MOL0     C36513   5.620   3.098  12.177 -0.0447  0.0025  0.1829
 1012MOL0     C36514   5.632   3.339  12.084  0.4059 -0.5023  0.5469
 1012MOL0     C36515   5.540   3.404  12.186  0.9794 -0.3005  0.0931
 1012MOL0     O36516   5.504   3.327  12.295 -0.0900 -0.4634 -0.3537
 1012MOL0     C36517   5.438   3.385  12.401  0.9982 -0.6328 -0.1126
 1012MOL0     C36518   5.301   3.354  12.436 -0.3223 -0.6520 -0.1947
 1012MOL0     C36519   5.250   3.402  12.561 -0.2824  0.2885 -0.4850
 1012MOL0     C36520   5.324   3.497  12.637 -0.5648 -0.4705 -0.0406
 1012MOL0     O36521   5.265   3.544  12.753 -0.3340 -0.2748 -0.5219
 1012MOL0     C36522   5.322   3.539  12.888  0.0672 -0.2720  1.1592
 1012MOL0     C36523   5.248   3.419  12.954  0.3766 -0.7416  0.1935
 1012MOL0     C36524   5.277   3.430  13.107  0.0007  0.0137 -0.1964
 1012MOL0     C36525   5.390   3.328  13.136  0.7061 -0.1956 -0.3496
 1012MOL0     C36526   5.432   3.318  13.282  0.1383  0.6043 -0.5535
 1012MOL0     C36527   5.325   3.263  13.372  0.2640 -1.5195  0.1220
 1012MOL0     C36528   5.364   3.288  13.518 -0.1947 -0.0527  0.5474
 1012MOL0     C36529   5.348   3.158  13.603 -0.5050  0.0517  0.2519
 1012MOL0    Cl36530   5.467   3.039  13.547 -0.3290 -0.0938 -0.3864
 1012MOL0     C36531   5.456   3.535  12.600  0.6811  0.2749  0.6334
 1012MOL0     C36532   5.511   3.480  12.474  0.3655 -0.2497 -0.6312
 1012MOL0     O36533   5.486   3.514  12.158 -0.0334  0.0198  0.8765
 1012MOL0     C36534   5.695   3.429  11.989  0.0242 -0.5943  0.3153
 1012MOL0     C36535   5.777   3.390  11.889  0.5035 -0.2500  0.4377
 1012MOL0     N36536   5.560   2.876  11.259 -0.4827 -0.2271 -0.1917
 1012MOL0     N36537   5.620   2.870  11.141  0.1060  0.1293  0.1995
 1012MOL0     C36538   6.289   3.579  10.647  0.0839  0.0943 -0.0911
 1012MOL0     C36539   6.418   3.566  10.689  0.3372 -0.8734 -0.0972
 1012MOL0     C36540   6.819   3.478  10.812  0.2207  0.0910  0.6880
 1012MOL0     C36541   6.871   3.376  10.891 -0.0081 -0.0825  0.3233
 1012MOL0     C36542   6.992   3.406  10.958 -0.5936  0.4226 -0.4725
 1012MOL0     C36543   7.050   3.537  10.967 -0.1955  0.6714 -0.8783
 1012MOL0     O36544   7.156   3.574  11.033  0.8092  0.2550  0.3384
 1012MOL0     C36545   7.282   3.504  11.012  0.7140  0.5965 -0.6043
 1012MOL0     C36546   7.384   3.569  11.108  0.3781 -0.3973 -0.4814
 1012MOL0     C36547   7.423   3.707  11.052 -0.6274 -0.6671  1.3986
 1012MOL0     C36548   7.579   3.721  11.031  0.9856  1.1681  0.7020
 1012MOL0     C36549   7.625   3.691  10.900 -0.5586 -0.6331 -0.0342
 1012MOL0     C36550   7.669   3.654  10.789  0.3322 -0.6058  0.2182
 1012MOL0     C36551   6.990   3.634  10.890  0.6255  0.3891 -0.1079
 1012MOL0     C36552   6.879   3.609  10.802 -0.2080  0.1938  0.2105
 1012MOL0     H36553   6.569   3.514  10.391 -1.1560  0.1972 -0.8630
 1012MOL0     H36554   6.314   3.550  10.321 -2.3383  2.8320  0.9290
 1012MOL0     H36555   5.986   3.652  10.617 -2.8558 -0.0329 -0.2085
 1012MOL0     H36556   5.920   3.609  10.469  0.3543 -0.3697 -1.6625
 1012MOL0     H36557   5.955   3.366  10.504 -1.2631 -1.5168 -0.0896
 1012MOL0     H36558   6.076   3.408  10.626 -1.6606  0.6990  4.3720
 1012MOL0     H36559   5.815   3.515  10.721 -1.9460 -0.4903 -1.5020
 1012MOL0     H36560   5.801   3.342  10.681  0.6484 -1.1531  0.0313
 1012MOL0     H36561   5.986   3.281  10.813  1.8870  0.1973  0.2475
 1012MOL0     H36562   6.030   3.445  10.862  0.3088 -3.1487  3.6886
 1012MOL0     H36563   5.893   3.386  11.047  0.7040 -0.5835 -0.8723
 1012MOL0     H36564   5.763   3.455  10.947  1.0757  1.3849  0.4629
 1012MOL0     H36565   5.688   3.239  11.040 -0.3823 -0.3471 -0.3080
 1012MOL0     H36566   5.725   3.206  10.867 -1.9106 -3.6307  1.5715
 1012MOL0     H36567   5.946   3.113  10.941  2.3200 -1.9240  2.1224
 1012MOL0     H36568   5.906   3.142  11.105  1.2456 -0.3142 -0.9198
 1012MOL0     H36569   5.884   2.901  11.050 -0.1925 -1.5520 -2.9649
 1012MOL0     H36570   5.751   2.960  10.944  0.5068 -0.3333  0.1041
 1012MOL0     H36571   5.814   3.072  11.312 -0.9105  0.6102 -0.3333
 1012MOL0     H36572   5.509   3.058  11.500  0.2107 -1.3914  2.5338
 1012MOL0     H36573   5.557   2.898  11.526  1.8821 -1.4438 -0.3388
 1012MOL0     H36574   5.793   2.966  11.543 -1.9641 -1.6378  0.3011
 1012MOL0     H36575   5.695   3.000  11.686 -1.6530 -1.4585 -0.0975
 1012MOL0     H36576   5.668   3.239  11.626  2.4519  1.5510 -0.0343
 1012MOL0     H36577   5.723   3.211  11.468 -1.4746 -2.8944 -0.4720
 1012MOL0     H36578   5.871   3.337  11.625  1.4630  0.0203 -4.3317
 1012MOL0     H36579   5.963   3.186  11.590 -0.1674  1.4600 -0.6207
 1012MOL0     H36580   5.751   3.055  11.941  1.5734  0.2243 -1.7020
 1012MOL0     H36581   5.661   2.999  12.154 -0.3056  0.5530 -3.1276
 1012MOL0     H36582   5.672   3.143  12.262  0.6641 -1.7979  0.7440
 1012MOL0     H36583   5.513   3.091  12.196  0.1254 -2.0216  0.5614
 1012MOL0     H36584   5.248   3.283  12.374 -1.7037  0.8781 -0.8272
 1012MOL0     H36585   5.150   3.386  12.599  0.8841  0.4470  2.9193
 1012MOL0     H36586   5.425   3.507  12.869 -1.7472 -6.0422 -1.2315
 1012MOL0     H36587   5.310   3.636  12.937 -1.2415  0.1419  0.0462
 1012MOL0     H36588   5.143   3.424  12.923  0.2090 -4.1272 -0.1542
 1012MOL0     H36589   5.276   3.323  12.909  1.4667 -1.0621  1.4942
 1012MOL0     H36590   5.180   3.409  13.154 -1.4077  1.5896 -2.2183
 1012MOL0     H36591   5.308   3.532  13.130  1.4586 -0.2718 -0.8184
 1012MOL0     H36592   5.347   3.231  13.111 -1.0488  0.1365  1.1786
 1012MOL0     H36593   5.473   3.351  13.068  2.9236 -0.1099  2.2340
 1012MOL0     H36594   5.462   3.419  13.313  0.7763  1.0607 -2.5627
 1012MOL0     H36595   5.513   3.245  13.290 -2.3529 -2.1899  1.1714
 1012MOL0     H36596   5.229   3.308  13.345  0.4783 -2.2106 -1.9530
 1012MOL0     H36597   5.324   3.158  13.342  1.4292 -1.2908 -0.7872
 1012MOL0     H36598   5.315   3.375  13.564  0.8489  2.1398 -2.1855
 1012MOL0     H36599   5.469   3.317  13.526 -0.2162  0.8981 -1.7688
 1012MOL0     H36600   5.246   3.120  13.591 -0.8758  0.3801  2.0244
 1012MOL0     H36601   5.349   3.174  13.712  0.1777 -0.1458  0.2769
 1012MOL0     H36602   5.507   3.603  12.667 -1.7884  2.1637  0.7471
 1012MOL0     H36603   5.604   3.517  12.433  0.4274 -1.1298 -1.3221
 1012MOL0     H36604   5.662   3.532  11.997 -0.4079 -0.4647 -2.2179
 1012MOL0     H36605   5.818   3.468  11.826 -2.3539  0.9401 -0.1519
 1012MOL0     H36606   6.217   3.579  10.729  0.0271 -0.4965 -0.1371
 1012MOL0     H36607   6.431   3.566  10.797  0.5613  0.7486 -0.1052
 1012MOL0     H36608   6.834   3.275  10.898 -3.5575  1.1047  0.6767
 1012MOL0     H36609   7.041   3.330  11.018 -3.1262 -0.4795  0.5864
 1012MOL0     H36610   7.265   3.397  11.028  1.8184  0.4104 -0.5638
 1012MOL0     H36611   7.313   3.511  10.908  0.9207 -1.9354 -0.7692
 1012MOL0     H36612   7.466   3.499  11.127 -1.1038 -1.7405  1.4535
 1012MOL0     H36613   7.328   3.584  11.201 -0.0829 -0.5914 -0.7251
 1012MOL0     H36614   7.388   3.791  11.113 -1.3583  3.4655 -3.9214
 1012MOL0     H36615   7.383   3.740  10.956  0.0048  0.3153  1.4485
 1012MOL0     H36616   7.631   3.642  11.087 -1.5971  1.2813  3.5004
 1012MOL0     H36617   7.609   3.825  11.048  0.1602  1.1832  2.2233
 1012MOL0     H36618   7.713   3.626  10.695  0.1323 -0.1350 -0.0222
 1012MOL0     H36619   7.025   3.736  10.893 -1.7085  1.2281  1.9080
 1012MOL0     H36620   6.846   3.690  10.738  0.3576 -0.8011 -1.3830
 1013MOL0     O36621   8.627   4.688   0.195  0.0666  0.5003 -1.4247
 1013MOL0     C36622   8.670   4.573   0.199 -0.4555  1.9205  1.6754
 1013MOL0     O36623   8.718   4.505   0.300 -0.1160 -0.3246  0.5558
 1013MOL0     C36624   8.726   4.542   0.432  0.0310  0.7551  0.1792
 1013MOL0     C36625   8.669   4.656   0.488 -0.0126  0.4353  0.8998
 1013MOL0     C36626   8.681   4.680   0.622 -0.3210 -0.1661 -0.2001
 1013MOL0     C36627   8.753   4.590   0.706  0.0609  1.2593 -0.3590
 1013MOL0     O36628   8.766   4.638   0.832  0.2941  0.6899  0.2783
 1013MOL0     C36629   8.859   4.569   0.928  0.6236 -0.0597 -0.2385
 1013MOL0     C36630   8.809   4.598   1.067 -0.0365  0.2481  0.5669
 1013MOL0     C36631   8.655   4.590   1.081  0.0246  0.3980  0.2503
 1013MOL0     C36632   8.593   4.451   1.047  0.2667 -0.2345 -0.4736
 1013MOL0     C36633   8.453   4.433   1.113 -1.0470 -0.4245 -0.9099
 1013MOL0     C36634   8.372   4.566   1.086  0.4159 -0.1303 -0.2676
 1013MOL0     C36635   8.223   4.561   1.114  0.0078 -0.2395  0.2650
 1013MOL0     C36636   8.194   4.617   1.258 -0.4221  1.0089  1.1428
 1013MOL0     N36637   8.272   4.565   1.368 -0.1113 -0.0581 -0.1208
 1013MOL0     C36638   8.217   4.482   1.465 -0.3760 -0.4417  0.2474
 1013MOL0     C36639   8.325   4.462   1.551 -0.4680  0.5394 -0.1858
 1013MOL0     C36640   8.332   4.361   1.668 -0.1938 -0.6167  0.8261
 1013MOL0     C36641   8.194   4.325   1.703  0.0421  0.7025  0.2394
 1013MOL0     C36642   8.117   4.425   1.787 -0.8887 -0.0137 -0.4932
 1013MOL0     C36643   8.001   4.350   1.837 -0.5741 -0.2025 -0.4635
 1013MOL0     O36644   8.032   4.245   1.921 -0.1612  0.3219  0.0762
 1013MOL0     C36645   7.946   4.150   1.953  0.1098 -0.5471 -0.2479
 1013MOL0     C36646   7.813   4.139   1.904 -0.1945  0.1527 -1.1634
 1013MOL0     C36647   7.721   4.032   1.919 -0.4512  0.1819 -0.3068
 1013MOL0     C36648   7.588   4.025   1.850  0.9603  0.2616 -0.6983
 1013MOL0     C36649   7.778   3.921   1.999 -0.4331 -0.4753  0.2272
 1013MOL0     C36650   7.701   3.790   2.029 -1.1197 -0.0482  0.9291
 1013MOL0     O36651   7.595   3.747   1.947 -0.6787  0.0502 -0.2433
 1013MOL0     C36652   7.538   3.627   1.956 -0.5762  0.2617  0.5302
 1013MOL0     C36653   7.429   3.613   1.870  0.3242  0.1721 -0.3722
 1013MOL0     C36654   7.355   3.482   1.861  1.2640 -0.9797  1.1288
 1013MOL0     C36655   7.391   3.374   1.933 -0.0298 -1.0031 -0.2916
 1013MOL0     O36656   7.309   3.266   1.925 -0.3626 -0.3507  0.4839
 1013MOL0     C36657   7.314   3.176   2.033  0.2475  0.5366  0.1597
 1013MOL0     C36658   7.189   3.080   2.021 -0.6591  0.0063  0.0746
 1013MOL0     C36659   7.195   2.965   2.129 -0.0689  0.5888  0.4220
 1013MOL0     C36660   7.252   2.842   2.059  0.6859  0.1755 -1.2719
 1013MOL0     C36661   7.213   2.716   2.133 -0.2623  0.3492  0.2565
 1013MOL0     C36662   7.313   2.603   2.109 -0.3691  0.5265 -0.3039
 1013MOL0     C36663   7.299   2.479   2.206 -1.0175 -1.1910 -0.0017
 1013MOL0     C36664   7.360   2.353   2.131  0.0783 -0.7801  0.1944
 1013MOL0    Cl36665   7.369   2.207   2.239 -0.0755  0.4096  0.2105
 1013MOL0     C36666   7.500   3.397   2.019 -0.2578  0.4799  0.0814
 1013MOL0     C36667   7.566   3.518   2.036 -0.2388  0.0767  0.4761
 1013MOL0     O36668   7.734   3.744   2.143 -0.8337  0.1778  0.1383
 1013MOL0     C36669   7.905   3.944   2.063 -0.3656 -0.1494  0.1643
 1013MOL0     C36670   7.990   4.063   2.050  0.9636  0.3252 -0.6765
 1013MOL0     N36671   8.434   4.537   1.505  0.4879 -0.1564  1.1376
 1013MOL0     N36672   8.406   4.596   1.395  0.6527  0.0929  1.2383
 1013MOL0     C36673   8.813   4.473   0.650  0.5251 -0.8565  0.3872
 1013MOL0     C36674   8.801   4.450   0.515  0.0648  0.8485  0.7543
 1013MOL0     C36675   8.685   4.514   0.054  0.1105  0.8215 -0.0544
 1013MOL0     C36676   8.755   4.391   0.035 -0.2383  0.1188 -0.3467
 1013MOL0     C36677   8.764   4.345  -0.099  0.5757 -0.2606 -0.1425
 1013MOL0     C36678   8.722   4.419  -0.205 -0.1977  0.5779  0.0900
 1013MOL0     O36679   8.741   4.356  -0.323 -0.0870 -0.2242 -0.6043
 1013MOL0     C36680   8.776   4.430  -0.440 -0.1746  0.6505  1.0116
 1013MOL0     C36681   8.848   4.348  -0.546 -0.3983  0.1594  0.1327
 1013MOL0     C36682   8.870   4.417  -0.684  0.5876  1.1431  0.8388
 1013MOL0     C36683   8.942   4.547  -0.665  0.5408 -0.0462 -0.7645
 1013MOL0     C36684   8.972   4.614  -0.793 -0.7808  0.2626 -1.3774
 1013MOL0     C36685   8.996   4.672  -0.899  1.0293 -1.2319 -0.6434
 1013MOL0     C36686   8.663   4.545  -0.191 -0.1129  0.2799 -0.7007
 1013MOL0     C36687   8.651   4.595  -0.064 -0.2080  0.1212 -0.2012
 1013MOL0     H36688   8.613   4.727   0.428 -0.6985  1.3416  2.5602
 1013MOL0     H36689   8.639   4.773   0.659  2.3423  1.9727 -2.1012
 1013MOL0     H36690   8.874   4.461   0.914  2.0882  0.3572 -2.2545
 1013MOL0     H36691   8.960   4.610   0.914  0.5692 -0.2907 -1.4005
 1013MOL0     H36692   8.867   4.536   1.136  0.4048  1.7918  1.6216
 1013MOL0     H36693   8.840   4.695   1.105 -1.2620 -0.1610  2.7669
 1013MOL0     H36694   8.633   4.603   1.188 -1.1969 -3.7110  0.6846
 1013MOL0     H36695   8.607   4.665   1.018  0.4646 -1.6249 -2.7145
 1013MOL0     H36696   8.572   4.463   0.940 -1.3190  0.0089 -0.1646
 1013MOL0     H36697   8.663   4.367   1.055 -0.3570 -0.7044  0.1658
 1013MOL0     H36698   8.415   4.339   1.070 -1.2580 -1.5914  1.6368
 1013MOL0     H36699   8.465   4.409   1.219  0.4631 -0.2478 -1.0272
 1013MOL0     H36700   8.420   4.640   1.150  0.1629 -1.6017  1.7226
 1013MOL0     H36701   8.398   4.590   0.983  1.2793  1.5369  0.3019
 1013MOL0     H36702   8.166   4.617   1.040 -1.1743 -1.3292  0.3057
 1013MOL0     H36703   8.192   4.461   1.083  0.0321  0.0310 -0.6662
 1013MOL0     H36704   8.088   4.595   1.277 -0.2558 -2.0664 -0.7627
 1013MOL0     H36705   8.202   4.726   1.260  2.2874  0.9045  0.2952
 1013MOL0     H36706   8.119   4.434   1.470 -0.7438  0.3906  1.4189
 1013MOL0     H36707   8.389   4.285   1.615 -0.5027 -0.7254  0.6448
 1013MOL0     H36708   8.386   4.391   1.759  1.2640 -1.7979  0.3890
 1013MOL0     H36709   8.216   4.233   1.759  1.4936 -1.0367 -2.9032
 1013MOL0     H36710   8.141   4.298   1.611 -2.5848  4.1862  0.5473
 1013MOL0     H36711   8.094   4.513   1.726  1.1248  0.7183 -0.2997
 1013MOL0     H36712   8.179   4.462   1.869 -2.1367  0.2937  0.3418
 1013MOL0     H36713   7.947   4.303   1.754 -1.9055  0.5784 -0.0778
 1013MOL0     H36714   7.934   4.423   1.884 -2.9954 -2.1717 -0.6071
 1013MOL0     H36715   7.767   4.223   1.853 -2.1741  0.1981  0.5389
 1013MOL0     H36716   7.572   3.954   1.767 -4.5097 -0.1380  0.3542
 1013MOL0     H36717   7.506   4.012   1.921  1.1460 -1.1308 -0.7139
 1013MOL0     H36718   7.564   4.117   1.797 -3.1845 -1.0737 -1.5169
 1013MOL0     H36719   7.400   3.698   1.809  1.8304 -0.2243 -1.7131
 1013MOL0     H36720   7.265   3.473   1.801  1.7561 -1.8946  0.5072
 1013MOL0     H36721   7.406   3.118   2.022  0.1456  0.4727 -0.3954
 1013MOL0     H36722   7.310   3.228   2.130 -2.1400  1.9807 -0.6125
 1013MOL0     H36723   7.108   3.153   2.033 -1.7654 -0.4209 -3.5447
 1013MOL0     H36724   7.166   3.048   1.919 -1.7896  3.7446 -1.0353
 1013MOL0     H36725   7.092   2.943   2.156 -0.8136 -0.1603 -2.7114
 1013MOL0     H36726   7.270   2.996   2.203  4.9695  2.4302 -4.6708
 1013MOL0     H36727   7.212   2.827   1.958 -0.8528  0.6210 -0.7553
 1013MOL0     H36728   7.360   2.852   2.065  0.4690  2.4852  0.3259
 1013MOL0     H36729   7.113   2.699   2.092 -0.3368  1.6651 -0.1474
 1013MOL0     H36730   7.216   2.738   2.240 -1.9226 -4.8891  1.6757
 1013MOL0     H36731   7.283   2.572   2.009 -3.6070  0.8278  0.4391
 1013MOL0     H36732   7.417   2.635   2.110  0.3669 -1.7199 -0.3155
 1013MOL0     H36733   7.191   2.468   2.222 -1.1931  0.7444  0.3926
 1013MOL0     H36734   7.366   2.480   2.293  0.0062 -2.4430 -0.7409
 1013MOL0     H36735   7.461   2.370   2.092 -0.2895 -0.9537 -0.8639
 1013MOL0     H36736   7.293   2.335   2.046 -0.1664  1.2664 -0.0878
 1013MOL0     H36737   7.528   3.309   2.076 -1.7503 -0.6443 -0.8469
 1013MOL0     H36738   7.649   3.520   2.106  0.3551 -1.7967 -0.1124
 1013MOL0     H36739   7.940   3.866   2.130  0.5714  1.2582  1.3481
 1013MOL0     H36740   8.073   4.086   2.116 -1.3209 -0.9508  2.9207
 1013MOL0     H36741   8.873   4.407   0.711 -2.7547 -2.0178  2.6864
 1013MOL0     H36742   8.837   4.360   0.466  1.6933  1.1996  1.2151
 1013MOL0     H36743   8.799   4.337   0.118 -1.3381  1.7917  1.4106
 1013MOL0     H36744   8.813   4.250  -0.116 -0.6955 -1.0898  0.6684
 1013MOL0     H36745   8.681   4.462  -0.484  0.4964  1.4652  0.1329
 1013MOL0     H36746   8.833   4.521  -0.421 -0.3720  1.1576 -0.6762
 1013MOL0     H36747   8.798   4.253  -0.568  1.6932 -1.2180  0.9378
 1013MOL0     H36748   8.945   4.318  -0.504 -0.0537  0.7621 -0.2103
 1013MOL0     H36749   8.774   4.430  -0.734 -0.5390  0.5197  2.7321
 1013MOL0     H36750   8.926   4.347  -0.747 -2.4390 -0.8666  0.1522
 1013MOL0     H36751   9.024   4.538  -0.593  1.3300  0.3681 -1.5944
 1013MOL0     H36752   8.878   4.616  -0.609  4.8681  1.5675  2.7547
 1013MOL0     H36753   9.011   4.709  -0.998  1.0735  1.0856  0.1660
 1013MOL0     H36754   8.635   4.598  -0.282 -1.1932 -1.6357 -1.5553
 1013MOL0     H36755   8.615   4.695  -0.041 -0.0600  0.0180  0.4977
 1014MOL0     O36756   5.830   4.570   5.688 -0.4640 -0.5682  0.2853
 1014MOL0     C36757   5.824   4.689   5.656  0.0658  0.2888  0.2061
 1014MOL0     O36758   5.902   4.793   5.706 -0.9937  0.8562 -0.4157
 1014MOL0     C36759   5.986   4.779   5.814 -0.6723  0.1697  0.4463
 1014MOL0     C36760   6.086   4.869   5.829 -0.1587 -0.2467  0.8027
 1014MOL0     C36761   6.161   4.871   5.948  0.6193 -0.2132  0.8813
 1014MOL0     C36762   6.133   4.784   6.054 -1.0192  0.2163  0.0169
 1014MOL0     O36763   6.211   4.765   6.165  0.0461 -0.1639 -0.4419
 1014MOL0     C36764   6.352   4.735   6.143  0.2771  0.1049  1.2695
 1014MOL0     C36765   6.382   4.587   6.091  0.0300 -1.2511  0.0784
 1014MOL0     C36766   6.311   4.484   6.177  0.1978 -0.0656  0.0184
 1014MOL0     C36767   6.341   4.498   6.329  0.3225  0.5674  0.8620
 1014MOL0     C36768   6.328   4.356   6.393 -0.1043  0.1248 -2.1117
 1014MOL0     C36769   6.391   4.355   6.531  0.3174 -0.3340  0.1338
 1014MOL0     C36770   6.545   4.360   6.520 -0.7124  0.3548 -0.2561
 1014MOL0     C36771   6.617   4.400   6.657 -0.7581  0.1543 -1.1243
 1014MOL0     N36772   6.582   4.544   6.690  0.4113  0.6852  0.8431
 1014MOL0     C36773   6.676   4.649   6.688 -0.6483 -0.3528 -0.0062
 1014MOL0     C36774   6.625   4.728   6.786 -0.5296 -0.4175 -0.7941
 1014MOL0     C36775   6.677   4.867   6.822  0.6409  0.0363  0.1829
 1014MOL0     C36776   6.738   4.874   6.960 -0.2638 -0.1583 -0.5865
 1014MOL0     C36777   6.857   4.969   6.970  0.0878 -0.3413 -0.9502
 1014MOL0     C36778   6.814   5.107   6.955  0.1954 -0.0216  0.7112
 1014MOL0     O36779   6.887   5.213   7.016 -0.6172  0.3872 -0.3100
 1014MOL0     C36780   6.961   5.297   6.936  0.3156 -0.3858  0.0399
 1014MOL0     C36781   7.002   5.273   6.794  1.5397 -0.2435  0.1732
 1014MOL0     C36782   7.091   5.355   6.716  0.5509 -0.4570  0.3623
 1014MOL0     C36783   7.126   5.299   6.584 -0.8094  0.4837  0.7183
 1014MOL0     C36784   7.135   5.480   6.771 -0.0622  0.7444  0.0720
 1014MOL0     C36785   7.230   5.565   6.700 -0.3835  0.1106  0.2274
 1014MOL0     O36786   7.266   5.678   6.767 -0.4737 -0.5854 -0.1786
 1014MOL0     C36787   7.376   5.744   6.720  0.2303  0.4846  0.1131
 1014MOL0     C36788   7.356   5.825   6.602  0.0553 -0.3658  0.6787
 1014MOL0     C36789   7.454   5.915   6.562 -0.7083 -0.0117 -0.1477
 1014MOL0     C36790   7.577   5.915   6.637  0.3092  0.1260  0.7668
 1014MOL0     O36791   7.682   6.007   6.614 -0.2150  1.0902 -0.9200
 1014MOL0     C36792   7.638   6.138   6.583  0.2205  0.6430  0.6581
 1014MOL0     C36793   7.639   6.182   6.436 -0.0454 -0.6481  0.0908
 1014MOL0     C36794   7.597   6.326   6.421  0.4109 -0.1478 -0.0635
 1014MOL0     C36795   7.667   6.381   6.295 -0.0349 -0.7979  0.1438
 1014MOL0     C36796   7.618   6.522   6.262  1.1086 -0.5392 -0.7345
 1014MOL0     C36797   7.678   6.632   6.356  0.0014 -0.2922  0.2323
 1014MOL0     C36798   7.614   6.773   6.326  0.1363 -0.7062  0.8151
 1014MOL0     C36799   7.696   6.900   6.367  0.2588 -0.0482 -0.1837
 1014MOL0    Cl36800   7.596   7.042   6.350  0.3133 -0.2735  0.2771
 1014MOL0     C36801   7.605   5.821   6.738  0.7301 -0.2762  0.8138
 1014MOL0     C36802   7.502   5.733   6.784  0.4101 -0.1908  0.0544
 1014MOL0     O36803   7.279   5.537   6.594  0.7183 -0.6260  0.7803
 1014MOL0     C36804   7.089   5.512   6.908  0.0415 -0.9030 -0.7616
 1014MOL0     C36805   7.007   5.420   6.989 -0.1672 -0.6540  1.2327
 1014MOL0     N36806   6.504   4.684   6.838 -0.3797  0.5602 -0.2832
 1014MOL0     N36807   6.484   4.571   6.776  0.7120 -0.3695  0.7690
 1014MOL0     C36808   6.022   4.700   6.044 -0.5858  0.2497 -0.7384
 1014MOL0     C36809   5.946   4.700   5.923  0.5599  0.7745  0.0125
 1014MOL0     C36810   5.742   4.726   5.535 -0.5459 -0.2984 -0.2160
 1014MOL0     C36811   5.647   4.646   5.473 -0.3627  0.0679  0.0888
 1014MOL0     C36812   5.560   4.699   5.376  0.4775 -0.0526 -0.0370
 1014MOL0     C36813   5.566   4.829   5.325 -0.0754 -0.3189  0.3600
 1014MOL0     O36814   5.498   4.888   5.216 -0.6778 -0.2922  0.2572
 1014MOL0     C36815   5.413   4.814   5.132  0.3960 -0.1308 -0.1281
 1014MOL0     C36816   5.345   4.912   5.037  0.4009 -0.5642 -1.0571
 1014MOL0     C36817   5.244   4.837   4.942  0.2151 -0.3820  0.8883
 1014MOL0     C36818   5.193   4.934   4.841  0.2905  0.2822  1.0988
 1014MOL0     C36819   5.104   4.857   4.751  0.2695  0.4463  0.0395
 1014MOL0     C36820   5.036   4.802   4.656 -1.1134  0.4185 -0.4970
 1014MOL0     C36821   5.667   4.903   5.377 -0.9996  0.4280 -0.2731
 1014MOL0     C36822   5.748   4.853   5.482 -0.6967  0.3489 -0.0889
 1014MOL0     H36823   6.107   4.930   5.741  1.7220 -3.0396 -0.8626
 1014MOL0     H36824   6.237   4.948   5.954 -1.2781  2.2853 -3.0024
 1014MOL0     H36825   6.398   4.808   6.076  1.3645 -1.1435  0.6311
 1014MOL0     H36826   6.408   4.752   6.235  3.2111 -3.9412  0.4775
 1014MOL0     H36827   6.345   4.587   5.988  0.5477  2.2415 -0.2175
 1014MOL0     H36828   6.490   4.575   6.099  0.1900 -0.3609 -0.6006
 1014MOL0     H36829   6.205   4.495   6.150  0.8190  2.3836 -1.8543
 1014MOL0     H36830   6.348   4.384   6.152  2.1288  0.6922 -0.2957
 1014MOL0     H36831   6.431   4.557   6.345 -0.6182  1.8736  1.5895
 1014MOL0     H36832   6.262   4.563   6.368 -1.3112 -0.8655  0.0855
 1014MOL0     H36833   6.224   4.324   6.404  1.1465 -3.6809  0.7873
 1014MOL0     H36834   6.365   4.273   6.331  0.9433 -0.7195 -0.4389
 1014MOL0     H36835   6.354   4.448   6.575 -0.9839 -0.7092 -0.1334
 1014MOL0     H36836   6.355   4.278   6.600 -0.5518  1.2877  1.5771
 1014MOL0     H36837   6.579   4.260   6.491  2.2483  0.2577  2.9103
 1014MOL0     H36838   6.590   4.418   6.439  3.4240 -0.4664  1.2062
 1014MOL0     H36839   6.723   4.376   6.663 -1.4194 -3.4274 -1.4483
 1014MOL0     H36840   6.577   4.338   6.738  0.9957 -0.1234 -0.4225
 1014MOL0     H36841   6.755   4.683   6.622  0.2383  0.2587  1.3318
 1014MOL0     H36842   6.755   4.896   6.751 -0.3796 -0.0578 -0.9960
 1014MOL0     H36843   6.596   4.940   6.815 -0.0682 -0.5870  1.3569
 1014MOL0     H36844   6.771   4.771   6.981 -3.9006 -1.4097 -0.3361
 1014MOL0     H36845   6.667   4.887   7.041  2.1178 -1.9236  1.9753
 1014MOL0     H36846   6.934   4.933   6.901 -0.1308 -1.4818 -0.6306
 1014MOL0     H36847   6.903   4.960   7.069  1.3146  1.1930 -1.3353
 1014MOL0     H36848   6.725   5.107   7.019  0.7099 -0.1111  1.4374
 1014MOL0     H36849   6.791   5.131   6.851  1.2305 -0.0761  0.4614
 1014MOL0     H36850   6.966   5.180   6.752 -1.8825  1.2744 -0.6478
 1014MOL0     H36851   7.065   5.349   6.508  0.2181 -1.4927 -1.5559
 1014MOL0     H36852   7.234   5.308   6.570 -1.1388  0.4626 -2.5670
 1014MOL0     H36853   7.109   5.190   6.583  2.0282 -0.0339 -0.3819
 1014MOL0     H36854   7.260   5.828   6.551  1.4367  0.8761 -2.0277
 1014MOL0     H36855   7.439   5.991   6.487  2.1970 -0.1700 -1.0035
 1014MOL0     H36856   7.542   6.165   6.629  0.2748  0.2802  0.9931
 1014MOL0     H36857   7.700   6.204   6.645  0.1562 -0.1917  1.6428
 1014MOL0     H36858   7.743   6.172   6.404 -0.2622  1.6594 -1.5314
 1014MOL0     H36859   7.565   6.125   6.377 -1.8211  2.2111 -0.6187
 1014MOL0     H36860   7.632   6.392   6.500  0.0996  0.0574 -0.0959
 1014MOL0     H36861   7.490   6.346   6.433  1.2062  2.6211  4.7659
 1014MOL0     H36862   7.776   6.380   6.299  0.0425  0.4036 -0.9761
 1014MOL0     H36863   7.637   6.316   6.212 -1.3802 -2.0117  1.5453
 1014MOL0     H36864   7.510   6.513   6.281  1.4136 -3.3906  0.1027
 1014MOL0     H36865   7.646   6.548   6.159  0.6535 -0.6544 -0.8917
 1014MOL0     H36866   7.665   6.611   6.463 -1.0725 -1.7919 -0.1449
 1014MOL0     H36867   7.786   6.632   6.342 -0.1227 -3.0526 -1.5788
 1014MOL0     H36868   7.518   6.779   6.377  0.7572  0.0779  1.9470
 1014MOL0     H36869   7.588   6.792   6.222  1.3637  2.1441  0.9305
 1014MOL0     H36870   7.792   6.898   6.315 -1.0667  1.6303 -2.8877
 1014MOL0     H36871   7.723   6.888   6.473  4.3206  1.1715 -0.8900
 1014MOL0     H36872   7.705   5.801   6.776  0.5058 -2.3254  0.4403
 1014MOL0     H36873   7.517   5.668   6.870 -0.1541  1.2823  1.3284
 1014MOL0     H36874   7.107   5.609   6.953  3.3391 -2.2241  1.1012
 1014MOL0     H36875   6.969   5.445   7.087 -0.0131  1.5600  0.7801
 1014MOL0     H36876   5.992   4.640   6.130  2.0160 -0.6951 -0.4054
 1014MOL0     H36877   5.851   4.648   5.928  0.1559  1.5405  0.6446
 1014MOL0     H36878   5.624   4.549   5.516  1.8396 -1.3332 -1.6953
 1014MOL0     H36879   5.483   4.631   5.341  0.4745 -2.1531  3.6193
 1014MOL0     H36880   5.477   4.738   5.087  0.2718 -1.7288  2.2072
 1014MOL0     H36881   5.329   4.769   5.187 -0.4892  2.8929  1.2050
 1014MOL0     H36882   5.432   4.959   4.990  0.5122  1.2596  0.8341
 1014MOL0     H36883   5.292   4.982   5.102 -0.7332  0.2844 -2.8054
 1014MOL0     H36884   5.161   4.801   5.004 -0.2059 -0.5003  0.2681
 1014MOL0     H36885   5.288   4.748   4.896  0.3520 -0.4952  1.2339
 1014MOL0     H36886   5.277   4.972   4.783  2.0871 -1.5457  2.3576
 1014MOL0     H36887   5.134   5.013   4.889 -0.2350 -0.3560  1.5274
 1014MOL0     H36888   4.960   4.758   4.595 -0.6752 -1.7735  0.4344
 1014MOL0     H36889   5.694   5.003   5.342  0.4866  0.1830  0.0979
 1014MOL0     H36890   5.823   4.915   5.530 -2.4861  0.7427  2.3921
 1015MOL0     O36891  10.064   8.112  10.248  0.5811 -0.2063  0.2448
 1015MOL0     C36892   9.965   8.107  10.321  0.4657  1.0522  0.4270
 1015MOL0     O36893   9.917   8.208  10.396 -0.7104  0.4757  0.6164
 1015MOL0     C36894   9.947   8.337  10.372 -0.1904 -0.2519 -0.5825
 1015MOL0     C36895  10.062   8.397  10.426  0.7972  0.9958 -0.5956
 1015MOL0     C36896  10.091   8.526  10.410  0.4314 -0.4691 -0.0458
 1015MOL0     C36897   9.991   8.613  10.352 -0.0039  0.4433  0.5514
 1015MOL0     O36898   9.995   8.743  10.346  0.7002 -0.2599  0.6387
 1015MOL0     C36899  10.117   8.795  10.392 -0.4082 -0.7817  0.1134
 1015MOL0     C36900  10.111   8.956  10.377 -0.6174  0.4173  0.3567
 1015MOL0     C36901   9.964   9.008  10.362  0.6747  0.9769  0.1324
 1015MOL0     C36902   9.958   9.158  10.397 -0.6453  0.3046 -0.5596
 1015MOL0     C36903   9.816   9.210  10.383  0.2685  0.6519  0.1961
 1015MOL0     C36904   9.815   9.353  10.430  0.5121  0.5872  0.3499
 1015MOL0     C36905   9.682   9.402  10.387 -1.1163 -0.1401  0.2539
 1015MOL0     C36906   9.650   9.554  10.423  0.4515  0.1487 -0.6178
 1015MOL0     N36907   9.609   9.575  10.562  0.4318 -0.6081 -0.4612
 1015MOL0     C36908   9.483   9.569  10.616 -1.2129 -0.6370  0.5412
 1015MOL0     C36909   9.503   9.582  10.748 -0.3278  0.3956  1.0542
 1015MOL0     C36910   9.397   9.582  10.860 -1.1873  0.4631  0.7595
 1015MOL0     C36911   9.279   9.681  10.841 -0.2496  0.5319  0.7779
 1015MOL0     C36912   9.165   9.606  10.778 -1.0785 -0.0609  0.5542
 1015MOL0     C36913   9.083   9.534  10.882 -0.5047  0.0157 -0.3838
 1015MOL0     O36914   8.955   9.502  10.833  0.6339  0.1741 -0.4453
 1015MOL0     C36915   8.834   9.564  10.864 -0.0642 -0.5756  0.0465
 1015MOL0     C36916   8.754   9.617  10.762  0.0118 -1.1427 -0.7283
 1015MOL0     C36917   8.635   9.687  10.781 -0.1252 -0.1896  0.2005
 1015MOL0     C36918   8.568   9.762  10.675  0.3834  0.0903 -0.7868
 1015MOL0     C36919   8.585   9.685  10.910  1.6590  0.7014  0.4171
 1015MOL0     C36920   8.442   9.735  10.944 -0.1320 -0.1723 -0.4131
 1015MOL0     O36921   8.339   9.704  10.857 -0.3098 -0.3385 -0.1445
 1015MOL0     C36922   8.232   9.786  10.833  0.4099 -0.0253  0.2379
 1015MOL0     C36923   8.215   9.922  10.862  0.0288 -0.1024  0.3724
 1015MOL0     C36924   8.091   9.987  10.845  0.4377 -0.0860  0.6346
 1015MOL0     C36925   7.985   9.928  10.772  0.2559 -0.4582 -0.4111
 1015MOL0     O36926   7.855   9.981  10.755  0.2361 -0.0965 -0.6043
 1015MOL0     C36927   7.841  10.121  10.777  1.1322  0.2385 -0.2961
 1015MOL0     C36928   7.688  10.155  10.776  0.5118  0.2348  0.5347
 1015MOL0     C36929   7.663  10.295  10.816 -0.2454 -0.2782 -0.9009
 1015MOL0     C36930   7.626  10.307  10.970 -0.3355  0.2167 -0.4971
 1015MOL0     C36931   7.719  10.387  11.054 -0.7769  0.4495 -0.3231
 1015MOL0     C36932   7.862  10.347  11.076 -1.5186  0.2254 -0.2167
 1015MOL0     C36933   7.934  10.473  11.145  0.7235  0.2962 -0.0376
 1015MOL0     C36934   8.079  10.437  11.179 -0.0562  0.1148 -0.1023
 1015MOL0    Cl36935   8.143  10.552  11.293 -0.5289 -0.0378  0.4071
 1015MOL0     C36936   8.011   9.806  10.717  0.6037 -0.2086 -0.2600
 1015MOL0     C36937   8.128   9.746  10.760 -1.2603  1.1746  1.0242
 1015MOL0     O36938   8.438   9.805  11.045 -0.3690  0.5374  0.0021
 1015MOL0     C36939   8.660   9.633  11.008 -0.1314 -0.0611 -0.2182
 1015MOL0     C36940   8.785   9.566  10.991 -0.4389 -0.2527  0.7940
 1015MOL0     N36941   9.636   9.593  10.775  0.4449 -0.6668 -0.6191
 1015MOL0     N36942   9.697   9.589  10.665 -0.9718 -0.1557  0.1897
 1015MOL0     C36943   9.879   8.547  10.290 -0.4954  0.4323 -0.6798
 1015MOL0     C36944   9.859   8.410  10.297  0.1918 -0.8291  0.6091
 1015MOL0     C36945   9.919   7.973  10.353  0.5308  0.1128  0.1600
 1015MOL0     C36946  10.001   7.854  10.357  0.3169 -0.0093 -0.0215
 1015MOL0     C36947   9.954   7.725  10.387 -0.4906 -0.1837 -0.2358
 1015MOL0     C36948   9.820   7.717  10.428 -1.2638 -0.1613 -0.3469
 1015MOL0     O36949   9.794   7.585  10.446  0.2784  0.2446 -0.8562
 1015MOL0     C36950   9.669   7.556  10.521  0.1171 -0.6392  0.3976
 1015MOL0     C36951   9.636   7.407  10.516  0.1561 -0.9370 -0.3966
 1015MOL0     C36952   9.596   7.372  10.366 -0.4823  0.3692 -0.6312
 1015MOL0     C36953   9.544   7.226  10.370 -1.0150 -0.1219  0.4573
 1015MOL0     C36954   9.458   7.194  10.260 -0.7842  0.4272  1.0511
 1015MOL0     C36955   9.394   7.168  10.155 -0.8788 -0.2619 -0.8379
 1015MOL0     C36956   9.734   7.830  10.427 -0.4653  0.1269 -0.2215
 1015MOL0     C36957   9.781   7.957  10.387 -0.2785  0.2005  0.8652
 1015MOL0     H36958  10.122   8.326  10.482 -0.5991 -0.3402 -0.7166
 1015MOL0     H36959  10.174   8.555  10.474 -3.0608  2.4160  3.7199
 1015MOL0     H36960  10.127   8.766  10.497  1.3715 -2.0623 -0.3618
 1015MOL0     H36961  10.203   8.758  10.335  0.3122 -0.5375  1.0315
 1015MOL0     H36962  10.163   9.009  10.458 -1.1535  4.4894 -1.6798
 1015MOL0     H36963  10.175   8.983  10.293  2.9635 -3.3667  1.5439
 1015MOL0     H36964   9.928   8.991  10.260  0.1362  2.4583  0.0506
 1015MOL0     H36965   9.885   8.962  10.422 -1.8957  0.0486 -3.5937
 1015MOL0     H36966   9.986   9.179  10.500 -0.6984  0.6750 -0.6173
 1015MOL0     H36967  10.021   9.219  10.331 -0.2034  0.4737  0.0165
 1015MOL0     H36968   9.787   9.205  10.278 -3.4744  1.2677  1.0432
 1015MOL0     H36969   9.745   9.146  10.437 -1.7010 -0.1536 -3.0983
 1015MOL0     H36970   9.824   9.363  10.539  1.4865  4.9811  0.0519
 1015MOL0     H36971   9.887   9.418  10.380 -0.4797  0.6840 -0.9979
 1015MOL0     H36972   9.675   9.403  10.277 -2.4334 -0.9118  0.3162
 1015MOL0     H36973   9.614   9.326  10.425  1.3307 -2.2031  0.7665
 1015MOL0     H36974   9.581   9.595  10.349  0.1578  1.7373  0.4927
 1015MOL0     H36975   9.739   9.617  10.409  0.8849 -0.4842 -0.8062
 1015MOL0     H36976   9.395   9.557  10.553 -0.6358  4.0961 -1.6521
 1015MOL0     H36977   9.366   9.477  10.869  0.8087 -0.6250 -2.9496
 1015MOL0     H36978   9.462   9.604  10.945  0.1218  1.1218 -0.3676
 1015MOL0     H36979   9.314   9.757  10.771  2.6694 -1.2116  0.1584
 1015MOL0     H36980   9.259   9.729  10.937 -1.1949  1.8781 -0.0698
 1015MOL0     H36981   9.210   9.529  10.714  0.6119  0.8009  0.6321
 1015MOL0     H36982   9.107   9.675  10.716  0.7298  1.7006  0.7165
 1015MOL0     H36983   9.075   9.605  10.965  2.7953 -0.4256  0.4324
 1015MOL0     H36984   9.139   9.454  10.931 -2.6046  0.9420  4.0945
 1015MOL0     H36985   8.797   9.622  10.662  2.2033  2.3243  0.2202
 1015MOL0     H36986   8.623   9.766  10.581  1.8302  2.2413  0.0672
 1015MOL0     H36987   8.475   9.709  10.651 -0.0637  0.1800  0.6535
 1015MOL0     H36988   8.523   9.858  10.702 -1.8867 -0.8752 -0.9347
 1015MOL0     H36989   8.297   9.981  10.903 -2.4639  3.9142  0.0817
 1015MOL0     H36990   8.080  10.088  10.883 -0.1806  1.0772 -2.4062
 1015MOL0     H36991   7.864  10.142  10.882 -0.6997 -0.4973  0.2944
 1015MOL0     H36992   7.900  10.177  10.703  1.3614  1.7098  0.9508
 1015MOL0     H36993   7.658  10.144  10.671  0.5411  0.2478  0.5249
 1015MOL0     H36994   7.630  10.084  10.836  4.6099 -2.7452  1.4291
 1015MOL0     H36995   7.585  10.350  10.761 -0.0057  0.1566 -0.8081
 1015MOL0     H36996   7.755  10.348  10.788 -0.2184 -1.3499 -3.0857
 1015MOL0     H36997   7.527  10.353  10.980 -1.8188 -3.1922  2.7219
 1015MOL0     H36998   7.617  10.204  11.005 -2.6892  0.0556 -1.3944
 1015MOL0     H36999   7.656  10.402  11.142  1.7226 -1.1391  1.8557
 1015MOL0     H37000   7.716  10.482  10.999 -0.3412 -0.5605 -2.1702
 1015MOL0     H37001   7.873  10.264  11.147  1.0576 -2.3563 -3.2874
 1015MOL0     H37002   7.916  10.342  10.981 -1.5693  1.9168 -0.3646
 1015MOL0     H37003   7.872  10.495  11.233 -0.1058  0.5636 -0.6806
 1015MOL0     H37004   7.935  10.562  11.081 -0.1932 -0.9898 -1.9014
 1015MOL0     H37005   8.142  10.443  11.090 -1.1855 -1.1840 -1.0324
 1015MOL0     H37006   8.082  10.336  11.221  4.4772  0.7058  1.5489
 1015MOL0     H37007   7.940   9.744  10.663 -0.8091  0.3080  0.9487
 1015MOL0     H37008   8.134   9.643  10.729 -0.5067  0.6977  2.6472
 1015MOL0     H37009   8.632   9.635  11.113  2.9257  1.1083  0.6636
 1015MOL0     H37010   8.840   9.523  11.073  3.3573  2.3097 -0.1589
 1015MOL0     H37011   9.808   8.602  10.229  0.9555 -1.3839 -4.3677
 1015MOL0     H37012   9.768   8.369  10.255 -0.1493 -1.1184  1.5922
 1015MOL0     H37013  10.103   7.878  10.331  0.8832  0.1364  2.1464
 1015MOL0     H37014  10.018   7.637  10.392 -3.0964 -2.3306 -1.5464
 1015MOL0     H37015   9.684   7.595  10.622 -0.1148  3.7814 -1.0352
 1015MOL0     H37016   9.585   7.604  10.470 -0.4711  1.4414  3.0634
 1015MOL0     H37017   9.555   7.374  10.582  0.6001  0.2284  0.7804
 1015MOL0     H37018   9.721   7.347  10.549  1.0935  0.5721  0.0394
 1015MOL0     H37019   9.675   7.373  10.290  0.8389 -2.7513  0.5530
 1015MOL0     H37020   9.514   7.442  10.351 -3.1058 -2.6552 -1.5924
 1015MOL0     H37021   9.484   7.207  10.460 -1.2699  1.7212  0.7145
 1015MOL0     H37022   9.627   7.155  10.362  1.2938  2.2091  2.1787
 1015MOL0     H37023   9.352   7.135  10.062 -0.2547 -1.1882 -0.8080
 1015MOL0     H37024   9.629   7.826  10.453 -0.6984  3.8770  0.0653
 1015MOL0     H37025   9.709   8.039  10.381 -1.5577 -0.9005  0.4908
 1016MOL0     O37026  10.403   5.447   6.089 -0.4284  0.4883 -0.3442
 1016MOL0     C37027  10.309   5.459   6.014 -0.3573  0.0030 -0.0466
 1016MOL0     O37028  10.192   5.393   6.016  0.2828  1.0900 -0.2633
 1016MOL0     C37029  10.142   5.326   6.124 -0.9487 -0.2048 -0.0504
 1016MOL0     C37030  10.080   5.202   6.092  0.3427 -0.0162  0.1500
 1016MOL0     C37031  10.031   5.117   6.189  0.0596 -0.0398  0.4880
 1016MOL0     C37032  10.040   5.160   6.322 -0.9194  1.3451 -0.0634
 1016MOL0     O37033  10.007   5.075   6.418 -0.0260 -0.5686 -0.3816
 1016MOL0     C37034  10.123   5.021   6.491  0.3473 -0.4719 -0.1911
 1016MOL0     C37035  10.150   4.879   6.435 -0.1108  0.6218 -0.0870
 1016MOL0     C37036  10.283   4.834   6.497 -0.1619  0.3829  0.8395
 1016MOL0     C37037  10.289   4.810   6.644  1.3980  0.2152 -0.0238
 1016MOL0     C37038  10.430   4.762   6.697 -0.0228 -0.0290 -0.2415
 1016MOL0     C37039  10.411   4.721   6.845 -0.5843 -0.6140  0.9699
 1016MOL0     C37040  10.533   4.648   6.908 -0.4223 -0.4996 -0.4614
 1016MOL0     C37041  10.667   4.719   6.909 -0.5755 -0.5666 -0.5948
 1016MOL0     N37042  10.750   4.649   7.011 -0.0502  0.2104 -0.3141
 1016MOL0     C37043  10.817   4.536   6.985  0.3188  0.1084 -0.3825
 1016MOL0     C37044  10.910   4.532   7.083 -0.0175 -1.0535 -0.1753
 1016MOL0     C37045  11.021   4.430   7.118  0.0486  0.3893 -0.0744
 1016MOL0     C37046  10.978   4.275   7.098  0.8117 -0.1628 -0.0995
 1016MOL0     C37047  10.875   4.225   7.198 -0.0509 -0.4614  0.0511
 1016MOL0     C37048  10.870   4.289   7.330 -1.2639 -0.1542 -0.2749
 1016MOL0     O37049  10.772   4.212   7.407 -0.6703 -0.6929 -0.0238
 1016MOL0     C37050  10.808   4.215   7.545  0.8585  0.1527 -0.1280
 1016MOL0     C37051  10.786   4.099   7.621  0.5516  0.4166 -0.5581
 1016MOL0     C37052  10.837   4.065   7.748 -0.5271 -0.1790 -0.0425
 1016MOL0     C37053  10.820   3.928   7.812 -0.0548 -0.6043  0.1630
 1016MOL0     C37054  10.892   4.180   7.819 -0.1571  0.1597  0.6779
 1016MOL0     C37055  10.945   4.176   7.961  0.5614  0.1100 -0.9425
 1016MOL0     O37056  11.003   4.055   8.000  0.5270 -0.7100  0.2428
 1016MOL0     C37057  10.985   4.020   8.134 -0.2935  0.0008  0.1675
 1016MOL0     C37058  10.871   4.007   8.216  0.3697 -0.6131 -0.1310
 1016MOL0     C37059  10.867   3.949   8.348 -0.6684 -1.2885 -0.3298
 1016MOL0     C37060  10.996   3.905   8.388  0.4633 -0.1086  0.0131
 1016MOL0     O37061  11.017   3.848   8.516 -0.3105 -1.2094 -0.6602
 1016MOL0     C37062  10.983   3.939   8.624  0.8198  1.0559 -0.2002
 1016MOL0     C37063  11.073   3.908   8.747 -1.5437  0.0293 -0.1553
 1016MOL0     C37064  11.064   3.771   8.802  0.6546 -0.6001 -0.1941
 1016MOL0     C37065  10.941   3.760   8.883 -0.0087  0.3192 -0.2354
 1016MOL0     C37066  10.930   3.616   8.936 -1.0854 -0.0414  0.2263
 1016MOL0     C37067  11.028   3.583   9.054  0.2610 -0.5814  0.2803
 1016MOL0     C37068  10.991   3.463   9.136 -1.0150 -0.8601  0.8671
 1016MOL0     C37069  11.086   3.437   9.255  0.4894 -0.2010  0.3995
 1016MOL0    Cl37070  11.110   3.262   9.288 -0.0469 -0.1645  0.0472
 1016MOL0     C37071  11.114   3.929   8.314  0.2094  0.3999  0.2280
 1016MOL0     C37072  11.109   3.976   8.182 -0.2302 -0.8101  1.0357
 1016MOL0     O37073  10.917   4.267   8.034 -0.3590 -0.4157 -0.1864
 1016MOL0     C37074  10.902   4.301   7.755  0.9680 -0.3781 -0.9303
 1016MOL0     C37075  10.879   4.315   7.614  0.4093 -1.0063 -0.2350
 1016MOL0     N37076  10.882   4.635   7.174 -0.2302  0.0311  0.8770
 1016MOL0     N37077  10.786   4.706   7.123  0.0036 -0.1141 -0.1604
 1016MOL0     C37078  10.108   5.277   6.360  0.9309  0.8552  0.0543
 1016MOL0     C37079  10.170   5.356   6.257 -0.4346 -0.1535 -0.3906
 1016MOL0     C37080  10.329   5.564   5.909 -0.6205  0.3623  0.9262
 1016MOL0     C37081  10.444   5.638   5.880  0.9222 -0.4120  1.2014
 1016MOL0     C37082  10.442   5.734   5.780 -0.3127 -0.3839  0.0380
 1016MOL0     C37083  10.328   5.775   5.713 -1.1050  0.2515 -0.2378
 1016MOL0     O37084  10.332   5.876   5.618 -0.2410 -0.7586  0.4170
 1016MOL0     C37085  10.240   5.897   5.511  0.2559  1.0643 -0.0575
 1016MOL0     C37086  10.253   5.781   5.407  0.0851 -0.1578  0.7118
 1016MOL0     C37087  10.398   5.760   5.363 -0.5849 -0.5620  0.8234
 1016MOL0     C37088  10.458   5.891   5.295  0.6300 -0.4845  0.2626
 1016MOL0     C37089  10.493   5.868   5.153 -0.9873 -0.8255  0.0418
 1016MOL0     C37090  10.542   5.850   5.046 -0.3378  0.4720 -0.1399
 1016MOL0     C37091  10.215   5.712   5.740  0.0632 -0.2291  0.7955
 1016MOL0     C37092  10.217   5.607   5.837 -0.2271  0.8775  0.4120
 1016MOL0     H37093  10.090   5.165   5.991 -4.6293  1.0587 -1.0033
 1016MOL0     H37094   9.981   5.023   6.164  0.4330  0.1799 -1.1948
 1016MOL0     H37095  10.214   5.082   6.486  1.0367 -1.4942 -0.4353
 1016MOL0     H37096  10.103   5.014   6.598  2.3568 -0.7196  0.2027
 1016MOL0     H37097  10.063   4.822   6.468 -0.4857  1.2236 -0.0210
 1016MOL0     H37098  10.147   4.886   6.326  3.1289  0.5680 -0.2870
 1016MOL0     H37099  10.314   4.744   6.444 -1.6681 -0.4226  1.2886
 1016MOL0     H37100  10.358   4.911   6.474 -1.4344  2.2211  2.4243
 1016MOL0     H37101  10.270   4.902   6.699 -1.7516  0.3557 -1.1621
 1016MOL0     H37102  10.203   4.745   6.664  0.3009  1.1500 -1.5200
 1016MOL0     H37103  10.472   4.689   6.628  0.1679  0.7177 -0.9360
 1016MOL0     H37104  10.496   4.850   6.694  0.8107 -0.6162  0.2412
 1016MOL0     H37105  10.393   4.813   6.900  1.7178  1.4696 -1.5024
 1016MOL0     H37106  10.324   4.655   6.856  0.2263 -1.7769  0.6333
 1016MOL0     H37107  10.508   4.619   7.010  2.7344  0.2382  0.6256
 1016MOL0     H37108  10.549   4.551   6.859  2.0231 -1.3752  1.8377
 1016MOL0     H37109  10.656   4.822   6.942  3.0662 -0.4321  0.6585
 1016MOL0     H37110  10.716   4.725   6.812  0.2189 -1.3243 -0.2629
 1016MOL0     H37111  10.796   4.473   6.899 -1.0081  0.8554 -0.6380
 1016MOL0     H37112  11.109   4.449   7.056  1.0685  2.1790  1.8034
 1016MOL0     H37113  11.053   4.451   7.220 -2.6027 -0.6679  1.0689
 1016MOL0     H37114  11.071   4.220   7.115  1.6477  0.6291 -1.8685
 1016MOL0     H37115  10.943   4.257   6.997  2.4850 -0.0102 -0.7436
 1016MOL0     H37116  10.882   4.117   7.215  0.1474 -0.4759 -0.1218
 1016MOL0     H37117  10.778   4.226   7.148  0.5827 -1.4451 -1.2465
 1016MOL0     H37118  10.840   4.390   7.300 -1.3908 -1.4584 -5.5785
 1016MOL0     H37119  10.969   4.308   7.372 -1.4069  4.1493 -1.4145
 1016MOL0     H37120  10.714   4.032   7.576 -1.5064  1.4531  1.0133
 1016MOL0     H37121  10.751   3.864   7.756 -1.6747  0.1566  1.2021
 1016MOL0     H37122  10.918   3.883   7.829  1.0563  2.6408  3.9807
 1016MOL0     H37123  10.776   3.942   7.912  1.6986 -1.3829  1.0944
 1016MOL0     H37124  10.776   4.041   8.175  2.0543  2.0883 -2.2030
 1016MOL0     H37125  10.781   3.936   8.412 -0.1816 -0.7287  0.4593
 1016MOL0     H37126  11.002   4.042   8.592  1.1060  0.5871 -1.6252
 1016MOL0     H37127  10.879   3.917   8.650  1.0345  0.3416  0.0638
 1016MOL0     H37128  11.181   3.915   8.728 -1.6699 -0.2510 -1.0440
 1016MOL0     H37129  11.062   3.992   8.816  0.1363  1.3590 -1.4135
 1016MOL0     H37130  11.142   3.756   8.878 -0.1908 -0.0461  0.8108
 1016MOL0     H37131  11.068   3.690   8.729  2.1231 -1.0529  0.3427
 1016MOL0     H37132  10.950   3.828   8.968 -0.7763 -0.0209  0.1215
 1016MOL0     H37133  10.858   3.791   8.819 -1.9656 -4.0443 -0.1769
 1016MOL0     H37134  10.957   3.543   8.859 -0.6375  0.1714  0.1776
 1016MOL0     H37135  10.830   3.592   8.974  0.8488 -1.8805  4.9591
 1016MOL0     H37136  11.125   3.550   9.016  0.3693 -1.2603  1.1042
 1016MOL0     H37137  11.038   3.673   9.114 -2.4777  1.6648 -2.2781
 1016MOL0     H37138  11.007   3.380   9.067  2.4895 -0.0476  0.5232
 1016MOL0     H37139  10.886   3.454   9.168 -1.3829 -0.8595 -0.3091
 1016MOL0     H37140  11.034   3.491   9.334  0.8331  0.9063 -0.0974
 1016MOL0     H37141  11.187   3.480   9.242  0.8732 -0.6821  1.6619
 1016MOL0     H37142  11.197   3.893   8.375  2.5671 -0.0327 -2.9677
 1016MOL0     H37143  11.205   3.986   8.133  0.9983  0.6853  3.5650
 1016MOL0     H37144  10.937   4.382   7.819  0.6341 -0.2077 -0.9578
 1016MOL0     H37145  10.904   4.409   7.565  1.4853 -0.7909  0.6769
 1016MOL0     H37146  10.126   5.311   6.461 -0.3987 -1.9800  1.3608
 1016MOL0     H37147  10.241   5.433   6.286  0.2327 -1.3828  1.4520
 1016MOL0     H37148  10.538   5.615   5.928  2.7966 -0.0088 -2.0404
 1016MOL0     H37149  10.535   5.788   5.769  0.2398 -1.5953 -1.5380
 1016MOL0     H37150  10.137   5.907   5.547  0.5771  0.1251  1.2264
 1016MOL0     H37151  10.260   5.990   5.459 -1.7952  0.4493 -2.0987
 1016MOL0     H37152  10.193   5.806   5.319  0.4938  0.1093  0.5075
 1016MOL0     H37153  10.225   5.683   5.446  1.0472  0.1240  2.2119
 1016MOL0     H37154  10.409   5.678   5.291  0.2558  1.2797 -1.2768
 1016MOL0     H37155  10.467   5.738   5.445  0.1903  0.5542  0.4874
 1016MOL0     H37156  10.541   5.918   5.360 -2.3433 -2.2001  5.3874
 1016MOL0     H37157  10.397   5.981   5.302  0.2985 -0.7384  0.7331
 1016MOL0     H37158  10.576   5.826   4.947 -0.9422 -1.7255  0.1432
 1016MOL0     H37159  10.122   5.747   5.697 -1.2491 -0.7168  3.0878
 1016MOL0     H37160  10.119   5.561   5.838  1.2130 -2.4864  1.2488
 1017MOL0     O37161   3.829   6.633   2.534  0.1286  0.4082  0.5332
 1017MOL0     C37162   3.858   6.727   2.608 -0.1799 -0.1059 -0.0405
 1017MOL0     O37163   3.769   6.788   2.689 -0.1043 -0.5553 -0.8114
 1017MOL0     C37164   3.644   6.741   2.723  0.1137  0.0431 -0.3407
 1017MOL0     C37165   3.546   6.834   2.775  0.6543  0.5300  0.0721
 1017MOL0     C37166   3.419   6.781   2.821 -0.9679 -0.4543 -0.0710
 1017MOL0     C37167   3.387   6.647   2.827 -0.2950 -0.3986  0.1149
 1017MOL0     O37168   3.268   6.612   2.885 -0.6801  1.1608 -0.1772
 1017MOL0     C37169   3.153   6.705   2.883  1.1854 -0.3993 -1.5222
 1017MOL0     C37170   3.024   6.668   2.958 -0.6463 -1.3496 -1.2357
 1017MOL0     C37171   2.895   6.755   2.934 -0.5151 -0.3471  0.3513
 1017MOL0     C37172   2.924   6.902   2.983  0.4359 -1.2292  0.1616
 1017MOL0     C37173   2.799   6.984   3.007  0.5114 -0.2649  0.3560
 1017MOL0     C37174   2.724   6.924   3.130 -0.1756  0.4646 -0.6489
 1017MOL0     C37175   2.583   6.955   3.117  0.0495 -0.0625  0.4878
 1017MOL0     C37176   2.549   7.111   3.126  0.1530  0.1378 -0.3984
 1017MOL0     N37177   2.403   7.121   3.160 -1.2388  0.3666 -0.3287
 1017MOL0     C37178   2.348   7.083   3.277 -0.8079  0.1291 -0.0190
 1017MOL0     C37179   2.212   7.106   3.257 -0.8322  0.5814 -0.1588
 1017MOL0     C37180   2.116   7.084   3.369 -0.0338 -0.7059 -0.0947
 1017MOL0     C37181   2.023   6.961   3.369  0.6235 -1.1018  0.9633
 1017MOL0     C37182   1.915   6.962   3.484 -0.5028  0.3627  0.4119
 1017MOL0     C37183   1.820   6.848   3.459 -0.0474 -0.0613 -1.0674
 1017MOL0     O37184   1.692   6.894   3.501 -0.5178 -0.2440 -0.9831
 1017MOL0     C37185   1.650   6.899   3.640 -0.1212  1.2607  0.7773
 1017MOL0     C37186   1.735   6.885   3.749 -0.2424 -0.9184 -0.6377
 1017MOL0     C37187   1.691   6.896   3.885  0.0049 -0.5515  0.5042
 1017MOL0     C37188   1.788   6.887   3.993 -0.1624 -0.3043  0.2187
 1017MOL0     C37189   1.560   6.939   3.912  0.1809 -0.1162  0.1916
 1017MOL0     C37190   1.499   6.979   4.043  0.7263  0.1604 -0.0152
 1017MOL0     O37191   1.377   7.038   4.042  0.2028 -0.9355 -0.2639
 1017MOL0     C37192   1.340   7.096   4.163 -0.5754  0.1679  1.0063
 1017MOL0     C37193   1.363   7.232   4.179 -0.4254 -0.1611  0.4401
 1017MOL0     C37194   1.343   7.293   4.293 -0.3749 -0.3599  0.1344
 1017MOL0     C37195   1.295   7.218   4.409 -0.9525 -0.4530  0.1858
 1017MOL0     O37196   1.274   7.275   4.533 -0.0666  0.1038 -0.6436
 1017MOL0     C37197   1.239   7.409   4.549  0.4963 -1.5768  0.2049
 1017MOL0     C37198   1.195   7.438   4.692  0.2467 -0.0042 -0.6045
 1017MOL0     C37199   1.203   7.593   4.711  1.1779  0.9435 -0.1162
 1017MOL0     C37200   1.123   7.639   4.835 -0.6159 -0.4467  0.0407
 1017MOL0     C37201   1.148   7.790   4.855  0.2187 -1.1983 -0.9613
 1017MOL0     C37202   1.046   7.859   4.950  0.0499  0.4029  0.4571
 1017MOL0     C37203   1.016   8.015   4.935 -0.0502 -0.4227 -0.7404
 1017MOL0     C37204   0.894   8.037   5.027  0.2425 -0.7417 -0.1094
 1017MOL0    Cl37205   0.888   8.216   5.063 -0.2325  0.2479 -0.0263
 1017MOL0     C37206   1.260   7.085   4.388  0.2365  0.9566 -0.7934
 1017MOL0     C37207   1.288   7.020   4.270 -0.1321  0.0740 -0.1623
 1017MOL0     O37208   1.561   6.955   4.144  0.1301 -0.7741  0.5435
 1017MOL0     C37209   1.476   6.964   3.800 -0.9603 -0.0669 -0.5480
 1017MOL0     C37210   1.514   6.939   3.669  0.4058 -0.0287 -0.3369
 1017MOL0     N37211   2.195   7.176   3.143  0.3168  0.9974 -0.4071
 1017MOL0     N37212   2.310   7.167   3.079 -0.4796  0.1391 -0.3783
 1017MOL0     C37213   3.486   6.565   2.773  0.2885  0.3362  0.0988
 1017MOL0     C37214   3.607   6.603   2.723 -0.2857 -0.4622  1.1727
 1017MOL0     C37215   3.991   6.788   2.590 -0.9947 -0.3503 -0.0629
 1017MOL0     C37216   4.030   6.899   2.658 -0.4669 -0.0361  0.2942
 1017MOL0     C37217   4.143   6.970   2.624 -0.1189 -1.8103  0.5145
 1017MOL0     C37218   4.221   6.932   2.516  0.1664 -0.0618 -0.1115
 1017MOL0     O37219   4.341   6.989   2.472  0.0566 -0.1417 -0.9092
 1017MOL0     C37220   4.406   7.096   2.552  0.0898  0.2899 -0.0443
 1017MOL0     C37221   4.426   7.205   2.446 -0.3077 -0.3962  0.5931
 1017MOL0     C37222   4.301   7.290   2.454  0.2745  1.0888 -0.5718
 1017MOL0     C37223   4.313   7.412   2.364  0.4099  0.4768 -0.6152
 1017MOL0     C37224   4.204   7.501   2.388  0.0295 -0.2134  0.0969
 1017MOL0     C37225   4.134   7.595   2.383  0.1005 -0.5168 -0.4173
 1017MOL0     C37226   4.190   6.814   2.443  0.8080  0.0759 -0.4047
 1017MOL0     C37227   4.075   6.742   2.487  0.2968 -0.0333  0.2004
 1017MOL0     H37228   3.560   6.940   2.791 -0.2612  0.3387  2.5117
 1017MOL0     H37229   3.363   6.862   2.866  0.5088  0.5763 -0.0015
 1017MOL0     H37230   3.193   6.798   2.923  1.1586 -1.3557  0.8812
 1017MOL0     H37231   3.118   6.723   2.780 -2.4802  1.1777 -0.1839
 1017MOL0     H37232   3.000   6.564   2.935  2.5653 -2.3493 -0.5575
 1017MOL0     H37233   3.059   6.671   3.062 -0.3024  2.9719 -1.2622
 1017MOL0     H37234   2.888   6.770   2.826  0.4241  1.6312  0.5050
 1017MOL0     H37235   2.814   6.697   2.979  0.1279 -0.5618  1.2622
 1017MOL0     H37236   2.974   6.898   3.081 -2.8582 -5.8332  1.9709
 1017MOL0     H37237   2.993   6.948   2.912  0.6540  1.0141  1.6856
 1017MOL0     H37238   2.831   7.087   3.021 -0.2742 -0.0577  0.6814
 1017MOL0     H37239   2.744   6.966   2.914  0.8715 -0.7581  0.2298
 1017MOL0     H37240   2.737   6.816   3.141 -1.9682  0.2242 -0.6423
 1017MOL0     H37241   2.769   6.970   3.219  2.6121  0.0919 -1.7508
 1017MOL0     H37242   2.554   6.914   3.020  1.7877  1.6653 -0.8342
 1017MOL0     H37243   2.534   6.898   3.197 -0.3789  1.2674  1.1990
 1017MOL0     H37244   2.578   7.163   3.034 -1.1558 -1.9038 -2.0500
 1017MOL0     H37245   2.609   7.165   3.200 -2.7048  1.9605  0.7394
 1017MOL0     H37246   2.394   7.039   3.365  0.0398  0.0613 -0.4914
 1017MOL0     H37247   2.177   7.062   3.457  0.4346  4.1209  1.0705
 1017MOL0     H37248   2.057   7.175   3.380  2.3541  0.9724 -0.3897
 1017MOL0     H37249   2.083   6.871   3.384  2.9483  0.0592 -0.6603
 1017MOL0     H37250   1.972   6.958   3.273 -0.6254  1.7569  1.4262
 1017MOL0     H37251   1.862   7.057   3.499  0.1229  0.5901  1.2311
 1017MOL0     H37252   1.973   6.936   3.573 -0.3590 -0.9703 -0.0496
 1017MOL0     H37253   1.844   6.767   3.528 -3.2602  1.0314  1.5857
 1017MOL0     H37254   1.824   6.816   3.354 -2.8944  0.6143 -1.4720
 1017MOL0     H37255   1.841   6.869   3.734  1.1149  3.8756  1.8432
 1017MOL0     H37256   1.755   6.808   4.061 -1.1756 -1.7559 -1.8578
 1017MOL0     H37257   1.888   6.863   3.958 -0.3444 -0.7225 -0.0130
 1017MOL0     H37258   1.791   6.983   4.046 -2.4828 -0.6592  1.1266
 1017MOL0     H37259   1.413   7.281   4.096 -1.4653 -1.4296 -0.9824
 1017MOL0     H37260   1.380   7.395   4.302  2.9625 -1.6040  3.2773
 1017MOL0     H37261   1.321   7.477   4.524 -2.3575  2.4263  0.7489
 1017MOL0     H37262   1.155   7.430   4.482  0.7425 -0.1644  0.3228
 1017MOL0     H37263   1.090   7.408   4.698 -0.1881  1.3175 -1.3869
 1017MOL0     H37264   1.263   7.396   4.767  3.9397  1.4391 -2.8851
 1017MOL0     H37265   1.159   7.650   4.629  2.3105  0.7749 -0.8817
 1017MOL0     H37266   1.309   7.622   4.707  0.9152  1.9987 -4.3131
 1017MOL0     H37267   1.018   7.618   4.812 -1.6471  3.6567  0.1924
 1017MOL0     H37268   1.166   7.593   4.924  2.4996 -0.9921 -1.5773
 1017MOL0     H37269   1.137   7.844   4.760  0.4494  2.0213  0.6949
 1017MOL0     H37270   1.253   7.801   4.884 -0.3902 -0.0939  1.0402
 1017MOL0     H37271   0.951   7.804   4.949 -0.2260  0.8437  1.2634
 1017MOL0     H37272   1.093   7.850   5.049  3.7591  0.5733 -1.1425
 1017MOL0     H37273   0.987   8.035   4.831  2.7096  2.2687 -1.1479
 1017MOL0     H37274   1.099   8.083   4.957  0.0482 -1.5999  3.4182
 1017MOL0     H37275   0.894   7.981   5.121  1.1600 -4.9620 -2.3739
 1017MOL0     H37276   0.805   8.008   4.970 -0.4671  0.3708  0.3957
 1017MOL0     H37277   1.217   7.026   4.468 -0.6572 -1.9386 -3.2240
 1017MOL0     H37278   1.276   6.914   4.253 -0.8565  0.3228 -1.4174
 1017MOL0     H37279   1.378   7.009   3.813 -2.8464 -1.9682 -5.7804
 1017MOL0     H37280   1.442   6.959   3.591 -2.3447 -0.5185  1.8851
 1017MOL0     H37281   3.463   6.460   2.786 -1.5725 -0.0842 -4.5680
 1017MOL0     H37282   3.664   6.514   2.699 -0.8327  0.2346 -4.0107
 1017MOL0     H37283   3.950   6.941   2.717 -2.2694 -0.2181 -1.8931
 1017MOL0     H37284   4.153   7.058   2.686 -0.1402 -1.0863 -0.4859
 1017MOL0     H37285   4.352   7.121   2.644  0.2140 -1.6199  0.5908
 1017MOL0     H37286   4.509   7.067   2.577  0.3923  1.3253 -0.0545
 1017MOL0     H37287   4.444   7.176   2.342  3.0419  2.4673  0.1991
 1017MOL0     H37288   4.512   7.264   2.479 -1.2255  3.4359 -2.9951
 1017MOL0     H37289   4.284   7.315   2.559  1.0345 -0.2896 -0.0869
 1017MOL0     H37290   4.221   7.222   2.424  1.0527  0.5561 -1.5365
 1017MOL0     H37291   4.304   7.380   2.259  1.0033  5.6341 -2.5217
 1017MOL0     H37292   4.404   7.471   2.377 -1.1647  3.0299 -0.5769
 1017MOL0     H37293   4.070   7.680   2.393  0.7540  0.1353 -1.6222
 1017MOL0     H37294   4.248   6.772   2.362  2.1271 -1.8768  1.4175
 1017MOL0     H37295   4.052   6.655   2.426 -0.4103  0.6529 -0.5356
 1018MOL0     O37296  10.342  10.818   3.045 -0.4726 -0.1470 -0.3857
 1018MOL0     C37297  10.383  10.926   3.080  0.8653 -0.0193 -0.0762
 1018MOL0     O37298  10.412  10.962   3.209  0.4255 -1.3399  0.5969
 1018MOL0     C37299  10.442  10.884   3.305  0.5541 -0.2354  0.2178
 1018MOL0     C37300  10.356  10.875   3.421  0.2847 -0.4181  0.6213
 1018MOL0     C37301  10.392  10.787   3.527  0.5042 -0.5214  0.1208
 1018MOL0     C37302  10.515  10.720   3.525  0.8807  0.8228 -0.3549
 1018MOL0     O37303  10.549  10.629   3.626 -0.0916 -0.2303  0.5452
 1018MOL0     C37304  10.671  10.650   3.705 -0.7840 -0.5636  0.6225
 1018MOL0     C37305  10.643  10.749   3.816 -0.3751 -0.1664 -0.1196
 1018MOL0     C37306  10.780  10.777   3.878 -0.3042 -0.3124  0.0351
 1018MOL0     C37307  10.803  10.677   3.995 -0.0596  0.4346 -0.0439
 1018MOL0     C37308  10.941  10.708   4.065  0.6118 -0.9126  0.1347
 1018MOL0     C37309  10.931  10.826   4.168  0.7770 -0.4899  0.1916
 1018MOL0     C37310  11.075  10.864   4.218 -0.5242 -0.0313 -0.4441
 1018MOL0     C37311  11.053  10.962   4.330  0.1576  0.1038 -0.2531
 1018MOL0     N37312  11.181  10.979   4.400  0.1228 -0.4092 -0.3215
 1018MOL0     C37313  11.243  10.888   4.485  0.3368 -0.4946  0.0081
 1018MOL0     C37314  11.365  10.940   4.508  0.2399 -0.3971 -0.6734
 1018MOL0     C37315  11.468  10.862   4.584 -0.8541  0.3616 -0.6012
 1018MOL0     C37316  11.525  10.932   4.707  0.3994 -0.6301 -1.3268
 1018MOL0     C37317  11.633  10.854   4.776  0.0425  1.1731  0.0024
 1018MOL0     C37318  11.683  10.898   4.916  0.4819 -0.1617  0.3218
 1018MOL0     O37319  11.577  10.893   5.001 -0.0945  1.1289 -0.6932
 1018MOL0     C37320  11.543  10.769   5.048 -0.1019 -0.5461 -0.1998
 1018MOL0     C37321  11.625  10.715   5.149 -0.1895  0.6878 -1.1994
 1018MOL0     C37322  11.593  10.593   5.211  0.0828  0.6153  0.4471
 1018MOL0     C37323  11.696  10.537   5.297 -0.5466 -0.1272 -0.6439
 1018MOL0     C37324  11.472  10.528   5.183 -0.4185 -0.2736  0.4604
 1018MOL0     C37325  11.413  10.409   5.244 -0.0322  0.4536  0.0458
 1018MOL0     O37326  11.308  10.339   5.180  0.4413  0.4150  0.2180
 1018MOL0     C37327  11.243  10.240   5.248 -0.5028 -0.4434 -0.1985
 1018MOL0     C37328  11.311  10.140   5.317  0.7986 -1.0993  0.6135
 1018MOL0     C37329  11.241  10.055   5.400  0.4542  0.7735 -0.4209
 1018MOL0     C37330  11.103  10.049   5.403  0.4798  0.3038 -0.3606
 1018MOL0     O37331  11.032   9.957   5.477  0.3640 -0.4995 -0.4559
 1018MOL0     C37332  11.105   9.847   5.530  0.3161  0.5159 -0.2059
 1018MOL0     C37333  11.010   9.747   5.607 -0.3574  1.2821  0.7683
 1018MOL0     C37334  11.088   9.675   5.727  0.2355  0.1604 -0.6458
 1018MOL0     C37335  10.995   9.571   5.789 -0.5054  0.5576 -0.6228
 1018MOL0     C37336  10.911   9.622   5.905  0.3340  0.4160  0.1678
 1018MOL0     C37337  10.998   9.638   6.032 -0.6000  0.5067  0.7583
 1018MOL0     C37338  10.932   9.683   6.169 -0.6227  0.1625  0.1672
 1018MOL0     C37339  10.868   9.821   6.172 -0.0986 -0.3418 -0.5630
 1018MOL0    Cl37340  10.992   9.946   6.188 -0.0861 -0.5776 -0.0040
 1018MOL0     C37341  11.036  10.129   5.318  0.6811 -0.0436  0.9666
 1018MOL0     C37342  11.109  10.224   5.244  0.3121 -0.0423 -0.3561
 1018MOL0     O37343  11.444  10.384   5.355 -0.3449 -0.6646 -0.4459
 1018MOL0     C37344  11.400  10.586   5.074 -0.5827 -0.1752 -0.4452
 1018MOL0     C37345  11.426  10.709   5.012 -0.9927 -0.0162  0.3191
 1018MOL0     N37346  11.366  11.069   4.465  0.8602 -0.7845 -0.2404
 1018MOL0     N37347  11.256  11.094   4.404  0.4970 -0.0780 -0.3687
 1018MOL0     C37348  10.591  10.732   3.412 -0.5958 -0.6236  0.6772
 1018MOL0     C37349  10.558  10.813   3.296  0.2380 -0.5043 -0.0005
 1018MOL0     C37350  10.378  11.041   2.985  0.8259  0.3918 -0.1414
 1018MOL0     C37351  10.290  11.043   2.873 -0.1704  0.5592  0.1842
 1018MOL0     C37352  10.279  11.168   2.801  0.1374  0.3988  0.5106
 1018MOL0     C37353  10.370  11.273   2.813  0.8149 -0.2181  0.6586
 1018MOL0     O37354  10.340  11.389   2.738  0.3122 -0.3292  0.0282
 1018MOL0     C37355  10.422  11.506   2.722  0.0784  0.8640 -0.6690
 1018MOL0     C37356  10.481  11.501   2.589 -0.2837 -0.3135 -0.5995
 1018MOL0     C37357  10.378  11.490   2.477 -0.0140 -0.1824  0.2536
 1018MOL0     C37358  10.445  11.418   2.359  0.0409 -0.0585  0.3021
 1018MOL0     C37359  10.356  11.389   2.245 -0.2126  0.8787  0.5510
 1018MOL0     C37360  10.281  11.361   2.161 -0.0925  0.2421 -0.6107
 1018MOL0     C37361  10.469  11.265   2.923 -0.2123 -0.7064 -1.2792
 1018MOL0     C37362  10.464  11.155   3.007  0.1339  0.1692 -0.4265
 1018MOL0     H37363  10.279  10.951   3.427  1.3243  1.1643 -2.9214
 1018MOL0     H37364  10.347  10.800   3.624  1.4941  2.0631  0.3034
 1018MOL0     H37365  10.705  10.557   3.751 -1.0471  0.8287  3.8436
 1018MOL0     H37366  10.753  10.689   3.643  0.7960  0.8839  3.4478
 1018MOL0     H37367  10.592  10.841   3.784 -1.0380 -0.8296 -1.0585
 1018MOL0     H37368  10.579  10.700   3.890  0.7693 -0.2912  0.8018
 1018MOL0     H37369  10.860  10.758   3.805 -0.8967  0.6758 -0.8940
 1018MOL0     H37370  10.802  10.882   3.899 -2.1208  0.4212 -1.5490
 1018MOL0     H37371  10.716  10.688   4.060  0.2634  0.6614  0.3624
 1018MOL0     H37372  10.799  10.576   3.953 -1.9386  0.0057  1.0512
 1018MOL0     H37373  10.986  10.631   4.128  2.9540  1.8351  2.1300
 1018MOL0     H37374  11.025  10.733   3.999  2.0671  1.4405  2.6507
 1018MOL0     H37375  10.875  10.918   4.148 -0.3785 -0.9450  1.2518
 1018MOL0     H37376  10.873  10.788   4.252 -1.1002 -0.2732 -0.9512
 1018MOL0     H37377  11.109  10.769   4.260 -4.2016 -0.8460  1.1430
 1018MOL0     H37378  11.134  10.905   4.136 -2.4129 -0.1515 -1.9372
 1018MOL0     H37379  10.984  10.921   4.405  4.1604 -4.2060  1.6104
 1018MOL0     H37380  11.014  11.057   4.294 -2.5200 -1.4267 -1.6503
 1018MOL0     H37381  11.200  10.790   4.504  0.1454 -0.3082  0.5806
 1018MOL0     H37382  11.436  10.763   4.616 -2.9181  1.1803 -0.0160
 1018MOL0     H37383  11.558  10.845   4.524 -0.2435 -2.0747  0.8645
 1018MOL0     H37384  11.450  10.961   4.782  2.3516  0.1686  0.4283
 1018MOL0     H37385  11.571  11.021   4.664  2.1656 -0.7331  0.2205
 1018MOL0     H37386  11.712  10.857   4.700  0.6261 -0.7742  0.4693
 1018MOL0     H37387  11.597  10.751   4.782  2.6033  0.2629  1.3842
 1018MOL0     H37388  11.719  10.999   4.897  2.2166 -1.2306 -3.0853
 1018MOL0     H37389  11.764  10.828   4.942  2.4323  1.1182 -1.9065
 1018MOL0     H37390  11.715  10.767   5.179 -0.3417 -0.4069  1.4518
 1018MOL0     H37391  11.792  10.589   5.289 -0.3793 -0.7556 -4.5469
 1018MOL0     H37392  11.661  10.531   5.400 -0.4697 -3.3742 -0.7014
 1018MOL0     H37393  11.711  10.431   5.274 -2.2909 -1.2715  2.7679
 1018MOL0     H37394  11.419  10.144   5.322  0.7106 -0.0091  3.3833
 1018MOL0     H37395  11.310  10.009   5.470  2.2347  2.9456 -0.6295
 1018MOL0     H37396  11.157   9.794   5.450 -0.2600 -2.3419  1.1858
 1018MOL0     H37397  11.177   9.873   5.607 -1.3722  1.5533  1.1011
 1018MOL0     H37398  10.926   9.804   5.647 -0.0029  1.2004  1.6513
 1018MOL0     H37399  10.977   9.678   5.528  2.0244  2.4507 -1.4066
 1018MOL0     H37400  11.117   9.744   5.806 -3.1994 -1.0263  1.9290
 1018MOL0     H37401  11.167   9.617   5.680 -0.9718 -0.2495 -2.2773
 1018MOL0     H37402  10.930   9.519   5.718  0.6914 -4.0987  1.3207
 1018MOL0     H37403  11.052   9.488   5.833 -0.7397 -0.2196 -1.7289
 1018MOL0     H37404  10.833   9.552   5.937 -0.7322  1.1630 -0.7155
 1018MOL0     H37405  10.865   9.718   5.881  3.6945  1.5154 -2.7594
 1018MOL0     H37406  11.043   9.541   6.053  0.2273  0.8145  0.4271
 1018MOL0     H37407  11.077   9.708   6.005  0.5649 -1.3396 -0.9021
 1018MOL0     H37408  11.023   9.680   6.230  0.8932 -0.3856 -2.0084
 1018MOL0     H37409  10.856   9.607   6.191 -1.2095 -0.2501 -2.8776
 1018MOL0     H37410  10.806   9.831   6.262  0.6963  2.0820 -0.2224
 1018MOL0     H37411  10.815   9.836   6.077 -0.6352  1.9173  0.0430
 1018MOL0     H37412  10.929  10.122   5.302  0.3853  1.5481  2.0315
 1018MOL0     H37413  11.063  10.295   5.176  3.1389  1.3030 -0.9852
 1018MOL0     H37414  11.317  10.531   5.031 -2.2870  3.3793 -2.2102
 1018MOL0     H37415  11.366  10.753   4.934 -0.5800 -0.6047 -0.3436
 1018MOL0     H37416  10.685  10.682   3.392 -0.4895 -0.6165  1.1575
 1018MOL0     H37417  10.628  10.812   3.212 -0.2240 -0.9173 -0.3858
 1018MOL0     H37418  10.228  10.955   2.866  1.3512 -0.4006 -2.8010
 1018MOL0     H37419  10.187  11.177   2.742 -0.9081 -2.9645  1.4213
 1018MOL0     H37420  10.373  11.602   2.735  0.0379  0.6249  1.1290
 1018MOL0     H37421  10.495  11.497   2.802 -2.1490  0.6048  1.4397
 1018MOL0     H37422  10.550  11.416   2.595  1.4789  0.9395 -2.2967
 1018MOL0     H37423  10.549  11.586   2.580  1.1127 -0.8844  2.8216
 1018MOL0     H37424  10.345  11.590   2.446  0.4170 -0.1431 -0.0814
 1018MOL0     H37425  10.294  11.427   2.506  1.1646 -1.7955  0.2982
 1018MOL0     H37426  10.471  11.320   2.399 -1.7846  0.8960  4.4099
 1018MOL0     H37427  10.522  11.485   2.320  0.6769 -0.4793  0.8144
 1018MOL0     H37428  10.207  11.342   2.085 -0.7953  0.8861 -0.1010
 1018MOL0     H37429  10.529  11.351   2.949 -0.5719 -0.8716  0.1838
 1018MOL0     H37430  10.543  11.157   3.081  1.4754  2.2520 -1.8026
 1019MOL0     O37431   3.986   0.849   6.506  0.1257 -0.1364  0.0166
 1019MOL0     C37432   3.950   0.743   6.561  0.8964  0.2886 -0.9263
 1019MOL0     O37433   4.033   0.641   6.599  1.2576  0.0369  0.4973
 1019MOL0     C37434   4.162   0.660   6.589  0.0820  0.0274  0.3604
 1019MOL0     C37435   4.232   0.677   6.470 -0.1568  0.2031 -0.0904
 1019MOL0     C37436   4.364   0.711   6.468 -0.3905 -0.3706  0.5115
 1019MOL0     C37437   4.439   0.735   6.584  0.5761  0.0801 -0.0112
 1019MOL0     O37438   4.572   0.777   6.568  0.4911  0.4313 -0.0921
 1019MOL0     C37439   4.662   0.730   6.667 -0.3103 -0.5574 -1.0427
 1019MOL0     C37440   4.764   0.838   6.698 -0.6909 -0.4119 -0.2673
 1019MOL0     C37441   4.890   0.762   6.734  0.2021  0.2439  1.0586
 1019MOL0     C37442   4.982   0.848   6.817 -0.1026  0.0717 -0.3202
 1019MOL0     C37443   5.133   0.819   6.796 -0.1910  0.6307 -0.3985
 1019MOL0     C37444   5.200   0.880   6.916  0.6546  0.5127 -0.1390
 1019MOL0     C37445   5.356   0.843   6.909  0.3473  0.0059  0.3599
 1019MOL0     C37446   5.437   0.883   7.033 -0.2995 -0.0262  0.2999
 1019MOL0     N37447   5.571   0.835   7.019 -0.5183  0.1042  0.1252
 1019MOL0     C37448   5.623   0.709   7.060  0.4757  0.1249  0.0244
 1019MOL0     C37449   5.755   0.723   7.046 -0.0770  0.5357 -0.2476
 1019MOL0     C37450   5.845   0.608   7.090  0.3723 -0.0914  1.2055
 1019MOL0     C37451   5.854   0.622   7.243 -0.3554  0.1209 -1.2514
 1019MOL0     C37452   5.922   0.761   7.287  0.9372  0.5409 -0.1462
 1019MOL0     C37453   6.061   0.766   7.226 -1.0620  0.8619  0.3239
 1019MOL0     O37454   6.165   0.801   7.320 -0.5253  0.0894  0.0545
 1019MOL0     C37455   6.249   0.703   7.387 -0.4513  0.5208  0.2449
 1019MOL0     C37456   6.377   0.742   7.432  0.5068 -0.3772  0.9886
 1019MOL0     C37457   6.467   0.658   7.503 -0.8243 -0.5938 -0.6002
 1019MOL0     C37458   6.607   0.700   7.549 -0.5423  0.1984  0.2650
 1019MOL0     C37459   6.420   0.529   7.536  0.6914  0.3020  0.5204
 1019MOL0     C37460   6.483   0.429   7.630 -0.5859  0.0008 -0.6237
 1019MOL0     O37461   6.419   0.314   7.646  0.8977 -0.8280  0.0565
 1019MOL0     C37462   6.471   0.219   7.731  0.1678  1.0750  0.0027
 1019MOL0     C37463   6.417   0.204   7.862  0.6483  0.4366  0.1988
 1019MOL0     C37464   6.467   0.115   7.957 -0.5511 -0.2124  0.1840
 1019MOL0     C37465   6.565   0.025   7.915  0.2575  0.1475  0.0236
 1019MOL0     O37466   6.609  -0.072   8.002  0.1511 -0.0595 -0.4897
 1019MOL0     C37467   6.733  -0.140   7.985  0.0875 -0.5415  0.5763
 1019MOL0     C37468   6.779  -0.207   8.116 -0.5285  0.1425  0.5962
 1019MOL0     C37469   6.742  -0.357   8.111  0.1541  0.2280  0.6737
 1019MOL0     C37470   6.782  -0.427   8.238  0.4290 -0.5348  0.9221
 1019MOL0     C37471   6.828  -0.569   8.220  0.2556  0.3261 -0.7573
 1019MOL0     C37472   6.854  -0.631   8.363 -0.6817 -0.1300 -0.7908
 1019MOL0     C37473   6.731  -0.649   8.438 -0.2612  0.1624  0.1083
 1019MOL0     C37474   6.746  -0.719   8.569  0.3296  1.2988  0.3276
 1019MOL0    Cl37475   6.900  -0.689   8.650  0.6073  0.2737 -0.4660
 1019MOL0     C37476   6.612   0.032   7.784  0.6597 -0.4588  0.2798
 1019MOL0     C37477   6.574   0.136   7.694 -1.4787  1.1299 -1.0833
 1019MOL0     O37478   6.585   0.462   7.690 -0.4123 -0.5270 -0.2821
 1019MOL0     C37479   6.287   0.490   7.482  0.8291 -0.1539 -0.6906
 1019MOL0     C37480   6.207   0.578   7.419 -0.5649 -1.1999  0.5247
 1019MOL0     N37481   5.791   0.853   7.027  0.9644  0.5821 -0.5901
 1019MOL0     N37482   5.678   0.917   6.991 -0.0064  0.4825 -0.9307
 1019MOL0     C37483   4.371   0.723   6.704 -0.1046  0.2273  0.9847
 1019MOL0     C37484   4.231   0.688   6.707 -0.0443 -0.0922 -1.3114
 1019MOL0     C37485   3.804   0.737   6.609 -0.8056  0.5847  0.2497
 1019MOL0     C37486   3.738   0.619   6.657 -0.4968 -0.1046 -0.2192
 1019MOL0     C37487   3.603   0.628   6.696  0.9002  0.0733  0.5624
 1019MOL0     C37488   3.532   0.751   6.689  0.0956 -0.1439 -0.4645
 1019MOL0     O37489   3.410   0.788   6.752  0.0989 -0.4340 -0.1406
 1019MOL0     C37490   3.368   0.713   6.866 -1.2856 -0.3535 -0.1696
 1019MOL0     C37491   3.265   0.605   6.816  0.1555 -0.3994  0.2096
 1019MOL0     C37492   3.256   0.477   6.914  0.0171  0.7203  0.5954
 1019MOL0     C37493   3.132   0.482   7.004 -0.0286 -0.4397  0.0302
 1019MOL0     C37494   3.130   0.603   7.086 -0.3873  0.0876 -0.2566
 1019MOL0     C37495   3.142   0.709   7.149  0.2515 -0.0148  0.1855
 1019MOL0     C37496   3.597   0.861   6.637  0.3635 -0.0997 -0.5333
 1019MOL0     C37497   3.727   0.852   6.599 -0.0246 -0.2486  0.3091
 1019MOL0     H37498   4.188   0.672   6.371  0.0723  0.7681 -0.2257
 1019MOL0     H37499   4.409   0.710   6.370 -0.4209 -3.1777  0.4563
 1019MOL0     H37500   4.614   0.701   6.761 -3.0465  0.3115 -2.0570
 1019MOL0     H37501   4.703   0.639   6.624 -1.4873 -0.9077 -1.4595
 1019MOL0     H37502   4.784   0.899   6.610  0.1267 -0.7401 -0.3265
 1019MOL0     H37503   4.730   0.907   6.776  1.5741 -0.9209  1.2917
 1019MOL0     H37504   4.874   0.659   6.768  1.7170 -1.0944 -1.9090
 1019MOL0     H37505   4.944   0.735   6.643 -1.5580 -1.3499  0.4340
 1019MOL0     H37506   4.970   0.950   6.780 -0.9770 -1.1594 -3.8474
 1019MOL0     H37507   4.952   0.843   6.922 -0.3847  2.3937 -0.2437
 1019MOL0     H37508   5.161   0.713   6.799 -0.8908  0.4586  2.0059
 1019MOL0     H37509   5.181   0.855   6.705  2.1173  0.3517  0.6442
 1019MOL0     H37510   5.190   0.989   6.908 -4.2869  0.2345 -0.6411
 1019MOL0     H37511   5.158   0.849   7.012 -0.2169 -2.1253 -1.2674
 1019MOL0     H37512   5.361   0.735   6.890  1.1857  0.0765  0.1368
 1019MOL0     H37513   5.409   0.877   6.820  1.1510 -2.3677 -0.1459
 1019MOL0     H37514   5.394   0.847   7.126  0.6974 -2.0866  0.0364
 1019MOL0     H37515   5.445   0.991   7.049  0.1140 -0.4925  4.1352
 1019MOL0     H37516   5.584   0.616   7.099  2.7086 -1.4854 -1.3168
 1019MOL0     H37517   5.792   0.517   7.060  0.5072  1.1298 -3.4483
 1019MOL0     H37518   5.935   0.604   7.027 -3.3697  0.2018 -4.9974
 1019MOL0     H37519   5.905   0.538   7.291 -1.9250 -1.1216 -1.6799
 1019MOL0     H37520   5.757   0.628   7.294  1.3622 -3.1168  3.0685
 1019MOL0     H37521   5.933   0.760   7.395 -0.2108  4.2090  0.1335
 1019MOL0     H37522   5.864   0.851   7.266 -2.1537 -0.8759  1.6487
 1019MOL0     H37523   6.047   0.842   7.148  0.9901  0.3409 -0.6316
 1019MOL0     H37524   6.092   0.675   7.174  0.1559  0.7156  1.2779
 1019MOL0     H37525   6.405   0.845   7.411  0.3296 -0.7593 -1.4005
 1019MOL0     H37526   6.601   0.717   7.657 -2.3271 -1.8776  0.5592
 1019MOL0     H37527   6.683   0.624   7.527  1.3781  2.1290 -0.0369
 1019MOL0     H37528   6.635   0.792   7.497 -0.4196 -0.3359 -0.6323
 1019MOL0     H37529   6.346   0.275   7.904 -0.2974 -0.9374  0.9924
 1019MOL0     H37530   6.422   0.105   8.055 -3.7366  1.5396 -0.9450
 1019MOL0     H37531   6.712  -0.216   7.909 -0.0172  0.8572 -0.8535
 1019MOL0     H37532   6.819  -0.083   7.948  0.8234 -2.5138 -0.9166
 1019MOL0     H37533   6.884  -0.178   8.130 -1.0720  3.0549 -0.6539
 1019MOL0     H37534   6.719  -0.155   8.191 -0.5241  0.3238  0.4741
 1019MOL0     H37535   6.789  -0.411   8.028 -1.1771  0.4069 -0.2241
 1019MOL0     H37536   6.635  -0.352   8.092  0.2096 -0.9074 -0.0703
 1019MOL0     H37537   6.849  -0.366   8.300  0.7039 -1.2216  1.3233
 1019MOL0     H37538   6.685  -0.438   8.289 -0.2991 -0.8052 -0.4722
 1019MOL0     H37539   6.921  -0.567   8.163 -0.2546 -2.3345 -1.8004
 1019MOL0     H37540   6.746  -0.619   8.168  0.9521 -0.1226 -1.4308
 1019MOL0     H37541   6.907  -0.725   8.347 -1.9983 -1.2090  0.7920
 1019MOL0     H37542   6.932  -0.579   8.418 -1.2142 -1.3575  1.2465
 1019MOL0     H37543   6.661  -0.703   8.374  1.1636 -3.0303  1.0547
 1019MOL0     H37544   6.689  -0.549   8.455  0.5720  0.9496 -2.1191
 1019MOL0     H37545   6.738  -0.824   8.538  0.6742  0.9725  1.3242
 1019MOL0     H37546   6.658  -0.704   8.633 -0.2700  0.5053 -0.2929
 1019MOL0     H37547   6.693  -0.030   7.748  1.4104  0.5531  0.2036
 1019MOL0     H37548   6.641   0.145   7.608  2.2404 -1.3654  1.2477
 1019MOL0     H37549   6.229   0.399   7.495  0.8573 -0.1729 -0.6995
 1019MOL0     H37550   6.113   0.537   7.384 -0.8863  0.5827 -0.8079
 1019MOL0     H37551   4.417   0.753   6.797 -0.2002 -0.3552  1.2266
 1019MOL0     H37552   4.178   0.690   6.801  1.3263 -0.5659 -0.4988
 1019MOL0     H37553   3.772   0.516   6.658 -1.3873 -0.4721 -2.0985
 1019MOL0     H37554   3.556   0.535   6.727 -1.0602  1.4164  1.8817
 1019MOL0     H37555   3.456   0.663   6.906 -0.1881  0.1077 -1.8827
 1019MOL0     H37556   3.321   0.780   6.939 -2.6811 -1.1311 -0.3147
 1019MOL0     H37557   3.270   0.573   6.712 -0.3975 -0.5420  0.2213
 1019MOL0     H37558   3.166   0.650   6.829  0.0988 -0.8516  1.6244
 1019MOL0     H37559   3.342   0.472   6.982  0.6367 -0.6066 -0.2525
 1019MOL0     H37560   3.260   0.387   6.852 -0.3859  1.9979 -1.3841
 1019MOL0     H37561   3.142   0.400   7.075  0.6834  1.1013  1.7651
 1019MOL0     H37562   3.046   0.494   6.937 -0.8483  1.2302  1.3099
 1019MOL0     H37563   3.157   0.790   7.218 -1.9755  2.2991 -1.8357
 1019MOL0     H37564   3.533   0.948   6.638 -1.6900 -1.4310  3.0687
 1019MOL0     H37565   3.778   0.933   6.548  3.4051 -1.1637  1.9900
 1020MOL0     O37566   2.815   0.369   2.456 -0.0665  0.6102 -0.3306
 1020MOL0     C37567   2.739   0.461   2.485  0.4367  0.3827  0.1730
 1020MOL0     O37568   2.760   0.581   2.450 -0.1101  0.6855 -0.2988
 1020MOL0     C37569   2.846   0.630   2.356  0.6674  0.2009 -0.3169
 1020MOL0     C37570   2.894   0.561   2.234  0.8273  0.2870 -0.1381
 1020MOL0     C37571   2.990   0.615   2.143 -0.3287 -0.0098 -0.2550
 1020MOL0     C37572   3.021   0.744   2.157  0.2347 -0.1150  0.4963
 1020MOL0     O37573   3.091   0.815   2.057  0.7775 -0.8824  0.3780
 1020MOL0     C37574   3.131   0.731   1.952  0.1499 -1.2051  0.0648
 1020MOL0     C37575   3.197   0.811   1.839 -0.7949 -0.5383 -0.4741
 1020MOL0     C37576   3.219   0.727   1.709  0.1723 -0.1878  0.0765
 1020MOL0     C37577   3.092   0.699   1.624  1.0859 -0.2281 -0.2323
 1020MOL0     C37578   3.105   0.640   1.489 -0.0096  0.4789 -0.0269
 1020MOL0     C37579   3.160   0.752   1.394 -0.2310 -0.4417 -0.5326
 1020MOL0     C37580   3.165   0.697   1.247  0.5915  0.1345 -0.0144
 1020MOL0     C37581   3.029   0.664   1.190  0.5254  0.6742  0.1937
 1020MOL0     N37582   3.023   0.660   1.038 -0.0373 -0.3404 -1.2925
 1020MOL0     C37583   2.985   0.769   0.966 -0.2774  0.1240  0.5313
 1020MOL0     C37584   2.998   0.728   0.836  0.4600 -0.7148 -0.6771
 1020MOL0     C37585   2.952   0.799   0.710  0.7707 -1.1249  0.6178
 1020MOL0     C37586   2.835   0.899   0.737  0.5112 -0.3800  0.4405
 1020MOL0     C37587   2.699   0.864   0.800 -0.4699  0.4410  0.1716
 1020MOL0     C37588   2.659   0.959   0.910 -0.0076 -0.4401  0.1849
 1020MOL0     O37589   2.527   0.927   0.955 -0.2840  0.3435 -0.2825
 1020MOL0     C37590   2.466   1.001   1.050 -1.6023 -0.5603 -0.9456
 1020MOL0     C37591   2.366   0.951   1.126  0.6868 -0.3164 -0.5831
 1020MOL0     C37592   2.305   1.021   1.230  0.1560 -1.1453 -0.5403
 1020MOL0     C37593   2.199   0.942   1.312  0.3155  0.4977  0.2629
 1020MOL0     C37594   2.352   1.150   1.270  0.3550  1.1620 -0.7979
 1020MOL0     C37595   2.294   1.238   1.396 -0.2533 -0.0117  0.6908
 1020MOL0     O37596   2.187   1.183   1.457 -0.0728  0.1208  0.2653
 1020MOL0     C37597   2.073   1.247   1.489 -0.0740  0.3425 -0.3420
 1020MOL0     C37598   2.027   1.373   1.448 -0.7507 -0.1170 -0.9319
 1020MOL0     C37599   1.901   1.429   1.491 -0.8962 -0.3086 -0.5233
 1020MOL0     C37600   1.827   1.358   1.584 -1.1967 -0.2058 -0.8185
 1020MOL0     O37601   1.705   1.390   1.634  0.0516  0.0731 -0.0163
 1020MOL0     C37602   1.614   1.467   1.550 -0.8350  0.2198  0.9344
 1020MOL0     C37603   1.478   1.466   1.619 -0.2052  0.4922 -1.1431
 1020MOL0     C37604   1.485   1.494   1.775 -0.1483 -0.7709 -0.1769
 1020MOL0     C37605   1.362   1.580   1.811  0.4454  0.7124 -0.0585
 1020MOL0     C37606   1.392   1.641   1.951 -0.6786  0.1044 -0.0105
 1020MOL0     C37607   1.282   1.735   2.011 -1.4521  0.4417 -0.4905
 1020MOL0     C37608   1.291   1.878   1.932 -0.4602  0.3196  1.2324
 1020MOL0     C37609   1.175   1.966   1.977 -0.2186 -0.0767 -0.1090
 1020MOL0    Cl37610   1.172   2.016   2.151  0.0322  0.5736 -0.1461
 1020MOL0     C37611   1.873   1.239   1.626 -0.6068  0.8015  0.4365
 1020MOL0     C37612   1.985   1.176   1.570 -1.0664  0.1862 -0.3857
 1020MOL0     O37613   2.343   1.346   1.414  0.7170  0.2367 -1.1398
 1020MOL0     C37614   2.459   1.195   1.196 -0.0084 -1.8222  0.5770
 1020MOL0     C37615   2.520   1.129   1.088 -0.8062 -0.2700 -0.2624
 1020MOL0     N37616   3.031   0.600   0.845  0.5152  1.3151  0.0456
 1020MOL0     N37617   3.051   0.551   0.965  0.8978  0.3869 -0.1725
 1020MOL0     C37618   2.971   0.818   2.278  0.7920  0.3471  1.1584
 1020MOL0     C37619   2.896   0.757   2.381 -0.6583  0.5734  0.4752
 1020MOL0     C37620   2.611   0.425   2.541  0.8698  0.3397 -0.0912
 1020MOL0     C37621   2.534   0.519   2.610 -1.0083  0.9842 -1.1013
 1020MOL0     C37622   2.400   0.493   2.653  0.7412  0.1108  1.5211
 1020MOL0     C37623   2.347   0.372   2.627  0.1338 -0.7857  0.0156
 1020MOL0     O37624   2.232   0.332   2.685 -0.7952  0.1469 -0.0112
 1020MOL0     C37625   2.234   0.232   2.786  0.0857  0.0138  0.2839
 1020MOL0     C37626   2.096   0.169   2.775 -0.6898 -0.1614  0.1438
 1020MOL0     C37627   2.081   0.076   2.659 -0.4236 -0.3405  0.2777
 1020MOL0     C37628   2.148  -0.067   2.660  0.4328  0.3069 -0.5383
 1020MOL0     C37629   2.132  -0.138   2.791  0.6140 -0.3296  0.0557
 1020MOL0     C37630   2.122  -0.171   2.909  0.9626  0.1639  0.2398
 1020MOL0     C37631   2.418   0.283   2.539 -0.8112  0.7035 -0.7109
 1020MOL0     C37632   2.550   0.302   2.503  0.1227  0.3876  0.7339
 1020MOL0     H37633   2.862   0.459   2.217  4.5742 -0.6553 -2.6291
 1020MOL0     H37634   3.023   0.555   2.059 -0.5217 -1.1140  0.4371
 1020MOL0     H37635   3.209   0.668   1.996  1.8136 -0.4873 -1.6950
 1020MOL0     H37636   3.049   0.680   1.901  1.5999 -1.3588 -2.2996
 1020MOL0     H37637   3.118   0.881   1.810 -0.1208  1.2447  1.7086
 1020MOL0     H37638   3.289   0.867   1.859 -0.5582 -0.9930 -0.2624
 1020MOL0     H37639   3.298   0.763   1.643  1.1916 -2.8600 -0.2806
 1020MOL0     H37640   3.255   0.629   1.740  2.3053  0.1973 -1.0588
 1020MOL0     H37641   3.028   0.638   1.688  4.5426 -2.2668  1.6076
 1020MOL0     H37642   3.032   0.789   1.615 -2.9527 -2.6227  0.3071
 1020MOL0     H37643   3.172   0.553   1.487 -0.2487  0.2712 -2.6982
 1020MOL0     H37644   3.003   0.616   1.456 -1.7543  2.5083  3.3658
 1020MOL0     H37645   3.100   0.843   1.400  0.1051 -0.1781 -1.1350
 1020MOL0     H37646   3.262   0.780   1.424  0.3313 -3.0186  0.2389
 1020MOL0     H37647   3.206   0.767   1.173 -6.1899  1.7930 -2.9481
 1020MOL0     H37648   3.226   0.607   1.244  0.8317  0.2187  1.3507
 1020MOL0     H37649   2.959   0.743   1.219 -2.3872 -0.8560 -2.1022
 1020MOL0     H37650   2.994   0.570   1.236 -0.3608  2.5599  3.7310
 1020MOL0     H37651   2.953   0.868   0.997  1.0831  0.0431  2.3090
 1020MOL0     H37652   3.038   0.856   0.673 -1.5487  2.0034 -0.3759
 1020MOL0     H37653   2.903   0.730   0.640 -4.4792  1.0936  1.6868
 1020MOL0     H37654   2.826   0.941   0.636  5.0767 -0.2601 -0.0861
 1020MOL0     H37655   2.883   0.973   0.801  0.1655  1.1375 -0.9746
 1020MOL0     H37656   2.715   0.763   0.840  1.6763 -0.4331 -2.5566
 1020MOL0     H37657   2.619   0.859   0.725  1.5651 -0.6610 -2.0681
 1020MOL0     H37658   2.658   1.063   0.877 -2.3949  0.7792  3.5877
 1020MOL0     H37659   2.731   0.959   0.993  1.3221  0.6233 -0.9305
 1020MOL0     H37660   2.333   0.851   1.104  0.5693  0.5106 -5.0738
 1020MOL0     H37661   2.181   0.840   1.278 -0.5366  0.1528  1.6442
 1020MOL0     H37662   2.230   0.932   1.417 -0.5137  0.8717  0.5562
 1020MOL0     H37663   2.105   0.999   1.307  0.6812  1.0282 -0.7929
 1020MOL0     H37664   2.089   1.434   1.383  1.4213 -1.1772  0.0432
 1020MOL0     H37665   1.868   1.528   1.460  0.6245  1.0430  1.8761
 1020MOL0     H37666   1.651   1.566   1.521 -1.6191  0.0863 -0.6454
 1020MOL0     H37667   1.611   1.416   1.454  0.3840  0.8310  0.5448
 1020MOL0     H37668   1.405   1.521   1.559  2.1941 -0.1454 -5.0373
 1020MOL0     H37669   1.439   1.365   1.603 -1.3852  0.4738  1.3607
 1020MOL0     H37670   1.574   1.554   1.798 -0.3107  0.0735 -1.6156
 1020MOL0     H37671   1.497   1.399   1.828 -2.9826 -1.1358 -0.0630
 1020MOL0     H37672   1.364   1.659   1.736  1.8827 -0.8040 -1.6969
 1020MOL0     H37673   1.271   1.519   1.808  1.0145 -0.2931  1.8149
 1020MOL0     H37674   1.486   1.698   1.952 -2.5299  3.3894  1.5756
 1020MOL0     H37675   1.415   1.557   2.018  1.4786  0.4114 -0.2995
 1020MOL0     H37676   1.184   1.689   1.998 -0.2458 -2.1406 -1.2897
 1020MOL0     H37677   1.314   1.754   2.114  2.8260 -0.7472 -1.3766
 1020MOL0     H37678   1.268   1.849   1.830 -1.9201  1.1410  1.2985
 1020MOL0     H37679   1.389   1.926   1.944  0.4082 -0.4028 -2.0241
 1020MOL0     H37680   1.080   1.914   1.963 -0.1699  0.4540 -3.0797
 1020MOL0     H37681   1.176   2.061   1.922 -0.0780 -0.0814 -0.1166
 1020MOL0     H37682   1.817   1.180   1.698  0.4986 -0.4217  0.3290
 1020MOL0     H37683   2.008   1.071   1.585 -2.6875 -0.5827 -2.8114
 1020MOL0     H37684   2.485   1.296   1.227 -1.8597 -1.3572  0.7549
 1020MOL0     H37685   2.614   1.165   1.049 -1.5428  1.3997 -0.5716
 1020MOL0     H37686   3.003   0.922   2.276  0.3486  0.4840  0.9829
 1020MOL0     H37687   2.868   0.813   2.470  0.6110  2.1616 -0.0689
 1020MOL0     H37688   2.581   0.614   2.635 -1.4705  0.6121  1.4628
 1020MOL0     H37689   2.351   0.568   2.713  1.2062  1.1058  0.6803
 1020MOL0     H37690   2.311   0.156   2.773  0.5968  0.7736 -1.3532
 1020MOL0     H37691   2.236   0.287   2.881  2.4936  0.1980  0.1806
 1020MOL0     H37692   2.028   0.254   2.762  0.8514  1.4798  2.1514
 1020MOL0     H37693   2.073   0.120   2.870  0.0790 -1.9531 -0.5437
 1020MOL0     H37694   2.117   0.120   2.565 -0.8130 -0.9368 -0.1539
 1020MOL0     H37695   1.974   0.069   2.641 -0.0817  0.8586 -3.0317
 1020MOL0     H37696   2.254  -0.060   2.636  0.3080  0.8318 -0.9765
 1020MOL0     H37697   2.102  -0.121   2.577 -1.0378  0.6510  0.0113
 1020MOL0     H37698   2.123  -0.205   3.011  0.6005 -2.4258 -0.5652
 1020MOL0     H37699   2.371   0.194   2.499  1.8287  0.3129 -3.3657
 1020MOL0     H37700   2.601   0.233   2.437 -3.3922 -2.2006  0.4465
 1021MOL0     O37701   7.976   1.709   2.577 -0.5450 -0.8059 -0.1420
 1021MOL0     C37702   8.003   1.588   2.567 -0.0620  0.4687 -0.5190
 1021MOL0     O37703   8.108   1.530   2.632  0.0030 -0.1372  0.2964
 1021MOL0     C37704   8.177   1.614   2.726  0.6790 -0.5171  0.3399
 1021MOL0     C37705   8.318   1.615   2.735  0.1340 -0.4508  0.6613
 1021MOL0     C37706   8.391   1.685   2.834  0.7434 -0.3732  0.6187
 1021MOL0     C37707   8.318   1.760   2.934  0.0309  0.9356 -0.3399
 1021MOL0     O37708   8.384   1.859   3.003 -0.0550 -0.1278 -0.6623
 1021MOL0     C37709   8.360   1.896   3.149  0.1691 -0.1617  1.0069
 1021MOL0     C37710   8.481   1.990   3.175 -1.1093  0.3187 -0.7717
 1021MOL0     C37711   8.484   2.041   3.319 -0.4131  1.1827 -0.9499
 1021MOL0     C37712   8.583   1.983   3.428  0.4397  0.0958 -0.3137
 1021MOL0     C37713   8.731   2.008   3.408 -0.2976 -0.1656 -0.5084
 1021MOL0     C37714   8.816   1.964   3.531  0.1846 -0.6600 -0.2844
 1021MOL0     C37715   8.964   1.938   3.497 -0.2556 -0.4054 -0.6828
 1021MOL0     C37716   9.059   1.946   3.611  0.1112 -0.4700 -0.6241
 1021MOL0     N37717   9.200   1.956   3.568  0.3655  0.5901 -0.1537
 1021MOL0     C37718   9.266   1.854   3.505  0.1420  1.9270  0.0538
 1021MOL0     C37719   9.394   1.899   3.496 -0.6939  0.2104 -0.5026
 1021MOL0     C37720   9.504   1.841   3.419 -0.3513  0.8224  0.3014
 1021MOL0     C37721   9.582   1.947   3.336  0.5971  0.1038  0.4997
 1021MOL0     C37722   9.481   1.997   3.231 -1.0015 -0.6043  0.3257
 1021MOL0     C37723   9.559   2.053   3.103  0.0831 -0.8676  0.1187
 1021MOL0     O37724   9.487   2.161   3.026 -0.5218 -0.5559 -1.0941
 1021MOL0     C37725   9.377   2.131   2.950 -0.2137  0.0115 -0.3701
 1021MOL0     C37726   9.337   2.004   2.908 -0.3131 -0.5596  0.2122
 1021MOL0     C37727   9.228   1.985   2.821 -0.1270  0.8526  1.1215
 1021MOL0     C37728   9.165   1.841   2.809  0.0492  0.8937 -0.1989
 1021MOL0     C37729   9.180   2.090   2.745  0.5151 -0.5621 -0.1335
 1021MOL0     C37730   9.083   2.083   2.635  0.2882  0.8181 -0.1537
 1021MOL0     O37731   9.017   1.970   2.618 -0.7784  0.8479 -0.3753
 1021MOL0     C37732   8.986   1.925   2.489  0.0245 -0.4190 -0.0177
 1021MOL0     C37733   9.071   1.929   2.383  0.0979 -0.3593 -0.3762
 1021MOL0     C37734   9.026   1.879   2.259  0.0277  1.5810  0.3186
 1021MOL0     C37735   8.900   1.822   2.242  0.4892 -0.2131 -0.0363
 1021MOL0     O37736   8.884   1.774   2.120  0.0604  0.3220  0.5562
 1021MOL0     C37737   8.757   1.717   2.085  0.8277  0.7062  0.0031
 1021MOL0     C37738   8.772   1.666   1.943  0.5629 -0.3994 -0.0437
 1021MOL0     C37739   8.639   1.624   1.878 -0.3044  0.0438  1.2323
 1021MOL0     C37740   8.612   1.716   1.745  0.9750  0.5566  0.0303
 1021MOL0     C37741   8.581   1.863   1.779  0.5983  0.0747  0.3554
 1021MOL0     C37742   8.570   1.941   1.649 -0.4369  0.1799  0.5022
 1021MOL0     C37743   8.571   2.094   1.665  0.6296 -0.3390  0.8774
 1021MOL0     C37744   8.590   2.158   1.531  0.5323 -0.2321 -0.6321
 1021MOL0    Cl37745   8.764   2.170   1.493  0.0638 -0.5056 -0.4135
 1021MOL0     C37746   8.812   1.814   2.355 -0.0416  0.2557  0.0839
 1021MOL0     C37747   8.858   1.866   2.476 -0.2653 -0.0101 -0.3936
 1021MOL0     O37748   9.076   2.181   2.558  0.1459  0.9377  0.3899
 1021MOL0     C37749   9.220   2.219   2.778 -0.5565 -0.6311 -0.3793
 1021MOL0     C37750   9.313   2.245   2.884 -0.1782  0.4584 -0.2617
 1021MOL0     N37751   9.400   2.023   3.561 -0.7625  0.9687 -0.8245
 1021MOL0     N37752   9.283   2.050   3.613  0.7315  0.3977  0.1245
 1021MOL0     C37753   8.176   1.755   2.934 -0.7122 -0.1196 -0.7913
 1021MOL0     C37754   8.110   1.681   2.832 -0.3851  0.0068 -0.1533
 1021MOL0     C37755   7.920   1.504   2.468  0.7549 -0.3967  0.5874
 1021MOL0     C37756   7.954   1.371   2.441  0.0696 -0.2467 -0.0131
 1021MOL0     C37757   7.890   1.303   2.346 -0.2208  0.2922 -0.2659
 1021MOL0     C37758   7.769   1.349   2.279 -0.7590 -0.1324 -0.0166
 1021MOL0     O37759   7.683   1.278   2.206  0.7888 -0.2953  0.2383
 1021MOL0     C37760   7.724   1.147   2.175 -0.6405  0.5204  0.1610
 1021MOL0     C37761   7.646   1.088   2.061  0.4638  0.5599 -0.4816
 1021MOL0     C37762   7.503   1.094   2.108  0.1995  0.6291  0.5299
 1021MOL0     C37763   7.425   1.002   2.015  0.1955  0.8175 -0.6077
 1021MOL0     C37764   7.402   1.064   1.879 -0.1250 -0.1393 -0.6556
 1021MOL0     C37765   7.383   1.095   1.768 -0.2142 -0.5305 -0.2803
 1021MOL0     C37766   7.733   1.481   2.306  0.0980 -0.4880 -0.8147
 1021MOL0     C37767   7.813   1.558   2.390 -0.4006  1.0581  0.3488
 1021MOL0     H37768   8.373   1.576   2.650  2.8117  1.1767  1.5533
 1021MOL0     H37769   8.499   1.684   2.839  0.7493 -0.6627  0.4579
 1021MOL0     H37770   8.263   1.945   3.151  0.6256  1.3104 -3.1149
 1021MOL0     H37771   8.359   1.806   3.211 -0.0483 -0.1699  0.9903
 1021MOL0     H37772   8.580   1.960   3.140  0.1932  2.2973  0.9494
 1021MOL0     H37773   8.468   2.082   3.117  0.0027  1.6894  1.0542
 1021MOL0     H37774   8.507   2.146   3.303 -1.4754  1.4673 -0.6703
 1021MOL0     H37775   8.383   2.036   3.362 -1.5012  4.0017 -2.9180
 1021MOL0     H37776   8.540   2.019   3.521 -0.3539 -0.6997 -0.3556
 1021MOL0     H37777   8.573   1.875   3.438  0.6407  0.0416 -0.6642
 1021MOL0     H37778   8.765   1.965   3.313 -1.2265  1.8666 -1.8280
 1021MOL0     H37779   8.752   2.113   3.389  1.1375 -0.4261 -0.4349
 1021MOL0     H37780   8.806   2.046   3.604  0.3854  1.0081 -2.0352
 1021MOL0     H37781   8.778   1.873   3.577  0.8024 -0.1680  1.2674
 1021MOL0     H37782   8.979   1.842   3.448 -0.0866 -1.0910  0.6709
 1021MOL0     H37783   9.003   2.009   3.423 -0.6925 -1.4450 -1.9619
 1021MOL0     H37784   9.052   1.856   3.673 -1.3658 -0.0832 -0.1687
 1021MOL0     H37785   9.040   2.039   3.667 -2.3555 -0.7843 -0.8221
 1021MOL0     H37786   9.226   1.765   3.457 -0.4750  1.5488  1.2294
 1021MOL0     H37787   9.580   1.787   3.476  2.8136  3.4279 -1.1340
 1021MOL0     H37788   9.460   1.765   3.354  0.9262 -0.7127  1.1762
 1021MOL0     H37789   9.664   1.898   3.281  0.7192  1.0349 -0.1734
 1021MOL0     H37790   9.630   2.020   3.402  1.3405  0.5725 -0.5135
 1021MOL0     H37791   9.416   2.076   3.269  0.8576  1.3090 -0.2404
 1021MOL0     H37792   9.419   1.917   3.191 -2.5035  0.3875  0.5914
 1021MOL0     H37793   9.589   1.982   3.025  0.1231 -1.5743  0.7575
 1021MOL0     H37794   9.658   2.091   3.131 -0.1923  1.6863 -2.0179
 1021MOL0     H37795   9.371   1.911   2.954 -1.7561 -0.8700  0.6900
 1021MOL0     H37796   9.059   1.850   2.836 -0.1110 -1.6251  0.2849
 1021MOL0     H37797   9.170   1.786   2.714  0.2594 -0.6633  0.6747
 1021MOL0     H37798   9.211   1.769   2.876  0.8565  1.4368 -0.1581
 1021MOL0     H37799   9.172   1.968   2.389  0.1083 -0.2337 -1.3182
 1021MOL0     H37800   9.101   1.878   2.181  2.9425 -1.1824  2.8819
 1021MOL0     H37801   8.719   1.638   2.151 -1.4932  1.2764 -0.5324
 1021MOL0     H37802   8.679   1.794   2.084  0.7617  0.6393 -0.9403
 1021MOL0     H37803   8.818   1.736   1.873 -0.4806 -0.1897 -0.5308
 1021MOL0     H37804   8.835   1.578   1.961  0.8596 -0.8436 -2.8368
 1021MOL0     H37805   8.552   1.636   1.943 -2.7242 -0.3140 -1.7235
 1021MOL0     H37806   8.636   1.522   1.839 -4.4514  0.9101 -1.3119
 1021MOL0     H37807   8.693   1.719   1.671 -1.1029 -1.4361 -2.5316
 1021MOL0     H37808   8.540   1.661   1.683  0.3623  2.2187 -0.7958
 1021MOL0     H37809   8.656   1.909   1.844  0.2453  1.3799 -0.1188
 1021MOL0     H37810   8.487   1.860   1.834  0.0854 -1.7047 -0.5304
 1021MOL0     H37811   8.658   1.905   1.595 -0.3774 -0.8739  1.2591
 1021MOL0     H37812   8.497   1.904   1.577 -0.3791 -0.0302  0.5491
 1021MOL0     H37813   8.650   2.135   1.728  0.0827  0.4360  1.0567
 1021MOL0     H37814   8.475   2.126   1.704  0.7900  1.9368 -0.4173
 1021MOL0     H37815   8.567   2.265   1.534  2.1254  0.1244  1.4583
 1021MOL0     H37816   8.544   2.100   1.451 -2.1101  2.6607 -1.4093
 1021MOL0     H37817   8.713   1.771   2.349 -0.2123  0.4301  1.3285
 1021MOL0     H37818   8.794   1.868   2.564 -0.4884 -1.6048 -0.4832
 1021MOL0     H37819   9.187   2.312   2.734  1.3500  0.3674  0.1979
 1021MOL0     H37820   9.332   2.350   2.905 -3.7539  1.3645 -0.8483
 1021MOL0     H37821   8.136   1.798   3.026  4.5292 -2.6837  3.2537
 1021MOL0     H37822   8.002   1.689   2.818 -0.2218  1.4883 -0.6850
 1021MOL0     H37823   8.035   1.323   2.496  1.8843  3.2071  0.5725
 1021MOL0     H37824   7.941   1.210   2.325 -0.8888  0.0696 -0.9311
 1021MOL0     H37825   7.833   1.136   2.167 -0.4554  2.1297  0.1315
 1021MOL0     H37826   7.693   1.083   2.258 -2.4598  1.8932  0.6112
 1021MOL0     H37827   7.669   0.983   2.039 -2.1330 -0.0266 -0.7187
 1021MOL0     H37828   7.657   1.150   1.972 -0.0813  1.4240  0.0397
 1021MOL0     H37829   7.452   1.191   2.116 -3.0988 -0.7918 -1.4539
 1021MOL0     H37830   7.495   1.049   2.208  0.0938  1.8144  1.0752
 1021MOL0     H37831   7.333   0.986   2.071  1.9261 -1.6606  1.7648
 1021MOL0     H37832   7.481   0.909   2.009  1.7697  1.7788 -1.6619
 1021MOL0     H37833   7.372   1.138   1.671 -1.6204 -2.3881 -1.0092
 1021MOL0     H37834   7.642   1.524   2.266 -0.6491 -1.0393  0.2440
 1021MOL0     H37835   7.784   1.662   2.397 -2.4798  0.6302 -0.8078
 1022MOL0     O37836   1.299   9.078  10.549  0.2132  0.0432  0.0321
 1022MOL0     C37837   1.243   9.039  10.453 -0.2883 -0.4211  0.3078
 1022MOL0     O37838   1.217   9.110  10.341 -0.1226 -0.8515  0.4357
 1022MOL0     C37839   1.220   9.250  10.334  0.2421  0.3386  0.4985
 1022MOL0     C37840   1.207   9.337  10.444  1.0172 -0.7389  0.0833
 1022MOL0     C37841   1.211   9.479  10.424  0.2664  0.0967 -1.0673
 1022MOL0     C37842   1.211   9.539  10.293  0.5826 -0.7374  0.6721
 1022MOL0     O37843   1.201   9.673  10.276 -0.7970  0.0684  0.6627
 1022MOL0     C37844   1.234   9.736  10.146 -0.2367 -0.3589 -1.5936
 1022MOL0     C37845   1.187   9.891  10.149 -0.1446 -0.2223 -0.1180
 1022MOL0     C37846   1.034   9.899  10.178 -1.0619 -0.5967 -0.2719
 1022MOL0     C37847   1.001  10.050  10.158  0.1916 -0.0549  0.7293
 1022MOL0     C37848   0.852  10.061  10.118 -0.5466 -0.1952 -0.5359
 1022MOL0     C37849   0.823  10.212  10.092 -0.0648 -0.6043  0.0649
 1022MOL0     C37850   0.686  10.231  10.016 -0.0896  0.1653 -0.4347
 1022MOL0     C37851   0.562  10.207  10.103 -0.0358  0.0952 -0.9220
 1022MOL0     N37852   0.548  10.303  10.217 -0.6264  0.6199  1.0070
 1022MOL0     C37853   0.494  10.433  10.202 -0.0948 -0.1501 -0.6192
 1022MOL0     C37854   0.502  10.494  10.323  0.1356 -0.4059 -0.1748
 1022MOL0     C37855   0.450  10.635  10.355 -0.3155  0.7783  0.2488
 1022MOL0     C37856   0.521  10.756  10.285 -0.0861  0.4233 -0.0110
 1022MOL0     C37857   0.674  10.741  10.293  0.3727 -0.3093 -0.7503
 1022MOL0     C37858   0.747  10.695  10.424  0.0068 -0.4468  0.0168
 1022MOL0     O37859   0.886  10.733  10.421 -0.4335  0.4368 -0.7441
 1022MOL0     C37860   0.970  10.646  10.343  0.7235 -0.1385 -0.5521
 1022MOL0     C37861   1.094  10.692  10.330 -0.7616 -0.2699 -0.9643
 1022MOL0     C37862   1.201  10.623  10.267 -1.1473  0.0529 -0.1361
 1022MOL0     C37863   1.335  10.692  10.256  0.3840 -0.6367 -0.2428
 1022MOL0     C37864   1.173  10.500  10.209  0.3753 -0.5119  0.8308
 1022MOL0     C37865   1.278  10.415  10.151  0.4169  0.2345  0.1611
 1022MOL0     O37866   1.346  10.460  10.042  0.0781 -0.1654  0.6893
 1022MOL0     C37867   1.440  10.398   9.973  0.4465  0.0223 -0.0555
 1022MOL0     C37868   1.555  10.341  10.032  0.0810  0.6320  0.9095
 1022MOL0     C37869   1.651  10.270   9.973 -0.0845  0.9807  1.2503
 1022MOL0     C37870   1.643  10.252   9.830 -1.0068 -0.0997 -0.5972
 1022MOL0     O37871   1.741  10.172   9.767  0.2879 -0.3555  0.3951
 1022MOL0     C37872   1.799  10.254   9.656 -0.4735  0.0279  0.0009
 1022MOL0     C37873   1.932  10.185   9.615  0.1232  0.2577 -0.0525
 1022MOL0     C37874   2.032  10.251   9.523 -0.6973  0.6827 -0.4922
 1022MOL0     C37875   1.961  10.306   9.397  0.0760 -0.7574 -0.1866
 1022MOL0     C37876   2.049  10.362   9.277 -0.0941  0.1125  0.2163
 1022MOL0     C37877   2.084  10.264   9.167 -0.2565  0.2722  0.8934
 1022MOL0     C37878   2.105  10.121   9.196  0.2438  1.0844 -0.0438
 1022MOL0     C37879   2.213  10.058   9.101 -0.1509 -0.0981 -0.9692
 1022MOL0    Cl37880   2.134  10.039   8.939 -0.2115  0.4075 -0.3209
 1022MOL0     C37881   1.539  10.319   9.769  0.3850  0.9067 -0.0549
 1022MOL0     C37882   1.435  10.384   9.835 -0.4720 -0.9072 -0.1948
 1022MOL0     O37883   1.275  10.296  10.195 -0.5157 -0.2302 -0.0568
 1022MOL0     C37884   1.038  10.448  10.220 -0.0080 -0.1419  0.2289
 1022MOL0     C37885   0.938  10.525  10.286  0.6458 -0.3626 -0.1064
 1022MOL0     N37886   0.549  10.402  10.417  0.5883 -0.7046  0.2500
 1022MOL0     N37887   0.576  10.289  10.351 -0.3311 -1.2898  0.6005
 1022MOL0     C37888   1.222   9.454  10.181 -0.3533  0.3553 -0.9513
 1022MOL0     C37889   1.228   9.314  10.204 -0.4852  0.2387  0.1157
 1022MOL0     C37890   1.202   8.891  10.462 -1.0011  0.8722  0.2874
 1022MOL0     C37891   1.147   8.831  10.349 -0.7095  0.2899  0.6067
 1022MOL0     C37892   1.096   8.705  10.345  0.6054  0.2747 -0.2750
 1022MOL0     C37893   1.132   8.619  10.453 -0.3347  0.2813 -0.5950
 1022MOL0     O37894   1.106   8.483  10.446  0.2919  1.1297 -0.7448
 1022MOL0     C37895   1.100   8.398  10.563 -0.6210 -0.1018  0.4850
 1022MOL0     C37896   1.086   8.256  10.505  1.0264 -0.8588 -0.1394
 1022MOL0     C37897   1.215   8.195  10.468 -0.5079  0.0065  0.0560
 1022MOL0     C37898   1.204   8.049  10.430  0.5573 -0.1358 -0.2894
 1022MOL0     C37899   1.192   7.962  10.545 -0.2225  0.4458  0.2249
 1022MOL0     C37900   1.192   7.867  10.623 -1.3867 -0.1842  0.1122
 1022MOL0     C37901   1.186   8.678  10.569 -0.5494 -0.0425 -0.3139
 1022MOL0     C37902   1.220   8.817  10.581 -0.7392  0.5995 -0.4781
 1022MOL0     H37903   1.180   9.300  10.542 -4.0245  0.4773 -0.5796
 1022MOL0     H37904   1.208   9.547  10.509  2.5786 -1.2770  0.2228
 1022MOL0     H37905   1.341   9.726  10.128  0.3460 -1.8505  1.9221
 1022MOL0     H37906   1.178   9.686  10.067 -2.0827 -0.7981 -0.1013
 1022MOL0     H37907   1.237   9.938  10.234 -0.6644 -2.3179  1.4273
 1022MOL0     H37908   1.217   9.939  10.055  3.4065  1.6122  1.7405
 1022MOL0     H37909   0.977   9.834  10.110  1.7123 -0.0718 -3.3748
 1022MOL0     H37910   1.030   9.874  10.284  2.5542 -0.3957  0.0405
 1022MOL0     H37911   1.010  10.085  10.261  1.5905  2.4527 -0.1579
 1022MOL0     H37912   1.059  10.112  10.088  0.5979 -0.2572  0.8804
 1022MOL0     H37913   0.832  10.002  10.028  0.3676 -1.1485 -0.1461
 1022MOL0     H37914   0.789  10.016  10.195 -0.8958 -1.8662 -1.7476
 1022MOL0     H37915   0.818  10.260  10.190 -1.5144  0.6214 -0.5750
 1022MOL0     H37916   0.902  10.263  10.035 -1.3928  0.6826 -0.6848
 1022MOL0     H37917   0.676  10.331   9.973 -0.3788  0.4888  0.3566
 1022MOL0     H37918   0.683  10.157   9.936  1.6313  1.3783 -1.6929
 1022MOL0     H37919   0.561  10.115  10.163 -1.3768  0.4195 -0.3905
 1022MOL0     H37920   0.479  10.198  10.032  0.0565 -1.0967 -0.9057
 1022MOL0     H37921   0.432  10.481  10.127 -0.3460  1.3932  0.5262
 1022MOL0     H37922   0.343  10.616  10.344  0.1675 -2.3282  0.0182
 1022MOL0     H37923   0.464  10.645  10.463 -3.4547 -2.8466  1.2228
 1022MOL0     H37924   0.505  10.844  10.348  3.7399  0.1612  1.6185
 1022MOL0     H37925   0.489  10.777  10.183 -1.3611  1.8885  0.6620
 1022MOL0     H37926   0.717  10.830  10.247  1.0076  0.3410  1.0238
 1022MOL0     H37927   0.711  10.667  10.220  1.1062 -0.2770 -0.4178
 1022MOL0     H37928   0.721  10.591  10.446  0.0760 -0.7365 -1.1979
 1022MOL0     H37929   0.710  10.748  10.512 -1.1071  0.8001 -1.1428
 1022MOL0     H37930   1.113  10.795  10.358  0.0836 -0.3447 -1.2312
 1022MOL0     H37931   1.333  10.781  10.193 -0.0214 -0.4330  0.0561
 1022MOL0     H37932   1.359  10.726  10.357  4.0660 -0.2998 -1.0767
 1022MOL0     H37933   1.423  10.634  10.224  0.8075  0.4110 -1.0150
 1022MOL0     H37934   1.564  10.344  10.140  3.7889  2.6167  0.7220
 1022MOL0     H37935   1.728  10.237  10.042 -0.0966  1.5713  1.5504
 1022MOL0     H37936   1.739  10.254   9.565  0.9312 -0.3252 -0.9524
 1022MOL0     H37937   1.819  10.359   9.680  1.3109 -0.2169 -0.3172
 1022MOL0     H37938   1.990  10.151   9.701  2.3864  4.6612  0.4767
 1022MOL0     H37939   1.903  10.095   9.561  0.9873  0.3326 -0.6582
 1022MOL0     H37940   2.123  10.199   9.495  0.0803  2.3595 -1.2420
 1022MOL0     H37941   2.079  10.331   9.582  0.1277 -0.8237  0.9851
 1022MOL0     H37942   1.882  10.239   9.362  0.3924 -1.3645  0.2634
 1022MOL0     H37943   1.905  10.393   9.432 -1.9638 -0.7104 -3.1302
 1022MOL0     H37944   2.137  10.402   9.329 -0.2469 -0.6567  1.0920
 1022MOL0     H37945   2.007  10.453   9.234 -2.4669  0.0542  2.1994
 1022MOL0     H37946   2.006  10.268   9.091 -0.7521 -1.0325  1.3073
 1022MOL0     H37947   2.172  10.306   9.117  0.0549 -0.3418  0.9201
 1022MOL0     H37948   2.011  10.065   9.194  0.0708  1.3789 -0.2247
 1022MOL0     H37949   2.139  10.098   9.298  0.6105 -2.7998 -0.9026
 1022MOL0     H37950   2.235   9.957   9.135 -0.3709  0.4187  0.7960
 1022MOL0     H37951   2.307  10.113   9.102  1.8376 -3.1434  2.3939
 1022MOL0     H37952   1.549  10.316   9.661 -0.4347  4.0337 -0.3203
 1022MOL0     H37953   1.357  10.438   9.782  0.0039 -0.8266 -0.8247
 1022MOL0     H37954   1.011  10.350  10.183  1.2183  0.7342 -3.3711
 1022MOL0     H37955   0.836  10.488  10.294 -0.2908  2.0104 -0.2560
 1022MOL0     H37956   1.224   9.485  10.077 -0.8457 -0.3880 -1.1887
 1022MOL0     H37957   1.242   9.240  10.126 -0.5070 -1.4292  1.6228
 1022MOL0     H37958   1.137   8.881  10.253 -0.8708  0.0456  0.4945
 1022MOL0     H37959   1.061   8.658  10.253 -0.6887  2.4189 -0.9355
 1022MOL0     H37960   1.186   8.407  10.630 -1.6636 -1.1102  2.0211
 1022MOL0     H37961   1.026   8.438  10.632  0.8372  1.3182  1.3086
 1022MOL0     H37962   1.019   8.252  10.419  0.7597 -1.6507  0.0998
 1022MOL0     H37963   1.037   8.192  10.579 -1.5458  0.4193 -0.5796
 1022MOL0     H37964   1.286   8.207  10.550 -0.1922 -0.3199 -0.1629
 1022MOL0     H37965   1.247   8.248  10.378 -2.3453 -1.7030 -1.7248
 1022MOL0     H37966   1.286   8.019  10.364  0.0947 -3.0959  0.3751
 1022MOL0     H37967   1.115   8.025  10.371 -3.3527 -0.3475  4.9369
 1022MOL0     H37968   1.172   7.790  10.695  4.2756 -2.4342 -0.2675
 1022MOL0     H37969   1.201   8.621  10.660 -0.6110 -0.2909 -0.4552
 1022MOL0     H37970   1.257   8.852  10.677  1.9333 -0.8650 -0.8809
 1023MOL0     O37971   0.009   4.399   2.855 -0.3935  0.3212 -0.1525
 1023MOL0     C37972  -0.089   4.412   2.785 -0.3833 -0.9782  0.4990
 1023MOL0     O37973  -0.222   4.419   2.839 -0.0881  0.0068 -0.1809
 1023MOL0     C37974  -0.220   4.400   2.973  0.3065  0.3287 -0.0204
 1023MOL0     C37975  -0.245   4.273   3.033 -0.7565  1.2172 -0.1922
 1023MOL0     C37976  -0.220   4.260   3.171  0.1910  0.6693 -0.1397
 1023MOL0     C37977  -0.172   4.361   3.254  0.3775  1.1224  0.3100
 1023MOL0     O37978  -0.166   4.358   3.387 -0.5126 -0.1789 -0.7204
 1023MOL0     C37979  -0.110   4.230   3.434  0.6026  0.0637  0.1827
 1023MOL0     C37980  -0.013   4.257   3.552 -0.5132  0.3464 -0.0596
 1023MOL0     C37981   0.050   4.129   3.614  0.0727  0.2335  0.1902
 1023MOL0     C37982  -0.056   4.042   3.688  0.1493  0.1954  0.1744
 1023MOL0     C37983  -0.003   3.905   3.743 -0.6219 -0.8724 -0.1517
 1023MOL0     C37984   0.130   3.909   3.822  0.3557  0.1870  0.5191
 1023MOL0     C37985   0.166   3.762   3.861 -0.7471  0.6006  0.1440
 1023MOL0     C37986   0.062   3.700   3.958  0.3557  0.0549 -0.9641
 1023MOL0     N37987   0.043   3.775   4.083 -0.3277 -0.2761 -1.3152
 1023MOL0     C37988  -0.062   3.861   4.105  0.3778  0.3312  0.5871
 1023MOL0     C37989  -0.016   3.959   4.188  0.6845  0.4531 -0.0246
 1023MOL0     C37990  -0.077   4.077   4.261  0.6389 -0.4115  1.0647
 1023MOL0     C37991  -0.211   4.136   4.219  0.3482 -0.2306 -0.5521
 1023MOL0     C37992  -0.208   4.161   4.068 -1.1237  0.0856  0.2588
 1023MOL0     C37993  -0.284   4.277   4.020  1.5546 -0.4480  0.2317
 1023MOL0     O37994  -0.265   4.299   3.879 -1.1342  1.0774 -0.4058
 1023MOL0     C37995  -0.354   4.375   3.814  0.2624 -0.5099  0.5004
 1023MOL0     C37996  -0.381   4.344   3.680 -0.8539  0.3515  0.3890
 1023MOL0     C37997  -0.483   4.411   3.611 -0.4031  0.9941  1.0137
 1023MOL0     C37998  -0.506   4.360   3.477 -0.4046  0.5846  0.5492
 1023MOL0     C37999  -0.548   4.522   3.673 -0.2925  0.0013  0.1461
 1023MOL0     C38000  -0.654   4.603   3.599  0.5395 -1.3672  0.1639
 1023MOL0     O38001  -0.768   4.637   3.675 -0.5540 -0.7625  0.2716
 1023MOL0     C38002  -0.876   4.704   3.623  1.0311  0.5867  0.5803
 1023MOL0     C38003  -0.973   4.753   3.709 -0.2223 -0.2841 -0.5181
 1023MOL0     C38004  -1.093   4.807   3.677 -0.2609  0.4934  0.9116
 1023MOL0     C38005  -1.126   4.824   3.544 -0.4916  1.0651 -0.4440
 1023MOL0     O38006  -1.248   4.851   3.499  0.1446  0.9720  0.4210
 1023MOL0     C38007  -1.364   4.867   3.582  0.2286  0.1038 -0.0061
 1023MOL0     C38008  -1.389   5.010   3.623 -0.6315 -0.5886  0.6686
 1023MOL0     C38009  -1.533   5.041   3.629 -0.4874  0.6978  0.4173
 1023MOL0     C38010  -1.586   5.006   3.771 -0.1308 -0.9564  0.8282
 1023MOL0     C38011  -1.740   5.003   3.764  0.3881 -1.3868  0.5908
 1023MOL0     C38012  -1.811   4.997   3.902  0.6218 -0.3315 -0.5047
 1023MOL0     C38013  -1.787   4.867   3.979 -0.3479  0.2905 -0.3249
 1023MOL0     C38014  -1.911   4.825   4.055  0.3359 -0.2599 -0.3610
 1023MOL0    Cl38015  -1.974   4.951   4.164 -0.0830 -0.2483  0.0234
 1023MOL0     C38016  -1.026   4.807   3.449  0.3936  1.3342 -1.2071
 1023MOL0     C38017  -0.905   4.737   3.490  0.4489 -0.1416  0.6597
 1023MOL0     O38018  -0.624   4.654   3.490 -0.2392  0.2790  0.6586
 1023MOL0     C38019  -0.532   4.539   3.813  0.6362  0.0481  0.0147
 1023MOL0     C38020  -0.434   4.467   3.877  0.9240  0.2396  0.4235
 1023MOL0     N38021   0.118   3.934   4.210 -0.4753  0.2069  0.0637
 1023MOL0     N38022   0.152   3.827   4.144  0.5517  0.5755 -0.2561
 1023MOL0     C38023  -0.163   4.491   3.195 -0.3963 -0.8461 -0.0633
 1023MOL0     C38024  -0.180   4.512   3.055 -0.2691 -0.3140 -0.5698
 1023MOL0     C38025  -0.057   4.454   2.646  0.7821  0.6953  0.8469
 1023MOL0     C38026   0.065   4.408   2.588 -0.3682 -0.6680 -0.4789
 1023MOL0     C38027   0.086   4.428   2.457  0.5736  0.4971  0.6322
 1023MOL0     C38028  -0.007   4.493   2.377 -0.4211 -0.1319  0.1559
 1023MOL0     O38029   0.013   4.489   2.245 -0.5996  0.0581  0.3629
 1023MOL0     C38030   0.019   4.617   2.174  0.8984  1.1773 -0.4132
 1023MOL0     C38031  -0.056   4.584   2.043  0.6573  0.3747  0.8776
 1023MOL0     C38032  -0.191   4.506   2.053 -0.0109 -0.3891  0.2869
 1023MOL0     C38033  -0.239   4.434   1.920  0.8726 -0.0358 -0.2346
 1023MOL0     C38034  -0.372   4.372   1.932 -0.7077 -0.5612 -0.0204
 1023MOL0     C38035  -0.475   4.323   1.932  0.0740  1.1365  0.4173
 1023MOL0     C38036  -0.135   4.548   2.435  0.3612  0.6002 -0.8501
 1023MOL0     C38037  -0.147   4.527   2.570  0.1473 -0.2734 -0.9783
 1023MOL0     H38038  -0.275   4.187   2.975 -3.6502  1.3149  1.0034
 1023MOL0     H38039  -0.235   4.160   3.212  2.3600  0.0571 -0.6806
 1023MOL0     H38040  -0.196   4.165   3.455 -0.0325  1.3666  1.7614
 1023MOL0     H38041  -0.062   4.179   3.349  1.7947  3.1784 -1.1526
 1023MOL0     H38042   0.064   4.318   3.506  0.4862 -1.5406 -0.9954
 1023MOL0     H38043  -0.079   4.313   3.620 -2.4027  0.3399 -1.7903
 1023MOL0     H38044   0.114   4.071   3.547 -1.6740 -3.4633  1.4737
 1023MOL0     H38045   0.114   4.171   3.692  1.5619  0.3008 -1.0130
 1023MOL0     H38046  -0.101   4.100   3.768  0.3531  0.0971  0.3605
 1023MOL0     H38047  -0.137   4.016   3.618 -2.0965  1.4006  2.1738
 1023MOL0     H38048  -0.085   3.861   3.799 -0.0483 -0.2101  1.2568
 1023MOL0     H38049   0.013   3.850   3.650 -0.0312 -2.0791  0.6438
 1023MOL0     H38050   0.217   3.945   3.766  1.6218  1.4222  3.0752
 1023MOL0     H38051   0.109   3.976   3.907 -0.8396 -0.8965  1.1102
 1023MOL0     H38052   0.180   3.711   3.765  0.6674  2.8963 -0.9831
 1023MOL0     H38053   0.264   3.764   3.910 -0.7756  0.7871  0.1957
 1023MOL0     H38054   0.094   3.600   3.988 -4.5457 -0.9937  1.8441
 1023MOL0     H38055  -0.026   3.672   3.899  1.6144 -0.6640 -2.5677
 1023MOL0     H38056  -0.156   3.847   4.053  0.8815 -2.1703  0.1926
 1023MOL0     H38057  -0.087   4.045   4.365 -0.1279 -0.9936  0.8173
 1023MOL0     H38058  -0.003   4.157   4.272  1.1076 -0.8819  1.3799
 1023MOL0     H38059  -0.220   4.223   4.283 -0.7254 -0.2467 -0.6608
 1023MOL0     H38060  -0.291   4.067   4.248  0.5171 -0.6731 -1.0964
 1023MOL0     H38061  -0.259   4.083   4.011 -0.6790  0.6280 -0.9287
 1023MOL0     H38062  -0.107   4.154   4.025 -0.4651 -3.5290  2.0192
 1023MOL0     H38063  -0.256   4.368   4.073  0.5491 -0.5850  1.0271
 1023MOL0     H38064  -0.391   4.257   4.031  1.1944  0.1192 -1.7617
 1023MOL0     H38065  -0.313   4.271   3.636 -2.0540  0.3632 -1.6263
 1023MOL0     H38066  -0.455   4.265   3.461 -1.1723  0.5931 -2.4577
 1023MOL0     H38067  -0.611   4.343   3.455 -0.7145  1.6095  1.1466
 1023MOL0     H38068  -0.465   4.433   3.406  1.2538  0.1722  1.0223
 1023MOL0     H38069  -0.948   4.738   3.813  0.8750  2.6953 -0.2514
 1023MOL0     H38070  -1.155   4.826   3.765 -0.2588  2.3852  0.5502
 1023MOL0     H38071  -1.448   4.817   3.532  3.3504 -3.0291 -2.6540
 1023MOL0     H38072  -1.359   4.811   3.675  1.2984  0.0513 -0.0779
 1023MOL0     H38073  -1.340   5.033   3.718  0.9790  0.2620 -0.3317
 1023MOL0     H38074  -1.336   5.077   3.555 -0.2788  0.6456  2.1225
 1023MOL0     H38075  -1.586   4.974   3.560 -0.0007 -1.1827  1.7746
 1023MOL0     H38076  -1.560   5.144   3.606 -3.8336  0.7200  3.5694
 1023MOL0     H38077  -1.538   4.917   3.812  1.9108  0.2759  1.2350
 1023MOL0     H38078  -1.546   5.094   3.822  1.3553 -0.0420 -1.7279
 1023MOL0     H38079  -1.768   4.917   3.703  1.6432 -1.7844  0.5549
 1023MOL0     H38080  -1.776   5.093   3.713  2.2564  0.9680  3.0800
 1023MOL0     H38081  -1.776   5.081   3.962  0.6778 -0.6168 -0.1381
 1023MOL0     H38082  -1.918   5.005   3.878  0.7876  3.4559 -0.6659
 1023MOL0     H38083  -1.709   4.896   4.050  2.2414  1.0565 -3.2345
 1023MOL0     H38084  -1.753   4.786   3.913  0.4144  1.2393 -1.1426
 1023MOL0     H38085  -1.889   4.737   4.116 -1.0103  1.8468  3.5047
 1023MOL0     H38086  -1.993   4.805   3.985  0.4482  0.4912 -0.7170
 1023MOL0     H38087  -1.035   4.827   3.343  1.9124 -0.3919 -1.7089
 1023MOL0     H38088  -0.841   4.702   3.409  0.3701 -2.2376  1.4449
 1023MOL0     H38089  -0.587   4.615   3.867  2.7067  2.9698 -1.7040
 1023MOL0     H38090  -0.426   4.498   3.980  2.2411  0.7445  0.1846
 1023MOL0     H38091  -0.151   4.578   3.258 -1.3446 -0.0978 -0.8947
 1023MOL0     H38092  -0.167   4.611   3.012 -0.7723 -0.1376 -0.3154
 1023MOL0     H38093   0.134   4.357   2.654 -0.5227  2.0967  2.0003
 1023MOL0     H38094   0.183   4.406   2.414  2.1079  1.6755  3.2206
 1023MOL0     H38095  -0.032   4.697   2.227  1.1010  1.8788 -1.2661
 1023MOL0     H38096   0.126   4.639   2.168  0.9293  0.7391 -1.7536
 1023MOL0     H38097   0.016   4.530   1.982  0.6092 -1.3507  2.2623
 1023MOL0     H38098  -0.069   4.685   2.003  0.1152  1.0631  2.6547
 1023MOL0     H38099  -0.263   4.585   2.075  0.1673 -0.5078  1.3508
 1023MOL0     H38100  -0.204   4.438   2.138 -3.9065  0.4374  0.5445
 1023MOL0     H38101  -0.161   4.362   1.891  0.9183  0.2723 -0.8850
 1023MOL0     H38102  -0.233   4.502   1.835 -1.4829  0.4226 -0.0851
 1023MOL0     H38103  -0.579   4.297   1.933  0.1592  0.7801  1.4404
 1023MOL0     H38104  -0.217   4.588   2.376 -1.3952 -1.8604 -0.2466
 1023MOL0     H38105  -0.235   4.558   2.625  0.7135  0.0416 -0.2266
 1024MOL0     O38106  10.693   4.250   1.781  1.1784  0.0730  0.8241
 1024MOL0     C38107  10.646   4.144   1.818  0.2754 -0.8235  0.1664
 1024MOL0     O38108  10.709   4.050   1.901  0.2649 -0.7784  0.4192
 1024MOL0     C38109  10.841   4.018   1.887 -0.5050  0.3232  0.4571
 1024MOL0     C38110  10.920   3.972   1.998 -1.0868 -1.0027 -0.2135
 1024MOL0     C38111  11.058   3.952   1.996 -0.0817 -0.0658 -0.4410
 1024MOL0     C38112  11.119   3.956   1.870 -0.1886 -0.1762  0.4935
 1024MOL0     O38113  11.254   3.926   1.879 -0.0389 -0.6505  0.0195
 1024MOL0     C38114  11.337   3.892   1.760  0.7758  0.6078 -1.4126
 1024MOL0     C38115  11.381   4.008   1.674  0.5883  0.4372  0.0530
 1024MOL0     C38116  11.492   4.107   1.735 -1.4837 -0.2723  0.4589
 1024MOL0     C38117  11.505   4.236   1.647 -0.7756  0.0392  0.4695
 1024MOL0     C38118  11.628   4.301   1.713  0.5226  0.1052  0.8408
 1024MOL0     C38119  11.660   4.433   1.621 -0.4455 -0.4486 -0.7605
 1024MOL0     C38120  11.752   4.410   1.503 -0.1394  0.8343  0.5062
 1024MOL0     C38121  11.812   4.542   1.460  0.5357  0.4416 -0.4864
 1024MOL0     N38122  11.896   4.541   1.339  0.4304 -0.2884 -0.1580
 1024MOL0     C38123  11.840   4.536   1.215  0.0809  0.4917 -1.4871
 1024MOL0     C38124  11.945   4.524   1.132  0.0051  0.9720  0.2301
 1024MOL0     C38125  11.925   4.522   0.981 -0.2664 -0.1078  0.0449
 1024MOL0     C38126  11.790   4.479   0.925 -0.3693 -0.0187  0.6218
 1024MOL0     C38127  11.782   4.460   0.773 -0.1215  0.6715 -0.3046
 1024MOL0     C38128  11.641   4.434   0.735  0.4913  0.2968 -0.1698
 1024MOL0     O38129  11.558   4.551   0.751 -0.2842  0.7191 -0.1809
 1024MOL0     C38130  11.431   4.531   0.785 -0.2517  1.3265  0.4507
 1024MOL0     C38131  11.355   4.412   0.777 -0.8067  0.1561  1.0050
 1024MOL0     C38132  11.224   4.405   0.833  0.0629 -0.3337  0.2183
 1024MOL0     C38133  11.169   4.276   0.846  0.9146  0.5189  0.0694
 1024MOL0     C38134  11.156   4.521   0.875  1.1688  0.4662  0.0215
 1024MOL0     C38135  11.027   4.524   0.939  0.6064 -0.2788 -0.4689
 1024MOL0     O38136  10.964   4.408   0.965 -0.2523  0.0671  0.1547
 1024MOL0     C38137  10.842   4.392   1.023 -0.6478  0.2683 -0.0409
 1024MOL0     C38138  10.750   4.497   1.027 -0.0984  0.3164  0.3153
 1024MOL0     C38139  10.627   4.480   1.083  0.3124  0.2900 -0.3200
 1024MOL0     C38140  10.590   4.351   1.131 -0.3320 -0.2917  0.1166
 1024MOL0     O38141  10.469   4.309   1.176 -0.2800  0.1852  0.9939
 1024MOL0     C38142  10.370   4.413   1.200 -0.5594  1.1380  0.6203
 1024MOL0     C38143  10.225   4.361   1.175  0.4184  0.3869 -0.4566
 1024MOL0     C38144  10.150   4.292   1.304  0.0409  0.5398  0.7685
 1024MOL0     C38145  10.066   4.392   1.385 -0.8138 -0.2335 -1.2708
 1024MOL0     C38146  10.014   4.336   1.521 -0.3427 -0.4972 -0.2846
 1024MOL0     C38147   9.874   4.279   1.505 -0.4431  0.2583  0.4925
 1024MOL0     C38148   9.823   4.226   1.639  0.2570 -0.3888 -0.1783
 1024MOL0     C38149   9.688   4.156   1.596 -0.1421 -0.6238 -0.4443
 1024MOL0    Cl38150   9.566   4.139   1.738  0.5780 -0.2415  0.2105
 1024MOL0     C38151  10.683   4.243   1.126  0.9707  0.2244  0.6153
 1024MOL0     C38152  10.807   4.268   1.072  0.0149  0.6851  0.4799
 1024MOL0     O38153  11.000   4.635   0.983  0.0095  0.4998 -0.0895
 1024MOL0     C38154  11.230   4.642   0.870  0.4924 -0.2348  0.6902
 1024MOL0     C38155  11.361   4.640   0.833  0.3789  0.5858 -0.8059
 1024MOL0     N38156  12.056   4.534   1.203 -1.2033  0.0907 -0.2504
 1024MOL0     N38157  12.031   4.537   1.329  0.5709  1.1591  0.1366
 1024MOL0     C38158  11.037   3.986   1.755 -1.4894  0.5639 -0.1060
 1024MOL0     C38159  10.896   4.012   1.767 -0.8020  0.9640 -0.2123
 1024MOL0     C38160  10.506   4.107   1.779 -0.2611  1.4088  0.3272
 1024MOL0     C38161  10.491   3.979   1.730  0.0190  0.5260 -0.4123
 1024MOL0     C38162  10.372   3.940   1.684  0.7546  0.8451  1.1153
 1024MOL0     C38163  10.257   4.026   1.700 -0.3446  0.3065 -0.4220
 1024MOL0     O38164  10.131   3.991   1.674  0.5177 -0.5454 -0.4187
 1024MOL0     C38165  10.115   3.914   1.561  0.0470  0.0093 -0.0999
 1024MOL0     C38166   9.967   3.922   1.518  0.8391  0.0702 -1.4830
 1024MOL0     C38167   9.936   3.839   1.386  0.0719  0.0542 -0.1892
 1024MOL0     C38168   9.928   3.930   1.271 -0.3346 -0.4387  0.1587
 1024MOL0     C38169  10.058   3.932   1.214  0.0931 -0.4554 -0.4797
 1024MOL0     C38170  10.171   3.953   1.168 -0.1998 -0.2057 -0.2251
 1024MOL0     C38171  10.274   4.149   1.753 -0.4970  0.6046 -0.7676
 1024MOL0     C38172  10.404   4.194   1.791 -0.1813 -1.1202 -0.6218
 1024MOL0     H38173  10.880   3.964   2.098  2.2485 -0.2346  1.3239
 1024MOL0     H38174  11.117   3.930   2.084  1.6325  0.7822 -1.3193
 1024MOL0     H38175  11.425   3.842   1.801  1.6324  2.3485 -1.0327
 1024MOL0     H38176  11.270   3.827   1.704 -2.6575  2.1845  0.5131
 1024MOL0     H38177  11.422   3.953   1.589 -1.7309 -1.5882  0.1126
 1024MOL0     H38178  11.300   4.072   1.638 -0.9347 -1.2791  0.2590
 1024MOL0     H38179  11.475   4.129   1.841  0.4167  0.0061  0.7388
 1024MOL0     H38180  11.586   4.052   1.734 -2.0982 -1.3474  0.7951
 1024MOL0     H38181  11.535   4.204   1.546  3.6985  0.9623  1.2800
 1024MOL0     H38182  11.415   4.298   1.639  0.7105  2.0846 -3.1153
 1024MOL0     H38183  11.601   4.329   1.815 -1.7877 -0.2342  0.3734
 1024MOL0     H38184  11.714   4.234   1.716  2.1602  2.1328  2.9248
 1024MOL0     H38185  11.572   4.487   1.584 -0.1732  0.6949  0.2011
 1024MOL0     H38186  11.713   4.499   1.691  1.3161 -1.1842 -1.3468
 1024MOL0     H38187  11.822   4.330   1.529 -0.8546 -0.6170 -1.7632
 1024MOL0     H38188  11.703   4.379   1.410 -1.7223 -1.1949  1.9296
 1024MOL0     H38189  11.879   4.564   1.544 -0.4999  0.1001  0.4502
 1024MOL0     H38190  11.732   4.615   1.461 -0.4469 -0.6091  0.2145
 1024MOL0     H38191  11.734   4.518   1.198  0.2494 -0.5016 -1.5564
 1024MOL0     H38192  11.930   4.630   0.964 -2.1348 -0.1466 -0.9789
 1024MOL0     H38193  12.014   4.471   0.942  1.2577  0.5232  2.4619
 1024MOL0     H38194  11.709   4.547   0.952 -0.8264 -0.6963  0.9699
 1024MOL0     H38195  11.769   4.380   0.967  1.9847 -2.0477 -2.5248
 1024MOL0     H38196  11.829   4.364   0.752  4.6467  1.9789  2.7697
 1024MOL0     H38197  11.841   4.534   0.718  3.1984 -1.0058  0.7027
 1024MOL0     H38198  11.608   4.361   0.809  2.7684 -1.6960 -0.9834
 1024MOL0     H38199  11.631   4.383   0.638  0.3023 -2.7538  1.3399
 1024MOL0     H38200  11.403   4.325   0.735 -1.3090  0.2580  0.2020
 1024MOL0     H38201  11.083   4.274   0.778  1.7191  0.2375 -0.9612
 1024MOL0     H38202  11.232   4.198   0.803 -1.4605 -2.1816  1.1208
 1024MOL0     H38203  11.149   4.252   0.951 -3.8163 -1.4686 -1.0474
 1024MOL0     H38204  10.766   4.591   0.976  0.1257  1.0539  1.6936
 1024MOL0     H38205  10.557   4.563   1.086 -0.4410 -0.3600  1.8237
 1024MOL0     H38206  10.381   4.453   1.302  3.0613  2.6675 -0.1729
 1024MOL0     H38207  10.388   4.498   1.133  0.0262  1.7496  1.5219
 1024MOL0     H38208  10.160   4.437   1.132  2.6941  3.4097  1.0121
 1024MOL0     H38209  10.229   4.287   1.094 -0.9765 -1.7740  1.3175
 1024MOL0     H38210  10.227   4.253   1.370  1.8517 -1.0089 -2.0683
 1024MOL0     H38211  10.094   4.206   1.266  1.7369 -0.0427 -0.5171
 1024MOL0     H38212  10.116   4.487   1.403 -1.9447  0.7794 -3.2093
 1024MOL0     H38213   9.975   4.410   1.328 -1.9347  1.1182  0.8070
 1024MOL0     H38214  10.020   4.418   1.593  0.3942 -3.3244  3.1572
 1024MOL0     H38215  10.078   4.252   1.551 -0.6551 -0.1125  1.5477
 1024MOL0     H38216   9.808   4.362   1.477 -1.9269 -0.7948  0.8083
 1024MOL0     H38217   9.876   4.198   1.432 -1.1797  0.3950  0.3212
 1024MOL0     H38218   9.810   4.312   1.705  2.1995 -1.3137  1.5130
 1024MOL0     H38219   9.893   4.148   1.672  1.9995  1.2667  0.2593
 1024MOL0     H38220   9.720   4.058   1.560 -0.6615 -0.6360 -0.8930
 1024MOL0     H38221   9.643   4.214   1.515  0.5115  0.9793  0.2854
 1024MOL0     H38222  10.653   4.142   1.150  0.3389 -0.9741 -4.1163
 1024MOL0     H38223  10.883   4.192   1.061  0.0600  0.5675  1.5201
 1024MOL0     H38224  11.199   4.736   0.914 -1.9270 -1.4006  1.6680
 1024MOL0     H38225  11.410   4.737   0.840  0.6841  0.3366  0.8452
 1024MOL0     H38226  11.082   3.993   1.656 -1.3286 -1.0105 -0.1677
 1024MOL0     H38227  10.841   4.037   1.677  1.0541  0.5205 -1.5455
 1024MOL0     H38228  10.575   3.910   1.727  1.8370  2.6594 -2.2163
 1024MOL0     H38229  10.358   3.844   1.636  0.7696  2.2039 -1.8374
 1024MOL0     H38230  10.183   3.943   1.480  1.3680 -2.0582  0.1828
 1024MOL0     H38231  10.139   3.808   1.578  0.4262 -0.0580 -1.0207
 1024MOL0     H38232   9.932   4.025   1.508 -0.4559  0.2247  2.7184
 1024MOL0     H38233   9.914   3.875   1.601 -0.2538 -1.4655 -2.9701
 1024MOL0     H38234   9.838   3.792   1.402 -0.0709  1.0686  2.3422
 1024MOL0     H38235   9.999   3.750   1.371  0.3700 -0.0409  1.4090
 1024MOL0     H38236   9.897   4.029   1.305  0.0475  0.3526 -1.6690
 1024MOL0     H38237   9.862   3.879   1.200  0.4554 -1.0504 -0.1513
 1024MOL0     H38238  10.264   3.973   1.118 -0.0632  1.7248  0.7061
 1024MOL0     H38239  10.186   4.213   1.760 -0.2524  0.7871  0.7899
 1024MOL0     H38240  10.412   4.289   1.843  0.3113 -2.6004  2.1978
  11.51740  11.51740  11.51740
